Written by MDAnalysis
63000
    1BOLB   NC1    1  17.611  -8.390  20.312  0.0066  0.1643 -0.0870
    1BOLB   PO1    2  18.027  -8.368  20.623  0.1688 -0.1366 -0.3684
    1BOLB   GL1    3  17.958  -7.929  20.815  0.0530 -0.2165  0.3470
    1BOLB   GL2    4  18.234  -7.757  21.108  0.2896  0.1106 -0.2021
    1BOLB   C1A    5  18.064  -7.551  20.627  0.0188 -0.1304 -0.2043
    1BOLB   C2A    6  17.771  -7.163  20.717 -0.3244 -0.1928  0.1722
    1BOLB   C3A    7  17.797  -6.675  20.711 -0.1508 -0.1412 -0.1314
    1BOLB   C4A    8  17.685  -6.385  20.984  0.3105  0.3382 -0.1488
    1BOLB   C1B    9  17.769  -7.645  21.191 -0.3306 -0.0292 -0.0611
    1BOLB   C2B   10  17.455  -7.422  21.271 -0.0695  0.1137  0.1080
    1BOLB   C3B   11  17.316  -7.354  21.650  0.1779 -0.1972  0.1581
    1BOLB   C4B   12  17.254  -7.299  22.116 -0.2083  0.2434  0.1323
    1BOLB   NC2   13  17.092  -8.839  22.020 -0.1884  0.2243 -0.2237
    1BOLB   PO2   14  16.970  -8.606  21.698  0.1211 -0.0736  0.0995
    1BOLB   GL3   15  17.166  -8.191  21.750 -0.0029 -0.0112  0.1473
    1BOLB   GL4   16  16.946  -7.959  21.893 -0.4751  0.0496  0.0293
    1BOLB   C1C   17  17.073  -7.801  21.424 -0.0097 -0.1337  0.4202
    1BOLB   C2C   18  16.912  -7.311  21.356  0.0870  0.3127 -0.0894
    1BOLB   C3C   19  17.124  -6.977  21.473 -0.0475 -0.0170 -0.2351
    1BOLB   C4C   20  17.347  -6.559  21.392 -0.0641  0.2676  0.0188
    1BOLB   C1D   21  16.887  -7.521  21.854 -0.1514  0.1230 -0.0099
    1BOLB   C2D   22  16.899  -7.014  21.924  0.3160 -0.4147  0.1156
    1BOLB   C3D   23  17.285  -6.780  21.905 -0.0074  0.0011  0.0910
    1BOLB   C4D   24  17.655  -6.824  21.809  0.0662 -0.1758 -0.0751
    2BOLB   NC1   25   9.205   9.195  25.617  0.1254  0.0137 -0.0211
    2BOLB   PO1   26   9.365   9.566  25.721  0.0447  0.2413  0.2935
    2BOLB   GL1   27   9.080   9.894  25.620 -0.0120  0.1661  0.0035
    2BOLB   GL2   28   8.741  10.039  25.592 -0.0345 -0.1333 -0.0717
    2BOLB   C1A   29   9.073  10.322  25.368 -0.3787 -0.0021 -0.0297
    2BOLB   C2A   30   9.054  10.801  25.192  0.1423 -0.2112 -0.0692
    2BOLB   C3A   31   8.748  11.109  25.115  0.0376 -0.0910  0.1050
    2BOLB   C4A   32   8.488  11.177  24.793  0.1412  0.0977  0.1375
    2BOLB   C1B   33   8.483  10.243  25.569  0.0813 -0.2127  0.0151
    2BOLB   C2B   34   7.979  10.313  25.529 -0.1603  0.0324 -0.0183
    2BOLB   C3B   35   7.553  10.328  25.577  0.0054 -0.0969 -0.0642
    2BOLB   C4B   36   7.287  10.092  25.479  0.0333 -0.1876 -0.0491
    2BOLB   NC2   37   6.896  13.208  23.977 -0.0137  0.0629 -0.1019
    2BOLB   PO2   38   7.117  13.257  24.382 -0.1388  0.0989 -0.0681
    2BOLB   GL3   39   7.147  12.844  24.411 -0.2988  0.1845 -0.0156
    2BOLB   GL4   40   7.011  12.699  24.600 -0.0449 -0.0143 -0.2223
    2BOLB   C1C   41   7.329  12.440  24.202 -0.1149 -0.0832  0.2206
    2BOLB   C2C   42   7.645  12.193  24.192 -0.1911  0.0387 -0.2583
    2BOLB   C3C   43   8.040  11.813  24.259  0.5784  0.1531 -0.2408
    2BOLB   C4C   44   8.370  11.508  24.434 -0.1352 -0.0352 -0.4563
    2BOLB   C1D   45   7.251  12.370  24.686 -0.1292 -0.1566  0.0072
    2BOLB   C2D   46   7.396  12.044  24.672 -0.2390  0.2885 -0.1287
    2BOLB   C3D   47   7.641  11.735  24.735  0.1040  0.2606  0.0506
    2BOLB   C4D   48   7.965  11.413  24.689  0.0256 -0.0138  0.1491
    3BOLB   NC1   49  17.271  -0.445  31.815 -0.0043 -0.2354 -0.1765
    3BOLB   PO1   50  17.446  -0.687  31.411  0.2369 -0.1090  0.0124
    3BOLB   GL1   51  17.448  -0.981  31.743 -0.0460  0.5385  0.1717
    3BOLB   GL2   52  17.742  -0.947  32.063  0.1013 -0.2042 -0.1106
    3BOLB   C1A   53  17.461  -1.431  31.936 -0.0974  0.1920 -0.0554
    3BOLB   C2A   54  17.527  -1.559  32.352 -0.3029  0.1765 -0.0829
    3BOLB   C3A   55  17.535  -1.628  32.739  0.3109 -0.4117  0.0634
    3BOLB   C4A   56  17.540  -1.481  33.094 -0.2275  0.0850 -0.0030
    3BOLB   C1B   57  17.361  -1.068  32.260  0.2361  0.4240 -0.1838
    3BOLB   C2B   58  16.914  -0.870  32.435  0.2411  0.0864  0.0726
    3BOLB   C3B   59  16.765  -0.934  32.906  0.2602 -0.1054  0.0356
    3BOLB   C4B   60  17.043  -1.015  33.172 -0.0595 -0.1090  0.1291
    3BOLB   NC2   61  18.196  -1.978  35.330 -0.3673 -0.1373 -0.0964
    3BOLB   PO2   62  18.513  -2.133  35.069  0.0647  0.1371  0.2683
    3BOLB   GL3   63  18.548  -2.206  34.589  0.1697 -0.1173 -0.1731
    3BOLB   GL4   64  18.779  -2.198  34.462  0.1639 -0.1621 -0.1127
    3BOLB   C1C   65  18.281  -2.126  34.242  0.0269  0.0351  0.1246
    3BOLB   C2C   66  17.906  -1.956  34.099 -0.1502 -0.1383  0.3620
    3BOLB   C3C   67  17.524  -1.824  33.880  0.1841 -0.0760 -0.0673
    3BOLB   C4C   68  17.479  -1.817  33.454  0.2421 -0.1054  0.1144
    3BOLB   C1D   69  18.681  -1.789  34.186 -0.2601 -0.1005 -0.0216
    3BOLB   C2D   70  18.976  -1.461  33.998  0.1023  0.1302 -0.1130
    3BOLB   C3D   71  18.972  -1.056  33.706  0.1073 -0.2231  0.3321
    3BOLB   C4D   72  19.170  -0.621  33.602 -0.1931  0.4110 -0.0854
    4BOLB   NC1   73  16.581   0.842  32.541 -0.4480  0.0880 -0.0951
    4BOLB   PO1   74  16.983   0.686  32.515 -0.1484 -0.0469 -0.0881
    4BOLB   GL1   75  17.155   0.628  32.888  0.0734 -0.3221 -0.0440
    4BOLB   GL2   76  17.372   0.916  33.000  0.1997  0.1232  0.4447
    4BOLB   C1A   77  17.099   0.359  33.331  0.1519  0.1392 -0.0752
    4BOLB   C2A   78  17.221   0.304  33.699  0.1014 -0.3274 -0.0343
    4BOLB   C3A   79  17.540   0.064  33.870 -0.0170 -0.4658  0.0157
    4BOLB   C4A   80  17.766  -0.142  34.221  0.1716  0.0002  0.2936
    4BOLB   C1B   81  17.346   0.779  33.386 -0.2136 -0.3364  0.3775
    4BOLB   C2B   82  17.069   0.824  33.797 -0.0536 -0.0929  0.1695
    4BOLB   C3B   83  16.985   0.963  34.126  0.0905 -0.1118  0.1544
    4BOLB   C4B   84  17.059   1.120  34.479 -0.2307  0.3287  0.1081
    4BOLB   NC2   85  18.160  -0.665  36.721 -0.4637 -0.0148  0.0704
    4BOLB   PO2   86  18.539  -0.507  36.450 -0.0224 -0.0333  0.0700
    4BOLB   GL3   87  18.411  -0.179  36.075 -0.1286  0.2143  0.2466
    4BOLB   GL4   88  18.481  -0.261  35.813 -0.0384  0.0535  0.2009
    4BOLB   C1C   89  18.038  -0.038  35.770  0.2700  0.1179  0.1283
    4BOLB   C2C   90  18.019  -0.282  35.460 -0.1616 -0.2459  0.5104
    4BOLB   C3C   91  17.911  -0.340  34.986 -0.2193  0.2315  0.1057
    4BOLB   C4C   92  18.009  -0.171  34.619 -0.0939  0.0716 -0.0125
    4BOLB   C1D   93  18.708  -0.191  35.523  0.0194 -0.0604  0.1606
    4BOLB   C2D   94  18.855  -0.269  35.068 -0.0053 -0.2299 -0.0770
    4BOLB   C3D   95  19.039  -0.241  34.618  0.0234 -0.2373 -0.0484
    4BOLB   C4D   96  19.371  -0.132  34.405 -0.0474  0.2980 -0.1261
    5BOLB   NC1   97   8.672  -0.911  25.977 -0.1528 -0.2434 -0.0367
    5BOLB   PO1   98   8.766  -1.168  25.659 -0.0749  0.3830  0.0361
    5BOLB   GL1   99   8.409  -1.312  25.846  0.5228 -0.3068 -0.2384
    5BOLB   GL2  100   8.167  -1.097  26.102 -0.1509 -0.1659  0.0758
    5BOLB   C1A  101   8.145  -1.654  25.800  0.2296  0.1041  0.0866
    5BOLB   C2A  102   7.967  -1.991  25.963  0.1173  0.2531 -0.0343
    5BOLB   C3A  103   7.579  -2.198  25.839 -0.0917 -0.0450 -0.1800
    5BOLB   C4A  104   7.239  -2.303  26.087  0.0480 -0.1724 -0.1884
    5BOLB   C1B  105   7.782  -1.380  26.032  0.1761 -0.0213 -0.1476
    5BOLB   C2B  106   7.496  -1.506  26.374 -0.0030  0.0690 -0.0358
    5BOLB   C3B  107   7.509  -1.607  26.832  0.1381  0.2939  0.3671
    5BOLB   C4B  108   7.527  -1.874  27.234 -0.0902 -0.1056 -0.1021
    5BOLB   NC2  109   5.144  -3.447  26.603  0.1641  0.1057  0.0136
    5BOLB   PO2  110   5.100  -3.243  27.009 -0.0694  0.1408  0.2135
    5BOLB   GL3  111   5.477  -2.950  27.018  0.0291  0.0573 -0.0312
    5BOLB   GL4  112   5.544  -2.956  27.326 -0.2099 -0.1711  0.0894
    5BOLB   C1C  113   5.792  -2.710  26.944  0.1340  0.3255  0.2859
    5BOLB   C2C  114   6.090  -2.467  26.671 -0.3063 -0.0466 -0.0391
    5BOLB   C3C  115   6.471  -2.396  26.491 -0.0475  0.0051 -0.2156
    5BOLB   C4C  116   6.838  -2.277  26.386 -0.0131  0.0598 -0.0800
    5BOLB   C1D  117   5.956  -2.722  27.437 -0.0658  0.0952 -0.3690
    5BOLB   C2D  118   6.399  -2.620  27.073 -0.1645 -0.3231 -0.2896
    5BOLB   C3D  119   6.812  -2.423  26.859  0.2454  0.0660  0.0446
    5BOLB   C4D  120   7.206  -2.208  26.897  0.3755  0.3445 -0.0562
    6BOLB   NC1  121   9.223   9.454  24.764  0.0402  0.2005  0.0503
    6BOLB   PO1  122   9.277   9.644  25.245 -0.2616  0.1165  0.0045
    6BOLB   GL1  123   9.043   9.865  25.025 -0.0108 -0.0852  0.2339
    6BOLB   GL2  124   8.982   9.843  24.634  0.2420 -0.0108  0.1912
    6BOLB   C1A  125   8.785  10.093  25.034 -0.2979 -0.1415  0.1617
    6BOLB   C2A  126   8.610  10.460  25.114 -0.2079  0.0730  0.1042
    6BOLB   C3A  127   8.365  10.745  25.231 -0.2763 -0.1131  0.0743
    6BOLB   C4A  128   7.990  11.077  25.038  0.0477 -0.1126 -0.1720
    6BOLB   C1B  129   8.883  10.178  24.336 -0.2989 -0.0799  0.0507
    6BOLB   C2B  130   8.554  10.358  24.138  0.3065  0.1496 -0.2671
    6BOLB   C3B  131   8.105  10.403  24.311 -0.2557  0.3250 -0.0209
    6BOLB   C4B  132   7.678  10.379  24.501  0.0405 -0.0516  0.1893
    6BOLB   NC2  133   6.578  12.432  24.379 -0.1748  0.3573 -0.3107
    6BOLB   PO2  134   6.527  12.663  24.751  0.3492  0.1608 -0.1612
    6BOLB   GL3  135   6.655  12.339  24.895  0.1409  0.1203  0.1600
    6BOLB   GL4  136   6.450  12.059  24.755  0.0624 -0.0101 -0.4441
    6BOLB   C1C  137   7.019  12.104  25.075  0.2030 -0.3425  0.1968
    6BOLB   C2C  138   7.141  11.832  25.182 -0.1244 -0.0877 -0.2583
    6BOLB   C3C  139   7.453  11.567  25.173 -0.1263  0.0423  0.2077
    6BOLB   C4C  140   7.613  11.169  25.073  0.2981  0.1128 -0.0606
    6BOLB   C1D  141   6.943  11.836  24.668  0.0611  0.0256  0.2211
    6BOLB   C2D  142   7.174  11.493  24.655  0.1612  0.0011 -0.0266
    6BOLB   C3D  143   7.521  11.194  24.608 -0.0413  0.2777  0.2667
    6BOLB   C4D  144   7.684  10.755  24.773 -0.1975  0.0669  0.1553
    7BOLB   NC1  145  28.808  -0.111  26.567  0.1479 -0.0241 -0.0291
    7BOLB   PO1  146  28.354  -0.021  26.615  0.0466  0.0209  0.2513
    7BOLB   GL1  147  27.906   0.159  26.591  0.0890 -0.0547 -0.0911
    7BOLB   GL2  148  27.791   0.402  26.286  0.1629 -0.1192 -0.0632
    7BOLB   C1A  149  27.421   0.070  26.566 -0.1261  0.2061  0.0005
    7BOLB   C2A  150  27.054   0.292  26.631  0.1306  0.0108  0.0030
    7BOLB   C3A  151  26.824   0.641  26.383 -0.0504 -0.0675  0.0648
    7BOLB   C4A  152  26.570   1.053  26.115 -0.1545  0.2849 -0.0872
    7BOLB   C1B  153  27.423   0.588  26.263  0.0817  0.1121 -0.1800
    7BOLB   C2B  154  27.187   0.963  26.282  0.3421 -0.3016  0.0733
    7BOLB   C3B  155  26.962   1.146  26.462 -0.0250 -0.2142  0.0478
    7BOLB   C4B  156  26.922   1.407  26.764  0.3745  0.2815 -0.0587
    7BOLB   NC2  157  28.673   0.173  24.680  0.1790  0.2490 -0.1215
    7BOLB   PO2  158  28.236   0.265  24.607  0.1525 -0.0991  0.0160
    7BOLB   GL3  159  27.771   0.314  24.533 -0.0644  0.3856 -0.4521
    7BOLB   GL4  160  27.741  -0.038  24.738  0.2161 -0.3305  0.4239
    7BOLB   C1C  161  27.502   0.491  24.868  0.0349 -0.1133 -0.0602
    7BOLB   C2C  162  27.124   0.489  24.952 -0.0033  0.2822 -0.0242
    7BOLB   C3C  163  26.937   0.784  25.315  0.0744 -0.3604 -0.2455
    7BOLB   C4C  164  26.734   1.061  25.608 -0.0810  0.0598  0.2894
    7BOLB   C1D  165  27.364  -0.073  24.922 -0.1251 -0.3420 -0.2699
    7BOLB   C2D  166  26.871   0.099  24.955 -0.1331 -0.1352 -0.0860
    7BOLB   C3D  167  26.554   0.153  24.611  0.2340  0.1776  0.0517
    7BOLB   C4D  168  26.437  -0.117  24.230 -0.0459  0.1598 -0.1100
    8BOLB   NC1  169   8.432  -6.575  25.075  0.0240 -0.0965 -0.0385
    8BOLB   PO1  170   8.167  -6.311  25.216 -0.2040 -0.3026  0.1919
    8BOLB   GL1  171   8.546  -6.144  25.330  0.2697 -0.2995 -0.4234
    8BOLB   GL2  172   8.810  -6.158  25.057 -0.0792 -0.0773  0.0552
    8BOLB   C1A  173   8.624  -5.627  25.170 -0.0604  0.0779 -0.1973
    8BOLB   C2A  174   8.813  -5.311  24.907  0.0090  0.2293  0.0326
    8BOLB   C3A  175   9.115  -4.998  24.861 -0.0123  0.0296  0.3770
    8BOLB   C4A  176   9.533  -4.712  24.844  0.2234  0.1688 -0.2601
    8BOLB   C1B  177   8.953  -5.838  24.797 -0.2783 -0.1057 -0.1243
    8BOLB   C2B  178   9.246  -5.508  24.682  0.2221 -0.1536  0.0723
    8BOLB   C3B  179   9.458  -5.139  24.486  0.0095 -0.1440  0.0395
    8BOLB   C4B  180   9.883  -5.131  24.262  0.1032  0.0938  0.4097
    8BOLB   NC2  181  10.341  -2.871  24.957  0.1461  0.1098  0.0808
    8BOLB   PO2  182  10.059  -2.575  25.209 -0.1275 -0.2895 -0.2830
    8BOLB   GL3  183   9.822  -2.914  25.385  0.0736  0.2659 -0.1455
    8BOLB   GL4  184   9.660  -2.703  25.576  0.3107  0.0705  0.0971
    8BOLB   C1C  185   9.762  -3.366  25.474 -0.0644  0.0341 -0.1285
    8BOLB   C2C  186   9.711  -3.760  25.696 -0.1252  0.0916  0.0945
    8BOLB   C3C  187   9.637  -4.214  25.554 -0.0491  0.1835  0.0954
    8BOLB   C4C  188   9.617  -4.401  25.210  0.2572  0.0044  0.0688
    8BOLB   C1D  189   9.296  -2.709  25.842 -0.0588  0.0388 -0.1445
    8BOLB   C2D  190   9.033  -2.952  25.813  0.0944 -0.1030 -0.1767
    8BOLB   C3D  191   8.655  -3.101  25.834  0.2081  0.0175 -0.0542
    8BOLB   C4D  192   8.244  -3.217  25.889  0.2792 -0.0712  0.0133
    9BOLB   NC1  193  23.678   5.985  24.392  0.0980  0.0013  0.1929
    9BOLB   PO1  194  23.741   6.208  24.036 -0.0040 -0.1517 -0.2918
    9BOLB   GL1  195  24.045   6.494  23.776  0.0318 -0.0314  0.1018
    9BOLB   GL2  196  24.211   6.343  23.573  0.2028 -0.0470 -0.0387
    9BOLB   C1A  197  24.496   6.705  23.708  0.3673 -0.1571 -0.4645
    9BOLB   C2A  198  24.955   6.835  23.527  0.3298  0.2901 -0.0339
    9BOLB   C3A  199  25.005   7.173  23.256  0.3695 -0.1737  0.1420
    9BOLB   C4A  200  25.323   7.250  22.921  0.3658 -0.0885 -0.0454
    9BOLB   C1B  201  24.678   6.251  23.659 -0.0009  0.1554 -0.0676
    9BOLB   C2B  202  25.064   6.347  23.554  0.0583  0.0018 -0.0261
    9BOLB   C3B  203  25.427   6.646  23.380  0.1719  0.2597  0.1422
    9BOLB   C4B  204  25.679   7.092  23.272 -0.4251 -0.1523 -0.3231
    9BOLB   NC2  205  27.058   7.619  20.844  0.2879 -0.2065 -0.1890
    9BOLB   PO2  206  26.864   7.275  21.040 -0.4764 -0.0728 -0.1516
    9BOLB   GL3  207  26.669   7.201  21.391 -0.0918 -0.3469  0.0263
    9BOLB   GL4  208  26.609   6.942  21.482 -0.0389  0.1150  0.0938
    9BOLB   C1C  209  26.220   7.116  21.671 -0.0653  0.1130  0.1006
    9BOLB   C2C  210  25.989   7.143  22.086  0.0949  0.1641 -0.2904
    9BOLB   C3C  211  25.975   7.367  22.471 -0.1825  0.2653 -0.0687
    9BOLB   C4C  212  25.551   7.400  22.668  0.0786 -0.1722 -0.0830
    9BOLB   C1D  213  26.280   6.514  21.642  0.2445 -0.0077 -0.0450
    9BOLB   C2D  214  25.870   6.682  21.697 -0.2270 -0.0042  0.3870
    9BOLB   C3D  215  25.702   7.054  21.660 -0.1560 -0.2608 -0.0266
    9BOLB   C4D  216  25.473   7.496  21.784  0.1231  0.1494  0.0409
   10BOLB   NC1  217   9.741   1.589  19.032  0.0122  0.0641 -0.1818
   10BOLB   PO1  218   9.338   1.582  19.260 -0.0417 -0.1278 -0.1980
   10BOLB   GL1  219   8.876   1.568  19.327 -0.0762  0.0664 -0.1037
   10BOLB   GL2  220   8.644   1.772  19.265  0.0924 -0.1852 -0.1855
   10BOLB   C1A  221   8.743   1.101  19.159  0.1247 -0.5632  0.0516
   10BOLB   C2A  222   8.487   0.842  18.937 -0.0101  0.2645  0.1331
   10BOLB   C3A  223   8.205   0.904  18.608 -0.1136 -0.1909 -0.2557
   10BOLB   C4A  224   8.083   0.767  18.293 -0.0372  0.1046  0.2219
   10BOLB   C1B  225   8.527   1.649  18.834 -0.2210  0.2099  0.1703
   10BOLB   C2B  226   8.308   1.418  18.600 -0.0829 -0.0587  0.1434
   10BOLB   C3B  227   8.226   1.196  18.174  0.4113 -0.0361 -0.1011
   10BOLB   C4B  228   8.276   1.055  17.742 -0.0153  0.1252 -0.1329
   10BOLB   NC2  229   6.503  -0.416  16.593  0.2000 -0.5170 -0.1619
   10BOLB   PO2  230   6.572  -0.038  16.683  0.2790 -0.0355 -0.0862
   10BOLB   GL3  231   6.826   0.057  17.005  0.2401 -0.0495  0.0097
   10BOLB   GL4  232   7.058  -0.172  17.052 -0.0916 -0.0568 -0.2554
   10BOLB   C1C  233   6.922   0.314  17.363  0.1327 -0.0598 -0.0003
   10BOLB   C2C  234   7.094   0.452  17.676  0.0276 -0.1197  0.1374
   10BOLB   C3C  235   7.631   0.521  17.791 -0.0410  0.1058 -0.0112
   10BOLB   C4C  236   7.872   0.447  18.140  0.2239 -0.1819  0.1007
   10BOLB   C1D  237   7.352   0.146  17.089 -0.4672 -0.0258 -0.4293
   10BOLB   C2D  238   7.741   0.478  17.285  0.0210 -0.0312 -0.0406
   10BOLB   C3D  239   8.145   0.631  17.141 -0.1674 -0.1747  0.0257
   10BOLB   C4D  240   8.514   0.747  17.417 -0.1407 -0.1232 -0.0600
   11BOLB   NC1  241  22.921   0.942  19.017  0.0548 -0.1482 -0.1969
   11BOLB   PO1  242  22.717   1.319  19.050  0.0810  0.0267 -0.3370
   11BOLB   GL1  243  23.117   1.443  18.916 -0.0501  0.3526  0.0188
   11BOLB   GL2  244  23.385   1.327  19.169  0.1614 -0.0182  0.0639
   11BOLB   C1A  245  23.466   1.329  18.622 -0.0897  0.0065  0.1198
   11BOLB   C2A  246  23.621   1.139  18.232  0.0214  0.5092 -0.0928
   11BOLB   C3A  247  23.988   0.979  17.966 -0.0137 -0.3016  0.1336
   11BOLB   C4A  248  24.376   1.028  18.127  0.0252  0.0162  0.3444
   11BOLB   C1B  249  23.820   1.300  19.444 -0.0679 -0.2884 -0.0337
   11BOLB   C2B  250  24.169   1.560  19.408  0.1430  0.1036 -0.0563
   11BOLB   C3B  251  24.437   1.877  19.295 -0.0830  0.4005 -0.1930
   11BOLB   C4B  252  24.770   2.038  19.043  0.2177 -0.4702 -0.1964
   11BOLB   NC2  253  26.620   1.889  17.833  0.2519 -0.1121  0.1937
   11BOLB   PO2  254  26.559   1.926  17.480 -0.0436  0.1454  0.1621
   11BOLB   GL3  255  26.162   1.759  17.636 -0.1610 -0.1593 -0.1539
   11BOLB   GL4  256  25.840   1.869  17.414 -0.1346  0.1920 -0.1026
   11BOLB   C1C  257  25.966   1.420  17.691 -0.2915 -0.0374 -0.0970
   11BOLB   C2C  258  25.683   1.295  17.985 -0.1388 -0.2766  0.0993
   11BOLB   C3C  259  25.282   1.244  17.955  0.0749  0.0572 -0.0561
   11BOLB   C4C  260  24.819   1.207  18.120  0.0170  0.1976 -0.0627
   11BOLB   C1D  261  25.553   1.739  17.690 -0.3944  0.1481  0.0620
   11BOLB   C2D  262  25.096   1.707  17.876 -0.2848  0.0765 -0.0813
   11BOLB   C3D  263  24.772   1.920  17.967 -0.1570  0.0581  0.2656
   11BOLB   C4D  264  24.556   2.079  18.274  0.0464  0.0634 -0.1088
   12BOLB   NC1  265  11.229  -0.385  18.629 -0.1338 -0.0448 -0.1442
   12BOLB   PO1  266  11.332  -0.091  18.218 -0.3452  0.2393  0.2643
   12BOLB   GL1  267  10.993  -0.252  18.008  0.1333 -0.3221  0.3900
   12BOLB   GL2  268  11.224  -0.534  17.893  0.1612 -0.0586  0.0907
   12BOLB   C1A  269  10.690  -0.327  17.702  0.1815 -0.1581 -0.0221
   12BOLB   C2A  270  10.354  -0.308  17.421 -0.0867 -0.4844  0.1860
   12BOLB   C3A  271   9.967  -0.093  17.370 -0.0426  0.2395 -0.1463
   12BOLB   C4A  272   9.549  -0.109  17.223 -0.0424 -0.1094 -0.0264
   12BOLB   C1B  273  11.140  -0.941  17.697 -0.1023  0.1829  0.2345
   12BOLB   C2B  274  10.804  -1.205  17.464 -0.1337  0.1120  0.1415
   12BOLB   C3B  275  10.337  -1.221  17.266 -0.1589 -0.1155  0.1057
   12BOLB   C4B  276   9.956  -1.466  17.211  0.1585  0.0533 -0.2615
   12BOLB   NC2  277   8.046  -1.138  15.780  0.2471  0.4768  0.0991
   12BOLB   PO2  278   7.885  -1.434  16.100  0.3318 -0.0734  0.1481
   12BOLB   GL3  279   8.208  -1.185  16.276 -0.3613  0.1037  0.0685
   12BOLB   GL4  280   8.528  -1.392  16.210 -0.1717 -0.2276  0.0080
   12BOLB   C1C  281   8.440  -0.986  16.648 -0.0751  0.1440 -0.2917
   12BOLB   C2C  282   8.796  -0.728  16.728 -0.0359 -0.2135 -0.2410
   12BOLB   C3C  283   9.121  -0.488  16.793  0.0915 -0.2319  0.2666
   12BOLB   C4C  284   9.323  -0.204  17.037 -0.0361  0.1206  0.0890
   12BOLB   C1D  285   8.651  -1.427  16.609 -0.1461  0.1548  0.0675
   12BOLB   C2D  286   8.786  -1.250  16.969 -0.1079  0.2531 -0.1846
   12BOLB   C3D  287   9.007  -1.147  17.382 -0.1998 -0.1937  0.1425
   12BOLB   C4D  288   9.201  -0.936  17.662  0.0327 -0.0207  0.2736
   13BOLB   NC1  289   5.127   2.613  17.854  0.0551 -0.0338 -0.1630
   13BOLB   PO1  290   5.227   2.348  17.448 -0.0613 -0.0558  0.0042
   13BOLB   GL1  291   5.541   2.324  17.758 -0.1212 -0.2311  0.2021
   13BOLB   GL2  292   5.717   2.042  17.643 -0.2556 -0.1222  0.2102
   13BOLB   C1A  293   5.842   2.613  17.923 -0.0279  0.0989 -0.2342
   13BOLB   C2A  294   6.439   2.672  17.910 -0.2210  0.0322  0.0814
   13BOLB   C3A  295   6.873   2.869  17.648  0.0236 -0.1136  0.0645
   13BOLB   C4A  296   7.230   2.863  17.634 -0.0423  0.2776 -0.3683
   13BOLB   C1B  297   6.063   2.021  17.988 -0.0818  0.1066  0.0579
   13BOLB   C2B  298   6.479   1.773  18.187 -0.2496  0.1643 -0.0860
   13BOLB   C3B  299   6.827   1.639  18.424 -0.0649  0.3564  0.0453
   13BOLB   C4B  300   6.730   1.579  18.872  0.1051  0.0342 -0.1915
   13BOLB   NC2  301   6.803   3.876  16.022  0.3287  0.1430  0.0560
   13BOLB   PO2  302   7.261   3.791  16.006 -0.4605  0.1252  0.3504
   13BOLB   GL3  303   7.700   3.801  16.120  0.0875  0.0360 -0.2671
   13BOLB   GL4  304   7.915   4.074  16.205  0.1909 -0.1978  0.2359
   13BOLB   C1C  305   7.924   3.500  16.355  0.0519 -0.1322  0.0746
   13BOLB   C2C  306   8.038   3.324  16.675  0.2165 -0.1300  0.1170
   13BOLB   C3C  307   7.794   3.074  17.047 -0.3669  0.1614 -0.3274
   13BOLB   C4C  308   7.695   2.872  17.399  0.1023  0.1606 -0.2224
   13BOLB   C1D  309   8.333   3.915  16.330  0.0325 -0.2511  0.0507
   13BOLB   C2D  310   8.799   3.741  16.446 -0.2234  0.3126 -0.0265
   13BOLB   C3D  311   9.053   3.615  16.774  0.1029 -0.3661 -0.2634
   13BOLB   C4D  312   9.145   3.533  17.189 -0.2411  0.1897  0.4248
   14BOLB   NC1  313  18.046  -3.930  10.331 -0.2049  0.0956  0.1245
   14BOLB   PO1  314  18.462  -3.764  10.115 -0.0561 -0.0320 -0.3464
   14BOLB   GL1  315  18.633  -3.720  10.520 -0.2059  0.3186 -0.0138
   14BOLB   GL2  316  18.667  -3.351  10.704 -0.2104  0.1683 -0.3177
   14BOLB   C1A  317  18.795  -3.913  10.918 -0.1489  0.3096  0.0237
   14BOLB   C2A  318  18.873  -4.193  11.281  0.3404 -0.1881 -0.0683
   14BOLB   C3A  319  18.847  -4.605  11.567 -0.2355 -0.2810  0.3784
   14BOLB   C4A  320  18.891  -4.999  11.658 -0.2441 -0.1702 -0.0311
   14BOLB   C1B  321  18.706  -3.016  11.119 -0.2827 -0.0885  0.0705
   14BOLB   C2B  322  18.620  -2.894  11.506  0.0481 -0.1719 -0.1131
   14BOLB   C3B  323  18.616  -2.709  11.925 -0.0834  0.1053  0.2578
   14BOLB   C4B  324  18.720  -2.340  12.135 -0.2714  0.0540 -0.0552
   14BOLB   NC2  325  19.594  -5.812  10.075  0.1301 -0.0740  0.2047
   14BOLB   PO2  326  19.870  -5.994  10.354  0.3069  0.0044 -0.1418
   14BOLB   GL3  327  19.802  -5.947  10.778 -0.0781 -0.0163  0.0548
   14BOLB   GL4  328  19.987  -5.615  10.927 -0.1782  0.0271 -0.0784
   14BOLB   C1C  329  19.757  -5.892  11.255  0.4460  0.2670  0.1917
   14BOLB   C2C  330  19.625  -5.753  11.611  0.2393 -0.3267 -0.2567
   14BOLB   C3C  331  19.149  -5.675  11.682  0.0740  0.4600  0.0662
   14BOLB   C4C  332  18.953  -5.484  11.471  0.0057 -0.0807  0.0652
   14BOLB   C1D  333  20.049  -5.487  11.425 -0.0526 -0.0942 -0.2107
   14BOLB   C2D  334  20.006  -5.489  11.832 -0.5611 -0.2163 -0.1710
   14BOLB   C3D  335  20.126  -5.466  12.118 -0.2699 -0.0564 -0.1688
   14BOLB   C4D  336  20.348  -5.133  12.429 -0.1634  0.1126  0.1243
   15BOLB   NC1  337   7.096   5.582  25.401 -0.3669  0.2967  0.3045
   15BOLB   PO1  338   7.324   5.934  25.238  0.0285  0.2354 -0.2504
   15BOLB   GL1  339   6.934   6.135  25.286 -0.1353 -0.1520  0.3399
   15BOLB   GL2  340   6.857   6.280  25.470  0.1888  0.2052 -0.1536
   15BOLB   C1A  341   6.433   6.246  25.117  0.0429  0.2009 -0.1214
   15BOLB   C2A  342   6.117   6.529  25.155  0.0123 -0.0910  0.1079
   15BOLB   C3A  343   5.760   6.837  25.338 -0.1490 -0.2255  0.2503
   15BOLB   C4A  344   5.352   6.627  25.383 -0.0624  0.3603  0.0500
   15BOLB   C1B  345   6.580   6.604  25.449  0.1545 -0.3134 -0.3252
   15BOLB   C2B  346   6.289   6.947  25.391  0.1795 -0.2804  0.4051
   15BOLB   C3B  347   5.940   7.255  25.274 -0.2385  0.0827 -0.1094
   15BOLB   C4B  348   5.585   7.534  25.348 -0.1021 -0.2030 -0.1045
   15BOLB   NC2  349   2.311   6.493  25.909  0.0286  0.2639 -0.1802
   15BOLB   PO2  350   2.686   6.480  25.768 -0.1814 -0.2592  0.1641
   15BOLB   GL3  351   3.202   6.347  25.931  0.1467  0.0311 -0.1077
   15BOLB   GL4  352   3.267   6.342  26.282 -0.3407  0.2029 -0.0654
   15BOLB   C1C  353   3.640   6.544  26.020  0.2856  0.1893  0.1052
   15BOLB   C2C  354   4.028   6.523  25.816  0.0738  0.1248 -0.1577
   15BOLB   C3C  355   4.437   6.513  25.758 -0.1401 -0.0638 -0.0801
   15BOLB   C4C  356   4.930   6.462  25.588 -0.0757 -0.1945  0.2155
   15BOLB   C1D  357   3.705   6.261  26.505 -0.2983 -0.1224  0.1870
   15BOLB   C2D  358   3.962   5.994  26.665  0.0874 -0.0270  0.1104
   15BOLB   C3D  359   4.143   5.568  26.602  0.3061 -0.2850  0.3393
   15BOLB   C4D  360   4.411   5.309  26.715 -0.0256  0.4234 -0.0091
   16BOLB   NC1  361  10.282   8.549  20.838  0.0005  0.0962  0.2796
   16BOLB   PO1  362   9.992   8.480  21.162 -0.1212  0.2841 -0.0733
   16BOLB   GL1  363   9.771   8.552  20.730  0.3333  0.1185 -0.1587
   16BOLB   GL2  364   9.526   8.551  20.778 -0.3056 -0.0305 -0.2353
   16BOLB   C1A  365   9.669   8.754  20.305  0.0662  0.2382  0.2004
   16BOLB   C2A  366   9.493   8.887  19.873  0.0727 -0.2362  0.0719
   16BOLB   C3A  367   9.372   8.722  19.472  0.2216  0.1167  0.2580
   16BOLB   C4A  368   9.425   8.946  19.106 -0.0284  0.3488  0.2330
   16BOLB   C1B  369   9.120   8.590  20.901  0.3737  0.0164 -0.0650
   16BOLB   C2B  370   8.932   8.955  20.790  0.2590 -0.0463  0.0282
   16BOLB   C3B  371   9.044   9.360  20.859  0.1064  0.0355 -0.0556
   16BOLB   C4B  372   8.814   9.754  20.717  0.1269  0.2538 -0.0429
   16BOLB   NC2  373   7.634   9.486  18.031  0.2612  0.0720 -0.2197
   16BOLB   PO2  374   7.826   9.944  18.087  0.1720  0.1500 -0.1143
   16BOLB   GL3  375   8.021   9.721  18.414  0.1094  0.0803 -0.0036
   16BOLB   GL4  376   8.060   9.420  18.237 -0.0636  0.2225 -0.0297
   16BOLB   C1C  377   8.457   9.671  18.601  0.0378  0.0780 -0.3338
   16BOLB   C2C  378   8.866   9.546  18.760  0.2360  0.0223  0.0569
   16BOLB   C3C  379   9.203   9.360  18.721  0.0918 -0.0536  0.4651
   16BOLB   C4C  380   9.557   9.268  18.889  0.4635 -0.0381 -0.0691
   16BOLB   C1D  381   8.426   9.215  18.470 -0.0601  0.1979 -0.1984
   16BOLB   C2D  382   8.684   8.941  18.670  0.1357 -0.0797  0.2375
   16BOLB   C3D  383   8.969   9.059  19.050 -0.1296  0.1158 -0.2816
   16BOLB   C4D  384   9.001   9.431  19.198  0.2579  0.2975  0.1213
   17BOLB   NC1  385  14.817  -7.762  17.378 -0.2373  0.2414  0.0447
   17BOLB   PO1  386  14.722  -7.637  16.923  0.1813 -0.3131 -0.3609
   17BOLB   GL1  387  14.820  -7.239  17.064  0.2571  0.1830 -0.3627
   17BOLB   GL2  388  14.459  -7.059  17.106 -0.1792 -0.0127  0.1015
   17BOLB   C1A  389  14.892  -6.920  17.316  0.1495 -0.1590  0.2293
   17BOLB   C2A  390  14.922  -6.495  17.392 -0.1486 -0.1412  0.1073
   17BOLB   C3A  391  14.997  -6.116  17.474  0.2728 -0.0568 -0.0912
   17BOLB   C4A  392  15.069  -5.652  17.487  0.1336  0.1361  0.1594
   17BOLB   C1B  393  14.439  -6.718  17.341 -0.0956 -0.0666  0.0314
   17BOLB   C2B  394  14.479  -6.261  17.424  0.0796 -0.3356  0.0094
   17BOLB   C3B  395  14.085  -5.964  17.508  0.1192  0.0296  0.0626
   17BOLB   C4B  396  13.680  -6.074  17.604  0.1415 -0.3896  0.2091
   17BOLB   NC2  397  14.128  -6.275  15.337  0.0238  0.0616  0.3805
   17BOLB   PO2  398  14.073  -6.364  15.754  0.3129  0.2010 -0.0964
   17BOLB   GL3  399  14.431  -6.233  15.979  0.2486  0.0130  0.1170
   17BOLB   GL4  400  14.642  -6.048  15.640  0.1698 -0.0887 -0.0160
   17BOLB   C1C  401  14.504  -5.784  16.202  0.3694  0.0654 -0.0935
   17BOLB   C2C  402  14.669  -5.501  16.327 -0.2128  0.2190 -0.2079
   17BOLB   C3C  403  14.801  -5.518  16.807  0.0815 -0.2687  0.0896
   17BOLB   C4C  404  14.975  -5.339  17.205  0.0784 -0.2525  0.0748
   17BOLB   C1D  405  14.953  -5.797  15.827 -0.0430 -0.0250  0.3850
   17BOLB   C2D  406  15.189  -5.490  16.005 -0.0759  0.1472 -0.2039
   17BOLB   C3D  407  15.185  -5.219  16.384 -0.0659 -0.2286  0.4729
   17BOLB   C4D  408  15.532  -5.159  16.464 -0.0768 -0.1878 -0.2537
   18BOLB   NC1  409  28.343   3.846  22.852  0.1016 -0.1995  0.5207
   18BOLB   PO1  410  28.701   3.807  23.216  0.0217  0.2875 -0.2733
   18BOLB   GL1  411  28.273   3.815  23.406 -0.2915  0.0171  0.3103
   18BOLB   GL2  412  28.133   3.635  23.606  0.3382 -0.1468  0.0461
   18BOLB   C1A  413  27.772   3.770  23.294  0.2730  0.2517 -0.2097
   18BOLB   C2A  414  27.365   3.954  23.161 -0.4165 -0.0912 -0.0825
   18BOLB   C3A  415  27.005   4.092  22.841  0.0019  0.3610  0.1167
   18BOLB   C4A  416  26.613   4.298  22.747 -0.1372  0.1354 -0.3438
   18BOLB   C1B  417  27.694   3.941  23.892 -0.3345 -0.0021 -0.3310
   18BOLB   C2B  418  27.312   3.702  24.029 -0.2293  0.0124 -0.1454
   18BOLB   C3B  419  26.849   3.863  24.027 -0.1018  0.0250  0.0170
   18BOLB   C4B  420  26.479   4.022  24.226  0.2570 -0.1059  0.0597
   18BOLB   NC2  421  28.669   4.290  23.413 -0.0811  0.3536  0.1280
   18BOLB   PO2  422  28.569   4.634  23.168 -0.2070 -0.1657 -0.2645
   18BOLB   GL3  423  28.246   4.834  23.342  0.3778 -0.3800 -0.3204
   18BOLB   GL4  424  28.266   5.132  23.499 -0.2874 -0.0858  0.0053
   18BOLB   C1C  425  27.915   4.816  23.186 -0.1816  0.2561  0.1172
   18BOLB   C2C  426  27.518   4.777  23.216 -0.3093  0.1240  0.0601
   18BOLB   C3C  427  27.121   4.940  23.156  0.0879 -0.1405 -0.0063
   18BOLB   C4C  428  26.668   4.704  22.986  0.1729  0.0594  0.0860
   18BOLB   C1D  429  27.925   4.841  23.737 -0.2593  0.0503 -0.0712
   18BOLB   C2D  430  27.643   4.591  23.726 -0.1144  0.0596 -0.1734
   18BOLB   C3D  431  27.402   4.200  23.603 -0.6631  0.3057 -0.1350
   18BOLB   C4D  432  27.144   3.973  23.623 -0.0712 -0.1020  0.0763
   19BOLB   NC1  433  23.672  -7.991  15.934  0.0415 -0.2077  0.1509
   19BOLB   PO1  434  23.424  -8.379  16.082  0.4332  0.2029 -0.0247
   19BOLB   GL1  435  23.132  -8.082  16.180  0.0508 -0.0229  0.1687
   19BOLB   GL2  436  22.783  -8.042  16.450  0.3177  0.1092  0.0819
   19BOLB   C1A  437  22.808  -7.730  16.049  0.0477 -0.0124  0.1454
   19BOLB   C2A  438  22.836  -7.335  15.982  0.4098 -0.0827  0.2193
   19BOLB   C3A  439  22.958  -6.886  16.097  0.1851 -0.1788 -0.2101
   19BOLB   C4A  440  23.157  -6.681  16.546  0.2337 -0.2745 -0.1439
   19BOLB   C1B  441  22.533  -7.688  16.547  0.1216 -0.1281 -0.0369
   19BOLB   C2B  442  22.450  -7.499  16.806 -0.1294  0.0825  0.1539
   19BOLB   C3B  443  22.226  -7.095  16.730  0.2420 -0.0415 -0.0352
   19BOLB   C4B  444  21.796  -7.067  16.705  0.0515  0.2547 -0.2045
   19BOLB   NC2  445  25.165  -7.251  18.100  0.3631 -0.0423  0.2805
   19BOLB   PO2  446  24.963  -7.424  17.669 -0.0027  0.0145 -0.1372
   19BOLB   GL3  447  24.588  -7.155  17.730 -0.3055  0.3744  0.2490
   19BOLB   GL4  448  24.686  -6.850  17.961  0.1919 -0.1813 -0.1804
   19BOLB   C1C  449  24.405  -6.856  17.432  0.0152  0.1322 -0.2970
   19BOLB   C2C  450  24.123  -6.789  17.181  0.2148 -0.0074 -0.0337
   19BOLB   C3C  451  23.803  -6.523  16.924 -0.1620 -0.1467  0.0278
   19BOLB   C4C  452  23.339  -6.448  16.812  0.2188 -0.2666  0.2405
   19BOLB   C1D  453  24.485  -6.440  17.810  0.2534  0.2719 -0.1859
   19BOLB   C2D  454  24.252  -6.358  17.474 -0.6684 -0.3969  0.2958
   19BOLB   C3D  455  24.294  -6.340  17.007 -0.0425  0.3755  0.1153
   19BOLB   C4D  456  24.373  -5.911  16.758  0.1708  0.0860 -0.1371
   20BOLB   NC1  457  10.927  -2.684  34.498  0.1038 -0.1426 -0.1218
   20BOLB   PO1  458  11.298  -2.536  34.421  0.0728 -0.1890 -0.1100
   20BOLB   GL1  459  11.459  -2.293  34.187 -0.0917 -0.1948 -0.2145
   20BOLB   GL2  460  11.616  -1.997  34.207 -0.0265  0.0498  0.1203
   20BOLB   C1A  461  11.445  -2.131  33.712 -0.3658  0.0976 -0.1226
   20BOLB   C2A  462  11.453  -1.921  33.378  0.0891  0.0355 -0.0475
   20BOLB   C3A  463  11.352  -1.692  32.973 -0.0927  0.1679 -0.1999
   20BOLB   C4A  464  11.064  -1.541  32.720 -0.1663 -0.0364 -0.0955
   20BOLB   C1B  465  11.724  -1.723  33.825  0.0514 -0.1458 -0.0936
   20BOLB   C2B  466  11.626  -1.477  33.455 -0.0074  0.3512 -0.0540
   20BOLB   C3B  467  11.615  -1.270  33.269 -0.1838 -0.1395  0.2470
   20BOLB   C4B  468  11.367  -0.759  33.244 -0.0939  0.0037  0.0266
   20BOLB   NC2  469  11.371  -1.945  34.637  0.2375 -0.2255 -0.0219
   20BOLB   PO2  470  11.044  -1.613  34.844 -0.2085  0.1154 -0.1067
   20BOLB   GL3  471  10.977  -1.545  34.416 -0.2263  0.2021 -0.2743
   20BOLB   GL4  472  11.146  -1.754  34.210 -0.2017 -0.5017  0.2126
   20BOLB   C1C  473  10.809  -1.470  34.024  0.0906 -0.0920  0.0562
   20BOLB   C2C  474  10.768  -1.135  33.693 -0.1330 -0.1410  0.0528
   20BOLB   C3C  475  10.644  -1.139  33.263  0.2269 -0.0644 -0.0506
   20BOLB   C4C  476  10.651  -1.384  32.923 -0.2730 -0.2116 -0.2621
   20BOLB   C1D  477  11.464  -1.466  34.227  0.2743  0.3545 -0.2284
   20BOLB   C2D  478  11.626  -1.019  34.130  0.0057 -0.0940  0.1548
   20BOLB   C3D  479  12.119  -0.882  34.048 -0.2052  0.3399  0.0065
   20BOLB   C4D  480  12.381  -0.438  34.124 -0.1058 -0.0293  0.3540
   21BOLB   NC1  481  11.459   3.309  18.293  0.0593 -0.0135 -0.1392
   21BOLB   PO1  482  11.302   3.667  18.081  0.0881 -0.1050 -0.0405
   21BOLB   GL1  483  11.103   3.577  17.681 -0.1019  0.0520 -0.3769
   21BOLB   GL2  484  10.979   3.953  17.631 -0.0662  0.1246 -0.0465
   21BOLB   C1A  485  10.770   3.476  17.575 -0.1437  0.4126 -0.0477
   21BOLB   C2A  486  10.528   3.374  17.169 -0.1921  0.4517  0.1199
   21BOLB   C3A  487  10.427   3.410  16.738 -0.1493 -0.0979  0.1459
   21BOLB   C4A  488  10.305   3.552  16.379 -0.0835 -0.1678  0.3918
   21BOLB   C1B  489  10.605   3.828  17.236 -0.0179 -0.0164  0.0167
   21BOLB   C2B  490  10.534   3.941  16.819 -0.1708  0.1343 -0.2582
   21BOLB   C3B  491  10.201   4.239  16.639  0.1342  0.0783  0.0381
   21BOLB   C4B  492  10.090   4.617  16.513  0.3437 -0.0904 -0.1815
   21BOLB   NC2  493   9.154   4.548  14.563  0.1106 -0.0612  0.2781
   21BOLB   PO2  494   9.384   4.488  14.246 -0.0720  0.1465 -0.1952
   21BOLB   GL3  495   9.636   4.550  14.616  0.1081 -0.1683  0.1739
   21BOLB   GL4  496   9.510   4.742  14.853  0.3150  0.0147  0.0839
   21BOLB   C1C  497   9.836   4.224  14.897 -0.0715  0.1841 -0.2342
   21BOLB   C2C  498  10.047   4.054  15.185  0.1257 -0.1695 -0.0675
   21BOLB   C3C  499  10.095   3.843  15.562  0.0500 -0.2964 -0.2555
   21BOLB   C4C  500  10.134   3.764  16.022 -0.0527 -0.1890 -0.0075
   21BOLB   C1D  501   9.500   4.843  15.304  0.1757 -0.3037  0.0091
   21BOLB   C2D  502   9.499   5.157  15.521 -0.1274  0.1708  0.0917
   21BOLB   C3D  503   9.737   5.123  15.936  0.1824 -0.1291 -0.2023
   21BOLB   C4D  504   9.979   5.135  16.299 -0.0640 -0.1712  0.0319
   22BOLB   NC1  505  14.774  10.932  30.403  0.1753  0.2610 -0.0020
   22BOLB   PO1  506  14.679  11.233  30.754  0.1534  0.1207  0.4131
   22BOLB   GL1  507  14.676  11.602  30.944 -0.1405  0.1224 -0.1607
   22BOLB   GL2  508  15.028  11.515  31.069  0.4321 -0.2414  0.0340
   22BOLB   C1A  509  14.607  12.080  30.932 -0.3002  0.0218  0.0027
   22BOLB   C2A  510  14.696  12.345  31.284  0.1940  0.0286  0.1774
   22BOLB   C3A  511  14.810  12.347  31.782  0.3377 -0.1023 -0.0018
   22BOLB   C4A  512  14.948  12.652  32.103 -0.3584  0.2301 -0.0630
   22BOLB   C1B  513  15.319  11.577  31.380  0.1330 -0.0857 -0.0160
   22BOLB   C2B  514  15.610  11.908  31.496  0.1290 -0.1166 -0.3131
   22BOLB   C3B  515  15.838  12.281  31.626 -0.0810  0.5164  0.0830
   22BOLB   C4B  516  15.969  12.550  31.922  0.2419  0.0015 -0.2805
   22BOLB   NC2  517  14.795  13.946  33.938  0.0436  0.1462 -0.5980
   22BOLB   PO2  518  14.335  13.985  33.826  0.2486  0.1175  0.1071
   22BOLB   GL3  519  14.397  13.706  33.473  0.1044 -0.4790  0.0035
   22BOLB   GL4  520  14.191  13.487  33.563  0.1575  0.2246  0.0389
   22BOLB   C1C  521  14.633  13.299  33.455 -0.0203  0.1472  0.0419
   22BOLB   C2C  522  14.604  13.036  33.197  0.0482  0.1805  0.2833
   22BOLB   C3C  523  14.510  12.808  32.889 -0.1911 -0.1342 -0.1211
   22BOLB   C4C  524  14.689  12.739  32.525 -0.1208 -0.0020  0.0705
   22BOLB   C1D  525  14.053  13.068  33.326  0.2076  0.0886 -0.1386
   22BOLB   C2D  526  13.998  12.728  33.000  0.1979 -0.3639  0.2136
   22BOLB   C3D  527  14.114  12.466  32.637 -0.0861 -0.4043  0.1637
   22BOLB   C4D  528  14.399  12.402  32.238 -0.0989 -0.1124  0.1521
   23BOLB   NC1  529  19.751   2.884  11.272  0.1215  0.1930  0.2228
   23BOLB   PO1  530  19.906   3.229  11.515 -0.1346 -0.3309  0.2559
   23BOLB   GL1  531  20.062   3.106  11.907  0.3006  0.0778 -0.1832
   23BOLB   GL2  532  20.119   3.213  12.220  0.1084 -0.2139 -0.2476
   23BOLB   C1A  533  20.528   3.096  12.020 -0.4575 -0.1225  0.1352
   23BOLB   C2A  534  20.772   2.795  12.249  0.2573  0.0853 -0.4582
   23BOLB   C3A  535  20.615   2.496  12.529 -0.0498  0.0523  0.0513
   23BOLB   C4A  536  20.503   2.119  12.717  0.0143 -0.3873 -0.1372
   23BOLB   C1B  537  19.952   3.080  12.610 -0.1385  0.1763  0.3056
   23BOLB   C2B  538  19.829   2.936  12.885  0.1649  0.1159 -0.0135
   23BOLB   C3B  539  19.760   2.868  13.402 -0.1837  0.2592 -0.1459
   23BOLB   C4B  540  20.041   2.589  13.635  0.0732 -0.2734  0.0847
   23BOLB   NC2  541  18.939   3.064  11.246  0.0912  0.0159  0.0873
   23BOLB   PO2  542  19.269   2.700  11.210 -0.0571  0.1183 -0.0183
   23BOLB   GL3  543  19.467   2.670  11.599  0.2033  0.1093  0.0160
   23BOLB   GL4  544  19.511   2.952  11.881 -0.0846  0.1707  0.1283
   23BOLB   C1C  545  19.415   2.470  12.006  0.0787  0.0821 -0.0166
   23BOLB   C2C  546  19.524   2.175  12.310  0.2578 -0.1270 -0.2399
   23BOLB   C3C  547  19.791   1.888  12.518 -0.0417 -0.0436  0.1088
   23BOLB   C4C  548  20.106   1.959  12.831  0.1400 -0.0614 -0.2832
   23BOLB   C1D  549  19.460   2.919  12.294  0.1780  0.0013 -0.0143
   23BOLB   C2D  550  19.566   2.560  12.588  0.0120  0.2694 -0.1775
   23BOLB   C3D  551  19.311   2.309  12.827  0.0706 -0.3124  0.1566
   23BOLB   C4D  552  19.312   2.080  13.261  0.1495 -0.2167  0.3238
   24BOLB   NC1  553  29.219   3.989  28.140  0.3290  0.1402 -0.0228
   24BOLB   PO1  554  28.792   4.141  28.223  0.1036 -0.2550 -0.0668
   24BOLB   GL1  555  28.258   4.110  28.205 -0.2951  0.0474 -0.7370
   24BOLB   GL2  556  28.216   4.428  27.996  0.0672  0.1353  0.0051
   24BOLB   C1A  557  27.923   4.047  28.503  0.1270 -0.0218  0.0367
   24BOLB   C2A  558  27.543   3.761  28.483 -0.2023  0.3050  0.2167
   24BOLB   C3A  559  27.193   3.533  28.308 -0.1891  0.2829 -0.2927
   24BOLB   C4A  560  27.065   3.199  28.147 -0.0874 -0.1200 -0.0421
   24BOLB   C1B  561  28.120   4.853  28.100 -0.1094  0.2829  0.0086
   24BOLB   C2B  562  28.035   5.236  28.276  0.0980 -0.0166  0.1701
   24BOLB   C3B  563  27.660   5.501  28.594  0.1324  0.0973 -0.1492
   24BOLB   C4B  564  27.329   5.734  28.468 -0.1097  0.2426  0.1459
   24BOLB   NC2  565  28.935   3.915  28.856 -0.2480 -0.0310  0.0955
   24BOLB   PO2  566  28.949   3.669  28.455 -0.3225  0.0220 -0.2107
   24BOLB   GL3  567  28.550   3.468  28.526  0.1505 -0.3269  0.0260
   24BOLB   GL4  568  28.444   3.522  28.271  0.1772 -0.0400 -0.0900
   24BOLB   C1C  569  28.164   3.067  28.633 -0.0711  0.0425  0.2431
   24BOLB   C2C  570  27.836   2.792  28.392  0.1199  0.0239 -0.3491
   24BOLB   C3C  571  27.516   2.679  28.089 -0.0300 -0.2762  0.2416
   24BOLB   C4C  572  27.102   2.823  28.004  0.0585  0.0605 -0.0091
   24BOLB   C1D  573  28.032   3.427  28.288  0.3322  0.1903  0.0666
   24BOLB   C2D  574  27.574   3.261  28.329 -0.0193 -0.1244  0.0295
   24BOLB   C3D  575  27.321   2.979  28.588 -0.0050  0.0419 -0.3084
   24BOLB   C4D  576  27.091   2.728  28.887 -0.3519 -0.0977 -0.3839
   25BOLB   NC1  577   9.047   9.688  28.856 -0.0398  0.0021  0.0218
   25BOLB   PO1  578   9.307  10.081  28.914  0.1824  0.3106 -0.3301
   25BOLB   GL1  579   8.903  10.390  28.901 -0.1810 -0.0014  0.1196
   25BOLB   GL2  580   8.786  10.567  28.641  0.1146  0.1499 -0.1218
   25BOLB   C1A  581   8.537  10.503  29.131  0.2256 -0.2207 -0.2797
   25BOLB   C2A  582   8.101  10.567  29.128 -0.2086 -0.3909 -0.3038
   25BOLB   C3A  583   7.797  10.677  28.883 -0.3189  0.2060  0.1099
   25BOLB   C4A  584   7.564  10.789  28.608 -0.5769  0.1186 -0.0053
   25BOLB   C1B  585   8.803  10.954  28.870  0.0055 -0.0144 -0.1374
   25BOLB   C2B  586   8.798  11.351  29.011  0.1725 -0.3568 -0.0346
   25BOLB   C3B  587   8.783  11.816  28.913 -0.1359  0.2239 -0.0216
   25BOLB   C4B  588   8.972  11.951  28.493 -0.2969 -0.2372 -0.2041
   25BOLB   NC2  589   6.120  12.443  28.920 -0.0558  0.2911 -0.1753
   25BOLB   PO2  590   6.252  12.403  28.417 -0.0845 -0.2565  0.0906
   25BOLB   GL3  591   6.289  12.030  28.635  0.0049  0.2142 -0.0671
   25BOLB   GL4  592   6.158  11.878  28.333  0.0050 -0.3323  0.3836
   25BOLB   C1C  593   6.454  11.657  28.627  0.1920  0.0276 -0.0194
   25BOLB   C2C  594   6.470  11.316  28.343 -0.3020  0.1525  0.0719
   25BOLB   C3C  595   6.766  11.174  28.221  0.0625 -0.1114 -0.0215
   25BOLB   C4C  596   7.259  10.991  28.386 -0.2666  0.0283 -0.2369
   25BOLB   C1D  597   6.605  11.926  28.199 -0.2069  0.0144 -0.1097
   25BOLB   C2D  598   6.809  11.602  28.036 -0.0239  0.1515  0.2342
   25BOLB   C3D  599   6.932  11.253  27.740 -0.1777  0.1615 -0.3540
   25BOLB   C4D  600   7.002  10.917  27.494 -0.0969  0.2744  0.1605
   26BOLB   NC1  601  22.124   9.372  24.223  0.0175  0.1151  0.1607
   26BOLB   PO1  602  22.372   9.454  24.509 -0.1123  0.2694 -0.0349
   26BOLB   GL1  603  22.620   9.799  24.536  0.0731  0.0079 -0.1074
   26BOLB   GL2  604  22.749   9.889  24.137  0.1710  0.1434  0.0154
   26BOLB   C1A  605  22.803  10.218  24.647 -0.0393  0.0886 -0.0413
   26BOLB   C2A  606  23.068  10.587  24.325  0.3798  0.4117 -0.2380
   26BOLB   C3A  607  23.461  10.800  24.081 -0.0092 -0.2327 -0.0301
   26BOLB   C4A  608  23.936  10.969  23.995  0.1960 -0.2170  0.2945
   26BOLB   C1B  609  23.055  10.122  23.905 -0.4697  0.3113 -0.0324
   26BOLB   C2B  610  23.555  10.174  23.967 -0.1647 -0.1299 -0.1001
   26BOLB   C3B  611  23.878  10.225  23.974  0.0475  0.0790 -0.2181
   26BOLB   C4B  612  24.278  10.407  23.934 -0.2698 -0.1460  0.3597
   26BOLB   NC2  613  26.560  11.785  24.382  0.0574 -0.4333 -0.0389
   26BOLB   PO2  614  26.131  11.720  24.121 -0.1897  0.3536  0.1835
   26BOLB   GL3  615  25.907  11.334  24.180 -0.2441 -0.0952  0.1231
   26BOLB   GL4  616  25.939  11.107  23.921 -0.2439 -0.1309  0.1793
   26BOLB   C1C  617  25.502  11.122  24.186  0.0120  0.3071 -0.0292
   26BOLB   C2C  618  25.200  10.914  24.272 -0.1643 -0.1660  0.1130
   26BOLB   C3C  619  24.704  10.957  24.376 -0.2138  0.1904  0.2109
   26BOLB   C4C  620  24.297  10.938  24.174 -0.0054 -0.4592 -0.0022
   26BOLB   C1D  621  25.942  10.802  24.231 -0.2762 -0.1007  0.1692
   26BOLB   C2D  622  26.078  10.519  24.505  0.1818 -0.1966 -0.0989
   26BOLB   C3D  623  25.999  10.512  24.887 -0.1216  0.4414  0.0968
   26BOLB   C4D  624  25.990  10.406  25.408 -0.0557  0.3455  0.0507
   27BOLB   NC1  625   6.439  -5.238  27.198 -0.0003 -0.1286 -0.4206
   27BOLB   PO1  626   6.844  -5.124  27.248  0.0233 -0.1662 -0.2790
   27BOLB   GL1  627   6.931  -4.722  27.180  0.3159  0.0235 -0.1033
   27BOLB   GL2  628   6.722  -4.728  26.973  0.0490  0.2260  0.1538
   27BOLB   C1A  629   7.396  -4.657  27.305 -0.2026  0.2230  0.3499
   27BOLB   C2A  630   7.768  -4.406  27.388 -0.1660 -0.1154 -0.1439
   27BOLB   C3A  631   8.092  -4.204  27.258  0.1540  0.0664 -0.2845
   27BOLB   C4A  632   8.451  -4.218  27.084  0.1513 -0.1034 -0.1603
   27BOLB   C1B  633   7.122  -4.414  26.869  0.0698 -0.0849  0.2034
   27BOLB   C2B  634   7.350  -4.148  26.547  0.0134  0.0164  0.0040
   27BOLB   C3B  635   7.744  -3.882  26.519  0.4056  0.2167 -0.0138
   27BOLB   C4B  636   8.154  -3.663  26.587 -0.0138  0.0962 -0.0279
   27BOLB   NC2  637   9.205  -1.971  26.693 -0.1035  0.1867 -0.4593
   27BOLB   PO2  638   9.428  -1.965  27.072  0.3260  0.1663  0.0668
   27BOLB   GL3  639   9.269  -2.378  27.068  0.2108  0.2340 -0.4037
   27BOLB   GL4  640   9.352  -2.577  26.817  0.1686  0.0030  0.0227
   27BOLB   C1C  641   9.145  -2.813  27.358 -0.0019  0.3447 -0.1094
   27BOLB   C2C  642   8.992  -3.199  27.322 -0.2695  0.0055  0.0459
   27BOLB   C3C  643   8.766  -3.603  27.420  0.3472  0.4106 -0.1653
   27BOLB   C4C  644   8.772  -3.988  27.258  0.2632 -0.1243 -0.0394
   27BOLB   C1D  645   9.341  -3.061  26.947  0.1913  0.0473  0.0733
   27BOLB   C2D  646   9.259  -3.455  26.965 -0.2911  0.1317 -0.0150
   27BOLB   C3D  647   9.284  -3.781  27.321  0.0316 -0.0635  0.1421
   27BOLB   C4D  648   9.499  -4.081  27.440 -0.2089  0.1415  0.1885
   28BOLB   NC1  649  15.796  -3.700  19.575 -0.0413 -0.3435  0.1431
   28BOLB   PO1  650  15.644  -4.024  19.747 -0.1858  0.0867  0.0422
   28BOLB   GL1  651  15.780  -4.397  19.499  0.2754 -0.1488 -0.0703
   28BOLB   GL2  652  15.841  -4.541  19.848  0.1890 -0.2733 -0.0337
   28BOLB   C1A  653  15.845  -4.877  19.341  0.2948 -0.1858 -0.1658
   28BOLB   C2A  654  15.737  -5.328  19.286  0.0118  0.2545 -0.1119
   28BOLB   C3A  655  15.363  -5.537  19.332 -0.2259 -0.3222  0.1058
   28BOLB   C4A  656  15.326  -5.857  18.987 -0.3504  0.2493  0.2811
   28BOLB   C1B  657  16.221  -4.719  19.692  0.1723 -0.0979 -0.0256
   28BOLB   C2B  658  16.168  -5.122  19.630  0.0907 -0.3137 -0.1264
   28BOLB   C3B  659  16.108  -5.576  19.518 -0.1251  0.1396 -0.1520
   28BOLB   C4B  660  16.326  -5.837  19.636 -0.4908  0.0975  0.0219
   28BOLB   NC2  661  13.526  -7.180  17.309  0.2823 -0.0981  0.0478
   28BOLB   PO2  662  13.633  -7.219  17.659 -0.1676 -0.2096  0.4346
   28BOLB   GL3  663  13.671  -6.896  17.978 -0.2942  0.1231  0.0697
   28BOLB   GL4  664  13.397  -6.770  18.215 -0.3613 -0.0319  0.1357
   28BOLB   C1C  665  13.852  -6.536  18.200 -0.1976 -0.0759  0.3016
   28BOLB   C2C  666  14.233  -6.510  18.539 -0.1675 -0.2226  0.3712
   28BOLB   C3C  667  14.623  -6.280  18.638  0.2148  0.0543  0.3438
   28BOLB   C4C  668  15.032  -6.075  18.793  0.0449  0.0087 -0.0553
   28BOLB   C1D  669  13.508  -6.466  18.564 -0.0503 -0.0168  0.1810
   28BOLB   C2D  670  13.886  -6.189  18.622 -0.4454 -0.3143 -0.1860
   28BOLB   C3D  671  14.201  -5.963  18.814  0.3389 -0.0456 -0.1336
   28BOLB   C4D  672  14.437  -5.560  19.084 -0.0336 -0.0433 -0.4743
   29BOLB   NC1  673  19.375   9.164  31.640 -0.0167  0.3822  0.0735
   29BOLB   PO1  674  19.187   9.270  31.987  0.2183 -0.1277  0.1374
   29BOLB   GL1  675  19.076   9.647  31.891  0.1736  0.1099  0.1105
   29BOLB   GL2  676  19.190   9.764  31.617 -0.1682 -0.0774 -0.2650
   29BOLB   C1A  677  18.901  10.024  32.016  0.1098 -0.0284 -0.0197
   29BOLB   C2A  678  19.067  10.411  32.085 -0.0339  0.2347 -0.1612
   29BOLB   C3A  679  19.042  10.887  31.983 -0.0449 -0.0120 -0.1339
   29BOLB   C4A  680  19.319  11.099  32.189 -0.1388 -0.4728  0.0785
   29BOLB   C1B  681  19.328  10.156  31.745  0.4839 -0.1518 -0.0645
   29BOLB   C2B  682  19.730  10.201  31.953  0.0966 -0.1081 -0.0239
   29BOLB   C3B  683  20.111  10.017  32.162  0.0573  0.0910  0.3516
   29BOLB   C4B  684  20.062   9.575  32.034  0.1476 -0.0925 -0.3157
   29BOLB   NC2  685  21.449  12.522  33.341 -0.1735  0.0281 -0.3839
   29BOLB   PO2  686  21.262  12.303  33.019  0.1676  0.0323 -0.1724
   29BOLB   GL3  687  20.849  12.359  32.830  0.2880  0.2104  0.1731
   29BOLB   GL4  688  20.832  12.333  32.460 -0.2495 -0.1032 -0.1914
   29BOLB   C1C  689  20.470  12.068  32.757  0.0209 -0.3615  0.1887
   29BOLB   C2C  690  20.035  12.076  32.813 -0.1934  0.1546 -0.1594
   29BOLB   C3C  691  19.660  11.831  32.599  0.1938  0.0609  0.0059
   29BOLB   C4C  692  19.706  11.410  32.329  0.1288 -0.2446 -0.7155
   29BOLB   C1D  693  20.716  12.187  32.142 -0.0744 -0.1318 -0.1196
   29BOLB   C2D  694  20.496  12.223  31.679 -0.2007 -0.0574  0.0804
   29BOLB   C3D  695  20.069  12.111  31.681  0.2669 -0.0840 -0.5820
   29BOLB   C4D  696  19.763  11.873  31.443 -0.0982 -0.0655 -0.1887
   30BOLB   NC1  697  15.306   3.981  16.640  0.1437 -0.1406  0.0808
   30BOLB   PO1  698  15.157   4.315  16.306  0.0124 -0.2678 -0.2363
   30BOLB   GL1  699  14.882   4.513  16.065  0.0459  0.1797 -0.3844
   30BOLB   GL2  700  14.698   4.183  16.086 -0.1159  0.1779  0.0941
   30BOLB   C1A  701  14.552   4.543  15.714  0.1999 -0.0196  0.0965
   30BOLB   C2A  702  14.494   4.666  15.254 -0.1425 -0.0092  0.2832
   30BOLB   C3A  703  14.824   4.657  14.854 -0.0841  0.2159 -0.0271
   30BOLB   C4A  704  15.010   4.448  14.638  0.2556 -0.1199  0.2505
   30BOLB   C1B  705  14.875   4.144  15.636  0.4335 -0.0852  0.0618
   30BOLB   C2B  706  15.084   4.418  15.242 -0.1826 -0.1704  0.2858
   30BOLB   C3B  707  15.420   4.488  14.953  0.0590 -0.2648  0.2401
   30BOLB   C4B  708  15.781   4.603  14.590  0.0821 -0.1669 -0.3688
   30BOLB   NC2  709  15.659   4.493  11.789 -0.1172  0.0375  0.1881
   30BOLB   PO2  710  15.721   4.253  12.308 -0.0116  0.0641 -0.0728
   30BOLB   GL3  711  15.604   4.163  12.742  0.3620 -0.0832 -0.0571
   30BOLB   GL4  712  15.537   3.830  12.752 -0.3220 -0.1020  0.0333
   30BOLB   C1C  713  15.553   4.162  13.111  0.0508 -0.0148  0.0348
   30BOLB   C2C  714  15.350   3.886  13.452 -0.1074 -0.1200  0.3078
   30BOLB   C3C  715  15.196   3.995  13.860 -0.1345 -0.1094  0.0157
   30BOLB   C4C  716  15.083   4.136  14.271  0.3668 -0.0152  0.0492
   30BOLB   C1D  717  15.659   3.687  13.085 -0.0910  0.0865  0.0591
   30BOLB   C2D  718  15.804   3.533  13.469 -0.2343  0.2115 -0.1335
   30BOLB   C3D  719  16.033   3.675  13.853  0.0806 -0.4054  0.0982
   30BOLB   C4D  720  16.503   3.924  14.056 -0.0385  0.0852  0.0137
   31BOLB   NC1  721  15.100  -3.502  18.916 -0.3010 -0.3765  0.1450
   31BOLB   PO1  722  14.774  -3.570  19.256  0.2038  0.0742  0.3712
   31BOLB   GL1  723  14.551  -3.908  19.074  0.0607 -0.0388 -0.2281
   31BOLB   GL2  724  14.248  -3.969  18.805  0.2796 -0.0381 -0.1552
   31BOLB   C1A  725  14.622  -4.330  19.045  0.1599 -0.0869  0.0310
   31BOLB   C2A  726  14.845  -4.783  18.728 -0.0897 -0.2303 -0.0148
   31BOLB   C3A  727  14.782  -4.939  18.307  0.4338 -0.1765 -0.4029
   31BOLB   C4A  728  14.646  -4.985  17.869  0.3152  0.0066 -0.0359
   31BOLB   C1B  729  14.003  -4.256  18.522  0.1507 -0.3026 -0.1210
   31BOLB   C2B  730  13.887  -4.223  18.129  0.1674 -0.3904  0.5264
   31BOLB   C3B  731  13.707  -4.118  17.775 -0.1112  0.0831  0.0284
   31BOLB   C4B  732  13.202  -4.179  17.631 -0.0321  0.2903 -0.1639
   31BOLB   NC2  733  14.174  -7.461  16.048  0.0335  0.3773 -0.1949
   31BOLB   PO2  734  14.328  -7.142  16.295  0.1905  0.1274  0.0776
   31BOLB   GL3  735  14.252  -6.870  16.687 -0.0264 -0.0001  0.0621
   31BOLB   GL4  736  14.628  -6.851  16.689  0.2581 -0.2730  0.0449
   31BOLB   C1C  737  14.416  -6.447  16.950  0.2743 -0.1858  0.1129
   31BOLB   C2C  738  14.734  -6.084  17.055 -0.0669  0.0133 -0.2279
   31BOLB   C3C  739  14.626  -5.753  17.217  0.0868  0.0251  0.0189
   31BOLB   C4C  740  14.583  -5.402  17.613  0.2808 -0.2290  0.0159
   31BOLB   C1D  741  14.891  -6.460  16.672  0.0791 -0.0862 -0.1314
   31BOLB   C2D  742  15.102  -6.336  16.913 -0.3647 -0.1822  0.2648
   31BOLB   C3D  743  15.201  -5.906  17.009  0.3251 -0.2763  0.1461
   31BOLB   C4D  744  15.351  -5.434  16.854 -0.2121  0.1034 -0.0352
   32BOLB   NC1  745  10.562  11.656  34.588  0.1644 -0.0232 -0.3852
   32BOLB   PO1  746  10.909  11.424  34.492  0.1023  0.1670  0.1109
   32BOLB   GL1  747  11.116  11.308  34.191 -0.3756  0.1451 -0.0168
   32BOLB   GL2  748  11.362  11.169  34.385  0.1414  0.0501 -0.0461
   32BOLB   C1A  749  10.996  11.181  33.777 -0.0518 -0.2410  0.1826
   32BOLB   C2A  750  11.073  11.107  33.283  0.3430 -0.0745  0.3847
   32BOLB   C3A  751  11.200  10.996  32.867 -0.0943  0.1963 -0.1336
   32BOLB   C4A  752  11.550  11.030  32.499  0.0098 -0.4137  0.0064
   32BOLB   C1B  753  11.365  10.872  34.068  0.0651  0.0836  0.2054
   32BOLB   C2B  754  11.556  10.911  33.618  0.3569  0.0436  0.0141
   32BOLB   C3B  755  11.552  10.783  33.160 -0.0884  0.1507  0.0966
   32BOLB   C4B  756  11.524  10.608  32.756 -0.0101 -0.1697 -0.3102
   32BOLB   NC2  757  10.914  12.591  33.661  0.2442 -0.0739  0.2076
   32BOLB   PO2  758  11.329  12.697  33.687 -0.1459  0.1246 -0.1126
   32BOLB   GL3  759  11.474  12.441  33.500  0.1792  0.1642  0.1675
   32BOLB   GL4  760  11.220  12.280  33.329 -0.4427  0.0641  0.2686
   32BOLB   C1C  761  11.619  11.986  33.478  0.0024 -0.1135  0.1115
   32BOLB   C2C  762  11.784  11.716  33.070 -0.2343  0.1428 -0.0109
   32BOLB   C3C  763  12.069  11.571  32.804 -0.1564 -0.3278 -0.0161
   32BOLB   C4C  764  11.960  11.264  32.490 -0.4989  0.0627 -0.2462
   32BOLB   C1D  765  11.267  11.924  32.962  0.3139 -0.1709  0.3241
   32BOLB   C2D  766  11.044  11.704  32.578 -0.1780 -0.0465 -0.4039
   32BOLB   C3D  767  10.949  11.390  32.176 -0.0604 -0.1773 -0.0914
   32BOLB   C4D  768  11.172  10.974  32.011  0.1114 -0.3986 -0.0818
   33BOLB   NC1  769  19.890  -1.214  21.734 -0.4174 -0.1083 -0.2907
   33BOLB   PO1  770  20.007  -1.397  21.377  0.1156  0.0282  0.0377
   33BOLB   GL1  771  19.974  -1.755  20.985 -0.2465  0.0138 -0.1808
   33BOLB   GL2  772  19.685  -1.896  20.992  0.1425  0.0981 -0.3405
   33BOLB   C1A  773  20.030  -1.755  20.561 -0.2612 -0.1271 -0.0960
   33BOLB   C2A  774  19.762  -1.994  20.239  0.3533  0.4692 -0.1183
   33BOLB   C3A  775  19.654  -2.321  20.017  0.3012  0.3998 -0.2179
   33BOLB   C4A  776  19.963  -2.587  19.840 -0.0361  0.1233 -0.0909
   33BOLB   C1B  777  19.682  -2.263  20.621 -0.2755  0.2264  0.1479
   33BOLB   C2B  778  19.946  -2.605  20.364  0.1220 -0.3358 -0.2494
   33BOLB   C3B  779  20.072  -3.005  20.435  0.2859  0.0263 -0.0913
   33BOLB   C4B  780  20.359  -3.249  20.163 -0.2705 -0.2409  0.0265
   33BOLB   NC2  781  19.415  -2.577  21.269 -0.3757  0.1538 -0.3238
   33BOLB   PO2  782  19.755  -2.655  21.456 -0.4660 -0.0756 -0.2129
   33BOLB   GL3  783  19.954  -3.069  21.231 -0.2147 -0.0537  0.4719
   33BOLB   GL4  784  20.155  -3.031  20.952 -0.2322 -0.3306 -0.1044
   33BOLB   C1C  785  19.853  -3.447  21.066 -0.0489  0.4012 -0.3108
   33BOLB   C2C  786  19.772  -3.405  20.698 -0.0201 -0.3204  0.0063
   33BOLB   C3C  787  19.840  -3.373  20.197 -0.2108 -0.0437 -0.2378
   33BOLB   C4C  788  19.970  -2.989  19.828  0.1173 -0.4424 -0.0536
   33BOLB   C1D  789  20.545  -3.187  20.661  0.1481  0.0687  0.1489
   33BOLB   C2D  790  20.941  -3.266  20.664 -0.0265 -0.1154  0.1474
   33BOLB   C3D  791  21.185  -3.548  20.778  0.0836 -0.0558 -0.0965
   33BOLB   C4D  792  21.465  -3.960  20.623  0.3078 -0.0216 -0.0219
   34BOLB   NC1  793  22.695   1.840  10.690  0.1796  0.0686  0.0322
   34BOLB   PO1  794  22.275   1.811  10.724  0.0817  0.0801  0.1788
   34BOLB   GL1  795  22.324   1.469  10.892 -0.0374  0.1741  0.2243
   34BOLB   GL2  796  22.699   1.447  11.070 -0.2151 -0.2258 -0.1538
   34BOLB   C1A  797  22.113   1.565  11.267 -0.1948 -0.0061  0.1627
   34BOLB   C2A  798  21.877   1.563  11.483 -0.0980  0.2245  0.2698
   34BOLB   C3A  799  21.512   1.417  11.601  0.1430  0.0246  0.3638
   34BOLB   C4A  800  21.091   1.150  11.526  0.2273 -0.2329 -0.2350
   34BOLB   C1B  801  22.558   1.326  11.481  0.0774 -0.1981  0.3035
   34BOLB   C2B  802  22.256   1.459  11.773  0.1082 -0.1087 -0.2030
   34BOLB   C3B  803  21.961   1.697  11.927  0.2674  0.4801  0.1132
   34BOLB   C4B  804  21.714   1.403  12.077  0.1044 -0.3065  0.0748
   34BOLB   NC2  805  20.041   2.548  10.871  0.0440 -0.0549  0.3858
   34BOLB   PO2  806  20.286   2.843  10.686  0.0073 -0.1256 -0.0965
   34BOLB   GL3  807  20.460   2.870  11.075  0.0611 -0.0565 -0.2275
   34BOLB   GL4  808  20.213   2.791  11.369 -0.0106 -0.0282  0.0674
   34BOLB   C1C  809  20.626   2.518  11.432  0.2303 -0.1156  0.3305
   34BOLB   C2C  810  20.615   2.039  11.260 -0.2057  0.0092 -0.0408
   34BOLB   C3C  811  20.620   1.647  11.390 -0.1679  0.0850 -0.1032
   34BOLB   C4C  812  20.882   1.279  11.325  0.0405 -0.4354 -0.3657
   34BOLB   C1D  813  20.211   2.604  11.754  0.0582  0.0869 -0.2460
   34BOLB   C2D  814  20.490   2.386  12.057 -0.1359 -0.0788  0.1860
   34BOLB   C3D  815  20.542   1.921  12.160  0.0335 -0.0939 -0.0285
   34BOLB   C4D  816  20.868   1.560  12.258 -0.1559 -0.0028 -0.0471
   35BOLB   NC1  817  24.575   1.708  28.505 -0.0001 -0.0993 -0.3092
   35BOLB   PO1  818  24.824   1.728  28.164  0.0704 -0.2163 -0.1520
   35BOLB   GL1  819  25.152   1.685  28.500  0.1672 -0.0976 -0.0680
   35BOLB   GL2  820  24.963   1.316  28.560 -0.0847 -0.1395 -0.0174
   35BOLB   C1A  821  25.546   1.503  28.674  0.2596  0.1462  0.0612
   35BOLB   C2A  822  25.525   1.104  28.705 -0.1932 -0.1427 -0.2185
   35BOLB   C3A  823  25.682   0.624  28.766 -0.2588 -0.0284 -0.3445
   35BOLB   C4A  824  25.774   0.299  28.476  0.1402  0.1900  0.2833
   35BOLB   C1B  825  25.048   0.963  28.824  0.0960 -0.0196 -0.1499
   35BOLB   C2B  826  25.337   0.824  29.105 -0.0277 -0.2364 -0.0691
   35BOLB   C3B  827  25.763   0.719  29.264  0.0711  0.4557  0.1822
   35BOLB   C4B  828  26.127   0.599  29.048  0.1015 -0.1539 -0.2033
   35BOLB   NC2  829  28.539   0.066  27.981 -0.0535 -0.3964  0.2253
   35BOLB   PO2  830  28.117  -0.134  27.877  0.1761 -0.0626 -0.3641
   35BOLB   GL3  831  27.656  -0.164  28.008  0.0323 -0.0550 -0.4069
   35BOLB   GL4  832  27.508  -0.103  28.305  0.1823 -0.1194 -0.0141
   35BOLB   C1C  833  27.204  -0.144  27.887  0.0223 -0.1708 -0.0786
   35BOLB   C2C  834  26.775  -0.105  27.914 -0.0090 -0.2167 -0.1770
   35BOLB   C3C  835  26.336  -0.019  28.155  0.0758  0.1584  0.3177
   35BOLB   C4C  836  25.989   0.228  28.224 -0.0133 -0.1710  0.2192
   35BOLB   C1D  837  27.161   0.028  28.466  0.0010  0.3569 -0.3116
   35BOLB   C2D  838  26.839   0.228  28.494 -0.1060  0.2864  0.3034
   35BOLB   C3D  839  26.511   0.392  28.246 -0.2038 -0.0847 -0.2171
   35BOLB   C4D  840  26.347   0.756  28.052 -0.1658  0.1264 -0.1531
   36BOLB   NC1  841  11.004  -4.217  33.046  0.1031  0.0989 -0.0233
   36BOLB   PO1  842  11.385  -4.047  33.002 -0.4323  0.4810 -0.1080
   36BOLB   GL1  843  11.745  -3.889  32.811 -0.3640 -0.1746  0.1317
   36BOLB   GL2  844  11.661  -3.951  32.510  0.0997  0.1141  0.1501
   36BOLB   C1A  845  12.065  -3.493  32.769  0.1062  0.1500  0.0040
   36BOLB   C2A  846  12.229  -3.244  32.527 -0.1228  0.0466 -0.2481
   36BOLB   C3A  847  11.880  -2.964  32.251 -0.1412 -0.0956 -0.0707
   36BOLB   C4A  848  11.741  -2.603  32.018  0.0504 -0.0989 -0.1934
   36BOLB   C1B  849  11.660  -3.548  32.403 -0.1270 -0.1303 -0.1801
   36BOLB   C2B  850  11.430  -3.249  32.147  0.1560 -0.1435  0.2252
   36BOLB   C3B  851  11.082  -2.974  32.104 -0.3709  0.0457 -0.1945
   36BOLB   C4B  852  10.992  -2.517  32.134  0.0159  0.0320 -0.2331
   36BOLB   NC2  853  12.348  -1.075  30.364 -0.1579 -0.0560  0.2421
   36BOLB   PO2  854  12.800  -1.120  30.568  0.0475  0.0379 -0.0945
   36BOLB   GL3  855  12.580  -1.239  30.901 -0.0165  0.2064 -0.3574
   36BOLB   GL4  856  12.639  -1.097  31.208 -0.1537 -0.0933  0.3253
   36BOLB   C1C  857  12.173  -1.555  30.833 -0.1619 -0.0077 -0.1128
   36BOLB   C2C  858  12.107  -1.966  30.986 -0.2480 -0.1341 -0.1649
   36BOLB   C3C  859  11.895  -2.257  31.301 -0.1461  0.2216  0.0174
   36BOLB   C4C  860  11.691  -2.461  31.602  0.2355 -0.2170  0.3158
   36BOLB   C1D  861  12.657  -1.251  31.625  0.0734 -0.3045  0.3517
   36BOLB   C2D  862  12.596  -1.681  31.758 -0.0710 -0.3174 -0.0187
   36BOLB   C3D  863  12.602  -2.070  32.034 -0.2247  0.1658  0.1141
   36BOLB   C4D  864  12.869  -2.513  32.139 -0.0726  0.1362 -0.2431
   37BOLB   NC1  865  22.777   5.024  20.753  0.2294 -0.2328 -0.1136
   37BOLB   PO1  866  23.036   5.070  20.275 -0.0981  0.0391  0.1717
   37BOLB   GL1  867  23.411   5.266  20.175  0.1109  0.0003  0.0433
   37BOLB   GL2  868  23.687   5.057  20.161  0.0909  0.0987 -0.1041
   37BOLB   C1A  869  23.686   5.598  20.079  0.0315 -0.0868 -0.0890
   37BOLB   C2A  870  23.907   6.000  19.909  0.2305  0.0547  0.0083
   37BOLB   C3A  871  24.061   6.381  19.964 -0.2686  0.1658 -0.1741
   37BOLB   C4A  872  24.356   6.563  20.163 -0.2714  0.0921  0.1520
   37BOLB   C1B  873  24.034   5.234  20.139 -0.1511 -0.1877  0.1778
   37BOLB   C2B  874  24.365   5.555  20.230  0.1590 -0.1827  0.0567
   37BOLB   C3B  875  24.696   5.942  20.110 -0.0054 -0.2980 -0.1094
   37BOLB   C4B  876  25.037   6.191  20.189  0.1009 -0.2848 -0.2253
   37BOLB   NC2  877  27.115   6.895  20.403 -0.0408  0.1953  0.3877
   37BOLB   PO2  878  26.815   7.211  20.517 -0.0972 -0.0061  0.1498
   37BOLB   GL3  879  26.435   7.201  20.754  0.1654 -0.0753  0.2377
   37BOLB   GL4  880  26.351   7.120  21.074 -0.2946 -0.3240 -0.4204
   37BOLB   C1C  881  25.978   7.112  20.728 -0.0581  0.1342 -0.0610
   37BOLB   C2C  882  25.601   6.886  20.554  0.2599  0.1392  0.1783
   37BOLB   C3C  883  25.286   6.582  20.465  0.2848 -0.0455  0.2887
   37BOLB   C4C  884  24.783   6.622  20.341 -0.5041  0.0920  0.1574
   37BOLB   C1D  885  26.045   6.833  21.181 -0.1058 -0.1848  0.0103
   37BOLB   C2D  886  25.599   6.781  21.201 -0.2902 -0.1620  0.0161
   37BOLB   C3D  887  25.301   6.913  20.957  0.1834  0.0928 -0.0580
   37BOLB   C4D  888  24.933   6.719  20.850  0.3453  0.0323 -0.0630
   38BOLB   NC1  889  16.282   2.009  33.440 -0.1396 -0.0992  0.0992
   38BOLB   PO1  890  15.899   2.327  33.405 -0.3465  0.0809  0.1003
   38BOLB   GL1  891  15.865   2.452  33.877  0.2261  0.0791  0.1637
   38BOLB   GL2  892  16.013   2.707  33.957  0.0357  0.1358  0.0793
   38BOLB   C1A  893  15.579   2.339  34.225  0.1190  0.0108  0.0725
   38BOLB   C2A  894  15.437   2.472  34.710 -0.2603 -0.1556 -0.2324
   38BOLB   C3A  895  15.326   2.034  34.893  0.2002 -0.0879 -0.0470
   38BOLB   C4A  896  15.293   2.067  35.286 -0.0166 -0.2014  0.0976
   38BOLB   C1B  897  15.970   2.610  34.452  0.2371 -0.2429  0.1071
   38BOLB   C2B  898  16.051   2.446  34.742 -0.2492  0.2678 -0.1499
   38BOLB   C3B  899  15.930   2.489  35.126  0.0505  0.1779  0.1169
   38BOLB   C4B  900  15.514   2.523  35.269  0.0574 -0.3053  0.1095
   38BOLB   NC2  901  15.592   1.880  37.316  0.0495  0.0297 -0.3692
   38BOLB   PO2  902  16.029   1.885  37.331  0.1569 -0.2240 -0.2854
   38BOLB   GL3  903  15.893   2.134  36.900 -0.0627  0.0631  0.0323
   38BOLB   GL4  904  15.797   1.809  36.809 -0.0791  0.3693 -0.0047
   38BOLB   C1C  905  15.818   2.379  36.504  0.0124  0.3309 -0.0028
   38BOLB   C2C  906  15.899   2.286  36.113  0.0259  0.1607  0.2478
   38BOLB   C3C  907  15.793   2.207  35.725  0.2341 -0.0135  0.1486
   38BOLB   C4C  908  15.407   2.128  35.710  0.0298  0.4255  0.0717
   38BOLB   C1D  909  15.737   1.843  36.438 -0.1411 -0.3412  0.1306
   38BOLB   C2D  910  15.870   1.727  36.059 -0.1942 -0.0211 -0.3221
   38BOLB   C3D  911  16.169   1.798  35.940 -0.2393  0.0160  0.3907
   38BOLB   C4D  912  16.368   2.172  35.881 -0.2720  0.2920  0.0809
   39BOLB   NC1  913   7.177  -3.319  31.508  0.0420  0.0825 -0.0783
   39BOLB   PO1  914   7.583  -3.518  31.525  0.1705  0.1468  0.3940
   39BOLB   GL1  915   8.029  -3.297  31.749  0.0156  0.1164 -0.0418
   39BOLB   GL2  916   8.163  -2.920  31.605 -0.0828  0.4129 -0.1250
   39BOLB   C1A  917   8.460  -3.372  31.918  0.0942 -0.4934 -0.0465
   39BOLB   C2A  918   8.838  -3.105  31.696 -0.1404  0.0691 -0.1671
   39BOLB   C3A  919   9.344  -2.903  31.809 -0.0181  0.2332 -0.0429
   39BOLB   C4A  920   9.765  -2.939  31.874 -0.0360  0.5707 -0.0384
   39BOLB   C1B  921   8.572  -2.721  31.581  0.1081 -0.2130 -0.0089
   39BOLB   C2B  922   8.871  -2.579  31.312  0.0563 -0.2684  0.2392
   39BOLB   C3B  923   9.309  -2.699  31.293 -0.0887  0.1776  0.3440
   39BOLB   C4B  924   9.793  -2.690  31.389  0.0970 -0.2971 -0.0050
   39BOLB   NC2  925   9.783  -3.316  33.439  0.4959 -0.0220 -0.0464
   39BOLB   PO2  926  10.135  -3.461  33.353 -0.1421  0.0249  0.1037
   39BOLB   GL3  927  10.535  -3.320  33.109  0.0051 -0.0838 -0.2701
   39BOLB   GL4  928  10.458  -3.373  32.695 -0.1016  0.1817 -0.0888
   39BOLB   C1C  929  10.663  -2.917  32.897  0.0771  0.3026  0.1559
   39BOLB   C2C  930  10.736  -2.910  32.467 -0.0675  0.0401 -0.0989
   39BOLB   C3C  931  10.594  -2.966  32.079 -0.0418 -0.2092 -0.0509
   39BOLB   C4C  932  10.151  -2.956  32.020 -0.3454 -0.2469  0.1187
   39BOLB   C1D  933  10.705  -3.389  32.363  0.0619  0.1995 -0.1964
   39BOLB   C2D  934  11.070  -3.685  32.345 -0.0373 -0.1745 -0.2819
   39BOLB   C3D  935  11.245  -3.865  32.088 -0.0268  0.2176 -0.0297
   39BOLB   C4D  936  11.710  -3.771  31.891 -0.1483  0.1451  0.0541
   40BOLB   NC1  937  16.613   7.475  33.229 -0.2495  0.2286  0.1517
   40BOLB   PO1  938  16.550   7.968  33.273  0.0745  0.3538  0.0332
   40BOLB   GL1  939  16.348   8.273  33.502  0.1872 -0.0839 -0.0834
   40BOLB   GL2  940  16.439   8.620  33.553 -0.0443 -0.1587  0.2435
   40BOLB   C1A  941  16.268   8.377  33.984 -0.2821 -0.0837  0.1052
   40BOLB   C2A  942  16.488   8.269  34.312 -0.0200  0.2613 -0.1930
   40BOLB   C3A  943  16.477   8.051  34.756  0.3023 -0.1070 -0.3836
   40BOLB   C4A  944  16.527   7.785  35.155  0.2749 -0.2017  0.1033
   40BOLB   C1B  945  16.574   8.884  34.019 -0.1275 -0.2730  0.3237
   40BOLB   C2B  946  16.391   8.956  34.479 -0.1273  0.0438  0.1456
   40BOLB   C3B  947  16.051   8.744  34.789 -0.2271 -0.0939  0.1674
   40BOLB   C4B  948  15.703   8.660  35.089  0.2283 -0.1849 -0.0315
   40BOLB   NC2  949  16.511   9.181  37.009 -0.2718  0.1628  0.0075
   40BOLB   PO2  950  16.396   8.932  37.379 -0.0714 -0.2786 -0.1911
   40BOLB   GL3  951  16.159   8.714  36.968 -0.1188 -0.0435 -0.0682
   40BOLB   GL4  952  15.832   8.584  37.067 -0.0102 -0.1769 -0.1404
   40BOLB   C1C  953  15.961   8.528  36.614  0.3573 -0.2557 -0.2263
   40BOLB   C2C  954  15.932   8.207  36.278  0.1216  0.2362 -0.3081
   40BOLB   C3C  955  16.094   7.966  35.907  0.0856 -0.2853 -0.1495
   40BOLB   C4C  956  16.341   7.755  35.554 -0.3178 -0.2625  0.0273
   40BOLB   C1D  957  15.760   8.119  36.790 -0.0848 -0.2243  0.0310
   40BOLB   C2D  958  15.796   7.792  36.541 -0.0147  0.0617 -0.1623
   40BOLB   C3D  959  16.105   7.509  36.501  0.2295  0.4499  0.2839
   40BOLB   C4D  960  16.473   7.376  36.675  0.2150 -0.0056 -0.3107
   41BOLB   NC1  961  19.835   7.441  31.891  0.0768 -0.0411  0.2455
   41BOLB   PO1  962  19.830   7.234  32.346  0.3452 -0.2293 -0.2448
   41BOLB   GL1  963  20.080   6.967  32.697 -0.0032  0.1291 -0.1649
   41BOLB   GL2  964  19.981   7.182  32.897 -0.0340 -0.0809 -0.0236
   41BOLB   C1A  965  20.415   6.937  33.007 -0.1948 -0.1015 -0.0402
   41BOLB   C2A  966  20.658   7.301  33.135 -0.3129 -0.1454 -0.2531
   41BOLB   C3A  967  21.009   7.203  33.418  0.0549 -0.1240  0.1368
   41BOLB   C4A  968  21.422   7.256  33.683 -0.2212 -0.1571  0.0700
   41BOLB   C1B  969  20.072   7.397  33.184  0.0271  0.0299  0.4248
   41BOLB   C2B  970  20.443   7.688  33.485 -0.0001  0.0023  0.0265
   41BOLB   C3B  971  20.905   7.679  33.507 -0.0063  0.1219  0.2292
   41BOLB   C4B  972  21.295   7.699  33.668 -0.0746  0.0835 -0.2177
   41BOLB   NC2  973  22.333   7.150  35.817  0.2098 -0.3197 -0.0168
   41BOLB   PO2  974  22.592   7.460  35.656  0.0159  0.1114 -0.0928
   41BOLB   GL3  975  22.420   7.256  35.341  0.0797  0.1634  0.0803
   41BOLB   GL4  976  22.411   6.896  35.192  0.1185 -0.1939 -0.2007
   41BOLB   C1C  977  22.004   7.389  35.124  0.0207 -0.1317  0.0712
   41BOLB   C2C  978  21.845   7.358  34.767  0.0443  0.0147 -0.1693
   41BOLB   C3C  979  21.779   7.403  34.416 -0.0366  0.0615 -0.0221
   41BOLB   C4C  980  21.566   7.303  34.089  0.2092 -0.0813  0.1865
   41BOLB   C1D  981  22.296   7.031  34.801  0.2018 -0.1943 -0.1901
   41BOLB   C2D  982  22.590   6.845  34.430 -0.2337 -0.1031 -0.1308
   41BOLB   C3D  983  22.923   6.587  34.359 -0.2282  0.1564 -0.1037
   41BOLB   C4D  984  23.238   6.543  34.136 -0.0427 -0.2758 -0.3178
   42BOLB   NC1  985   8.996   3.634  13.817 -0.0212  0.0212 -0.2417
   42BOLB   PO1  986   9.056   3.664  14.183  0.2318 -0.2268  0.2507
   42BOLB   GL1  987   9.389   3.489  14.535  0.0257 -0.0927 -0.1051
   42BOLB   GL2  988   9.623   3.270  14.644 -0.2196  0.1571  0.5121
   42BOLB   C1A  989   9.411   3.666  14.916 -0.2491 -0.1864  0.4948
   42BOLB   C2A  990   9.637   3.732  15.198  0.0744 -0.3992  0.1142
   42BOLB   C3A  991   9.626   3.946  15.622 -0.1213 -0.2132 -0.1422
   42BOLB   C4A  992   9.679   3.981  16.108  0.1858  0.0313  0.0883
   42BOLB   C1B  993   9.831   3.216  15.117  0.0683 -0.1575  0.0230
   42BOLB   C2B  994   9.936   3.385  15.455  0.2770  0.0706  0.1569
   42BOLB   C3B  995  10.143   3.306  15.800  0.1446  0.0454 -0.0619
   42BOLB   C4B  996  10.187   3.078  16.201  0.0767  0.3119 -0.1532
   42BOLB   NC2  997   8.413   4.967  15.335  0.0891  0.2615  0.2477
   42BOLB   PO2  998   8.187   4.830  15.612 -0.0645 -0.0748 -0.1017
   42BOLB   GL3  999   8.380   4.461  15.664  0.1750  0.1230  0.3175
   42BOLB   GL4 1000   8.230   4.389  15.874  0.0541  0.0162  0.2823
   42BOLB   C1C 1001   8.679   4.287  15.968  0.0042 -0.0654  0.1329
   42BOLB   C2C 1002   8.850   4.269  16.429 -0.1173  0.1075 -0.0565
   42BOLB   C3C 1003   9.174   4.126  16.679 -0.0218 -0.0218 -0.1370
   42BOLB   C4C 1004   9.543   4.114  16.573  0.3166 -0.1596  0.2618
   42BOLB   C1D 1005   8.375   4.605  16.248  0.5325 -0.1086  0.1385
   42BOLB   C2D 1006   8.591   4.722  16.562  0.0890 -0.0857 -0.1026
   42BOLB   C3D 1007   9.010   5.004  16.627 -0.2014 -0.2355 -0.1146
   42BOLB   C4D 1008   9.274   5.376  16.887  0.0167 -0.2392 -0.0430
   43BOLB   NC1 1009  18.564  -1.486  29.383 -0.0216  0.1354  0.0692
   43BOLB   PO1 1010  18.608  -2.054  29.359 -0.0020 -0.0055 -0.1389
   43BOLB   GL1 1011  18.660  -2.305  29.714 -0.0744 -0.1485 -0.2601
   43BOLB   GL2 1012  18.658  -2.143  30.009  0.1068 -0.2429 -0.4677
   43BOLB   C1A 1013  18.742  -2.722  29.942 -0.0109  0.0183  0.1500
   43BOLB   C2A 1014  18.843  -2.881  30.302  0.1064  0.0921  0.0518
   43BOLB   C3A 1015  18.938  -2.687  30.743  0.0541  0.1734 -0.1284
   43BOLB   C4A 1016  19.102  -2.970  30.960  0.1521 -0.0042 -0.1203
   43BOLB   C1B 1017  18.894  -2.327  30.368 -0.1655  0.5280 -0.1258
   43BOLB   C2B 1018  19.315  -2.484  30.541  0.1919 -0.0383 -0.1286
   43BOLB   C3B 1019  19.564  -2.550  30.894 -0.2504  0.0063  0.0329
   43BOLB   C4B 1020  19.857  -2.599  31.300  0.1803  0.0922  0.2297
   43BOLB   NC2 1021  19.613  -5.167  32.250  0.0249  0.1442 -0.0630
   43BOLB   PO2 1022  19.726  -4.858  31.985  0.2557 -0.0008 -0.2153
   43BOLB   GL3 1023  19.340  -4.635  31.863  0.1674 -0.0019  0.2348
   43BOLB   GL4 1024  19.220  -4.835  31.554  0.3708  0.1371  0.1359
   43BOLB   C1C 1025  19.408  -4.266  31.610 -0.0403  0.2008  0.1899
   43BOLB   C2C 1026  19.449  -4.135  31.178  0.2064  0.5009 -0.0455
   43BOLB   C3C 1027  19.620  -3.753  31.069 -0.0724  0.2119  0.1676
   43BOLB   C4C 1028  19.415  -3.377  31.009  0.0069 -0.1452 -0.0314
   43BOLB   C1D 1029  19.334  -4.593  31.146  0.1767  0.1742 -0.0398
   43BOLB   C2D 1030  19.258  -4.347  30.740 -0.2262  0.3248  0.3222
   43BOLB   C3D 1031  18.895  -4.418  30.470 -0.1356 -0.0456 -0.1441
   43BOLB   C4D 1032  18.429  -4.509  30.519 -0.0379 -0.0880  0.0101
   44BOLB   NC1 1033  19.954   8.995  20.463 -0.1378 -0.3403  0.2835
   44BOLB   PO1 1034  20.331   9.035  20.255  0.0239 -0.0603 -0.2163
   44BOLB   GL1 1035  20.657   9.124  20.007  0.1468 -0.1213 -0.0321
   44BOLB   GL2 1036  20.440   9.220  19.767  0.0900  0.1782  0.0752
   44BOLB   C1A 1037  21.127   9.387  19.908 -0.2381 -0.2528 -0.1303
   44BOLB   C2A 1038  21.465   9.538  19.782 -0.1415  0.1046  0.1015
   44BOLB   C3A 1039  21.719   9.792  19.752 -0.0223 -0.0220  0.2247
   44BOLB   C4A 1040  22.165   9.732  19.652  0.1824 -0.1001 -0.1212
   44BOLB   C1B 1041  20.534   9.584  19.491  0.0163  0.2101  0.2760
   44BOLB   C2B 1042  20.680   9.862  19.253  0.3878 -0.1353 -0.1580
   44BOLB   C3B 1043  20.613  10.290  19.102  0.1612  0.0051  0.0635
   44BOLB   C4B 1044  20.678  10.601  18.770 -0.2131  0.1339 -0.0652
   44BOLB   NC2 1045  23.248  12.014  17.939  0.1820 -0.1111 -0.1701
   44BOLB   PO2 1046  23.012  11.565  17.952  0.2229 -0.0334 -0.1033
   44BOLB   GL3 1047  22.689  11.380  18.251 -0.1309  0.4418 -0.4123
   44BOLB   GL4 1048  22.551  11.347  18.480 -0.1428  0.2377  0.1355
   44BOLB   C1C 1049  22.543  10.891  18.284  0.0340  0.2292  0.1291
   44BOLB   C2C 1050  22.385  10.569  18.645  0.3341  0.3239 -0.1201
   44BOLB   C3C 1051  22.293  10.268  19.006 -0.1658 -0.0492  0.2635
   44BOLB   C4C 1052  22.327   9.955  19.264  0.1075  0.1943 -0.2260
   44BOLB   C1D 1053  22.606  11.055  18.832  0.0331  0.1889 -0.1380
   44BOLB   C2D 1054  22.495  10.773  19.083  0.1356 -0.0877  0.2298
   44BOLB   C3D 1055  22.559  10.533  19.365 -0.0988 -0.0063 -0.0781
   44BOLB   C4D 1056  22.498  10.161  19.656  0.2883  0.1637  0.2441
   45BOLB   NC1 1057  14.259  -6.855  15.852 -0.2367  0.1777  0.0201
   45BOLB   PO1 1058  14.553  -7.107  15.524 -0.2011  0.0317 -0.0623
   45BOLB   GL1 1059  14.827  -6.934  15.880 -0.0521 -0.3476  0.0086
   45BOLB   GL2 1060  14.675  -6.862  16.208 -0.0990 -0.1317  0.4446
   45BOLB   C1A 1061  15.253  -6.816  15.942 -0.1492 -0.2042  0.0072
   45BOLB   C2A 1062  15.547  -6.681  15.844 -0.1211  0.2067  0.0106
   45BOLB   C3A 1063  15.901  -6.819  15.902  0.4446 -0.0575  0.5905
   45BOLB   C4A 1064  16.080  -6.976  16.216  0.1851  0.2485 -0.0212
   45BOLB   C1B 1065  14.781  -6.554  16.154  0.0368 -0.2658 -0.4057
   45BOLB   C2B 1066  15.123  -6.300  16.059  0.2827  0.0211  0.0219
   45BOLB   C3B 1067  15.528  -6.016  15.968  0.1395  0.1024  0.0314
   45BOLB   C4B 1068  15.549  -5.618  15.598  0.1076  0.1700 -0.2377
   45BOLB   NC2 1069  16.387  -9.229  17.487  0.1817 -0.1820  0.1067
   45BOLB   PO2 1070  16.024  -8.931  17.430  0.0296  0.0716  0.1362
   45BOLB   GL3 1071  16.215  -8.537  17.578 -0.2081  0.1402 -0.1001
   45BOLB   GL4 1072  16.198  -8.270  17.772  0.1792  0.1157  0.0436
   45BOLB   C1C 1073  16.400  -8.355  17.277 -0.1107 -0.0974 -0.0437
   45BOLB   C2C 1074  16.294  -8.130  16.963  0.1496  0.1344 -0.1585
   45BOLB   C3C 1075  16.206  -7.657  16.790 -0.0612 -0.3355  0.2667
   45BOLB   C4C 1076  16.305  -7.323  16.485 -0.3959 -0.5391  0.2641
   45BOLB   C1D 1077  16.683  -8.087  17.682 -0.0083  0.0722  0.4028
   45BOLB   C2D 1078  16.980  -7.809  17.591  0.2654 -0.1213  0.3296
   45BOLB   C3D 1079  17.107  -7.536  17.424 -0.0305 -0.0578  0.0112
   45BOLB   C4D 1080  17.268  -7.097  17.280  0.2756 -0.0564  0.1600
   46BOLB   NC1 1081   9.109   2.895  19.855 -0.2929  0.2133 -0.0704
   46BOLB   PO1 1082   9.078   3.148  19.644 -0.2464  0.0226  0.2681
   46BOLB   GL1 1083   8.898   3.388  19.303 -0.0326 -0.0447  0.0574
   46BOLB   GL2 1084   8.589   3.368  19.465  0.2266 -0.2803 -0.1158
   46BOLB   C1A 1085   8.866   3.406  18.884 -0.1896  0.1010  0.3101
   46BOLB   C2A 1086   8.744   3.185  18.539  0.0857 -0.2353  0.1000
   46BOLB   C3A 1087   8.336   3.254  18.245 -0.0776  0.2998  0.0856
   46BOLB   C4A 1088   8.053   3.127  17.880 -0.0567 -0.0547 -0.1814
   46BOLB   C1B 1089   8.426   3.383  19.091 -0.2521 -0.2355 -0.0690
   46BOLB   C2B 1090   8.289   3.530  18.668  0.2201  0.0396  0.1237
   46BOLB   C3B 1091   8.133   3.685  18.201 -0.2948 -0.1085  0.4440
   46BOLB   C4B 1092   8.226   4.037  17.845  0.0951  0.0707 -0.0418
   46BOLB   NC2 1093   6.983   2.936  16.267  0.2196 -0.0330 -0.0357
   46BOLB   PO2 1094   6.608   2.717  16.521  0.0220 -0.2830 -0.0779
   46BOLB   GL3 1095   6.607   2.957  17.024  0.4277  0.0788  0.1290
   46BOLB   GL4 1096   6.669   2.653  17.229 -0.0985  0.0952  0.1828
   46BOLB   C1C 1097   6.763   3.293  17.324  0.1851  0.3775  0.1046
   46BOLB   C2C 1098   7.010   3.403  17.604 -0.1070 -0.1311  0.2779
   46BOLB   C3C 1099   7.297   3.376  17.861 -0.2206  0.2088 -0.0862
   46BOLB   C4C 1100   7.652   3.253  17.702  0.0603 -0.1659  0.0847
   46BOLB   C1D 1101   6.393   2.900  17.435 -0.4416 -0.2543  0.1414
   46BOLB   C2D 1102   6.550   3.158  17.772  0.0311 -0.0601 -0.0058
   46BOLB   C3D 1103   6.824   3.136  18.092  0.3088 -0.0364 -0.1958
   46BOLB   C4D 1104   7.225   3.005  18.191 -0.0003  0.0359 -0.1530
   47BOLB   NC1 1105  26.213  10.834  28.816 -0.2100 -0.0363  0.3800
   47BOLB   PO1 1106  26.030  11.151  28.447 -0.0130 -0.0393  0.0588
   47BOLB   GL1 1107  25.875  10.722  28.352 -0.3026  0.0642  0.1612
   47BOLB   GL2 1108  25.862  10.615  28.591  0.1484  0.3557  0.1957
   47BOLB   C1A 1109  25.676  10.297  28.161  0.3486 -0.3161 -0.0260
   47BOLB   C2A 1110  25.632   9.913  28.108 -0.0605 -0.0527 -0.0551
   47BOLB   C3A 1111  25.227   9.775  28.261 -0.2194 -0.3744  0.0445
   47BOLB   C4A 1112  25.139   9.665  28.734  0.0278  0.2843 -0.1728
   47BOLB   C1B 1113  26.145  10.210  28.650 -0.1081  0.1847 -0.2299
   47BOLB   C2B 1114  26.188   9.772  28.810 -0.0524  0.1225 -0.1407
   47BOLB   C3B 1115  26.126   9.282  28.974  0.1249  0.1427  0.0848
   47BOLB   C4B 1116  26.290   9.297  29.457 -0.0794 -0.1594  0.0343
   47BOLB   NC2 1117  26.799  10.200  30.458  0.0569 -0.2421  0.0428
   47BOLB   PO2 1118  26.458  10.392  30.235 -0.0457  0.3576 -0.2035
   47BOLB   GL3 1119  26.154  10.470  30.131  0.4668 -0.0022 -0.4114
   47BOLB   GL4 1120  26.052  10.469  29.734 -0.4417  0.0213  0.2781
   47BOLB   C1C 1121  25.652  10.245  30.177  0.3175  0.0186  0.2971
   47BOLB   C2C 1122  25.389  10.137  29.873  0.1153  0.0080  0.3052
   47BOLB   C3C 1123  25.255  10.111  29.493 -0.0598  0.0828  0.0741
   47BOLB   C4C 1124  25.161   9.699  29.222 -0.2273  0.0464 -0.1824
   47BOLB   C1D 1125  25.768  10.213  29.510  0.1492  0.1494 -0.0865
   47BOLB   C2D 1126  25.691   9.942  29.128 -0.1704  0.1762 -0.2676
   47BOLB   C3D 1127  25.588   9.449  28.953 -0.1353 -0.1071  0.0431
   47BOLB   C4D 1128  25.658   9.037  28.953 -0.0171  0.3640 -0.0531
   48BOLB   NC1 1129  16.063  10.422  31.158  0.2410 -0.0129 -0.4908
   48BOLB   PO1 1130  16.485  10.364  31.401  0.1633  0.0881 -0.2880
   48BOLB   GL1 1131  16.425  10.675  31.720  0.2072  0.0427  0.0479
   48BOLB   GL2 1132  16.411  10.648  32.086  0.0020  0.0330  0.0451
   48BOLB   C1A 1133  16.729  10.976  31.756  0.1222 -0.0905 -0.1259
   48BOLB   C2A 1134  16.840  11.242  32.008  0.0826 -0.0882 -0.1604
   48BOLB   C3A 1135  17.139  11.617  32.139 -0.1404  0.3920  0.2870
   48BOLB   C4A 1136  17.473  11.757  32.352 -0.3097 -0.1019 -0.1405
   48BOLB   C1B 1137  16.667  10.966  32.293  0.2039  0.0639 -0.0967
   48BOLB   C2B 1138  16.879  11.275  32.623 -0.2732 -0.1411  0.2340
   48BOLB   C3B 1139  16.945  11.711  32.641  0.0377 -0.0232 -0.2773
   48BOLB   C4B 1140  16.662  12.024  32.656 -0.5155 -0.1254 -0.0644
   48BOLB   NC2 1141  17.540  13.469  33.787  0.1331 -0.4719  0.0043
   48BOLB   PO2 1142  17.812  13.165  33.898  0.2006  0.1101  0.1253
   48BOLB   GL3 1143  17.672  12.907  33.674 -0.0394 -0.1011 -0.2734
   48BOLB   GL4 1144  17.821  12.584  33.747 -0.2104 -0.1206  0.0434
   48BOLB   C1C 1145  17.399  12.662  33.464  0.1050 -0.0258 -0.0021
   48BOLB   C2C 1146  17.412  12.215  33.378 -0.1817 -0.1070  0.0958
   48BOLB   C3C 1147  17.432  11.997  33.119  0.2662  0.0421 -0.1684
   48BOLB   C4C 1148  17.486  11.964  32.680 -0.0948 -0.0249  0.6323
   48BOLB   C1D 1149  17.868  12.489  33.309  0.3276  0.0025 -0.0274
   48BOLB   C2D 1150  18.065  12.325  32.985  0.0849  0.1529 -0.0869
   48BOLB   C3D 1151  17.997  12.178  32.568  0.2968  0.0592  0.1523
   48BOLB   C4D 1152  18.015  11.750  32.399  0.1479 -0.2470 -0.1472
   49BOLB   NC1 1153  23.745  -2.823  10.089 -0.3116 -0.2351 -0.3561
   49BOLB   PO1 1154  24.011  -2.572  10.489 -0.2310  0.0113  0.1694
   49BOLB   GL1 1155  23.752  -2.374  10.706 -0.2255 -0.1379 -0.0953
   49BOLB   GL2 1156  23.910  -2.405  11.008 -0.0749  0.0648 -0.0129
   49BOLB   C1A 1157  23.332  -2.433  10.870 -0.1144 -0.1308 -0.2139
   49BOLB   C2A 1158  23.159  -2.260  11.257 -0.0801 -0.0946 -0.0061
   49BOLB   C3A 1159  23.033  -2.321  11.657 -0.1191  0.2851  0.0291
   49BOLB   C4A 1160  22.902  -2.131  11.929 -0.0801 -0.0079 -0.3730
   49BOLB   C1B 1161  23.606  -2.182  11.219 -0.2016 -0.1607  0.3967
   49BOLB   C2B 1162  23.422  -2.127  11.624 -0.1037  0.2237 -0.0754
   49BOLB   C3B 1163  23.441  -1.805  11.952 -0.0209 -0.2177  0.1881
   49BOLB   C4B 1164  23.365  -1.425  12.211 -0.1035 -0.1270  0.2206
   49BOLB   NC2 1165  21.581  -2.866   9.878 -0.0084  0.0652  0.0379
   49BOLB   PO2 1166  21.673  -2.473  10.004  0.0358 -0.0440 -0.2381
   49BOLB   GL3 1167  21.777  -2.287  10.465  0.0010 -0.0160  0.0770
   49BOLB   GL4 1168  21.392  -2.347  10.489 -0.0242  0.1503 -0.5022
   49BOLB   C1C 1169  21.895  -2.146  10.912 -0.1044  0.0812 -0.2432
   49BOLB   C2C 1170  21.939  -2.172  11.455  0.0322  0.2384 -0.2280
   49BOLB   C3C 1171  22.119  -2.189  11.910 -0.1248 -0.1012 -0.5331
   49BOLB   C4C 1172  22.515  -2.014  12.118  0.0171 -0.1688  0.0240
   49BOLB   C1D 1173  21.093  -2.155  10.843  0.2289 -0.3422  0.1965
   49BOLB   C2D 1174  20.806  -2.259  11.253 -0.2124  0.0080  0.1771
   49BOLB   C3D 1175  20.647  -2.402  11.657  0.1912 -0.1384 -0.2465
   49BOLB   C4D 1176  20.341  -2.521  11.811 -0.1847  0.2034  0.3790
   50BOLB   NC1 1177  19.666  10.589  23.210  0.1408  0.1611 -0.2802
   50BOLB   PO1 1178  20.213  10.566  23.111 -0.2888  0.1326 -0.5747
   50BOLB   GL1 1179  20.491  10.969  23.153 -0.2019  0.0796  0.3069
   50BOLB   GL2 1180  20.363  11.097  22.890 -0.1272  0.2776  0.1486
   50BOLB   C1A 1181  20.848  11.279  22.896 -0.1440 -0.1760 -0.1143
   50BOLB   C2A 1182  21.181  11.575  22.785 -0.1473  0.2118 -0.1367
   50BOLB   C3A 1183  21.417  11.849  23.058  0.2648  0.1110 -0.2200
   50BOLB   C4A 1184  21.689  12.154  23.055 -0.1280 -0.0818  0.3250
   50BOLB   C1B 1185  20.461  11.537  22.883 -0.1033 -0.1771 -0.0764
   50BOLB   C2B 1186  20.524  11.793  23.183  0.0590  0.2498  0.0980
   50BOLB   C3B 1187  20.358  12.239  23.205  0.0565 -0.3237  0.0425
   50BOLB   C4B 1188  20.212  12.615  22.872  0.3114 -0.3475 -0.1248
   50BOLB   NC2 1189  22.592  13.839  21.400  0.2679  0.0240 -0.0684
   50BOLB   PO2 1190  22.839  13.503  21.249  0.0130  0.2196  0.1547
   50BOLB   GL3 1191  22.849  13.335  21.671  0.1286  0.1307 -0.2483
   50BOLB   GL4 1192  22.699  12.984  21.765 -0.4022  0.0825 -0.0588
   50BOLB   C1C 1193  22.528  13.292  22.087 -0.3897 -0.1527  0.2943
   50BOLB   C2C 1194  22.244  13.234  22.477  0.0338  0.2941 -0.2567
   50BOLB   C3C 1195  22.055  12.905  22.667  0.1448  0.1480 -0.2605
   50BOLB   C4C 1196  21.992  12.530  22.948  0.0967 -0.1558 -0.0028
   50BOLB   C1D 1197  22.515  12.721  22.142  0.1022  0.0134  0.2892
   50BOLB   C2D 1198  22.112  12.549  22.249 -0.0278 -0.0356 -0.3258
   50BOLB   C3D 1199  21.955  12.223  22.177 -0.4177  0.3901  0.0141
   50BOLB   C4D 1200  21.603  11.929  22.255 -0.2225 -0.1300  0.2585
   51BOLB   NC1 1201  12.853  -3.139  28.006 -0.1683 -0.1184  0.1109
   51BOLB   PO1 1202  12.535  -2.917  27.856 -0.3184  0.1758  0.1685
   51BOLB   GL1 1203  12.399  -3.379  27.962 -0.1345  0.2185  0.2697
   51BOLB   GL2 1204  12.355  -3.596  27.647  0.1673 -0.2992  0.2609
   51BOLB   C1A 1205  12.302  -3.536  28.353  0.1156 -0.1336 -0.2087
   51BOLB   C2A 1206  12.413  -3.588  28.792 -0.0463  0.0255 -0.0509
   51BOLB   C3A 1207  12.479  -4.001  29.058 -0.0356 -0.0939  0.0478
   51BOLB   C4A 1208  12.307  -4.451  28.951  0.1836 -0.0639  0.0749
   51BOLB   C1B 1209  12.142  -3.953  27.979  0.0278 -0.1292 -0.1901
   51BOLB   C2B 1210  11.851  -4.142  28.247  0.1094 -0.2575  0.0843
   51BOLB   C3B 1211  11.428  -4.059  28.472 -0.2533 -0.2275 -0.1822
   51BOLB   C4B 1212  11.318  -4.027  28.869  0.1013 -0.1603 -0.0316
   51BOLB   NC2 1213  12.752  -6.994  29.488 -0.2098  0.0400  0.0597
   51BOLB   PO2 1214  12.714  -7.086  29.003 -0.1099  0.0649  0.2239
   51BOLB   GL3 1215  12.909  -6.628  29.137  0.1420 -0.1046 -0.0918
   51BOLB   GL4 1216  12.791  -6.491  29.439  0.2164  0.2269  0.2003
   51BOLB   C1C 1217  12.657  -6.229  28.990 -0.0885  0.0957  0.1716
   51BOLB   C2C 1218  12.732  -5.832  28.924 -0.1285 -0.1775 -0.0207
   51BOLB   C3C 1219  12.532  -5.381  28.850  0.2643 -0.1345 -0.2543
   51BOLB   C4C 1220  12.530  -4.885  28.993  0.1007 -0.2945 -0.0580
   51BOLB   C1D 1221  13.076  -6.177  29.320  0.0265  0.0958  0.4083
   51BOLB   C2D 1222  13.288  -5.922  29.013 -0.4379  0.2143  0.0333
   51BOLB   C3D 1223  13.563  -5.622  29.099  0.3993 -0.1559 -0.2874
   51BOLB   C4D 1224  13.752  -5.341  28.967  0.1389 -0.0937 -0.0032
   52BOLB   NC1 1225  18.005  -3.526  23.495  0.4329  0.3034  0.0110
   52BOLB   PO1 1226  18.000  -3.897  23.372 -0.1140  0.0959 -0.1350
   52BOLB   GL1 1227  18.127  -4.379  23.309  0.1988  0.0494 -0.1696
   52BOLB   GL2 1228  18.468  -4.484  23.259  0.0279  0.2524 -0.2229
   52BOLB   C1A 1229  17.940  -4.802  23.238  0.6361  0.0406  0.0906
   52BOLB   C2A 1230  17.886  -5.083  22.937  0.2853  0.2134 -0.1092
   52BOLB   C3A 1231  17.850  -5.488  22.862 -0.1032  0.0713 -0.4165
   52BOLB   C4A 1232  17.947  -5.909  23.009 -0.1388  0.3068  0.2495
   52BOLB   C1B 1233  18.470  -4.892  23.408 -0.0615  0.1441  0.2737
   52BOLB   C2B 1234  18.250  -5.288  23.399  0.2259 -0.1215 -0.0760
   52BOLB   C3B 1235  17.911  -5.562  23.360  0.2610 -0.0340 -0.1708
   52BOLB   C4B 1236  17.684  -5.814  23.375 -0.1022 -0.1556 -0.1753
   52BOLB   NC2 1237  17.973  -8.522  23.125 -0.1123  0.2622 -0.0683
   52BOLB   PO2 1238  18.250  -8.142  23.155 -0.1703 -0.1459  0.4406
   52BOLB   GL3 1239  18.181  -7.895  22.878 -0.2465 -0.1305  0.0086
   52BOLB   GL4 1240  18.477  -7.692  22.668 -0.4826 -0.1895  0.0427
   52BOLB   C1C 1241  18.017  -7.509  22.711 -0.2688  0.2050 -0.1700
   52BOLB   C2C 1242  17.716  -7.157  22.850  0.0587  0.3916 -0.0161
   52BOLB   C3C 1243  17.658  -6.729  22.825 -0.2890  0.0341 -0.1885
   52BOLB   C4C 1244  17.772  -6.335  23.068 -0.1111 -0.2132  0.0460
   52BOLB   C1D 1245  18.571  -7.224  22.792 -0.2904  0.0820 -0.2526
   52BOLB   C2D 1246  18.161  -6.945  22.966  0.2944  0.0732  0.2703
   52BOLB   C3D 1247  17.819  -6.901  23.339 -0.1577 -0.4232  0.6000
   52BOLB   C4D 1248  17.760  -6.579  23.575 -0.0281  0.1425  0.1162
   53BOLB   NC1 1249  27.808   1.737  30.890  0.2176 -0.1149 -0.1405
   53BOLB   PO1 1250  27.705   2.111  31.052 -0.2970  0.2159 -0.1553
   53BOLB   GL1 1251  27.331   2.188  30.980 -0.2955  0.0530 -0.2225
   53BOLB   GL2 1252  27.028   2.048  31.135  0.2496  0.5929  0.2832
   53BOLB   C1A 1253  27.156   2.226  30.638 -0.0612  0.2150 -0.1363
   53BOLB   C2A 1254  26.788   2.453  30.454  0.1238 -0.0984 -0.2636
   53BOLB   C3A 1255  26.522   2.449  30.235  0.1899 -0.1295 -0.3616
   53BOLB   C4A 1256  26.163   2.768  30.069 -0.0597  0.1180 -0.2403
   53BOLB   C1B 1257  26.585   2.263  31.400  0.0318 -0.1648  0.0183
   53BOLB   C2B 1258  26.406   2.237  31.819  0.1484 -0.2386  0.1942
   53BOLB   C3B 1259  26.437   2.489  32.175  0.0426 -0.0207  0.0060
   53BOLB   C4B 1260  26.446   2.881  32.450 -0.2380 -0.3030 -0.3539
   53BOLB   NC2 1261  23.927   3.610  30.121  0.1033 -0.3019 -0.4156
   53BOLB   PO2 1262  24.182   3.575  29.721  0.0297 -0.0655 -0.1819
   53BOLB   GL3 1263  24.348   3.383  29.968 -0.1186 -0.0728 -0.3860
   53BOLB   GL4 1264  24.383   3.528  30.360 -0.1448 -0.1068 -0.2154
   53BOLB   C1C 1265  24.752   3.059  30.114 -0.2610 -0.1973  0.3008
   53BOLB   C2C 1266  25.066   3.070  29.874  0.1461 -0.6927  0.1037
   53BOLB   C3C 1267  25.519   3.091  29.926 -0.1524  0.0062  0.2155
   53BOLB   C4C 1268  25.849   3.018  30.154  0.0596 -0.1938 -0.2235
   53BOLB   C1D 1269  24.795   3.342  30.559 -0.0611 -0.0704 -0.2283
   53BOLB   C2D 1270  24.973   2.963  30.653  0.1031  0.1936 -0.1725
   53BOLB   C3D 1271  25.133   2.650  30.251  0.1754 -0.0728 -0.0057
   53BOLB   C4D 1272  24.953   2.195  30.255  0.1992  0.0420  0.1993
   54BOLB   NC1 1273  26.043  -6.433  15.641  0.1926 -0.1036 -0.1589
   54BOLB   PO1 1274  25.756  -6.361  15.459 -0.1551 -0.0173  0.3022
   54BOLB   GL1 1275  25.528  -6.137  15.574 -0.1022  0.0697  0.0386
   54BOLB   GL2 1276  25.467  -6.109  15.914  0.1379 -0.1342  0.0856
   54BOLB   C1A 1277  25.158  -5.919  15.531  0.2163 -0.0674  0.2953
   54BOLB   C2A 1278  24.913  -5.567  15.480  0.1125 -0.0716 -0.0672
   54BOLB   C3A 1279  24.538  -5.365  15.322  0.1243 -0.2912 -0.2287
   54BOLB   C4A 1280  24.328  -5.097  14.990  0.0458  0.1582 -0.1512
   54BOLB   C1B 1281  25.151  -5.837  16.001  0.1033 -0.0589 -0.1669
   54BOLB   C2B 1282  24.899  -5.582  16.142  0.1884 -0.2814  0.0794
   54BOLB   C3B 1283  24.592  -5.488  15.842  0.2820 -0.4091  0.1597
   54BOLB   C4B 1284  24.213  -5.264  15.655 -0.0594 -0.1309 -0.2005
   54BOLB   NC2 1285  24.760  -6.075  13.459 -0.0741 -0.0994  0.5515
   54BOLB   PO2 1286  24.659  -5.793  13.111 -0.0165 -0.1908 -0.5054
   54BOLB   GL3 1287  24.583  -5.491  13.397 -0.0664  0.4835  0.0585
   54BOLB   GL4 1288  24.586  -5.564  13.775  0.1133  0.2473 -0.1222
   54BOLB   C1C 1289  24.434  -5.181  13.437 -0.0610  0.0723  0.0642
   54BOLB   C2C 1290  24.222  -4.950  13.803 -0.0886 -0.1191  0.2789
   54BOLB   C3C 1291  24.347  -5.184  14.118  0.1189  0.2458 -0.2925
   54BOLB   C4C 1292  24.441  -5.210  14.579  0.0283 -0.2857  0.2510
   54BOLB   C1D 1293  24.160  -5.585  13.920  0.2839 -0.0885 -0.3220
   54BOLB   C2D 1294  23.873  -5.292  13.791 -0.2162  0.2552 -0.4793
   54BOLB   C3D 1295  23.861  -4.963  14.174 -0.1612 -0.0243 -0.4128
   54BOLB   C4D 1296  23.917  -4.809  14.624 -0.0506  0.1844 -0.4053
   55BOLB   NC1 1297  14.067  14.116  33.429  0.1837  0.1269 -0.0444
   55BOLB   PO1 1298  13.644  13.779  33.434  0.0455  0.0171  0.4495
   55BOLB   GL1 1299  13.908  13.520  33.154  0.1357  0.0336 -0.0765
   55BOLB   GL2 1300  13.933  13.785  32.968 -0.0766  0.0897 -0.1078
   55BOLB   C1A 1301  14.340  13.426  33.058 -0.2517 -0.3115 -0.4405
   55BOLB   C2A 1302  14.718  13.585  32.976  0.0342  0.0172  0.0302
   55BOLB   C3A 1303  15.022  13.670  32.784  0.1668 -0.0451 -0.0328
   55BOLB   C4A 1304  14.957  13.566  32.369  0.0645 -0.2354  0.1949
   55BOLB   C1B 1305  14.148  13.664  32.677  0.0868 -0.0222  0.4171
   55BOLB   C2B 1306  14.499  13.410  32.512  0.5972 -0.0070  0.1777
   55BOLB   C3B 1307  14.833  13.183  32.729 -0.0146  0.0750 -0.3079
   55BOLB   C4B 1308  14.986  12.893  32.912 -0.0461  0.2817  0.0884
   55BOLB   NC2 1309  13.397  13.977  33.007 -0.1170 -0.0725  0.0389
   55BOLB   PO2 1310  13.790  14.238  32.894  0.1489  0.0962  0.3410
   55BOLB   GL3 1311  13.677  13.987  32.570 -0.1454 -0.0280 -0.0910
   55BOLB   GL4 1312  13.869  14.025  32.360 -0.2065 -0.0556  0.1571
   55BOLB   C1C 1313  13.664  13.556  32.559 -0.0887  0.0211 -0.3410
   55BOLB   C2C 1314  13.996  13.223  32.714 -0.0477  0.1395  0.0776
   55BOLB   C3C 1315  14.292  12.974  32.440  0.0680  0.2332 -0.0428
   55BOLB   C4C 1316  14.757  13.137  32.183 -0.0394 -0.0804 -0.1130
   55BOLB   C1D 1317  14.019  13.673  32.168 -0.2402 -0.0595  0.1342
   55BOLB   C2D 1318  14.340  13.336  31.954  0.0708  0.1394 -0.1146
   55BOLB   C3D 1319  14.459  13.019  31.751  0.1762  0.0178  0.4268
   55BOLB   C4D 1320  14.334  12.555  31.744 -0.2391  0.2278  0.1966
   56BOLB   NC1 1321   9.893  -1.208  29.161 -0.0039 -0.4320 -0.4353
   56BOLB   PO1 1322   9.664  -0.859  29.067  0.2423 -0.0330  0.1871
   56BOLB   GL1 1323   9.508  -1.026  29.512  0.1255  0.0085  0.1195
   56BOLB   GL2 1324   9.566  -0.942  29.850 -0.1219 -0.0255 -0.0672
   56BOLB   C1A 1325   9.076  -1.181  29.604  0.0230 -0.2034 -0.0018
   56BOLB   C2A 1326   8.740  -0.989  29.598  0.2289  0.0780  0.2398
   56BOLB   C3A 1327   8.432  -1.030  29.974  0.1162 -0.2900 -0.1135
   56BOLB   C4A 1328   8.197  -1.199  30.367  0.2815  0.1120 -0.4240
   56BOLB   C1B 1329   9.213  -1.192  30.071 -0.3007  0.0056 -0.0429
   56BOLB   C2B 1330   8.928  -1.514  29.891 -0.2500  0.1219  0.0534
   56BOLB   C3B 1331   8.650  -1.496  29.719  0.1458  0.0735 -0.4004
   56BOLB   C4B 1332   8.400  -1.322  29.295  0.1464  0.0330 -0.1226
   56BOLB   NC2 1333   7.211  -1.965  32.046 -0.4518  0.0680 -0.0590
   56BOLB   PO2 1334   7.477  -2.293  32.056 -0.1152 -0.1484  0.2374
   56BOLB   GL3 1335   7.683  -2.074  31.855  0.0346 -0.0251  0.1920
   56BOLB   GL4 1336   7.718  -2.009  31.480  0.2480 -0.0181  0.2125
   56BOLB   C1C 1337   7.934  -1.664  31.790 -0.0653  0.2259  0.1629
   56BOLB   C2C 1338   8.205  -1.760  31.477 -0.1812  0.0743 -0.1877
   56BOLB   C3C 1339   8.294  -1.800  31.109 -0.2796 -0.1785  0.0767
   56BOLB   C4C 1340   8.170  -1.588  30.685  0.1226 -0.0986 -0.0686
   56BOLB   C1D 1341   7.829  -2.060  31.028  0.1346  0.2861 -0.1957
   56BOLB   C2D 1342   7.875  -2.038  30.569 -0.1042  0.1808 -0.0777
   56BOLB   C3D 1343   8.098  -1.862  30.263 -0.0524  0.1725  0.1001
   56BOLB   C4D 1344   8.488  -1.769  30.148  0.3290  0.0031 -0.1013
   57BOLB   NC1 1345  21.227   1.444  18.865  0.1598 -0.0802 -0.0454
   57BOLB   PO1 1346  21.341   1.206  19.222 -0.0715  0.0695 -0.1620
   57BOLB   GL1 1347  21.053   0.975  19.122  0.2567  0.0920  0.2597
   57BOLB   GL2 1348  21.145   0.922  18.836 -0.0316  0.0830  0.0604
   57BOLB   C1A 1349  20.649   0.936  18.913  0.2150  0.1206 -0.0698
   57BOLB   C2A 1350  20.322   1.136  18.679 -0.1626  0.2011 -0.1833
   57BOLB   C3A 1351  19.988   1.237  18.511  0.0609 -0.2633  0.2512
   57BOLB   C4A 1352  19.679   1.042  18.299 -0.1551 -0.0602 -0.0666
   57BOLB   C1B 1353  20.929   0.506  18.790  0.0303 -0.2303  0.2669
   57BOLB   C2B 1354  20.816   0.089  18.751  0.0657  0.1917 -0.1711
   57BOLB   C3B 1355  21.114  -0.104  18.476 -0.1610  0.0722 -0.1051
   57BOLB   C4B 1356  21.337  -0.291  18.292  0.1902  0.0703  0.2572
   57BOLB   NC2 1357  18.489   2.524  18.091 -0.1329 -0.1951  0.0067
   57BOLB   PO2 1358  18.447   2.167  17.944 -0.0891  0.0429 -0.1997
   57BOLB   GL3 1359  18.667   1.806  17.757  0.1051 -0.2095 -0.1272
   57BOLB   GL4 1360  19.060   1.829  17.821 -0.0307  0.2939  0.3277
   57BOLB   C1C 1361  18.782   1.505  17.537 -0.0132 -0.1299 -0.1087
   57BOLB   C2C 1362  18.724   1.232  17.900  0.0236 -0.1335 -0.2436
   57BOLB   C3C 1363  18.974   0.948  17.917  0.1176 -0.1315 -0.1517
   57BOLB   C4C 1364  19.235   1.095  18.205 -0.1651  0.2326 -0.0595
   57BOLB   C1D 1365  19.233   1.407  17.809 -0.0775  0.2172  0.2673
   57BOLB   C2D 1366  19.505   1.039  17.763 -0.0710 -0.0315 -0.0956
   57BOLB   C3D 1367  19.457   0.698  18.044  0.2426  0.0536  0.0006
   57BOLB   C4D 1368  19.599   0.232  17.956 -0.1773  0.0801 -0.0115
   58BOLB   NC1 1369  21.296  -8.898  14.499  0.2889  0.0160  0.2970
   58BOLB   PO1 1370  21.461  -8.667  14.248 -0.1263 -0.1452  0.1317
   58BOLB   GL1 1371  21.507  -8.281  14.322  0.4588  0.1555  0.1338
   58BOLB   GL2 1372  21.219  -8.199  14.119  0.2082  0.3011  0.0162
   58BOLB   C1A 1373  21.683  -7.845  14.225 -0.0675 -0.1644  0.1091
   58BOLB   C2A 1374  21.855  -7.368  14.253 -0.5376 -0.0409 -0.1500
   58BOLB   C3A 1375  21.669  -6.952  14.177  0.1093  0.0387 -0.1296
   58BOLB   C4A 1376  21.338  -6.962  13.928  0.0121 -0.0802  0.0621
   58BOLB   C1B 1377  21.204  -7.924  14.476 -0.1402 -0.0553  0.1388
   58BOLB   C2B 1378  20.997  -7.594  14.581 -0.4430 -0.2050  0.0382
   58BOLB   C3B 1379  20.762  -7.281  14.768 -0.1836 -0.2701 -0.0222
   58BOLB   C4B 1380  20.583  -6.929  15.028 -0.3011  0.0894 -0.2022
   58BOLB   NC2 1381  21.180  -8.876  13.084 -0.1507 -0.1018 -0.0188
   58BOLB   PO2 1382  21.278  -8.599  12.661 -0.3711 -0.0896 -0.1057
   58BOLB   GL3 1383  21.465  -8.143  12.834 -0.2717 -0.0087  0.2612
   58BOLB   GL4 1384  21.723  -8.146  13.036  0.0326 -0.3176 -0.1687
   58BOLB   C1C 1385  21.273  -7.872  13.060  0.0837 -0.1480 -0.2692
   58BOLB   C2C 1386  20.988  -7.470  12.975 -0.0530 -0.1267  0.0056
   58BOLB   C3C 1387  21.132  -7.083  13.094 -0.2123 -0.1382  0.1010
   58BOLB   C4C 1388  21.401  -6.967  13.434 -0.2110  0.1122 -0.0267
   58BOLB   C1D 1389  21.700  -8.045  13.390 -0.2413  0.3457 -0.1593
   58BOLB   C2D 1390  21.980  -7.828  13.668  0.0735  0.1891 -0.0793
   58BOLB   C3D 1391  22.237  -7.688  13.993  0.2915  0.2555  0.2184
   58BOLB   C4D 1392  22.148  -7.812  14.452 -0.0484 -0.1305  0.0845
   59BOLB   NC1 1393  20.056  12.529  33.872  0.1155  0.0005  0.2294
   59BOLB   PO1 1394  20.432  12.484  33.653  0.3258 -0.0977 -0.0734
   59BOLB   GL1 1395  20.324  12.138  33.528 -0.2618  0.0569 -0.1639
   59BOLB   GL2 1396  20.554  11.802  33.601 -0.2306 -0.2096  0.0219
   59BOLB   C1A 1397  20.256  11.886  33.164  0.0760  0.4748 -0.1399
   59BOLB   C2A 1398  20.277  11.602  32.776  0.4617 -0.2147  0.1572
   59BOLB   C3A 1399  20.253  11.581  32.438 -0.2244  0.1190 -0.1390
   59BOLB   C4A 1400  20.381  11.287  32.132  0.0388 -0.2089  0.0539
   59BOLB   C1B 1401  20.599  11.461  33.206 -0.1675 -0.6908  0.0450
   59BOLB   C2B 1402  20.468  11.120  32.869 -0.1245 -0.0608  0.0928
   59BOLB   C3B 1403  20.211  10.927  32.537  0.2373 -0.1266  0.0241
   59BOLB   C4B 1404  19.885  11.013  32.128 -0.3359 -0.1484 -0.0878
   59BOLB   NC2 1405  22.289  12.469  32.901 -0.0629 -0.0699 -0.0038
   59BOLB   PO2 1406  22.097  12.107  32.870 -0.2862 -0.1695 -0.3232
   59BOLB   GL3 1407  21.647  11.948  32.723 -0.0063 -0.2642  0.1532
   59BOLB   GL4 1408  21.193  11.980  32.603  0.1466  0.1855  0.5173
   59BOLB   C1C 1409  21.583  11.904  32.375 -0.0489  0.1756  0.2041
   59BOLB   C2C 1410  21.458  11.681  32.088 -0.3353 -0.2060 -0.1820
   59BOLB   C3C 1411  21.159  11.369  31.914  0.3686  0.1437 -0.0127
   59BOLB   C4C 1412  20.746  11.102  32.000  0.0756  0.0011 -0.2218
   59BOLB   C1D 1413  20.961  11.768  32.245  0.0761  0.2840 -0.1779
   59BOLB   C2D 1414  20.564  11.757  31.995 -0.2219  0.3409  0.0023
   59BOLB   C3D 1415  20.165  11.628  31.893  0.2130 -0.0510 -0.0062
   59BOLB   C4D 1416  19.992  11.233  31.742 -0.1187 -0.3977  0.0385
   60BOLB   NC1 1417   8.716   5.248  30.519 -0.1031 -0.1261 -0.1610
   60BOLB   PO1 1418   8.290   5.201  30.464  0.0218 -0.2539  0.1414
   60BOLB   GL1 1419   7.920   5.345  30.458  0.1547 -0.0818  0.3759
   60BOLB   GL2 1420   7.769   5.150  30.096  0.0073  0.1661 -0.0990
   60BOLB   C1A 1421   7.438   5.425  30.418 -0.0148  0.2152  0.4740
   60BOLB   C2A 1422   7.019   5.590  30.471 -0.1515 -0.0603  0.0839
   60BOLB   C3A 1423   6.952   5.789  30.835 -0.2169  0.2519  0.4581
   60BOLB   C4A 1424   6.858   6.000  31.205  0.0941  0.2090 -0.4479
   60BOLB   C1B 1425   7.266   5.100  29.837  0.1337 -0.3199  0.1472
   60BOLB   C2B 1426   7.007   5.220  30.178 -0.0256 -0.1257 -0.2870
   60BOLB   C3B 1427   6.733   5.167  30.495  0.3763  0.5000  0.0234
   60BOLB   C4B 1428   6.795   4.892  30.863  0.1719  0.0175 -0.4443
   60BOLB   NC2 1429   6.076   6.548  33.828  0.3153  0.0210 -0.0820
   60BOLB   PO2 1430   5.856   6.447  33.540 -0.0231 -0.1758  0.2024
   60BOLB   GL3 1431   6.173   6.439  33.258 -0.2367  0.2819 -0.1322
   60BOLB   GL4 1432   6.448   6.528  33.385  0.0084  0.0139 -0.0519
   60BOLB   C1C 1433   6.373   6.406  32.864  0.1761 -0.1746 -0.2555
   60BOLB   C2C 1434   6.356   6.315  32.337 -0.0658  0.0461 -0.0494
   60BOLB   C3C 1435   6.260   6.203  31.947 -0.1832 -0.1078  0.2631
   60BOLB   C4C 1436   6.428   5.992  31.510 -0.1423 -0.2664 -0.0677
   60BOLB   C1D 1437   6.829   6.682  33.168 -0.2199  0.1467  0.0382
   60BOLB   C2D 1438   7.140   6.563  32.911 -0.0917 -0.4281 -0.2336
   60BOLB   C3D 1439   7.304   6.625  32.527  0.0713  0.3673  0.2343
   60BOLB   C4D 1440   7.537   6.431  32.240 -0.0919  0.1195 -0.1062
   61BOLB   NC1 1441   8.645   8.295  29.629 -0.2494 -0.0578 -0.2191
   61BOLB   PO1 1442   8.934   8.588  29.716  0.0379  0.0094 -0.3187
   61BOLB   GL1 1443   8.715   8.925  29.902 -0.1181  0.3465 -0.1442
   61BOLB   GL2 1444   8.389   8.926  29.946  0.0604  0.3105 -0.3614
   61BOLB   C1A 1445   8.555   9.287  30.191  0.1448 -0.1848 -0.2556
   61BOLB   C2A 1446   8.192   9.463  30.421  0.1161 -0.5667 -0.0589
   61BOLB   C3A 1447   7.932   9.425  30.781  0.0701 -0.0281 -0.1723
   61BOLB   C4A 1448   7.926   9.178  31.156  0.3423 -0.3341  0.0429
   61BOLB   C1B 1449   8.078   8.638  30.027  0.3341 -0.1113 -0.1579
   61BOLB   C2B 1450   7.723   8.772  30.287  0.0141  0.0935 -0.0104
   61BOLB   C3B 1451   7.613   9.173  30.449 -0.1607  0.1170  0.1060
   61BOLB   C4B 1452   7.420   9.379  30.790 -0.4416  0.2668 -0.0769
   61BOLB   NC2 1453   6.993  11.419  31.665 -0.1196 -0.0653 -0.0661
   61BOLB   PO2 1454   6.812  11.057  31.888  0.2944 -0.0995  0.0705
   61BOLB   GL3 1455   7.015  10.754  31.829 -0.2630 -0.1799  0.2511
   61BOLB   GL4 1456   7.347  10.963  31.829  0.3936 -0.3759  0.1694
   61BOLB   C1C 1457   7.387  10.418  31.867 -0.0831 -0.0290  0.1192
   61BOLB   C2C 1458   7.433  10.009  31.943  0.3472  0.2209 -0.0665
   61BOLB   C3C 1459   7.455   9.568  31.772  0.1671 -0.1054 -0.4084
   61BOLB   C4C 1460   7.831   9.357  31.553 -0.1376 -0.1069  0.1639
   61BOLB   C1D 1461   7.602  10.787  31.558  0.3061 -0.0853  0.0706
   61BOLB   C2D 1462   7.909  10.591  31.223  0.1454  0.0864  0.0081
   61BOLB   C3D 1463   8.299  10.323  31.117 -0.0998  0.0960  0.0615
   61BOLB   C4D 1464   8.696  10.245  30.884  0.0002  0.0064 -0.2095
   62BOLB   NC1 1465  28.227   1.781  19.856  0.1620  0.0577  0.1522
   62BOLB   PO1 1466  27.714   1.872  19.694 -0.2252  0.1419  0.0710
   62BOLB   GL1 1467  27.208   1.730  19.704  0.1990  0.2051  0.0171
   62BOLB   GL2 1468  27.016   1.702  19.438  0.3305  0.2420  0.0002
   62BOLB   C1A 1469  27.073   1.349  19.907  0.1239  0.0246  0.2940
   62BOLB   C2A 1470  26.836   0.915  20.028  0.0846 -0.0993  0.0583
   62BOLB   C3A 1471  26.440   0.928  20.105 -0.3334 -0.2031  0.0977
   62BOLB   C4A 1472  26.021   0.931  20.074  0.3077  0.2369 -0.1832
   62BOLB   C1B 1473  26.623   1.348  19.564  0.1377 -0.2345  0.1855
   62BOLB   C2B 1474  26.237   1.304  19.798 -0.1474 -0.0945 -0.1869
   62BOLB   C3B 1475  25.769   1.463  19.812  0.2221 -0.2926  0.3359
   62BOLB   C4B 1476  25.412   1.434  19.719  0.0146 -0.0057  0.0911
   62BOLB   NC2 1477  27.106   0.260  19.311 -0.3976 -0.0349  0.0082
   62BOLB   PO2 1478  27.018   0.111  19.749  0.2041  0.1186  0.1447
   62BOLB   GL3 1479  26.646   0.115  19.708 -0.1441 -0.1999  0.0913
   62BOLB   GL4 1480  26.653  -0.139  20.034  0.1604 -0.5477 -0.2234
   62BOLB   C1C 1481  26.308   0.276  19.459 -0.2310  0.0952  0.4804
   62BOLB   C2C 1482  25.973   0.115  19.578 -0.1417 -0.2454 -0.1565
   62BOLB   C3C 1483  25.761   0.241  19.929 -0.0329  0.1549  0.2766
   62BOLB   C4C 1484  25.645   0.624  20.071 -0.0592  0.1739  0.0709
   62BOLB   C1D 1485  26.191   0.000  20.042 -0.3492 -0.1819  0.0190
   62BOLB   C2D 1486  25.827  -0.022  20.333 -0.3387  0.1165 -0.3026
   62BOLB   C3D 1487  25.587  -0.399  20.466 -0.1691  0.0293  0.0250
   62BOLB   C4D 1488  25.423  -0.481  20.938 -0.0984 -0.0114 -0.0978
   63BOLB   NC1 1489   8.815   0.564  22.622 -0.0282 -0.1076  0.1641
   63BOLB   PO1 1490   8.377   0.255  22.507 -0.1584 -0.3480  0.1871
   63BOLB   GL1 1491   7.957   0.290  22.266  0.0352 -0.0323  0.0778
   63BOLB   GL2 1492   7.885   0.667  22.310  0.1926  0.0920 -0.2642
   63BOLB   C1A 1493   7.532   0.141  22.053 -0.1334  0.2212  0.1339
   63BOLB   C2A 1494   7.159  -0.112  22.189  0.1729 -0.3210  0.0905
   63BOLB   C3A 1495   6.757  -0.344  22.029 -0.0947  0.1150 -0.3606
   63BOLB   C4A 1496   6.404  -0.569  21.875 -0.0405 -0.2499  0.2189
   63BOLB   C1B 1497   7.520   0.630  21.975  0.1185 -0.0304  0.1122
   63BOLB   C2B 1498   7.101   0.307  21.826  0.2904 -0.2194 -0.1474
   63BOLB   C3B 1499   6.707   0.202  21.894  0.0128 -0.1466 -0.0756
   63BOLB   C4B 1500   6.286   0.324  21.815 -0.0996  0.0609  0.1356
   63BOLB   NC2 1501   4.485  -1.863  20.870  0.2318 -0.2598  0.1694
   63BOLB   PO2 1502   4.793  -2.110  21.114  0.1707  0.2712  0.3223
   63BOLB   GL3 1503   5.135  -1.937  21.329 -0.3180  0.0372 -0.3386
   63BOLB   GL4 1504   5.196  -2.273  21.499 -0.0334  0.2947  0.1559
   63BOLB   C1C 1505   5.003  -1.563  21.602 -0.0002  0.2078 -0.1470
   63BOLB   C2C 1506   5.231  -1.127  21.575 -0.5500  0.2795 -0.0339
   63BOLB   C3C 1507   5.614  -1.007  21.791  0.1858  0.1344  0.0299
   63BOLB   C4C 1508   6.110  -0.913  21.654  0.0376 -0.3389  0.0113
   63BOLB   C1D 1509   5.618  -2.052  21.437 -0.0916 -0.4458  0.0228
   63BOLB   C2D 1510   6.097  -1.904  21.444  0.2590  0.2469  0.1547
   63BOLB   C3D 1511   6.398  -1.725  21.191 -0.2892 -0.2700 -0.0443
   63BOLB   C4D 1512   6.703  -1.451  21.080  0.2457  0.1505 -0.0483
   64BOLB   NC1 1513  17.808  -0.279  20.107 -0.0663  0.1390 -0.1392
   64BOLB   PO1 1514  17.514  -0.190  19.694 -0.1373 -0.0017 -0.0278
   64BOLB   GL1 1515  17.703  -0.514  19.629  0.3069 -0.3190  0.2215
   64BOLB   GL2 1516  18.006  -0.415  19.677 -0.3048  0.2572  0.0163
   64BOLB   C1A 1517  17.831  -0.862  19.357 -0.2167  0.2359  0.2678
   64BOLB   C2A 1518  17.617  -1.314  19.235 -0.1084 -0.2517  0.0414
   64BOLB   C3A 1519  17.742  -1.710  19.245 -0.0498 -0.4629  0.1500
   64BOLB   C4A 1520  17.914  -2.118  19.206 -0.2493  0.2003 -0.1729
   64BOLB   C1B 1521  18.313  -0.767  19.547 -0.2401 -0.1309 -0.1395
   64BOLB   C2B 1522  18.368  -1.132  19.377  0.1613  0.5025  0.1140
   64BOLB   C3B 1523  18.112  -1.275  19.070  0.3506  0.1884  0.0337
   64BOLB   C4B 1524  18.113  -1.620  18.755 -0.2943  0.0864 -0.0252
   64BOLB   NC2 1525  18.188  -2.243  20.852  0.0365  0.1463  0.1278
   64BOLB   PO2 1526  17.810  -2.402  20.648 -0.0646 -0.0377  0.0580
   64BOLB   GL3 1527  18.224  -2.604  20.534  0.1423 -0.1141 -0.1058
   64BOLB   GL4 1528  18.454  -2.704  20.719 -0.3971 -0.4313 -0.2004
   64BOLB   C1C 1529  18.482  -2.845  20.216  0.1078 -0.2897 -0.2432
   64BOLB   C2C 1530  18.502  -2.952  19.726 -0.2233  0.0197  0.0790
   64BOLB   C3C 1531  18.512  -2.631  19.443  0.0007  0.0423 -0.0798
   64BOLB   C4C 1532  18.252  -2.268  19.424 -0.0192 -0.3186 -0.0004
   64BOLB   C1D 1533  18.876  -2.918  20.565 -0.0589  0.0915  0.0911
   64BOLB   C2D 1534  18.899  -3.010  20.065  0.1730 -0.0258 -0.0251
   64BOLB   C3D 1535  19.049  -3.248  19.712  0.0678  0.2339 -0.3146
   64BOLB   C4D 1536  19.174  -3.343  19.281 -0.0846 -0.1278  0.0106
   65BOLB   NC1 1537   7.602   2.410  22.875 -0.1607 -0.0578  0.1022
   65BOLB   PO1 1538   7.459   2.273  22.465  0.0752 -0.0129  0.2561
   65BOLB   GL1 1539   7.060   2.314  22.316 -0.2851 -0.1982 -0.1927
   65BOLB   GL2 1540   7.048   2.059  22.489 -0.0709 -0.1885  0.3115
   65BOLB   C1A 1541   6.866   2.334  21.921  0.1619 -0.1363  0.0308
   65BOLB   C2A 1542   6.575   2.258  21.688  0.1579 -0.1714  0.2279
   65BOLB   C3A 1543   6.390   2.266  21.271  0.2310 -0.1187  0.0184
   65BOLB   C4A 1544   6.125   2.254  20.930  0.2102  0.1564 -0.1546
   65BOLB   C1B 1545   6.632   2.045  22.317 -0.1429  0.2308 -0.0464
   65BOLB   C2B 1546   6.363   1.902  22.012  0.1493  0.0677  0.0153
   65BOLB   C3B 1547   6.110   2.012  21.658 -0.2560  0.0299  0.3440
   65BOLB   C4B 1548   5.881   2.149  21.392 -0.1195 -0.0872 -0.3542
   65BOLB   NC2 1549   4.233   2.294  18.994  0.1420 -0.0312 -0.1476
   65BOLB   PO2 1550   4.169   2.038  19.269 -0.0193  0.0142 -0.0667
   65BOLB   GL3 1551   4.491   2.013  19.593  0.3197 -0.1138 -0.1064
   65BOLB   GL4 1552   4.749   2.164  19.386  0.3022  0.2954 -0.0799
   65BOLB   C1C 1553   4.805   1.935  19.936  0.2266 -0.0265  0.2038
   65BOLB   C2C 1554   5.122   2.012  20.238 -0.0880  0.2016  0.1460
   65BOLB   C3C 1555   5.459   1.806  20.422  0.4618  0.0842 -0.2676
   65BOLB   C4C 1556   5.852   1.940  20.624 -0.4873  0.0043  0.3270
   65BOLB   C1D 1557   4.869   2.568  19.613  0.2826 -0.2439 -0.0996
   65BOLB   C2D 1558   4.913   2.934  19.915  0.1148  0.0846  0.2490
   65BOLB   C3D 1559   5.236   3.114  20.301 -0.2953  0.1104  0.0140
   65BOLB   C4D 1560   5.547   3.280  20.195  0.0205 -0.1623 -0.0004
   66BOLB   NC1 1561  17.320   3.375  12.463  0.2543 -0.4552  0.0110
   66BOLB   PO1 1562  17.750   3.419  12.435  0.0254  0.1109  0.0573
   66BOLB   GL1 1563  17.880   3.288  12.714 -0.1439 -0.0405 -0.0402
   66BOLB   GL2 1564  17.602   3.246  12.921  0.1384 -0.0927  0.4388
   66BOLB   C1A 1565  18.015   2.937  12.976  0.0469  0.0090 -0.0015
   66BOLB   C2A 1566  18.009   2.645  13.428 -0.0458 -0.0230  0.0717
   66BOLB   C3A 1567  17.809   2.725  13.816  0.3016  0.0642  0.0146
   66BOLB   C4A 1568  17.850   2.661  14.274 -0.0568  0.1988  0.1346
   66BOLB   C1B 1569  17.797   3.441  13.162  0.0258 -0.1325  0.0537
   66BOLB   C2B 1570  18.003   3.176  13.510 -0.1563 -0.0971 -0.1737
   66BOLB   C3B 1571  17.940   3.203  13.928  0.2424 -0.0572  0.0082
   66BOLB   C4B 1572  18.072   3.068  14.309 -0.0194 -0.1207 -0.0482
   66BOLB   NC2 1573  18.788   0.511  14.361  0.1732 -0.2022 -0.0815
   66BOLB   PO2 1574  18.869   0.843  14.225 -0.1256  0.0535 -0.2146
   66BOLB   GL3 1575  18.791   1.022  14.582  0.2547  0.0904  0.0007
   66BOLB   GL4 1576  18.913   1.104  14.953  0.1281  0.0439 -0.0175
   66BOLB   C1C 1577  18.579   1.393  14.765  0.1098 -0.1207 -0.0854
   66BOLB   C2C 1578  18.155   1.615  14.789  0.0664  0.2767  0.0440
   66BOLB   C3C 1579  18.183   2.022  14.603 -0.2966  0.1270  0.1651
   66BOLB   C4C 1580  17.854   2.267  14.467  0.2088  0.1200 -0.1308
   66BOLB   C1D 1581  18.652   1.250  15.265 -0.0780  0.2248 -0.2481
   66BOLB   C2D 1582  18.528   1.664  15.263 -0.2691 -0.1197  0.0733
   66BOLB   C3D 1583  18.365   1.961  15.084  0.0292 -0.0239  0.0810
   66BOLB   C4D 1584  18.437   2.339  14.879  0.2714  0.3432 -0.0024
   67BOLB   NC1 1585  11.776  -0.486  18.573  0.2495  0.0637  0.3131
   67BOLB   PO1 1586  11.543  -0.688  18.282 -0.1379  0.2138 -0.1262
   67BOLB   GL1 1587  11.188  -0.917  18.245  0.4611 -0.4070  0.1586
   67BOLB   GL2 1588  10.912  -0.737  18.356  0.0338 -0.0288 -0.0429
   67BOLB   C1A 1589  10.833  -1.262  18.048  0.0912 -0.0740  0.1799
   67BOLB   C2A 1590  10.652  -1.642  17.800  0.3020  0.1890 -0.2103
   67BOLB   C3A 1591  10.531  -2.007  17.584 -0.0365 -0.1220  0.0457
   67BOLB   C4A 1592  10.384  -2.395  17.781 -0.1077  0.1700 -0.0025
   67BOLB   C1B 1593  10.718  -0.734  17.932 -0.0751  0.0806 -0.1330
   67BOLB   C2B 1594  10.573  -0.770  17.358  0.1967  0.5498  0.2266
   67BOLB   C3B 1595  10.693  -1.016  16.970 -0.2815  0.0573 -0.1670
   67BOLB   C4B 1596  10.569  -1.313  16.772  0.0458 -0.2901  0.2099
   67BOLB   NC2 1597  10.889  -1.756  19.487 -0.0731  0.0896 -0.1708
   67BOLB   PO2 1598  11.191  -2.091  19.443 -0.1558  0.1770 -0.1254
   67BOLB   GL3 1599  10.980  -2.370  19.089 -0.4182 -0.0915  0.2912
   67BOLB   GL4 1600  11.222  -2.700  18.916 -0.2536  0.1621  0.1386
   67BOLB   C1C 1601  10.584  -2.546  18.925 -0.1176 -0.0222 -0.1703
   67BOLB   C2C 1602  10.233  -2.556  18.794 -0.0643 -0.1201  0.3066
   67BOLB   C3C 1603  10.028  -2.533  18.463  0.1604  0.1125  0.1480
   67BOLB   C4C 1604  10.096  -2.592  18.062  0.1886  0.0026  0.0503
   67BOLB   C1D 1605  11.563  -2.818  18.586  0.0906  0.2964 -0.0257
   67BOLB   C2D 1606  11.534  -3.115  18.205 -0.1538  0.3184  0.1506
   67BOLB   C3D 1607  11.233  -3.399  17.960 -0.1277  0.3173 -0.0059
   67BOLB   C4D 1608  10.980  -3.652  17.814 -0.1926  0.0232 -0.0826
   68BOLB   NC1 1609  19.790   3.918  32.619 -0.1371 -0.1380 -0.0296
   68BOLB   PO1 1610  19.459   3.630  32.693 -0.2181  0.2912  0.5703
   68BOLB   GL1 1611  19.698   3.495  32.950  0.2508 -0.1154 -0.0390
   68BOLB   GL2 1612  19.895   3.134  32.976  0.0071 -0.0034  0.0155
   68BOLB   C1A 1613  19.867   3.558  33.373 -0.2720 -0.0085  0.0701
   68BOLB   C2A 1614  20.175   3.672  33.732  0.0248 -0.1321 -0.0400
   68BOLB   C3A 1615  20.308   3.759  34.145 -0.1855 -0.1333  0.2151
   68BOLB   C4A 1616  20.625   3.779  34.345 -0.0288  0.4485 -0.1089
   68BOLB   C1B 1617  20.207   3.183  33.282 -0.3061  0.1387 -0.0328
   68BOLB   C2B 1618  20.603   3.222  33.292  0.1465 -0.1384  0.1176
   68BOLB   C3B 1619  20.913   3.277  33.719 -0.2921 -0.1300 -0.0823
   68BOLB   C4B 1620  21.297   3.230  33.921  0.1163 -0.3756 -0.4124
   68BOLB   NC2 1621  22.282   3.251  36.851 -0.0324 -0.2677  0.2541
   68BOLB   PO2 1622  22.185   3.033  36.520 -0.2370  0.0357 -0.1261
   68BOLB   GL3 1623  21.900   2.977  36.080 -0.2014 -0.1156  0.0638
   68BOLB   GL4 1624  22.132   2.685  35.874  0.1298  0.0339 -0.0661
   68BOLB   C1C 1625  21.564   3.153  35.748  0.0803  0.0765 -0.3875
   68BOLB   C2C 1626  21.368   3.258  35.306  0.1283 -0.2619 -0.3766
   68BOLB   C3C 1627  21.175   3.606  35.082 -0.0450  0.3601 -0.0847
   68BOLB   C4C 1628  20.914   3.661  34.699 -0.0452  0.1837 -0.0733
   68BOLB   C1D 1629  21.942   2.830  35.547  0.2184 -0.1016  0.1197
   68BOLB   C2D 1630  21.890   2.877  35.141  0.0283 -0.1666 -0.0086
   68BOLB   C3D 1631  21.521   2.931  34.837 -0.1926  0.1994  0.4152
   68BOLB   C4D 1632  21.420   3.001  34.386 -0.1372  0.0498  0.0686
   69BOLB   NC1 1633  22.440   4.572  19.577  0.2420  0.0306  0.2322
   69BOLB   PO1 1634  22.787   4.770  19.296  0.0550 -0.1459 -0.0924
   69BOLB   GL1 1635  23.216   4.710  19.101 -0.1663 -0.0072 -0.2505
   69BOLB   GL2 1636  23.453   5.000  19.242  0.1962  0.1772  0.0855
   69BOLB   C1A 1637  23.611   4.470  18.933  0.0289  0.0665  0.5315
   69BOLB   C2A 1638  23.835   4.315  18.646  0.1796  0.3562 -0.1319
   69BOLB   C3A 1639  24.122   4.073  18.489 -0.2171  0.3589 -0.0912
   69BOLB   C4A 1640  24.597   3.927  18.394 -0.1148 -0.0410  0.0939
   69BOLB   C1B 1641  23.680   5.354  19.069 -0.2660 -0.0317 -0.1058
   69BOLB   C2B 1642  24.040   5.501  19.153  0.3881 -0.3050 -0.3859
   69BOLB   C3B 1643  24.349   5.453  19.248 -0.1398  0.0842  0.3072
   69BOLB   C4B 1644  24.438   5.169  19.531 -0.0828 -0.3476  0.1394
   69BOLB   NC2 1645  26.870   5.857  18.657  0.0711  0.0255 -0.2141
   69BOLB   PO2 1646  26.572   5.574  18.839 -0.3911 -0.0547  0.1444
   69BOLB   GL3 1647  26.344   5.194  18.823  0.0206 -0.0506  0.1349
   69BOLB   GL4 1648  26.504   4.973  19.095  0.1132  0.2427  0.1907
   69BOLB   C1C 1649  25.968   4.993  18.852  0.1064 -0.0116  0.1342
   69BOLB   C2C 1650  25.555   4.731  18.620  0.1795 -0.0152 -0.0678
   69BOLB   C3C 1651  25.385   4.365  18.664  0.1058  0.1385  0.0675
   69BOLB   C4C 1652  25.095   4.019  18.481 -0.0107  0.0218  0.2277
   69BOLB   C1D 1653  26.124   4.782  19.258  0.0034  0.1169  0.0003
   69BOLB   C2D 1654  25.731   4.581  19.379  0.0363  0.2186  0.1465
   69BOLB   C3D 1655  25.263   4.622  19.469  0.2287  0.0802 -0.1227
   69BOLB   C4D 1656  24.833   4.869  19.599  0.1749 -0.1270  0.0898
   70BOLB   NC1 1657  18.335  -3.635  22.233 -0.1541  0.0646 -0.0883
   70BOLB   PO1 1658  18.764  -3.694  22.073 -0.0785  0.1775 -0.0172
   70BOLB   GL1 1659  19.096  -3.989  21.995 -0.1074  0.1635  0.1171
   70BOLB   GL2 1660  19.071  -4.221  22.194 -0.2283  0.2233 -0.0454
   70BOLB   C1A 1661  19.219  -4.342  21.706 -0.2676 -0.2551  0.0387
   70BOLB   C2A 1662  19.302  -4.760  21.676 -0.1739  0.0696 -0.1008
   70BOLB   C3A 1663  19.334  -5.185  21.870  0.2086 -0.2316  0.0281
   70BOLB   C4A 1664  19.588  -5.544  21.777 -0.0933  0.0751  0.0063
   70BOLB   C1B 1665  19.355  -4.453  22.286 -0.2047 -0.3359 -0.0437
   70BOLB   C2B 1666  19.625  -4.772  22.060 -0.1901 -0.0549 -0.2536
   70BOLB   C3B 1667  19.799  -5.139  21.960  0.4065 -0.0689 -0.1381
   70BOLB   C4B 1668  20.098  -5.402  21.729 -0.2308  0.2569 -0.0237
   70BOLB   NC2 1669  20.756  -8.176  21.918 -0.1186 -0.3389  0.1787
   70BOLB   PO2 1670  20.788  -7.888  22.168  0.1786  0.1148  0.0160
   70BOLB   GL3 1671  20.586  -7.518  22.269  0.0531  0.0888  0.0268
   70BOLB   GL4 1672  20.557  -7.473  22.584  0.0329  0.2155  0.1661
   70BOLB   C1C 1673  20.462  -7.110  22.257  0.0805  0.2968 -0.3453
   70BOLB   C2C 1674  20.105  -6.823  22.396  0.2864  0.0680 -0.1225
   70BOLB   C3C 1675  19.829  -6.496  22.359  0.1808  0.0408 -0.0084
   70BOLB   C4C 1676  19.589  -5.995  22.105  0.1000 -0.2917  0.2472
   70BOLB   C1D 1677  20.479  -7.052  22.780  0.3044  0.2381  0.4380
   70BOLB   C2D 1678  20.144  -6.691  22.858 -0.0964 -0.0942 -0.1728
   70BOLB   C3D 1679  20.011  -6.254  22.758  0.2357 -0.3461  0.0079
   70BOLB   C4D 1680  19.673  -5.904  22.601 -0.0738  0.1843  0.1193
   71BOLB   NC1 1681   5.981  13.013  26.004  0.1003  0.2366  0.1849
   71BOLB   PO1 1682   6.096  12.492  26.039 -0.0684 -0.2536  0.2226
   71BOLB   GL1 1683   6.225  12.087  26.061  0.2605  0.2040  0.1388
   71BOLB   GL2 1684   6.095  11.816  25.775 -0.1445 -0.0212 -0.2352
   71BOLB   C1A 1685   6.337  11.646  26.228 -0.0583  0.0885 -0.1789
   71BOLB   C2A 1686   6.552  11.355  26.415  0.1691  0.0245 -0.0180
   71BOLB   C3A 1687   6.496  10.931  26.333 -0.1014 -0.3367 -0.1278
   71BOLB   C4A 1688   6.814  10.592  26.296 -0.2916 -0.0220 -0.2160
   71BOLB   C1B 1689   6.543  11.786  25.711 -0.2914 -0.2009  0.0535
   71BOLB   C2B 1690   6.895  12.044  25.729  0.0160  0.0932  0.1543
   71BOLB   C3B 1691   7.279  12.157  25.596 -0.0794  0.0566 -0.0868
   71BOLB   C4B 1692   7.747  11.915  25.536  0.1525  0.2119 -0.2037
   71BOLB   NC2 1693   8.837   9.370  26.346 -0.4016  0.0157  0.1251
   71BOLB   PO2 1694   8.534   9.256  26.100 -0.0513  0.1475 -0.1405
   71BOLB   GL3 1695   8.087   9.248  26.142 -0.4294  0.2364 -0.1686
   71BOLB   GL4 1696   7.906   8.979  26.306 -0.3183  0.1885  0.2457
   71BOLB   C1C 1697   7.773   9.553  26.216  0.0968  0.2801  0.1056
   71BOLB   C2C 1698   7.399   9.611  26.412  0.1770 -0.0570 -0.0842
   71BOLB   C3C 1699   7.310  10.045  26.615 -0.3521 -0.0143 -0.2253
   71BOLB   C4C 1700   7.058  10.286  26.498 -0.0137 -0.0627 -0.0424
   71BOLB   C1D 1701   7.562   9.141  26.552  0.0165  0.0350 -0.1693
   71BOLB   C2D 1702   7.163   9.386  26.814 -0.0943  0.1616  0.1495
   71BOLB   C3D 1703   6.983   9.618  26.824 -0.0387  0.1168  0.1267
   71BOLB   C4D 1704   6.743   9.985  26.722  0.4125 -0.1409  0.2809
   72BOLB   NC1 1705  16.695   4.531  33.345  0.2533 -0.0106 -0.1967
   72BOLB   PO1 1706  16.528   4.263  33.534  0.2136 -0.1039  0.2038
   72BOLB   GL1 1707  16.655   4.309  33.977 -0.2163  0.0954  0.0026
   72BOLB   GL2 1708  16.576   3.973  34.176 -0.0299  0.0692  0.2107
   72BOLB   C1A 1709  16.564   4.480  34.392  0.2532 -0.0993  0.1981
   72BOLB   C2A 1710  16.674   4.639  34.753 -0.1512 -0.4891 -0.0661
   72BOLB   C3A 1711  16.860   4.564  35.116  0.0420 -0.0396  0.3025
   72BOLB   C4A 1712  17.294   4.588  35.136  0.2104 -0.0825 -0.0114
   72BOLB   C1B 1713  16.568   4.002  34.610  0.2587  0.0772 -0.0949
   72BOLB   C2B 1714  16.499   4.197  34.936  0.4255 -0.0435  0.1676
   72BOLB   C3B 1715  16.630   4.202  35.447 -0.0283 -0.2110 -0.1227
   72BOLB   C4B 1716  16.748   4.094  35.837  0.0850  0.3082 -0.1411
   72BOLB   NC2 1717  17.809   4.017  37.904 -0.0981 -0.1814 -0.0407
   72BOLB   PO2 1718  18.087   4.246  37.649  0.0816 -0.3570  0.0094
   72BOLB   GL3 1719  17.846   4.362  37.361 -0.0374 -0.2271  0.0318
   72BOLB   GL4 1720  17.615   4.539  37.377 -0.4113  0.3588  0.2623
   72BOLB   C1C 1721  17.864   4.676  36.969 -0.1699 -0.1814  0.2406
   72BOLB   C2C 1722  17.809   4.704  36.501  0.3259  0.1827 -0.0385
   72BOLB   C3C 1723  17.758   4.774  36.020  0.0135  0.0647 -0.3321
   72BOLB   C4C 1724  17.702   4.719  35.537  0.1107 -0.3619  0.1033
   72BOLB   C1D 1725  17.379   4.420  36.889 -0.0588 -0.2172  0.0668
   72BOLB   C2D 1726  17.377   4.405  36.488  0.0874 -0.0600  0.2592
   72BOLB   C3D 1727  17.242   4.498  36.043 -0.0281 -0.1602 -0.2999
   72BOLB   C4D 1728  17.165   4.448  35.647  0.1340  0.1104 -0.1306
   73BOLB   NC1 1729  16.701  -9.192  15.215 -0.1793 -0.2456 -0.0047
   73BOLB   PO1 1730  17.157  -9.327  15.309  0.1630  0.1168  0.3856
   73BOLB   GL1 1731  17.239  -8.850  15.254 -0.1089  0.0323 -0.2351
   73BOLB   GL2 1732  16.958  -8.739  15.194  0.0168  0.0974  0.0627
   73BOLB   C1A 1733  17.309  -8.543  15.501 -0.2055  0.1199  0.2160
   73BOLB   C2A 1734  17.269  -8.056  15.722  0.1233 -0.0260 -0.0166
   73BOLB   C3A 1735  17.344  -7.612  15.765 -0.0061 -0.4202  0.2138
   73BOLB   C4A 1736  17.168  -7.317  16.045  0.1289  0.6784  0.1521
   73BOLB   C1B 1737  17.335  -8.518  14.909 -0.2316  0.0515 -0.1498
   73BOLB   C2B 1738  17.664  -8.089  14.942 -0.1830  0.4642 -0.2507
   73BOLB   C3B 1739  17.953  -7.689  14.926 -0.3509 -0.3343  0.1718
   73BOLB   C4B 1740  18.318  -7.567  14.738 -0.0485 -0.1530  0.1517
   73BOLB   NC2 1741  14.805  -8.287  16.664  0.0701  0.2056  0.0339
   73BOLB   PO2 1742  15.292  -8.258  16.581  0.3464  0.2459 -0.3348
   73BOLB   GL3 1743  15.555  -7.823  16.636  0.1003  0.1362 -0.1114
   73BOLB   GL4 1744  15.721  -7.586  16.980  0.2241  0.1328 -0.1463
   73BOLB   C1C 1745  15.868  -7.623  16.406  0.1951 -0.0780  0.3035
   73BOLB   C2C 1746  16.009  -7.453  16.071 -0.1231  0.3843 -0.3109
   73BOLB   C3C 1747  16.408  -7.286  15.936  0.1479 -0.0152 -0.0468
   73BOLB   C4C 1748  16.819  -7.213  15.843 -0.0635 -0.2091 -0.0634
   73BOLB   C1D 1749  15.592  -7.193  17.244  0.1298 -0.0940  0.0313
   73BOLB   C2D 1750  15.430  -6.839  17.428  0.0295  0.1665  0.0454
   73BOLB   C3D 1751  15.705  -6.539  17.658 -0.2755 -0.1430  0.4634
   73BOLB   C4D 1752  15.927  -6.109  17.730  0.0577  0.0665 -0.0636
   74BOLB   NC1 1753  19.694  -7.389  26.739  0.0538  0.2083  0.0808
   74BOLB   PO1 1754  20.134  -7.318  26.820 -0.0168  0.1220  0.1043
   74BOLB   GL1 1755  19.868  -6.905  26.934 -0.3511 -0.0566 -0.0829
   74BOLB   GL2 1756  20.145  -6.746  26.919 -0.1679 -0.1506  0.1318
   74BOLB   C1A 1757  19.674  -6.565  26.895  0.0177  0.0956  0.0216
   74BOLB   C2A 1758  19.378  -6.423  26.968 -0.0471  0.1423  0.1601
   74BOLB   C3A 1759  19.134  -6.282  27.279 -0.2970 -0.1072  0.0114
   74BOLB   C4A 1760  18.705  -6.313  27.354 -0.0922 -0.0429 -0.1408
   74BOLB   C1B 1761  20.127  -6.321  27.030  0.1369  0.1526  0.0858
   74BOLB   C2B 1762  19.978  -5.898  26.990 -0.0514 -0.0321 -0.0851
   74BOLB   C3B 1763  19.883  -5.567  26.682  0.0694  0.0344 -0.1355
   74BOLB   C4B 1764  19.852  -5.404  26.285 -0.0058 -0.0802  0.3401
   74BOLB   NC2 1765  17.186  -8.061  27.254 -0.0551 -0.0625 -0.0767
   74BOLB   PO2 1766  17.525  -7.767  27.381  0.3629 -0.2240  0.1307
   74BOLB   GL3 1767  17.727  -7.422  27.315 -0.1073 -0.0425  0.0006
   74BOLB   GL4 1768  18.041  -7.523  27.031 -0.2108  0.0070  0.1075
   74BOLB   C1C 1769  17.573  -7.026  27.285 -0.0124  0.4282  0.2833
   74BOLB   C2C 1770  17.626  -6.647  27.184  0.0603  0.3120  0.0573
   74BOLB   C3C 1771  17.905  -6.395  27.379 -0.1666 -0.1610  0.0766
   74BOLB   C4C 1772  18.331  -6.243  27.440  0.0499  0.2037 -0.0120
   74BOLB   C1D 1773  18.025  -7.045  26.983  0.1877  0.4609  0.1288
   74BOLB   C2D 1774  17.910  -6.642  26.817  0.2762  0.0465  0.0575
   74BOLB   C3D 1775  17.727  -6.214  26.989  0.2330 -0.0187 -0.2484
   74BOLB   C4D 1776  17.550  -5.771  26.901 -0.0718  0.0510 -0.1202
   75BOLB   NC1 1777  14.971  -1.346  18.169 -0.0713  0.3090  0.1943
   75BOLB   PO1 1778  15.119  -1.215  17.723 -0.0237 -0.2414 -0.1574
   75BOLB   GL1 1779  15.374  -1.238  17.352 -0.0391 -0.2684 -0.0453
   75BOLB   GL2 1780  15.325  -1.408  17.093 -0.0230 -0.2783  0.1368
   75BOLB   C1A 1781  15.906  -1.345  17.316 -0.3999 -0.0129 -0.2160
   75BOLB   C2A 1782  16.297  -1.235  17.098 -0.3296 -0.2266 -0.0127
   75BOLB   C3A 1783  16.711  -1.310  17.322  0.2488  0.1964 -0.5077
   75BOLB   C4A 1784  17.095  -1.050  17.541  0.0173  0.1971  0.0215
   75BOLB   C1B 1785  15.547  -1.647  16.876  0.1978 -0.0724  0.0888
   75BOLB   C2B 1786  15.635  -1.848  16.416  0.0443  0.1585  0.0219
   75BOLB   C3B 1787  15.987  -2.035  16.246  0.0458 -0.0140 -0.2867
   75BOLB   C4B 1788  16.163  -2.065  15.936  0.0764  0.2797  0.0181
   75BOLB   NC2 1789  16.188   0.307  18.206  0.2297 -0.3439 -0.0632
   75BOLB   PO2 1790  16.473   0.086  18.427 -0.1009  0.2213  0.1841
   75BOLB   GL3 1791  16.987  -0.018  18.532 -0.1406  0.0836  0.0117
   75BOLB   GL4 1792  17.047  -0.213  18.801 -0.0682  0.2479 -0.0937
   75BOLB   C1C 1793  17.296  -0.183  18.215 -0.0995 -0.2215  0.2493
   75BOLB   C2C 1794  17.585  -0.236  17.955  0.0345 -0.1136 -0.0908
   75BOLB   C3C 1795  17.651  -0.579  17.685  0.0410 -0.1501 -0.1505
   75BOLB   C4C 1796  17.402  -0.902  17.569  0.0389 -0.0260  0.1175
   75BOLB   C1D 1797  17.372  -0.510  18.602  0.0634 -0.0535  0.2381
   75BOLB   C2D 1798  17.370  -0.648  18.134  0.0300  0.3999 -0.1163
   75BOLB   C3D 1799  17.118  -0.501  17.870  0.0656 -0.0640  0.0183
   75BOLB   C4D 1800  16.997  -0.569  17.482 -0.0851  0.1856 -0.1597
   76BOLB   NC1 1801  19.504   6.311  17.404  0.2496  0.0581  0.0687
   76BOLB   PO1 1802  19.971   6.215  17.259 -0.0639 -0.1135 -0.0705
   76BOLB   GL1 1803  19.821   6.627  17.025 -0.0056 -0.1568 -0.0402
   76BOLB   GL2 1804  19.435   6.650  17.036  0.2283 -0.0354  0.2102
   76BOLB   C1A 1805  19.685   6.508  16.572 -0.2005 -0.2979  0.0527
   76BOLB   C2A 1806  19.684   6.827  16.229  0.2348  0.4548  0.0245
   76BOLB   C3A 1807  19.671   7.359  16.055 -0.0404  0.1749 -0.1026
   76BOLB   C4A 1808  19.365   7.664  15.939 -0.2469 -0.0924  0.0834
   76BOLB   C1B 1809  19.230   6.797  16.631 -0.2250  0.1892  0.0084
   76BOLB   C2B 1810  19.166   6.640  16.264  0.2113  0.2219  0.2447
   76BOLB   C3B 1811  19.001   6.427  15.763  0.4203 -0.3393 -0.0892
   76BOLB   C4B 1812  18.944   6.250  15.400  0.0516 -0.0855 -0.0429
   76BOLB   NC2 1813  18.190   6.723  17.850  0.1667  0.1142 -0.0794
   76BOLB   PO2 1814  18.534   7.013  17.539 -0.2209 -0.1736  0.0825
   76BOLB   GL3 1815  18.757   7.296  17.221  0.1202 -0.0488 -0.0479
   76BOLB   GL4 1816  19.082   7.277  17.295 -0.1516  0.1389  0.2432
   76BOLB   C1C 1817  18.940   7.423  16.741  0.4124  0.3730  0.2628
   76BOLB   C2C 1818  18.983   7.603  16.290  0.1220  0.2754  0.0207
   76BOLB   C3C 1819  18.847   7.664  15.914  0.0356  0.2195  0.0142
   76BOLB   C4C 1820  19.160   7.670  15.602 -0.0459 -0.0873 -0.1014
   76BOLB   C1D 1821  19.358   7.543  17.044 -0.1394 -0.0894  0.1195
   76BOLB   C2D 1822  19.466   7.474  16.504  0.3118 -0.2685 -0.2255
   76BOLB   C3D 1823  19.892   7.763  16.217  0.0604  0.1701  0.2203
   76BOLB   C4D 1824  20.302   8.013  16.119 -0.1887  0.0499  0.1969
   77BOLB   NC1 1825  28.708   0.430  25.621 -0.0982  0.1518  0.2762
   77BOLB   PO1 1826  28.504   0.030  25.668  0.2429 -0.2602 -0.1457
   77BOLB   GL1 1827  28.096   0.236  25.603 -0.0114 -0.2573  0.4238
   77BOLB   GL2 1828  28.169   0.496  25.809 -0.0626 -0.2379 -0.5002
   77BOLB   C1A 1829  27.660   0.198  25.849 -0.2759 -0.0116 -0.6570
   77BOLB   C2A 1830  27.214   0.311  25.909 -0.1932  0.1631  0.0688
   77BOLB   C3A 1831  26.832   0.083  25.930  0.0374  0.0385  0.0393
   77BOLB   C4A 1832  26.461  -0.310  25.856  0.0382 -0.1949 -0.1210
   77BOLB   C1B 1833  27.753   0.602  25.543 -0.2744  0.4911  0.3016
   77BOLB   C2B 1834  27.504   0.847  25.231 -0.1587 -0.0468  0.3388
   77BOLB   C3B 1835  27.306   1.148  25.096  0.1767  0.0076 -0.1080
   77BOLB   C4B 1836  26.776   1.272  25.100  0.2379  0.0729 -0.0543
   77BOLB   NC2 1837  27.817  -1.911  26.248 -0.0421  0.0364  0.1112
   77BOLB   PO2 1838  27.556  -1.855  26.218  0.0470  0.2079 -0.2735
   77BOLB   GL3 1839  27.201  -1.808  26.400  0.2126  0.2151  0.0733
   77BOLB   GL4 1840  26.969  -1.974  26.297  0.0165 -0.3466 -0.0700
   77BOLB   C1C 1841  26.922  -1.445  26.427 -0.4634 -0.0138 -0.0911
   77BOLB   C2C 1842  26.594  -1.161  26.323  0.0252  0.1865  0.1138
   77BOLB   C3C 1843  26.360  -0.883  26.002 -0.2657  0.1790 -0.1243
   77BOLB   C4C 1844  26.221  -0.579  26.153  0.0493 -0.1058  0.3982
   77BOLB   C1D 1845  26.600  -1.783  26.087 -0.1566  0.3758  0.1934
   77BOLB   C2D 1846  26.287  -1.494  26.122 -0.2332  0.1611 -0.0734
   77BOLB   C3D 1847  25.850  -1.513  26.011  0.0725 -0.2490 -0.0519
   77BOLB   C4D 1848  25.614  -1.547  25.696  0.2374  0.0607  0.1965
   78BOLB   NC1 1849  14.969  -8.769  25.585  0.1208  0.0792  0.0063
   78BOLB   PO1 1850  15.272  -8.639  25.844 -0.0072 -0.1169 -0.1145
   78BOLB   GL1 1851  15.011  -8.321  25.788 -0.0093  0.0719  0.1134
   78BOLB   GL2 1852  15.286  -8.120  25.636  0.3541  0.0058 -0.1649
   78BOLB   C1A 1853  14.851  -7.829  25.680  0.2263  0.1024 -0.1799
   78BOLB   C2A 1854  15.104  -7.463  25.606  0.2502 -0.0976 -0.1134
   78BOLB   C3A 1855  15.216  -7.187  25.364  0.1065 -0.1583 -0.1328
   78BOLB   C4A 1856  15.454  -6.908  25.081  0.3213 -0.1193 -0.1945
   78BOLB   C1B 1857  15.213  -7.976  25.349  0.4246 -0.0669 -0.2368
   78BOLB   C2B 1858  14.910  -7.617  25.188  0.0710 -0.0007  0.2735
   78BOLB   C3B 1859  14.642  -7.420  25.315 -0.0873  0.0219  0.2070
   78BOLB   C4B 1860  14.690  -7.173  25.688  0.1952  0.2541 -0.1147
   78BOLB   NC2 1861  16.607  -8.610  24.104  0.0294 -0.0041  0.0413
   78BOLB   PO2 1862  16.715  -8.484  24.597  0.0388  0.0941 -0.1150
   78BOLB   GL3 1863  16.489  -8.071  24.528  0.0140 -0.2035  0.2267
   78BOLB   GL4 1864  16.211  -8.096  24.759  0.1007 -0.1958 -0.1178
   78BOLB   C1C 1865  16.363  -7.697  24.457 -0.1431  0.2233  0.1815
   78BOLB   C2C 1866  16.349  -7.321  24.545  0.0534  0.0269  0.0049
   78BOLB   C3C 1867  16.197  -6.952  24.766 -0.0206 -0.1567  0.1635
   78BOLB   C4C 1868  15.788  -6.759  24.775  0.1239  0.1805  0.1370
   78BOLB   C1D 1869  15.942  -7.805  24.883  0.1042 -0.1367 -0.0337
   78BOLB   C2D 1870  15.898  -7.322  24.886  0.0789 -0.0968 -0.0076
   78BOLB   C3D 1871  15.580  -7.178  24.637 -0.0378  0.2377  0.0825
   78BOLB   C4D 1872  15.236  -6.939  24.630 -0.1138  0.2177  0.2454
   79BOLB   NC1 1873   3.568   0.124  22.913 -0.1327  0.2387  0.7105
   79BOLB   PO1 1874   3.444  -0.115  22.568 -0.1258  0.0017  0.0644
   79BOLB   GL1 1875   3.932  -0.053  22.554 -0.1241  0.1493 -0.1629
   79BOLB   GL2 1876   4.015  -0.029  22.323  0.0471  0.4506 -0.1229
   79BOLB   C1A 1877   4.191   0.048  22.852  0.0511  0.1039 -0.1577
   79BOLB   C2A 1878   4.455   0.005  23.246 -0.0421 -0.0046 -0.4845
   79BOLB   C3A 1879   4.471   0.012  23.609  0.3417 -0.2247  0.0883
   79BOLB   C4A 1880   4.409   0.329  23.962  0.1820 -0.1886  0.2303
   79BOLB   C1B 1881   4.429  -0.195  22.150 -0.1071  0.0131  0.1176
   79BOLB   C2B 1882   4.877  -0.028  22.277 -0.3350 -0.1951 -0.1155
   79BOLB   C3B 1883   5.372  -0.070  22.377 -0.1378 -0.0139 -0.2794
   79BOLB   C4B 1884   5.598  -0.339  22.446  0.0622 -0.1050  0.4045
   79BOLB   NC2 1885   3.765  -0.879  24.525  0.1839  0.4133 -0.0920
   79BOLB   PO2 1886   3.418  -0.494  24.349 -0.0600  0.0960  0.0136
   79BOLB   GL3 1887   3.708  -0.344  24.561  0.3511  0.0247 -0.3224
   79BOLB   GL4 1888   3.997  -0.268  24.509 -0.0867 -0.2652 -0.2110
   79BOLB   C1C 1889   3.980  -0.393  25.042 -0.0026  0.1450 -0.2426
   79BOLB   C2C 1890   4.372  -0.303  25.025 -0.0516 -0.3308  0.2253
   79BOLB   C3C 1891   4.476   0.023  24.681 -0.3338 -0.0056 -0.1989
   79BOLB   C4C 1892   4.622   0.279  24.371  0.2407  0.2567  0.1062
   79BOLB   C1D 1893   3.980   0.046  24.858  0.3607  0.1161  0.1791
   79BOLB   C2D 1894   3.913   0.419  25.094  0.3436 -0.0759  0.1728
   79BOLB   C3D 1895   3.901   0.851  24.998 -0.4465  0.1328 -0.2960
   79BOLB   C4D 1896   3.845   1.209  24.830 -0.2120  0.1229 -0.2198
   80BOLB   NC1 1897  17.869  15.667  22.684  0.0427  0.2155 -0.0069
   80BOLB   PO1 1898  17.818  15.984  22.996 -0.0897 -0.1527  0.1016
   80BOLB   GL1 1899  17.537  15.539  23.128  0.2763 -0.0942  0.0271
   80BOLB   GL2 1900  17.387  15.629  23.535 -0.1580 -0.4917 -0.1079
   80BOLB   C1A 1901  17.335  15.178  23.289 -0.2170  0.1023 -0.1688
   80BOLB   C2A 1902  17.062  14.852  23.516  0.0702  0.0835  0.2554
   80BOLB   C3A 1903  16.933  14.469  23.590  0.3122 -0.4550  0.0792
   80BOLB   C4A 1904  16.748  14.086  23.411  0.2016  0.3495  0.0769
   80BOLB   C1B 1905  17.691  15.312  23.620 -0.2034  0.1693 -0.0513
   80BOLB   C2B 1906  17.998  15.136  23.881 -0.0387  0.0450  0.3707
   80BOLB   C3B 1907  18.449  15.118  23.960  0.1472  0.0407  0.0634
   80BOLB   C4B 1908  18.816  15.211  24.082 -0.1780  0.1298  0.7006
   80BOLB   NC2 1909  17.383  11.719  23.105 -0.0317  0.1278  0.3001
   80BOLB   PO2 1910  17.222  11.976  23.333  0.3466  0.1291 -0.0909
   80BOLB   GL3 1911  17.085  12.326  23.134  0.0475  0.0119 -0.1004
   80BOLB   GL4 1912  17.272  12.597  22.938  0.3371 -0.1535 -0.0015
   80BOLB   C1C 1913  16.843  12.809  23.135  0.0809  0.2319  0.1205
   80BOLB   C2C 1914  16.531  13.026  23.430 -0.0040  0.0245  0.0800
   80BOLB   C3C 1915  16.407  13.407  23.527  0.1436  0.0655  0.0882
   80BOLB   C4C 1916  16.585  13.700  23.521 -0.1213  0.0270  0.0435
   80BOLB   C1D 1917  17.303  12.768  22.552  0.1606  0.1546  0.1450
   80BOLB   C2D 1918  17.422  13.054  22.189  0.1101  0.0569 -0.0626
   80BOLB   C3D 1919  17.672  13.401  22.191  0.1503  0.1035  0.0576
   80BOLB   C4D 1920  17.982  13.636  21.987 -0.1707  0.0781  0.3097
   81BOLB   NC1 1921  18.186  -3.591  20.703 -0.0579 -0.1080 -0.1274
   81BOLB   PO1 1922  18.426  -3.263  20.961 -0.0521  0.1540  0.0752
   81BOLB   GL1 1923  18.838  -3.476  20.708  0.0702  0.0112 -0.2426
   81BOLB   GL2 1924  19.164  -3.236  20.745  0.1357 -0.1552  0.1190
   81BOLB   C1A 1925  18.987  -3.788  20.338 -0.1737 -0.2983  0.0736
   81BOLB   C2A 1926  18.917  -4.044  19.918  0.0647  0.1768  0.3696
   81BOLB   C3A 1927  18.987  -4.327  19.585  0.0536 -0.1826  0.2466
   81BOLB   C4A 1928  18.687  -4.405  19.160 -0.1014  0.1623  0.0667
   81BOLB   C1B 1929  19.180  -3.295  20.303  0.2340  0.2120 -0.2474
   81BOLB   C2B 1930  19.390  -3.609  20.058 -0.1697  0.0231  0.3881
   81BOLB   C3B 1931  19.835  -3.759  19.945  0.1088  0.2293  0.1748
   81BOLB   C4B 1932  19.985  -4.197  19.920  0.0145  0.1269  0.3243
   81BOLB   NC2 1933  16.631  -3.493  19.797  0.0450 -0.2728  0.0479
   81BOLB   PO2 1934  16.319  -3.781  19.597  0.0775 -0.0856  0.0729
   81BOLB   GL3 1935  16.708  -3.926  19.540 -0.4039 -0.0105 -0.0482
   81BOLB   GL4 1936  16.943  -3.731  19.422  0.1046 -0.1569  0.1573
   81BOLB   C1C 1937  17.031  -4.198  19.249  0.1048  0.1675 -0.0691
   81BOLB   C2C 1938  17.488  -4.104  19.029 -0.2154  0.4600  0.2702
   81BOLB   C3C 1939  17.935  -4.180  18.903 -0.1341 -0.3115 -0.1707
   81BOLB   C4C 1940  18.280  -4.329  19.144  0.0234 -0.2620 -0.0714
   81BOLB   C1D 1941  17.215  -3.727  19.046 -0.0539  0.0110  0.0087
   81BOLB   C2D 1942  17.604  -3.594  18.873 -0.0141 -0.2301  0.5304
   81BOLB   C3D 1943  18.049  -3.687  18.795  0.0052 -0.2608 -0.1186
   81BOLB   C4D 1944  18.372  -3.512  18.695  0.3650  0.1663  0.1836
   82BOLB   NC1 1945  12.177   5.721  18.273 -0.0020  0.0304  0.1853
   82BOLB   PO1 1946  12.230   6.127  18.279 -0.1642 -0.0740 -0.1357
   82BOLB   GL1 1947  11.806   6.083  18.168  0.0724  0.1400  0.1853
   82BOLB   GL2 1948  11.685   5.781  17.925  0.1215  0.0023 -0.1307
   82BOLB   C1A 1949  11.549   6.207  17.840  0.0705  0.4650 -0.1780
   82BOLB   C2A 1950  11.613   6.224  17.305  0.1931  0.1114  0.2242
   82BOLB   C3A 1951  11.521   6.554  17.033 -0.2433 -0.2078 -0.0392
   82BOLB   C4A 1952  11.381   6.817  16.690 -0.1745 -0.0131  0.2268
   82BOLB   C1B 1953  11.429   5.820  17.547 -0.1578 -0.2365 -0.1066
   82BOLB   C2B 1954  11.303   5.522  17.182 -0.0806 -0.0385  0.1747
   82BOLB   C3B 1955  11.363   5.545  16.753  0.2055 -0.1285 -0.1485
   82BOLB   C4B 1956  11.135   5.751  16.382 -0.0730  0.3038  0.1629
   82BOLB   NC2 1957  10.735   7.853  14.714 -0.0167  0.0414  0.0204
   82BOLB   PO2 1958  10.419   7.912  14.985 -0.1500 -0.3674  0.0094
   82BOLB   GL3 1959  10.642   7.741  15.288 -0.2020  0.3177 -0.2445
   82BOLB   GL4 1960  10.462   7.586  15.608 -0.1891  0.0122  0.2779
   82BOLB   C1C 1961  10.984   7.691  15.496  0.0690  0.3033 -0.0468
   82BOLB   C2C 1962  11.164   7.394  15.663  0.0591 -0.2836  0.3682
   82BOLB   C3C 1963  11.229   7.120  15.806 -0.2689 -0.0504  0.1369
   82BOLB   C4C 1964  11.363   7.033  16.315  0.2651 -0.0414  0.6396
   82BOLB   C1D 1965  10.596   7.235  15.875  0.2712  0.1381  0.0842
   82BOLB   C2D 1966  10.892   7.012  16.162 -0.1940 -0.3069 -0.2047
   82BOLB   C3D 1967  11.134   6.642  16.144 -0.0337  0.2105 -0.0394
   82BOLB   C4D 1968  11.549   6.548  16.141 -0.0902 -0.4519 -0.2596
   83BOLB   NC1 1969  23.969   5.464  25.177  0.0615 -0.1422 -0.0761
   83BOLB   PO1 1970  24.372   5.568  25.247  0.1405 -0.0721 -0.0523
   83BOLB   GL1 1971  24.783   5.718  25.035  0.2264  0.1095  0.0524
   83BOLB   GL2 1972  24.970   5.659  25.154  0.1369  0.1499 -0.0125
   83BOLB   C1A 1973  25.049   5.827  24.606 -0.0175 -0.0832  0.3140
   83BOLB   C2A 1974  25.434   5.864  24.411  0.4246  0.3057  0.4641
   83BOLB   C3A 1975  25.791   6.073  24.204  0.0595 -0.0127  0.2001
   83BOLB   C4A 1976  26.004   6.199  23.779  0.2112  0.1519  0.0319
   83BOLB   C1B 1977  25.361   5.669  24.958  0.0068 -0.0205 -0.4272
   83BOLB   C2B 1978  25.714   5.633  24.941 -0.2443 -0.2787  0.2569
   83BOLB   C3B 1979  26.111   5.401  25.077  0.2732 -0.1742 -0.0147
   83BOLB   C4B 1980  26.376   5.123  25.041 -0.0628 -0.1091  0.1059
   83BOLB   NC2 1981  27.930   7.884  22.763  0.0865  0.0777  0.1502
   83BOLB   PO2 1982  27.704   7.777  23.050  0.0321 -0.0538  0.0959
   83BOLB   GL3 1983  27.436   7.503  23.004  0.0758 -0.0387  0.2653
   83BOLB   GL4 1984  27.445   7.140  23.086 -0.0789  0.0538  0.0091
   83BOLB   C1C 1985  26.999   7.380  23.088 -0.2625  0.0559  0.3069
   83BOLB   C2C 1986  26.837   7.008  23.353  0.0941 -0.0630  0.2023
   83BOLB   C3C 1987  26.465   6.734  23.387  0.5093  0.1268  0.0998
   83BOLB   C4C 1988  26.234   6.417  23.482  0.3139 -0.2497 -0.1356
   83BOLB   C1D 1989  27.324   7.097  23.521 -0.0843 -0.1749  0.1982
   83BOLB   C2D 1990  27.016   6.681  23.690  0.3023  0.2936  0.1102
   83BOLB   C3D 1991  26.658   6.577  23.929 -0.1030 -0.4103  0.0540
   83BOLB   C4D 1992  26.264   6.425  24.191 -0.0775 -0.0038  0.0681
   84BOLB   NC1 1993   8.389  14.859  29.167 -0.2502  0.0161 -0.0972
   84BOLB   PO1 1994   8.336  14.399  28.942 -0.2609 -0.2391  0.1897
   84BOLB   GL1 1995   8.653  14.131  29.004 -0.0420  0.1714  0.2037
   84BOLB   GL2 1996   8.961  14.235  28.898 -0.3348 -0.2136 -0.3420
   84BOLB   C1A 1997   8.548  13.655  29.141 -0.4217 -0.5686  0.2067
   84BOLB   C2A 1998   8.689  13.336  29.009  0.2747  0.2787  0.0544
   84BOLB   C3A 1999   8.829  13.081  28.627  0.2398 -0.4998 -0.0040
   84BOLB   C4A 2000   8.962  13.078  28.113  0.1021 -0.1935 -0.2093
   84BOLB   C1B 2001   9.401  13.974  28.799 -0.0083 -0.4880 -0.1213
   84BOLB   C2B 2002   9.668  13.846  28.462  0.0459  0.0534  0.1308
   84BOLB   C3B 2003  10.069  13.573  28.545 -0.2263 -0.0348 -0.1818
   84BOLB   C4B 2004  10.371  13.487  28.808  0.0892  0.0605  0.1588
   84BOLB   NC2 2005   8.336  14.973  27.238 -0.1400  0.3281 -0.1038
   84BOLB   PO2 2006   8.476  15.119  27.675 -0.3604 -0.3984 -0.2259
   84BOLB   GL3 2007   8.701  14.792  27.981 -0.3659 -0.0109  0.1858
   84BOLB   GL4 2008   8.793  14.831  28.253  0.1415  0.0668  0.1232
   84BOLB   C1C 2009   8.558  14.403  27.998 -0.1065 -0.3050 -0.0354
   84BOLB   C2C 2010   8.388  13.892  27.852 -0.1935  0.1288 -0.1007
   84BOLB   C3C 2011   8.443  13.475  27.679  0.1563 -0.1500  0.0758
   84BOLB   C4C 2012   8.801  13.186  27.730 -0.1252 -0.0719  0.2954
   84BOLB   C1D 2013   8.845  14.489  28.442 -0.1383  0.0856 -0.1775
   84BOLB   C2D 2014   9.022  13.997  28.469  0.2250  0.0306  0.4472
   84BOLB   C3D 2015   9.212  13.608  28.330  0.0620  0.1649 -0.0044
   84BOLB   C4D 2016   9.205  13.455  27.905  0.5794 -0.1230  0.2060
   85BOLB   NC1 2017  13.367  -2.863  27.986  0.3134 -0.0935 -0.1136
   85BOLB   PO1 2018  13.662  -2.852  28.403  0.1330 -0.0844 -0.2432
   85BOLB   GL1 2019  13.489  -3.134  28.710  0.2016  0.0476 -0.0397
   85BOLB   GL2 2020  13.781  -3.443  28.803 -0.3624 -0.0294 -0.2152
   85BOLB   C1A 2021  13.336  -3.423  28.996 -0.1046  0.1276 -0.1570
   85BOLB   C2A 2022  13.332  -3.740  29.324  0.2977  0.0867 -0.1210
   85BOLB   C3A 2023  13.212  -4.018  29.679  0.0141  0.2031 -0.3726
   85BOLB   C4A 2024  13.321  -4.473  29.821  0.1832  0.2667 -0.1561
   85BOLB   C1B 2025  13.782  -3.688  29.038  0.1106  0.3328  0.0321
   85BOLB   C2B 2026  13.920  -4.038  29.219  0.0329 -0.2335 -0.0332
   85BOLB   C3B 2027  13.998  -4.488  29.167 -0.1203 -0.0393  0.0554
   85BOLB   C4B 2028  13.884  -4.812  29.056 -0.1365  0.0063  0.1130
   85BOLB   NC2 2029  12.198  -6.366  30.292  0.2705 -0.0230 -0.3870
   85BOLB   PO2 2030  12.600  -6.569  30.159 -0.0765  0.0660  0.0645
   85BOLB   GL3 2031  12.647  -6.180  30.361 -0.1170  0.1513 -0.3817
   85BOLB   GL4 2032  12.421  -5.911  30.351 -0.0273 -0.1407  0.3942
   85BOLB   C1C 2033  12.893  -5.809  30.631 -0.2045  0.3040  0.2220
   85BOLB   C2C 2034  13.340  -5.520  30.683 -0.2797  0.0988 -0.1544
   85BOLB   C3C 2035  13.376  -5.103  30.456  0.1793 -0.2356 -0.0369
   85BOLB   C4C 2036  13.194  -4.737  30.142  0.2459 -0.0402 -0.3469
   85BOLB   C1D 2037  12.625  -5.700  30.017  0.3573  0.0196 -0.3816
   85BOLB   C2D 2038  12.739  -5.402  29.610  0.3487  0.3295  0.0106
   85BOLB   C3D 2039  12.943  -5.113  29.428 -0.2487  0.0888  0.0882
   85BOLB   C4D 2040  13.099  -4.709  29.303  0.0782  0.0158 -0.2383
   86BOLB   NC1 2041  19.013   6.780  17.505  0.0976  0.1988 -0.0832
   86BOLB   PO1 2042  19.000   6.364  17.286 -0.3184  0.1981  0.2044
   86BOLB   GL1 2043  19.062   6.295  16.767  0.1425 -0.2464  0.4884
   86BOLB   GL2 2044  18.842   6.463  16.660  0.1065  0.1276 -0.0207
   86BOLB   C1A 2045  19.340   6.206  16.431 -0.2133 -0.0628  0.1353
   86BOLB   C2A 2046  19.586   6.405  16.065  0.0125 -0.0167  0.3739
   86BOLB   C3A 2047  19.499   6.684  15.758  0.4421  0.0727  0.2157
   86BOLB   C4A 2048  19.380   6.655  15.435 -0.2947  0.3531 -0.1093
   86BOLB   C1B 2049  18.711   6.800  16.423 -0.0471  0.0165  0.1137
   86BOLB   C2B 2050  18.954   7.112  16.235  0.0932 -0.0593 -0.2941
   86BOLB   C3B 2051  19.180   7.080  15.913  0.0921  0.2286  0.0495
   86BOLB   C4B 2052  19.418   7.218  15.613  0.0603 -0.2563  0.1008
   86BOLB   NC2 2053  20.720   6.698  12.913 -0.1592 -0.1270  0.0872
   86BOLB   PO2 2054  20.715   6.801  13.361 -0.1152  0.2167 -0.2076
   86BOLB   GL3 2055  20.470   6.632  13.695 -0.0328  0.1114  0.1846
   86BOLB   GL4 2056  20.516   6.736  13.980  0.1180 -0.0207 -0.4354
   86BOLB   C1C 2057  20.117   6.511  14.019 -0.0730 -0.0402  0.0287
   86BOLB   C2C 2058  19.832   6.260  14.381  0.0161 -0.2350 -0.0288
   86BOLB   C3C 2059  19.469   6.474  14.650 -0.1669 -0.0681 -0.5587
   86BOLB   C4C 2060  19.322   6.379  15.063 -0.2850 -0.1105  0.1792
   86BOLB   C1D 2061  20.439   7.051  14.287  0.0307  0.1261  0.0584
   86BOLB   C2D 2062  20.679   7.394  14.627  0.1515  0.1508  0.1913
   86BOLB   C3D 2063  20.607   7.524  15.023  0.3955  0.3457 -0.2730
   86BOLB   C4D 2064  20.251   7.468  15.376  0.0341 -0.1720  0.1284
   87BOLB   NC1 2065  21.383   5.446  32.346 -0.0457  0.0846 -0.0143
   87BOLB   PO1 2066  21.384   5.027  32.464  0.3114 -0.4475 -0.3502
   87BOLB   GL1 2067  21.528   5.023  32.840  0.0755 -0.2256 -0.3123
   87BOLB   GL2 2068  21.498   5.297  32.886 -0.0326 -0.0593 -0.1282
   87BOLB   C1A 2069  21.587   4.809  33.220  0.0203  0.0511 -0.2027
   87BOLB   C2A 2070  21.859   4.561  33.487 -0.1156  0.1047  0.1028
   87BOLB   C3A 2071  22.172   4.419  33.711 -0.3587  0.2080 -0.2018
   87BOLB   C4A 2072  22.367   4.131  33.638 -0.3088 -0.2152  0.0897
   87BOLB   C1B 2073  21.386   5.562  33.303  0.0996  0.0417 -0.1748
   87BOLB   C2B 2074  21.499   5.870  33.575 -0.0406 -0.2671  0.2232
   87BOLB   C3B 2075  21.751   5.987  33.916  0.3745 -0.0403 -0.1240
   87BOLB   C4B 2076  22.100   5.958  34.208 -0.1515  0.0690  0.1688
   87BOLB   NC2 2077  24.090   4.201  35.461 -0.0893 -0.0468  0.0788
   87BOLB   PO2 2078  23.893   3.871  35.498 -0.1576  0.2654 -0.0209
   87BOLB   GL3 2079  23.528   3.726  35.109  0.0016  0.2413 -0.2855
   87BOLB   GL4 2080  23.209   3.834  35.108  0.3595 -0.0911 -0.0056
   87BOLB   C1C 2081  23.480   3.625  34.593 -0.0612  0.4092  0.1590
   87BOLB   C2C 2082  23.191   3.626  34.281  0.3011  0.0567 -0.1969
   87BOLB   C3C 2083  22.875   3.674  34.029  0.3114 -0.0138 -0.0167
   87BOLB   C4C 2084  22.455   3.748  33.818  0.2778 -0.2173 -0.0754
   87BOLB   C1D 2085  22.892   3.550  34.811 -0.0757  0.0634  0.0789
   87BOLB   C2D 2086  22.637   3.479  34.461 -0.2596 -0.0263  0.0478
   87BOLB   C3D 2087  22.239   3.613  34.235  0.0602  0.2142 -0.0206
   87BOLB   C4D 2088  22.055   3.514  33.819 -0.1391 -0.1093  0.1870
   88BOLB   NC1 2089  21.166  10.247  28.625  0.1600 -0.1392 -0.0029
   88BOLB   PO1 2090  21.326  10.384  28.194 -0.2266 -0.0644 -0.0751
   88BOLB   GL1 2091  21.490  10.738  28.177  0.1133 -0.3027 -0.0855
   88BOLB   GL2 2092  21.824  10.824  28.335 -0.0385  0.0278 -0.5008
   88BOLB   C1A 2093  21.639  11.226  28.082  0.1948 -0.0636 -0.1444
   88BOLB   C2A 2094  21.770  11.652  28.233 -0.0995  0.2438  0.3469
   88BOLB   C3A 2095  21.869  11.916  28.547  0.1129 -0.1302 -0.0011
   88BOLB   C4A 2096  22.021  12.239  28.415 -0.0771  0.4300 -0.2884
   88BOLB   C1B 2097  22.149  11.040  28.606  0.0368  0.0235  0.1963
   88BOLB   C2B 2098  22.240  11.384  28.695 -0.2508 -0.2690 -0.0773
   88BOLB   C3B 2099  22.350  11.758  28.429 -0.0049 -0.2334  0.1590
   88BOLB   C4B 2100  22.674  11.872  28.104 -0.0520  0.0550  0.0676
   88BOLB   NC2 2101  23.461  13.672  29.446 -0.0718  0.1433 -0.1904
   88BOLB   PO2 2102  23.301  13.852  29.124  0.0239 -0.0631 -0.0335
   88BOLB   GL3 2103  23.319  13.574  28.704  0.0191  0.0646  0.0542
   88BOLB   GL4 2104  23.079  13.679  28.516  0.0522 -0.1623 -0.1567
   88BOLB   C1C 2105  23.025  13.170  28.378  0.0053 -0.2382 -0.0337
   88BOLB   C2C 2106  22.642  12.990  28.360  0.0308  0.0447  0.1032
   88BOLB   C3C 2107  22.542  12.628  28.304 -0.1848 -0.1229  0.0515
   88BOLB   C4C 2108  22.460  12.279  28.277 -0.1784 -0.1541  0.1822
   88BOLB   C1D 2109  22.844  13.346  28.799 -0.0676  0.1134 -0.2032
   88BOLB   C2D 2110  22.539  13.030  28.986 -0.2303  0.1570 -0.0129
   88BOLB   C3D 2111  22.584  12.642  29.162 -0.4533 -0.0671 -0.0621
   88BOLB   C4D 2112  22.723  12.667  29.553  0.1308 -0.1809 -0.0065
   89BOLB   NC1 2113  26.194  -0.594  13.031  0.1772 -0.0417 -0.0716
   89BOLB   PO1 2114  26.219  -0.785  12.648  0.1524 -0.0097  0.0861
   89BOLB   GL1 2115  25.923  -1.016  12.932  0.2219  0.2591 -0.0990
   89BOLB   GL2 2116  25.567  -1.088  12.907  0.0045 -0.1587 -0.0327
   89BOLB   C1A 2117  25.715  -1.212  13.369 -0.1716  0.1138  0.2086
   89BOLB   C2A 2118  25.866  -1.393  13.714 -0.1674  0.1752  0.3388
   89BOLB   C3A 2119  25.696  -1.754  13.954  0.0275  0.1986 -0.0522
   89BOLB   C4A 2120  25.512  -1.420  14.153 -0.2543  0.3299 -0.0743
   89BOLB   C1B 2121  25.154  -1.060  12.820  0.1910 -0.0531  0.0643
   89BOLB   C2B 2122  24.747  -0.784  12.751 -0.1492 -0.0255  0.1895
   89BOLB   C3B 2123  24.279  -1.013  12.852  0.1225  0.1407  0.0302
   89BOLB   C4B 2124  24.140  -1.395  12.574  0.1598  0.0618  0.5615
   89BOLB   NC2 2125  26.609   0.822  14.952  0.0969  0.1715 -0.1484
   89BOLB   PO2 2126  26.468   0.529  14.594 -0.0457 -0.3389  0.2206
   89BOLB   GL3 2127  26.116   0.505  14.794  0.0652 -0.0558 -0.1205
   89BOLB   GL4 2128  26.262   0.502  15.047 -0.2399  0.1873  0.0635
   89BOLB   C1C 2129  25.892   0.091  14.875  0.0012  0.0919 -0.2956
   89BOLB   C2C 2130  25.623  -0.316  14.887 -0.2978  0.2625 -0.0184
   89BOLB   C3C 2131  25.453  -0.648  14.690  0.1174  0.2739 -0.0425
   89BOLB   C4C 2132  25.493  -1.094  14.466  0.0113  0.1402 -0.0366
   89BOLB   C1D 2133  26.217   0.117  15.297 -0.2068  0.0719 -0.0755
   89BOLB   C2D 2134  26.060  -0.230  15.182  0.0710 -0.2124 -0.4345
   89BOLB   C3D 2135  25.750  -0.386  15.336 -0.1703  0.4299  0.1720
   89BOLB   C4D 2136  25.391  -0.552  15.247 -0.0660 -0.0418 -0.0102
   90BOLB   NC1 2137  18.613  -3.828  25.149  0.0712  0.3632 -0.1762
   90BOLB   PO1 2138  18.247  -3.918  24.957  0.0383  0.0593 -0.0471
   90BOLB   GL1 2139  18.396  -4.381  25.186 -0.1259 -0.1292  0.0271
   90BOLB   GL2 2140  18.767  -4.387  25.340 -0.1725  0.2717 -0.1919
   90BOLB   C1A 2141  18.293  -4.785  25.312 -0.1980  0.1887  0.2356
   90BOLB   C2A 2142  18.224  -5.158  25.591 -0.0511 -0.2494 -0.0024
   90BOLB   C3A 2143  18.151  -5.486  25.649 -0.0135 -0.1880 -0.3841
   90BOLB   C4A 2144  18.154  -5.813  25.336 -0.0084 -0.0647  0.0950
   90BOLB   C1B 2145  18.951  -4.675  25.587 -0.2123  0.1737 -0.0032
   90BOLB   C2B 2146  19.264  -4.915  25.546  0.1628  0.0202  0.1002
   90BOLB   C3B 2147  19.533  -5.252  25.534  0.3553  0.1947  0.2392
   90BOLB   C4B 2148  19.625  -5.622  25.749 -0.0250 -0.0445  0.1001
   90BOLB   NC2 2149  18.876  -8.413  24.395  0.0072 -0.1665  0.0949
   90BOLB   PO2 2150  18.788  -8.099  24.685 -0.0726 -0.0241 -0.2583
   90BOLB   GL3 2151  18.725  -7.715  24.932  0.5237 -0.1053  0.3813
   90BOLB   GL4 2152  18.589  -7.727  25.211  0.1080  0.0389  0.1723
   90BOLB   C1C 2153  18.669  -7.275  25.076  0.2053 -0.0456  0.1154
   90BOLB   C2C 2154  18.438  -6.994  24.915  0.2201  0.0673 -0.0366
   90BOLB   C3C 2155  18.170  -6.671  24.967 -0.4262 -0.3538  0.0879
   90BOLB   C4C 2156  18.175  -6.220  25.207  0.2503  0.0026 -0.0657
   90BOLB   C1D 2157  18.399  -7.449  25.504  0.1722 -0.0293  0.0618
   90BOLB   C2D 2158  18.422  -6.992  25.499  0.0246  0.0525 -0.0534
   90BOLB   C3D 2159  18.394  -6.562  25.563 -0.0736 -0.1074  0.4261
   90BOLB   C4D 2160  18.643  -6.285  25.675  0.2436  0.0310 -0.2942
   91BOLB   NC1 2161  24.336   2.181  24.429 -0.0512 -0.0981  0.0778
   91BOLB   PO1 2162  24.613   2.129  24.752 -0.0390  0.1645 -0.0676
   91BOLB   GL1 2163  25.031   2.060  24.601  0.0973 -0.2231  0.1016
   91BOLB   GL2 2164  25.086   1.822  24.343 -0.1672  0.0931 -0.1580
   91BOLB   C1A 2165  25.456   2.171  24.585 -0.0597  0.1089 -0.0979
   91BOLB   C2A 2166  25.893   1.947  24.429 -0.0536 -0.0344 -0.0999
   91BOLB   C3A 2167  26.256   1.866  24.264  0.2485 -0.1102 -0.0402
   91BOLB   C4A 2168  26.549   1.585  24.433  0.1085 -0.1392 -0.1372
   91BOLB   C1B 2169  25.524   1.789  24.074 -0.0758 -0.1652 -0.2989
   91BOLB   C2B 2170  25.868   1.609  24.019  0.0449  0.3795 -0.0091
   91BOLB   C3B 2171  26.146   1.251  24.218 -0.0089 -0.1083  0.0981
   91BOLB   C4B 2172  26.100   0.866  24.354 -0.2009 -0.2337 -0.2307
   91BOLB   NC2 2173  29.122   1.248  23.771 -0.1021  0.0729 -0.1383
   91BOLB   PO2 2174  28.742   1.143  23.924  0.3394  0.0228  0.0825
   91BOLB   GL3 2175  28.305   1.358  23.851  0.0126  0.2684 -0.1006
   91BOLB   GL4 2176  28.120   1.214  23.903  0.2505  0.2183 -0.0602
   91BOLB   C1C 2177  28.123   1.733  23.990 -0.1648  0.0972 -0.0666
   91BOLB   C2C 2178  27.661   1.788  24.065 -0.2632  0.2811  0.0633
   91BOLB   C3C 2179  27.281   1.594  24.113 -0.0461 -0.0017 -0.1513
   91BOLB   C4C 2180  26.928   1.500  24.308  0.2068  0.1126 -0.2404
   91BOLB   C1D 2181  27.711   1.323  23.672 -0.1721 -0.3319  0.0667
   91BOLB   C2D 2182  27.351   1.132  23.836  0.1117 -0.0862  0.1526
   91BOLB   C3D 2183  26.946   1.178  23.667 -0.0734 -0.2693  0.2489
   91BOLB   C4D 2184  26.504   1.032  23.655  0.1112  0.3736  0.0863
   92BOLB   NC1 2185  13.746   1.835  37.707  0.0007  0.2303  0.3644
   92BOLB   PO1 2186  13.812   2.269  37.534  0.3895 -0.2971  0.0122
   92BOLB   GL1 2187  14.037   2.338  37.142  0.1225  0.1157  0.0025
   92BOLB   GL2 2188  14.313   2.094  37.110  0.3425  0.1023  0.2307
   92BOLB   C1A 2189  13.974   2.527  36.711 -0.0931 -0.1098  0.2020
   92BOLB   C2A 2190  14.223   2.619  36.235  0.1174  0.1691 -0.1091
   92BOLB   C3A 2191  14.376   2.627  35.805 -0.0014 -0.3193  0.3300
   92BOLB   C4A 2192  14.661   2.493  35.497  0.0124  0.0861 -0.2135
   92BOLB   C1B 2193  14.335   2.194  36.742 -0.2301 -0.0329 -0.0340
   92BOLB   C2B 2194  14.627   2.293  36.251 -0.1587 -0.1321 -0.1258
   92BOLB   C3B 2195  14.965   2.326  35.955  0.0766 -0.0895  0.0323
   92BOLB   C4B 2196  14.939   1.969  35.709  0.0466  0.1798 -0.0859
   92BOLB   NC2 2197  14.983   1.587  37.306 -0.0288  0.0557  0.0285
   92BOLB   PO2 2198  14.775   2.035  37.436 -0.1539 -0.1526  0.0133
   92BOLB   GL3 2199  14.927   2.014  37.024  0.3197 -0.0509  0.4494
   92BOLB   GL4 2200  14.717   1.856  36.866  0.0070 -0.0739 -0.2400
   92BOLB   C1C 2201  14.963   2.316  36.689  0.0836 -0.2833  0.4279
   92BOLB   C2C 2202  14.991   2.605  36.380 -0.2192 -0.2011 -0.0209
   92BOLB   C3C 2203  15.241   2.717  36.018 -0.0173  0.1744 -0.3107
   92BOLB   C4C 2204  15.060   2.538  35.545 -0.2213  0.0128 -0.2208
   92BOLB   C1D 2205  14.938   1.941  36.378  0.0871 -0.0105 -0.1853
   92BOLB   C2D 2206  14.977   1.592  36.112 -0.1295  0.0069 -0.0084
   92BOLB   C3D 2207  14.935   1.306  35.910  0.2028  0.1432  0.0518
   92BOLB   C4D 2208  14.689   1.020  35.680 -0.1271  0.0940  0.2095
   93BOLB   NC1 2209  21.002  -5.827  10.453 -0.4087 -0.1187  0.0233
   93BOLB   PO1 2210  21.383  -5.623  10.490  0.1744 -0.2197  0.0155
   93BOLB   GL1 2211  21.323  -5.256  10.652 -0.1876  0.2790  0.0659
   93BOLB   GL2 2212  20.876  -5.160  10.651  0.0019 -0.0146 -0.4267
   93BOLB   C1A 2213  21.074  -5.180  11.094 -0.1160 -0.0064 -0.2459
   93BOLB   C2A 2214  20.936  -5.383  11.423 -0.1116  0.0510 -0.0361
   93BOLB   C3A 2215  21.019  -5.584  11.851 -0.0985 -0.0541 -0.0626
   93BOLB   C4A 2216  20.852  -5.637  12.284  0.1848  0.3796  0.1097
   93BOLB   C1B 2217  20.539  -5.392  10.797  0.3263  0.0068  0.1769
   93BOLB   C2B 2218  20.408  -5.638  11.133 -0.1552 -0.1071 -0.2332
   93BOLB   C3B 2219  20.254  -5.915  11.488  0.2638  0.0232  0.0516
   93BOLB   C4B 2220  20.011  -6.302  11.610  0.2505 -0.0070 -0.1321
   93BOLB   NC2 2221  20.638  -6.915  11.471  0.1592  0.0008  0.1610
   93BOLB   PO2 2222  20.284  -6.797  11.113  0.0526  0.0610  0.1392
   93BOLB   GL3 2223  20.415  -6.492  11.452 -0.2577  0.3468 -0.1521
   93BOLB   GL4 2224  20.737  -6.394  11.570 -0.1345 -0.0666 -0.2176
   93BOLB   C1C 2225  20.440  -6.472  11.934 -0.2216 -0.2409 -0.2490
   93BOLB   C2C 2226  20.162  -6.277  12.329 -0.0043  0.0939 -0.2256
   93BOLB   C3C 2227  20.175  -5.871  12.533  0.3640 -0.3072  0.0445
   93BOLB   C4C 2228  20.472  -5.648  12.523 -0.2706  0.0057 -0.0035
   93BOLB   C1D 2229  21.038  -6.301  11.817 -0.0787  0.1200  0.0337
   93BOLB   C2D 2230  21.287  -6.004  12.020 -0.4631 -0.1555 -0.2027
   93BOLB   C3D 2231  21.640  -5.573  12.009  0.1908  0.3294 -0.1873
   93BOLB   C4D 2232  21.705  -5.121  12.229  0.0171  0.1991  0.3161
   94BOLB   NC1 2233  20.935  10.367  24.151 -0.4043 -0.0387  0.3802
   94BOLB   PO1 2234  20.974  10.453  24.567  0.0594  0.0996 -0.0099
   94BOLB   GL1 2235  21.245  10.757  24.701  0.1440  0.0450 -0.0445
   94BOLB   GL2 2236  21.505  10.863  24.530 -0.3276 -0.0625 -0.1299
   94BOLB   C1A 2237  21.323  11.244  24.762 -0.1746 -0.0128 -0.0235
   94BOLB   C2A 2238  21.374  11.696  24.639  0.0535 -0.1100  0.2648
   94BOLB   C3A 2239  21.678  12.053  24.734 -0.0270  0.2761  0.1448
   94BOLB   C4A 2240  22.072  12.239  24.571 -0.2721  0.4357 -0.0512
   94BOLB   C1B 2241  21.599  11.375  24.310 -0.0755  0.1642 -0.1876
   94BOLB   C2B 2242  21.799  11.580  23.973  0.1800  0.1899  0.0580
   94BOLB   C3B 2243  21.723  12.018  23.662 -0.3525 -0.1135 -0.2598
   94BOLB   C4B 2244  21.725  12.352  23.542 -0.0495  0.1947 -0.0180
   94BOLB   NC2 2245  23.941  13.641  23.202 -0.0024  0.0795 -0.1491
   94BOLB   PO2 2246  24.006  13.695  23.653  0.1873  0.1668 -0.1275
   94BOLB   GL3 2247  23.890  13.294  23.923 -0.0607  0.0391  0.0562
   94BOLB   GL4 2248  23.601  13.396  23.849 -0.0008  0.0043 -0.2184
   94BOLB   C1C 2249  23.545  12.993  24.182 -0.2330 -0.0116 -0.1999
   94BOLB   C2C 2250  23.093  12.884  24.278  0.1682  0.1326 -0.2779
   94BOLB   C3C 2251  22.618  12.701  24.314  0.0367  0.2164  0.0791
   94BOLB   C4C 2252  22.236  12.609  24.374  0.1740 -0.2666 -0.1218
   94BOLB   C1D 2253  23.551  13.142  23.547 -0.3178 -0.1402  0.3188
   94BOLB   C2D 2254  23.539  12.998  23.148  0.1710  0.0394  0.1288
   94BOLB   C3D 2255  23.527  12.607  22.851  0.2876  0.0904 -0.1483
   94BOLB   C4D 2256  23.348  12.366  22.547 -0.0592 -0.2253 -0.0391
   95BOLB   NC1 2257  15.336  -4.542  19.965 -0.1449  0.0292 -0.1452
   95BOLB   PO1 2258  15.233  -4.329  19.575 -0.4159 -0.1944 -0.0980
   95BOLB   GL1 2259  15.334  -4.463  19.135  0.2436 -0.1978 -0.3866
   95BOLB   GL2 2260  15.742  -4.599  18.938 -0.0782  0.1476  0.1393
   95BOLB   C1A 2261  15.157  -4.376  18.726  0.3672 -0.1060 -0.0256
   95BOLB   C2A 2262  14.967  -4.455  18.328 -0.3172 -0.4062  0.0337
   95BOLB   C3A 2263  14.715  -4.492  17.902  0.2110 -0.1804 -0.0668
   95BOLB   C4A 2264  14.678  -4.481  17.519  0.2327  0.0593 -0.2515
   95BOLB   C1B 2265  15.454  -4.754  18.607  0.3458  0.1851 -0.2621
   95BOLB   C2B 2266  15.246  -5.037  18.264  0.0203 -0.0117 -0.1148
   95BOLB   C3B 2267  15.009  -5.353  18.409  0.3069  0.2400 -0.4369
   95BOLB   C4B 2268  14.904  -5.597  18.800 -0.1916 -0.1753  0.0425
   95BOLB   NC2 2269  14.264  -3.489  18.988 -0.2020 -0.3246  0.0153
   95BOLB   PO2 2270  14.182  -3.325  18.594 -0.2594 -0.1964 -0.2758
   95BOLB   GL3 2271  14.106  -3.641  18.358  0.2425 -0.2600  0.2125
   95BOLB   GL4 2272  14.263  -3.802  18.328  0.0592 -0.2722 -0.0691
   95BOLB   C1C 2273  13.858  -3.696  17.942 -0.0804  0.0057  0.0145
   95BOLB   C2C 2274  13.821  -3.716  17.560 -0.0493 -0.1413 -0.1733
   95BOLB   C3C 2275  13.965  -4.049  17.231 -0.3799 -0.0437  0.2322
   95BOLB   C4C 2276  14.436  -4.188  17.316 -0.1989  0.1297 -0.2297
   95BOLB   C1D 2277  14.356  -4.155  18.151  0.1487  0.3635 -0.1070
   95BOLB   C2D 2278  14.310  -4.615  18.181  0.1369  0.2427  0.0265
   95BOLB   C3D 2279  14.281  -5.018  18.166  0.3735 -0.0663  0.0678
   95BOLB   C4D 2280  14.594  -5.416  18.095 -0.0680  0.1592 -0.2100
   96BOLB   NC1 2281   7.725   6.246  25.094  0.3621  0.0836 -0.3758
   96BOLB   PO1 2282   7.694   6.519  24.857  0.1800 -0.1545  0.1156
   96BOLB   GL1 2283   7.194   6.432  24.866  0.0045 -0.1704 -0.0712
   96BOLB   GL2 2284   7.036   6.656  25.102 -0.0268  0.2470  0.0321
   96BOLB   C1A 2285   6.851   6.300  24.777 -0.1232  0.3641 -0.1261
   96BOLB   C2A 2286   6.451   6.489  24.561 -0.2753  0.0626  0.0589
   96BOLB   C3A 2287   6.108   6.868  24.435 -0.2817 -0.2199 -0.2442
   96BOLB   C4A 2288   5.806   7.149  24.204 -0.1637  0.3068 -0.4147
   96BOLB   C1B 2289   6.663   6.857  25.073 -0.1493  0.0662  0.0101
   96BOLB   C2B 2290   6.331   6.926  24.863  0.0560 -0.1323 -0.2142
   96BOLB   C3B 2291   5.774   6.957  24.868  0.1027  0.0690  0.1282
   96BOLB   C4B 2292   5.445   7.040  24.572  0.2772 -0.0065 -0.2863
   96BOLB   NC2 2293   3.628   8.255  23.693 -0.1443 -0.0832  0.2801
   96BOLB   PO2 2294   3.734   8.389  24.057 -0.2860  0.1295 -0.1717
   96BOLB   GL3 2295   4.146   8.347  24.059  0.0389 -0.0778  0.0295
   96BOLB   GL4 2296   4.224   8.284  24.351  0.1468  0.3229 -0.1040
   96BOLB   C1C 2297   4.606   8.275  24.007 -0.1937 -0.2782  0.2185
   96BOLB   C2C 2298   4.912   7.946  24.144  0.0286  0.0465  0.0409
   96BOLB   C3C 2299   5.244   7.647  23.947  0.1405  0.3073 -0.1687
   96BOLB   C4C 2300   5.402   7.225  24.009  0.1993 -0.2036  0.1910
   96BOLB   C1D 2301   4.637   8.275  24.539  0.1716 -0.4044 -0.3042
   96BOLB   C2D 2302   5.103   8.247  24.525  0.3469 -0.3137 -0.1373
   96BOLB   C3D 2303   5.425   8.198  24.679 -0.0478 -0.1358 -0.0350
   96BOLB   C4D 2304   5.739   7.947  24.849  0.2862 -0.2702  0.1697
   97BOLB   NC1 2305  22.467  -2.372  33.836  0.3597 -0.2505 -0.0913
   97BOLB   PO1 2306  22.395  -1.961  33.921 -0.2473  0.2771 -0.1745
   97BOLB   GL1 2307  22.227  -1.777  33.481  0.4055 -0.0644  0.0242
   97BOLB   GL2 2308  21.899  -1.897  33.464 -0.2153  0.0004 -0.0816
   97BOLB   C1A 2309  22.099  -1.496  33.178  0.1479 -0.3138 -0.0750
   97BOLB   C2A 2310  21.830  -1.506  32.775 -0.0218 -0.1415  0.0218
   97BOLB   C3A 2311  21.649  -1.285  32.516  0.1250 -0.0299  0.1093
   97BOLB   C4A 2312  21.563  -0.799  32.417  0.1369  0.0861  0.1911
   97BOLB   C1B 2313  21.666  -1.891  33.103  0.0203  0.1101 -0.0857
   97BOLB   C2B 2314  21.541  -1.882  32.640  0.1414  0.1166 -0.2809
   97BOLB   C3B 2315  21.350  -1.728  32.325 -0.2055 -0.0912 -0.0768
   97BOLB   C4B 2316  21.107  -1.391  32.324 -0.0257  0.0570 -0.0248
   97BOLB   NC2 2317  19.952   0.325  31.105 -0.3359 -0.2180  0.2666
   97BOLB   PO2 2318  20.119  -0.135  31.045 -0.0457  0.0183  0.0859
   97BOLB   GL3 2319  20.550   0.024  31.211  0.1185  0.1566 -0.2362
   97BOLB   GL4 2320  20.460   0.286  31.574  0.0311 -0.0829 -0.1525
   97BOLB   C1C 2321  20.758  -0.120  31.539  0.1038 -0.3614  0.1266
   97BOLB   C2C 2322  21.278  -0.047  31.595 -0.3353  0.1155  0.2159
   97BOLB   C3C 2323  21.452   0.067  32.008 -0.0530  0.0058  0.2943
   97BOLB   C4C 2324  21.571  -0.332  32.292  0.3492 -0.0950 -0.0213
   97BOLB   C1D 2325  20.507   0.069  31.943  0.0358  0.4409 -0.0106
   97BOLB   C2D 2326  20.642  -0.071  32.374  0.1262 -0.1010  0.2008
   97BOLB   C3D 2327  20.948  -0.435  32.410  0.0462  0.0213 -0.1834
   97BOLB   C4D 2328  21.069  -0.823  32.696 -0.0421  0.2436  0.2522
   98BOLB   NC1 2329   9.301   2.570  31.283  0.3425  0.1686 -0.1859
   98BOLB   PO1 2330   9.032   2.820  31.136 -0.1628 -0.3460  0.0165
   98BOLB   GL1 2331   8.745   2.537  31.050 -0.0288 -0.3523 -0.1496
   98BOLB   GL2 2332   8.911   2.279  31.210 -0.0384 -0.2294 -0.0372
   98BOLB   C1A 2333   8.317   2.576  31.179 -0.0534 -0.2147  0.0808
   98BOLB   C2A 2334   8.047   2.696  31.540  0.2525  0.0631 -0.3887
   98BOLB   C3A 2335   7.824   2.542  31.994 -0.1243 -0.1670 -0.2887
   98BOLB   C4A 2336   7.512   2.291  32.289  0.2890 -0.2191  0.0972
   98BOLB   C1B 2337   8.485   2.220  31.454 -0.1067 -0.1697  0.1233
   98BOLB   C2B 2338   8.113   2.053  31.670 -0.0437  0.5343 -0.3768
   98BOLB   C3B 2339   8.161   1.974  32.199  0.1472 -0.2833  0.3664
   98BOLB   C4B 2340   8.041   1.493  32.413 -0.0897  0.2121  0.2797
   98BOLB   NC2 2341   5.577   0.941  32.436 -0.0297 -0.0639  0.1573
   98BOLB   PO2 2342   5.642   1.119  31.946  0.2721  0.2942 -0.1240
   98BOLB   GL3 2343   6.063   1.231  31.794  0.1182 -0.2820  0.1223
   98BOLB   GL4 2344   6.168   1.252  31.532 -0.1311  0.1595 -0.0192
   98BOLB   C1C 2345   6.458   1.265  31.970 -0.1225 -0.0334  0.0614
   98BOLB   C2C 2346   6.798   1.377  32.204 -0.0060 -0.2342 -0.2920
   98BOLB   C3C 2347   6.900   1.723  32.266 -0.1867 -0.2757  0.1946
   98BOLB   C4C 2348   7.108   2.064  32.135 -0.1079  0.0109  0.0325
   98BOLB   C1D 2349   6.612   1.432  31.418 -0.1645 -0.0357 -0.0954
   98BOLB   C2D 2350   6.811   1.731  31.693  0.1768  0.0616  0.4228
   98BOLB   C3D 2351   7.167   2.109  31.578  0.1992 -0.1743 -0.0688
   98BOLB   C4D 2352   7.449   2.177  31.180  0.0733 -0.0361 -0.2697
   99BOLB   NC1 2353   8.397  12.446  18.857 -0.2265  0.0124 -0.3465
   99BOLB   PO1 2354   8.451  12.544  19.282  0.3290  0.0937 -0.0215
   99BOLB   GL1 2355   8.670  12.103  19.294  0.1079  0.1188 -0.1204
   99BOLB   GL2 2356   8.479  11.857  19.483 -0.2087  0.0158  0.2892
   99BOLB   C1A 2357   9.041  11.944  19.518  0.2710 -0.2187 -0.1107
   99BOLB   C2A 2358   9.201  11.654  19.895  0.1071 -0.2219 -0.0424
   99BOLB   C3A 2359   9.498  11.238  19.906 -0.1350  0.1892 -0.0183
   99BOLB   C4A 2360   9.706  10.927  20.060  0.1718 -0.1624  0.2503
   99BOLB   C1B 2361   8.769  11.484  19.611  0.0979 -0.2381  0.1865
   99BOLB   C2B 2362   8.972  11.257  19.921 -0.2225 -0.0181  0.0940
   99BOLB   C3B 2363   9.046  11.168  20.321  0.0410 -0.1004  0.3732
   99BOLB   C4B 2364   9.442  11.357  20.377  0.0215 -0.3213 -0.1724
   99BOLB   NC2 2365   9.967  12.071  18.330 -0.3511 -0.2337 -0.0970
   99BOLB   PO2 2366   9.901  11.734  18.180  0.3085 -0.1242  0.0174
   99BOLB   GL3 2367   9.869  11.346  18.367 -0.0082  0.1321  0.0851
   99BOLB   GL4 2368   9.530  11.307  18.416 -0.3493  0.0736  0.3698
   99BOLB   C1C 2369   9.918  11.015  18.706  0.1934 -0.1165 -0.2192
   99BOLB   C2C 2370   9.873  10.606  18.924  0.0608  0.1304 -0.2374
   99BOLB   C3C 2371   9.807  10.618  19.305 -0.0492 -0.3070 -0.0355
   99BOLB   C4C 2372   9.745  10.705  19.767  0.2428 -0.1808 -0.0993
   99BOLB   C1D 2373   9.571  11.408  18.839  0.0863  0.1645 -0.1740
   99BOLB   C2D 2374   9.820  11.442  19.189 -0.0565  0.0271 -0.1232
   99BOLB   C3D 2375   9.905  11.139  19.610  0.0963 -0.2245  0.2534
   99BOLB   C4D 2376  10.215  10.955  19.959  0.3125 -0.1987  0.1035
  100BOLB   NC1 2377  10.599   8.198  20.524  0.4147  0.1501  0.0048
  100BOLB   PO1 2378  10.206   8.068  20.785  0.1199 -0.2251  0.3963
  100BOLB   GL1 2379  10.036   8.265  20.432  0.0166 -0.2005  0.1953
  100BOLB   GL2 2380  10.246   8.310  20.157 -0.0758 -0.0710 -0.1789
  100BOLB   C1A 2381   9.706   8.297  20.077 -0.1433 -0.0994 -0.1813
  100BOLB   C2A 2382   9.452   8.326  19.814 -0.0090 -0.1036  0.1524
  100BOLB   C3A 2383   8.982   8.522  19.819  0.2001 -0.0256 -0.2480
  100BOLB   C4A 2384   8.720   8.714  19.600 -0.0323  0.2783  0.1989
  100BOLB   C1B 2385  10.152   8.719  19.872 -0.1058  0.1149  0.1341
  100BOLB   C2B 2386   9.982   9.102  19.889  0.1189  0.0149 -0.3134
  100BOLB   C3B 2387  10.023   9.429  19.586  0.0250  0.1882 -0.0405
  100BOLB   C4B 2388  10.325   9.666  19.363 -0.0414 -0.0633  0.0675
  100BOLB   NC2 2389   7.127   9.482  18.077 -0.1806 -0.2093 -0.1893
  100BOLB   PO2 2390   7.128   9.145  17.791  0.0112 -0.0214 -0.0332
  100BOLB   GL3 2391   7.409   9.086  18.207  0.0248  0.0094  0.0649
  100BOLB   GL4 2392   7.559   8.843  18.418  0.0744 -0.1788  0.0931
  100BOLB   C1C 2393   7.666   9.290  18.612 -0.0557 -0.1709  0.1114
  100BOLB   C2C 2394   8.129   9.411  18.832 -0.0832 -0.1731  0.0843
  100BOLB   C3C 2395   8.444   9.208  18.978  0.2698 -0.0698 -0.0720
  100BOLB   C4C 2396   8.553   8.856  19.253 -0.0675  0.2237  0.1407
  100BOLB   C1D 2397   7.822   8.442  18.526 -0.2058  0.3893 -0.3949
  100BOLB   C2D 2398   8.181   8.077  18.614 -0.2079  0.1183 -0.2689
  100BOLB   C3D 2399   8.683   7.944  18.731  0.1374  0.2748  0.1497
  100BOLB   C4D 2400   9.025   7.968  18.926 -0.0691  0.2571 -0.2505
  101BOLB   NC1 2401  21.460   9.846  24.585  0.0431 -0.1056 -0.0141
  101BOLB   PO1 2402  21.752  10.128  24.901  0.1411 -0.0489 -0.1122
  101BOLB   GL1 2403  21.946  10.494  24.877  0.1625  0.0945  0.2321
  101BOLB   GL2 2404  21.880  10.629  24.805 -0.0005  0.1859  0.1416
  101BOLB   C1A 2405  22.295  10.785  25.138 -0.1672  0.1941  0.1852
  101BOLB   C2A 2406  22.648  11.074  25.261  0.1706 -0.2809 -0.1243
  101BOLB   C3A 2407  22.923  11.375  25.323  0.0860 -0.0415 -0.0072
  101BOLB   C4A 2408  23.141  11.759  25.193  0.3711 -0.0958 -0.0384
  101BOLB   C1B 2409  21.980  11.005  24.587  0.1177 -0.0288  0.3883
  101BOLB   C2B 2410  22.106  11.317  24.230  0.1485 -0.2068  0.3154
  101BOLB   C3B 2411  22.265  11.420  23.863  0.2310  0.0391 -0.0820
  101BOLB   C4B 2412  22.652  11.469  23.696 -0.3170  0.3366  0.1382
  101BOLB   NC2 2413  24.936  12.670  23.459  0.0442  0.0137  0.2947
  101BOLB   PO2 2414  24.940  12.937  23.862 -0.1402  0.0695  0.1491
  101BOLB   GL3 2415  24.508  12.815  23.748  0.0815 -0.0688 -0.2906
  101BOLB   GL4 2416  24.551  12.401  23.756  0.1807 -0.1413  0.1503
  101BOLB   C1C 2417  24.186  12.560  24.072  0.0298  0.2872  0.2919
  101BOLB   C2C 2418  23.842  12.356  24.294 -0.1537  0.2704 -0.1050
  101BOLB   C3C 2419  23.629  12.234  24.697 -0.0475 -0.0445  0.3597
  101BOLB   C4C 2420  23.440  11.891  24.899  0.2780  0.1136  0.0622
  101BOLB   C1D 2421  24.256  12.088  23.948 -0.1661  0.1520  0.2001
  101BOLB   C2D 2422  23.727  12.060  23.834 -0.2981 -0.2431  0.1007
  101BOLB   C3D 2423  23.471  12.190  23.503 -0.2467  0.0609 -0.1296
  101BOLB   C4D 2424  23.151  12.414  23.251  0.0173  0.2205 -0.1154
  102BOLB   NC1 2425  13.891  -6.529  30.767  0.1083 -0.2018 -0.1216
  102BOLB   PO1 2426  14.253  -6.477  30.992  0.1212  0.0640 -0.0551
  102BOLB   GL1 2427  14.351  -6.070  30.929  0.1723 -0.1773 -0.1115
  102BOLB   GL2 2428  14.076  -6.016  30.862  0.0018 -0.1156  0.2413
  102BOLB   C1A 2429  14.638  -5.688  30.872 -0.0827 -0.1817  0.0347
  102BOLB   C2A 2430  14.886  -5.485  30.572  0.1703 -0.2044  0.2582
  102BOLB   C3A 2431  15.001  -5.327  30.173 -0.2519 -0.1432 -0.0204
  102BOLB   C4A 2432  15.115  -5.323  29.740  0.0096 -0.0430 -0.2608
  102BOLB   C1B 2433  14.177  -5.804  30.489  0.2069 -0.2682  0.0767
  102BOLB   C2B 2434  13.957  -5.538  30.119 -0.2237 -0.1361 -0.1912
  102BOLB   C3B 2435  14.149  -5.205  29.940  0.0175 -0.0980 -0.1758
  102BOLB   C4B 2436  14.364  -5.022  29.579 -0.3543  0.1145  0.4985
  102BOLB   NC2 2437  16.033  -7.633  29.188  0.0781  0.4799 -0.0055
  102BOLB   PO2 2438  15.834  -7.419  28.886 -0.1312 -0.0652 -0.2392
  102BOLB   GL3 2439  15.817  -6.968  28.782 -0.1542 -0.2696 -0.1856
  102BOLB   GL4 2440  15.816  -6.717  29.186  0.0357  0.1029 -0.0792
  102BOLB   C1C 2441  15.530  -6.627  28.832 -0.2770  0.0980  0.2489
  102BOLB   C2C 2442  15.353  -6.156  28.814 -0.0328  0.2476 -0.3483
  102BOLB   C3C 2443  15.343  -5.838  29.227  0.1992  0.1690 -0.1113
  102BOLB   C4C 2444  15.234  -5.479  29.388  0.1376 -0.0361  0.3582
  102BOLB   C1D 2445  15.468  -6.497  29.394 -0.4161 -0.2467 -0.1951
  102BOLB   C2D 2446  15.147  -6.255  29.538 -0.0196 -0.2668  0.0385
  102BOLB   C3D 2447  15.058  -5.907  29.666  0.1006 -0.4315 -0.3374
  102BOLB   C4D 2448  14.949  -5.837  30.074  0.1894 -0.3339 -0.1292
  103BOLB   NC1 2449  19.231  -3.307  23.595  0.4150 -0.0442 -0.1718
  103BOLB   PO1 2450  19.051  -3.790  23.340  0.1634  0.0265 -0.0108
  103BOLB   GL1 2451  19.005  -4.205  23.483  0.0151 -0.0572  0.2553
  103BOLB   GL2 2452  18.971  -4.300  23.163  0.1432 -0.0726 -0.2611
  103BOLB   C1A 2453  19.030  -4.595  23.596  0.0346 -0.4082  0.1326
  103BOLB   C2A 2454  19.008  -5.049  23.580  0.0814  0.0007  0.0957
  103BOLB   C3A 2455  18.887  -5.403  23.518 -0.1698  0.0678  0.3009
  103BOLB   C4A 2456  19.112  -5.811  23.539  0.1532  0.1983  0.1200
  103BOLB   C1B 2457  19.378  -4.661  23.192  0.0128  0.3255  0.0376
  103BOLB   C2B 2458  19.609  -5.040  23.061 -0.0314 -0.2700 -0.0346
  103BOLB   C3B 2459  19.817  -5.384  23.072 -0.3561  0.1714  0.0580
  103BOLB   C4B 2460  20.204  -5.632  23.235 -0.0498 -0.0597 -0.2387
  103BOLB   NC2 2461  20.173  -8.337  22.673  0.0428  0.2174 -0.0751
  103BOLB   PO2 2462  20.007  -8.026  22.912 -0.0033  0.0459 -0.2870
  103BOLB   GL3 2463  19.934  -7.560  22.824  0.1248  0.1866 -0.0705
  103BOLB   GL4 2464  19.903  -7.300  22.595  0.1489  0.0912  0.0616
  103BOLB   C1C 2465  20.115  -7.145  23.033 -0.4419  0.0166  0.2376
  103BOLB   C2C 2466  19.919  -6.885  23.324 -0.4051 -0.1992 -0.1360
  103BOLB   C3C 2467  19.908  -6.453  23.556  0.2265 -0.4123  0.4032
  103BOLB   C4C 2468  19.569  -6.143  23.475  0.0128 -0.3130  0.1499
  103BOLB   C1D 2469  19.720  -6.920  22.715 -0.1477  0.0906  0.2724
  103BOLB   C2D 2470  19.623  -6.676  22.876  0.0613  0.3410  0.4926
  103BOLB   C3D 2471  19.479  -6.321  22.823  0.1111  0.3147 -0.0169
  103BOLB   C4D 2472  19.286  -5.975  22.978  0.0427 -0.2380 -0.4890
  104BOLB   NC1 2473  14.989  10.358  31.344  0.2244  0.1734  0.0592
  104BOLB   PO1 2474  15.129  10.117  31.609  0.2440 -0.0422  0.0478
  104BOLB   GL1 2475  15.267  10.572  31.660 -0.2371 -0.4344 -0.1730
  104BOLB   GL2 2476  15.203  10.834  31.569 -0.2270 -0.4752  0.2310
  104BOLB   C1A 2477  15.516  10.837  31.929 -0.0030  0.1121 -0.0897
  104BOLB   C2A 2478  15.713  11.131  32.329  0.1701 -0.1196 -0.1653
  104BOLB   C3A 2479  15.908  11.400  32.640 -0.1910 -0.0063 -0.1062
  104BOLB   C4A 2480  15.780  11.876  32.809 -0.3246  0.0582 -0.2838
  104BOLB   C1B 2481  15.213  11.228  31.772  0.3546  0.0159 -0.2027
  104BOLB   C2B 2482  15.288  11.724  31.891 -0.3010 -0.4951 -0.1883
  104BOLB   C3B 2483  15.674  11.965  31.979  0.4511 -0.1157  0.2500
  104BOLB   C4B 2484  15.693  12.281  32.269  0.0135 -0.1865 -0.0654
  104BOLB   NC2 2485  15.558  12.977  34.859  0.0487  0.1193 -0.0350
  104BOLB   PO2 2486  15.528  13.371  34.600  0.1002  0.0424  0.0372
  104BOLB   GL3 2487  15.807  13.203  34.319  0.1064  0.3847 -0.2518
  104BOLB   GL4 2488  15.986  13.039  34.424 -0.0027 -0.0963  0.1928
  104BOLB   C1C 2489  15.688  12.980  33.897  0.1101  0.3470 -0.0342
  104BOLB   C2C 2490  15.569  12.635  33.656  0.0613  0.4046  0.1440
  104BOLB   C3C 2491  15.452  12.388  33.315 -0.0202  0.2699  0.1436
  104BOLB   C4C 2492  15.492  12.222  32.909 -0.1873  0.3191 -0.1986
  104BOLB   C1D 2493  16.268  12.730  34.504  0.1631 -0.0473  0.3254
  104BOLB   C2D 2494  16.757  12.588  34.396  0.0269 -0.4003  0.0328
  104BOLB   C3D 2495  16.921  12.576  34.038  0.3143  0.1364  0.1678
  104BOLB   C4D 2496  16.954  12.468  33.670 -0.0940 -0.1365  0.5135
  105BOLB   NC1 2497  23.049   2.945  19.100 -0.2077  0.2677 -0.0657
  105BOLB   PO1 2498  22.705   3.319  19.055 -0.1401  0.0499 -0.0075
  105BOLB   GL1 2499  22.975   3.269  18.638  0.0475  0.0701  0.2326
  105BOLB   GL2 2500  23.145   3.018  18.515  0.1567  0.1566  0.1300
  105BOLB   C1A 2501  23.300   3.451  18.323  0.1298 -0.0863  0.1987
  105BOLB   C2A 2502  23.697   3.724  18.167 -0.0166 -0.2061 -0.1246
  105BOLB   C3A 2503  23.998   3.837  17.936  0.0024  0.3879  0.0239
  105BOLB   C4A 2504  24.325   4.116  18.009  0.2753 -0.1291 -0.1866
  105BOLB   C1B 2505  23.390   2.820  18.250  0.2344  0.1467 -0.1550
  105BOLB   C2B 2506  23.630   2.647  17.970 -0.0004  0.1250  0.0595
  105BOLB   C3B 2507  24.056   2.725  17.660 -0.2678  0.0046 -0.1473
  105BOLB   C4B 2508  24.349   3.031  17.411  0.0727  0.0765  0.0025
  105BOLB   NC2 2509  23.188   4.776  19.577 -0.0499  0.1704  0.1090
  105BOLB   PO2 2510  23.324   4.825  19.932 -0.3426  0.1229  0.1864
  105BOLB   GL3 2511  23.708   4.680  19.779  0.3115  0.1436  0.2676
  105BOLB   GL4 2512  23.994   4.867  19.789  0.2984 -0.0579 -0.1903
  105BOLB   C1C 2513  23.821   4.471  19.406  0.0396  0.1535 -0.5225
  105BOLB   C2C 2514  24.138   4.435  19.080 -0.1155  0.2443  0.0674
  105BOLB   C3C 2515  24.303   4.536  18.718  0.0468 -0.0232  0.1182
  105BOLB   C4C 2516  24.407   4.412  18.299 -0.1584 -0.1393 -0.2004
  105BOLB   C1D 2517  23.961   5.017  19.350 -0.0891 -0.1641  0.1225
  105BOLB   C2D 2518  24.087   4.930  18.971 -0.1376 -0.0501 -0.0712
  105BOLB   C3D 2519  24.240   5.006  18.618  0.2260  0.1629  0.1039
  105BOLB   C4D 2520  24.582   5.327  18.545  0.1974 -0.3908 -0.2512
  106BOLB   NC1 2521  23.184   8.936  28.138 -0.2344  0.1235 -0.1262
  106BOLB   PO1 2522  23.301   8.565  28.409 -0.0708  0.3155 -0.0208
  106BOLB   GL1 2523  23.777   8.655  28.489 -0.1452 -0.0604 -0.0198
  106BOLB   GL2 2524  24.018   8.367  28.345  0.3025  0.0682 -0.0593
  106BOLB   C1A 2525  24.181   8.782  28.686 -0.0844 -0.1176  0.3204
  106BOLB   C2A 2526  24.365   8.737  29.011 -0.0030 -0.0293 -0.0673
  106BOLB   C3A 2527  24.526   8.714  29.539 -0.0652  0.1319  0.0457
  106BOLB   C4A 2528  24.617   8.658  30.011 -0.1403  0.0494 -0.1001
  106BOLB   C1B 2529  24.435   8.389  28.589  0.3313  0.1020 -0.2674
  106BOLB   C2B 2530  24.817   8.321  28.687 -0.0094 -0.2055  0.2155
  106BOLB   C3B 2531  25.164   8.633  28.753  0.0906 -0.0585 -0.0328
  106BOLB   C4B 2532  25.159   9.121  28.806 -0.0453 -0.0406  0.1807
  106BOLB   NC2 2533  26.492   9.702  31.681 -0.1102  0.2104  0.0270
  106BOLB   PO2 2534  26.486   9.787  31.246 -0.1161  0.2224  0.0765
  106BOLB   GL3 2535  26.233   9.450  30.947 -0.1415  0.0438  0.0239
  106BOLB   GL4 2536  25.986   9.624  30.796 -0.2664 -0.1336 -0.0395
  106BOLB   C1C 2537  25.913   9.121  30.937 -0.2213  0.3218 -0.1336
  106BOLB   C2C 2538  25.457   8.982  30.934 -0.1211 -0.0634 -0.1103
  106BOLB   C3C 2539  25.038   9.066  30.850  0.1573  0.3675  0.1727
  106BOLB   C4C 2540  24.793   8.658  30.527  0.2226 -0.0094 -0.2549
  106BOLB   C1D 2541  25.754   9.422  30.502  0.0569  0.1763 -0.2092
  106BOLB   C2D 2542  25.433   9.058  30.383  0.1762  0.1529 -0.0151
  106BOLB   C3D 2543  25.338   8.658  30.504  0.0901  0.2228  0.0605
  106BOLB   C4D 2544  25.223   8.357  30.794  0.0907  0.2394 -0.0263
  107BOLB   NC1 2545  17.808  -3.698  21.955  0.0265  0.2301  0.0138
  107BOLB   PO1 2546  18.015  -3.977  22.189 -0.1663 -0.0039  0.1859
  107BOLB   GL1 2547  18.193  -4.441  22.026  0.0898 -0.0070 -0.1602
  107BOLB   GL2 2548  17.997  -4.629  21.979  0.0319 -0.0979 -0.1917
  107BOLB   C1A 2549  18.582  -4.643  21.970  0.1462  0.3694 -0.1964
  107BOLB   C2A 2550  18.735  -5.152  22.043  0.0851 -0.0449 -0.0330
  107BOLB   C3A 2551  18.846  -5.510  21.989  0.1547 -0.0008 -0.1193
  107BOLB   C4A 2552  19.113  -5.864  21.911 -0.0835 -0.0375  0.0898
  107BOLB   C1B 2553  18.295  -4.985  21.717  0.0313 -0.0812 -0.1308
  107BOLB   C2B 2554  18.563  -5.130  21.478  0.2401  0.2146 -0.3938
  107BOLB   C3B 2555  18.829  -5.440  21.416 -0.4745 -0.0657  0.0773
  107BOLB   C4B 2556  19.168  -5.611  21.453 -0.1273  0.1159 -0.2164
  107BOLB   NC2 2557  18.455  -8.219  20.839 -0.0492  0.2979  0.1652
  107BOLB   PO2 2558  18.650  -8.370  21.299  0.0304  0.1201 -0.0239
  107BOLB   GL3 2559  18.681  -7.970  21.332  0.0110 -0.0615  0.1012
  107BOLB   GL4 2560  18.831  -7.861  21.086 -0.0530  0.0445  0.2341
  107BOLB   C1C 2561  18.899  -7.618  21.563 -0.0171 -0.1101  0.2838
  107BOLB   C2C 2562  19.040  -7.260  21.765  0.2064 -0.1372  0.0203
  107BOLB   C3C 2563  19.038  -6.752  21.835  0.2045 -0.0943 -0.1243
  107BOLB   C4C 2564  18.985  -6.326  21.968  0.3297  0.2901 -0.1445
  107BOLB   C1D 2565  18.665  -7.411  21.104 -0.0998  0.0971 -0.0278
  107BOLB   C2D 2566  18.635  -6.996  21.000 -0.1350 -0.2170  0.0200
  107BOLB   C3D 2567  18.554  -6.512  21.121 -0.2186  0.0054 -0.0766
  107BOLB   C4D 2568  18.172  -6.302  21.100 -0.0300 -0.3814  0.0314
  108BOLB   NC1 2569  19.125  11.514  26.721 -0.2434 -0.2436  0.0311
  108BOLB   PO1 2570  18.787  11.717  26.853 -0.0244 -0.0702 -0.0069
  108BOLB   GL1 2571  19.149  11.922  26.982 -0.1595  0.1525  0.1670
  108BOLB   GL2 2572  19.067  12.060  26.620 -0.2441  0.0540  0.0861
  108BOLB   C1A 2573  19.475  12.278  26.808  0.0335 -0.3027  0.1627
  108BOLB   C2A 2574  19.730  12.680  26.838  0.1661  0.1509  0.1743
  108BOLB   C3A 2575  19.962  13.044  26.871  0.1514 -0.2028 -0.1797
  108BOLB   C4A 2576  20.030  13.394  26.914  0.0507  0.2000 -0.2090
  108BOLB   C1B 2577  19.134  12.503  26.390 -0.0703  0.0079 -0.1583
  108BOLB   C2B 2578  19.197  12.871  26.418  0.1270 -0.0807  0.1545
  108BOLB   C3B 2579  19.534  13.047  26.545 -0.1377 -0.0614 -0.1653
  108BOLB   C4B 2580  19.818  13.483  26.426 -0.1983 -0.3161  0.0091
  108BOLB   NC2 2581  20.553  15.880  25.832 -0.2211 -0.0931 -0.1601
  108BOLB   PO2 2582  20.231  15.578  26.038 -0.0550 -0.4032 -0.0970
  108BOLB   GL3 2583  19.856  15.307  26.260 -0.4772 -0.1364  0.0962
  108BOLB   GL4 2584  19.800  15.135  26.033 -0.2890  0.0247  0.2012
  108BOLB   C1C 2585  20.018  14.909  26.460  0.3177 -0.0663  0.2859
  108BOLB   C2C 2586  20.032  14.488  26.567 -0.2052 -0.1555  0.2252
  108BOLB   C3C 2587  20.139  14.116  26.347  0.1421 -0.0981  0.1895
  108BOLB   C4C 2588  20.176  13.802  26.675  0.1939  0.2034  0.1153
  108BOLB   C1D 2589  19.373  14.998  26.085  0.0299  0.0164 -0.1791
  108BOLB   C2D 2590  18.991  14.814  25.814 -0.0906 -0.3699  0.2130
  108BOLB   C3D 2591  19.058  14.374  25.663 -0.1234  0.0475 -0.0446
  108BOLB   C4D 2592  18.929  13.992  25.577 -0.0730 -0.1765 -0.2265
  109BOLB   NC1 2593  22.949  -1.028  20.866 -0.0395  0.1089 -0.1582
  109BOLB   PO1 2594  22.880  -0.697  20.841  0.0814  0.3809  0.1683
  109BOLB   GL1 2595  23.242  -0.662  20.525 -0.0360  0.0477 -0.4851
  109BOLB   GL2 2596  23.467  -0.338  20.578  0.1237  0.0765 -0.4346
  109BOLB   C1A 2597  23.596  -0.690  20.272 -0.3061 -0.1589 -0.0966
  109BOLB   C2A 2598  23.921  -0.691  20.022 -0.1966  0.0339 -0.1818
  109BOLB   C3A 2599  24.256  -0.650  19.699 -0.2912 -0.2642 -0.1037
  109BOLB   C4A 2600  24.419  -0.596  19.290 -0.1199 -0.6423 -0.0300
  109BOLB   C1B 2601  23.977  -0.277  20.458 -0.0910 -0.2628  0.1174
  109BOLB   C2B 2602  24.341  -0.029  20.525  0.0973 -0.5099 -0.1822
  109BOLB   C3B 2603  24.494   0.269  20.285  0.1109  0.2167  0.0421
  109BOLB   C4B 2604  24.672   0.286  19.966 -0.0453  0.0719 -0.1032
  109BOLB   NC2 2605  26.704  -0.717  18.081 -0.0839 -0.3367  0.0770
  109BOLB   PO2 2606  26.645  -0.308  18.203 -0.0453 -0.0807 -0.3657
  109BOLB   GL3 2607  26.261  -0.404  18.248  0.1894  0.0411  0.1410
  109BOLB   GL4 2608  26.264  -0.755  18.280  0.2638  0.4918  0.0104
  109BOLB   C1C 2609  25.916  -0.498  18.631 -0.0152 -0.1411 -0.0963
  109BOLB   C2C 2610  25.434  -0.588  18.731  0.4459 -0.4378  0.2659
  109BOLB   C3C 2611  24.990  -0.705  18.802 -0.1506 -0.0712 -0.0198
  109BOLB   C4C 2612  24.642  -0.756  18.985  0.2873 -0.1569  0.0603
  109BOLB   C1D 2613  25.823  -0.630  18.164 -0.0618  0.3037 -0.0285
  109BOLB   C2D 2614  25.605  -0.317  18.166  0.3101 -0.2046 -0.3018
  109BOLB   C3D 2615  25.682   0.073  18.031  0.2440 -0.1015  0.0245
  109BOLB   C4D 2616  25.444   0.534  18.196 -0.4008  0.1162 -0.3376
  110BOLB   NC1 2617  19.237  11.500  24.796  0.1966 -0.1772 -0.0322
  110BOLB   PO1 2618  18.879  11.820  24.757  0.1394 -0.0967  0.0716
  110BOLB   GL1 2619  18.771  12.276  24.885 -0.0709 -0.0093  0.3451
  110BOLB   GL2 2620  18.801  12.564  25.170  0.1382  0.1507  0.0878
  110BOLB   C1A 2621  19.026  12.601  24.709  0.3924  0.2817  0.1987
  110BOLB   C2A 2622  19.225  12.774  24.425  0.1194 -0.0764 -0.2300
  110BOLB   C3A 2623  19.421  13.149  24.367 -0.0312  0.2037  0.1758
  110BOLB   C4A 2624  19.219  13.646  24.297  0.2004  0.2238 -0.3517
  110BOLB   C1B 2625  18.447  12.832  25.152  0.0383 -0.2880 -0.4317
  110BOLB   C2B 2626  18.310  13.354  25.215 -0.0656  0.2072 -0.0985
  110BOLB   C3B 2627  18.552  13.738  25.334  0.1146 -0.1930 -0.0454
  110BOLB   C4B 2628  18.433  14.037  25.533 -0.3031  0.1884  0.1937
  110BOLB   NC2 2629  20.229  16.027  23.928  0.2440  0.1057 -0.0102
  110BOLB   PO2 2630  20.334  15.615  23.875  0.1825  0.2812 -0.2209
  110BOLB   GL3 2631  19.997  15.332  24.136 -0.0571  0.0848  0.2960
  110BOLB   GL4 2632  19.651  15.312  24.297  0.0835  0.0953  0.2225
  110BOLB   C1C 2633  19.889  14.966  23.931 -0.1384 -0.3968 -0.0296
  110BOLB   C2C 2634  19.621  14.651  23.994 -0.4273  0.0877  0.1311
  110BOLB   C3C 2635  19.559  14.330  24.151 -0.1121 -0.1133  0.1888
  110BOLB   C4C 2636  19.357  14.066  24.321 -0.0804 -0.3730  0.1107
  110BOLB   C1D 2637  19.298  15.053  23.993  0.1343 -0.1970  0.0259
  110BOLB   C2D 2638  19.006  14.716  23.855 -0.0581  0.2627 -0.0790
  110BOLB   C3D 2639  18.922  14.288  23.805  0.2638  0.0519 -0.4171
  110BOLB   C4D 2640  19.207  13.929  23.833 -0.0867 -0.1417  0.1495
  111BOLB   NC1 2641  13.014  -6.604  30.436 -0.0870 -0.2070  0.1717
  111BOLB   PO1 2642  13.474  -6.564  30.531  0.0714 -0.0469  0.1573
  111BOLB   GL1 2643  13.870  -6.310  30.287 -0.0468 -0.1375 -0.3552
  111BOLB   GL2 2644  13.752  -6.239  30.038 -0.4256  0.0204  0.1304
  111BOLB   C1A 2645  14.315  -6.078  30.120  0.2982  0.2002 -0.0728
  111BOLB   C2A 2646  14.490  -5.611  30.135 -0.2739 -0.0597  0.2611
  111BOLB   C3A 2647  14.623  -5.471  29.773  0.0859  0.0810  0.0633
  111BOLB   C4A 2648  14.672  -5.659  29.400  0.1201 -0.1618 -0.1729
  111BOLB   C1B 2649  13.562  -5.827  30.078  0.3153 -0.0634  0.0194
  111BOLB   C2B 2650  13.316  -5.389  29.950  0.0631  0.1558  0.3936
  111BOLB   C3B 2651  13.321  -4.976  29.726  0.1137  0.0130  0.0509
  111BOLB   C4B 2652  13.450  -5.023  29.254 -0.0886 -0.4204  0.2251
  111BOLB   NC2 2653  14.302  -8.135  27.960  0.0136  0.1423  0.2928
  111BOLB   PO2 2654  14.232  -7.655  28.201  0.2778  0.1349  0.1319
  111BOLB   GL3 2655  14.399  -7.259  28.298 -0.5234  0.2209  0.1599
  111BOLB   GL4 2656  14.151  -7.131  28.259  0.4239  0.1194  0.2996
  111BOLB   C1C 2657  14.778  -6.936  28.471 -0.0405  0.0967  0.0038
  111BOLB   C2C 2658  15.039  -6.712  28.817 -0.4017 -0.0583  0.0507
  111BOLB   C3C 2659  15.001  -6.376  29.087 -0.0086  0.0229 -0.0590
  111BOLB   C4C 2660  14.857  -5.946  29.201  0.1646  0.3106 -0.0796
  111BOLB   C1D 2661  13.911  -6.775  28.118  0.2546 -0.3759 -0.0246
  111BOLB   C2D 2662  13.661  -6.583  27.849 -0.0251  0.1506  0.1536
  111BOLB   C3D 2663  13.282  -6.484  27.766  0.2296  0.1201  0.1012
  111BOLB   C4D 2664  12.906  -6.705  27.923 -0.1790  0.2581  0.0240
  112BOLB   NC1 2665   9.514   4.529  31.412  0.0199 -0.0977 -0.0789
  112BOLB   PO1 2666   9.108   4.510  31.302  0.0669 -0.0814  0.3486
  112BOLB   GL1 2667   8.784   4.510  31.589  0.2879  0.1378  0.0097
  112BOLB   GL2 2668   8.539   4.316  31.424 -0.0354  0.1072 -0.2190
  112BOLB   C1A 2669   8.450   4.647  31.828 -0.0864  0.0250 -0.1775
  112BOLB   C2A 2670   8.289   4.912  32.025  0.1334  0.1246 -0.2754
  112BOLB   C3A 2671   8.016   5.113  32.179 -0.6289 -0.0108 -0.1469
  112BOLB   C4A 2672   7.853   5.483  32.110  0.0691 -0.1311 -0.4349
  112BOLB   C1B 2673   8.306   4.151  31.729  0.2411 -0.1108  0.0229
  112BOLB   C2B 2674   8.096   3.709  31.853 -0.2427 -0.2177 -0.2257
  112BOLB   C3B 2675   7.990   3.526  32.179  0.1323 -0.1657 -0.1560
  112BOLB   C4B 2676   7.635   3.407  32.415 -0.1617 -0.0009  0.1180
  112BOLB   NC2 2677   4.969   5.667  32.956  0.2106 -0.1498  0.2003
  112BOLB   PO2 2678   5.286   5.681  32.630  0.0328  0.4326 -0.1901
  112BOLB   GL3 2679   5.673   5.789  32.475  0.0427 -0.2264  0.0999
  112BOLB   GL4 2680   5.438   5.949  32.152 -0.0346  0.4418  0.5289
  112BOLB   C1C 2681   5.986   5.843  32.284 -0.2826 -0.2351  0.0350
  112BOLB   C2C 2682   6.498   5.815  32.337 -0.0081  0.0829 -0.1210
  112BOLB   C3C 2683   6.978   5.658  32.207  0.0301  0.3067 -0.0766
  112BOLB   C4C 2684   7.388   5.659  32.101  0.1382  0.0862  0.2461
  112BOLB   C1D 2685   5.724   6.160  31.955  0.3072  0.1881 -0.0521
  112BOLB   C2D 2686   5.917   6.589  32.044 -0.2607 -0.0311  0.1758
  112BOLB   C3D 2687   6.195   6.922  32.168  0.1217  0.3730 -0.0362
  112BOLB   C4D 2688   6.386   7.217  32.120  0.1319 -0.3233  0.1004
  113BOLB   NC1 2689  21.527   9.667  27.449  0.0173 -0.0718  0.0066
  113BOLB   PO1 2690  21.695   9.884  27.796 -0.0940  0.0388  0.0676
  113BOLB   GL1 2691  21.982  10.106  28.054 -0.1597 -0.1608  0.1201
  113BOLB   GL2 2692  21.813  10.328  28.078 -0.3567  0.0816  0.1472
  113BOLB   C1A 2693  22.135  10.231  28.482  0.0687 -0.0831  0.4559
  113BOLB   C2A 2694  22.383  10.587  28.648  0.0135  0.1962  0.0339
  113BOLB   C3A 2695  22.532  10.943  28.838 -0.0989  0.1297 -0.1071
  113BOLB   C4A 2696  22.680  11.375  28.914 -0.0439 -0.0817  0.1867
  113BOLB   C1B 2697  22.280  10.507  28.088  0.0092 -0.0129  0.0142
  113BOLB   C2B 2698  22.602  10.873  28.346  0.3533 -0.2540 -0.2349
  113BOLB   C3B 2699  22.973  11.094  28.625  0.3140  0.1942 -0.0015
  113BOLB   C4B 2700  23.145  11.113  29.032 -0.1487  0.1351  0.3841
  113BOLB   NC2 2701  24.623  13.491  29.218 -0.1355  0.1251  0.2881
  113BOLB   PO2 2702  24.326  13.214  29.417 -0.2522 -0.4269 -0.2173
  113BOLB   GL3 2703  24.010  12.903  29.348 -0.4546  0.1544 -0.2028
  113BOLB   GL4 2704  23.987  12.984  29.090 -0.2506 -0.2852 -0.1599
  113BOLB   C1C 2705  23.879  12.450  29.212  0.0115  0.0236 -0.1396
  113BOLB   C2C 2706  23.570  12.180  29.101 -0.1945 -0.0425  0.0861
  113BOLB   C3C 2707  23.255  11.975  29.239  0.0265 -0.0275  0.0270
  113BOLB   C4C 2708  22.989  11.665  29.095  0.0438  0.1522  0.0971
  113BOLB   C1D 2709  23.645  12.760  28.902 -0.1886  0.2082 -0.0020
  113BOLB   C2D 2710  23.403  12.371  28.706  0.0815 -0.1521 -0.4401
  113BOLB   C3D 2711  23.253  11.956  28.686  0.3065 -0.2202  0.0047
  113BOLB   C4D 2712  22.805  11.878  28.621  0.1389 -0.0250  0.3044
  114BOLB   NC1 2713  22.942  -8.007  13.456  0.0247 -0.2011  0.3109
  114BOLB   PO1 2714  22.699  -7.701  13.139 -0.2055 -0.0646  0.1462
  114BOLB   GL1 2715  22.509  -7.296  13.118 -0.0777  0.3589  0.0407
  114BOLB   GL2 2716  22.269  -7.362  13.078  0.0897 -0.1681  0.2093
  114BOLB   C1A 2717  22.300  -7.049  13.505  0.0848  0.0010  0.1992
  114BOLB   C2A 2718  22.159  -7.212  13.885 -0.2564 -0.2844 -0.0783
  114BOLB   C3A 2719  21.645  -7.385  13.836  0.1083  0.1879 -0.0104
  114BOLB   C4A 2720  21.481  -7.817  13.782  0.3052  0.2388  0.0486
  114BOLB   C1B 2721  21.948  -7.394  13.452  0.1805 -0.0324  0.0108
  114BOLB   C2B 2722  21.833  -6.931  13.682  0.0425  0.3785  0.0829
  114BOLB   C3B 2723  22.117  -6.676  13.950 -0.4612  0.2666 -0.2307
  114BOLB   C4B 2724  22.148  -6.384  14.081  0.2788  0.3221  0.3759
  114BOLB   NC2 2725  21.578  -8.003  12.226 -0.0671  0.0696 -0.1505
  114BOLB   PO2 2726  21.144  -8.035  12.163 -0.0557 -0.1518  0.0049
  114BOLB   GL3 2727  21.002  -7.642  12.365 -0.1711 -0.1847 -0.0144
  114BOLB   GL4 2728  21.068  -7.296  12.480 -0.3344 -0.0764  0.2109
  114BOLB   C1C 2729  20.595  -7.513  12.590 -0.1629  0.0623 -0.0558
  114BOLB   C2C 2730  20.531  -7.666  12.995 -0.1663  0.2470  0.0981
  114BOLB   C3C 2731  20.826  -7.829  13.304 -0.0140  0.1227 -0.0030
  114BOLB   C4C 2732  21.190  -7.899  13.513 -0.2504  0.0534 -0.0388
  114BOLB   C1D 2733  20.819  -7.072  12.687  0.2023  0.1825 -0.2590
  114BOLB   C2D 2734  20.476  -6.713  12.899 -0.0712  0.1386 -0.1119
  114BOLB   C3D 2735  20.162  -6.732  13.225  0.0157  0.0275  0.3431
  114BOLB   C4D 2736  19.968  -6.579  13.583  0.5222 -0.1723  0.0170
  115BOLB   NC1 2737  11.985  -1.350  29.584  0.1450  0.0938 -0.1523
  115BOLB   PO1 2738  11.643  -1.663  29.618  0.0869 -0.3635 -0.2554
  115BOLB   GL1 2739  11.253  -1.876  29.644  0.4401 -0.4735 -0.0466
  115BOLB   GL2 2740  11.263  -1.928  29.969  0.2374  0.1356 -0.2453
  115BOLB   C1A 2741  11.040  -2.372  29.558 -0.1507 -0.0126 -0.2808
  115BOLB   C2A 2742  10.754  -2.693  29.369 -0.1061  0.2914 -0.2471
  115BOLB   C3A 2743  10.553  -3.077  29.374  0.1258  0.2012  0.2935
  115BOLB   C4A 2744  10.526  -3.503  29.343  0.3220  0.0659 -0.0336
  115BOLB   C1B 2745  11.351  -2.198  30.195 -0.1506 -0.0594  0.1232
  115BOLB   C2B 2746  11.459  -2.611  30.374 -0.0151 -0.0690 -0.0491
  115BOLB   C3B 2747  11.390  -2.834  30.763 -0.1310  0.0164 -0.2992
  115BOLB   C4B 2748  11.581  -2.567  31.122 -0.0635  0.2863 -0.0930
  115BOLB   NC2 2749   9.198  -5.794  29.854 -0.0108 -0.2719  0.0207
  115BOLB   PO2 2750   9.544  -5.624  29.948  0.2485  0.0435  0.1771
  115BOLB   GL3 2751   9.933  -5.446  29.833 -0.0385  0.0423 -0.2477
  115BOLB   GL4 2752   9.784  -5.046  29.775 -0.3604 -0.3330 -0.1105
  115BOLB   C1C 2753  10.368  -5.268  29.677 -0.0704  0.1599  0.1142
  115BOLB   C2C 2754  10.339  -4.821  29.739  0.2180  0.3482 -0.0877
  115BOLB   C3C 2755  10.380  -4.372  29.729  0.1065 -0.2729 -0.1483
  115BOLB   C4C 2756  10.591  -4.014  29.475 -0.3310  0.2519  0.0362
  115BOLB   C1D 2757   9.933  -4.583  29.721 -0.1261  0.2195 -0.3680
  115BOLB   C2D 2758   9.908  -4.076  29.667  0.0578 -0.2560  0.1696
  115BOLB   C3D 2759  10.093  -3.838  29.373 -0.0741  0.4535  0.0248
  115BOLB   C4D 2760  10.179  -3.545  28.950 -0.2825 -0.0118  0.0389
  116BOLB   NC1 2761  14.448  11.315  29.715  0.0359 -0.0083 -0.2723
  116BOLB   PO1 2762  14.613  11.694  29.800  0.2237  0.1157 -0.1307
  116BOLB   GL1 2763  14.517  11.911  30.099  0.2404 -0.0835 -0.0925
  116BOLB   GL2 2764  14.792  12.008  30.376  0.2199 -0.3621  0.3681
  116BOLB   C1A 2765  14.384  12.271  30.185  0.1213 -0.0167  0.0466
  116BOLB   C2A 2766  14.277  12.634  30.412 -0.0071  0.2370 -0.2786
  116BOLB   C3A 2767  14.342  12.969  30.763 -0.0978 -0.3367 -0.0692
  116BOLB   C4A 2768  14.462  13.339  30.687  0.2473  0.0603 -0.4125
  116BOLB   C1B 2769  14.949  12.265  30.062  0.2249 -0.0825  0.1076
  116BOLB   C2B 2770  15.085  12.613  30.081 -0.0130  0.0669 -0.0735
  116BOLB   C3B 2771  15.220  12.854  30.456  0.0616 -0.1031  0.0198
  116BOLB   C4B 2772  15.343  13.156  30.682  0.3362  0.2760 -0.0712
  116BOLB   NC2 2773  15.787  15.401  32.068 -0.4372  0.2446 -0.0515
  116BOLB   PO2 2774  15.419  15.052  32.050  0.1529  0.1703  0.1809
  116BOLB   GL3 2775  15.474  14.761  31.708  0.1670  0.4026 -0.0372
  116BOLB   GL4 2776  15.219  14.752  31.385  0.1513 -0.0885  0.3235
  116BOLB   C1C 2777  15.601  14.421  31.389  0.0338  0.1175 -0.0466
  116BOLB   C2C 2778  15.239  14.262  31.187  0.1028  0.0093  0.1527
  116BOLB   C3C 2779  14.871  14.082  30.967 -0.0403 -0.0844 -0.0874
  116BOLB   C4C 2780  14.648  13.748  30.711  0.1757  0.5213 -0.0543
  116BOLB   C1D 2781  15.025  14.406  31.616 -0.1319  0.0654  0.2785
  116BOLB   C2D 2782  14.864  13.943  31.532 -0.3367  0.0117  0.1399
  116BOLB   C3D 2783  14.779  13.622  31.169 -0.0836 -0.2918 -0.1351
  116BOLB   C4D 2784  15.062  13.305  31.031 -0.2879 -0.2170 -0.2167
  117BOLB   NC1 2785  17.740   1.397  10.707  0.0069  0.1418 -0.0085
  117BOLB   PO1 2786  18.047   1.409  10.978 -0.2055  0.0579 -0.0204
  117BOLB   GL1 2787  18.274   1.289  11.381 -0.0388 -0.1319  0.2458
  117BOLB   GL2 2788  17.973   1.131  11.557 -0.0001 -0.0443 -0.0753
  117BOLB   C1A 2789  18.706   1.364  11.498  0.1853 -0.1625 -0.4021
  117BOLB   C2A 2790  19.090   1.188  11.682  0.0630 -0.4676 -0.0401
  117BOLB   C3A 2791  19.465   1.066  11.856  0.1729 -0.1334 -0.0924
  117BOLB   C4A 2792  19.668   0.762  11.878  0.1410  0.0107  0.0334
  117BOLB   C1B 2793  17.536   1.031  11.683  0.0969  0.2763  0.0462
  117BOLB   C2B 2794  17.438   0.729  11.860  0.2589  0.2530 -0.0588
  117BOLB   C3B 2795  17.296   0.439  12.045  0.1424  0.1651  0.4103
  117BOLB   C4B 2796  17.315   0.130  11.671  0.1292 -0.0582 -0.4229
  117BOLB   NC2 2797  20.220   0.333  10.225 -0.3164 -0.2345 -0.0580
  117BOLB   PO2 2798  20.155  -0.023   9.926 -0.1703 -0.0792  0.0336
  117BOLB   GL3 2799  19.945  -0.097  10.357  0.2650 -0.1264  0.1119
  117BOLB   GL4 2800  19.570  -0.012  10.385 -0.1245  0.3175  0.0001
  117BOLB   C1C 2801  20.179  -0.036  10.808  0.1635  0.1016  0.1331
  117BOLB   C2C 2802  20.297   0.033  11.215  0.1265 -0.0014  0.2275
  117BOLB   C3C 2803  20.137   0.201  11.603  0.3593  0.3259  0.0833
  117BOLB   C4C 2804  19.867   0.305  11.790  0.2652 -0.2006  0.0737
  117BOLB   C1D 2805  19.484  -0.202  10.768  0.2259 -0.3456  0.1296
  117BOLB   C2D 2806  19.445  -0.519  11.142 -0.1340  0.2598 -0.0774
  117BOLB   C3D 2807  19.657  -0.668  11.554 -0.1534 -0.0008 -0.3422
  117BOLB   C4D 2808  19.877  -0.776  11.983 -0.0199  0.0963 -0.0648
  118BOLB   NC1 2809  24.425   4.731  29.174  0.2786  0.1844 -0.5296
  118BOLB   PO1 2810  24.101   4.603  29.460 -0.2422 -0.0555  0.0510
  118BOLB   GL1 2811  24.274   5.048  29.639  0.2567 -0.0380 -0.1332
  118BOLB   GL2 2812  24.232   4.882  29.985  0.1047 -0.2668  0.5759
  118BOLB   C1A 2813  24.696   5.284  29.696  0.1057  0.0018  0.1306
  118BOLB   C2A 2814  25.093   5.446  29.696  0.1390 -0.0048  0.3978
  118BOLB   C3A 2815  25.473   5.525  29.935  0.1914  0.0754  0.0440
  118BOLB   C4A 2816  25.751   5.676  30.218  0.0055 -0.1194  0.1481
  118BOLB   C1B 2817  24.713   4.828  30.067  0.3725 -0.0707 -0.1874
  118BOLB   C2B 2818  25.095   4.955  30.056 -0.0083 -0.0558  0.3559
  118BOLB   C3B 2819  25.413   5.161  30.240  0.2840 -0.6759 -0.1753
  118BOLB   C4B 2820  25.819   5.166  30.261 -0.1799 -0.1670  0.0341
  118BOLB   NC2 2821  27.868   6.715  30.552 -0.0934 -0.1351  0.0377
  118BOLB   PO2 2822  27.827   6.787  31.045  0.0645  0.0257 -0.1354
  118BOLB   GL3 2823  27.425   6.740  30.890 -0.0551  0.2563 -0.3217
  118BOLB   GL4 2824  27.265   6.979  31.034 -0.0871 -0.0772 -0.1692
  118BOLB   C1C 2825  27.194   6.637  30.598  0.1906 -0.0977 -0.1298
  118BOLB   C2C 2826  26.766   6.391  30.705 -0.1359  0.1130 -0.2535
  118BOLB   C3C 2827  26.440   6.070  30.566 -0.0466 -0.0361  0.0159
  118BOLB   C4C 2828  26.063   5.813  30.437  0.2346  0.0637 -0.1914
  118BOLB   C1D 2829  26.912   6.837  30.950  0.0308 -0.2204  0.0699
  118BOLB   C2D 2830  26.471   6.772  30.870 -0.1872  0.1839 -0.1912
  118BOLB   C3D 2831  26.086   6.663  30.647 -0.1359 -0.4193  0.2229
  118BOLB   C4D 2832  25.877   6.339  30.390  0.1039 -0.0050  0.2114
  119BOLB   NC1 2833  28.282   6.422  24.849 -0.1052  0.1263  0.0225
  119BOLB   PO1 2834  28.146   6.622  24.684 -0.3125 -0.2259 -0.2405
  119BOLB   GL1 2835  27.823   6.539  24.799  0.1270  0.0017 -0.1578
  119BOLB   GL2 2836  27.807   6.333  24.945 -0.2498 -0.0293 -0.1854
  119BOLB   C1A 2837  27.424   6.648  24.945 -0.0433 -0.0116  0.1072
  119BOLB   C2A 2838  27.086   6.887  24.803 -0.0817  0.0515  0.2473
  119BOLB   C3A 2839  26.837   7.222  24.694  0.2694  0.1770  0.0725
  119BOLB   C4A 2840  26.571   7.469  24.851 -0.1073 -0.3337 -0.0791
  119BOLB   C1B 2841  27.568   6.015  24.741  0.0801 -0.3588 -0.0400
  119BOLB   C2B 2842  27.253   5.799  24.543 -0.2338 -0.2543  0.0571
  119BOLB   C3B 2843  27.148   5.388  24.441 -0.2837 -0.1671  0.2090
  119BOLB   C4B 2844  26.851   5.243  24.761  0.0327  0.0803 -0.0005
  119BOLB   NC2 2845  27.917   8.708  24.334  0.0261 -0.2316 -0.1656
  119BOLB   PO2 2846  28.076   8.422  24.512  0.5002  0.1825 -0.1724
  119BOLB   GL3 2847  27.773   8.492  24.749 -0.1947  0.1200  0.0382
  119BOLB   GL4 2848  27.864   8.591  25.010 -0.0804 -0.0993  0.0763
  119BOLB   C1C 2849  27.431   8.420  24.835 -0.1078 -0.0490 -0.1800
  119BOLB   C2C 2850  27.043   8.358  24.981 -0.2306 -0.0725 -0.4164
  119BOLB   C3C 2851  26.623   8.262  24.884 -0.2189 -0.1920 -0.2158
  119BOLB   C4C 2852  26.417   7.886  24.966 -0.0116 -0.0800  0.3460
  119BOLB   C1D 2853  27.688   8.394  25.330 -0.0757 -0.0769  0.0857
  119BOLB   C2D 2854  27.416   8.105  25.247 -0.0988  0.0157 -0.1112
  119BOLB   C3D 2855  27.421   7.795  24.990  0.0277  0.4001  0.0273
  119BOLB   C4D 2856  27.300   7.342  24.939  0.0380 -0.2105 -0.1722
  120BOLB   NC1 2857   9.904   9.226  22.261  0.1503 -0.1230  0.1632
  120BOLB   PO1 2858  10.207   9.536  22.170 -0.0369  0.2642 -0.0836
  120BOLB   GL1 2859  10.163   9.970  22.046  0.1964 -0.3652 -0.0762
  120BOLB   GL2 2860  10.004   9.929  21.732  0.1283  0.2256 -0.0126
  120BOLB   C1A 2861   9.767  10.099  22.087 -0.4098  0.2227 -0.2844
  120BOLB   C2A 2862   9.634  10.386  21.845  0.4070  0.0721  0.2600
  120BOLB   C3A 2863   9.294  10.389  21.615 -0.0102 -0.1235  0.1720
  120BOLB   C4A 2864   8.997  10.493  21.390 -0.0367  0.1371  0.1270
  120BOLB   C1B 2865   9.597  10.016  21.578  0.1887 -0.0144  0.2355
  120BOLB   C2B 2866   9.404  10.254  21.174  0.0818  0.2019 -0.0950
  120BOLB   C3B 2867   9.444  10.502  20.819  0.2075  0.0635  0.2275
  120BOLB   C4B 2868   9.367  10.842  20.484 -0.0628  0.0242 -0.2826
  120BOLB   NC2 2869   7.558  12.050  19.750  0.4150  0.3067  0.0760
  120BOLB   PO2 2870   7.689  11.881  20.207  0.1871 -0.1371 -0.0243
  120BOLB   GL3 2871   7.779  11.773  20.591  0.2538 -0.1870 -0.1997
  120BOLB   GL4 2872   8.061  11.775  20.574 -0.1758  0.1207 -0.1507
  120BOLB   C1C 2873   7.937  11.498  20.985  0.1556 -0.0952 -0.0391
  120BOLB   C2C 2874   8.360  11.361  21.198  0.2225 -0.1613 -0.1082
  120BOLB   C3C 2875   8.455  10.991  21.197  0.0624 -0.2133  0.2484
  120BOLB   C4C 2876   8.845  10.801  21.223  0.0427 -0.0821 -0.0463
  120BOLB   C1D 2877   8.426  11.501  20.698  0.0872 -0.0550 -0.2501
  120BOLB   C2D 2878   8.675  11.059  20.684 -0.1467  0.0131 -0.2012
  120BOLB   C3D 2879   8.518  10.620  20.843 -0.0009 -0.1211 -0.1363
  120BOLB   C4D 2880   8.355  10.164  20.878 -0.0223 -0.1934 -0.1592
  121BOLB   NC1 2881  17.403  12.983  17.293  0.0762  0.1321  0.0469
  121BOLB   PO1 2882  17.731  13.023  17.561 -0.3504 -0.2895 -0.0057
  121BOLB   GL1 2883  17.828  12.672  17.723 -0.0568 -0.1949  0.1794
  121BOLB   GL2 2884  18.152  12.670  17.945  0.0843 -0.0707  0.1342
  121BOLB   C1A 2885  17.585  12.337  17.876  0.3216  0.1162  0.2093
  121BOLB   C2A 2886  17.441  12.182  18.226  0.2815  0.1952  0.1473
  121BOLB   C3A 2887  17.278  12.143  18.633 -0.2597 -0.2238 -0.3327
  121BOLB   C4A 2888  16.905  12.116  18.867 -0.0057  0.0487  0.1954
  121BOLB   C1B 2889  18.031  12.272  18.146 -0.3363 -0.1847 -0.0427
  121BOLB   C2B 2890  17.922  12.098  18.549  0.0620 -0.0187  0.1292
  121BOLB   C3B 2891  17.787  11.872  19.053  0.2963 -0.1152 -0.2425
  121BOLB   C4B 2892  17.248  11.873  19.084 -0.0634  0.3567 -0.3260
  121BOLB   NC2 2893  15.312  13.244  17.625 -0.2436  0.0615  0.2207
  121BOLB   PO2 2894  15.398  13.595  17.957 -0.1103 -0.4022  0.0078
  121BOLB   GL3 2895  15.744  13.252  18.066 -0.3889  0.1422  0.0935
  121BOLB   GL4 2896  15.953  13.025  17.842  0.0361 -0.4613  0.1107
  121BOLB   C1C 2897  15.938  13.128  18.492  0.2243 -0.1205 -0.1689
  121BOLB   C2C 2898  16.045  12.914  18.838 -0.2628  0.0450 -0.0951
  121BOLB   C3C 2899  16.475  12.824  19.104 -0.0051 -0.0437 -0.0381
  121BOLB   C4C 2900  16.569  12.434  19.154 -0.0518 -0.0306 -0.0137
  121BOLB   C1D 2901  16.020  12.688  18.132  0.0677  0.0896  0.2502
  121BOLB   C2D 2902  16.133  12.482  18.460 -0.0073  0.0053  0.0737
  121BOLB   C3D 2903  16.107  12.393  18.912 -0.1346 -0.1067  0.0512
  121BOLB   C4D 2904  15.827  12.684  19.258  0.2432 -0.1016  0.0727
  122BOLB   NC1 2905  11.833  -3.670  24.177 -0.1855 -0.1175  0.1634
  122BOLB   PO1 2906  11.759  -3.916  23.872 -0.0739 -0.3141  0.1511
  122BOLB   GL1 2907  11.489  -4.142  23.757  0.2064  0.2909  0.0938
  122BOLB   GL2 2908  11.635  -4.428  23.763 -0.1201 -0.5341  0.3212
  122BOLB   C1A 2909  11.185  -4.464  23.687  0.0383  0.0712 -0.0991
  122BOLB   C2A 2910  11.163  -4.790  23.350 -0.0457 -0.0593  0.2306
  122BOLB   C3A 2911  10.954  -4.951  22.904 -0.1523  0.3570 -0.3473
  122BOLB   C4A 2912  10.749  -5.082  22.578 -0.2280  0.1430  0.0884
  122BOLB   C1B 2913  11.480  -4.902  23.874 -0.1375  0.0907  0.3457
  122BOLB   C2B 2914  11.257  -5.213  23.625  0.0369  0.1477 -0.1797
  122BOLB   C3B 2915  11.370  -5.681  23.341  0.0358 -0.1719 -0.2817
  122BOLB   C4B 2916  11.751  -5.996  23.347 -0.0443 -0.3505  0.3730
  122BOLB   NC2 2917   9.691  -7.171  22.319 -0.1137 -0.0230 -0.0774
  122BOLB   PO2 2918  10.044  -7.451  22.163 -0.2261  0.2239  0.1008
  122BOLB   GL3 2919  10.198  -7.100  22.072  0.1072 -0.0754 -0.0220
  122BOLB   GL4 2920  10.088  -6.891  21.832  0.0072 -0.1175  0.1394
  122BOLB   C1C 2921  10.433  -6.693  22.162  0.1692  0.2831  0.0619
  122BOLB   C2C 2922  10.489  -6.286  22.334  0.0564  0.0495  0.1748
  122BOLB   C3C 2923  10.311  -5.736  22.255  0.0632 -0.1195  0.2562
  122BOLB   C4C 2924  10.459  -5.277  22.318  0.0572  0.0665  0.1504
  122BOLB   C1D 2925  10.338  -6.619  21.664 -0.0607 -0.2746 -0.0213
  122BOLB   C2D 2926  10.701  -6.372  21.765 -0.0483  0.0027  0.1916
  122BOLB   C3D 2927  11.082  -6.187  21.633  0.0191 -0.2417 -0.1891
  122BOLB   C4D 2928  11.365  -6.136  21.286  0.4911 -0.0086  0.2242
  123BOLB   NC1 2929  11.622   0.908  30.747 -0.2647  0.1851  0.1656
  123BOLB   PO1 2930  11.304   0.763  31.148  0.2692 -0.0808  0.4120
  123BOLB   GL1 2931  11.118   0.551  31.516  0.0035 -0.1852  0.3694
  123BOLB   GL2 2932  11.066   0.765  31.701  0.0404  0.2030  0.4023
  123BOLB   C1A 2933  10.844   0.238  31.630  0.0446  0.2026 -0.4206
  123BOLB   C2A 2934  10.455   0.137  31.799  0.1418  0.2169 -0.2257
  123BOLB   C3A 2935  10.211   0.250  32.040  0.2975 -0.2505  0.2060
  123BOLB   C4A 2936   9.844   0.135  32.219 -0.3522 -0.2264 -0.1530
  123BOLB   C1B 2937  10.922   0.483  31.989  0.0886 -0.2772 -0.4182
  123BOLB   C2B 2938  10.806   0.047  32.108 -0.1173  0.1532  0.1307
  123BOLB   C3B 2939  10.642  -0.265  31.931  0.1184 -0.0595 -0.2703
  123BOLB   C4B 2940  10.887  -0.591  31.644  0.0911 -0.3298  0.1320
  123BOLB   NC2 2941   9.252  -1.042  34.656  0.4968  0.0187 -0.0072
  123BOLB   PO2 2942   8.949  -1.052  34.257  0.1253 -0.2375  0.1698
  123BOLB   GL3 2943   9.045  -0.779  33.778 -0.0013  0.2946 -0.2180
  123BOLB   GL4 2944   9.007  -0.431  33.860  0.0899 -0.0067  0.1976
  123BOLB   C1C 2945   9.054  -0.537  33.323 -0.1527 -0.0295 -0.2130
  123BOLB   C2C 2946   9.021  -0.262  32.980  0.0764  0.2641  0.1474
  123BOLB   C3C 2947   9.095   0.054  32.605  0.1769  0.0843 -0.4240
  123BOLB   C4C 2948   9.406   0.170  32.423  0.1630  0.3128 -0.0324
  123BOLB   C1D 2949   9.340  -0.185  33.657  0.1186 -0.1544 -0.3508
  123BOLB   C2D 2950   9.659  -0.019  33.445 -0.2471 -0.1304  0.0284
  123BOLB   C3D 2951   9.939  -0.088  33.162 -0.1120 -0.2035  0.5019
  123BOLB   C4D 2952  10.188  -0.327  32.894  0.0211  0.1367  0.1107
  124BOLB   NC1 2953  11.747  -1.335  30.049  0.0430 -0.3175  0.3861
  124BOLB   PO1 2954  11.859  -1.056  30.359 -0.0506 -0.0718  0.0023
  124BOLB   GL1 2955  11.658  -1.471  30.561  0.2235 -0.0225 -0.1066
  124BOLB   GL2 2956  11.689  -1.496  30.851  0.0346  0.3422 -0.1065
  124BOLB   C1A 2957  11.239  -1.661  30.611  0.1199  0.0539 -0.2810
  124BOLB   C2A 2958  11.052  -1.889  30.385 -0.1452 -0.2117  0.3867
  124BOLB   C3A 2959  10.941  -2.330  30.378 -0.0344  0.0100  0.1165
  124BOLB   C4A 2960  10.976  -2.763  30.568  0.3622  0.1142 -0.0860
  124BOLB   C1B 2961  11.544  -1.842  31.076 -0.1768  0.3515 -0.0010
  124BOLB   C2B 2962  11.351  -2.171  31.291  0.0135  0.0637  0.3528
  124BOLB   C3B 2963  11.142  -2.330  31.676 -0.3885 -0.0687  0.2266
  124BOLB   C4B 2964  11.415  -2.210  32.062  0.0094 -0.0728  0.0834
  124BOLB   NC2 2965   9.790  -4.935  32.220  0.2254 -0.1051  0.1916
  124BOLB   PO2 2966   9.762  -4.684  31.811  0.1452  0.2860  0.1602
  124BOLB   GL3 2967   9.966  -4.522  31.376 -0.0684 -0.2081 -0.0175
  124BOLB   GL4 2968  10.314  -4.563  31.302  0.0596 -0.2872  0.0541
  124BOLB   C1C 2969  10.146  -4.048  31.298 -0.3135  0.0379  0.0340
  124BOLB   C2C 2970  10.229  -3.718  31.066 -0.1516  0.0987 -0.6676
  124BOLB   C3C 2971  10.368  -3.374  30.838 -0.2411 -0.2080 -0.0113
  124BOLB   C4C 2972  10.678  -3.113  30.659 -0.4465  0.0576 -0.0842
  124BOLB   C1D 2973  10.290  -4.398  30.903  0.0131  0.0406  0.1257
  124BOLB   C2D 2974  10.569  -3.986  30.836  0.2698 -0.4644 -0.0090
  124BOLB   C3D 2975  10.898  -3.580  30.764  0.1819 -0.1303  0.0334
  124BOLB   C4D 2976  11.141  -3.318  30.675  0.0671  0.0466  0.0182
  125BOLB   NC1 2977  14.707   3.606  16.143  0.1793 -0.1883 -0.2440
  125BOLB   PO1 2978  15.092   3.856  16.218 -0.2197  0.0179 -0.0586
  125BOLB   GL1 2979  15.304   3.971  15.796 -0.2513  0.0583  0.1396
  125BOLB   GL2 2980  15.343   4.271  15.825  0.0017  0.1502  0.0748
  125BOLB   C1A 2981  15.535   4.057  15.376 -0.2492 -0.0228 -0.1449
  125BOLB   C2A 2982  15.575   4.078  15.102  0.0781 -0.0529 -0.0302
  125BOLB   C3A 2983  15.373   4.047  14.740 -0.1063 -0.0383  0.4008
  125BOLB   C4A 2984  15.405   3.812  14.455 -0.2626 -0.1459  0.0868
  125BOLB   C1B 2985  15.599   4.564  15.407  0.2617 -0.1637 -0.0131
  125BOLB   C2B 2986  15.736   4.803  15.108  0.3679 -0.2535  0.3237
  125BOLB   C3B 2987  15.936   5.038  15.007  0.0060  0.2248 -0.1586
  125BOLB   C4B 2988  15.942   5.446  14.885  0.0544 -0.0026  0.0891
  125BOLB   NC2 2989  14.119   2.958  12.693 -0.0402  0.1722  0.1568
  125BOLB   PO2 2990  14.521   3.199  12.514  0.1281 -0.2638 -0.1782
  125BOLB   GL3 2991  14.513   3.170  12.968  0.1747  0.3108 -0.0749
  125BOLB   GL4 2992  14.382   2.886  13.098  0.0565 -0.0262  0.1047
  125BOLB   C1C 2993  14.704   3.326  13.293 -0.3139  0.1056  0.1019
  125BOLB   C2C 2994  14.938   3.288  13.665  0.4441 -0.0291  0.0458
  125BOLB   C3C 2995  15.333   3.433  13.721 -0.1622 -0.1584  0.0940
  125BOLB   C4C 2996  15.567   3.617  14.034  0.0519  0.0286  0.0603
  125BOLB   C1D 2997  14.266   2.666  13.490  0.0131 -0.2952 -0.2793
  125BOLB   C2D 2998  14.407   2.598  13.818 -0.1904  0.0574  0.1384
  125BOLB   C3D 2999  14.305   2.360  14.124 -0.2659  0.2146  0.0637
  125BOLB   C4D 3000  14.526   2.317  14.556  0.1617 -0.0130  0.0379
  126BOLB   NC1 3001  11.369  10.914  23.355 -0.2591 -0.0164  0.0710
  126BOLB   PO1 3002  11.237  11.199  23.452  0.1736  0.2112  0.3473
  126BOLB   GL1 3003  11.015  11.504  23.237  0.2568 -0.4483 -0.0807
  126BOLB   GL2 3004  11.244  11.744  23.155  0.2785 -0.2140 -0.2009
  126BOLB   C1A 3005  10.835  11.920  23.326  0.1873  0.3226 -0.2071
  126BOLB   C2A 3006  10.858  12.288  23.260 -0.0066  0.1029 -0.3921
  126BOLB   C3A 3007  10.880  12.723  23.133 -0.3017 -0.1575  0.1645
  126BOLB   C4A 3008  10.770  13.182  22.983 -0.1453  0.5010  0.1264
  126BOLB   C1B 3009  11.224  12.168  22.921 -0.0559  0.1330  0.0371
  126BOLB   C2B 3010  11.300  12.426  23.036  0.0985 -0.0146 -0.1810
  126BOLB   C3B 3011  11.620  12.708  22.864  0.1951  0.2005 -0.0724
  126BOLB   C4B 3012  11.547  13.041  22.493 -0.1399  0.2460 -0.1975
  126BOLB   NC2 3013  10.610  15.144  22.562 -0.2706  0.3160  0.0123
  126BOLB   PO2 3014  10.999  15.011  22.293  0.2996  0.1153 -0.1504
  126BOLB   GL3 3015  11.080  14.609  22.318 -0.0093  0.2295  0.1802
  126BOLB   GL4 3016  11.262  14.502  22.141 -0.1420 -0.3169  0.4595
  126BOLB   C1C 3017  10.927  14.282  22.428  0.0526 -0.1339 -0.3441
  126BOLB   C2C 3018  10.668  13.885  22.633  0.0709 -0.1760  0.1519
  126BOLB   C3C 3019  10.288  13.675  22.700 -0.1264 -0.0849  0.1395
  126BOLB   C4C 3020  10.384  13.284  22.924 -0.1967 -0.1849  0.2074
  126BOLB   C1D 3021  11.649  14.352  22.136 -0.1188 -0.0513  0.1317
  126BOLB   C2D 3022  11.851  13.916  22.161 -0.2370 -0.0894 -0.0558
  126BOLB   C3D 3023  12.119  13.505  22.201  0.1285 -0.0488  0.2141
  126BOLB   C4D 3024  12.513  13.314  22.075  0.0784  0.2169 -0.2465
  127BOLB   NC1 3025  24.223   0.056  26.904 -0.1694  0.1923 -0.2568
  127BOLB   PO1 3026  24.251   0.176  26.494 -0.0394 -0.0640 -0.4177
  127BOLB   GL1 3027  24.506  -0.197  26.532 -0.1603  0.2153 -0.1309
  127BOLB   GL2 3028  24.659  -0.056  26.799 -0.0721  0.0995 -0.0230
  127BOLB   C1A 3029  24.821  -0.599  26.598  0.2258  0.1850 -0.1335
  127BOLB   C2A 3030  25.160  -0.908  26.521  0.2450 -0.0679 -0.2496
  127BOLB   C3A 3031  25.561  -0.960  26.301 -0.0770 -0.1932  0.1557
  127BOLB   C4A 3032  25.520  -1.150  25.891  0.0466 -0.1532  0.4626
  127BOLB   C1B 3033  25.130  -0.048  26.483 -0.0357 -0.1820 -0.1784
  127BOLB   C2B 3034  25.529  -0.142  26.519  0.1625  0.1869 -0.1505
  127BOLB   C3B 3035  25.678  -0.463  26.440  0.0373  0.2309  0.1326
  127BOLB   C4B 3036  26.059  -0.486  26.611  0.0845  0.0018 -0.0976
  127BOLB   NC2 3037  22.870  -0.541  25.621 -0.2014  0.1558 -0.0330
  127BOLB   PO2 3038  23.393  -0.689  25.413  0.0322 -0.0913 -0.3680
  127BOLB   GL3 3039  23.588  -1.057  25.421  0.1349  0.0568  0.2016
  127BOLB   GL4 3040  23.682  -1.093  25.056 -0.1525 -0.1213 -0.0469
  127BOLB   C1C 3041  23.933  -1.320  25.633 -0.1424  0.0143  0.1410
  127BOLB   C2C 3042  24.383  -1.434  25.752  0.0043 -0.2699 -0.3602
  127BOLB   C3C 3043  24.807  -1.439  25.511 -0.1676 -0.0877 -0.1348
  127BOLB   C4C 3044  25.099  -1.391  25.704  0.2006  0.1782 -0.0835
  127BOLB   C1D 3045  23.858  -1.471  25.123 -0.0221  0.4440 -0.2774
  127BOLB   C2D 3046  24.058  -1.798  25.517 -0.2560  0.0580 -0.2221
  127BOLB   C3D 3047  24.249  -1.889  25.918  0.0316  0.0468 -0.0627
  127BOLB   C4D 3048  24.432  -1.726  26.286  0.0709  0.1783 -0.0292
  128BOLB   NC1 3049   3.849   1.263  21.124 -0.2131  0.0741 -0.0578
  128BOLB   PO1 3050   3.586   1.334  21.484 -0.4084  0.1835 -0.0955
  128BOLB   GL1 3051   3.933   1.485  21.583 -0.0468 -0.2834 -0.1026
  128BOLB   GL2 3052   4.097   1.627  21.334  0.2763 -0.0979  0.1404
  128BOLB   C1A 3053   4.258   1.529  21.924 -0.1481 -0.1457  0.2256
  128BOLB   C2A 3054   4.628   1.761  22.049  0.2202  0.3499  0.1094
  128BOLB   C3A 3055   5.113   1.922  21.944 -0.0177  0.0242 -0.0304
  128BOLB   C4A 3056   5.269   1.758  21.590 -0.1480  0.1849 -0.0592
  128BOLB   C1B 3057   4.007   2.165  21.341 -0.0269 -0.0048  0.2167
  128BOLB   C2B 3058   4.200   2.623  21.357  0.0329  0.1010 -0.1793
  128BOLB   C3B 3059   4.602   2.771  21.239  0.0084 -0.0922 -0.0490
  128BOLB   C4B 3060   5.057   2.661  21.398 -0.0428  0.1684  0.1198
  128BOLB   NC2 3061   7.418   1.704  22.403  0.1072  0.3857 -0.1221
  128BOLB   PO2 3062   7.477   1.378  22.599  0.0610  0.2847 -0.1107
  128BOLB   GL3 3063   7.202   1.396  22.117  0.3007  0.3924 -0.2314
  128BOLB   GL4 3064   7.061   1.709  22.056 -0.0713 -0.1711  0.4423
  128BOLB   C1C 3065   6.744   1.307  22.036 -0.1223 -0.1546 -0.1647
  128BOLB   C2C 3066   6.494   1.428  21.665  0.0056  0.1326 -0.0870
  128BOLB   C3C 3067   6.157   1.490  21.466  0.0402  0.0953  0.1417
  128BOLB   C4C 3068   5.691   1.675  21.419  0.2612 -0.1358  0.1214
  128BOLB   C1D 3069   6.895   1.911  21.627 -0.0255  0.0943 -0.1117
  128BOLB   C2D 3070   6.547   1.813  21.316 -0.0574  0.0772 -0.2374
  128BOLB   C3D 3071   6.038   1.784  21.071  0.1170 -0.3846 -0.3440
  128BOLB   C4D 3072   5.803   1.460  20.941  0.0565 -0.0539 -0.1585
  129BOLB   NC1 3073  23.898   2.922  21.867 -0.1869  0.1012  0.2200
  129BOLB   PO1 3074  24.089   3.052  21.554 -0.1801 -0.0725  0.1148
  129BOLB   GL1 3075  24.428   3.034  21.351  0.2226  0.0677  0.1426
  129BOLB   GL2 3076  24.481   2.717  21.322 -0.3486  0.2169 -0.1609
  129BOLB   C1A 3077  24.842   2.965  21.127  0.1496  0.2265  0.1275
  129BOLB   C2A 3078  25.195   3.014  20.867 -0.2275 -0.1448  0.1600
  129BOLB   C3A 3079  25.442   3.243  20.804 -0.0121  0.0349  0.0041
  129BOLB   C4A 3080  25.691   3.602  20.972 -0.4481  0.2168 -0.0411
  129BOLB   C1B 3081  24.782   2.517  21.315 -0.2108  0.2584  0.2170
  129BOLB   C2B 3082  25.120   2.539  20.952 -0.1703 -0.1929 -0.0505
  129BOLB   C3B 3083  25.118   2.229  20.540  0.3201 -0.4060  0.1370
  129BOLB   C4B 3084  25.461   1.923  20.396  0.1025 -0.1383  0.1528
  129BOLB   NC2 3085  28.044   4.042  20.535  0.2860  0.2720 -0.2415
  129BOLB   PO2 3086  27.679   4.342  20.430  0.1661 -0.1302 -0.2465
  129BOLB   GL3 3087  27.315   4.327  20.550 -0.2225 -0.0174 -0.1859
  129BOLB   GL4 3088  27.073   4.402  20.409  0.1327  0.0600  0.0305
  129BOLB   C1C 3089  26.988   4.237  20.906 -0.0305 -0.2392  0.0560
  129BOLB   C2C 3090  26.731   4.216  21.124 -0.1884 -0.3314  0.4005
  129BOLB   C3C 3091  26.347   4.056  21.202  0.0972  0.0978 -0.2584
  129BOLB   C4C 3092  26.013   3.890  21.004  0.2550  0.0948 -0.0900
  129BOLB   C1D 3093  26.674   4.357  20.461 -0.0164 -0.2098 -0.0324
  129BOLB   C2D 3094  26.344   4.194  20.709 -0.0675 -0.0777  0.0136
  129BOLB   C3D 3095  26.005   3.935  20.489 -0.3356 -0.1868  0.0467
  129BOLB   C4D 3096  25.749   4.182  20.219 -0.1038 -0.2893 -0.1295
  130BOLB   NC1 3097  16.567  12.279  25.669  0.0185  0.0372  0.0529
  130BOLB   PO1 3098  16.413  12.557  25.884 -0.3931 -0.0050 -0.1292
  130BOLB   GL1 3099  16.306  12.972  25.928 -0.2450 -0.0866  0.1085
  130BOLB   GL2 3100  16.311  13.111  26.223 -0.1231  0.0801  0.1753
  130BOLB   C1A 3101  16.006  13.197  25.818 -0.1659  0.0009 -0.2690
  130BOLB   C2A 3102  15.940  13.644  25.740  0.2674  0.2962  0.1382
  130BOLB   C3A 3103  15.822  14.003  25.444  0.0193 -0.2360  0.0162
  130BOLB   C4A 3104  15.535  14.356  25.152 -0.0045  0.0322  0.1910
  130BOLB   C1B 3105  16.116  13.520  26.220  0.2550  0.0594 -0.1818
  130BOLB   C2B 3106  16.100  13.911  26.159  0.1087 -0.1574 -0.0023
  130BOLB   C3B 3107  15.741  14.185  26.088 -0.1071 -0.1230  0.0971
  130BOLB   C4B 3108  15.325  14.325  25.738 -0.0440  0.0744 -0.2755
  130BOLB   NC2 3109  15.115  16.548  24.388  0.0204 -0.2351  0.0712
  130BOLB   PO2 3110  15.475  16.288  24.171  0.1353  0.0964  0.3397
  130BOLB   GL3 3111  15.541  15.824  24.313 -0.1359 -0.2822 -0.1140
  130BOLB   GL4 3112  15.595  15.827  23.951 -0.1050 -0.2325 -0.0699
  130BOLB   C1C 3113  15.530  15.528  24.593  0.3028 -0.0384 -0.2332
  130BOLB   C2C 3114  15.406  15.147  24.369  0.0260 -0.1345 -0.0522
  130BOLB   C3C 3115  15.413  14.737  24.405  0.0869  0.0409 -0.1344
  130BOLB   C4C 3116  15.376  14.637  24.840  0.0937  0.0304  0.2342
  130BOLB   C1D 3117  15.298  15.408  23.963 -0.2490  0.0862 -0.0371
  130BOLB   C2D 3118  15.187  14.990  23.829  0.4729 -0.0425 -0.0537
  130BOLB   C3D 3119  14.896  14.695  23.923 -0.3046  0.3744  0.0958
  130BOLB   C4D 3120  15.073  14.267  24.023  0.2938 -0.1382 -0.0952
  131BOLB   NC1 3121  14.088  -1.487  29.881  0.2229  0.1156  0.0740
  131BOLB   PO1 3122  13.987  -1.981  29.988 -0.2552  0.2514 -0.0135
  131BOLB   GL1 3123  14.008  -2.379  30.114  0.1276  0.1522  0.1711
  131BOLB   GL2 3124  13.994  -2.617  29.970  0.0254  0.3245 -0.1213
  131BOLB   C1A 3125  14.188  -2.709  30.425  0.2188  0.1099 -0.2033
  131BOLB   C2A 3126  14.172  -3.047  30.777  0.2223 -0.1916 -0.0363
  131BOLB   C3A 3127  13.872  -3.168  31.102 -0.5316 -0.3530 -0.0491
  131BOLB   C4A 3128  13.515  -3.223  31.387 -0.1153 -0.0332 -0.0101
  131BOLB   C1B 3129  14.108  -3.055  30.017 -0.4672  0.1427  0.2673
  131BOLB   C2B 3130  14.110  -3.549  29.961  0.0074  0.0026  0.0846
  131BOLB   C3B 3131  14.013  -3.881  30.192 -0.0339  0.2353  0.0966
  131BOLB   C4B 3132  13.980  -4.370  30.362 -0.2716 -0.0835 -0.1208
  131BOLB   NC2 3133  12.690  -4.855  32.872 -0.2450 -0.0046 -0.1468
  131BOLB   PO2 3134  12.643  -4.481  33.231 -0.0180 -0.1613 -0.1197
  131BOLB   GL3 3135  12.702  -4.073  32.990 -0.1011 -0.2022 -0.4380
  131BOLB   GL4 3136  12.542  -3.722  33.082  0.0162  0.2024 -0.3121
  131BOLB   C1C 3137  13.055  -3.863  32.687 -0.0757 -0.0627 -0.1151
  131BOLB   C2C 3138  13.008  -3.696  32.272  0.2089 -0.1213 -0.0447
  131BOLB   C3C 3139  12.991  -3.613  31.889 -0.0214 -0.2690 -0.2637
  131BOLB   C4C 3140  13.183  -3.677  31.507  0.1021  0.0285 -0.1713
  131BOLB   C1D 3141  12.651  -3.559  32.654 -0.1346 -0.2861 -0.1209
  131BOLB   C2D 3142  12.657  -3.310  32.260  0.1350  0.0919  0.0264
  131BOLB   C3D 3143  12.897  -3.116  31.882  0.3763  0.1756  0.0637
  131BOLB   C4D 3144  13.336  -3.176  31.883 -0.2302  0.1898  0.0682
  132BOLB   NC1 3145  16.078   7.443  37.512 -0.3382  0.1881  0.0905
  132BOLB   PO1 3146  15.761   7.163  37.502 -0.0670 -0.0060 -0.1633
  132BOLB   GL1 3147  15.742   7.288  37.177 -0.1172 -0.1642  0.0166
  132BOLB   GL2 3148  15.514   7.516  36.906 -0.0042  0.1796  0.0801
  132BOLB   C1A 3149  15.738   7.114  36.739  0.1586  0.3648 -0.0372
  132BOLB   C2A 3150  15.961   6.930  36.437 -0.1769  0.2084 -0.0065
  132BOLB   C3A 3151  16.183   7.121  36.157 -0.2160  0.0819 -0.2056
  132BOLB   C4A 3152  16.405   7.415  35.891  0.3042 -0.1056  0.0713
  132BOLB   C1B 3153  15.325   7.756  36.679 -0.5648 -0.0640  0.1530
  132BOLB   C2B 3154  15.213   8.085  36.694 -0.0441 -0.1198  0.1797
  132BOLB   C3B 3155  14.975   8.442  36.530 -0.0490  0.2637 -0.2259
  132BOLB   C4B 3156  14.574   8.639  36.575 -0.0117 -0.0585 -0.0507
  132BOLB   NC2 3157  17.475   7.907  37.357 -0.0593  0.3004  0.0936
  132BOLB   PO2 3158  17.534   8.376  37.221 -0.1428  0.1838 -0.0704
  132BOLB   GL3 3159  17.825   8.374  36.883  0.1646 -0.0659  0.4324
  132BOLB   GL4 3160  18.216   8.284  37.026 -0.1324  0.0523 -0.2844
  132BOLB   C1C 3161  17.795   8.290  36.404  0.0583 -0.4199  0.1397
  132BOLB   C2C 3162  17.498   8.117  36.063 -0.2023 -0.0287  0.2209
  132BOLB   C3C 3163  17.257   7.921  35.766 -0.1693 -0.0411 -0.3355
  132BOLB   C4C 3164  16.685   7.835  35.884 -0.2920 -0.0846 -0.0603
  132BOLB   C1D 3165  18.032   7.945  36.724 -0.3369  0.1037 -0.1296
  132BOLB   C2D 3166  17.714   7.542  36.631 -0.0834 -0.1100  0.0783
  132BOLB   C3D 3167  17.787   7.222  36.220  0.0672  0.1051  0.4364
  132BOLB   C4D 3168  17.965   6.838  35.890 -0.4831  0.0953 -0.0064
  133BOLB   NC1 3169  24.528   3.865  28.880  0.0197 -0.1394  0.1716
  133BOLB   PO1 3170  24.510   3.495  29.089 -0.2240  0.1571  0.0942
  133BOLB   GL1 3171  24.855   3.525  29.431 -0.1434  0.0485 -0.1380
  133BOLB   GL2 3172  24.701   3.907  29.333 -0.2224  0.4216 -0.3370
  133BOLB   C1A 3173  25.268   3.481  29.578 -0.2630 -0.1887 -0.1087
  133BOLB   C2A 3174  25.659   3.604  29.926 -0.1921 -0.4869 -0.3007
  133BOLB   C3A 3175  25.813   3.997  29.968  0.1742  0.1244  0.1467
  133BOLB   C4A 3176  26.085   4.082  30.307  0.3166  0.0053 -0.3425
  133BOLB   C1B 3177  25.100   3.971  29.657  0.1166  0.0202 -0.2585
  133BOLB   C2B 3178  25.319   3.934  30.045 -0.1481 -0.2231 -0.1018
  133BOLB   C3B 3179  25.587   4.134  30.457  0.0693  0.1098 -0.0149
  133BOLB   C4B 3180  25.855   4.221  30.862  0.0613  0.1991  0.1549
  133BOLB   NC2 3181  27.733   3.490  30.743 -0.3533  0.1461  0.1288
  133BOLB   PO2 3182  27.921   3.828  30.514  0.1497  0.0648  0.1082
  133BOLB   GL3 3183  27.725   4.001  30.173 -0.0068  0.4095 -0.2610
  133BOLB   GL4 3184  27.723   3.846  29.916  0.0644  0.1131  0.0119
  133BOLB   C1C 3185  27.229   4.025  29.990  0.2262  0.0240  0.0102
  133BOLB   C2C 3186  26.908   4.341  30.147  0.2965  0.0010  0.0938
  133BOLB   C3C 3187  26.628   4.343  30.427  0.1798  0.1508 -0.2960
  133BOLB   C4C 3188  26.392   4.030  30.616 -0.0176 -0.0671  0.2324
  133BOLB   C1D 3189  27.479   3.814  29.604 -0.1267 -0.1695 -0.1351
  133BOLB   C2D 3190  27.200   3.777  29.374  0.2979  0.2921  0.0315
  133BOLB   C3D 3191  26.843   3.576  29.057  0.3352  0.0090  0.1247
  133BOLB   C4D 3192  26.894   3.365  28.638 -0.1915 -0.2520  0.2644
  134BOLB   NC1 3193  13.829  -4.166  20.957  0.1833 -0.0991  0.3407
  134BOLB   PO1 3194  13.711  -4.571  20.958  0.2206 -0.0929  0.0025
  134BOLB   GL1 3195  13.705  -5.003  20.821  0.2181 -0.1755  0.3396
  134BOLB   GL2 3196  13.388  -4.874  20.589 -0.3659  0.1294  0.2496
  134BOLB   C1A 3197  13.484  -5.503  20.706 -0.0600  0.2645  0.2606
  134BOLB   C2A 3198  13.593  -5.832  20.415 -0.2733  0.0415 -0.0676
  134BOLB   C3A 3199  13.352  -5.968  20.041  0.0435  0.0346  0.0234
  134BOLB   C4A 3200  12.908  -6.105  20.056  0.3568  0.0863 -0.0862
  134BOLB   C1B 3201  13.621  -5.174  20.360  0.0786 -0.0395 -0.1356
  134BOLB   C2B 3202  13.917  -5.582  20.220  0.1241 -0.0369  0.4737
  134BOLB   C3B 3203  14.160  -5.583  19.742 -0.3368  0.1060  0.0614
  134BOLB   C4B 3204  14.396  -5.935  19.492  0.2114 -0.0977 -0.0548
  134BOLB   NC2 3205  11.165  -7.788  21.020 -0.2757  0.0850 -0.3760
  134BOLB   PO2 3206  11.554  -7.914  20.912 -0.3342 -0.1450 -0.0899
  134BOLB   GL3 3207  11.465  -7.507  20.778 -0.1105 -0.0762 -0.0916
  134BOLB   GL4 3208  11.384  -7.306  21.017  0.0530  0.3140 -0.1232
  134BOLB   C1C 3209  11.415  -7.065  20.554 -0.1485  0.4356 -0.1306
  134BOLB   C2C 3210  11.669  -6.651  20.586 -0.3288 -0.0009  0.2228
  134BOLB   C3C 3211  12.065  -6.390  20.538  0.1274  0.2730 -0.1295
  134BOLB   C4C 3212  12.490  -6.236  20.326 -0.1599 -0.0214 -0.0553
  134BOLB   C1D 3213  11.183  -6.943  20.940  0.1337  0.0783  0.1325
  134BOLB   C2D 3214  10.897  -6.585  20.965 -0.0949 -0.0550 -0.1209
  134BOLB   C3D 3215  10.879  -6.097  21.025  0.1275  0.0635 -0.2825
  134BOLB   C4D 3216  11.083  -5.718  21.073 -0.0452  0.0344 -0.1782
  135BOLB   NC1 3217  16.135   6.105  16.560  0.0622  0.2333  0.0177
  135BOLB   PO1 3218  16.423   6.365  16.698  0.3769  0.1140  0.1832
  135BOLB   GL1 3219  16.365   6.327  16.227 -0.3980  0.1470  0.0374
  135BOLB   GL2 3220  16.062   6.329  16.111 -0.0819  0.0575 -0.2401
  135BOLB   C1A 3221  16.522   6.189  15.837 -0.1721  0.1254  0.2477
  135BOLB   C2A 3222  16.716   6.239  15.381  0.1219 -0.0811 -0.1103
  135BOLB   C3A 3223  16.925   6.498  15.142  0.2065  0.0337  0.0367
  135BOLB   C4A 3224  16.893   6.842  15.009 -0.0359 -0.1431  0.1170
  135BOLB   C1B 3225  16.087   6.675  15.775 -0.1258  0.1965 -0.0878
  135BOLB   C2B 3226  15.985   6.892  15.420 -0.0226  0.0968 -0.1002
  135BOLB   C3B 3227  15.573   7.151  15.272 -0.3911  0.0875  0.1245
  135BOLB   C4B 3228  15.407   7.428  15.094  0.2049  0.1080 -0.0950
  135BOLB   NC2 3229  17.446   8.655  13.540 -0.0854  0.4201 -0.1196
  135BOLB   PO2 3230  17.070   8.497  13.481  0.3223  0.0195  0.4075
  135BOLB   GL3 3231  16.865   8.294  13.747 -0.0559 -0.0786  0.1494
  135BOLB   GL4 3232  17.092   8.394  13.963  0.2358 -0.0208 -0.2427
  135BOLB   C1C 3233  16.729   7.964  13.791 -0.1216 -0.0778 -0.1605
  135BOLB   C2C 3234  16.816   7.647  14.229  0.1165  0.2646  0.2608
  135BOLB   C3C 3235  16.674   7.529  14.603  0.1839 -0.0859  0.0053
  135BOLB   C4C 3236  16.829   7.347  14.991  0.2989 -0.1600  0.2053
  135BOLB   C1D 3237  16.942   8.204  14.369  0.4938  0.2605  0.2043
  135BOLB   C2D 3238  17.002   7.993  14.746  0.0345 -0.0945 -0.2399
  135BOLB   C3D 3239  16.928   8.027  15.131 -0.1392  0.0869 -0.0061
  135BOLB   C4D 3240  16.888   8.297  15.550  0.0916 -0.2297  0.0525
  136BOLB   NC1 3241  28.852   2.519  28.650  0.0239  0.0667 -0.1482
  136BOLB   PO1 3242  28.680   2.449  28.246 -0.1117 -0.0500  0.3549
  136BOLB   GL1 3243  28.360   2.183  28.354  0.0452  0.1534  0.2828
  136BOLB   GL2 3244  28.254   1.788  28.269  0.2421 -0.0414  0.2456
  136BOLB   C1A 3245  27.920   2.267  28.466 -0.1696 -0.1951  0.0201
  136BOLB   C2A 3246  27.378   2.445  28.512 -0.1510  0.2112  0.3551
  136BOLB   C3A 3247  26.993   2.625  28.419 -0.0721 -0.2436 -0.0068
  136BOLB   C4A 3248  26.733   2.927  28.638 -0.0223 -0.1191  0.0500
  136BOLB   C1B 3249  27.927   1.854  28.126  0.1081 -0.0957 -0.1126
  136BOLB   C2B 3250  27.726   2.247  27.913  0.0539 -0.1398  0.0978
  136BOLB   C3B 3251  27.582   2.518  27.608  0.0944 -0.1633  0.1857
  136BOLB   C4B 3252  27.223   2.756  27.440  0.0548  0.0557  0.0298
  136BOLB   NC2 3253  24.229   3.652  27.929  0.1105 -0.0001  0.1783
  136BOLB   PO2 3254  24.566   3.411  27.946  0.0615 -0.2776 -0.0851
  136BOLB   GL3 3255  24.971   3.225  28.033  0.1636 -0.2095  0.3725
  136BOLB   GL4 3256  25.160   2.992  27.759 -0.1808 -0.0838  0.1525
  136BOLB   C1C 3257  25.156   3.187  28.515  0.0780 -0.0118 -0.0761
  136BOLB   C2C 3258  25.513   3.283  28.726  0.2063  0.0187  0.0516
  136BOLB   C3C 3259  25.839   3.140  28.821  0.2538  0.0400  0.0439
  136BOLB   C4C 3260  26.300   3.168  28.744 -0.3347  0.1038  0.0528
  136BOLB   C1D 3261  25.396   2.993  28.081 -0.2979 -0.1497  0.2740
  136BOLB   C2D 3262  25.684   2.987  28.373  0.2498  0.1322  0.2110
  136BOLB   C3D 3263  26.091   3.095  28.322 -0.1148 -0.0150  0.2092
  136BOLB   C4D 3264  26.597   2.999  28.190  0.1175 -0.2265  0.0697
  137BOLB   NC1 3265  21.684   1.532  30.611  0.2463 -0.3274  0.0366
  137BOLB   PO1 3266  21.838   1.694  30.977  0.2611  0.2432  0.2286
  137BOLB   GL1 3267  22.155   1.437  31.066  0.1138 -0.0454  0.2215
  137BOLB   GL2 3268  22.384   1.732  31.341  0.0631 -0.0887 -0.1024
  137BOLB   C1A 3269  22.287   1.141  31.331  0.0056 -0.0622 -0.1414
  137BOLB   C2A 3270  22.514   0.921  31.690  0.2027 -0.2334 -0.1407
  137BOLB   C3A 3271  22.843   0.801  31.923  0.2847  0.1129 -0.4207
  137BOLB   C4A 3272  22.959   0.476  32.301 -0.0617  0.5469 -0.1097
  137BOLB   C1B 3273  22.697   1.506  31.356 -0.0570 -0.2655 -0.0249
  137BOLB   C2B 3274  23.052   1.401  31.282  0.2243 -0.2013  0.1351
  137BOLB   C3B 3275  23.336   1.171  31.555  0.3303  0.0647  0.0332
  137BOLB   C4B 3276  23.688   0.949  31.505  0.3263 -0.2417 -0.1245
  137BOLB   NC2 3277  23.410  -1.895  32.765  0.5240  0.0152 -0.0408
  137BOLB   PO2 3278  23.663  -1.613  32.729 -0.1701 -0.2493  0.2027
  137BOLB   GL3 3279  23.721  -1.212  32.797  0.0597  0.0884  0.2336
  137BOLB   GL4 3280  23.843  -1.048  33.047  0.0418  0.0016 -0.1746
  137BOLB   C1C 3281  23.460  -0.827  32.744 -0.2745  0.1428  0.0517
  137BOLB   C2C 3282  23.514  -0.426  32.661 -0.0395  0.0614 -0.4272
  137BOLB   C3C 3283  23.273  -0.087  32.433 -0.2986  0.1491  0.0432
  137BOLB   C4C 3284  23.162   0.284  32.514  0.0460  0.2232  0.1502
  137BOLB   C1D 3285  23.409  -1.111  33.119  0.1332 -0.1121 -0.0249
  137BOLB   C2D 3286  22.931  -1.134  32.931  0.2818 -0.0342 -0.1462
  137BOLB   C3D 3287  22.608  -0.891  32.663 -0.3089 -0.2349  0.2770
  137BOLB   C4D 3288  22.483  -0.428  32.632  0.1356  0.3882 -0.0913
  138BOLB   NC1 3289   6.786   2.396  27.609 -0.0715 -0.2010  0.1395
  138BOLB   PO1 3290   6.617   2.888  27.571 -0.0722 -0.0676  0.1024
  138BOLB   GL1 3291   6.228   2.881  27.382 -0.2861  0.0548 -0.1731
  138BOLB   GL2 3292   6.194   3.016  26.989  0.3348 -0.1112  0.3365
  138BOLB   C1A 3293   5.885   2.595  27.262  0.3525  0.1323 -0.0214
  138BOLB   C2A 3294   5.510   2.377  27.513 -0.0758  0.1175  0.1809
  138BOLB   C3A 3295   5.217   2.014  27.537 -0.1194 -0.1846  0.0773
  138BOLB   C4A 3296   4.792   1.850  27.456 -0.0707 -0.0787  0.2999
  138BOLB   C1B 3297   5.805   3.230  27.195  0.0328  0.2010  0.2364
  138BOLB   C2B 3298   5.322   3.284  27.033  0.0613 -0.0690  0.1816
  138BOLB   C3B 3299   5.203   3.114  26.730 -0.3612  0.0174  0.1603
  138BOLB   C4B 3300   5.098   2.721  26.671  0.0606  0.0184  0.1083
  138BOLB   NC2 3301   2.892   1.225  26.366  0.2218 -0.1293 -0.1644
  138BOLB   PO2 3302   2.985   0.899  26.595  0.1547 -0.2485 -0.1027
  138BOLB   GL3 3303   3.356   0.925  26.655  0.0794 -0.1455  0.2650
  138BOLB   GL4 3304   3.531   1.027  26.384 -0.3618 -0.3156  0.2345
  138BOLB   C1C 3305   3.658   1.218  26.850 -0.1040  0.3591  0.4876
  138BOLB   C2C 3306   4.045   1.401  26.852  0.0771  0.1378  0.2028
  138BOLB   C3C 3307   4.365   1.690  26.940  0.0835  0.0739  0.2066
  138BOLB   C4C 3308   4.647   1.728  27.165 -0.0408  0.1125 -0.0729
  138BOLB   C1D 3309   3.989   1.067  26.336  0.5118 -0.1687 -0.2189
  138BOLB   C2D 3310   4.273   0.959  26.222  0.2289  0.1510  0.0647
  138BOLB   C3D 3311   4.602   0.736  26.293 -0.3042 -0.1034 -0.1454
  138BOLB   C4D 3312   5.072   0.871  26.374 -0.4318  0.0406 -0.3132
  139BOLB   NC1 3313  18.494   9.741  31.234 -0.1230  0.0810  0.0267
  139BOLB   PO1 3314  18.989   9.610  31.137 -0.0243 -0.0041  0.0412
  139BOLB   GL1 3315  19.175  10.036  31.081 -0.0772  0.1937  0.0082
  139BOLB   GL2 3316  19.439  10.057  31.192  0.1238  0.0256 -0.1905
  139BOLB   C1A 3317  19.226  10.497  31.085  0.0551 -0.1279  0.1693
  139BOLB   C2A 3318  19.534  10.954  30.975 -0.2664  0.3991  0.2012
  139BOLB   C3A 3319  19.674  11.349  31.246  0.2945 -0.1194 -0.1360
  139BOLB   C4A 3320  19.548  11.535  31.693 -0.6469 -0.0514 -0.2852
  139BOLB   C1B 3321  19.628  10.369  31.406  0.1166  0.1791 -0.0531
  139BOLB   C2B 3322  19.719  10.859  31.496 -0.2611 -0.3386 -0.0550
  139BOLB   C3B 3323  19.441  11.090  31.645 -0.0863 -0.0835  0.0148
  139BOLB   C4B 3324  19.110  11.396  31.762  0.1578  0.3448 -0.0317
  139BOLB   NC2 3325  20.655  13.458  33.140  0.3673 -0.1586 -0.1242
  139BOLB   PO2 3326  20.852  13.334  32.776 -0.1062  0.0526 -0.2371
  139BOLB   GL3 3327  20.658  12.965  32.897  0.0954 -0.0235 -0.0185
  139BOLB   GL4 3328  20.327  13.025  32.916 -0.2823 -0.0054 -0.0355
  139BOLB   C1C 3329  20.462  12.614  32.597  0.0342  0.1061  0.1733
  139BOLB   C2C 3330  20.280  12.389  32.401  0.1175 -0.1538  0.1569
  139BOLB   C3C 3331  20.186  12.036  32.242  0.0176 -0.1135  0.2805
  139BOLB   C4C 3332  19.691  11.901  31.965 -0.1999 -0.2485 -0.0300
  139BOLB   C1D 3333  20.010  12.576  32.850  0.2501 -0.1998  0.1281
  139BOLB   C2D 3334  19.799  12.499  32.523 -0.2298 -0.1265 -0.1048
  139BOLB   C3D 3335  19.662  12.423  32.053  0.0829 -0.2247  0.2509
  139BOLB   C4D 3336  19.567  12.291  31.581  0.2548  0.0874  0.0074
  140BOLB   NC1 3337  13.530   0.482  32.072  0.1865 -0.3728 -0.0975
  140BOLB   PO1 3338  13.119   0.334  32.082  0.2821  0.5278  0.3896
  140BOLB   GL1 3339  12.746   0.092  32.209  0.2055 -0.1878  0.0994
  140BOLB   GL2 3340  12.677   0.396  32.436 -0.0803 -0.0212 -0.0880
  140BOLB   C1A 3341  12.479  -0.130  32.528  0.0192  0.1956 -0.2777
  140BOLB   C2A 3342  12.409  -0.518  32.714 -0.0548  0.0609  0.0094
  140BOLB   C3A 3343  12.316  -0.855  33.015  0.2122  0.3103  0.0758
  140BOLB   C4A 3344  12.569  -1.194  33.125 -0.0439  0.3094 -0.0532
  140BOLB   C1B 3345  12.561   0.294  32.831  0.1647  0.3913  0.2329
  140BOLB   C2B 3346  12.612   0.012  33.302 -0.3151  0.0374  0.1920
  140BOLB   C3B 3347  12.487  -0.092  33.824  0.1695  0.2577 -0.1483
  140BOLB   C4B 3348  12.181   0.036  34.112 -0.0820  0.0910  0.0493
  140BOLB   NC2 3349  12.960  -3.125  34.986  0.0297 -0.1589 -0.1236
  140BOLB   PO2 3350  13.282  -3.061  34.734 -0.3384  0.1212  0.2138
  140BOLB   GL3 3351  13.460  -2.805  34.509  0.1636 -0.1422  0.0922
  140BOLB   GL4 3352  13.616  -2.546  34.765  0.3621 -0.2063  0.1399
  140BOLB   C1C 3353  13.472  -2.419  34.244 -0.2884 -0.2536  0.0363
  140BOLB   C2C 3354  13.332  -2.129  33.994 -0.0835 -0.0894 -0.1149
  140BOLB   C3C 3355  13.088  -1.955  33.601 -0.3612 -0.0206  0.2875
  140BOLB   C4C 3356  12.670  -1.645  33.383  0.3075  0.1867  0.1334
  140BOLB   C1D 3357  13.760  -2.229  34.626 -0.1994  0.0098 -0.1022
  140BOLB   C2D 3358  13.715  -1.974  34.395 -0.1030 -0.2382 -0.3075
  140BOLB   C3D 3359  13.816  -1.530  34.383 -0.0846  0.1996 -0.2090
  140BOLB   C4D 3360  13.548  -1.162  34.283  0.0068  0.0634 -0.1537
  141BOLB   NC1 3361  16.769   9.156  31.873  0.1157 -0.3418  0.2630
  141BOLB   PO1 3362  16.287   9.348  32.132  0.0503  0.1968  0.0552
  141BOLB   GL1 3363  16.172   9.738  32.332 -0.1081  0.0516 -0.0466
  141BOLB   GL2 3364  16.457   9.784  32.333  0.0026 -0.1993  0.3053
  141BOLB   C1A 3365  16.302  10.221  32.524 -0.4229 -0.3662  0.2264
  141BOLB   C2A 3366  16.579  10.614  32.734  0.3435  0.3097 -0.2007
  141BOLB   C3A 3367  16.866  10.889  33.029 -0.4270  0.1803  0.1768
  141BOLB   C4A 3368  17.118  10.977  33.399  0.0581  0.3128 -0.1221
  141BOLB   C1B 3369  16.817  10.179  32.315  0.2784 -0.1183 -0.0616
  141BOLB   C2B 3370  17.025  10.395  32.656 -0.0745 -0.0490  0.1217
  141BOLB   C3B 3371  17.142  10.478  33.127 -0.0641  0.0421 -0.1445
  141BOLB   C4B 3372  17.175  10.521  33.676  0.1524  0.2783 -0.1139
  141BOLB   NC2 3373  18.397  12.543  35.542 -0.3804 -0.1568  0.2424
  141BOLB   PO2 3374  18.413  12.317  35.135  0.1476  0.0150  0.0959
  141BOLB   GL3 3375  18.426  12.111  34.770  0.1006  0.0071  0.0909
  141BOLB   GL4 3376  18.661  11.889  34.722  0.0091 -0.3276  0.1282
  141BOLB   C1C 3377  18.105  11.941  34.473  0.1612  0.1836  0.0250
  141BOLB   C2C 3378  17.633  11.849  34.226 -0.2784  0.0166 -0.0044
  141BOLB   C3C 3379  17.452  11.508  33.876  0.0826 -0.1702 -0.2224
  141BOLB   C4C 3380  17.261  11.197  33.741 -0.3610  0.0195  0.4225
  141BOLB   C1D 3381  18.545  11.742  34.331 -0.5613  0.2407  0.0702
  141BOLB   C2D 3382  18.542  11.409  34.058 -0.3644  0.3223 -0.2066
  141BOLB   C3D 3383  18.444  10.914  34.054  0.2141  0.1237  0.2495
  141BOLB   C4D 3384  18.042  10.636  33.920  0.1237 -0.1589  0.1033
  142BOLB   NC1 3385  23.684  -0.410  25.754 -0.2156 -0.1505  0.2179
  142BOLB   PO1 3386  24.121  -0.325  25.565 -0.0430  0.2244 -0.3355
  142BOLB   GL1 3387  24.194  -0.705  25.559  0.3302 -0.0801 -0.2153
  142BOLB   GL2 3388  23.906  -0.840  25.685 -0.1907 -0.0985  0.2640
  142BOLB   C1A 3389  24.198  -1.057  25.252  0.0930 -0.1818 -0.1642
  142BOLB   C2A 3390  24.378  -1.351  25.255 -0.1648 -0.0842  0.1210
  142BOLB   C3A 3391  24.325  -1.728  25.102 -0.1209  0.1111  0.1060
  142BOLB   C4A 3392  24.463  -2.088  25.354 -0.3272 -0.2659 -0.2837
  142BOLB   C1B 3393  24.222  -1.003  25.980  0.3336  0.1507 -0.0155
  142BOLB   C2B 3394  24.069  -1.447  26.115  0.0615  0.1427  0.0235
  142BOLB   C3B 3395  23.865  -1.522  26.436 -0.3253  0.2324  0.1878
  142BOLB   C4B 3396  23.907  -1.507  26.919  0.0256  0.0517 -0.2209
  142BOLB   NC2 3397  26.188  -3.654  26.264  0.0172 -0.1326 -0.2581
  142BOLB   PO2 3398  25.765  -3.960  26.106  0.0003 -0.0638  0.0782
  142BOLB   GL3 3399  25.478  -3.680  26.126  0.2366  0.0377  0.0981
  142BOLB   GL4 3400  25.016  -3.779  26.045  0.1988 -0.0351 -0.1063
  142BOLB   C1C 3401  25.281  -3.311  26.156 -0.0336  0.5062 -0.1399
  142BOLB   C2C 3402  25.210  -2.894  25.979  0.0511  0.0695  0.4323
  142BOLB   C3C 3403  24.900  -2.517  25.857  0.1276  0.0599 -0.1341
  142BOLB   C4C 3404  24.762  -2.294  25.603 -0.2283 -0.0953  0.0203
  142BOLB   C1D 3405  24.789  -3.412  25.876 -0.1766  0.4017  0.4157
  142BOLB   C2D 3406  24.764  -3.002  25.630  0.0658 -0.3856 -0.1112
  142BOLB   C3D 3407  24.525  -2.905  25.308 -0.0591 -0.0164 -0.2813
  142BOLB   C4D 3408  24.260  -2.493  25.084 -0.1916  0.0134 -0.0225
  143BOLB   NC1 3409  23.569   4.395  30.620 -0.1906 -0.0214  0.1748
  143BOLB   PO1 3410  23.241   4.472  30.898 -0.3583 -0.0220  0.0525
  143BOLB   GL1 3411  23.301   4.585  31.213 -0.1430  0.0467 -0.1060
  143BOLB   GL2 3412  23.017   4.512  31.478  0.3008 -0.1493 -0.0629
  143BOLB   C1A 3413  23.685   4.718  31.405 -0.2528  0.0314  0.1532
  143BOLB   C2A 3414  23.812   5.076  31.553  0.3080 -0.1723  0.1555
  143BOLB   C3A 3415  24.127   5.006  31.817  0.0375  0.0048  0.1607
  143BOLB   C4A 3416  24.425   4.749  31.965  0.0802 -0.1689 -0.0249
  143BOLB   C1B 3417  23.172   4.379  31.812  0.0716 -0.2248  0.0106
  143BOLB   C2B 3418  23.239   4.252  32.293 -0.3294  0.0450 -0.0497
  143BOLB   C3B 3419  23.651   4.122  32.514 -0.1263  0.2044  0.2922
  143BOLB   C4B 3420  23.629   3.655  32.614  0.4081  0.3493  0.0839
  143BOLB   NC2 3421  24.943   4.291  34.230  0.2144 -0.3360  0.0732
  143BOLB   PO2 3422  25.418   4.193  34.048 -0.3876 -0.2253  0.2114
  143BOLB   GL3 3423  25.355   4.198  33.617 -0.0495 -0.1975 -0.0381
  143BOLB   GL4 3424  25.057   4.292  33.618  0.3109  0.0184 -0.0593
  143BOLB   C1C 3425  25.262   4.297  33.149 -0.0790  0.0427 -0.0020
  143BOLB   C2C 3426  24.927   4.114  32.855 -0.0699 -0.0831  0.4021
  143BOLB   C3C 3427  24.664   3.971  32.514  0.2180 -0.2807  0.1100
  143BOLB   C4C 3428  24.559   4.402  32.251 -0.1781 -0.0396  0.2257
  143BOLB   C1D 3429  24.730   4.033  33.273 -0.3276 -0.3763 -0.3592
  143BOLB   C2D 3430  24.401   4.050  32.927 -0.1195  0.0525 -0.1172
  143BOLB   C3D 3431  24.187   4.104  32.484  0.1644  0.0869  0.0905
  143BOLB   C4D 3432  23.994   3.789  32.342 -0.0817  0.1206 -0.1434
  144BOLB   NC1 3433  11.630  -1.928  20.773 -0.0826 -0.3775  0.0716
  144BOLB   PO1 3434  11.663  -2.333  20.606 -0.0755 -0.2673 -0.2489
  144BOLB   GL1 3435  11.322  -2.573  20.516  0.1810  0.1579 -0.0122
  144BOLB   GL2 3436  11.078  -2.639  20.180 -0.3998 -0.0839  0.1217
  144BOLB   C1A 3437  11.197  -3.024  20.426  0.0656  0.0013  0.2171
  144BOLB   C2A 3438  10.817  -3.122  20.305  0.0508  0.2648  0.2398
  144BOLB   C3A 3439  10.428  -3.345  20.177  0.2843 -0.0186 -0.0499
  144BOLB   C4A 3440   9.920  -3.572  20.297 -0.0431 -0.1090  0.1813
  144BOLB   C1B 3441  11.044  -2.956  19.901 -0.1360  0.1733  0.1475
  144BOLB   C2B 3442  11.036  -3.340  19.885 -0.0044 -0.1350  0.0658
  144BOLB   C3B 3443  10.737  -3.704  20.046 -0.1245  0.1770 -0.0064
  144BOLB   C4B 3444  10.508  -3.857  20.309  0.2651 -0.1161  0.3464
  144BOLB   NC2 3445   7.932  -4.043  18.350 -0.2523  0.0291  0.0981
  144BOLB   PO2 3446   7.707  -3.802  18.771 -0.0022 -0.1027 -0.2360
  144BOLB   GL3 3447   7.981  -3.579  19.112  0.0181  0.0902  0.3113
  144BOLB   GL4 3448   7.917  -3.123  19.104 -0.0726  0.0052 -0.3070
  144BOLB   C1C 3449   8.445  -3.574  19.372  0.3580 -0.1435  0.1001
  144BOLB   C2C 3450   8.838  -3.435  19.563  0.4216  0.6101  0.0363
  144BOLB   C3C 3451   9.214  -3.548  19.866 -0.0701 -0.0449  0.2164
  144BOLB   C4C 3452   9.493  -3.555  20.205  0.1574  0.1476 -0.1169
  144BOLB   C1D 3453   7.917  -2.853  18.780  0.1306 -0.1206  0.1702
  144BOLB   C2D 3454   7.874  -2.554  18.528 -0.1300 -0.1605 -0.4743
  144BOLB   C3D 3455   7.563  -2.159  18.488 -0.0725 -0.1874 -0.2053
  144BOLB   C4D 3456   7.278  -1.832  18.664  0.2035 -0.0281 -0.2330
  145BOLB   NC1 3457  14.476   8.505  32.561  0.1719  0.0399 -0.2251
  145BOLB   PO1 3458  14.357   8.994  32.368  0.2505 -0.0491  0.1228
  145BOLB   GL1 3459  14.282   9.377  32.670 -0.3152 -0.2752  0.3493
  145BOLB   GL2 3460  14.451   9.581  32.728  0.1988 -0.0062 -0.2026
  145BOLB   C1A 3461  13.922   9.573  32.745  0.1120  0.0538 -0.1412
  145BOLB   C2A 3462  13.927   9.686  33.117 -0.2142 -0.0121  0.1102
  145BOLB   C3A 3463  13.751   9.778  33.525  0.0522 -0.0068  0.1477
  145BOLB   C4A 3464  13.911   9.572  33.921 -0.2696 -0.1277  0.2117
  145BOLB   C1B 3465  14.349   9.918  33.083 -0.4885 -0.2177  0.2497
  145BOLB   C2B 3466  14.271  10.235  33.176 -0.2787  0.0222  0.1597
  145BOLB   C3B 3467  14.270  10.686  33.069 -0.2224 -0.0902 -0.0812
  145BOLB   C4B 3468  14.107  10.965  32.819 -0.0888  0.0185  0.0265
  145BOLB   NC2 3469  13.109  10.570  35.810 -0.4628 -0.4294  0.1778
  145BOLB   PO2 3470  13.450  10.683  35.888 -0.0553  0.1726  0.2664
  145BOLB   GL3 3471  13.668  10.344  35.757  0.1960  0.2110 -0.0429
  145BOLB   GL4 3472  13.999  10.261  35.879 -0.0138 -0.2929  0.1780
  145BOLB   C1C 3473  13.679  10.047  35.483 -0.4803 -0.1884 -0.1542
  145BOLB   C2C 3474  13.833   9.934  35.138 -0.0115 -0.0245 -0.3680
  145BOLB   C3C 3475  13.817   9.638  34.780  0.1230 -0.1105  0.2466
  145BOLB   C4C 3476  13.822   9.446  34.323  0.0946  0.2608 -0.2198
  145BOLB   C1D 3477  14.180  10.194  35.478 -0.1344 -0.1189  0.3531
  145BOLB   C2D 3478  14.388  10.231  35.110  0.2248  0.3163  0.3025
  145BOLB   C3D 3479  14.554  10.181  34.674 -0.0346 -0.4978  0.0164
  145BOLB   C4D 3480  14.693  10.155  34.256 -0.4242  0.1612  0.2222
  146BOLB   NC1 3481  17.177  12.248  27.395 -0.0224 -0.3921  0.0042
  146BOLB   PO1 3482  17.588  12.438  27.133  0.3849 -0.1306 -0.0993
  146BOLB   GL1 3483  17.619  12.863  27.107 -0.0428  0.0945 -0.0859
  146BOLB   GL2 3484  17.766  13.036  26.926 -0.0647  0.3480  0.0886
  146BOLB   C1A 3485  17.576  13.094  27.393 -0.1817  0.2497 -0.0868
  146BOLB   C2A 3486  17.282  13.198  27.708 -0.0728 -0.3111 -0.0349
  146BOLB   C3A 3487  17.364  13.627  27.747  0.1276  0.2982 -0.4895
  146BOLB   C4A 3488  17.531  13.733  28.089  0.1548  0.0485  0.0008
  146BOLB   C1B 3489  18.062  13.515  26.876  0.1650 -0.0185 -0.0501
  146BOLB   C2B 3490  18.130  13.858  27.145 -0.2041 -0.1461 -0.0847
  146BOLB   C3B 3491  18.539  13.869  27.339 -0.1615 -0.2583 -0.1284
  146BOLB   C4B 3492  18.785  14.222  27.641 -0.0751 -0.0443  0.0283
  146BOLB   NC2 3493  18.909  15.665  28.634  0.1326  0.3033 -0.0950
  146BOLB   PO2 3494  18.509  15.881  28.527  0.1863  0.1751  0.0163
  146BOLB   GL3 3495  18.531  15.460  28.351  0.0935  0.1344  0.0490
  146BOLB   GL4 3496  18.777  15.208  28.434  0.2128  0.1074 -0.0546
  146BOLB   C1C 3497  18.458  15.116  28.117 -0.1013  0.0360  0.0914
  146BOLB   C2C 3498  18.516  14.699  27.942  0.0503 -0.0235  0.1799
  146BOLB   C3C 3499  18.325  14.324  28.092  0.0502  0.1438 -0.0993
  146BOLB   C4C 3500  18.012  13.950  28.204  0.1962  0.1832  0.2687
  146BOLB   C1D 3501  18.785  14.879  28.647  0.0589  0.0494 -0.1694
  146BOLB   C2D 3502  19.018  14.466  28.729  0.1162  0.1000 -0.4060
  146BOLB   C3D 3503  18.905  14.136  28.586  0.0277 -0.2312 -0.1731
  146BOLB   C4D 3504  18.484  13.996  28.508  0.3695  0.0398  0.0179
  147BOLB   NC1 3505  21.343  -9.281  16.603 -0.4724  0.1745 -0.3189
  147BOLB   PO1 3506  21.693  -9.039  16.334  0.0721  0.2311 -0.5353
  147BOLB   GL1 3507  21.451  -8.712  16.301 -0.2271 -0.3087 -0.0353
  147BOLB   GL2 3508  21.143  -8.849  16.393 -0.1152 -0.1280 -0.1067
  147BOLB   C1A 3509  21.244  -8.323  16.469 -0.0458  0.0109  0.0056
  147BOLB   C2A 3510  21.378  -7.726  16.369  0.0387  0.0387 -0.0177
  147BOLB   C3A 3511  21.695  -7.457  16.207 -0.2354 -0.1451 -0.1344
  147BOLB   C4A 3512  22.047  -7.345  15.981 -0.2258 -0.2170 -0.0596
  147BOLB   C1B 3513  20.873  -8.695  16.508 -0.2170  0.0269  0.0793
  147BOLB   C2B 3514  20.811  -8.261  16.682 -0.0695 -0.4728 -0.0136
  147BOLB   C3B 3515  20.661  -7.895  16.800 -0.0910  0.1738  0.0078
  147BOLB   C4B 3516  20.514  -7.450  16.772  0.0324 -0.2432 -0.3365
  147BOLB   NC2 3517  23.700  -7.882  13.979  0.1058  0.2980  0.1193
  147BOLB   PO2 3518  23.467  -8.121  14.206 -0.1488  0.1801 -0.1275
  147BOLB   GL3 3519  23.028  -8.047  14.352 -0.0116 -0.2530 -0.0268
  147BOLB   GL4 3520  22.808  -7.823  14.228  0.0880 -0.1605  0.0305
  147BOLB   C1C 3521  22.998  -7.748  14.646  0.0238 -0.1576 -0.0800
  147BOLB   C2C 3522  22.880  -7.546  14.898  0.0260  0.1894  0.0288
  147BOLB   C3C 3523  22.629  -7.327  15.314 -0.2039  0.4942  0.1206
  147BOLB   C4C 3524  22.381  -7.309  15.746 -0.1106  0.0152 -0.1613
  147BOLB   C1D 3525  22.591  -7.492  14.440  0.1216 -0.0568 -0.0484
  147BOLB   C2D 3526  22.273  -7.179  14.493 -0.0280 -0.1417  0.1798
  147BOLB   C3D 3527  22.122  -6.774  14.414  0.2678 -0.0551  0.0170
  147BOLB   C4D 3528  22.039  -6.383  14.655  0.2158  0.0767 -0.0285
  148BOLB   NC1 3529  27.787   5.610  20.804 -0.0159 -0.2083 -0.3636
  148BOLB   PO1 3530  27.556   5.926  21.123  0.0190 -0.2111  0.0596
  148BOLB   GL1 3531  27.042   5.913  21.135 -0.0359  0.2624  0.0382
  148BOLB   GL2 3532  27.099   5.877  20.736  0.0225 -0.1557 -0.3701
  148BOLB   C1A 3533  26.604   5.812  21.199  0.0917  0.1335 -0.3710
  148BOLB   C2A 3534  26.304   5.677  21.186  0.2623  0.3102 -0.1631
  148BOLB   C3A 3535  25.863   5.683  21.027  0.1548  0.0572 -0.1783
  148BOLB   C4A 3536  25.765   6.021  20.675 -0.1097  0.4380  0.1047
  148BOLB   C1B 3537  26.726   5.714  20.712 -0.1240 -0.1456 -0.1918
  148BOLB   C2B 3538  26.302   5.758  20.662  0.0072  0.1741  0.3210
  148BOLB   C3B 3539  26.233   6.140  20.700 -0.0526 -0.2486 -0.2301
  148BOLB   C4B 3540  26.118   6.475  20.332  0.2180  0.1029  0.1700
  148BOLB   NC2 3541  26.500   6.509  19.165  0.5443 -0.1975  0.0449
  148BOLB   PO2 3542  26.356   6.666  18.727  0.0163 -0.0575 -0.1536
  148BOLB   GL3 3543  26.026   6.378  18.975  0.0513  0.0295 -0.1730
  148BOLB   GL4 3544  25.772   6.306  18.859  0.3427 -0.2108  0.0082
  148BOLB   C1C 3545  25.937   6.182  19.291  0.0687  0.0134 -0.0379
  148BOLB   C2C 3546  25.571   6.062  19.501 -0.2260  0.1679 -0.2590
  148BOLB   C3C 3547  25.438   6.094  19.939 -0.1848  0.4044 -0.0396
  148BOLB   C4C 3548  25.576   6.191  20.370  0.1035  0.0310 -0.2723
  148BOLB   C1D 3549  25.585   6.333  18.404  0.0031  0.2068 -0.0223
  148BOLB   C2D 3550  25.373   6.487  18.036 -0.0865  0.1504 -0.0154
  148BOLB   C3D 3551  25.093   6.799  17.652 -0.0457  0.0101 -0.0508
  148BOLB   C4D 3552  24.818   6.628  17.384  0.0864 -0.0329  0.1569
  149BOLB   NC1 3553   9.736  -1.314  14.816 -0.0387  0.1527  0.0658
  149BOLB   PO1 3554   9.478  -1.628  14.922  0.0570 -0.2428 -0.4916
  149BOLB   GL1 3555   9.767  -1.624  15.304  0.0025 -0.0792  0.2272
  149BOLB   GL2 3556   9.684  -1.328  15.431 -0.1415  0.0307 -0.2154
  149BOLB   C1A 3557  10.293  -1.619  15.369 -0.1624 -0.1303 -0.2050
  149BOLB   C2A 3558  10.572  -1.161  15.550  0.1266 -0.1539 -0.1905
  149BOLB   C3A 3559  10.795  -0.937  15.860  0.1879 -0.3088 -0.0242
  149BOLB   C4A 3560  11.145  -0.789  16.109  0.0298 -0.1549  0.0125
  149BOLB   C1B 3561   9.894  -1.495  15.759 -0.2608  0.2266 -0.0987
  149BOLB   C2B 3562  10.368  -1.505  15.878  0.1092  0.0596 -0.0310
  149BOLB   C3B 3563  10.618  -1.903  15.699  0.0620 -0.2668 -0.1644
  149BOLB   C4B 3564  10.655  -2.402  15.658  0.0685 -0.1233  0.1892
  149BOLB   NC2 3565  12.284  -0.244  17.827 -0.4141  0.0934 -0.0692
  149BOLB   PO2 3566  12.621  -0.033  17.819 -0.0043  0.0104  0.0707
  149BOLB   GL3 3567  12.475   0.057  17.427 -0.1503 -0.0851 -0.1323
  149BOLB   GL4 3568  12.452  -0.107  17.193  0.1678 -0.1654 -0.2361
  149BOLB   C1C 3569  11.982   0.022  17.378 -0.3015  0.0599  0.0823
  149BOLB   C2C 3570  11.628  -0.205  17.154 -0.0077  0.0989 -0.1640
  149BOLB   C3C 3571  11.350  -0.344  16.871 -0.2729 -0.1630  0.1104
  149BOLB   C4C 3572  11.299  -0.359  16.363  0.1730  0.0597 -0.2365
  149BOLB   C1D 3573  12.253  -0.558  17.216 -0.0359 -0.0703 -0.1328
  149BOLB   C2D 3574  11.961  -0.682  16.970 -0.2304  0.1356 -0.0979
  149BOLB   C3D 3575  11.539  -0.845  16.856  0.0573  0.0609 -0.1416
  149BOLB   C4D 3576  11.096  -0.782  16.608 -0.2275  0.0772 -0.2295
  150BOLB   NC1 3577  13.883  -1.652  30.815 -0.0861 -0.4936  0.1151
  150BOLB   PO1 3578  14.194  -1.566  30.706  0.0945 -0.0841  0.1218
  150BOLB   GL1 3579  14.361  -1.718  31.043 -0.2390 -0.0344 -0.0830
  150BOLB   GL2 3580  14.469  -1.491  31.332  0.1104  0.1226 -0.1432
  150BOLB   C1A 3581  14.533  -2.058  31.315 -0.1072  0.3207  0.2287
  150BOLB   C2A 3582  14.559  -2.488  31.556 -0.0597 -0.1640 -0.0534
  150BOLB   C3A 3583  14.240  -2.721  31.785  0.1375 -0.2004  0.0237
  150BOLB   C4A 3584  14.305  -2.979  32.115  0.1518  0.1338 -0.1107
  150BOLB   C1B 3585  14.290  -1.733  31.672  0.3306  0.0894  0.0045
  150BOLB   C2B 3586  14.292  -2.159  31.897 -0.1536  0.0458 -0.3542
  150BOLB   C3B 3587  14.297  -2.406  32.230 -0.3684  0.1266  0.0513
  150BOLB   C4B 3588  14.597  -2.632  32.513  0.2138  0.0976 -0.3833
  150BOLB   NC2 3589  14.491  -3.354  34.311 -0.1836 -0.1491 -0.2623
  150BOLB   PO2 3590  14.912  -3.529  34.392 -0.0352 -0.1565  0.1095
  150BOLB   GL3 3591  14.851  -3.390  34.024  0.3962  0.4154  0.0258
  150BOLB   GL4 3592  14.846  -3.000  34.102  0.0015  0.1623 -0.1412
  150BOLB   C1C 3593  14.838  -3.345  33.559 -0.1896  0.1043 -0.1587
  150BOLB   C2C 3594  14.672  -3.324  33.106  0.4488  0.0374 -0.1770
  150BOLB   C3C 3595  14.521  -3.054  32.859 -0.4124  0.1328 -0.0496
  150BOLB   C4C 3596  14.310  -3.056  32.488  0.3545  0.4385 -0.3138
  150BOLB   C1D 3597  15.044  -2.931  33.789 -0.0765  0.1838 -0.1935
  150BOLB   C2D 3598  15.478  -2.784  33.819 -0.0752  0.3120  0.1996
  150BOLB   C3D 3599  15.534  -2.297  33.930  0.1792 -0.2744 -0.3531
  150BOLB   C4D 3600  15.262  -1.988  33.961 -0.0714 -0.1223 -0.2372
  151BOLB   NC1 3601  19.144  -0.085  31.331  0.0371 -0.4975 -0.0978
  151BOLB   PO1 3602  19.159  -0.503  30.965 -0.0490 -0.0521 -0.4654
  151BOLB   GL1 3603  19.102  -0.925  31.210  0.3869 -0.1456  0.1628
  151BOLB   GL2 3604  18.859  -0.982  31.105 -0.0143  0.1586 -0.2442
  151BOLB   C1A 3605  19.197  -1.270  31.554 -0.0017 -0.0055 -0.1148
  151BOLB   C2A 3606  19.255  -1.615  31.931 -0.1668 -0.1994 -0.0205
  151BOLB   C3A 3607  18.950  -1.855  32.222 -0.1606  0.3192  0.1030
  151BOLB   C4A 3608  19.052  -2.255  32.421 -0.3415 -0.0863  0.0555
  151BOLB   C1B 3609  18.905  -1.370  31.155 -0.1134  0.1813 -0.0464
  151BOLB   C2B 3610  18.985  -1.713  31.367  0.1813 -0.0854  0.2109
  151BOLB   C3B 3611  19.019  -2.087  31.601  0.5486 -0.5311 -0.1473
  151BOLB   C4B 3612  19.080  -2.333  31.878 -0.0771 -0.1302  0.0786
  151BOLB   NC2 3613  21.142  -3.225  33.332  0.0741  0.1317  0.0850
  151BOLB   PO2 3614  20.992  -3.667  33.291  0.1368  0.0131  0.0886
  151BOLB   GL3 3615  20.648  -3.651  32.932  0.0757 -0.1973 -0.1041
  151BOLB   GL4 3616  20.742  -3.354  32.833  0.3160  0.2774  0.0318
  151BOLB   C1C 3617  20.313  -3.414  32.643  0.3261  0.0400 -0.0512
  151BOLB   C2C 3618  19.876  -3.209  32.336  0.1434 -0.2109  0.0514
  151BOLB   C3C 3619  19.703  -2.814  32.301  0.2674 -0.2954 -0.0764
  151BOLB   C4C 3620  19.291  -2.620  32.290  0.0323  0.1949  0.1031
  151BOLB   C1D 3621  20.685  -2.987  32.668  0.0160 -0.1532 -0.2854
  151BOLB   C2D 3622  20.766  -2.704  32.355 -0.2472 -0.0540 -0.0664
  151BOLB   C3D 3623  20.567  -2.434  32.023  0.1239  0.1689  0.0741
  151BOLB   C4D 3624  20.394  -2.202  31.686 -0.0434 -0.0248 -0.1797
  152BOLB   NC1 3625   9.577   9.421  24.224  0.0061 -0.0926 -0.2411
  152BOLB   PO1 3626   9.478   9.835  24.510  0.3408 -0.2453  0.0737
  152BOLB   GL1 3627   9.327  10.079  24.207  0.2508 -0.2725  0.0379
  152BOLB   GL2 3628   9.333  10.418  24.320  0.0690  0.0242  0.2420
  152BOLB   C1A 3629   9.135  10.286  23.910 -0.1975 -0.0612 -0.2231
  152BOLB   C2A 3630   9.110  10.657  23.918  0.0596 -0.0583  0.1260
  152BOLB   C3A 3631   8.736  10.809  23.844  0.0562 -0.0261  0.0654
  152BOLB   C4A 3632   8.529  11.258  23.646 -0.0394  0.1248  0.1115
  152BOLB   C1B 3633   9.466  10.879  24.243  0.1266 -0.2088  0.2220
  152BOLB   C2B 3634   9.186  11.194  23.973 -0.2378  0.0411  0.0268
  152BOLB   C3B 3635   9.062  11.035  23.573 -0.1121  0.1403 -0.0813
  152BOLB   C4B 3636   8.967  11.309  23.351  0.0684 -0.3158  0.1302
  152BOLB   NC2 3637   7.297  12.917  22.523 -0.0615  0.1792 -0.0373
  152BOLB   PO2 3638   6.976  12.700  22.709 -0.0392 -0.0477  0.1161
  152BOLB   GL3 3639   7.223  12.379  22.678  0.1353  0.1310 -0.0693
  152BOLB   GL4 3640   7.492  12.457  22.457  0.1505 -0.3253  0.2253
  152BOLB   C1C 3641   7.517  12.129  22.912 -0.0010  0.2580 -0.3429
  152BOLB   C2C 3642   7.872  11.824  22.819  0.1242  0.0115  0.2949
  152BOLB   C3C 3643   8.231  11.669  22.840 -0.1495  0.1685 -0.0113
  152BOLB   C4C 3644   8.503  11.506  23.208  0.2396 -0.0801  0.1291
  152BOLB   C1D 3645   7.550  11.999  22.417 -0.0267  0.2750  0.1423
  152BOLB   C2D 3646   7.486  11.520  22.430 -0.2592  0.0284 -0.1163
  152BOLB   C3D 3647   7.422  11.158  22.709 -0.2379 -0.0509  0.1813
  152BOLB   C4D 3648   7.589  11.006  23.050 -0.0552 -0.1001 -0.1512
  153BOLB   NC1 3649  18.973  -1.145  10.099  0.0785 -0.2749  0.2220
  153BOLB   PO1 3650  19.005  -1.632  10.082  0.2465  0.1957  0.1398
  153BOLB   GL1 3651  18.871  -1.569  10.500 -0.1986  0.2022  0.0090
  153BOLB   GL2 3652  19.217  -1.695  10.631 -0.1811 -0.3189 -0.0466
  153BOLB   C1A 3653  18.582  -1.721  10.776 -0.0390  0.1974 -0.0888
  153BOLB   C2A 3654  18.569  -1.552  11.186 -0.3637  0.2700 -0.2099
  153BOLB   C3A 3655  18.383  -1.540  11.591  0.5132  0.3929  0.0946
  153BOLB   C4A 3656  17.998  -1.364  11.760 -0.0226  0.1838  0.0082
  153BOLB   C1B 3657  18.955  -1.984  10.952 -0.5288 -0.1458 -0.0722
  153BOLB   C2B 3658  19.013  -1.908  11.399  0.0189 -0.2122 -0.0758
  153BOLB   C3B 3659  19.122  -2.105  11.800  0.1354 -0.2306  0.1419
  153BOLB   C4B 3660  19.288  -2.540  11.993 -0.3035 -0.0448 -0.1578
  153BOLB   NC2 3661  17.958  -0.230  10.145 -0.0565  0.1160  0.1022
  153BOLB   PO2 3662  17.591  -0.458   9.971 -0.2191 -0.4175 -0.0190
  153BOLB   GL3 3663  17.505  -0.584  10.484  0.1912 -0.0884 -0.0051
  153BOLB   GL4 3664  17.293  -0.393  10.552 -0.1574 -0.1154  0.2896
  153BOLB   C1C 3665  17.676  -0.768  10.813 -0.2155 -0.1355 -0.3269
  153BOLB   C2C 3666  17.342  -1.008  11.105 -0.1157 -0.0221  0.2578
  153BOLB   C3C 3667  17.284  -1.011  11.427 -0.0309 -0.0293 -0.1326
  153BOLB   C4C 3668  17.624  -1.037  11.770 -0.0276 -0.1296  0.0130
  153BOLB   C1D 3669  17.138  -0.482  10.911 -0.2736  0.1481  0.1663
  153BOLB   C2D 3670  17.074  -0.565  11.295 -0.2222 -0.0302 -0.0094
  153BOLB   C3D 3671  17.356  -0.485  11.675 -0.3231 -0.0717  0.2003
  153BOLB   C4D 3672  17.697  -0.175  11.669 -0.0755 -0.0090  0.2835
  154BOLB   NC1 3673  13.714  16.312  25.570  0.1349 -0.0800  0.0452
  154BOLB   PO1 3674  13.988  16.389  25.305 -0.1678 -0.4968 -0.1074
  154BOLB   GL1 3675  13.782  16.086  25.162  0.2038  0.0269  0.1920
  154BOLB   GL2 3676  13.460  16.010  25.247 -0.3510 -0.3539 -0.0524
  154BOLB   C1A 3677  13.866  15.574  25.069 -0.1665  0.0408 -0.3620
  154BOLB   C2A 3678  13.575  15.228  25.211 -0.0057  0.0801  0.3681
  154BOLB   C3A 3679  13.588  14.765  25.342 -0.1168 -0.2750  0.0234
  154BOLB   C4A 3680  13.365  14.458  25.464  0.0465 -0.3528  0.1158
  154BOLB   C1B 3681  13.361  15.688  25.364  0.0324 -0.0903 -0.1213
  154BOLB   C2B 3682  13.028  15.400  25.430 -0.2246  0.1006  0.2312
  154BOLB   C3B 3683  12.700  15.363  25.667 -0.1827  0.0622 -0.1098
  154BOLB   C4B 3684  12.283  15.233  25.707  0.0792 -0.0851  0.2149
  154BOLB   NC2 3685  13.760  12.235  25.670  0.1236  0.4262 -0.0624
  154BOLB   PO2 3686  13.427  12.260  25.436 -0.0212 -0.1500 -0.1420
  154BOLB   GL3 3687  13.071  12.456  25.192 -0.2185 -0.0157 -0.2425
  154BOLB   GL4 3688  12.827  12.258  24.996  0.3542  0.1163 -0.0753
  154BOLB   C1C 3689  13.075  12.823  25.368  0.0812 -0.0149  0.0335
  154BOLB   C2C 3690  13.225  13.260  25.389 -0.1726 -0.0352 -0.2630
  154BOLB   C3C 3691  13.069  13.793  25.390  0.2659  0.2553 -0.4489
  154BOLB   C4C 3692  13.199  14.205  25.365  0.1559  0.0818  0.2369
  154BOLB   C1D 3693  12.831  12.661  24.685  0.0972 -0.0972  0.1567
  154BOLB   C2D 3694  12.651  13.075  24.689  0.0569  0.1490 -0.1584
  154BOLB   C3D 3695  12.455  13.369  24.453  0.2949 -0.1019 -0.4652
  154BOLB   C4D 3696  12.506  13.865  24.614 -0.0082  0.1632 -0.0595
  155BOLB   NC1 3697  19.556   8.774  19.263 -0.6486 -0.0820  0.0241
  155BOLB   PO1 3698  19.627   8.855  19.669  0.1640  0.1687 -0.0135
  155BOLB   GL1 3699  19.882   9.131  19.521  0.1287 -0.0754 -0.1655
  155BOLB   GL2 3700  19.732   9.210  19.326  0.0138  0.2533  0.0766
  155BOLB   C1A 3701  20.308   9.227  19.294 -0.0049 -0.1263  0.0650
  155BOLB   C2A 3702  20.682   9.163  19.096  0.0186  0.0068 -0.0102
  155BOLB   C3A 3703  20.819   9.146  18.665 -0.1765 -0.6582 -0.2717
  155BOLB   C4A 3704  21.011   9.321  18.422 -0.1657 -0.4046  0.1824
  155BOLB   C1B 3705  19.906   9.575  19.236  0.0106  0.1848 -0.2443
  155BOLB   C2B 3706  19.861   9.991  19.093  0.0982  0.1648 -0.2375
  155BOLB   C3B 3707  19.863  10.217  18.826 -0.0848 -0.1967  0.0064
  155BOLB   C4B 3708  20.208  10.579  18.702 -0.2542  0.0471 -0.0109
  155BOLB   NC2 3709  22.442  10.091  16.151  0.2599  0.0015  0.1502
  155BOLB   PO2 3710  22.408  10.225  16.610  0.0723 -0.0675 -0.3247
  155BOLB   GL3 3711  22.254  10.119  17.071  0.0389 -0.1162  0.1474
  155BOLB   GL4 3712  22.093  10.364  17.241 -0.0072 -0.1942  0.2909
  155BOLB   C1C 3713  22.047   9.854  17.414 -0.0243  0.0225  0.0280
  155BOLB   C2C 3714  21.958   9.679  17.781 -0.0075 -0.1763 -0.0365
  155BOLB   C3C 3715  21.795   9.428  18.011 -0.2942 -0.3367 -0.0656
  155BOLB   C4C 3716  21.467   9.385  18.179 -0.0331  0.0279  0.0992
  155BOLB   C1D 3717  21.765  10.262  17.521 -0.3186 -0.2689  0.1931
  155BOLB   C2D 3718  21.414  10.065  17.583  0.0818  0.1450  0.0511
  155BOLB   C3D 3719  21.263   9.771  17.903 -0.2144 -0.0207  0.2779
  155BOLB   C4D 3720  20.900   9.375  17.954  0.1979  0.1148  0.3791
  156BOLB   NC1 3721  10.753   5.366  31.483 -0.1042  0.4384  0.2332
  156BOLB   PO1 3722  10.428   5.112  31.467  0.1723 -0.1500 -0.2096
  156BOLB   GL1 3723  10.229   5.099  31.925 -0.0273 -0.0390 -0.0366
  156BOLB   GL2 3724   9.951   5.312  32.048 -0.0056 -0.1126  0.0738
  156BOLB   C1A 3725  10.221   4.993  32.410 -0.0314  0.2646 -0.1198
  156BOLB   C2A 3726  10.070   5.171  32.931  0.1083  0.2164  0.0614
  156BOLB   C3A 3727   9.649   5.357  33.190  0.2725  0.0470  0.0775
  156BOLB   C4A 3728   9.227   5.249  33.425 -0.4445  0.2460 -0.0909
  156BOLB   C1B 3729   9.812   5.240  32.503  0.0470  0.1963  0.1490
  156BOLB   C2B 3730   9.384   5.091  32.720 -0.0187 -0.2213 -0.1075
  156BOLB   C3B 3731   9.228   4.884  33.080 -0.0984 -0.2485  0.2051
  156BOLB   C4B 3732   9.313   4.482  33.145 -0.0223  0.2808  0.2272
  156BOLB   NC2 3733   9.322   5.365  35.959 -0.1221  0.0043  0.0389
  156BOLB   PO2 3734   9.036   5.623  35.648 -0.1354  0.1494 -0.0448
  156BOLB   GL3 3735   9.073   5.616  35.148 -0.2850  0.1036 -0.2657
  156BOLB   GL4 3736   9.338   5.786  35.143  0.2519  0.0773 -0.3950
  156BOLB   C1C 3737   9.248   5.650  34.632  0.2601 -0.0071 -0.0960
  156BOLB   C2C 3738   9.200   5.818  34.237  0.2972  0.4022  0.0625
  156BOLB   C3C 3739   9.152   5.807  33.819 -0.1467  0.1304 -0.3149
  156BOLB   C4C 3740   8.910   5.522  33.626  0.0297 -0.2021 -0.2208
  156BOLB   C1D 3741   9.714   5.584  35.125  0.0201  0.0099  0.0105
  156BOLB   C2D 3742  10.031   5.587  34.774 -0.3107 -0.3447  0.3608
  156BOLB   C3D 3743  10.014   5.802  34.366  0.0745  0.4196 -0.1759
  156BOLB   C4D 3744   9.664   5.973  34.115  0.3888  0.2560  0.1757
  157BOLB   NC1 3745  13.435   4.692  38.557  0.0189 -0.1510 -0.0009
  157BOLB   PO1 3746  13.391   4.509  38.047  0.0020  0.1435  0.1256
  157BOLB   GL1 3747  13.504   4.641  37.589 -0.0504 -0.0200  0.1802
  157BOLB   GL2 3748  13.381   4.790  37.336 -0.1450 -0.2536  0.0809
  157BOLB   C1A 3749  13.985   4.742  37.426 -0.2890 -0.0203  0.0381
  157BOLB   C2A 3750  14.377   4.777  37.270  0.1922  0.1053 -0.1226
  157BOLB   C3A 3751  14.684   4.714  36.902 -0.0579 -0.2238  0.1746
  157BOLB   C4A 3752  14.987   4.850  36.675  0.1597  0.1382 -0.1749
  157BOLB   C1B 3753  13.592   4.806  36.951 -0.2269  0.2549  0.1920
  157BOLB   C2B 3754  13.647   4.478  36.651 -0.1739 -0.0359  0.1502
  157BOLB   C3B 3755  13.675   4.471  36.208  0.2005  0.1059 -0.2047
  157BOLB   C4B 3756  13.524   4.345  35.802  0.0865 -0.0487  0.0914
  157BOLB   NC2 3757  13.594   5.644  37.744 -0.1788 -0.2758  0.2237
  157BOLB   PO2 3758  14.092   5.756  37.625  0.1784 -0.7068  0.0080
  157BOLB   GL3 3759  14.314   5.747  37.230  0.0101  0.2068  0.1065
  157BOLB   GL4 3760  14.316   6.001  37.008 -0.2982  0.0962  0.2327
  157BOLB   C1C 3761  14.649   5.685  36.971 -0.2145  0.1699 -0.2591
  157BOLB   C2C 3762  14.955   5.740  36.574 -0.0788  0.1392 -0.2519
  157BOLB   C3C 3763  15.206   5.508  36.330 -0.0179 -0.1619 -0.3898
  157BOLB   C4C 3764  15.142   5.118  36.305  0.4732 -0.1182 -0.3801
  157BOLB   C1D 3765  14.454   6.062  36.636 -0.0157  0.0976  0.1368
  157BOLB   C2D 3766  14.657   5.945  36.188 -0.0489  0.0267  0.1656
  157BOLB   C3D 3767  14.570   5.803  35.802  0.2609 -0.3770  0.0323
  157BOLB   C4D 3768  14.487   5.706  35.386  0.2259  0.1412 -0.1354
  158BOLB   NC1 3769   8.326   8.427  25.709 -0.4755 -0.0812 -0.1719
  158BOLB   PO1 3770   8.340   8.710  25.277  0.1037 -0.1243 -0.1881
  158BOLB   GL1 3771   7.995   8.805  25.457  0.0884  0.2638  0.3016
  158BOLB   GL2 3772   7.930   9.105  25.620 -0.0643  0.3489 -0.2304
  158BOLB   C1A 3773   7.570   8.958  25.302 -0.1038 -0.2591 -0.2346
  158BOLB   C2A 3774   7.185   9.256  25.197 -0.1549 -0.1010  0.1356
  158BOLB   C3A 3775   7.099   9.678  25.307  0.1946 -0.2279 -0.0079
  158BOLB   C4A 3776   7.010  10.016  24.996 -0.0894 -0.2331  0.0974
  158BOLB   C1B 3777   7.550   9.389  25.562 -0.0308  0.3596  0.3762
  158BOLB   C2B 3778   7.554   9.830  25.841 -0.1778  0.0905 -0.0394
  158BOLB   C3B 3779   7.823  10.010  25.945  0.2638  0.1069  0.2343
  158BOLB   C4B 3780   8.200  10.101  26.064 -0.1155 -0.1112  0.4025
  158BOLB   NC2 3781   5.303  11.824  24.114  0.1919 -0.0028  0.3678
  158BOLB   PO2 3782   5.705  11.618  23.949 -0.0197  0.0870  0.0086
  158BOLB   GL3 3783   5.845  11.301  24.167 -0.0620 -0.1034  0.0928
  158BOLB   GL4 3784   5.636  11.045  24.381  0.2197  0.0019 -0.4523
  158BOLB   C1C 3785   6.324  11.212  24.200  0.1909  0.0062  0.1234
  158BOLB   C2C 3786   6.515  11.017  24.486  0.4327 -0.0756 -0.2171
  158BOLB   C3C 3787   6.614  10.812  24.860  0.3934 -0.2586 -0.1381
  158BOLB   C4C 3788   6.772  10.378  24.896  0.1129 -0.1565  0.1531
  158BOLB   C1D 3789   6.122  10.786  24.286  0.2160 -0.0979  0.0093
  158BOLB   C2D 3790   6.418  10.476  24.464  0.0645 -0.0941 -0.1268
  158BOLB   C3D 3791   6.604  10.036  24.502  0.2618 -0.2699  0.1621
  158BOLB   C4D 3792   6.756   9.627  24.723 -0.1514 -0.1301 -0.0528
  159BOLB   NC1 3793  25.193  -2.841  31.365 -0.0297 -0.1832 -0.3629
  159BOLB   PO1 3794  24.920  -2.540  31.489  0.1474 -0.0339 -0.0288
  159BOLB   GL1 3795  24.734  -2.110  31.464 -0.3618 -0.1307  0.3518
  159BOLB   GL2 3796  24.772  -1.772  31.439  0.1026  0.0850 -0.1658
  159BOLB   C1A 3797  24.283  -2.040  31.230 -0.1160 -0.2052 -0.0735
  159BOLB   C2A 3798  23.899  -1.807  31.105  0.0489  0.2170 -0.0105
  159BOLB   C3A 3799  23.545  -1.514  31.250  0.0985  0.1285 -0.0033
  159BOLB   C4A 3800  23.158  -1.417  31.173  0.0470  0.1236 -0.0751
  159BOLB   C1B 3801  24.546  -1.651  31.191  0.2012  0.2078 -0.1490
  159BOLB   C2B 3802  24.296  -1.400  31.096 -0.1754 -0.1245 -0.1304
  159BOLB   C3B 3803  23.970  -1.159  31.010 -0.1166  0.1824  0.0750
  159BOLB   C4B 3804  23.692  -1.181  30.765  0.0876  0.1112  0.0860
  159BOLB   NC2 3805  21.322  -0.683  29.633 -0.3066 -0.4274 -0.0874
  159BOLB   PO2 3806  21.527  -0.414  29.989 -0.0740 -0.0184 -0.1017
  159BOLB   GL3 3807  21.452  -0.559  30.482 -0.2366  0.1001  0.2245
  159BOLB   GL4 3808  21.134  -0.534  30.648 -0.0601 -0.0746 -0.0566
  159BOLB   C1C 3809  21.764  -0.792  30.649  0.1458 -0.1118  0.0187
  159BOLB   C2C 3810  22.093  -1.146  30.681 -0.2555 -0.1279  0.2812
  159BOLB   C3C 3811  22.412  -1.324  30.786 -0.1115 -0.1345  0.0617
  159BOLB   C4C 3812  22.766  -1.286  30.877  0.1869  0.2550  0.1914
  159BOLB   C1D 3813  21.195  -0.835  30.968 -0.1597 -0.2993 -0.1083
  159BOLB   C2D 3814  21.049  -0.985  31.255 -0.3505 -0.2219  0.0950
  159BOLB   C3D 3815  20.887  -1.422  31.362 -0.1558 -0.3776  0.1162
  159BOLB   C4D 3816  20.572  -1.690  31.555 -0.0448  0.0258 -0.1950
  160BOLB   NC1 3817  16.270  -3.923  27.897 -0.2028  0.1893 -0.2594
  160BOLB   PO1 3818  16.085  -4.178  27.520 -0.1337 -0.2202 -0.2298
  160BOLB   GL1 3819  16.292  -4.397  27.816  0.1493  0.2814  0.2941
  160BOLB   GL2 3820  16.083  -4.446  28.029  0.1181  0.1567 -0.2041
  160BOLB   C1A 3821  16.541  -4.721  27.821  0.2757  0.2770 -0.1168
  160BOLB   C2A 3822  16.887  -4.845  27.820  0.0298  0.3322 -0.0058
  160BOLB   C3A 3823  17.141  -5.014  27.681  0.2902 -0.0162  0.2453
  160BOLB   C4A 3824  17.416  -5.416  27.677 -0.3022  0.3286  0.0684
  160BOLB   C1B 3825  16.205  -4.762  28.222  0.0829  0.0865 -0.1566
  160BOLB   C2B 3826  16.373  -4.942  28.622  0.1079  0.0338 -0.0180
  160BOLB   C3B 3827  16.677  -5.164  28.783 -0.3524 -0.3071  0.1118
  160BOLB   C4B 3828  16.986  -5.326  29.075 -0.0031  0.1542 -0.1668
  160BOLB   NC2 3829  18.968  -7.261  28.436  0.1720 -0.1613  0.2350
  160BOLB   PO2 3830  18.620  -7.298  28.211 -0.1625  0.2036  0.0262
  160BOLB   GL3 3831  18.546  -6.870  28.132 -0.0917  0.0307  0.0463
  160BOLB   GL4 3832  18.723  -6.722  28.237 -0.3426 -0.1270  0.0010
  160BOLB   C1C 3833  18.084  -6.673  28.089 -0.2013  0.2668  0.2245
  160BOLB   C2C 3834  17.778  -6.352  28.267 -0.2538  0.1065 -0.0115
  160BOLB   C3C 3835  17.758  -5.995  28.233 -0.0695  0.3291 -0.0520
  160BOLB   C4C 3836  17.512  -5.785  27.970 -0.0846 -0.2257  0.0141
  160BOLB   C1D 3837  19.174  -6.580  28.176  0.1257 -0.2397  0.0412
  160BOLB   C2D 3838  19.235  -6.089  28.272  0.1800  0.2207 -0.1550
  160BOLB   C3D 3839  19.244  -5.659  28.289  0.0503  0.0108  0.0086
  160BOLB   C4D 3840  19.163  -5.164  28.460  0.0685  0.1607 -0.3459
  161BOLB   NC1 3841   7.317   3.331  24.026  0.2864 -0.1483  0.2843
  161BOLB   PO1 3842   7.392   3.731  24.256 -0.2093 -0.1591 -0.0087
  161BOLB   GL1 3843   7.136   3.777  23.922  0.1762  0.2002 -0.2454
  161BOLB   GL2 3844   6.916   3.559  23.804  0.1198  0.2284 -0.1268
  161BOLB   C1A 3845   6.760   4.009  23.712  0.1498 -0.1194 -0.2812
  161BOLB   C2A 3846   6.304   3.958  23.562  0.1625  0.2387 -0.2129
  161BOLB   C3A 3847   5.980   4.149  23.411 -0.2479 -0.0610  0.0128
  161BOLB   C4A 3848   5.536   4.151  23.486 -0.0386  0.1234  0.1573
  161BOLB   C1B 3849   6.642   3.486  23.565 -0.0286 -0.0265 -0.2866
  161BOLB   C2B 3850   6.148   3.439  23.507 -0.0179  0.2016  0.1466
  161BOLB   C3B 3851   5.781   3.494  23.224  0.0746  0.1750  0.0400
  161BOLB   C4B 3852   5.283   3.746  23.277 -0.0086 -0.0918 -0.0540
  161BOLB   NC2 3853   3.225   3.202  21.920 -0.0600 -0.0659  0.0221
  161BOLB   PO2 3854   3.416   3.650  22.087  0.1753 -0.0752 -0.1685
  161BOLB   GL3 3855   3.638   3.909  22.363  0.1135 -0.3097 -0.1923
  161BOLB   GL4 3856   3.876   4.017  22.211  0.2432  0.0890  0.2000
  161BOLB   C1C 3857   3.979   3.931  22.690 -0.1382  0.1961 -0.2179
  161BOLB   C2C 3858   4.340   3.843  23.027  0.2528  0.0238  0.0372
  161BOLB   C3C 3859   4.789   3.923  23.367 -0.2063  0.1684 -0.0116
  161BOLB   C4C 3860   5.102   4.159  23.423 -0.0542 -0.3711 -0.0473
  161BOLB   C1D 3861   4.306   3.788  22.183 -0.3600 -0.1960  0.0328
  161BOLB   C2D 3862   4.306   3.414  22.085  0.0607  0.0374 -0.0168
  161BOLB   C3D 3863   4.362   3.012  22.335  0.1761 -0.0199 -0.0086
  161BOLB   C4D 3864   4.379   2.641  22.504 -0.1205 -0.2903 -0.2168
  162BOLB   NC1 3865   8.447   9.393  28.363 -0.2322  0.1720  0.0040
  162BOLB   PO1 3866   8.856   9.315  28.622 -0.1977 -0.0584  0.0321
  162BOLB   GL1 3867   8.553   9.444  28.844  0.4300  0.1175 -0.1271
  162BOLB   GL2 3868   8.580   9.831  28.905  0.1894 -0.1072  0.0036
  162BOLB   C1A 3869   8.077   9.564  28.851 -0.1998  0.2978  0.0323
  162BOLB   C2A 3870   7.917   9.658  29.068  0.1434  0.2809 -0.3561
  162BOLB   C3A 3871   7.482   9.721  29.150 -0.2294  0.2172 -0.2385
  162BOLB   C4A 3872   7.188   9.919  29.423 -0.0363 -0.2605  0.1774
  162BOLB   C1B 3873   8.281  10.100  29.124  0.0162 -0.1886 -0.2191
  162BOLB   C2B 3874   8.375  10.297  29.570 -0.0601 -0.0227  0.3076
  162BOLB   C3B 3875   8.759  10.520  29.708  0.0651  0.1786 -0.0948
  162BOLB   C4B 3876   9.200  10.409  29.814  0.0387  0.0369  0.1633
  162BOLB   NC2 3877   5.025  10.130  30.835  0.0266  0.0773  0.1156
  162BOLB   PO2 3878   5.139  10.109  30.464 -0.0193  0.1808  0.2659
  162BOLB   GL3 3879   5.548  10.237  30.579 -0.0218 -0.1590 -0.0553
  162BOLB   GL4 3880   5.598  10.064  30.924  0.0581  0.1664 -0.0696
  162BOLB   C1C 3881   5.952  10.048  30.426 -0.3409 -0.0272  0.2219
  162BOLB   C2C 3882   6.299   9.979  30.278 -0.1105 -0.1764  0.0261
  162BOLB   C3C 3883   6.519   9.965  29.900  0.1165  0.3751 -0.0633
  162BOLB   C4C 3884   6.800  10.016  29.567  0.0554  0.1617 -0.1062
  162BOLB   C1D 3885   5.732   9.571  30.760 -0.0291 -0.0135  0.1572
  162BOLB   C2D 3886   5.957   9.226  30.549  0.0272 -0.1338  0.3319
  162BOLB   C3D 3887   6.179   8.928  30.578 -0.2015  0.0050  0.1325
  162BOLB   C4D 3888   6.430   8.620  30.655  0.0644  0.1045 -0.1440
  163BOLB   NC1 3889  13.333   6.127  17.227 -0.0523 -0.0268 -0.0017
  163BOLB   PO1 3890  13.759   6.245  17.163 -0.0225  0.0832  0.0731
  163BOLB   GL1 3891  13.541   6.423  16.860 -0.0529  0.2454 -0.0333
  163BOLB   GL2 3892  13.389   6.202  16.697  0.2428 -0.1159 -0.1373
  163BOLB   C1A 3893  13.728   6.892  16.582  0.0733  0.2190  0.1800
  163BOLB   C2A 3894  13.835   7.080  16.193  0.1277  0.1313 -0.2587
  163BOLB   C3A 3895  13.784   7.354  15.972 -0.0748  0.3212 -0.0277
  163BOLB   C4A 3896  13.520   7.719  15.878 -0.0224 -0.2274  0.1233
  163BOLB   C1B 3897  13.275   6.141  16.173 -0.2403 -0.0703  0.3029
  163BOLB   C2B 3898  12.955   6.088  15.874 -0.1100  0.0963  0.2310
  163BOLB   C3B 3899  12.686   6.031  15.521 -0.3544 -0.3027 -0.3311
  163BOLB   C4B 3900  12.996   5.917  15.061  0.3939  0.3461 -0.0579
  163BOLB   NC2 3901  11.159   8.557  14.446 -0.3160  0.0714  0.0045
  163BOLB   PO2 3902  11.156   8.121  14.641 -0.0158 -0.0102 -0.1129
  163BOLB   GL3 3903  11.599   8.206  14.813  0.3974 -0.1342  0.1202
  163BOLB   GL4 3904  11.781   8.557  14.905  0.1342 -0.0126  0.4746
  163BOLB   C1C 3905  11.951   8.075  14.956  0.0534  0.2465  0.1710
  163BOLB   C2C 3906  12.283   8.018  15.264  0.0062 -0.0289  0.0663
  163BOLB   C3C 3907  12.564   7.905  15.585 -0.1860 -0.1317 -0.1912
  163BOLB   C4C 3908  13.104   7.999  15.683 -0.2575  0.2942  0.0477
  163BOLB   C1D 3909  11.893   8.523  15.243  0.0503  0.0029  0.0360
  163BOLB   C2D 3910  12.070   8.456  15.624 -0.1279  0.0285 -0.0987
  163BOLB   C3D 3911  11.948   8.451  16.100 -0.0048 -0.0188  0.0368
  163BOLB   C4D 3912  11.668   8.769  16.097 -0.1049  0.0979 -0.3766
  164BOLB   NC1 3913  14.232  -4.135  23.934  0.0785 -0.1855  0.1599
  164BOLB   PO1 3914  14.091  -3.950  24.287  0.2267 -0.2348 -0.0119
  164BOLB   GL1 3915  14.104  -4.366  24.516 -0.0290 -0.2743 -0.0334
  164BOLB   GL2 3916  13.758  -4.481  24.533 -0.1027 -0.3009 -0.0196
  164BOLB   C1A 3917  14.284  -4.758  24.588  0.1319 -0.1435  0.0402
  164BOLB   C2A 3918  14.187  -5.263  24.556 -0.0407  0.0169 -0.1090
  164BOLB   C3A 3919  14.017  -5.648  24.685 -0.2475  0.5032  0.2856
  164BOLB   C4A 3920  13.963  -6.110  24.673  0.2546 -0.2000  0.1457
  164BOLB   C1B 3921  13.652  -4.826  24.712 -0.1383 -0.0731 -0.2304
  164BOLB   C2B 3922  13.612  -5.261  24.794 -0.0546 -0.1747  0.0936
  164BOLB   C3B 3923  13.549  -5.697  24.654  0.0284 -0.1038 -0.3619
  164BOLB   C4B 3924  13.404  -6.026  24.612  0.1419  0.1033  0.0734
  164BOLB   NC2 3925  13.797  -8.301  25.442 -0.2070  0.2709  0.1742
  164BOLB   PO2 3926  14.081  -8.370  25.118 -0.0298 -0.0498  0.3051
  164BOLB   GL3 3927  13.870  -7.984  24.887 -0.1171  0.3294  0.0533
  164BOLB   GL4 3928  14.136  -7.781  24.974  0.0916 -0.1804  0.2537
  164BOLB   C1C 3929  13.525  -7.634  24.815  0.2826 -0.0815  0.3429
  164BOLB   C2C 3930  13.648  -7.261  24.710  0.0013  0.4639 -0.1082
  164BOLB   C3C 3931  13.613  -6.905  24.826  0.0121 -0.1388 -0.2688
  164BOLB   C4C 3932  13.621  -6.440  24.676 -0.1181  0.1324 -0.1157
  164BOLB   C1D 3933  14.215  -7.336  25.021  0.5102  0.0236  0.0037
  164BOLB   C2D 3934  14.018  -7.030  25.002  0.1111  0.0744  0.0459
  164BOLB   C3D 3935  13.936  -6.555  25.160 -0.1585  0.0798 -0.0353
  164BOLB   C4D 3936  13.744  -6.299  25.597  0.1620 -0.0709 -0.1502
  165BOLB   NC1 3937  12.252   0.895  18.069 -0.3290  0.0183  0.0822
  165BOLB   PO1 3938  12.076   0.761  17.683 -0.1515 -0.3544 -0.0042
  165BOLB   GL1 3939  12.119   0.516  17.281 -0.1760 -0.4306 -0.2559
  165BOLB   GL2 3940  11.880   0.713  17.040  0.2024 -0.3289 -0.1167
  165BOLB   C1A 3941  12.071   0.235  16.973 -0.0960 -0.1766 -0.0204
  165BOLB   C2A 3942  11.976  -0.223  16.777  0.3927 -0.0083 -0.2327
  165BOLB   C3A 3943  11.731  -0.490  16.581  0.0332  0.2650  0.0019
  165BOLB   C4A 3944  11.670  -0.532  16.094 -0.2234  0.0455  0.1035
  165BOLB   C1B 3945  11.368   0.784  17.047  0.1652 -0.0542 -0.1250
  165BOLB   C2B 3946  10.949   0.833  16.875 -0.2428 -0.2036  0.1933
  165BOLB   C3B 3947  10.666   0.823  16.548 -0.1738 -0.0029 -0.1522
  165BOLB   C4B 3948  10.586   0.716  16.097  0.1109 -0.2050 -0.0018
  165BOLB   NC2 3949  10.000  -1.853  14.216  0.2162  0.1441 -0.0903
  165BOLB   PO2 3950  10.148  -1.598  14.635 -0.0393  0.0072  0.0109
  165BOLB   GL3 3951  10.297  -1.311  14.893 -0.1525  0.2992 -0.0685
  165BOLB   GL4 3952  10.186  -0.995  14.846 -0.1775  0.0972 -0.0849
  165BOLB   C1C 3953  10.678  -1.301  15.058  0.0258 -0.1590 -0.1661
  165BOLB   C2C 3954  11.071  -1.137  15.360  0.0767  0.0455 -0.0765
  165BOLB   C3C 3955  11.321  -0.907  15.617  0.0974  0.2520  0.0238
  165BOLB   C4C 3956  11.663  -0.874  15.922  0.0195 -0.2368  0.0891
  165BOLB   C1D 3957  10.477  -0.845  15.135  0.4902  0.2284  0.0809
  165BOLB   C2D 3958  10.784  -0.681  15.401 -0.1612 -0.2838 -0.2727
  165BOLB   C3D 3959  11.062  -0.485  15.657 -0.2811  0.1040  0.1034
  165BOLB   C4D 3960  11.267  -0.160  15.867  0.1338  0.0524 -0.0947
  166BOLB   NC1 3961   7.878   7.248  27.334  0.0663 -0.1221  0.2394
  166BOLB   PO1 3962   7.904   6.820  27.349  0.3842 -0.5134 -0.2100
  166BOLB   GL1 3963   7.528   6.669  27.315 -0.3315  0.0435  0.0467
  166BOLB   GL2 3964   7.351   6.428  27.495  0.0673  0.0331  0.0691
  166BOLB   C1A 3965   7.219   6.853  27.145 -0.2514  0.2725 -0.3071
  166BOLB   C2A 3966   6.878   7.142  26.958  0.0643 -0.2394 -0.0821
  166BOLB   C3A 3967   6.431   7.246  27.144 -0.2869  0.0266  0.2718
  166BOLB   C4A 3968   6.154   7.519  27.284  0.1487 -0.0792 -0.0173
  166BOLB   C1B 3969   7.004   6.320  27.361 -0.0860  0.0680 -0.0073
  166BOLB   C2B 3970   6.653   6.412  27.438  0.0964  0.0495  0.2175
  166BOLB   C3B 3971   6.217   6.568  27.602 -0.2733  0.0041 -0.0027
  166BOLB   C4B 3972   5.810   6.790  27.887 -0.3949  0.2432 -0.1275
  166BOLB   NC2 3973   4.061   8.797  28.140  0.2607  0.2589 -0.1071
  166BOLB   PO2 3974   4.120   8.370  28.244 -0.0670  0.2046  0.2764
  166BOLB   GL3 3975   4.382   7.927  28.320 -0.0519  0.2896 -0.0296
  166BOLB   GL4 3976   4.191   7.692  28.307  0.0016  0.3919 -0.0534
  166BOLB   C1C 3977   4.751   7.676  28.235 -0.0914  0.4052  0.0613
  166BOLB   C2C 3978   5.125   7.706  28.061  0.0446 -0.0585 -0.1697
  166BOLB   C3C 3979   5.431   7.517  27.792  0.2840  0.1255 -0.3354
  166BOLB   C4C 3980   5.881   7.532  27.608 -0.0006  0.1707 -0.3081
  166BOLB   C1D 3981   4.374   7.481  28.603 -0.0417 -0.1161 -0.1834
  166BOLB   C2D 3982   4.713   7.352  28.654  0.2801  0.1191  0.0911
  166BOLB   C3D 3983   5.072   7.262  28.673  0.1015 -0.0259  0.1799
  166BOLB   C4D 3984   5.453   7.461  28.673  0.0738  0.2676  0.3852
  167BOLB   NC1 3985   6.394  -2.346  31.247 -0.1136 -0.5240 -0.1757
  167BOLB   PO1 3986   6.189  -2.078  31.265 -0.1977  0.0495 -0.0956
  167BOLB   GL1 3987   6.337  -1.798  30.988 -0.1521  0.1969  0.1753
  167BOLB   GL2 3988   6.448  -2.044  30.815  0.0653  0.0796  0.2795
  167BOLB   C1A 3989   6.646  -1.436  31.016 -0.4657  0.0453  0.3457
  167BOLB   C2A 3990   6.707  -1.057  30.814 -0.0733 -0.1946 -0.3319
  167BOLB   C3A 3991   6.852  -0.613  30.840 -0.0222  0.1647  0.2110
  167BOLB   C4A 3992   7.323  -0.443  30.925  0.2679 -0.1433  0.1940
  167BOLB   C1B 3993   6.887  -1.970  30.723  0.1283 -0.0742 -0.0637
  167BOLB   C2B 3994   7.316  -1.697  30.630  0.0545  0.2205 -0.2149
  167BOLB   C3B 3995   7.654  -1.662  30.325 -0.1443 -0.2488  0.1467
  167BOLB   C4B 3996   7.792  -1.298  30.091  0.0467 -0.3534  0.2411
  167BOLB   NC2 3997   6.280  -0.798  32.100  0.1035  0.0608  0.0322
  167BOLB   PO2 3998   6.588  -0.876  32.413  0.1908  0.1367 -0.4122
  167BOLB   GL3 3999   6.834  -0.555  32.287  0.0844  0.1026 -0.3792
  167BOLB   GL4 4000   6.822  -0.399  32.029  0.2522 -0.0717  0.4157
  167BOLB   C1C 4001   7.167  -0.213  32.318 -0.2782  0.0289 -0.0513
  167BOLB   C2C 4002   7.573  -0.098  32.070  0.2441 -0.0129 -0.1350
  167BOLB   C3C 4003   7.490  -0.299  31.705 -0.0145 -0.0300 -0.0095
  167BOLB   C4C 4004   7.360  -0.247  31.268 -0.0770  0.3170  0.1540
  167BOLB   C1D 4005   6.909  -0.367  31.650 -0.3655 -0.3133 -0.1344
  167BOLB   C2D 4006   6.481  -0.102  31.445  0.0469 -0.2631  0.0134
  167BOLB   C3D 4007   6.234   0.346  31.542 -0.1096 -0.0856 -0.1620
  167BOLB   C4D 4008   6.027   0.564  31.196 -0.0814 -0.1149 -0.2426
  168BOLB   NC1 4009  12.692   2.730  33.264  0.1068  0.0149  0.0953
  168BOLB   PO1 4010  12.362   2.961  33.233 -0.4542 -0.0016  0.1012
  168BOLB   GL1 4011  12.302   2.892  33.662  0.1027  0.0068  0.3330
  168BOLB   GL2 4012  12.354   3.223  33.720  0.0861 -0.2377 -0.1664
  168BOLB   C1A 4013  12.203   2.477  33.954  0.0189  0.1883 -0.1869
  168BOLB   C2A 4014  11.826   2.261  34.133 -0.4402 -0.0263  0.0561
  168BOLB   C3A 4015  11.519   2.077  34.146 -0.4620  0.0048  0.0214
  168BOLB   C4A 4016  11.127   1.854  34.229 -0.3255 -0.0923  0.0468
  168BOLB   C1B 4017  12.022   3.176  33.974 -0.0483  0.1447  0.2463
  168BOLB   C2B 4018  11.689   2.837  34.177 -0.0065  0.2248  0.2058
  168BOLB   C3B 4019  11.474   2.497  34.466 -0.0377 -0.1193 -0.2284
  168BOLB   C4B 4020  11.482   2.478  34.946  0.3284 -0.0951 -0.2587
  168BOLB   NC2 4021   9.768   0.977  36.701 -0.3416  0.3702 -0.0142
  168BOLB   PO2 4022   9.865   1.089  36.229 -0.3450  0.1648 -0.0819
  168BOLB   GL3 4023   9.897   1.005  35.731 -0.0696 -0.0683 -0.1260
  168BOLB   GL4 4024  10.143   0.796  35.585  0.1657 -0.1978 -0.1636
  168BOLB   C1C 4025   9.922   1.245  35.361  0.3831  0.1805  0.0102
  168BOLB   C2C 4026  10.216   1.424  35.084 -0.3102 -0.1229 -0.1030
  168BOLB   C3C 4027  10.404   1.634  34.705 -0.3776 -0.0416 -0.0365
  168BOLB   C4C 4028  10.813   1.695  34.516 -0.0515 -0.1276 -0.1629
  168BOLB   C1D 4029  10.174   0.882  35.054 -0.0816  0.2817  0.0683
  168BOLB   C2D 4030  10.338   1.115  34.761 -0.4264 -0.1429  0.0085
  168BOLB   C3D 4031  10.551   1.254  34.341 -0.0699  0.2743 -0.0924
  168BOLB   C4D 4032  10.508   1.081  33.935  0.1437 -0.0592  0.3654
  169BOLB   NC1 4033   7.828   4.396  20.704 -0.1348 -0.1970 -0.5578
  169BOLB   PO1 4034   8.074   4.701  20.881  0.2819  0.1660  0.2652
  169BOLB   GL1 4035   7.718   4.903  20.603  0.0273 -0.1283  0.1045
  169BOLB   GL2 4036   7.471   4.683  20.620  0.1857  0.0079  0.0795
  169BOLB   C1A 4037   7.394   5.205  20.577  0.0299 -0.1517 -0.0713
  169BOLB   C2A 4038   7.174   5.414  20.740 -0.3285 -0.1582 -0.1734
  169BOLB   C3A 4039   6.824   5.711  20.657  0.0958  0.2901 -0.5202
  169BOLB   C4A 4040   6.364   5.563  20.717  0.0845  0.0775  0.1540
  169BOLB   C1B 4041   7.140   4.619  20.369  0.0837  0.0781 -0.1977
  169BOLB   C2B 4042   6.786   4.710  20.138  0.1464  0.1730  0.2679
  169BOLB   C3B 4043   6.395   4.635  20.105  0.2851 -0.1677  0.2721
  169BOLB   C4B 4044   6.009   4.725  20.262  0.2027 -0.0543 -0.1341
  169BOLB   NC2 4045   3.876   6.129  21.039 -0.1857  0.0922  0.0665
  169BOLB   PO2 4046   4.254   6.067  20.812 -0.3185 -0.2039  0.1130
  169BOLB   GL3 4047   4.494   5.812  21.109 -0.2660 -0.1084  0.0000
  169BOLB   GL4 4048   4.736   5.987  20.983 -0.1340  0.0316  0.0565
  169BOLB   C1C 4049   4.789   5.502  21.135  0.1618 -0.1675  0.3215
  169BOLB   C2C 4050   5.103   5.341  21.198 -0.3881 -0.0845  0.0909
  169BOLB   C3C 4051   5.594   5.459  21.146  0.1404 -0.2345  0.1135
  169BOLB   C4C 4052   5.955   5.366  20.940  0.0328 -0.1823  0.2089
  169BOLB   C1D 4053   5.083   5.901  21.130 -0.0190  0.1744  0.5278
  169BOLB   C2D 4054   5.488   5.857  21.374  0.3612  0.1346  0.0545
  169BOLB   C3D 4055   5.713   6.196  21.551 -0.0026 -0.1510  0.0868
  169BOLB   C4D 4056   6.242   6.352  21.552  0.0698  0.3115  0.0984
  170BOLB   NC1 4057   7.749   6.775  23.959  0.2122 -0.4423  0.0840
  170BOLB   PO1 4058   7.540   6.590  24.353 -0.2038  0.3096 -0.0084
  170BOLB   GL1 4059   7.155   6.353  24.359  0.0580 -0.0709  0.1158
  170BOLB   GL2 4060   7.025   6.039  24.170 -0.0377 -0.2041 -0.1490
  170BOLB   C1A 4061   6.824   6.513  24.069 -0.0836 -0.3481  0.0979
  170BOLB   C2A 4062   6.471   6.445  23.831  0.1284  0.0101 -0.0454
  170BOLB   C3A 4063   6.073   6.597  23.490 -0.2274 -0.1326  0.1229
  170BOLB   C4A 4064   5.939   6.939  23.192  0.0172  0.1554  0.4698
  170BOLB   C1B 4065   6.581   6.069  24.190 -0.0777  0.0984 -0.0232
  170BOLB   C2B 4066   6.141   6.224  24.230  0.0827 -0.1186  0.0667
  170BOLB   C3B 4067   5.733   6.170  24.199  0.0630  0.1567 -0.2819
  170BOLB   C4B 4068   5.376   6.104  23.920  0.3174 -0.2023 -0.2775
  170BOLB   NC2 4069   4.042   8.197  22.044 -0.1254 -0.3873  0.1102
  170BOLB   PO2 4070   3.839   7.943  22.368 -0.2432 -0.4263 -0.2314
  170BOLB   GL3 4071   4.082   7.842  22.680  0.3271  0.1541  0.3580
  170BOLB   GL4 4072   4.056   7.527  22.822  0.1897 -0.4663 -0.1887
  170BOLB   C1C 4073   4.484   7.878  22.785  0.1046 -0.4737 -0.1426
  170BOLB   C2C 4074   4.824   7.566  22.851  0.1279  0.0865  0.1051
  170BOLB   C3C 4075   5.253   7.313  22.982 -0.1611 -0.1842 -0.0216
  170BOLB   C4C 4076   5.639   7.187  22.936 -0.0660 -0.2606  0.1543
  170BOLB   C1D 4077   4.392   7.328  22.938  0.1662  0.0661 -0.2755
  170BOLB   C2D 4078   4.666   7.033  22.758  0.0331 -0.4188  0.2146
  170BOLB   C3D 4079   5.003   7.200  22.559  0.4416  0.0776  0.2389
  170BOLB   C4D 4080   5.364   7.225  22.430 -0.0059 -0.0577  0.0692
  171BOLB   NC1 4081   5.458  -0.869  18.066  0.0564  0.2566 -0.0469
  171BOLB   PO1 4082   5.598  -0.811  18.453  0.0900  0.1043  0.3274
  171BOLB   GL1 4083   5.865  -0.571  18.392 -0.0688 -0.0197 -0.1510
  171BOLB   GL2 4084   5.810  -0.217  18.520  0.0151 -0.0549 -0.1192
  171BOLB   C1A 4085   6.328  -0.387  18.473  0.0780  0.4908 -0.1512
  171BOLB   C2A 4086   6.596  -0.216  18.757 -0.3635 -0.0665 -0.0135
  171BOLB   C3A 4087   6.788   0.063  18.993 -0.1779 -0.1639  0.1346
  171BOLB   C4A 4088   7.124   0.197  19.281 -0.1579  0.1945  0.1221
  171BOLB   C1B 4089   6.147   0.022  18.682  0.5297  0.4745  0.0976
  171BOLB   C2B 4090   6.374   0.311  18.869 -0.3581 -0.2536  0.1575
  171BOLB   C3B 4091   6.552   0.464  19.194  0.1222 -0.0173 -0.3207
  171BOLB   C4B 4092   6.698   0.927  19.401  0.1189 -0.0556 -0.0239
  171BOLB   NC2 4093   8.885   0.686  20.619  0.4325 -0.0964 -0.3907
  171BOLB   PO2 4094   8.723   0.321  20.938 -0.3525  0.1635 -0.0669
  171BOLB   GL3 4095   8.507   0.112  20.738 -0.0417  0.2452  0.0298
  171BOLB   GL4 4096   8.214  -0.001  20.930 -0.0052 -0.2327 -0.0781
  171BOLB   C1C 4097   8.178  -0.124  20.448 -0.0677 -0.3040  0.4196
  171BOLB   C2C 4098   8.000  -0.001  20.181  0.1043 -0.1234  0.2585
  171BOLB   C3C 4099   7.894  -0.064  19.693  0.0585  0.1321  0.1727
  171BOLB   C4C 4100   7.546   0.061  19.394 -0.2582 -0.2754  0.0723
  171BOLB   C1D 4101   8.025  -0.353  20.855 -0.0431 -0.0026  0.1151
  171BOLB   C2D 4102   7.914  -0.562  20.421 -0.2210 -0.2342  0.0156
  171BOLB   C3D 4103   7.540  -0.829  20.418 -0.1038  0.1404  0.0799
  171BOLB   C4D 4104   7.060  -0.961  20.287 -0.0177  0.1743  0.0334
  172BOLB   NC1 4105  16.322  -5.060  10.937  0.1987  0.0923  0.3274
  172BOLB   PO1 4106  16.676  -5.323  10.912 -0.0494 -0.2323 -0.1572
  172BOLB   GL1 4107  16.547  -5.294  11.345 -0.4455  0.2036 -0.0167
  172BOLB   GL2 4108  16.308  -5.237  11.472  0.2099  0.2851  0.3639
  172BOLB   C1A 4109  16.655  -5.507  11.715 -0.1352 -0.3332 -0.1723
  172BOLB   C2A 4110  16.690  -5.663  12.213  0.2436  0.2311  0.1333
  172BOLB   C3A 4111  16.460  -5.588  12.623 -0.0415  0.0587  0.3632
  172BOLB   C4A 4112  16.669  -5.259  12.798  0.0417  0.1080 -0.1947
  172BOLB   C1B 4113  16.462  -4.933  11.856 -0.0098 -0.1715  0.0630
  172BOLB   C2B 4114  16.753  -4.517  12.104  0.3756  0.0791 -0.0061
  172BOLB   C3B 4115  17.020  -4.288  11.987 -0.0481  0.3563  0.3430
  172BOLB   C4B 4116  17.413  -4.186  11.842 -0.0356  0.0215  0.1675
  172BOLB   NC2 4117  15.849  -4.360  11.475  0.0375 -0.1945 -0.2085
  172BOLB   PO2 4118  15.705  -3.999  11.606  0.3024  0.0728  0.0979
  172BOLB   GL3 4119  15.565  -4.174  12.051  0.0407 -0.0678  0.1843
  172BOLB   GL4 4120  15.707  -4.441  11.959 -0.0660  0.2898 -0.0249
  172BOLB   C1C 4121  15.622  -4.420  12.475  0.1490  0.0802 -0.3944
  172BOLB   C2C 4122  15.964  -4.396  12.808  0.0941  0.2961  0.1558
  172BOLB   C3C 4123  16.193  -4.678  13.072  0.2266 -0.0454 -0.2829
  172BOLB   C4C 4124  16.526  -4.955  13.055  0.0024 -0.0698  0.1669
  172BOLB   C1D 4125  15.986  -4.209  12.284  0.2377 -0.0004 -0.0310
  172BOLB   C2D 4126  16.369  -4.099  12.666 -0.2307  0.0475 -0.2910
  172BOLB   C3D 4127  16.660  -3.850  12.883 -0.4271  0.2086  0.0129
  172BOLB   C4D 4128  16.758  -3.487  13.050  0.1719 -0.0329  0.0278
  173BOLB   NC1 4129   4.554  10.232  29.689  0.1020  0.3464  0.0560
  173BOLB   PO1 4130   4.893  10.246  29.383  0.0030 -0.0799 -0.1199
  173BOLB   GL1 4131   5.270  10.294  29.244 -0.0830 -0.2452  0.0516
  173BOLB   GL2 4132   5.386  10.505  29.337 -0.1587  0.0570 -0.3019
  173BOLB   C1A 4133   5.646  10.210  29.079  0.1115  0.0721  0.0597
  173BOLB   C2A 4134   5.994   9.907  29.175 -0.2741  0.0848  0.1202
  173BOLB   C3A 4135   6.469   9.943  29.182 -0.2675 -0.0364  0.1816
  173BOLB   C4A 4136   6.675  10.067  28.809  0.1646 -0.0116 -0.1157
  173BOLB   C1B 4137   5.828  10.729  29.223  0.1341  0.0313 -0.0284
  173BOLB   C2B 4138   6.170  10.779  29.054  0.0133  0.3834 -0.0566
  173BOLB   C3B 4139   6.578  10.669  29.063  0.1110 -0.2798  0.2035
  173BOLB   C4B 4140   6.825  10.317  29.202 -0.0388  0.3024  0.1656
  173BOLB   NC2 4141   5.470  12.709  28.944  0.2755  0.0556  0.6522
  173BOLB   PO2 4142   5.658  12.243  28.984  0.0628  0.1798 -0.2893
  173BOLB   GL3 4143   5.909  11.819  28.962 -0.2961  0.2688 -0.0459
  173BOLB   GL4 4144   5.825  11.537  28.697  0.2350 -0.3073 -0.0935
  173BOLB   C1C 4145   6.299  11.534  29.073 -0.1936 -0.0846  0.2950
  173BOLB   C2C 4146   6.537  11.238  28.851  0.1432 -0.0389  0.1976
  173BOLB   C3C 4147   6.819  10.937  28.733 -0.3474 -0.2281  0.1781
  173BOLB   C4C 4148   6.781  10.519  28.575 -0.0594 -0.1228 -0.3955
  173BOLB   C1D 4149   6.108  11.232  28.643  0.0538 -0.2245 -0.1629
  173BOLB   C2D 4150   6.373  10.847  28.569 -0.2331  0.1645 -0.1415
  173BOLB   C3D 4151   6.547  10.728  28.229  0.0558  0.1489 -0.0179
  173BOLB   C4D 4152   6.522  11.017  27.841  0.1248  0.0963  0.4701
  174BOLB   NC1 4153  12.038  -3.520  22.337  0.2189 -0.0676  0.2199
  174BOLB   PO1 4154  11.598  -3.354  22.201 -0.0650 -0.2526 -0.2980
  174BOLB   GL1 4155  11.211  -3.643  22.147  0.0573  0.1545  0.3329
  174BOLB   GL2 4156  11.251  -3.799  22.474 -0.1752  0.0909  0.0655
  174BOLB   C1A 4157  11.100  -3.959  21.906  0.2228 -0.0524 -0.0326
  174BOLB   C2A 4158  10.690  -4.037  21.649  0.2747  0.2289  0.0989
  174BOLB   C3A 4159  10.385  -4.286  21.690  0.3806  0.0251 -0.2280
  174BOLB   C4A 4160   9.951  -4.367  21.688 -0.0102 -0.1319  0.0385
  174BOLB   C1B 4161  11.079  -4.226  22.399 -0.3259 -0.1056 -0.1084
  174BOLB   C2B 4162  11.175  -4.647  22.365  0.1063 -0.1087 -0.1219
  174BOLB   C3B 4163  11.250  -5.087  22.528 -0.2268 -0.1041  0.1263
  174BOLB   C4B 4164  11.300  -5.304  22.974  0.1742 -0.4322 -0.1012
  174BOLB   NC2 4165   8.226  -6.169  21.270  0.0896  0.2664  0.1835
  174BOLB   PO2 4166   8.508  -6.256  20.992 -0.2519 -0.0709  0.0571
  174BOLB   GL3 4167   8.696  -5.999  21.235  0.0507  0.4054 -0.0019
  174BOLB   GL4 4168   8.732  -5.969  21.484  0.3356 -0.0052  0.0759
  174BOLB   C1C 4169   9.135  -5.801  21.161  0.1115  0.2078 -0.0432
  174BOLB   C2C 4170   9.235  -5.357  21.222 -0.2957  0.3244  0.1910
  174BOLB   C3C 4171   9.379  -4.925  21.492 -0.2500  0.2685  0.0355
  174BOLB   C4C 4172   9.611  -4.688  21.762  0.0920  0.0545 -0.3112
  174BOLB   C1D 4173   8.899  -5.576  21.615 -0.2707  0.1184  0.0835
  174BOLB   C2D 4174   9.067  -5.156  21.820  0.0341  0.0616  0.2802
  174BOLB   C3D 4175   9.157  -4.724  21.858  0.0975 -0.2734  0.3284
  174BOLB   C4D 4176   9.240  -4.376  21.966  0.2090 -0.2217 -0.1907
  175BOLB   NC1 4177  22.626   6.829  20.814 -0.1864  0.1605 -0.0164
  175BOLB   PO1 4178  22.264   7.196  20.887 -0.1188 -0.4121  0.1666
  175BOLB   GL1 4179  22.631   7.412  20.700  0.2156 -0.0206 -0.0693
  175BOLB   GL2 4180  22.902   7.554  20.984  0.1300  0.1629 -0.1665
  175BOLB   C1A 4181  22.959   7.765  20.497  0.0608  0.1713  0.1337
  175BOLB   C2A 4182  23.254   7.982  20.305  0.2615  0.2745  0.2503
  175BOLB   C3A 4183  23.295   8.400  20.295 -0.2588  0.3466 -0.2539
  175BOLB   C4A 4184  23.297   8.854  20.075 -0.3143 -0.3370 -0.2153
  175BOLB   C1B 4185  23.241   7.427  20.706 -0.3745 -0.0911  0.1357
  175BOLB   C2B 4186  23.598   7.233  20.733 -0.2478 -0.0411 -0.1357
  175BOLB   C3B 4187  23.756   7.314  20.316 -0.1020 -0.1821  0.1842
  175BOLB   C4B 4188  23.528   7.456  20.025 -0.1724  0.1109  0.0631
  175BOLB   NC2 4189  25.692  10.030  18.891 -0.1955  0.0661  0.1416
  175BOLB   PO2 4190  25.244  10.107  19.073  0.1615 -0.6111 -0.1182
  175BOLB   GL3 4191  24.835   9.879  19.289  0.2098 -0.1360  0.1015
  175BOLB   GL4 4192  24.759   9.564  19.118  0.1429  0.1094  0.2755
  175BOLB   C1C 4193  24.435   9.865  19.557 -0.1860 -0.1568 -0.0421
  175BOLB   C2C 4194  24.120   9.822  19.672  0.1591 -0.2909 -0.0912
  175BOLB   C3C 4195  23.756   9.548  19.896  0.0009  0.0829  0.0678
  175BOLB   C4C 4196  23.603   9.227  20.140  0.0927  0.4892  0.0774
  175BOLB   C1D 4197  24.257   9.486  19.300 -0.4065  0.0396 -0.2830
  175BOLB   C2D 4198  24.083   9.163  19.658  0.0395  0.0182  0.0005
  175BOLB   C3D 4199  23.866   8.807  19.890  0.2330 -0.0563  0.1797
  175BOLB   C4D 4200  23.755   8.615  20.106  0.0158 -0.3547  0.1926
  176BOLB   NC1 4201  20.524   1.837  32.055 -0.2517 -0.6138  0.0599
  176BOLB   PO1 4202  20.755   1.458  32.135 -0.1880  0.0081 -0.0676
  176BOLB   GL1 4203  21.101   1.272  32.364 -0.3936 -0.3391  0.2954
  176BOLB   GL2 4204  21.438   1.215  32.139  0.2712  0.1749 -0.2369
  176BOLB   C1A 4205  21.328   1.092  32.672  0.0169  0.0264  0.3702
  176BOLB   C2A 4206  21.626   0.837  32.524 -0.2621  0.1956 -0.2669
  176BOLB   C3A 4207  21.997   0.597  32.536  0.1507  0.1399 -0.0214
  176BOLB   C4A 4208  22.326   0.296  32.601 -0.1398  0.0353  0.2917
  176BOLB   C1B 4209  21.732   1.342  32.503  0.0294  0.3027  0.1035
  176BOLB   C2B 4210  21.786   1.266  32.874 -0.3267  0.2539 -0.1159
  176BOLB   C3B 4211  21.840   0.729  33.024 -0.2539 -0.1867 -0.0840
  176BOLB   C4B 4212  21.719   0.398  33.325  0.0736  0.0897 -0.3922
  176BOLB   NC2 4213  23.869  -1.192  33.997 -0.2356 -0.0973 -0.3458
  176BOLB   PO2 4214  23.610  -0.879  34.105 -0.0835 -0.0585  0.3758
  176BOLB   GL3 4215  23.176  -0.769  33.910  0.1704  0.2416  0.2214
  176BOLB   GL4 4216  22.956  -0.954  33.788 -0.0941  0.2606 -0.2525
  176BOLB   C1C 4217  23.181  -0.420  33.609  0.0044  0.1928 -0.1969
  176BOLB   C2C 4218  22.886  -0.275  33.295 -0.1252 -0.2939 -0.0592
  176BOLB   C3C 4219  22.564  -0.043  33.069  0.3239 -0.0519 -0.0113
  176BOLB   C4C 4220  22.252   0.010  32.839 -0.4574 -0.1843 -0.0641
  176BOLB   C1D 4221  22.912  -0.935  33.380 -0.0609 -0.1157  0.0246
  176BOLB   C2D 4222  22.562  -0.618  33.108 -0.3597 -0.1193 -0.2451
  176BOLB   C3D 4223  22.179  -0.496  33.053 -0.1497  0.0310  0.0218
  176BOLB   C4D 4224  21.798  -0.532  32.779  0.0101  0.2015 -0.2230
  177BOLB   NC1 4225  21.972  -1.378  23.105 -0.0130 -0.0582  0.3449
  177BOLB   PO1 4226  22.322  -1.693  23.078  0.3601 -0.0218 -0.0707
  177BOLB   GL1 4227  22.647  -1.970  22.889  0.0558  0.0145  0.1541
  177BOLB   GL2 4228  22.866  -1.978  23.219 -0.0299 -0.3952  0.1221
  177BOLB   C1A 4229  22.929  -2.262  22.732  0.2823  0.2860  0.0583
  177BOLB   C2A 4230  23.273  -2.447  22.796  0.0162 -0.0226 -0.0178
  177BOLB   C3A 4231  23.300  -2.970  22.853  0.0474 -0.0460 -0.0845
  177BOLB   C4A 4232  23.657  -3.294  22.602 -0.1468 -0.0404 -0.0296
  177BOLB   C1B 4233  23.150  -2.121  23.475 -0.2941 -0.0578  0.2948
  177BOLB   C2B 4234  23.517  -2.357  23.691 -0.3829 -0.0480  0.0374
  177BOLB   C3B 4235  23.956  -2.253  23.626  0.0905 -0.1158  0.1329
  177BOLB   C4B 4236  24.283  -1.995  23.645  0.2111 -0.1103 -0.0802
  177BOLB   NC2 4237  25.076  -4.767  21.128 -0.1066  0.2484  0.0639
  177BOLB   PO2 4238  25.051  -4.903  21.509 -0.3324 -0.2244 -0.2843
  177BOLB   GL3 4239  24.660  -4.804  21.471 -0.2063 -0.0581  0.4644
  177BOLB   GL4 4240  24.557  -4.688  21.157  0.0424 -0.0727  0.2813
  177BOLB   C1C 4241  24.416  -4.634  21.695 -0.1328  0.0948  0.1904
  177BOLB   C2C 4242  24.225  -4.206  21.770  0.1202  0.1207 -0.1561
  177BOLB   C3C 4243  23.914  -3.988  22.079 -0.1878  0.0886  0.2063
  177BOLB   C4C 4244  23.641  -3.675  22.297 -0.0898  0.0270  0.0015
  177BOLB   C1D 4245  24.162  -4.480  21.172  0.0337  0.1831  0.4718
  177BOLB   C2D 4246  23.752  -4.619  21.023 -0.0606  0.0341  0.1608
  177BOLB   C3D 4247  23.373  -4.626  20.834  0.1131 -0.1464 -0.0943
  177BOLB   C4D 4248  22.876  -4.451  20.900 -0.3234  0.4429  0.0285
  178BOLB   NC1 4249   8.504   6.314  22.781 -0.1991  0.2796  0.3882
  178BOLB   PO1 4250   8.067   6.157  22.658  0.2861 -0.1656 -0.0656
  178BOLB   GL1 4251   8.004   6.309  22.285 -0.3481  0.0150  0.0992
  178BOLB   GL2 4252   7.864   6.074  22.190 -0.0820 -0.2497 -0.0248
  178BOLB   C1A 4253   7.724   6.619  22.090 -0.2478 -0.0952 -0.0821
  178BOLB   C2A 4254   7.353   6.846  21.982  0.3025 -0.0646 -0.2603
  178BOLB   C3A 4255   7.080   7.184  21.791 -0.1334 -0.0428 -0.1531
  178BOLB   C4A 4256   6.683   7.486  21.709 -0.1506  0.2113 -0.0609
  178BOLB   C1B 4257   7.439   6.263  22.328 -0.0081 -0.4367 -0.1438
  178BOLB   C2B 4258   7.183   6.643  22.432  0.1396 -0.0604  0.1128
  178BOLB   C3B 4259   6.876   6.927  22.158  0.2370  0.2525 -0.1279
  178BOLB   C4B 4260   6.637   7.281  22.113  0.1636 -0.0815  0.2038
  178BOLB   NC2 4261   4.551   8.528  20.779  0.0598  0.0435 -0.1724
  178BOLB   PO2 4262   4.286   8.255  20.877 -0.1522  0.0013  0.2303
  178BOLB   GL3 4263   4.693   8.189  21.154  0.1705 -0.2295  0.2124
  178BOLB   GL4 4264   4.696   7.916  21.043 -0.0237 -0.1735  0.4133
  178BOLB   C1C 4265   5.133   8.164  21.344  0.0358 -0.0243 -0.2503
  178BOLB   C2C 4266   5.444   7.925  21.573 -0.2119  0.1839 -0.1810
  178BOLB   C3C 4267   5.812   7.796  21.813  0.0454  0.1338 -0.0318
  178BOLB   C4C 4268   6.280   7.574  21.899 -0.1906 -0.2154 -0.1327
  178BOLB   C1D 4269   4.948   7.668  21.317  0.0638  0.0367  0.2975
  178BOLB   C2D 4270   5.117   7.274  21.362  0.0052  0.1019 -0.0173
  178BOLB   C3D 4271   5.057   6.889  21.195  0.2783 -0.1534  0.1789
  178BOLB   C4D 4272   5.286   6.429  21.284 -0.0719 -0.3097 -0.2836
  179BOLB   NC1 4273   8.471   4.468  35.600  0.0259  0.0007 -0.0671
  179BOLB   PO1 4274   8.850   4.139  35.446 -0.1152 -0.0511 -0.1254
  179BOLB   GL1 4275   9.180   4.019  35.254 -0.0541 -0.0619  0.2275
  179BOLB   GL2 4276   9.214   4.300  35.082 -0.2492  0.0574  0.1446
  179BOLB   C1A 4277   9.397   3.661  34.912 -0.2291 -0.1315 -0.2104
  179BOLB   C2A 4278   9.299   3.647  34.491  0.1857  0.0197 -0.0817
  179BOLB   C3A 4279   9.139   3.542  34.082  0.1088 -0.0803 -0.1259
  179BOLB   C4A 4280   8.883   3.677  33.695  0.3311 -0.1116 -0.0106
  179BOLB   C1B 4281   8.936   3.990  34.812 -0.3100 -0.0255  0.2930
  179BOLB   C2B 4282   8.742   3.692  34.727  0.0423  0.0826  0.1754
  179BOLB   C3B 4283   8.313   3.722  34.468 -0.1410 -0.0961  0.3724
  179BOLB   C4B 4284   8.016   3.912  34.208  0.1441 -0.1847 -0.1295
  179BOLB   NC2 4285   9.898   3.934  31.593 -0.4711 -0.3290  0.0323
  179BOLB   PO2 4286   9.589   4.085  31.683 -0.0249 -0.1658 -0.0201
  179BOLB   GL3 4287   9.293   3.862  31.830  0.0469  0.0909  0.0908
  179BOLB   GL4 4288   8.923   4.017  31.791  0.1308 -0.2382  0.0562
  179BOLB   C1C 4289   9.162   3.783  32.291  0.4671 -0.0428 -0.1120
  179BOLB   C2C 4290   8.787   3.576  32.539  0.2586  0.0684  0.0574
  179BOLB   C3C 4291   8.667   3.602  32.934 -0.0802  0.0658 -0.0640
  179BOLB   C4C 4292   8.799   3.478  33.329 -0.3706 -0.1109  0.1142
  179BOLB   C1D 4293   8.698   4.301  32.095  0.3284  0.0251 -0.2333
  179BOLB   C2D 4294   8.374   4.454  32.301 -0.3549 -0.3525 -0.1524
  179BOLB   C3D 4295   8.087   4.693  32.493 -0.0272 -0.1164  0.1771
  179BOLB   C4D 4296   7.660   4.800  32.349  0.1236 -0.0048  0.2020
  180BOLB   NC1 4297  15.058  -3.925  27.079  0.2566 -0.1645 -0.1587
  180BOLB   PO1 4298  15.341  -4.091  26.863 -0.5202 -0.3441  0.1579
  180BOLB   GL1 4299  15.297  -4.439  26.980 -0.0634 -0.0412  0.1296
  180BOLB   GL2 4300  15.562  -4.542  26.953 -0.0174 -0.0678  0.0002
  180BOLB   C1A 4301  15.171  -4.806  27.144  0.2735  0.1290 -0.2627
  180BOLB   C2A 4302  15.267  -5.305  27.166  0.2055 -0.0316  0.0928
  180BOLB   C3A 4303  15.386  -5.810  27.157  0.0797 -0.0353 -0.1765
  180BOLB   C4A 4304  15.504  -6.235  26.995 -0.1639  0.1686 -0.0680
  180BOLB   C1B 4305  15.595  -4.943  27.303 -0.0897 -0.2715 -0.3261
  180BOLB   C2B 4306  15.651  -5.263  27.494  0.0838 -0.1790  0.1910
  180BOLB   C3B 4307  15.747  -5.608  27.597  0.1921  0.1922  0.1553
  180BOLB   C4B 4308  16.104  -5.933  27.666 -0.2184  0.3724 -0.2690
  180BOLB   NC2 4309  15.556  -8.577  26.343 -0.0572  0.0832  0.0628
  180BOLB   PO2 4310  15.205  -8.417  26.685 -0.1043 -0.2672 -0.0916
  180BOLB   GL3 4311  15.411  -8.111  26.615  0.0390 -0.3675 -0.0855
  180BOLB   GL4 4312  15.283  -8.105  26.262 -0.0197 -0.3359 -0.1206
  180BOLB   C1C 4313  15.148  -7.750  26.647 -0.0882  0.3308  0.1294
  180BOLB   C2C 4314  15.208  -7.340  26.751 -0.1064 -0.2908  0.2168
  180BOLB   C3C 4315  15.223  -6.898  26.681 -0.2457 -0.0672 -0.1208
  180BOLB   C4C 4316  15.406  -6.655  26.855  0.1850 -0.0611  0.0716
  180BOLB   C1D 4317  15.163  -7.682  26.186  0.0412 -0.3579  0.0328
  180BOLB   C2D 4318  14.962  -7.315  26.306  0.1300 -0.0770 -0.2648
  180BOLB   C3D 4319  14.596  -7.013  26.134  0.0624  0.1897  0.0935
  180BOLB   C4D 4320  14.514  -6.604  25.893  0.5534  0.0226  0.2120
  181BOLB   NC1 4321  12.281  10.297  15.224  0.0389  0.2219 -0.0154
  181BOLB   PO1 4322  12.258  10.514  15.614  0.0186 -0.1025  0.0625
  181BOLB   GL1 4323  12.576  10.276  15.718  0.0117  0.2999  0.1047
  181BOLB   GL2 4324  12.521  10.418  16.064 -0.1168  0.0632  0.2419
  181BOLB   C1A 4325  12.950  10.131  15.886 -0.1276 -0.1572 -0.0744
  181BOLB   C2A 4326  13.259  10.075  16.185  0.3981  0.1110  0.1264
  181BOLB   C3A 4327  13.573  10.358  16.317 -0.1309  0.0811 -0.0951
  181BOLB   C4A 4328  13.970  10.316  16.123  0.3501 -0.0761 -0.0251
  181BOLB   C1B 4329  12.761  10.094  16.423 -0.3002  0.3941  0.1319
  181BOLB   C2B 4330  13.031   9.764  16.565  0.1623 -0.2388 -0.0602
  181BOLB   C3B 4331  13.304   9.527  16.766 -0.0836 -0.0851 -0.0170
  181BOLB   C4B 4332  13.520   9.244  17.058  0.1994  0.0449 -0.1738
  181BOLB   NC2 4333  15.720  11.492  15.378  0.2171 -0.0357  0.0068
  181BOLB   PO2 4334  15.783  11.756  15.686 -0.1487 -0.1425 -0.2264
  181BOLB   GL3 4335  15.711  11.522  15.957  0.0859 -0.0740  0.2039
  181BOLB   GL4 4336  15.901  11.407  16.192  0.1968 -0.1884  0.1567
  181BOLB   C1C 4337  15.321  11.401  16.186  0.0991  0.1653  0.1460
  181BOLB   C2C 4338  14.902  11.290  16.118 -0.0099  0.0442 -0.1635
  181BOLB   C3C 4339  14.683  10.855  16.036 -0.0503  0.0912 -0.2090
  181BOLB   C4C 4340  14.332  10.521  16.237 -0.1944  0.0422  0.0478
  181BOLB   C1D 4341  15.656  11.025  16.213 -0.0356 -0.1945  0.3691
  181BOLB   C2D 4342  15.623  10.594  16.274 -0.3343  0.2992  0.0025
  181BOLB   C3D 4343  15.511  10.404  16.677  0.3996  0.1632  0.0067
  181BOLB   C4D 4344  15.396  10.223  17.069 -0.2561 -0.0486 -0.0169
  182BOLB   NC1 4345  12.999  -0.054  31.847  0.2145  0.3215 -0.1167
  182BOLB   PO1 4346  13.240  -0.399  31.869 -0.1280 -0.2572  0.3338
  182BOLB   GL1 4347  13.333  -0.664  32.170  0.5530  0.0660  0.0138
  182BOLB   GL2 4348  13.618  -0.503  32.295  0.1689  0.2291  0.0156
  182BOLB   C1A 4349  13.335  -0.969  32.428  0.2934 -0.0797  0.0821
  182BOLB   C2A 4350  12.971  -1.315  32.424 -0.3369  0.1521  0.1600
  182BOLB   C3A 4351  12.800  -1.757  32.457 -0.0775 -0.1013 -0.0842
  182BOLB   C4A 4352  12.627  -2.122  32.536  0.2191 -0.2060 -0.1085
  182BOLB   C1B 4353  13.607  -0.612  32.706 -0.1325  0.1817 -0.1369
  182BOLB   C2B 4354  13.543  -0.746  33.040  0.0922 -0.1079  0.1804
  182BOLB   C3B 4355  13.345  -0.966  33.405 -0.1495 -0.1609  0.1038
  182BOLB   C4B 4356  13.394  -1.195  33.729 -0.2356  0.1366 -0.0599
  182BOLB   NC2 4357  12.194  -2.364  34.733  0.2098  0.2278  0.1067
  182BOLB   PO2 4358  12.459  -2.592  34.786 -0.1045  0.2482 -0.2872
  182BOLB   GL3 4359  12.653  -2.653  34.333  0.1162 -0.0299 -0.0657
  182BOLB   GL4 4360  12.963  -2.440  34.305 -0.1498  0.0164  0.2544
  182BOLB   C1C 4361  12.662  -2.764  33.822  0.2219 -0.1747 -0.1606
  182BOLB   C2C 4362  12.840  -2.725  33.431 -0.0339  0.3224 -0.0490
  182BOLB   C3C 4363  12.804  -2.647  33.043 -0.3672  0.2467  0.1543
  182BOLB   C4C 4364  12.608  -2.492  32.734  0.2115 -0.3712  0.0225
  182BOLB   C1D 4365  12.917  -2.352  33.800 -0.2695  0.1129 -0.1964
  182BOLB   C2D 4366  13.208  -2.402  33.413  0.0114 -0.0789  0.2706
  182BOLB   C3D 4367  13.251  -2.395  33.049 -0.0603 -0.1906 -0.4238
  182BOLB   C4D 4368  13.107  -2.308  32.591 -0.1010 -0.5648  0.3926
  183BOLB   NC1 4369   9.796  10.560  28.370  0.1019 -0.0449  0.3079
  183BOLB   PO1 4370   9.378  10.335  28.251  0.1428 -0.1226  0.0416
  183BOLB   GL1 4371   8.964  10.483  28.196  0.0189 -0.1048 -0.0035
  183BOLB   GL2 4372   8.931  10.607  27.863  0.0482 -0.1212 -0.3290
  183BOLB   C1A 4373   8.507  10.587  28.201  0.2181 -0.1227 -0.2168
  183BOLB   C2A 4374   8.028  10.627  28.274  0.0451  0.1524 -0.0622
  183BOLB   C3A 4375   7.637  10.748  28.061  0.2772 -0.1370  0.3143
  183BOLB   C4A 4376   7.424  11.030  27.880 -0.0626  0.0528  0.2194
  183BOLB   C1B 4377   8.991  11.118  27.834 -0.0709  0.0037 -0.2049
  183BOLB   C2B 4378   8.864  11.443  27.620  0.1282 -0.3495  0.1245
  183BOLB   C3B 4379   8.773  11.815  27.367 -0.1804 -0.1201 -0.3104
  183BOLB   C4B 4380   8.828  11.997  26.993  0.3539 -0.4216  0.1615
  183BOLB   NC2 4381   6.356  11.772  30.265  0.0428 -0.0040 -0.0949
  183BOLB   PO2 4382   6.243  11.941  29.860 -0.1538 -0.0170  0.1796
  183BOLB   GL3 4383   6.534  11.682  29.657 -0.2362  0.1835  0.1077
  183BOLB   GL4 4384   6.642  11.534  29.912 -0.1397  0.0227  0.3495
  183BOLB   C1C 4385   6.893  11.602  29.373  0.0436 -0.1560 -0.0603
  183BOLB   C2C 4386   6.834  11.630  28.960  0.2649  0.1767  0.2465
  183BOLB   C3C 4387   6.978  11.492  28.504  0.0521  0.0208  0.1497
  183BOLB   C4C 4388   7.290  11.392  28.122 -0.1843  0.2256  0.2705
  183BOLB   C1D 4389   6.889  11.263  30.147 -0.1326  0.2225  0.0517
  183BOLB   C2D 4390   6.910  10.865  30.014 -0.1128 -0.0134  0.0661
  183BOLB   C3D 4391   7.153  10.667  29.863  0.2948 -0.2392 -0.0848
  183BOLB   C4D 4392   7.323  10.439  29.500 -0.0155 -0.2332 -0.1859
  184BOLB   NC1 4393  13.864   8.241  33.407 -0.1903 -0.0499 -0.2479
  184BOLB   PO1 4394  14.253   8.217  33.382 -0.2655 -0.0792 -0.0794
  184BOLB   GL1 4395  14.599   8.269  33.654  0.0046  0.0104 -0.0952
  184BOLB   GL2 4396  14.476   8.066  33.815  0.3900  0.2973  0.0809
  184BOLB   C1A 4397  14.560   8.526  34.090  0.1623 -0.1366 -0.2736
  184BOLB   C2A 4398  14.358   8.872  34.381 -0.1259 -0.0011  0.1180
  184BOLB   C3A 4399  13.993   9.041  34.639 -0.2164 -0.1293 -0.0187
  184BOLB   C4A 4400  13.632   9.118  34.678 -0.0351 -0.3202 -0.2550
  184BOLB   C1B 4401  14.338   7.962  34.218  0.2766 -0.2715  0.2621
  184BOLB   C2B 4402  14.067   7.931  34.553 -0.1458  0.3455 -0.3001
  184BOLB   C3B 4403  13.705   8.114  34.555 -0.1230  0.0882 -0.1779
  184BOLB   C4B 4404  13.277   8.038  34.702  0.0079 -0.1161  0.1465
  184BOLB   NC2 4405  12.577  10.447  36.745  0.2635 -0.1404  0.1842
  184BOLB   PO2 4406  12.464  10.220  36.358  0.1217 -0.1002  0.3055
  184BOLB   GL3 4407  12.543   9.975  36.040  0.1202  0.0842 -0.3538
  184BOLB   GL4 4408  12.739   9.708  36.039  0.1351  0.1309 -0.0515
  184BOLB   C1C 4409  12.690  10.006  35.562 -0.0324  0.1166 -0.0217
  184BOLB   C2C 4410  12.718   9.903  35.117 -0.1268 -0.3960  0.0935
  184BOLB   C3C 4411  13.106   9.630  35.207  0.0384  0.2320 -0.1396
  184BOLB   C4C 4412  13.411   9.428  34.921 -0.1785 -0.1560 -0.0104
  184BOLB   C1D 4413  12.853   9.462  35.714  0.1789  0.2640  0.1419
  184BOLB   C2D 4414  13.222   9.182  35.677 -0.2731 -0.2417  0.0257
  184BOLB   C3D 4415  13.595   8.976  35.738  0.2340 -0.2772 -0.1905
  184BOLB   C4D 4416  13.794   8.634  35.866  0.0220  0.1116 -0.3646
  185BOLB   NC1 4417  18.296  -4.116  22.940 -0.4089 -0.1006  0.0598
  185BOLB   PO1 4418  18.334  -4.175  22.491 -0.1369  0.0688  0.1801
  185BOLB   GL1 4419  18.637  -4.416  22.484  0.2056  0.0040  0.0685
  185BOLB   GL2 4420  18.672  -4.414  22.771  0.2901  0.1676  0.1819
  185BOLB   C1A 4421  18.728  -4.875  22.514  0.1856 -0.0115 -0.3576
  185BOLB   C2A 4422  18.673  -5.333  22.558  0.3773 -0.0487  0.1572
  185BOLB   C3A 4423  19.012  -5.558  22.565 -0.0315 -0.0392 -0.1986
  185BOLB   C4A 4424  19.131  -5.964  22.434 -0.0575  0.2049 -0.1720
  185BOLB   C1B 4425  18.911  -4.818  23.009 -0.1035 -0.0124 -0.1030
  185BOLB   C2B 4426  19.146  -5.144  23.087 -0.0277 -0.0555 -0.4409
  185BOLB   C3B 4427  19.418  -5.442  23.324 -0.0731  0.4023  0.0833
  185BOLB   C4B 4428  19.736  -5.617  23.530  0.1196 -0.4087 -0.3349
  185BOLB   NC2 4429  19.860  -8.196  21.846  0.2158  0.0163  0.1350
  185BOLB   PO2 4430  19.438  -8.118  22.001  0.1112  0.2389 -0.1408
  185BOLB   GL3 4431  19.359  -7.826  21.797 -0.2100  0.1223  0.0439
  185BOLB   GL4 4432  19.171  -7.667  21.997  0.5733 -0.0719 -0.0065
  185BOLB   C1C 4433  19.521  -7.373  21.706  0.0929 -0.0222 -0.1602
  185BOLB   C2C 4434  19.510  -6.941  21.773 -0.2200  0.2759 -0.1172
  185BOLB   C3C 4435  19.452  -6.525  21.969  0.1109 -0.3791  0.1149
  185BOLB   C4C 4436  19.377  -6.327  22.344  0.0557  0.0815  0.1313
  185BOLB   C1D 4437  19.368  -7.292  22.173  0.0003  0.3015  0.0486
  185BOLB   C2D 4438  19.462  -6.913  22.303  0.0063 -0.0656  0.1018
  185BOLB   C3D 4439  19.047  -6.704  22.337  0.0628 -0.2051  0.2954
  185BOLB   C4D 4440  18.658  -6.799  22.689  0.0219  0.2076 -0.1827
  186BOLB   NC1 4441   7.850   7.746  26.679 -0.2107  0.1703 -0.3003
  186BOLB   PO1 4442   7.762   7.438  26.853 -0.4083 -0.0003 -0.0769
  186BOLB   GL1 4443   7.409   7.258  27.239  0.0067  0.0807 -0.0754
  186BOLB   GL2 4444   7.450   7.128  27.552 -0.2248  0.2535 -0.0155
  186BOLB   C1A 4445   6.994   7.415  27.320  0.0805  0.0696 -0.3511
  186BOLB   C2A 4446   6.636   7.726  27.349  0.2237  0.0814  0.3851
  186BOLB   C3A 4447   6.262   7.876  27.002  0.0386  0.0118 -0.2801
  186BOLB   C4A 4448   5.953   7.888  26.814 -0.3727  0.0734 -0.1860
  186BOLB   C1B 4449   7.003   6.838  27.564 -0.0024  0.2195  0.2438
  186BOLB   C2B 4450   6.598   6.938  27.533  0.1332  0.0583 -0.0647
  186BOLB   C3B 4451   6.098   7.055  27.478 -0.3352 -0.0611  0.1274
  186BOLB   C4B 4452   5.597   7.081  27.570 -0.1147 -0.1999 -0.0880
  186BOLB   NC2 4453   3.261   7.466  26.048  0.3306  0.1835 -0.0671
  186BOLB   PO2 4454   3.693   7.471  26.135 -0.2051 -0.1335  0.0035
  186BOLB   GL3 4455   4.092   7.439  26.185 -0.2418 -0.1843  0.2505
  186BOLB   GL4 4456   4.166   7.517  26.496 -0.0238  0.0611 -0.2553
  186BOLB   C1C 4457   4.527   7.351  26.046 -0.2729 -0.1792  0.0861
  186BOLB   C2C 4458   4.842   7.535  26.280  0.3276 -0.1773 -0.0166
  186BOLB   C3C 4459   5.128   7.868  26.424 -0.2410 -0.0304  0.0121
  186BOLB   C4C 4460   5.546   7.963  26.653  0.0212 -0.2343  0.0200
  186BOLB   C1D 4461   4.490   7.245  26.553 -0.1342  0.0817 -0.0035
  186BOLB   C2D 4462   4.554   6.815  26.608 -0.4482  0.3340 -0.0355
  186BOLB   C3D 4463   4.757   6.409  26.631  0.0953 -0.1348 -0.2080
  186BOLB   C4D 4464   5.129   6.111  26.715 -0.1127 -0.1604  0.2096
  187BOLB   NC1 4465  22.064   5.365  17.834  0.0909 -0.2970 -0.0251
  187BOLB   PO1 4466  21.638   5.247  17.686 -0.2089 -0.0519 -0.0761
  187BOLB   GL1 4467  21.974   5.295  17.367  0.1580  0.2871 -0.2316
  187BOLB   GL2 4468  22.203   5.010  17.408  0.2336 -0.1333 -0.1407
  187BOLB   C1A 4469  22.293   5.288  17.023  0.3581  0.0950 -0.0587
  187BOLB   C2A 4470  22.687   5.168  16.853  0.0781  0.1665 -0.0914
  187BOLB   C3A 4471  22.965   4.924  16.725 -0.2292 -0.0429 -0.0657
  187BOLB   C4A 4472  23.230   4.603  16.810 -0.0871  0.1732  0.2348
  187BOLB   C1B 4473  22.616   5.161  17.442  0.0818  0.0870 -0.2330
  187BOLB   C2B 4474  22.958   5.339  17.318  0.2303 -0.2880 -0.3393
  187BOLB   C3B 4475  23.240   5.143  17.175 -0.4693 -0.4366  0.2127
  187BOLB   C4B 4476  23.561   4.929  17.408 -0.0742  0.1802  0.1650
  187BOLB   NC2 4477  24.874   4.746  15.547  0.2984 -0.2577  0.5012
  187BOLB   PO2 4478  24.862   4.385  15.303  0.3329 -0.3100 -0.1219
  187BOLB   GL3 4479  24.655   4.101  15.396 -0.1682 -0.1283 -0.1798
  187BOLB   GL4 4480  24.379   4.109  15.267 -0.1651 -0.0010 -0.2385
  187BOLB   C1C 4481  24.481   3.978  15.819 -0.2733 -0.1520  0.0264
  187BOLB   C2C 4482  24.083   4.009  16.096 -0.2527  0.0094  0.1758
  187BOLB   C3C 4483  23.730   4.230  16.098 -0.2072 -0.0460 -0.2566
  187BOLB   C4C 4484  23.495   4.261  16.521 -0.3146  0.0066 -0.1358
  187BOLB   C1D 4485  24.015   3.791  15.166  0.0662  0.0846 -0.3810
  187BOLB   C2D 4486  23.742   3.433  15.298 -0.4089  0.0186 -0.0074
  187BOLB   C3D 4487  23.444   3.169  15.629 -0.1259  0.1173 -0.0239
  187BOLB   C4D 4488  23.369   2.955  15.991 -0.3542 -0.0041  0.0628
  188BOLB   NC1 4489  12.430  11.510  24.423 -0.0384  0.0982  0.1315
  188BOLB   PO1 4490  12.731  11.588  24.138  0.0538  0.3205 -0.1346
  188BOLB   GL1 4491  12.615  12.075  24.102  0.3181  0.2325 -0.0068
  188BOLB   GL2 4492  12.276  12.141  24.113 -0.2184  0.0463  0.3163
  188BOLB   C1A 4493  12.561  12.517  23.899 -0.0619  0.0233  0.2496
  188BOLB   C2A 4494  12.174  12.580  23.705  0.3264 -0.0633  0.1053
  188BOLB   C3A 4495  12.055  12.983  23.438  0.2324  0.4975  0.1512
  188BOLB   C4A 4496  11.709  13.144  23.136 -0.1274 -0.0532  0.2673
  188BOLB   C1B 4497  12.279  12.510  24.305 -0.4872  0.0591 -0.0484
  188BOLB   C2B 4498  12.619  12.848  24.260 -0.0393  0.1255 -0.0177
  188BOLB   C3B 4499  12.883  13.197  24.264 -0.1765 -0.1584  0.2041
  188BOLB   C4B 4500  12.907  13.586  24.446 -0.0898  0.0662  0.0415
  188BOLB   NC2 4501  11.046  15.271  22.693 -0.1131 -0.0677  0.0382
  188BOLB   PO2 4502  11.355  15.382  22.465 -0.4003  0.0924  0.0062
  188BOLB   GL3 4503  11.493  14.942  22.698 -0.2212 -0.0297  0.0360
  188BOLB   GL4 4504  11.704  15.021  22.918  0.1400 -0.2519  0.2623
  188BOLB   C1C 4505  11.530  14.448  22.583 -0.4488 -0.1210 -0.2710
  188BOLB   C2C 4506  11.393  14.027  22.394  0.0807 -0.2068  0.2138
  188BOLB   C3C 4507  11.466  13.613  22.475 -0.1794  0.2603  0.2627
  188BOLB   C4C 4508  11.530  13.370  22.872 -0.1941  0.0399 -0.1599
  188BOLB   C1D 4509  11.651  14.811  23.173 -0.1422  0.2350 -0.2219
  188BOLB   C2D 4510  11.722  14.484  23.471 -0.2688 -0.0084  0.4471
  188BOLB   C3D 4511  11.944  14.086  23.579 -0.2270  0.0122 -0.0333
  188BOLB   C4D 4512  12.212  13.817  23.699  0.2705  0.3006  0.0041
  189BOLB   NC1 4513  16.634  12.640  26.925 -0.3438  0.1315 -0.0609
  189BOLB   PO1 4514  16.800  12.540  27.314 -0.1989  0.1466 -0.3919
  189BOLB   GL1 4515  16.881  12.978  27.309 -0.4428 -0.0237 -0.2149
  189BOLB   GL2 4516  16.959  13.145  26.985  0.3075  0.0274 -0.0495
  189BOLB   C1A 4517  16.811  13.266  27.744 -0.1104  0.0818 -0.1193
  189BOLB   C2A 4518  16.494  13.526  27.971  0.1781 -0.0967  0.0758
  189BOLB   C3A 4519  16.272  13.864  28.235 -0.0559  0.0209  0.2046
  189BOLB   C4A 4520  16.123  14.278  28.427  0.1624 -0.1197 -0.2702
  189BOLB   C1B 4521  17.010  13.501  27.242  0.1397 -0.0597  0.1360
  189BOLB   C2B 4522  16.782  13.738  27.535  0.1448  0.1424  0.2700
  189BOLB   C3B 4523  16.839  13.847  27.957  0.1606 -0.0087  0.1439
  189BOLB   C4B 4524  16.696  13.710  28.390  0.0326 -0.2350  0.1933
  189BOLB   NC2 4525  15.991  15.851  30.270  0.0677  0.1273 -0.2100
  189BOLB   PO2 4526  16.233  15.598  30.095  0.1126 -0.1398 -0.2178
  189BOLB   GL3 4527  16.242  15.431  29.802 -0.2664  0.1610  0.0579
  189BOLB   GL4 4528  16.499  15.398  29.739  0.0432  0.1115 -0.0421
  189BOLB   C1C 4529  16.118  15.291  29.320  0.2135  0.1105 -0.3486
  189BOLB   C2C 4530  16.077  14.990  28.927 -0.1978 -0.1055 -0.1848
  189BOLB   C3C 4531  16.327  14.976  28.570  0.1912  0.3498 -0.0491
  189BOLB   C4C 4532  16.160  14.738  28.372  0.1309 -0.1512 -0.2539
  189BOLB   C1D 4533  16.424  14.975  29.568  0.3082 -0.0624 -0.0141
  189BOLB   C2D 4534  16.110  14.748  29.393  0.1213  0.2491  0.2275
  189BOLB   C3D 4535  15.924  14.378  29.427 -0.0353 -0.0980 -0.0127
  189BOLB   C4D 4536  16.028  13.888  29.477 -0.1668 -0.3286  0.1503
  190BOLB   NC1 4537  22.014  -1.923  24.013  0.0165  0.3954 -0.2824
  190BOLB   PO1 4538  22.408  -1.679  23.961 -0.2667 -0.0072 -0.1103
  190BOLB   GL1 4539  22.483  -2.063  23.937 -0.0658  0.2277  0.3114
  190BOLB   GL2 4540  22.449  -2.263  24.213 -0.1953 -0.2644 -0.2979
  190BOLB   C1A 4541  22.758  -2.364  23.702  0.3000  0.1808  0.1570
  190BOLB   C2A 4542  23.055  -2.627  23.639  0.5145  0.2616 -0.1064
  190BOLB   C3A 4543  23.403  -2.826  23.861 -0.4256  0.1592 -0.0279
  190BOLB   C4A 4544  23.668  -3.142  24.111 -0.3309 -0.0655  0.0344
  190BOLB   C1B 4545  22.615  -2.684  24.049  0.0933 -0.1149 -0.0753
  190BOLB   C2B 4546  22.971  -2.970  24.132 -0.4391 -0.2352  0.0734
  190BOLB   C3B 4547  23.007  -3.307  24.442 -0.2621  0.3042 -0.0704
  190BOLB   C4B 4548  23.407  -3.421  24.598  0.0134  0.0324  0.0181
  190BOLB   NC2 4549  25.080  -4.823  25.444 -0.0312 -0.1895  0.1091
  190BOLB   PO2 4550  25.076  -4.974  24.954 -0.0890  0.0073  0.2193
  190BOLB   GL3 4551  24.770  -4.742  24.761 -0.1376  0.1749 -0.1389
  190BOLB   GL4 4552  24.702  -5.007  24.540  0.3355 -0.1327 -0.3104
  190BOLB   C1C 4553  24.404  -4.451  24.684 -0.1485 -0.2763  0.0372
  190BOLB   C2C 4554  24.139  -4.063  24.734  0.0802  0.3997  0.0228
  190BOLB   C3C 4555  24.042  -3.580  24.748 -0.1504 -0.1977 -0.1257
  190BOLB   C4C 4556  23.885  -3.249  24.463 -0.1670  0.0772 -0.2825
  190BOLB   C1D 4557  24.234  -4.926  24.609  0.0934 -0.0524  0.1953
  190BOLB   C2D 4558  23.914  -4.648  24.786  0.2258  0.1922 -0.0408
  190BOLB   C3D 4559  23.558  -4.353  24.792  0.2541 -0.2482 -0.4504
  190BOLB   C4D 4560  23.336  -4.168  25.116  0.1263 -0.0583  0.0299
  191BOLB   NC1 4561  12.591   9.172  32.020  0.0138 -0.0742 -0.1920
  191BOLB   PO1 4562  12.930   8.826  32.179  0.3975 -0.1230 -0.1605
  191BOLB   GL1 4563  12.722   9.011  32.506  0.1273  0.3577 -0.2931
  191BOLB   GL2 4564  12.483   8.826  32.748 -0.1537  0.0229 -0.1404
  191BOLB   C1A 4565  12.473   9.332  32.657 -0.0917 -0.6088 -0.1881
  191BOLB   C2A 4566  12.445   9.660  32.898  0.0071  0.0975 -0.2332
  191BOLB   C3A 4567  12.560   9.728  33.324  0.0963  0.0607  0.0555
  191BOLB   C4A 4568  12.490   9.821  33.806 -0.0113 -0.2335 -0.1329
  191BOLB   C1B 4569  12.485   8.723  33.198  0.0330 -0.2156  0.2239
  191BOLB   C2B 4570  12.274   8.859  33.527 -0.1334  0.3371  0.3147
  191BOLB   C3B 4571  11.959   9.011  33.726 -0.0136 -0.0043  0.0166
  191BOLB   C4B 4572  11.569   9.046  34.053 -0.0106 -0.4767  0.1847
  191BOLB   NC2 4573  11.927  11.841  35.094 -0.2748 -0.1073  0.0081
  191BOLB   PO2 4574  12.251  11.594  35.156 -0.0714 -0.0624  0.2263
  191BOLB   GL3 4575  12.345  11.223  34.908 -0.1661 -0.0767  0.0981
  191BOLB   GL4 4576  12.634  11.460  34.715  0.0540 -0.1984  0.0825
  191BOLB   C1C 4577  12.482  10.830  34.801  0.1804  0.2241 -0.0640
  191BOLB   C2C 4578  12.202  10.621  34.636 -0.1401 -0.0886  0.4042
  191BOLB   C3C 4579  12.318  10.344  34.328  0.3181 -0.0509  0.1111
  191BOLB   C4C 4580  12.469  10.140  34.061  0.1687 -0.2315  0.1891
  191BOLB   C1D 4581  12.406  11.137  34.435 -0.2846 -0.1816  0.0630
  191BOLB   C2D 4582  12.271  10.843  34.161 -0.1829 -0.1750 -0.2920
  191BOLB   C3D 4583  12.391  10.569  33.768 -0.1565  0.2126  0.1070
  191BOLB   C4D 4584  12.733  10.217  33.611  0.0659 -0.1528  0.0313
  192BOLB   NC1 4585  22.627  -1.079  27.297 -0.4333 -0.0866  0.1049
  192BOLB   PO1 4586  22.535  -1.187  26.788 -0.1472  0.1306  0.0836
  192BOLB   GL1 4587  22.944  -1.303  26.686  0.0054  0.2023 -0.0524
  192BOLB   GL2 4588  23.055  -1.317  27.047 -0.0749  0.1366 -0.1281
  192BOLB   C1A 4589  22.934  -1.739  26.661 -0.1345  0.2160  0.0366
  192BOLB   C2A 4590  23.142  -2.158  26.663  0.1679 -0.1778 -0.2765
  192BOLB   C3A 4591  23.348  -2.551  26.685  0.1739 -0.1766  0.0546
  192BOLB   C4A 4592  23.390  -2.973  26.604  0.4178  0.0752 -0.2026
  192BOLB   C1B 4593  23.131  -1.698  27.257 -0.1144  0.5543  0.1705
  192BOLB   C2B 4594  23.306  -2.074  27.132  0.2161  0.1678 -0.0732
  192BOLB   C3B 4595  23.483  -2.568  27.173 -0.1241  0.0838 -0.2667
  192BOLB   C4B 4596  23.559  -2.928  27.217  0.1417  0.1317  0.3147
  192BOLB   NC2 4597  25.702  -4.291  26.856 -0.1261  0.1376  0.2631
  192BOLB   PO2 4598  25.595  -3.833  26.974  0.1360  0.1050 -0.1029
  192BOLB   GL3 4599  25.039  -3.835  26.836  0.0501 -0.3097 -0.0419
  192BOLB   GL4 4600  24.996  -3.593  26.588 -0.0133  0.2120 -0.1985
  192BOLB   C1C 4601  24.605  -4.186  26.609 -0.1016  0.1659 -0.1076
  192BOLB   C2C 4602  24.219  -4.129  26.490  0.0943 -0.0244  0.2757
  192BOLB   C3C 4603  23.861  -3.860  26.423  0.0495  0.4376  0.0318
  192BOLB   C4C 4604  23.559  -3.464  26.359 -0.3691  0.0535  0.0056
  192BOLB   C1D 4605  24.631  -3.660  26.430 -0.0210  0.2411 -0.0100
  192BOLB   C2D 4606  24.255  -3.555  26.575  0.0832 -0.2849 -0.0257
  192BOLB   C3D 4607  23.956  -3.239  26.543 -0.3520 -0.0696  0.0217
  192BOLB   C4D 4608  23.728  -2.982  26.234 -0.0251  0.0948  0.1454
  193BOLB   NC1 4609  17.786  10.894  23.051  0.1837  0.3777  0.2125
  193BOLB   PO1 4610  17.753  11.374  23.179  0.0430 -0.2276  0.0243
  193BOLB   GL1 4611  17.855  11.798  23.171 -0.0713  0.2250  0.1737
  193BOLB   GL2 4612  17.687  12.108  23.249 -0.2062 -0.2607  0.1887
  193BOLB   C1A 4613  17.985  12.058  22.812 -0.1387 -0.1779 -0.1008
  193BOLB   C2A 4614  18.168  12.445  22.685 -0.4142 -0.4544 -0.1531
  193BOLB   C3A 4615  18.337  12.824  22.650  0.0980  0.1791  0.1203
  193BOLB   C4A 4616  18.687  12.989  22.877  0.1787 -0.0226  0.3766
  193BOLB   C1B 4617  17.813  12.504  23.236 -0.3058  0.0041 -0.0707
  193BOLB   C2B 4618  17.889  12.757  22.937  0.0106 -0.1795  0.1750
  193BOLB   C3B 4619  17.910  13.080  22.693 -0.0219  0.2821 -0.0745
  193BOLB   C4B 4620  18.170  13.374  22.376  0.0006 -0.5035 -0.1541
  193BOLB   NC2 4621  18.664  15.237  21.433  0.2756 -0.0790  0.0451
  193BOLB   PO2 4622  19.150  15.131  21.413  0.1036  0.3335  0.1894
  193BOLB   GL3 4623  19.223  14.698  21.698  0.2862 -0.0508 -0.1073
  193BOLB   GL4 4624  19.451  14.497  21.725  0.0042  0.3956 -0.1416
  193BOLB   C1C 4625  19.130  14.354  22.053 -0.0255  0.3148 -0.3295
  193BOLB   C2C 4626  19.107  13.940  22.340  0.0020  0.2659  0.0986
  193BOLB   C3C 4627  19.299  13.588  22.609  0.1548 -0.0654 -0.0302
  193BOLB   C4C 4628  19.054  13.302  22.889 -0.4534  0.2725 -0.1171
  193BOLB   C1D 4629  19.289  14.188  21.505  0.0600 -0.0712 -0.2067
  193BOLB   C2D 4630  19.027  13.948  21.205 -0.0711 -0.0097  0.4645
  193BOLB   C3D 4631  19.000  13.700  20.840 -0.1607  0.1716  0.2169
  193BOLB   C4D 4632  19.161  13.492  20.453 -0.1037 -0.0455 -0.0580
  194BOLB   NC1 4633   9.798  10.836  27.191 -0.0378 -0.0124 -0.2303
  194BOLB   PO1 4634   9.762  11.231  27.387  0.0228  0.0718  0.3830
  194BOLB   GL1 4635   9.516  11.574  27.325 -0.0630 -0.4019  0.0725
  194BOLB   GL2 4636   9.363  11.533  27.632 -0.1323 -0.0649  0.2017
  194BOLB   C1A 4637   9.413  11.886  27.119 -0.4929  0.0051 -0.0360
  194BOLB   C2A 4638   9.267  12.302  27.081  0.1632 -0.0397  0.3203
  194BOLB   C3A 4639   8.800  12.532  26.909 -0.0660 -0.0762  0.0597
  194BOLB   C4A 4640   8.467  12.727  26.572 -0.2149 -0.2370  0.1346
  194BOLB   C1B 4641   9.049  11.902  27.791  0.0142  0.4898  0.1787
  194BOLB   C2B 4642   9.011  12.169  28.052  0.0336  0.5484  0.0853
  194BOLB   C3B 4643   9.000  12.592  27.963  0.0449 -0.0517  0.3628
  194BOLB   C4B 4644   9.250  12.918  27.699  0.2158  0.0697  0.0190
  194BOLB   NC2 4645   6.744  13.111  24.714  0.3371 -0.4495  0.0025
  194BOLB   PO2 4646   6.709  13.375  25.098  0.1821 -0.0147  0.0397
  194BOLB   GL3 4647   7.098  13.199  25.149  0.1259 -0.1845  0.1226
  194BOLB   GL4 4648   7.182  13.068  24.868 -0.0811 -0.0711 -0.1382
  194BOLB   C1C 4649   7.597  13.150  25.224 -0.1138 -0.0970 -0.2641
  194BOLB   C2C 4650   7.968  13.136  25.500 -0.4018 -0.2962 -0.0794
  194BOLB   C3C 4651   8.237  13.031  25.830 -0.1529  0.0212 -0.0182
  194BOLB   C4C 4652   8.396  12.757  26.155  0.1203 -0.0778 -0.0805
  194BOLB   C1D 4653   7.640  12.709  24.845  0.1831 -0.1256 -0.1416
  194BOLB   C2D 4654   7.766  12.431  24.608  0.1629  0.0882 -0.2252
  194BOLB   C3D 4655   8.022  12.060  24.671  0.2362  0.0579 -0.0451
  194BOLB   C4D 4656   8.303  11.847  24.853 -0.1713 -0.0069 -0.0121
  195BOLB   NC1 4657   5.298   0.969  31.644  0.0765  0.1315  0.5308
  195BOLB   PO1 4658   4.983   1.275  31.497  0.2627 -0.0760  0.4005
  195BOLB   GL1 4659   5.388   1.281  31.242  0.0372  0.2926  0.0181
  195BOLB   GL2 4660   5.633   1.359  31.543  0.4882 -0.0934 -0.1721
  195BOLB   C1A 4661   5.620   1.478  30.845 -0.2070 -0.1072 -0.3053
  195BOLB   C2A 4662   5.892   1.929  30.721  0.1921 -0.1778 -0.1271
  195BOLB   C3A 4663   6.102   1.981  30.326 -0.0893 -0.0494 -0.0177
  195BOLB   C4A 4664   5.982   1.982  29.913  0.1604  0.0131  0.3194
  195BOLB   C1B 4665   5.866   1.131  31.161  0.1848 -0.0707  0.1697
  195BOLB   C2B 4666   6.015   1.211  30.772 -0.1660  0.1197 -0.0150
  195BOLB   C3B 4667   5.977   1.527  30.483 -0.1007 -0.1099 -0.0275
  195BOLB   C4B 4668   5.593   1.764  30.328 -0.0643 -0.1754  0.1322
  195BOLB   NC2 4669   4.447   0.714  30.231 -0.1981  0.1207  0.0797
  195BOLB   PO2 4670   4.247   1.054  30.524 -0.0541 -0.2049 -0.0069
  195BOLB   GL3 4671   4.609   1.151  30.329  0.0628 -0.0766  0.0907
  195BOLB   GL4 4672   4.503   1.494  30.441  0.2144  0.0904  0.2854
  195BOLB   C1C 4673   4.922   1.041  29.972 -0.1092 -0.0037  0.0460
  195BOLB   C2C 4674   5.299   1.239  29.729 -0.1692  0.0506  0.0394
  195BOLB   C3C 4675   5.731   1.326  29.721 -0.3868 -0.1721  0.1437
  195BOLB   C4C 4676   5.876   1.651  29.675  0.2425 -0.1119  0.0677
  195BOLB   C1D 4677   4.756   1.888  30.396  0.0165  0.0518  0.2651
  195BOLB   C2D 4678   5.170   2.024  30.210  0.0648 -0.0401 -0.2348
  195BOLB   C3D 4679   5.326   1.760  29.940  0.2122 -0.1531 -0.0963
  195BOLB   C4D 4680   5.307   1.677  29.474 -0.0197  0.3960  0.0466
  196BOLB   NC1 4681  18.539   8.302  32.842  0.0198  0.0217 -0.0198
  196BOLB   PO1 4682  18.411   8.573  32.498  0.3647  0.0305  0.1169
  196BOLB   GL1 4683  18.453   8.806  32.825 -0.1581 -0.3212  0.1383
  196BOLB   GL2 4684  18.553   8.686  33.181 -0.4143 -0.1747  0.3041
  196BOLB   C1A 4685  18.540   9.304  33.080  0.1419 -0.1896  0.1547
  196BOLB   C2A 4686  18.928   9.443  33.214 -0.1563 -0.0304  0.0961
  196BOLB   C3A 4687  19.400   9.504  33.139 -0.2312 -0.2200  0.1782
  196BOLB   C4A 4688  19.850   9.269  33.421  0.0185  0.0018  0.0758
  196BOLB   C1B 4689  18.744   8.981  33.478 -0.1810  0.4430  0.0756
  196BOLB   C2B 4690  18.831   9.343  33.657  0.0211 -0.1911  0.1418
  196BOLB   C3B 4691  19.161   9.641  33.607  0.1156  0.0882  0.0884
  196BOLB   C4B 4692  19.422   9.979  33.487 -0.4219  0.1143  0.0356
  196BOLB   NC2 4693  21.282  10.239  35.548  0.1222  0.1149 -0.0745
  196BOLB   PO2 4694  21.328  10.318  35.099  0.0698  0.1869 -0.0782
  196BOLB   GL3 4695  21.202   9.942  34.800  0.3376  0.3812  0.1129
  196BOLB   GL4 4696  21.382   9.712  34.595  0.1280 -0.1734 -0.1652
  196BOLB   C1C 4697  20.883   9.765  34.640 -0.1421 -0.0967 -0.2686
  196BOLB   C2C 4698  20.473   9.625  34.475  0.0936  0.0309  0.4140
  196BOLB   C3C 4699  20.100   9.557  34.187 -0.0515 -0.1906 -0.1816
  196BOLB   C4C 4700  20.094   9.265  33.783  0.2005 -0.2226  0.0087
  196BOLB   C1D 4701  21.449   9.363  34.348 -0.0563 -0.1064  0.1929
  196BOLB   C2D 4702  21.516   8.989  34.335  0.0387 -0.0605 -0.1940
  196BOLB   C3D 4703  21.758   8.672  34.357  0.0651 -0.1109 -0.0814
  196BOLB   C4D 4704  21.661   8.318  34.330 -0.5930 -0.1714  0.1246
  197BOLB   NC1 4705  16.094   2.282  15.886  0.2299 -0.0484 -0.2770
  197BOLB   PO1 4706  16.350   1.889  15.790 -0.1018  0.1200 -0.0039
  197BOLB   GL1 4707  16.160   1.638  15.551 -0.0945 -0.0353  0.0641
  197BOLB   GL2 4708  16.366   1.630  15.276 -0.0750 -0.0170  0.2288
  197BOLB   C1A 4709  16.041   1.295  15.276  0.0686  0.2737  0.6254
  197BOLB   C2A 4710  15.775   1.256  14.893 -0.1042 -0.0352 -0.0771
  197BOLB   C3A 4711  15.796   1.154  14.411  0.3177 -0.0659  0.0003
  197BOLB   C4A 4712  16.226   0.973  14.275  0.0237  0.0812  0.1667
  197BOLB   C1B 4713  16.198   1.636  14.812 -0.0606 -0.2083  0.1675
  197BOLB   C2B 4714  16.303   1.616  14.450  0.0275  0.3117  0.1792
  197BOLB   C3B 4715  16.436   1.500  13.999 -0.1265  0.1681  0.1505
  197BOLB   C4B 4716  16.783   1.503  13.625 -0.2474  0.1085  0.0392
  197BOLB   NC2 4717  15.305   1.299  16.427  0.0223 -0.1499  0.1967
  197BOLB   PO2 4718  15.725   1.325  16.324 -0.1539 -0.1343 -0.5391
  197BOLB   GL3 4719  15.924   1.208  15.950 -0.0245 -0.2047 -0.1695
  197BOLB   GL4 4720  15.729   1.337  15.634 -0.0592  0.0771  0.2691
  197BOLB   C1C 4721  16.223   1.036  15.656 -0.2543 -0.0637 -0.1430
  197BOLB   C2C 4722  16.544   0.857  15.344 -0.0879  0.0764  0.2377
  197BOLB   C3C 4723  16.594   0.793  14.903 -0.2234 -0.3191 -0.0753
  197BOLB   C4C 4724  16.577   0.801  14.513  0.0754  0.0550  0.2471
  197BOLB   C1D 4725  15.619   1.130  15.338  0.3238 -0.0278 -0.0597
  197BOLB   C2D 4726  15.466   0.822  14.848 -0.2958  0.1326 -0.1691
  197BOLB   C3D 4727  15.570   0.661  14.581 -0.4181 -0.2929  0.1409
  197BOLB   C4D 4728  15.835   0.365  14.351 -0.0500  0.3625  0.0949
  198BOLB   NC1 4729  21.125   8.134  19.845  0.3152  0.0426  0.2462
  198BOLB   PO1 4730  21.017   8.609  19.945  0.1515 -0.0139 -0.1026
  198BOLB   GL1 4731  21.185   8.968  19.747  0.3459 -0.0982 -0.1126
  198BOLB   GL2 4732  20.922   9.079  19.542 -0.0390 -0.1117  0.3964
  198BOLB   C1A 4733  21.371   9.106  19.484  0.0383 -0.1120 -0.0008
  198BOLB   C2A 4734  21.620   9.384  19.329 -0.2139 -0.0315  0.1519
  198BOLB   C3A 4735  21.937   9.611  19.101 -0.2165  0.0625  0.2222
  198BOLB   C4A 4736  22.179   9.794  18.791  0.0187  0.1249  0.0230
  198BOLB   C1B 4737  21.042   9.458  19.293 -0.1078  0.1718 -0.0383
  198BOLB   C2B 4738  20.911   9.585  18.957  0.0263 -0.4033  0.1067
  198BOLB   C3B 4739  20.767   9.853  18.672  0.0861 -0.1919 -0.1233
  198BOLB   C4B 4740  20.564  10.151  18.393  0.1744  0.2972 -0.1320
  198BOLB   NC2 4741  24.202  11.098  18.950 -0.1497  0.1765 -0.0492
  198BOLB   PO2 4742  23.886  11.289  19.234 -0.1100 -0.0927 -0.3719
  198BOLB   GL3 4743  23.757  10.907  19.084 -0.1058  0.1113 -0.0314
  198BOLB   GL4 4744  23.439  10.916  19.259  0.1634  0.0865 -0.1514
  198BOLB   C1C 4745  23.498  10.463  19.277  0.0739  0.2179 -0.1684
  198BOLB   C2C 4746  23.015  10.327  19.266  0.3085  0.1193  0.1881
  198BOLB   C3C 4747  22.760  10.187  19.023  0.1792 -0.0353  0.1427
  198BOLB   C4C 4748  22.581   9.963  18.681  0.1391  0.1124  0.2413
  198BOLB   C1D 4749  23.068  10.789  19.112 -0.3758  0.0599 -0.2854
  198BOLB   C2D 4750  22.892  10.560  18.771 -0.0665 -0.0274  0.2850
  198BOLB   C3D 4751  22.951  10.251  18.455  0.0877  0.1485 -0.0967
  198BOLB   C4D 4752  22.811   9.865  18.222 -0.0759 -0.0889  0.0486
  199BOLB   NC1 4753  16.011   7.892  33.322  0.0789 -0.0165 -0.1113
  199BOLB   PO1 4754  15.685   7.714  33.587  0.0135 -0.1163  0.0509
  199BOLB   GL1 4755  15.541   7.774  33.952  0.1235  0.1896  0.1110
  199BOLB   GL2 4756  15.269   7.646  33.944 -0.0540  0.1237  0.3839
  199BOLB   C1A 4757  15.883   8.045  34.281 -0.2513 -0.0519  0.0823
  199BOLB   C2A 4758  16.035   8.327  34.552  0.2155  0.1368  0.0764
  199BOLB   C3A 4759  16.157   8.232  35.069  0.2016  0.2349 -0.3043
  199BOLB   C4A 4760  16.012   8.190  35.482 -0.0111 -0.2275  0.0103
  199BOLB   C1B 4761  15.316   7.509  34.345 -0.0461  0.3557  0.0797
  199BOLB   C2B 4762  15.167   7.667  34.720 -0.0367  0.0298 -0.1318
  199BOLB   C3B 4763  15.053   7.913  34.998  0.2500 -0.1514 -0.0216
  199BOLB   C4B 4764  14.857   7.920  35.327  0.0696 -0.1476  0.1599
  199BOLB   NC2 4765  14.945   8.919  37.734  0.3510  0.0950 -0.0980
  199BOLB   PO2 4766  15.163   9.185  37.382 -0.0644 -0.1099  0.1651
  199BOLB   GL3 4767  15.192   9.065  36.900  0.1583 -0.1471 -0.1355
  199BOLB   GL4 4768  15.519   8.918  36.762  0.1846 -0.1154  0.0139
  199BOLB   C1C 4769  15.073   8.985  36.541  0.1150  0.2607 -0.1080
  199BOLB   C2C 4770  15.182   8.763  36.117  0.3003  0.1335  0.0885
  199BOLB   C3C 4771  15.284   8.382  35.823 -0.3892  0.1297  0.2049
  199BOLB   C4C 4772  15.661   8.162  35.784  0.0981  0.1910 -0.0606
  199BOLB   C1D 4773  15.460   8.508  36.648  0.3282  0.1176 -0.1299
  199BOLB   C2D 4774  15.435   8.213  36.263 -0.2794  0.0636  0.3540
  199BOLB   C3D 4775  15.425   7.757  36.032 -0.1390 -0.2257  0.0214
  199BOLB   C4D 4776  15.377   7.337  35.853  0.0122  0.2680 -0.1963
  200BOLB   NC1 4777  11.281   2.222  17.601  0.3776  0.0182 -0.1113
  200BOLB   PO1 4778  11.411   1.752  17.449 -0.0348 -0.0586  0.1495
  200BOLB   GL1 4779  11.056   1.619  17.353  0.2310  0.3463  0.4047
  200BOLB   GL2 4780  10.922   1.472  17.598  0.1138  0.4056 -0.2753
  200BOLB   C1A 4781  10.660   1.623  17.145 -0.1793  0.2565 -0.1207
  200BOLB   C2A 4782  10.593   1.277  16.940 -0.0427  0.2744  0.1805
  200BOLB   C3A 4783  10.200   1.055  16.728 -0.1966  0.0119  0.0094
  200BOLB   C4A 4784   9.878   0.668  16.694  0.0073  0.0416  0.0506
  200BOLB   C1B 4785  10.912   1.142  17.365  0.3468 -0.0049  0.0875
  200BOLB   C2B 4786  10.532   0.762  17.095  0.1061  0.1578 -0.1650
  200BOLB   C3B 4787  10.273   0.419  16.896 -0.2617  0.1031  0.0225
  200BOLB   C4B 4788  10.046   0.175  16.634  0.0043  0.2337 -0.0087
  200BOLB   NC2 4789   7.744  -0.295  15.963  0.0229  0.3708  0.2968
  200BOLB   PO2 4790   8.170  -0.210  15.770  0.0707 -0.0270  0.1499
  200BOLB   GL3 4791   8.433  -0.272  16.175 -0.2734 -0.2303 -0.1334
  200BOLB   GL4 4792   8.488  -0.656  16.176  0.0760  0.0689  0.0162
  200BOLB   C1C 4793   8.696  -0.204  16.580  0.0024  0.0989  0.1326
  200BOLB   C2C 4794   8.933   0.130  16.798 -0.1916  0.0061 -0.1110
  200BOLB   C3C 4795   9.212   0.486  16.920  0.4186  0.0192 -0.0298
  200BOLB   C4C 4796   9.469   0.733  16.653 -0.1576 -0.1737 -0.3254
  200BOLB   C1D 4797   8.759  -0.978  16.302  0.1853  0.0723 -0.2034
  200BOLB   C2D 4798   9.092  -1.145  16.601 -0.1218  0.0852  0.3804
  200BOLB   C3D 4799   9.200  -0.898  17.023  0.0185  0.0039 -0.0183
  200BOLB   C4D 4800   9.478  -0.624  17.362  0.1026 -0.0755 -0.1251
  201BOLB   NC1 4801  12.752  12.128  27.009 -0.2282  0.3490 -0.0125
  201BOLB   PO1 4802  12.357  12.173  26.825  0.0680 -0.0016 -0.4171
  201BOLB   GL1 4803  12.441  12.529  26.810  0.0240  0.1510  0.3192
  201BOLB   GL2 4804  12.258  12.700  26.636  0.0914  0.4637 -0.0063
  201BOLB   C1A 4805  12.544  13.001  26.941  0.2713  0.1905 -0.0102
  201BOLB   C2A 4806  12.662  13.395  27.219  0.0773  0.2368 -0.0008
  201BOLB   C3A 4807  12.521  13.747  27.441  0.1015  0.0863 -0.1507
  201BOLB   C4A 4808  12.410  14.183  27.560 -0.2421  0.1021  0.0865
  201BOLB   C1B 4809  12.289  13.162  26.559  0.2064 -0.0583  0.0595
  201BOLB   C2B 4810  11.969  13.459  26.543  0.2845 -0.3671  0.1698
  201BOLB   C3B 4811  11.894  13.814  26.598 -0.3907  0.0393  0.1025
  201BOLB   C4B 4812  12.187  14.028  26.828 -0.4013  0.2171 -0.1868
  201BOLB   NC2 4813  11.985  16.860  28.119  0.1062 -0.0681 -0.1382
  201BOLB   PO2 4814  11.797  16.542  27.789 -0.0578 -0.1198  0.1460
  201BOLB   GL3 4815  11.912  16.144  27.567  0.0021  0.0772  0.1587
  201BOLB   GL4 4816  11.570  15.909  27.728  0.1562  0.2061  0.0551
  201BOLB   C1C 4817  12.189  15.794  27.700  0.2410 -0.0154  0.0025
  201BOLB   C2C 4818  12.130  15.397  27.641  0.1755  0.1468 -0.0121
  201BOLB   C3C 4819  12.235  14.961  27.693 -0.3418 -0.2162  0.3426
  201BOLB   C4C 4820  12.137  14.457  27.663 -0.1919  0.2181 -0.0121
  201BOLB   C1D 4821  11.633  15.494  27.524  0.2685  0.2327 -0.1753
  201BOLB   C2D 4822  11.810  15.136  27.327 -0.0606  0.2042  0.1210
  201BOLB   C3D 4823  12.158  14.839  27.184  0.0613 -0.1287  0.0278
  201BOLB   C4D 4824  12.284  14.453  27.116 -0.1989  0.1114  0.2758
  202BOLB   NC1 4825  10.616  -2.572  23.910  0.1048 -0.0484 -0.2100
  202BOLB   PO1 4826  10.897  -2.956  24.180 -0.2190 -0.0409 -0.5224
  202BOLB   GL1 4827  10.660  -3.264  23.877  0.3109  0.2104 -0.0072
  202BOLB   GL2 4828  10.315  -3.099  23.908  0.2206 -0.0904  0.3564
  202BOLB   C1A 4829  10.405  -3.583  23.691  0.0919  0.4332  0.1299
  202BOLB   C2A 4830  10.241  -4.001  23.807 -0.0085 -0.1102  0.1359
  202BOLB   C3A 4831  10.239  -4.339  23.558  0.1450 -0.0106 -0.2149
  202BOLB   C4A 4832  10.175  -4.726  23.519 -0.2103  0.2356  0.0207
  202BOLB   C1B 4833   9.863  -3.323  23.856  0.0156  0.0516 -0.2626
  202BOLB   C2B 4834   9.659  -3.739  23.802 -0.2512  0.1381 -0.2220
  202BOLB   C3B 4835   9.453  -4.011  23.446 -0.2872 -0.0187 -0.1181
  202BOLB   C4B 4836   9.471  -4.171  23.135  0.1051 -0.1680  0.0156
  202BOLB   NC2 4837   8.189  -6.258  23.773 -0.0003  0.0848  0.2734
  202BOLB   PO2 4838   8.539  -6.583  23.663 -0.2548 -0.1987 -0.0787
  202BOLB   GL3 4839   8.768  -6.282  23.883  0.0587 -0.1849 -0.3345
  202BOLB   GL4 4840   8.581  -5.973  23.921 -0.3350 -0.0591 -0.1563
  202BOLB   C1C 4841   8.979  -5.881  24.202  0.1446  0.0407 -0.1585
  202BOLB   C2C 4842   9.356  -5.526  24.170  0.2690 -0.3618  0.2271
  202BOLB   C3C 4843   9.558  -5.266  23.883 -0.1705 -0.2662  0.0784
  202BOLB   C4C 4844   9.782  -4.995  23.680  0.0889 -0.2354 -0.5116
  202BOLB   C1D 4845   8.796  -5.550  23.935 -0.0085 -0.1018 -0.0902
  202BOLB   C2D 4846   8.957  -5.212  24.005 -0.3162  0.0755  0.1980
  202BOLB   C3D 4847   9.249  -4.933  23.713 -0.0150  0.0338 -0.1783
  202BOLB   C4D 4848   9.301  -4.896  23.260  0.1240 -0.1086 -0.3695
  203BOLB   NC1 4849  18.851  11.624  26.331 -0.0071  0.2700 -0.0707
  203BOLB   PO1 4850  19.331  11.661  26.206 -0.2358 -0.1545 -0.1676
  203BOLB   GL1 4851  19.452  12.053  26.246  0.3608  0.0720 -0.1574
  203BOLB   GL2 4852  19.406  12.235  25.956  0.2185 -0.4124 -0.0730
  203BOLB   C1A 4853  19.644  12.478  26.300 -0.1065 -0.0398  0.2928
  203BOLB   C2A 4854  19.713  12.858  26.012 -0.2518 -0.1378 -0.0090
  203BOLB   C3A 4855  19.716  13.267  25.811 -0.2153 -0.2041 -0.0055
  203BOLB   C4A 4856  20.043  13.371  25.498  0.1981  0.0947  0.1425
  203BOLB   C1B 4857  19.515  12.483  25.568 -0.0589 -0.0451  0.0265
  203BOLB   C2B 4858  19.304  12.633  25.176 -0.1658  0.3356 -0.2536
  203BOLB   C3B 4859  19.396  13.016  24.924  0.3888  0.1525  0.1158
  203BOLB   C4B 4860  19.582  13.456  25.178  0.1053  0.2054 -0.3743
  203BOLB   NC2 4861  21.144  15.669  25.451  0.1205  0.0752  0.0513
  203BOLB   PO2 4862  21.075  15.271  25.468 -0.1299  0.0897  0.0415
  203BOLB   GL3 4863  21.052  14.989  25.785 -0.0635 -0.1341  0.2611
  203BOLB   GL4 4864  20.861  14.984  26.031  0.2692 -0.1027 -0.0741
  203BOLB   C1C 4865  21.119  14.566  25.809  0.1794 -0.2801  0.1503
  203BOLB   C2C 4866  20.970  14.125  25.821  0.1936 -0.3114  0.3967
  203BOLB   C3C 4867  20.687  13.912  25.632 -0.2868  0.6097  0.0257
  203BOLB   C4C 4868  20.423  13.584  25.584 -0.4134 -0.0010 -0.3506
  203BOLB   C1D 4869  20.566  14.727  25.819  0.1339 -0.2500 -0.0314
  203BOLB   C2D 4870  20.160  14.590  25.881  0.2752 -0.0573 -0.1588
  203BOLB   C3D 4871  19.801  14.654  26.091 -0.3021  0.0170  0.0789
  203BOLB   C4D 4872  19.440  14.444  25.963  0.0166 -0.0880  0.1692
  204BOLB   NC1 4873  21.923   0.742  30.462  0.0635  0.2259 -0.1217
  204BOLB   PO1 4874  21.713   1.032  30.773  0.2452 -0.2597 -0.0779
  204BOLB   GL1 4875  21.800   0.698  31.022  0.2295  0.0421  0.0008
  204BOLB   GL2 4876  21.781   0.785  31.393 -0.0332  0.2331  0.0557
  204BOLB   C1A 4877  22.094   0.345  31.231 -0.0440 -0.0399  0.0127
  204BOLB   C2A 4878  22.310   0.018  31.269  0.3687  0.1154 -0.0814
  204BOLB   C3A 4879  22.794   0.004  31.396  0.2791 -0.1445  0.2096
  204BOLB   C4A 4880  23.169   0.082  31.558 -0.0806  0.0136 -0.1394
  204BOLB   C1B 4881  22.090   0.630  31.732 -0.4976  0.0349 -0.0855
  204BOLB   C2B 4882  22.429   0.562  32.120 -0.0313 -0.2980  0.3295
  204BOLB   C3B 4883  22.524   0.105  32.209 -0.0051  0.1743  0.0932
  204BOLB   C4B 4884  22.769  -0.044  32.492 -0.4030 -0.0149 -0.5486
  204BOLB   NC2 4885  24.438  -1.048  33.131 -0.0350  0.1310  0.0433
  204BOLB   PO2 4886  24.718  -1.157  32.789 -0.1329 -0.1261 -0.0583
  204BOLB   GL3 4887  24.257  -1.160  32.649  0.3209 -0.0078 -0.1056
  204BOLB   GL4 4888  24.211  -0.844  32.719  0.1285 -0.3349 -0.0427
  204BOLB   C1C 4889  23.838  -0.885  32.412  0.0251  0.0187  0.1192
  204BOLB   C2C 4890  23.525  -0.650  32.240  0.2815  0.0365  0.2700
  204BOLB   C3C 4891  23.547  -0.284  32.040  0.1660  0.2325 -0.1000
  204BOLB   C4C 4892  23.485  -0.021  31.691 -0.0674 -0.0995  0.0241
  204BOLB   C1D 4893  23.980  -0.552  32.765  0.1977 -0.1235 -0.0208
  204BOLB   C2D 4894  23.942  -0.312  32.386  0.3645 -0.0085  0.3469
  204BOLB   C3D 4895  24.007  -0.070  32.089 -0.2974 -0.2611 -0.1935
  204BOLB   C4D 4896  23.915   0.192  31.881  0.2338 -0.0373  0.0928
  205BOLB   NC1 4897  10.717  -2.905  23.509  0.2287  0.3047 -0.3803
  205BOLB   PO1 4898  11.036  -2.876  23.278 -0.1315  0.0781  0.1061
  205BOLB   GL1 4899  10.788  -3.163  23.039  0.0783 -0.0004 -0.2577
  205BOLB   GL2 4900  10.599  -3.251  22.869 -0.0602 -0.1620  0.1421
  205BOLB   C1A 4901  10.701  -3.572  23.256 -0.0816 -0.4168  0.3737
  205BOLB   C2A 4902  10.525  -3.987  23.356 -0.1671 -0.1354 -0.1470
  205BOLB   C3A 4903  10.721  -4.399  23.267 -0.1034 -0.1869  0.1116
  205BOLB   C4A 4904  10.622  -4.768  23.210  0.2383  0.3716  0.1463
  205BOLB   C1B 4905  10.221  -3.435  22.971  0.0514  0.1209 -0.0315
  205BOLB   C2B 4906   9.835  -3.623  22.880  0.0578 -0.1744  0.0580
  205BOLB   C3B 4907   9.407  -3.821  22.656 -0.2115  0.1567 -0.1284
  205BOLB   C4B 4908   9.147  -4.161  22.551 -0.0572 -0.2973 -0.3378
  205BOLB   NC2 4909   9.927  -7.452  22.890  0.0364  0.1824 -0.5173
  205BOLB   PO2 4910  10.076  -7.150  22.627  0.1664 -0.0197 -0.0557
  205BOLB   GL3 4911  10.370  -6.802  22.643 -0.0093 -0.0290 -0.4557
  205BOLB   GL4 4912  10.680  -6.969  22.893 -0.2305  0.1203  0.0540
  205BOLB   C1C 4913  10.343  -6.491  22.951 -0.0429  0.0645 -0.1544
  205BOLB   C2C 4914  10.309  -6.090  23.121 -0.0714  0.1550 -0.4474
  205BOLB   C3C 4915  10.431  -5.658  23.186  0.2204  0.2167  0.1366
  205BOLB   C4C 4916  10.372  -5.206  23.170  0.2328 -0.2467 -0.1894
  205BOLB   C1D 4917  10.843  -6.621  22.588  0.1357  0.2737  0.2032
  205BOLB   C2D 4918  10.975  -6.373  22.198 -0.1344 -0.1079 -0.1246
  205BOLB   C3D 4919  11.249  -6.116  22.094  0.1201  0.3019 -0.0202
  205BOLB   C4D 4920  11.479  -5.735  22.190  0.0693  0.1036 -0.2215
  206BOLB   NC1 4921  22.372  11.764  18.360  0.0133 -0.3606  0.0534
  206BOLB   PO1 4922  21.953  11.953  18.385 -0.0087 -0.0307 -0.0736
  206BOLB   GL1 4923  21.898  11.670  18.622 -0.3435  0.0700 -0.1438
  206BOLB   GL2 4924  22.147  11.497  18.762 -0.2295  0.0995 -0.1679
  206BOLB   C1A 4925  21.845  11.709  19.073  0.0248 -0.0141  0.1210
  206BOLB   C2A 4926  21.455  11.650  19.310  0.0414 -0.1098 -0.2057
  206BOLB   C3A 4927  21.355  11.487  19.757 -0.2313 -0.3039  0.0760
  206BOLB   C4A 4928  20.989  11.537  19.996 -0.0503 -0.2772  0.1023
  206BOLB   C1B 4929  22.144  11.152  19.146 -0.0818  0.1891  0.0833
  206BOLB   C2B 4930  22.084  10.824  19.458 -0.2207  0.0347  0.0221
  206BOLB   C3B 4931  22.236  10.531  19.830  0.2229  0.0745 -0.3507
  206BOLB   C4B 4932  22.038  10.130  20.036 -0.0724 -0.3703 -0.0395
  206BOLB   NC2 4933  20.797  13.791  19.078  0.0669 -0.2078 -0.1417
  206BOLB   PO2 4934  21.137  13.504  19.102  0.0921  0.3374  0.1444
  206BOLB   GL3 4935  20.832  13.281  19.279  0.2554  0.0983  0.2554
  206BOLB   GL4 4936  20.543  13.176  19.118 -0.0969  0.0777 -0.0256
  206BOLB   C1C 4937  20.958  12.936  19.580 -0.0044 -0.5497 -0.0707
  206BOLB   C2C 4938  20.738  12.647  19.715 -0.1298  0.1351 -0.2690
  206BOLB   C3C 4939  20.814  12.378  20.101  0.0223  0.3808 -0.1433
  206BOLB   C4C 4940  20.924  11.955  20.149  0.0003 -0.0763  0.0277
  206BOLB   C1D 4941  20.433  12.813  19.368 -0.0678  0.1020  0.0693
  206BOLB   C2D 4942  20.334  12.394  19.512 -0.5194 -0.1926  0.1687
  206BOLB   C3D 4943  20.163  12.054  19.776 -0.0500  0.1439  0.4572
  206BOLB   C4D 4944  19.822  11.793  19.836  0.1831  0.0139 -0.2910
  207BOLB   NC1 4945  18.234  -4.319  23.775 -0.1638 -0.2075  0.1849
  207BOLB   PO1 4946  18.073  -4.345  24.169  0.3090  0.1836 -0.0720
  207BOLB   GL1 4947  18.023  -4.702  23.996  0.1404 -0.1508 -0.0208
  207BOLB   GL2 4948  18.389  -4.830  23.895 -0.3099 -0.0076 -0.1867
  207BOLB   C1A 4949  17.956  -5.036  23.707 -0.1088  0.3240  0.1541
  207BOLB   C2A 4950  17.602  -5.166  23.373 -0.2915 -0.3365 -0.0250
  207BOLB   C3A 4951  17.387  -5.423  22.992 -0.0605  0.2613  0.0729
  207BOLB   C4A 4952  17.385  -5.906  22.936 -0.1855  0.0686 -0.1954
  207BOLB   C1B 4953  18.511  -5.239  23.820 -0.1388  0.0550 -0.1360
  207BOLB   C2B 4954  18.850  -5.536  23.967  0.1218 -0.1986 -0.0643
  207BOLB   C3B 4955  19.199  -5.714  24.261  0.3506  0.0791 -0.2682
  207BOLB   C4B 4956  19.440  -5.913  24.478  0.0737  0.1750 -0.1979
  207BOLB   NC2 4957  16.547  -8.310  23.158 -0.0528 -0.0137  0.2151
  207BOLB   PO2 4958  16.866  -8.244  23.242 -0.0621 -0.1497  0.2545
  207BOLB   GL3 4959  17.059  -7.894  23.246  0.0816 -0.0085  0.0718
  207BOLB   GL4 4960  17.249  -7.918  23.008  0.0586 -0.1266 -0.2801
  207BOLB   C1C 4961  17.010  -7.431  23.292  0.2863 -0.2639 -0.1089
  207BOLB   C2C 4962  16.834  -7.097  22.965 -0.1150 -0.1621  0.1746
  207BOLB   C3C 4963  16.960  -6.583  22.878  0.0771  0.1294  0.1306
  207BOLB   C4C 4964  17.285  -6.314  22.843 -0.0670  0.0725 -0.1047
  207BOLB   C1D 4965  17.263  -7.555  22.790 -0.0439 -0.0795  0.0472
  207BOLB   C2D 4966  17.279  -7.145  22.638 -0.0656  0.0694  0.0492
  207BOLB   C3D 4967  17.057  -6.906  22.426 -0.0963 -0.0878  0.3617
  207BOLB   C4D 4968  16.972  -6.404  22.425  0.0546 -0.0537 -0.0311
  208BOLB   NC1 4969   8.818   7.340  29.561 -0.0420  0.1904  0.3937
  208BOLB   PO1 4970   8.828   7.656  29.913  0.2112 -0.4553  0.1096
  208BOLB   GL1 4971   8.362   7.576  30.009  0.0478 -0.0300  0.0062
  208BOLB   GL2 4972   8.325   7.216  29.977 -0.0207 -0.0191 -0.0001
  208BOLB   C1A 4973   8.022   7.534  30.186 -0.0898 -0.2342  0.0748
  208BOLB   C2A 4974   7.593   7.760  30.271  0.1664 -0.4647 -0.0256
  208BOLB   C3A 4975   7.260   7.935  30.465  0.3230 -0.0847 -0.0974
  208BOLB   C4A 4976   6.826   8.157  30.581 -0.3028  0.2980  0.1436
  208BOLB   C1B 4977   8.056   7.010  30.188 -0.0917  0.2830  0.2315
  208BOLB   C2B 4978   7.647   7.046  30.229 -0.0382  0.1067 -0.2906
  208BOLB   C3B 4979   7.190   6.992  30.481 -0.0055  0.1436  0.2648
  208BOLB   C4B 4980   6.746   6.903  30.695  0.1401  0.1814 -0.1520
  208BOLB   NC2 4981   4.161   7.491  30.655  0.0467 -0.0729 -0.2616
  208BOLB   PO2 4982   4.422   7.487  31.010  0.6433 -0.0288 -0.0741
  208BOLB   GL3 4983   4.811   7.456  30.678  0.2955  0.1224 -0.2302
  208BOLB   GL4 4984   4.793   7.704  30.377  0.1073  0.2518  0.4131
  208BOLB   C1C 4985   5.268   7.534  30.426  0.0841  0.0507  0.1321
  208BOLB   C2C 4986   5.628   7.763  30.249  0.0184  0.1773 -0.0572
  208BOLB   C3C 4987   5.959   8.078  30.377  0.1217  0.0446  0.1637
  208BOLB   C4C 4988   6.377   8.140  30.371 -0.2438 -0.0504 -0.0659
  208BOLB   C1D 4989   4.992   7.506  29.943  0.0733 -0.1015 -0.3657
  208BOLB   C2D 4990   5.316   7.336  29.602 -0.1047  0.0247 -0.1251
  208BOLB   C3D 4991   5.645   7.147  29.532  0.2510 -0.0066  0.2164
  208BOLB   C4D 4992   5.741   6.815  29.253  0.2779 -0.1107  0.2954
  209BOLB   NC1 4993  16.322  -8.537  12.949 -0.1523  0.0708 -0.0612
  209BOLB   PO1 4994  16.754  -8.459  12.868 -0.0223 -0.1869  0.3006
  209BOLB   GL1 4995  17.043  -8.223  13.074  0.1173  0.0481 -0.0678
  209BOLB   GL2 4996  17.396  -8.224  13.024  0.0574 -0.4603  0.1076
  209BOLB   C1A 4997  17.068  -7.830  13.318 -0.1256  0.1216 -0.0277
  209BOLB   C2A 4998  17.348  -7.608  13.515 -0.2101 -0.3562  0.0033
  209BOLB   C3A 4999  17.765  -7.558  13.634 -0.2182 -0.1009  0.1772
  209BOLB   C4A 5000  18.014  -7.261  13.844  0.1315  0.2783 -0.3470
  209BOLB   C1B 5001  17.552  -7.892  13.132 -0.1357  0.1024 -0.0458
  209BOLB   C2B 5002  17.953  -7.780  13.170 -0.0033 -0.1521 -0.0546
  209BOLB   C3B 5003  18.257  -7.757  13.517  0.1624  0.0848  0.4267
  209BOLB   C4B 5004  18.524  -7.671  13.785 -0.1634 -0.0815  0.1951
  209BOLB   NC2 5005  17.143  -9.136  14.292 -0.3375  0.0837  0.2012
  209BOLB   PO2 5006  17.205  -8.883  13.843 -0.0322  0.1644  0.1921
  209BOLB   GL3 5007  17.717  -8.781  13.930 -0.0130 -0.1724 -0.1457
  209BOLB   GL4 5008  17.796  -8.502  13.931 -0.1204 -0.0950 -0.0690
  209BOLB   C1C 5009  18.215  -8.713  14.071 -0.0619  0.2228  0.0348
  209BOLB   C2C 5010  18.346  -8.389  14.350 -0.0726  0.1061 -0.5098
  209BOLB   C3C 5011  18.297  -7.891  14.271 -0.1015  0.0369 -0.3982
  209BOLB   C4C 5012  18.166  -7.455  14.259 -0.0180  0.1445 -0.1533
  209BOLB   C1D 5013  18.096  -8.262  13.945 -0.1816 -0.1504  0.2071
  209BOLB   C2D 5014  17.883  -7.890  14.016  0.1633  0.1943 -0.0481
  209BOLB   C3D 5015  17.607  -7.900  14.432 -0.1735 -0.1637 -0.2185
  209BOLB   C4D 5016  17.532  -7.647  14.703 -0.0734  0.2668  0.2739
  210BOLB   NC1 5017  20.866   8.239  31.098 -0.0127  0.3218 -0.0165
  210BOLB   PO1 5018  21.195   7.910  31.049 -0.1600  0.0841  0.1840
  210BOLB   GL1 5019  21.373   8.039  31.371 -0.1137 -0.1449 -0.0424
  210BOLB   GL2 5020  21.016   8.097  31.613 -0.3425 -0.0438  0.1556
  210BOLB   C1A 5021  21.582   8.182  31.664  0.2421  0.1501 -0.1578
  210BOLB   C2A 5022  21.498   8.541  32.051 -0.1935 -0.2704  0.0756
  210BOLB   C3A 5023  21.561   8.772  32.398  0.3672  0.2194 -0.0151
  210BOLB   C4A 5024  21.628   9.136  32.647 -0.1458  0.0317 -0.0107
  210BOLB   C1B 5025  20.984   8.319  31.969 -0.0626 -0.2752 -0.0172
  210BOLB   C2B 5026  20.991   8.435  32.330 -0.0968  0.0807  0.1622
  210BOLB   C3B 5027  21.128   8.748  32.621 -0.2244  0.0822  0.1058
  210BOLB   C4B 5028  21.433   8.873  33.045 -0.1346  0.0438 -0.1906
  210BOLB   NC2 5029  22.241  11.657  34.031  0.0879 -0.0485 -0.0272
  210BOLB   PO2 5030  22.280  11.180  33.889 -0.1748 -0.1626  0.0361
  210BOLB   GL3 5031  22.093  10.886  33.566 -0.2636 -0.1802 -0.0520
  210BOLB   GL4 5032  21.804  10.832  33.496  0.0580  0.1674 -0.1836
  210BOLB   C1C 5033  22.207  10.586  33.330 -0.1233  0.3243 -0.1662
  210BOLB   C2C 5034  22.149  10.119  33.178  0.4657  0.1049  0.1874
  210BOLB   C3C 5035  21.921   9.769  33.150 -0.0969  0.2994  0.2489
  210BOLB   C4C 5036  21.868   9.380  32.973 -0.2144 -0.1020 -0.0404
  210BOLB   C1D 5037  21.598  10.719  33.178  0.2012  0.2527  0.0286
  210BOLB   C2D 5038  21.740  10.449  32.864 -0.0955 -0.0890 -0.0734
  210BOLB   C3D 5039  21.868  10.151  32.691  0.1765 -0.0152  0.0079
  210BOLB   C4D 5040  21.783   9.751  32.601 -0.1098 -0.0415 -0.0628
  211BOLB   NC1 5041   9.072  -1.674  24.781 -0.4082 -0.1992  0.2979
  211BOLB   PO1 5042   8.909  -1.693  24.440 -0.0662 -0.0638  0.2350
  211BOLB   GL1 5043   8.941  -2.172  24.238  0.2803 -0.0158 -0.3997
  211BOLB   GL2 5044   8.801  -2.287  23.959 -0.0716 -0.3793 -0.0209
  211BOLB   C1A 5045   8.680  -2.443  24.438  0.1764  0.2975  0.0139
  211BOLB   C2A 5046   8.284  -2.719  24.399 -0.0587  0.0057 -0.2560
  211BOLB   C3A 5047   7.961  -2.948  24.249  0.0096 -0.2127 -0.0274
  211BOLB   C4A 5048   7.485  -2.741  24.220  0.1016 -0.2159 -0.0362
  211BOLB   C1B 5049   8.608  -2.681  23.978  0.1795 -0.1765  0.0404
  211BOLB   C2B 5050   8.484  -3.117  24.006 -0.2360 -0.0237 -0.4166
  211BOLB   C3B 5051   8.104  -3.371  23.961 -0.3200 -0.2837  0.0072
  211BOLB   C4B 5052   7.845  -3.771  23.999  0.1703  0.1221  0.4470
  211BOLB   NC2 5053   5.456  -4.285  23.281  0.2580  0.0331  0.1808
  211BOLB   PO2 5054   5.795  -4.098  23.481 -0.0921 -0.0154  0.0275
  211BOLB   GL3 5055   6.124  -3.815  23.450 -0.2297 -0.1356  0.1383
  211BOLB   GL4 5056   6.172  -3.923  23.166 -0.0979  0.1040 -0.0575
  211BOLB   C1C 5057   6.470  -3.614  23.633  0.0110 -0.0921  0.1758
  211BOLB   C2C 5058   6.735  -3.204  23.562 -0.1799  0.0853  0.4061
  211BOLB   C3C 5059   6.909  -2.864  23.672  0.0071 -0.0783  0.0235
  211BOLB   C4C 5060   7.230  -2.555  23.848  0.1288  0.1001 -0.1396
  211BOLB   C1D 5061   6.650  -3.780  23.073 -0.1008  0.1469  0.0295
  211BOLB   C2D 5062   6.887  -3.431  23.060 -0.1205 -0.5134 -0.2592
  211BOLB   C3D 5063   7.058  -2.981  23.208  0.1902  0.2814 -0.3345
  211BOLB   C4D 5064   7.398  -2.703  23.366  0.1966 -0.2638 -0.1022
  212BOLB   NC1 5065  12.394  -2.655  28.246  0.0236  0.1750  0.0527
  212BOLB   PO1 5066  11.977  -2.489  28.357  0.0237  0.1300 -0.2603
  212BOLB   GL1 5067  11.586  -2.496  28.555 -0.1191 -0.3380 -0.1512
  212BOLB   GL2 5068  11.767  -2.539  28.890 -0.4103  0.0650  0.0886
  212BOLB   C1A 5069  11.230  -2.601  28.916  0.2348  0.1514  0.0681
  212BOLB   C2A 5070  11.013  -3.034  29.113  0.0931  0.2742  0.1080
  212BOLB   C3A 5071  11.086  -3.406  29.208 -0.0537  0.3205  0.1348
  212BOLB   C4A 5072  10.959  -3.761  29.333 -0.3023  0.2322 -0.2264
  212BOLB   C1B 5073  11.544  -2.901  29.138 -0.0206 -0.0798 -0.3070
  212BOLB   C2B 5074  11.465  -3.174  29.438  0.0626 -0.2198  0.2668
  212BOLB   C3B 5075  11.561  -3.433  29.643  0.0081  0.2981  0.0520
  212BOLB   C4B 5076  11.560  -3.686  29.990  0.1952  0.0074  0.1139
  212BOLB   NC2 5077  10.414  -6.157  30.222  0.0928  0.2094 -0.3488
  212BOLB   PO2 5078  10.345  -5.735  30.151  0.3166  0.0676  0.2277
  212BOLB   GL3 5079  10.723  -5.740  29.894  0.1355 -0.2779  0.1047
  212BOLB   GL4 5080  10.707  -5.446  30.044  0.1054 -0.0040  0.0782
  212BOLB   C1C 5081  10.877  -5.455  29.564  0.0007 -0.0537  0.1742
  212BOLB   C2C 5082  11.038  -5.154  29.383 -0.0110  0.0587  0.1353
  212BOLB   C3C 5083  11.219  -4.667  29.371 -0.4766  0.0493 -0.0507
  212BOLB   C4C 5084  11.050  -4.265  29.505 -0.1817  0.0957 -0.0364
  212BOLB   C1D 5085  10.779  -5.040  29.828 -0.0216 -0.0111 -0.0047
  212BOLB   C2D 5086  10.786  -4.710  29.632  0.2077 -0.0894 -0.2038
  212BOLB   C3D 5087  10.614  -4.460  29.334 -0.3629 -0.2270  0.0228
  212BOLB   C4D 5088  10.232  -4.312  29.244 -0.4826 -0.1008  0.2446
  213BOLB   NC1 5089  24.630   2.890  27.846  0.1116  0.2751  0.2466
  213BOLB   PO1 5090  24.549   3.017  28.198 -0.1754  0.3815  0.1085
  213BOLB   GL1 5091  24.991   2.735  28.311 -0.0574  0.0088 -0.1095
  213BOLB   GL2 5092  24.983   2.508  28.018 -0.3515  0.1552  0.2532
  213BOLB   C1A 5093  25.299   2.666  28.463 -0.2959  0.2045  0.2037
  213BOLB   C2A 5094  25.742   2.465  28.480  0.1760  0.1568 -0.1566
  213BOLB   C3A 5095  25.972   2.138  28.664  0.2982  0.0827  0.1414
  213BOLB   C4A 5096  26.254   1.923  28.810  0.0447 -0.0199 -0.3883
  213BOLB   C1B 5097  25.472   2.502  28.015  0.0997  0.0403 -0.0370
  213BOLB   C2B 5098  25.916   2.374  27.865 -0.1889  0.0269 -0.2945
  213BOLB   C3B 5099  26.174   2.138  28.219 -0.1494 -0.0895  0.0400
  213BOLB   C4B 5100  26.291   2.496  28.486  0.2716  0.2745 -0.2833
  213BOLB   NC2 5101  28.066   0.852  30.443  0.3117 -0.0090  0.0567
  213BOLB   PO2 5102  27.924   1.329  30.629  0.2429  0.1504  0.0014
  213BOLB   GL3 5103  27.500   1.424  30.508 -0.1116 -0.0277  0.3145
  213BOLB   GL4 5104  27.264   1.717  30.756 -0.1645 -0.3753  0.0927
  213BOLB   C1C 5105  27.034   1.424  30.211 -0.0420  0.1534 -0.0220
  213BOLB   C2C 5106  26.728   1.483  29.921  0.2433 -0.0656  0.3976
  213BOLB   C3C 5107  26.563   1.695  29.561 -0.1179  0.1062  0.2030
  213BOLB   C4C 5108  26.394   1.866  29.296  0.0084 -0.2074 -0.1845
  213BOLB   C1D 5109  26.693   1.723  30.820 -0.0257 -0.0936 -0.2825
  213BOLB   C2D 5110  26.502   2.054  30.638 -0.2769 -0.0898 -0.1147
  213BOLB   C3D 5111  26.182   2.279  30.557  0.2761  0.1695  0.2253
  213BOLB   C4D 5112  25.937   2.659  30.531 -0.0721  0.3970 -0.1059
  214BOLB   NC1 5113  19.156  -3.592  22.394 -0.0851  0.1535  0.1920
  214BOLB   PO1 5114  19.399  -3.533  21.961  0.1735 -0.0490 -0.2698
  214BOLB   GL1 5115  19.717  -3.833  21.880 -0.2610 -0.0174 -0.0281
  214BOLB   GL2 5116  20.041  -3.869  21.974 -0.2884 -0.3494  0.1999
  214BOLB   C1A 5117  19.736  -4.304  21.814 -0.2417  0.0051  0.0075
  214BOLB   C2A 5118  19.880  -4.642  21.500  0.2250 -0.0251 -0.2712
  214BOLB   C3A 5119  20.061  -4.999  21.156  0.0728  0.0886 -0.0334
  214BOLB   C4A 5120  20.374  -5.296  21.270  0.3327  0.1324  0.2183
  214BOLB   C1B 5121  20.211  -4.174  21.754 -0.0696  0.4007 -0.2188
  214BOLB   C2B 5122  20.294  -4.417  21.324 -0.0058 -0.0956 -0.1283
  214BOLB   C3B 5123  20.635  -4.799  21.270 -0.0888  0.2364  0.0429
  214BOLB   C4B 5124  20.528  -5.040  20.807 -0.0420 -0.1421 -0.0596
  214BOLB   NC2 5125  21.425  -7.387  21.229 -0.1422  0.0712  0.2641
  214BOLB   PO2 5126  21.034  -7.697  21.174  0.0078  0.0286  0.0340
  214BOLB   GL3 5127  20.883  -7.279  21.273  0.0442 -0.2762 -0.0890
  214BOLB   GL4 5128  21.016  -7.086  20.993 -0.1751  0.1073  0.0336
  214BOLB   C1C 5129  20.485  -7.131  21.343  0.5155 -0.0463  0.4207
  214BOLB   C2C 5130  20.404  -6.687  21.368  0.1757  0.3427 -0.0341
  214BOLB   C3C 5131  20.320  -6.227  21.351  0.2915 -0.1360  0.0016
  214BOLB   C4C 5132  20.389  -5.684  21.472 -0.0477  0.0869 -0.1511
  214BOLB   C1D 5133  20.863  -6.790  20.563  0.1549  0.1004  0.0322
  214BOLB   C2D 5134  20.645  -6.442  20.559  0.1394 -0.2441  0.0164
  214BOLB   C3D 5135  20.328  -6.302  20.776 -0.1842 -0.0626 -0.0742
  214BOLB   C4D 5136  20.167  -5.883  20.955  0.0221  0.0683  0.2584
  215BOLB   NC1 5137   9.303   9.001  29.711  0.2985  0.1906 -0.0756
  215BOLB   PO1 5138   9.553   8.927  29.989  0.1405 -0.1670  0.2173
  215BOLB   GL1 5139   9.081   8.864  30.189  0.0217 -0.0008  0.0577
  215BOLB   GL2 5140   8.964   8.625  30.382  0.0669 -0.5561  0.0485
  215BOLB   C1A 5141   9.037   9.066  30.522  0.1454 -0.1536 -0.1578
  215BOLB   C2A 5142   8.921   9.334  30.872 -0.0154  0.1227 -0.0432
  215BOLB   C3A 5143   8.770   9.618  31.219 -0.4833 -0.3024  0.1991
  215BOLB   C4A 5144   8.602   9.935  31.274 -0.0417  0.2197 -0.1460
  215BOLB   C1B 5145   8.632   8.811  30.386 -0.3519 -0.2511 -0.2192
  215BOLB   C2B 5146   8.238   8.936  30.401 -0.0306  0.1882 -0.0853
  215BOLB   C3B 5147   7.963   8.904  30.793 -0.1982  0.0063  0.4360
  215BOLB   C4B 5148   7.485   8.877  30.885  0.2089 -0.0845  0.0928
  215BOLB   NC2 5149   7.798  12.626  32.064 -0.0923  0.2429  0.0201
  215BOLB   PO2 5150   7.954  12.161  32.130  0.1589  0.1245  0.0849
  215BOLB   GL3 5151   8.200  11.787  32.044  0.0179 -0.0075 -0.0283
  215BOLB   GL4 5152   8.458  11.995  31.941 -0.2425  0.1480  0.0420
  215BOLB   C1C 5153   8.151  11.423  31.928 -0.0383 -0.1799 -0.0857
  215BOLB   C2C 5154   8.121  10.987  31.657  0.4125  0.0005 -0.0353
  215BOLB   C3C 5155   8.256  10.578  31.556  0.0918 -0.0651  0.0171
  215BOLB   C4C 5156   8.379  10.206  31.575  0.0924 -0.1697 -0.0519
  215BOLB   C1D 5157   8.946  12.008  31.984  0.2735  0.0136  0.0151
  215BOLB   C2D 5158   9.300  11.900  32.183 -0.0539  0.0435  0.1495
  215BOLB   C3D 5159   9.601  11.566  32.082 -0.0689 -0.1352  0.4760
  215BOLB   C4D 5160   9.923  11.344  31.835 -0.4942  0.1036 -0.2572
  216BOLB   NC1 5161  17.055  -3.234  28.289  0.2590 -0.5688 -0.1426
  216BOLB   PO1 5162  17.345  -3.381  28.489  0.0513  0.0976  0.0329
  216BOLB   GL1 5163  17.673  -3.421  28.727  0.0310 -0.0660  0.0339
  216BOLB   GL2 5164  17.653  -3.749  28.773 -0.2179  0.0679  0.1468
  216BOLB   C1A 5165  17.937  -3.484  29.093 -0.3038 -0.0629 -0.0821
  216BOLB   C2A 5166  18.068  -3.915  29.095  0.0605 -0.1795 -0.1717
  216BOLB   C3A 5167  18.349  -4.154  28.970 -0.0573 -0.0425  0.1126
  216BOLB   C4A 5168  18.542  -4.495  29.087 -0.2047 -0.2168 -0.1832
  216BOLB   C1B 5169  17.319  -3.947  28.781 -0.0310 -0.0934  0.1995
  216BOLB   C2B 5170  17.191  -4.357  29.043  0.2184  0.1936  0.1994
  216BOLB   C3B 5171  17.134  -4.732  29.224  0.1147  0.2994  0.1489
  216BOLB   C4B 5172  16.863  -5.026  29.402  0.2336 -0.0982  0.1799
  216BOLB   NC2 5173  19.990  -6.827  29.444 -0.0294 -0.2708  0.2544
  216BOLB   PO2 5174  20.106  -6.506  29.453  0.4277 -0.1607 -0.0197
  216BOLB   GL3 5175  19.834  -6.267  29.305  0.0688  0.3757 -0.1243
  216BOLB   GL4 5176  19.823  -5.990  29.032  0.1099 -0.0776 -0.1438
  216BOLB   C1C 5177  19.338  -6.052  29.260  0.0066  0.2476  0.7053
  216BOLB   C2C 5178  19.030  -5.692  29.180  0.1325  0.2785 -0.1545
  216BOLB   C3C 5179  19.013  -5.209  29.402  0.3106  0.0720 -0.0355
  216BOLB   C4C 5180  18.712  -4.871  29.236 -0.0458 -0.0450  0.2106
  216BOLB   C1D 5181  19.865  -5.525  28.981  0.0178 -0.1717  0.1114
  216BOLB   C2D 5182  19.690  -5.180  28.806 -0.0030  0.0145  0.1185
  216BOLB   C3D 5183  19.585  -4.901  28.359 -0.0234 -0.0717  0.2095
  216BOLB   C4D 5184  19.481  -4.802  27.985  0.1341 -0.1642 -0.3913
  217BOLB   NC1 5185  17.376  10.803  30.823  0.3936 -0.1892  0.0344
  217BOLB   PO1 5186  17.798  10.489  30.904 -0.1323 -0.0691 -0.0343
  217BOLB   GL1 5187  17.909  10.788  31.187 -0.1820 -0.2632  0.1745
  217BOLB   GL2 5188  17.682  10.907  31.344 -0.1093 -0.1178 -0.0888
  217BOLB   C1A 5189  18.172  10.949  31.563  0.1484 -0.2066  0.3684
  217BOLB   C2A 5190  18.202  11.350  31.860  0.0603  0.1184  0.1176
  217BOLB   C3A 5191  18.168  11.761  31.858 -0.3383  0.1876  0.1135
  217BOLB   C4A 5192  17.824  12.064  32.090 -0.0364  0.2808 -0.0177
  217BOLB   C1B 5193  17.734  11.286  31.599 -0.4062 -0.3744  0.3770
  217BOLB   C2B 5194  17.666  11.540  31.908  0.1008 -0.2926  0.0122
  217BOLB   C3B 5195  17.432  11.845  31.810  0.1782 -0.1423 -0.3333
  217BOLB   C4B 5196  17.359  12.247  31.855  0.0778  0.0177 -0.1444
  217BOLB   NC2 5197  18.686  13.146  33.848 -0.3182  0.1284  0.1758
  217BOLB   PO2 5198  18.491  13.406  33.649 -0.0984  0.0363  0.1774
  217BOLB   GL3 5199  18.199  13.305  33.392 -0.2328 -0.1600 -0.0871
  217BOLB   GL4 5200  18.265  13.389  33.136  0.1535 -0.0165  0.0612
  217BOLB   C1C 5201  17.879  13.016  33.256 -0.0071  0.2254 -0.0200
  217BOLB   C2C 5202  17.594  12.859  32.984 -0.1159  0.3555  0.1945
  217BOLB   C3C 5203  17.585  12.440  32.799  0.1760  0.1007 -0.2474
  217BOLB   C4C 5204  17.566  12.317  32.354 -0.0401 -0.0223  0.1446
  217BOLB   C1D 5205  18.262  13.227  32.700  0.3574  0.2329 -0.0928
  217BOLB   C2D 5206  18.201  13.118  32.254  0.2633 -0.0140  0.1032
  217BOLB   C3D 5207  18.006  13.321  31.871  0.2257  0.2881 -0.3058
  217BOLB   C4D 5208  17.923  13.668  31.538 -0.1094  0.2447  0.2488
  218BOLB   NC1 5209  16.669  11.978  23.448  0.2359  0.1876  0.0040
  218BOLB   PO1 5210  16.265  11.869  23.638 -0.0903 -0.1142  0.0603
  218BOLB   GL1 5211  15.930  12.213  23.635  0.2998 -0.3390  0.0818
  218BOLB   GL2 5212  16.001  12.494  23.827  0.0444  0.2979  0.1191
  218BOLB   C1A 5213  15.666  12.646  23.469 -0.1422  0.0479  0.2882
  218BOLB   C2A 5214  15.613  12.845  23.102  0.1421 -0.1919  0.2821
  218BOLB   C3A 5215  15.541  13.142  22.836 -0.0854  0.3164 -0.0988
  218BOLB   C4A 5216  15.478  13.472  22.582 -0.0532 -0.0723 -0.1129
  218BOLB   C1B 5217  16.034  12.971  23.802  0.0547  0.3738 -0.0358
  218BOLB   C2B 5218  15.891  13.268  23.981  0.0078  0.0327  0.1892
  218BOLB   C3B 5219  15.652  13.574  24.089 -0.0243  0.0401 -0.1015
  218BOLB   C4B 5220  15.951  14.006  24.193  0.1445  0.2630  0.2589
  218BOLB   NC2 5221  14.559  15.186  21.801 -0.1482 -0.4693 -0.0953
  218BOLB   PO2 5222  14.928  15.342  21.762 -0.5130 -0.3517  0.1382
  218BOLB   GL3 5223  14.934  14.925  21.687 -0.1058  0.0775 -0.0764
  218BOLB   GL4 5224  15.227  14.787  21.817  0.0904  0.2060 -0.0352
  218BOLB   C1C 5225  14.814  14.545  21.797  0.1379 -0.1413  0.1391
  218BOLB   C2C 5226  15.098  14.237  21.837  0.2919 -0.1249 -0.1248
  218BOLB   C3C 5227  15.374  13.994  22.023  0.1805 -0.1671 -0.4113
  218BOLB   C4C 5228  15.379  13.642  22.187 -0.1740  0.0579  0.0130
  218BOLB   C1D 5229  15.557  14.432  21.894  0.2849 -0.1251 -0.1316
  218BOLB   C2D 5230  15.859  14.041  21.832  0.2259  0.4843  0.2214
  218BOLB   C3D 5231  15.864  13.732  22.076 -0.1223  0.0675 -0.3766
  218BOLB   C4D 5232  15.964  13.267  22.214  0.3125  0.2091  0.3540
  219BOLB   NC1 5233  16.506   1.418  33.151  0.0834 -0.3675 -0.1123
  219BOLB   PO1 5234  16.775   1.193  32.862 -0.0385 -0.1763  0.2909
  219BOLB   GL1 5235  16.853   1.040  33.183 -0.1631 -0.1053  0.1521
  219BOLB   GL2 5236  16.984   1.192  33.417 -0.0303  0.0410  0.0480
  219BOLB   C1A 5237  16.736   0.745  33.407 -0.0577 -0.1860  0.1914
  219BOLB   C2A 5238  16.718   0.490  33.667 -0.1488  0.1970 -0.2979
  219BOLB   C3A 5239  16.897   0.309  34.090  0.0522  0.2675  0.0042
  219BOLB   C4A 5240  16.710  -0.002  34.309 -0.1302  0.1925 -0.1799
  219BOLB   C1B 5241  16.830   1.318  33.781 -0.0372  0.1214  0.0658
  219BOLB   C2B 5242  16.660   1.408  34.331  0.1558  0.0960 -0.2005
  219BOLB   C3B 5243  16.457   1.181  34.650  0.0945 -0.1112 -0.2343
  219BOLB   C4B 5244  16.212   1.147  35.052 -0.1164  0.0239 -0.0233
  219BOLB   NC2 5245  16.923  -1.102  36.074 -0.1322 -0.0652 -0.1822
  219BOLB   PO2 5246  16.541  -1.055  36.362  0.1187 -0.3194 -0.1721
  219BOLB   GL3 5247  16.591  -0.740  35.937 -0.2849 -0.4894  0.2081
  219BOLB   GL4 5248  16.795  -0.522  36.057 -0.0326  0.0969  0.1741
  219BOLB   C1C 5249  16.728  -0.556  35.491 -0.0550 -0.1678  0.1898
  219BOLB   C2C 5250  16.533  -0.363  35.180  0.2517 -0.1797  0.2126
  219BOLB   C3C 5251  16.285  -0.290  34.775 -0.2935 -0.0658  0.0221
  219BOLB   C4C 5252  16.503  -0.255  34.410 -0.1133 -0.2253  0.0478
  219BOLB   C1D 5253  16.532  -0.267  35.788 -0.2332  0.0613  0.1641
  219BOLB   C2D 5254  16.271  -0.182  35.583 -0.2348 -0.0257  0.0206
  219BOLB   C3D 5255  16.034  -0.024  35.383  0.3567  0.0589  0.2845
  219BOLB   C4D 5256  15.832  -0.028  34.989 -0.1538 -0.0883  0.4355
  220BOLB   NC1 5257  15.647  -2.065  11.660 -0.4299  0.3504 -0.0371
  220BOLB   PO1 5258  15.729  -1.768  11.457  0.0399 -0.1344  0.3056
  220BOLB   GL1 5259  16.047  -1.742  11.687 -0.0274 -0.1424  0.0899
  220BOLB   GL2 5260  15.993  -1.906  11.967 -0.0430  0.0950  0.1025
  220BOLB   C1A 5261  16.369  -1.479  11.831 -0.1160 -0.0068 -0.1408
  220BOLB   C2A 5262  16.774  -1.651  11.876  0.0142  0.2640  0.0062
  220BOLB   C3A 5263  17.150  -1.599  12.083  0.1246  0.0265 -0.1899
  220BOLB   C4A 5264  17.583  -1.679  12.243  0.1068 -0.1905  0.1042
  220BOLB   C1B 5265  16.240  -2.260  11.992 -0.0718  0.0830  0.1768
  220BOLB   C2B 5266  16.523  -2.353  12.295 -0.3041  0.0163  0.0270
  220BOLB   C3B 5267  16.721  -2.408  12.546  0.0323 -0.2662 -0.3415
  220BOLB   C4B 5268  17.086  -2.589  12.824 -0.0007 -0.0850  0.1222
  220BOLB   NC2 5269  17.344  -1.828   9.783  0.3329 -0.0807 -0.1355
  220BOLB   PO2 5270  17.776  -1.956  10.017  0.0205  0.1065 -0.0490
  220BOLB   GL3 5271  17.661  -1.893  10.435  0.0709 -0.1726 -0.4871
  220BOLB   GL4 5272  17.738  -1.635  10.754 -0.1448  0.0004 -0.1193
  220BOLB   C1C 5273  17.396  -2.317  10.816  0.1231  0.0094 -0.1857
  220BOLB   C2C 5274  17.542  -2.376  11.277  0.0940  0.2307  0.3136
  220BOLB   C3C 5275  17.570  -2.286  11.662  0.2354  0.1286  0.1141
  220BOLB   C4C 5276  17.677  -2.086  12.033  0.0936  0.1677 -0.0252
  220BOLB   C1D 5277  17.683  -1.940  11.066 -0.3073  0.0742  0.0302
  220BOLB   C2D 5278  17.331  -1.944  11.323 -0.4681 -0.0303  0.1578
  220BOLB   C3D 5279  17.168  -1.992  11.741  0.0274  0.0319 -0.1636
  220BOLB   C4D 5280  16.822  -2.177  11.930  0.2966 -0.0404 -0.2932
  221BOLB   NC1 5281  18.902   1.912  32.450  0.1824 -0.3865 -0.1298
  221BOLB   PO1 5282  18.522   2.097  32.627  0.0270 -0.2442 -0.1245
  221BOLB   GL1 5283  18.564   1.786  33.013 -0.0626  0.0982 -0.0160
  221BOLB   GL2 5284  18.438   1.453  32.951 -0.3091  0.0279 -0.1433
  221BOLB   C1A 5285  18.567   1.659  33.461  0.1618  0.0735  0.1021
  221BOLB   C2A 5286  18.560   1.644  33.945  0.1640 -0.0386  0.2712
  221BOLB   C3A 5287  18.407   1.494  34.343  0.1529  0.0284  0.1301
  221BOLB   C4A 5288  18.313   1.575  34.703  0.2181 -0.1068  0.1443
  221BOLB   C1B 5289  18.484   1.188  33.305 -0.0858 -0.0242  0.1982
  221BOLB   C2B 5290  18.548   1.211  33.710 -0.1068  0.1987  0.0125
  221BOLB   C3B 5291  18.545   1.061  34.082 -0.3665  0.1077 -0.1883
  221BOLB   C4B 5292  18.199   1.054  34.399 -0.2041  0.1260 -0.0568
  221BOLB   NC2 5293  18.478   0.266  36.702 -0.0852 -0.2456 -0.0958
  221BOLB   PO2 5294  18.908   0.365  36.942 -0.1166  0.0945  0.0561
  221BOLB   GL3 5295  18.845   0.466  36.497 -0.0155 -0.2650 -0.0858
  221BOLB   GL4 5296  18.895   0.233  36.430 -0.0620 -0.2798 -0.4321
  221BOLB   C1C 5297  18.805   0.744  36.114  0.0327  0.1353  0.0204
  221BOLB   C2C 5298  18.725   1.024  35.800 -0.1578  0.0978 -0.0544
  221BOLB   C3C 5299  18.548   1.331  35.450  0.2282 -0.2387 -0.0456
  221BOLB   C4C 5300  18.347   1.529  35.041  0.2845  0.0447 -0.0092
  221BOLB   C1D 5301  18.744   0.248  35.994 -0.0623 -0.1526  0.2350
  221BOLB   C2D 5302  18.429   0.224  35.563 -0.2078  0.1261  0.0027
  221BOLB   C3D 5303  18.391   0.036  35.107 -0.2811 -0.2615 -0.0358
  221BOLB   C4D 5304  18.738   0.119  34.776 -0.1084  0.1354  0.2859
  222BOLB   NC1 5305  22.549   5.548  19.565  0.0757  0.1506  0.2067
  222BOLB   PO1 5306  22.470   5.853  19.931 -0.1198 -0.1150 -0.0266
  222BOLB   GL1 5307  22.909   6.014  19.719  0.3476 -0.1754  0.0216
  222BOLB   GL2 5308  23.275   6.015  19.913  0.2207  0.0525  0.2856
  222BOLB   C1A 5309  22.862   6.401  19.492 -0.1306 -0.0277  0.2171
  222BOLB   C2A 5310  23.153   6.714  19.354 -0.0489  0.3152  0.1995
  222BOLB   C3A 5311  23.651   6.675  19.128 -0.0050 -0.1125 -0.2988
  222BOLB   C4A 5312  24.057   6.464  18.951  0.1615  0.1713  0.0639
  222BOLB   C1B 5313  23.304   6.181  19.443 -0.1710  0.2447  0.0426
  222BOLB   C2B 5314  23.405   6.272  18.993 -0.0044  0.0415  0.1475
  222BOLB   C3B 5315  23.464   6.035  18.613 -0.0290 -0.0226 -0.0166
  222BOLB   C4B 5316  23.489   6.140  18.129 -0.2126 -0.1666 -0.1912
  222BOLB   NC2 5317  25.248   6.538  16.883  0.0616 -0.0210  0.2768
  222BOLB   PO2 5318  25.557   6.702  17.175 -0.0085 -0.0537 -0.2002
  222BOLB   GL3 5319  25.302   6.390  17.499 -0.3036  0.2355  0.2040
  222BOLB   GL4 5320  25.255   5.967  17.366 -0.2486 -0.2004 -0.0243
  222BOLB   C1C 5321  25.058   6.267  17.727  0.0368  0.1043  0.0376
  222BOLB   C2C 5322  24.888   6.118  18.059 -0.2579 -0.1612  0.3955
  222BOLB   C3C 5323  24.663   6.306  18.352 -0.1250  0.1859 -0.4085
  222BOLB   C4C 5324  24.285   6.227  18.660 -0.0014  0.2007 -0.0307
  222BOLB   C1D 5325  24.750   5.938  17.445  0.0276 -0.4175 -0.0195
  222BOLB   C2D 5326  24.381   5.942  17.536  0.1449 -0.4088 -0.0677
  222BOLB   C3D 5327  24.190   5.793  17.096 -0.0830 -0.5901 -0.0492
  222BOLB   C4D 5328  24.280   5.936  16.653 -0.0465  0.3724 -0.0377
  223BOLB   NC1 5329  13.264  -4.346  20.893 -0.2470 -0.2693 -0.1487
  223BOLB   PO1 5330  13.012  -4.131  20.573  0.0674  0.1302 -0.0179
  223BOLB   GL1 5331  13.064  -4.506  20.431 -0.0758  0.1951  0.0074
  223BOLB   GL2 5332  12.963  -4.700  20.714  0.0938  0.0499 -0.0985
  223BOLB   C1A 5333  12.936  -4.792  20.211  0.4775  0.4561  0.4702
  223BOLB   C2A 5334  12.883  -4.815  19.742 -0.0750  0.0774 -0.0907
  223BOLB   C3A 5335  12.897  -5.273  19.578 -0.1968 -0.0755 -0.0193
  223BOLB   C4A 5336  12.539  -5.458  19.567  0.1482 -0.1419  0.2280
  223BOLB   C1B 5337  12.528  -4.670  20.486  0.0456 -0.4099  0.4522
  223BOLB   C2B 5338  12.448  -4.760  20.070 -0.0479 -0.1544  0.3139
  223BOLB   C3B 5339  12.458  -4.956  19.633  0.1000 -0.2099  0.0319
  223BOLB   C4B 5340  12.487  -5.063  19.182  0.0553  0.1386  0.0844
  223BOLB   NC2 5341  12.265  -8.050  18.334 -0.0594  0.0682 -0.2832
  223BOLB   PO2 5342  12.225  -7.647  18.761 -0.0254  0.0003 -0.2753
  223BOLB   GL3 5343  12.213  -7.161  19.018  0.1063 -0.2221  0.0992
  223BOLB   GL4 5344  12.031  -6.824  19.019 -0.3118 -0.1508 -0.2994
  223BOLB   C1C 5345  12.474  -6.814  19.226 -0.0488 -0.5231  0.1894
  223BOLB   C2C 5346  12.587  -6.649  19.545 -0.0892 -0.3814  0.2559
  223BOLB   C3C 5347  12.559  -6.338  19.819 -0.0400  0.1768  0.0898
  223BOLB   C4C 5348  12.531  -5.805  19.884  0.1024  0.2009 -0.1972
  223BOLB   C1D 5349  12.020  -6.668  19.389 -0.0766 -0.1021  0.3380
  223BOLB   C2D 5350  12.066  -6.375  19.545 -0.1326  0.1795  0.0103
  223BOLB   C3D 5351  12.048  -5.898  19.617 -0.0995 -0.2336 -0.2783
  223BOLB   C4D 5352  12.041  -5.457  19.697 -0.1163 -0.1565 -0.1603
  224BOLB   NC1 5353  11.171   6.821  19.627  0.1586 -0.0884 -0.0540
  224BOLB   PO1 5354  11.602   6.593  19.508  0.0171  0.1765  0.3058
  224BOLB   GL1 5355  11.536   6.680  19.167  0.2910 -0.0661 -0.1304
  224BOLB   GL2 5356  11.746   6.960  18.950  0.1207  0.1288 -0.0055
  224BOLB   C1A 5357  11.275   6.848  18.823 -0.0001  0.2111  0.2728
  224BOLB   C2A 5358  10.903   6.718  18.554 -0.3201  0.1507 -0.7708
  224BOLB   C3A 5359  10.620   6.808  18.279 -0.0085 -0.2108  0.1538
  224BOLB   C4A 5360  10.169   6.609  18.119  0.0693  0.1427 -0.0567
  224BOLB   C1B 5361  11.715   7.071  18.479  0.0778  0.1677 -0.2587
  224BOLB   C2B 5362  11.666   7.206  18.067 -0.1450 -0.4770  0.0608
  224BOLB   C3B 5363  11.354   7.217  17.740 -0.1013 -0.0603 -0.1142
  224BOLB   C4B 5364  11.153   7.492  17.551  0.0800 -0.0682 -0.1138
  224BOLB   NC2 5365   8.651   7.742  16.218  0.0155 -0.0792  0.0582
  224BOLB   PO2 5366   8.975   7.584  15.956  0.1414 -0.0228 -0.0207
  224BOLB   GL3 5367   9.107   7.411  16.490  0.1442  0.1636  0.1643
  224BOLB   GL4 5368   9.088   7.693  16.537 -0.3752 -0.1010  0.2215
  224BOLB   C1C 5369   9.461   7.260  16.659  0.1447  0.1641  0.2611
  224BOLB   C2C 5370   9.602   7.389  17.063  0.1001 -0.1345 -0.0597
  224BOLB   C3C 5371   9.765   7.065  17.472 -0.1458  0.1614 -0.0296
  224BOLB   C4C 5372  10.016   6.802  17.729  0.0032  0.1213  0.2666
  224BOLB   C1D 5373   9.146   7.605  16.913 -0.0760 -0.2310 -0.2574
  224BOLB   C2D 5374   9.031   7.330  17.280  0.1005  0.2066 -0.2492
  224BOLB   C3D 5375   9.300   7.157  17.692  0.2444  0.1952  0.1658
  224BOLB   C4D 5376   9.549   6.843  17.855 -0.4280 -0.1528 -0.2280
  225BOLB   NC1 5377  18.944   4.928  16.597  0.1831  0.0519  0.1202
  225BOLB   PO1 5378  19.145   4.620  16.519 -0.0191 -0.1749  0.2639
  225BOLB   GL1 5379  19.382   4.865  16.266  0.3649  0.1086 -0.1991
  225BOLB   GL2 5380  19.179   5.120  16.173  0.2198  0.1169  0.3209
  225BOLB   C1A 5381  19.648   5.256  16.299  0.1425  0.1232 -0.1573
  225BOLB   C2A 5382  19.621   5.595  15.982 -0.0907 -0.2519 -0.1234
  225BOLB   C3A 5383  19.928   5.747  15.613  0.1521 -0.0273 -0.1151
  225BOLB   C4A 5384  20.031   5.707  15.219  0.1373  0.1066 -0.0794
  225BOLB   C1B 5385  19.108   5.401  15.880 -0.0415  0.0956 -0.2858
  225BOLB   C2B 5386  19.087   5.200  15.379 -0.0077 -0.1863  0.3891
  225BOLB   C3B 5387  19.346   5.397  15.011  0.1774  0.1597  0.3487
  225BOLB   C4B 5388  19.704   5.333  14.785 -0.3775 -0.0789  0.0205
  225BOLB   NC2 5389  21.714   6.120  13.598  0.0897 -0.1698  0.0363
  225BOLB   PO2 5390  21.346   6.137  13.435 -0.0457 -0.3430 -0.3316
  225BOLB   GL3 5391  21.225   6.187  13.759  0.1436  0.2007 -0.3005
  225BOLB   GL4 5392  21.030   6.492  13.707  0.1108 -0.1512 -0.2044
  225BOLB   C1C 5393  21.060   6.030  14.113  0.1096  0.0863  0.0454
  225BOLB   C2C 5394  20.903   6.071  14.540 -0.0781 -0.0747  0.2673
  225BOLB   C3C 5395  20.672   5.807  14.796 -0.2200 -0.4614 -0.0917
  225BOLB   C4C 5396  20.441   5.871  15.039  0.2119  0.0030 -0.0021
  225BOLB   C1D 5397  20.658   6.188  13.789  0.1027 -0.3459 -0.0829
  225BOLB   C2D 5398  20.505   5.953  14.011  0.2583  0.0736 -0.2026
  225BOLB   C3D 5399  20.456   5.651  14.277 -0.2541 -0.0426  0.2511
  225BOLB   C4D 5400  20.202   5.258  14.361  0.0719  0.3046  0.0770
  226BOLB   NC1 5401  18.169  -3.510  25.249  0.1967 -0.2077  0.2291
  226BOLB   PO1 5402  18.094  -3.974  25.423 -0.2058  0.0500  0.1308
  226BOLB   GL1 5403  18.048  -4.371  25.571 -0.1598  0.0824 -0.0064
  226BOLB   GL2 5404  17.789  -4.532  25.527 -0.0325 -0.1304  0.1843
  226BOLB   C1A 5405  17.952  -4.762  25.912 -0.0856  0.2706  0.0942
  226BOLB   C2A 5406  17.903  -5.149  26.005  0.0568 -0.1465  0.1989
  226BOLB   C3A 5407  17.825  -5.639  26.018  0.1642  0.0287  0.2021
  226BOLB   C4A 5408  18.018  -6.021  26.046  0.2494 -0.0059 -0.0368
  226BOLB   C1B 5409  17.500  -4.897  25.549 -0.1176  0.2166  0.0115
  226BOLB   C2B 5410  17.653  -5.346  25.536  0.1654  0.0120  0.0864
  226BOLB   C3B 5411  17.586  -5.729  25.557  0.0030  0.2607  0.2538
  226BOLB   C4B 5412  17.802  -6.126  25.636 -0.0591 -0.3438  0.3487
  226BOLB   NC2 5413  19.181  -8.162  26.349 -0.0414 -0.1102  0.1618
  226BOLB   PO2 5414  18.948  -8.026  26.644  0.1220 -0.1786 -0.0031
  226BOLB   GL3 5415  18.793  -7.697  26.493 -0.1209  0.0294  0.1449
  226BOLB   GL4 5416  18.643  -7.619  26.661  0.0231 -0.1967 -0.4681
  226BOLB   C1C 5417  18.746  -7.425  26.175 -0.0351 -0.0559 -0.0351
  226BOLB   C2C 5418  18.398  -7.211  26.001 -0.0725  0.1004 -0.0630
  226BOLB   C3C 5419  18.172  -6.849  25.945  0.4167 -0.0691  0.0522
  226BOLB   C4C 5420  18.130  -6.427  25.985 -0.0791 -0.2186 -0.2231
  226BOLB   C1D 5421  18.280  -7.403  26.601 -0.0732  0.0738  0.3340
  226BOLB   C2D 5422  18.122  -7.009  26.489 -0.0075  0.1457  0.3865
  226BOLB   C3D 5423  17.764  -6.861  26.296  0.1147 -0.2398  0.1730
  226BOLB   C4D 5424  17.376  -6.688  26.351  0.3230  0.3987  0.0931
  227BOLB   NC1 5425   8.158   7.852  24.165  0.0632 -0.2871 -0.0945
  227BOLB   PO1 5426   7.997   7.973  23.728 -0.1304  0.1138  0.0806
  227BOLB   GL1 5427   7.606   8.130  23.915 -0.1726 -0.1990 -0.0146
  227BOLB   GL2 5428   7.746   8.194  24.191  0.3178 -0.1403  0.1095
  227BOLB   C1A 5429   7.249   8.424  23.890 -0.0839 -0.2583  0.1700
  227BOLB   C2A 5430   6.844   8.707  23.911  0.0532 -0.1733  0.3428
  227BOLB   C3A 5431   6.393   8.851  23.909  0.1757 -0.2827  0.4629
  227BOLB   C4A 5432   5.992   8.596  23.908 -0.1944 -0.0631 -0.3087
  227BOLB   C1B 5433   7.354   8.145  24.408 -0.0552 -0.0664 -0.1772
  227BOLB   C2B 5434   6.999   8.241  24.632 -0.1329 -0.1494  0.2637
  227BOLB   C3B 5435   6.615   8.440  24.748  0.1046  0.2968 -0.0218
  227BOLB   C4B 5436   6.196   8.410  24.820  0.0724 -0.0983  0.1590
  227BOLB   NC2 5437   3.467   8.763  24.911  0.2124 -0.1764  0.1584
  227BOLB   PO2 5438   3.734   8.922  24.807 -0.1041  0.1152  0.1197
  227BOLB   GL3 5439   4.124   8.952  24.645  0.2109  0.0782  0.2113
  227BOLB   GL4 5440   4.183   8.784  24.326 -0.0320 -0.0861 -0.2402
  227BOLB   C1C 5441   4.566   8.887  24.720  0.0898 -0.3865 -0.0668
  227BOLB   C2C 5442   4.897   8.680  24.684  0.6481 -0.1954 -0.0540
  227BOLB   C3C 5443   5.222   8.649  24.315  0.3103 -0.2226 -0.2761
  227BOLB   C4C 5444   5.651   8.541  24.153 -0.0425  0.1153  0.1160
  227BOLB   C1D 5445   4.629   8.769  24.184 -0.2348  0.0351  0.0406
  227BOLB   C2D 5446   4.958   8.686  23.883 -0.1340 -0.2559 -0.1374
  227BOLB   C3D 5447   5.221   8.344  23.929  0.2724  0.0643  0.1462
  227BOLB   C4D 5448   5.425   8.052  24.180  0.1139 -0.4636  0.1433
  228BOLB   NC1 5449  24.100   4.675  28.840  0.4385  0.0825  0.4582
  228BOLB   PO1 5450  24.544   4.615  28.716 -0.2489  0.3121 -0.1003
  228BOLB   GL1 5451  24.852   4.433  28.884  0.0634 -0.0846  0.1520
  228BOLB   GL2 5452  24.996   4.123  28.910 -0.1513 -0.0822 -0.0790
  228BOLB   C1A 5453  25.083   4.355  29.331  0.2863 -0.0567 -0.1669
  228BOLB   C2A 5454  25.446   4.383  29.649 -0.0467 -0.0257  0.0341
  228BOLB   C3A 5455  25.847   4.419  29.813 -0.0253  0.2880 -0.3232
  228BOLB   C4A 5456  26.102   4.575  30.129 -0.1256 -0.3488  0.2107
  228BOLB   C1B 5457  25.407   4.231  28.973  0.0974 -0.1025  0.0261
  228BOLB   C2B 5458  25.712   4.329  29.258 -0.1048 -0.0503 -0.1686
  228BOLB   C3B 5459  26.137   4.192  29.470 -0.1393  0.1038 -0.1663
  228BOLB   C4B 5460  26.330   4.459  29.295 -0.1594 -0.0024 -0.1949
  228BOLB   NC2 5461  26.495   5.008  32.628  0.0890  0.0181 -0.0651
  228BOLB   PO2 5462  26.504   4.571  32.503 -0.2046  0.3591 -0.2546
  228BOLB   GL3 5463  26.401   4.176  32.283  0.2609 -0.0407  0.0662
  228BOLB   GL4 5464  26.653   3.872  32.384 -0.2487 -0.2261  0.0107
  228BOLB   C1C 5465  26.079   4.092  31.971 -0.2575 -0.0239  0.0689
  228BOLB   C2C 5466  26.167   4.131  31.481  0.2051 -0.2131 -0.0582
  228BOLB   C3C 5467  26.300   4.277  31.085 -0.1824  0.0345 -0.0179
  228BOLB   C4C 5468  26.195   4.573  30.720  0.1272  0.1234 -0.0231
  228BOLB   C1D 5469  26.597   3.774  32.042 -0.0403 -0.2248  0.1043
  228BOLB   C2D 5470  26.283   3.699  31.661 -0.3930 -0.0916 -0.4702
  228BOLB   C3D 5471  25.942   3.715  31.376 -0.1124  0.0621  0.0382
  228BOLB   C4D 5472  25.536   3.830  30.987  0.0304 -0.0281  0.1203
  229BOLB   NC1 5473   9.757  -1.670  22.837  0.3677  0.0222  0.2532
  229BOLB   PO1 5474   9.719  -2.032  23.077  0.3107  0.0273  0.2789
  229BOLB   GL1 5475   9.465  -2.308  22.841  0.0255 -0.1265  0.1207
  229BOLB   GL2 5476   9.666  -2.604  22.779 -0.1249  0.0738  0.0600
  229BOLB   C1A 5477   9.175  -2.497  22.693 -0.1727 -0.3761  0.1933
  229BOLB   C2A 5478   9.023  -2.900  22.545  0.1029 -0.0983 -0.3329
  229BOLB   C3A 5479   8.818  -3.131  22.314  0.2898 -0.2940 -0.1500
  229BOLB   C4A 5480   8.405  -3.446  22.158 -0.0182 -0.0518  0.1731
  229BOLB   C1B 5481   9.558  -2.828  22.396  0.0963 -0.0265  0.1656
  229BOLB   C2B 5482   9.255  -3.089  22.103  0.0135 -0.1088 -0.1349
  229BOLB   C3B 5483   9.054  -3.391  21.959  0.1871 -0.0914  0.1189
  229BOLB   C4B 5484   8.765  -3.633  21.810  0.1437 -0.2338  0.6334
  229BOLB   NC2 5485   7.319  -5.715  22.282 -0.0951 -0.0091  0.0362
  229BOLB   PO2 5486   7.569  -5.636  21.927 -0.2388 -0.2060 -0.0863
  229BOLB   GL3 5487   7.461  -5.236  21.797  0.0808 -0.4102 -0.0766
  229BOLB   GL4 5488   7.485  -5.243  21.469 -0.3909  0.2536 -0.1330
  229BOLB   C1C 5489   7.353  -4.759  21.735 -0.1141  0.1843 -0.3569
  229BOLB   C2C 5490   7.626  -4.396  21.799  0.2330 -0.3544  0.0286
  229BOLB   C3C 5491   7.884  -4.028  21.682  0.1061  0.0701  0.1912
  229BOLB   C4C 5492   8.124  -3.744  21.953  0.2491  0.0667 -0.1253
  229BOLB   C1D 5493   7.824  -4.888  21.586  0.1346  0.0277 -0.0373
  229BOLB   C2D 5494   8.221  -4.721  21.235  0.2644 -0.2406 -0.0900
  229BOLB   C3D 5495   8.609  -4.882  21.133  0.0253  0.2965 -0.0999
  229BOLB   C4D 5496   8.877  -5.074  21.368 -0.1849 -0.3118  0.2417
  230BOLB   NC1 5497   7.367   4.454  26.708 -0.1393  0.0706 -0.2480
  230BOLB   PO1 5498   7.028   4.646  26.392  0.1422 -0.1691 -0.2159
  230BOLB   GL1 5499   6.541   4.607  26.384  0.0749 -0.1307 -0.0265
  230BOLB   GL2 5500   6.399   4.474  26.660 -0.1360 -0.0072 -0.2391
  230BOLB   C1A 5501   6.253   4.956  26.387  0.0516 -0.0214 -0.0012
  230BOLB   C2A 5502   5.781   5.126  26.404  0.1902  0.4510 -0.0109
  230BOLB   C3A 5503   5.607   5.582  26.545 -0.1960  0.0629  0.2182
  230BOLB   C4A 5504   5.658   6.092  26.659  0.1281 -0.2475  0.2276
  230BOLB   C1B 5505   5.920   4.509  26.429  0.0435  0.2771 -0.0094
  230BOLB   C2B 5506   5.702   4.352  26.131 -0.1632 -0.0846  0.0636
  230BOLB   C3B 5507   5.566   4.582  25.644 -0.0252  0.1541 -0.2440
  230BOLB   C4B 5508   5.287   4.839  25.660  0.0599  0.1800  0.0406
  230BOLB   NC2 5509   3.547   7.256  27.342  0.2088 -0.2299 -0.1834
  230BOLB   PO2 5510   3.370   7.021  26.932 -0.2833 -0.1923  0.0871
  230BOLB   GL3 5511   3.849   6.973  26.949  0.0865  0.0674 -0.1059
  230BOLB   GL4 5512   3.979   6.983  26.701 -0.0087 -0.2496 -0.0237
  230BOLB   C1C 5513   4.235   6.764  27.136 -0.1568 -0.1262  0.3991
  230BOLB   C2C 5514   4.675   6.712  27.107  0.0156 -0.1367  0.0652
  230BOLB   C3C 5515   5.140   6.656  26.974  0.1811  0.0186 -0.1768
  230BOLB   C4C 5516   5.508   6.391  26.906 -0.0150 -0.2327 -0.0004
  230BOLB   C1D 5517   4.086   6.596  26.557 -0.3313 -0.0595  0.1965
  230BOLB   C2D 5518   4.300   6.311  26.863 -0.1392 -0.1419  0.2727
  230BOLB   C3D 5519   4.214   5.893  27.069  0.1691 -0.1531  0.3965
  230BOLB   C4D 5520   4.092   5.673  27.414 -0.0608  0.0533  0.2704
  231BOLB   NC1 5521  16.869  11.262  22.451  0.2206 -0.1885  0.0176
  231BOLB   PO1 5522  17.003  11.545  22.787 -0.1217 -0.0153 -0.0693
  231BOLB   GL1 5523  17.189  11.961  22.642 -0.3338  0.0348 -0.0180
  231BOLB   GL2 5524  17.502  12.002  22.718 -0.2672  0.1517  0.0904
  231BOLB   C1A 5525  17.096  12.280  22.512  0.0960 -0.0113  0.0951
  231BOLB   C2A 5526  17.117  12.626  22.121 -0.1089  0.0369  0.0276
  231BOLB   C3A 5527  16.868  12.947  21.834 -0.2740  0.0422 -0.2308
  231BOLB   C4A 5528  16.683  13.130  21.534  0.2054  0.1177 -0.1220
  231BOLB   C1B 5529  17.645  12.351  22.719  0.2161  0.2705  0.1390
  231BOLB   C2B 5530  17.741  12.745  22.410  0.0621 -0.1836 -0.3314
  231BOLB   C3B 5531  17.917  12.999  22.100  0.1932 -0.0560 -0.1453
  231BOLB   C4B 5532  17.888  13.241  21.701  0.2222 -0.1506  0.0554
  231BOLB   NC2 5533  15.932  14.688  19.959  0.1548  0.0771 -0.1616
  231BOLB   PO2 5534  15.598  14.381  19.837  0.0441 -0.1412 -0.2662
  231BOLB   GL3 5535  15.704  14.357  20.255 -0.1193  0.0223  0.0764
  231BOLB   GL4 5536  16.128  14.354  20.279  0.1871  0.0190  0.1079
  231BOLB   C1C 5537  15.870  14.238  20.659 -0.0947  0.1560 -0.0428
  231BOLB   C2C 5538  16.131  13.893  20.906  0.0388  0.2135 -0.3900
  231BOLB   C3C 5539  16.193  13.557  21.168  0.0312 -0.1478 -0.1322
  231BOLB   C4C 5540  16.248  13.334  21.413 -0.0213 -0.0050 -0.0645
  231BOLB   C1D 5541  16.365  13.995  20.472  0.3796  0.1799  0.1251
  231BOLB   C2D 5542  16.560  13.610  20.689  0.2813  0.1051  0.2724
  231BOLB   C3D 5543  16.786  13.213  20.684  0.0992 -0.1879 -0.1265
  231BOLB   C4D 5544  16.731  12.682  20.733 -0.1555 -0.2661 -0.1288
  232BOLB   NC1 5545  19.713   9.217  20.780  0.2144 -0.1567 -0.0846
  232BOLB   PO1 5546  19.502   9.255  20.403 -0.0730  0.0020 -0.0536
  232BOLB   GL1 5547  19.802   9.542  20.149  0.4290 -0.0000  0.2387
  232BOLB   GL2 5548  19.890   9.254  20.014 -0.3641  0.0586  0.1722
  232BOLB   C1A 5549  19.744   9.946  19.867  0.2088 -0.0765 -0.3381
  232BOLB   C2A 5550  19.952  10.406  19.744  0.0595 -0.0862 -0.4481
  232BOLB   C3A 5551  20.295  10.619  19.694  0.0165 -0.1545  0.2185
  232BOLB   C4A 5552  20.381  10.984  19.644 -0.2497 -0.2163  0.0935
  232BOLB   C1B 5553  20.126   9.562  19.793 -0.3453 -0.0178 -0.4941
  232BOLB   C2B 5554  20.183  10.004  19.537 -0.0398 -0.2014 -0.2220
  232BOLB   C3B 5555  20.159  10.363  19.274 -0.0130 -0.2179  0.1858
  232BOLB   C4B 5556  20.272  10.816  19.186  0.2199  0.1504 -0.1483
  232BOLB   NC2 5557  20.977  12.746  18.654 -0.0210 -0.1670 -0.1457
  232BOLB   PO2 5558  21.118  13.008  18.839  0.0921  0.0829 -0.0854
  232BOLB   GL3 5559  21.228  12.654  19.157 -0.2695 -0.2560 -0.0691
  232BOLB   GL4 5560  21.415  12.627  18.926 -0.0221  0.0284  0.1717
  232BOLB   C1C 5561  21.044  12.421  19.439  0.2317 -0.2455  0.0194
  232BOLB   C2C 5562  20.775  12.204  19.573 -0.4330  0.1324  0.2748
  232BOLB   C3C 5563  20.637  11.876  19.687  0.1263 -0.1360  0.0094
  232BOLB   C4C 5564  20.564  11.417  19.596  0.0393 -0.2836 -0.2607
  232BOLB   C1D 5565  21.472  12.221  19.130 -0.1101 -0.2267 -0.0935
  232BOLB   C2D 5566  21.398  11.894  18.831  0.0989 -0.0560  0.0050
  232BOLB   C3D 5567  21.406  11.430  18.779  0.2903  0.0058 -0.0641
  232BOLB   C4D 5568  21.768  11.188  18.764 -0.4414 -0.4181 -0.2000
  233BOLB   NC1 5569   9.421  -1.073  28.652  0.0601 -0.0359  0.1202
  233BOLB   PO1 5570   9.392  -1.256  28.317 -0.5074 -0.2467 -0.2096
  233BOLB   GL1 5571   9.080  -1.433  28.593 -0.1261 -0.0729  0.1126
  233BOLB   GL2 5572   8.820  -1.268  28.650 -0.2639  0.2489 -0.0645
  233BOLB   C1A 5573   8.950  -1.805  28.617 -0.1238  0.0604  0.3003
  233BOLB   C2A 5574   8.746  -2.128  28.650  0.3269 -0.1006  0.1000
  233BOLB   C3A 5575   8.393  -2.272  28.915  0.1596  0.0635 -0.2420
  233BOLB   C4A 5576   8.188  -2.493  29.262  0.1706 -0.4001  0.2309
  233BOLB   C1B 5577   8.506  -1.530  28.837 -0.0412  0.1717  0.0693
  233BOLB   C2B 5578   8.254  -1.799  28.938 -0.0502  0.1690 -0.1809
  233BOLB   C3B 5579   7.867  -2.070  28.935  0.3104  0.0174 -0.1615
  233BOLB   C4B 5580   7.508  -2.224  28.928  0.0361  0.0892 -0.2290
  233BOLB   NC2 5581   7.315  -2.319  31.549  0.0743 -0.1534  0.0232
  233BOLB   PO2 5582   6.920  -2.501  31.435  0.1886  0.0997 -0.3898
  233BOLB   GL3 5583   7.135  -2.329  31.029 -0.2202 -0.0826 -0.4312
  233BOLB   GL4 5584   7.355  -2.068  31.102  0.3387 -0.1857 -0.0808
  233BOLB   C1C 5585   7.302  -2.266  30.520  0.0513 -0.2289  0.3490
  233BOLB   C2C 5586   7.569  -2.147  30.101 -0.1430  0.2037 -0.0765
  233BOLB   C3C 5587   7.952  -2.123  29.870 -0.1688  0.0319 -0.0307
  233BOLB   C4C 5588   8.039  -2.383  29.664 -0.1765 -0.0054  0.1253
  233BOLB   C1D 5589   7.267  -1.583  31.078  0.3148  0.1993  0.1793
  233BOLB   C2D 5590   7.158  -1.270  30.855  0.1263 -0.1216 -0.0399
  233BOLB   C3D 5591   7.284  -0.895  30.733 -0.0353 -0.1066 -0.1154
  233BOLB   C4D 5592   7.788  -0.738  30.807  0.0223  0.0725 -0.0531
  234BOLB   NC1 5593  15.515   6.250  16.970  0.2554 -0.1810  0.1106
  234BOLB   PO1 5594  15.987   6.380  16.919  0.2600  0.1184 -0.2482
  234BOLB   GL1 5595  15.877   6.575  16.592  0.0063 -0.1795 -0.2828
  234BOLB   GL2 5596  15.617   6.409  16.398  0.0747  0.1976 -0.0347
  234BOLB   C1A 5597  16.057   6.831  16.302  0.1077 -0.0212 -0.0612
  234BOLB   C2A 5598  16.021   7.106  15.957  0.0466 -0.1463 -0.0140
  234BOLB   C3A 5599  15.918   7.449  15.602  0.3105  0.4386 -0.1341
  234BOLB   C4A 5600  15.827   7.783  15.544 -0.1217 -0.3012  0.2740
  234BOLB   C1B 5601  15.563   6.556  15.952 -0.2292  0.3583  0.1142
  234BOLB   C2B 5602  15.575   6.990  15.717  0.0905  0.1179  0.0232
  234BOLB   C3B 5603  15.163   7.177  15.553  0.1301  0.4643  0.0317
  234BOLB   C4B 5604  14.692   7.120  15.463  0.1718  0.0458  0.0465
  234BOLB   NC2 5605  15.279  10.036  13.896 -0.2726 -0.0614  0.2706
  234BOLB   PO2 5606  15.245   9.554  13.950  0.0372 -0.1287  0.0948
  234BOLB   GL3 5607  15.577   9.527  14.295 -0.0165 -0.1623  0.0050
  234BOLB   GL4 5608  15.784   9.783  14.152  0.0660 -0.0231 -0.0606
  234BOLB   C1C 5609  15.704   9.357  14.636  0.1061  0.1645 -0.2407
  234BOLB   C2C 5610  15.756   9.110  14.917 -0.1202  0.2917  0.2754
  234BOLB   C3C 5611  15.535   8.669  15.271  0.3945  0.1183 -0.2146
  234BOLB   C4C 5612  15.737   8.189  15.428 -0.1713 -0.2354  0.0209
  234BOLB   C1D 5613  16.046   9.975  14.535  0.0193  0.2247 -0.0529
  234BOLB   C2D 5614  16.453   9.857  14.793 -0.2110  0.1399  0.1930
  234BOLB   C3D 5615  16.686   9.451  14.968 -0.0706 -0.1801 -0.2110
  234BOLB   C4D 5616  16.394   9.113  15.140  0.0993  0.0595  0.0431
  235BOLB   NC1 5617  20.259   6.618  17.940  0.0224 -0.0591  0.4389
  235BOLB   PO1 5618  20.399   6.459  17.578  0.1758 -0.0229  0.0172
  235BOLB   GL1 5619  20.362   6.497  17.062 -0.0285 -0.4083  0.1280
  235BOLB   GL2 5620  20.164   6.438  16.752  0.0895  0.0415  0.1879
  235BOLB   C1A 5621  20.580   6.596  16.648 -0.1815 -0.0861  0.2995
  235BOLB   C2A 5622  20.926   6.665  16.379 -0.4730  0.2006 -0.2919
  235BOLB   C3A 5623  21.198   6.895  16.079  0.1363 -0.0797  0.1339
  235BOLB   C4A 5624  20.905   6.870  15.712  0.3113 -0.3847 -0.1726
  235BOLB   C1B 5625  20.128   6.570  16.299 -0.3153 -0.2126  0.0336
  235BOLB   C2B 5626  20.281   6.820  15.959 -0.1455 -0.0971 -0.0848
  235BOLB   C3B 5627  20.329   7.295  15.908  0.2550  0.0121 -0.1609
  235BOLB   C4B 5628  20.053   7.611  15.798 -0.0645  0.1042  0.0932
  235BOLB   NC2 5629  19.842   8.440  13.307  0.1712 -0.2067  0.1337
  235BOLB   PO2 5630  19.846   8.010  13.622 -0.3076 -0.1436 -0.0181
  235BOLB   GL3 5631  19.940   7.687  14.012 -0.0260  0.3513  0.2565
  235BOLB   GL4 5632  19.760   7.467  14.160  0.1109  0.0041 -0.1602
  235BOLB   C1C 5633  20.177   7.598  14.435 -0.0274 -0.1685  0.0531
  235BOLB   C2C 5634  20.198   7.321  14.755  0.0162  0.1438 -0.1425
  235BOLB   C3C 5635  20.537   7.034  15.004 -0.2286  0.1456 -0.3217
  235BOLB   C4C 5636  20.879   6.845  15.233  0.0457 -0.1493  0.0670
  235BOLB   C1D 5637  19.733   7.334  14.497 -0.3682 -0.1087  0.1966
  235BOLB   C2D 5638  19.830   7.031  14.899  0.1068  0.1877  0.1497
  235BOLB   C3D 5639  20.098   7.034  15.156 -0.3653  0.3078  0.2328
  235BOLB   C4D 5640  20.406   6.836  15.484 -0.1692  0.1671  0.0764
  236BOLB   NC1 5641  22.793  -8.887  15.633  0.1003 -0.0371  0.0838
  236BOLB   PO1 5642  23.108  -8.552  15.667  0.1566  0.1210 -0.2120
  236BOLB   GL1 5643  22.774  -8.199  15.689 -0.2264 -0.0386  0.1766
  236BOLB   GL2 5644  22.631  -8.192  15.959  0.1165  0.2543 -0.0038
  236BOLB   C1A 5645  22.850  -7.801  15.476  0.0815 -0.0085 -0.1627
  236BOLB   C2A 5646  23.105  -7.586  15.665 -0.1190 -0.1673 -0.1745
  236BOLB   C3A 5647  23.354  -7.489  15.912 -0.1362  0.2086 -0.0355
  236BOLB   C4A 5648  23.264  -7.347  16.355  0.0429 -0.1584 -0.1660
  236BOLB   C1B 5649  22.224  -8.214  15.742  0.1560  0.1803 -0.1329
  236BOLB   C2B 5650  21.803  -8.125  15.582  0.0244 -0.1855  0.2256
  236BOLB   C3B 5651  21.428  -8.019  15.347 -0.2812 -0.0566  0.0529
  236BOLB   C4B 5652  21.051  -7.704  15.474 -0.0055  0.4182 -0.1975
  236BOLB   NC2 5653  22.675  -9.096  17.000  0.0236  0.0482 -0.2474
  236BOLB   PO2 5654  23.060  -8.889  17.124 -0.2307 -0.0414 -0.0149
  236BOLB   GL3 5655  22.804  -8.617  17.337  0.3556 -0.1162 -0.0691
  236BOLB   GL4 5656  22.516  -8.694  17.462 -0.1990  0.2211 -0.2080
  236BOLB   C1C 5657  22.853  -8.159  17.352  0.1197  0.1016  0.0308
  236BOLB   C2C 5658  23.069  -7.731  17.451 -0.2363 -0.1215 -0.0805
  236BOLB   C3C 5659  23.011  -7.487  17.161 -0.2055  0.1901  0.1025
  236BOLB   C4C 5660  23.026  -7.520  16.711  0.4412  0.0044  0.1213
  236BOLB   C1D 5661  22.373  -8.242  17.551 -0.3430  0.3312 -0.0053
  236BOLB   C2D 5662  22.047  -7.872  17.704 -0.2024 -0.0845 -0.1563
  236BOLB   C3D 5663  21.615  -7.962  17.619 -0.0991  0.1394  0.0358
  236BOLB   C4D 5664  21.469  -8.316  17.413 -0.1022 -0.0249 -0.1656
  237BOLB   NC1 5665  14.756  10.079  21.253 -0.1867  0.2350  0.2022
  237BOLB   PO1 5666  14.505  10.442  21.171 -0.1838  0.0433 -0.0860
  237BOLB   GL1 5667  14.416  10.912  21.049 -0.0669  0.2269 -0.2752
  237BOLB   GL2 5668  14.445  11.182  21.253 -0.1092  0.1103  0.2678
  237BOLB   C1A 5669  14.365  11.295  20.765  0.3576  0.2088  0.2062
  237BOLB   C2A 5670  14.152  11.573  20.671  0.2437  0.0139 -0.0322
  237BOLB   C3A 5671  13.959  11.906  20.900 -0.1525 -0.1382  0.1645
  237BOLB   C4A 5672  13.635  12.416  20.907  0.2409 -0.0135 -0.0124
  237BOLB   C1B 5673  14.391  11.621  21.135  0.1956 -0.1603 -0.1043
  237BOLB   C2B 5674  14.371  12.024  21.158  0.0756  0.0284  0.1097
  237BOLB   C3B 5675  14.400  12.291  21.426 -0.2462  0.4417 -0.0707
  237BOLB   C4B 5676  14.522  12.718  21.367  0.0606 -0.1489 -0.2165
  237BOLB   NC2 5677  12.668  13.609  18.852 -0.0862 -0.0185 -0.0399
  237BOLB   PO2 5678  12.859  13.790  19.235 -0.0703 -0.0856  0.1355
  237BOLB   GL3 5679  13.226  13.552  19.505 -0.1865 -0.0710 -0.2693
  237BOLB   GL4 5680  13.296  13.679  19.788 -0.0892 -0.0212  0.2239
  237BOLB   C1C 5681  13.543  13.178  19.653 -0.2988 -0.1433 -0.3484
  237BOLB   C2C 5682  13.830  12.909  19.843 -0.0097  0.2657 -0.0259
  237BOLB   C3C 5683  13.828  12.577  20.041  0.2954 -0.3688 -0.0500
  237BOLB   C4C 5684  13.672  12.666  20.479  0.0171  0.1871  0.1465
  237BOLB   C1D 5685  13.032  13.207  19.862  0.2652  0.0852 -0.0990
  237BOLB   C2D 5686  12.828  12.840  19.758  0.3218 -0.0903  0.0383
  237BOLB   C3D 5687  12.868  12.379  19.743 -0.1044  0.1741 -0.0357
  237BOLB   C4D 5688  12.837  11.889  19.860 -0.3535 -0.0264 -0.2274
  238BOLB   NC1 5689   7.607   6.086  26.746 -0.1671  0.1152 -0.1846
  238BOLB   PO1 5690   7.152   6.123  26.463 -0.0435 -0.0894  0.0720
  238BOLB   GL1 5691   6.867   6.285  26.595 -0.2330  0.0979  0.2201
  238BOLB   GL2 5692   6.615   5.990  26.572 -0.0182  0.3411  0.2298
  238BOLB   C1A 5693   6.428   6.511  26.566  0.1363 -0.3288  0.2289
  238BOLB   C2A 5694   6.057   6.516  26.661 -0.0436  0.0768 -0.1812
  238BOLB   C3A 5695   5.751   6.744  26.680 -0.2688 -0.1685  0.2959
  238BOLB   C4A 5696   5.466   6.901  26.516  0.3075 -0.1626  0.0667
  238BOLB   C1B 5697   6.379   6.143  26.894 -0.0166  0.1410 -0.0651
  238BOLB   C2B 5698   6.044   6.144  27.272 -0.0537  0.0376  0.2009
  238BOLB   C3B 5699   5.796   6.212  27.677  0.1648  0.0187 -0.0007
  238BOLB   C4B 5700   5.342   6.254  27.765 -0.3124 -0.1368 -0.1525
  238BOLB   NC2 5701   3.817   8.441  25.744  0.0009 -0.0966 -0.2038
  238BOLB   PO2 5702   4.030   8.114  25.944 -0.0852 -0.0982 -0.1523
  238BOLB   GL3 5703   4.273   7.733  25.888  0.1849 -0.1820  0.0009
  238BOLB   GL4 5704   4.136   7.755  25.495  0.0350  0.2353  0.0273
  238BOLB   C1C 5705   4.537   7.348  25.524  0.0344  0.1876 -0.3039
  238BOLB   C2C 5706   4.785   7.014  25.733 -0.2679  0.1639  0.0965
  238BOLB   C3C 5707   4.928   7.038  26.132  0.1368 -0.2825 -0.0491
  238BOLB   C4C 5708   5.034   6.914  26.446 -0.0280  0.0408  0.0023
  238BOLB   C1D 5709   4.612   7.805  25.440 -0.1306  0.0655  0.0352
  238BOLB   C2D 5710   5.057   7.783  25.419 -0.1743 -0.1081 -0.0214
  238BOLB   C3D 5711   5.503   8.050  25.516  0.0325 -0.2845  0.2611
  238BOLB   C4D 5712   5.864   8.241  25.340  0.3304  0.0630 -0.0380
  239BOLB   NC1 5713  12.475  -3.795  25.191 -0.0906  0.0077 -0.1649
  239BOLB   PO1 5714  12.871  -3.634  25.334  0.0855 -0.0705  0.0315
  239BOLB   GL1 5715  12.989  -4.095  25.509 -0.1185  0.2508 -0.1731
  239BOLB   GL2 5716  13.241  -4.153  25.651 -0.0362 -0.4644 -0.1323
  239BOLB   C1A 5717  12.986  -4.562  25.724  0.2295  0.0418 -0.3601
  239BOLB   C2A 5718  12.954  -4.975  25.836 -0.4293  0.0046  0.2320
  239BOLB   C3A 5719  12.681  -5.339  25.788 -0.0110  0.0587 -0.2470
  239BOLB   C4A 5720  12.586  -5.690  25.864 -0.2578 -0.2610 -0.1260
  239BOLB   C1B 5721  13.576  -4.389  25.839  0.0417  0.0159 -0.0515
  239BOLB   C2B 5722  13.632  -4.717  25.727 -0.1377 -0.0280 -0.0623
  239BOLB   C3B 5723  13.499  -5.057  25.920 -0.1860  0.0557 -0.0136
  239BOLB   C4B 5724  13.565  -5.505  25.935  0.2108  0.1108 -0.0379
  239BOLB   NC2 5725  11.316  -8.316  25.694 -0.5200 -0.0726 -0.0041
  239BOLB   PO2 5726  11.800  -8.163  25.707 -0.0948 -0.1301  0.0930
  239BOLB   GL3 5727  11.851  -7.775  25.565  0.1517  0.2026  0.3598
  239BOLB   GL4 5728  11.766  -7.542  25.419 -0.1259  0.1363  0.1471
  239BOLB   C1C 5729  12.135  -7.329  25.690 -0.1413 -0.1650 -0.0137
  239BOLB   C2C 5730  12.421  -6.979  26.053  0.1778 -0.1059 -0.2286
  239BOLB   C3C 5731  12.719  -6.618  26.059 -0.3709 -0.0916  0.0052
  239BOLB   C4C 5732  12.686  -6.154  26.028 -0.0362 -0.0256  0.2878
  239BOLB   C1D 5733  11.814  -7.199  25.172 -0.3077  0.1840  0.1549
  239BOLB   C2D 5734  11.947  -6.786  25.193 -0.0617  0.3570  0.2383
  239BOLB   C3D 5735  12.154  -6.438  25.011 -0.0474 -0.0676  0.1416
  239BOLB   C4D 5736  12.339  -6.273  24.520  0.0437  0.1908 -0.0320
  240BOLB   NC1 5737   9.302   3.021  19.199  0.3986 -0.1517 -0.4062
  240BOLB   PO1 5738   9.005   2.542  19.398 -0.0019  0.1422  0.1945
  240BOLB   GL1 5739   8.706   2.795  19.402 -0.2129  0.3121 -0.1087
  240BOLB   GL2 5740   8.799   2.920  19.074  0.3164 -0.0468  0.0245
  240BOLB   C1A 5741   8.307   2.828  19.289  0.0761 -0.0215 -0.0558
  240BOLB   C2A 5742   7.916   2.925  19.290  0.1822 -0.2479  0.0651
  240BOLB   C3A 5743   7.664   2.795  18.999  0.0186  0.2862  0.4108
  240BOLB   C4A 5744   7.381   3.062  18.684  0.0984 -0.1422  0.1264
  240BOLB   C1B 5745   8.432   2.929  18.796 -0.0445 -0.1678  0.0749
  240BOLB   C2B 5746   8.037   3.172  18.902 -0.2650  0.3271 -0.2309
  240BOLB   C3B 5747   7.774   3.320  18.587 -0.2407  0.1635 -0.0664
  240BOLB   C4B 5748   7.760   3.352  18.196 -0.1514 -0.3469  0.3414
  240BOLB   NC2 5749   6.114   3.255  16.985  0.1462  0.1853  0.1647
  240BOLB   PO2 5750   5.665   3.188  17.203  0.3697 -0.1047 -0.1482
  240BOLB   GL3 5751   5.939   3.036  17.462  0.3846  0.1187 -0.1967
  240BOLB   GL4 5752   6.199   3.334  17.466 -0.0406  0.1840 -0.1261
  240BOLB   C1C 5753   6.074   3.055  17.895  0.1915 -0.0296  0.3009
  240BOLB   C2C 5754   6.235   2.960  18.246  0.1455  0.0018 -0.0244
  240BOLB   C3C 5755   6.432   3.062  18.572 -0.3773  0.0464 -0.2153
  240BOLB   C4C 5756   6.918   3.057  18.642  0.0912 -0.2623  0.2006
  240BOLB   C1D 5757   6.457   3.631  17.839 -0.1073 -0.1382 -0.4382
  240BOLB   C2D 5758   6.784   3.647  18.144 -0.0799 -0.2744 -0.0872
  240BOLB   C3D 5759   7.067   3.499  18.487  0.0134 -0.3183  0.1257
  240BOLB   C4D 5760   7.151   3.507  18.859  0.0317 -0.0583 -0.1599
  241BOLB   NC1 5761   9.006   2.057  19.289  0.0238 -0.1971 -0.3186
  241BOLB   PO1 5762   9.428   2.129  19.286 -0.0119  0.0584  0.1126
  241BOLB   GL1 5763   9.374   1.935  18.890 -0.1421  0.1562 -0.2477
  241BOLB   GL2 5764   9.119   2.051  18.727  0.0846 -0.0798 -0.0256
  241BOLB   C1A 5765   9.248   1.598  18.507  0.2680  0.3231 -0.0290
  241BOLB   C2A 5766   8.862   1.304  18.627  0.2030 -0.1629  0.0270
  241BOLB   C3A 5767   8.617   0.958  18.381 -0.1560 -0.1336 -0.3942
  241BOLB   C4A 5768   8.562   0.651  18.057  0.0376 -0.0611  0.3680
  241BOLB   C1B 5769   8.793   1.935  18.443  0.0998  0.4427  0.0957
  241BOLB   C2B 5770   8.500   1.636  18.186  0.1344 -0.0449  0.0812
  241BOLB   C3B 5771   8.691   1.243  17.996 -0.0176 -0.0467 -0.0291
  241BOLB   C4B 5772   8.888   0.947  17.791 -0.0695 -0.3174  0.0753
  241BOLB   NC2 5773   7.321  -0.817  16.519  0.2317 -0.1165 -0.1531
  241BOLB   PO2 5774   7.037  -0.758  16.819 -0.1021  0.0521  0.1205
  241BOLB   GL3 5775   7.324  -0.575  16.948  0.1233  0.0453  0.2942
  241BOLB   GL4 5776   7.632  -0.616  16.844  0.0281  0.2331 -0.1827
  241BOLB   C1C 5777   7.540  -0.293  17.321  0.1552 -0.1003  0.0445
  241BOLB   C2C 5778   7.736  -0.043  17.615  0.2634 -0.1270  0.1211
  241BOLB   C3C 5779   8.004  -0.021  17.960  0.1672 -0.1778 -0.2395
  241BOLB   C4C 5780   8.343   0.310  17.969  0.1412 -0.2502  0.1145
  241BOLB   C1D 5781   7.729  -0.120  16.875 -0.0860 -0.0843 -0.1169
  241BOLB   C2D 5782   7.969   0.051  17.097 -0.1192  0.2889  0.0399
  241BOLB   C3D 5783   8.082   0.296  17.517 -0.0676 -0.1443 -0.1623
  241BOLB   C4D 5784   8.073   0.627  17.666  0.0181  0.1536 -0.4891
  242BOLB   NC1 5785  21.021  -1.495  28.402 -0.0566 -0.0618  0.0597
  242BOLB   PO1 5786  20.765  -1.521  28.037 -0.2860 -0.1572  0.2006
  242BOLB   GL1 5787  20.670  -1.826  28.413  0.0478  0.2563 -0.0739
  242BOLB   GL2 5788  20.742  -1.665  28.782  0.3919 -0.1295  0.1540
  242BOLB   C1A 5789  20.630  -2.122  28.790 -0.2700 -0.2142 -0.0427
  242BOLB   C2A 5790  20.831  -2.321  29.182  0.3456 -0.2440 -0.1342
  242BOLB   C3A 5791  21.146  -2.448  29.392  0.0354  0.3332  0.1180
  242BOLB   C4A 5792  21.282  -2.583  29.751 -0.2478  0.2847  0.0424
  242BOLB   C1B 5793  21.143  -1.956  28.773 -0.0563  0.1061 -0.2156
  242BOLB   C2B 5794  21.532  -2.213  28.785  0.0339  0.0821 -0.4333
  242BOLB   C3B 5795  21.821  -2.477  28.878  0.0210  0.1457 -0.2069
  242BOLB   C4B 5796  22.089  -2.826  29.144 -0.0589  0.1648  0.0353
  242BOLB   NC2 5797  22.584  -3.902  31.526 -0.0753 -0.1582  0.0664
  242BOLB   PO2 5798  22.239  -4.243  31.235  0.1982  0.0465 -0.3471
  242BOLB   GL3 5799  22.063  -3.794  31.211 -0.0499  0.2012 -0.3323
  242BOLB   GL4 5800  21.806  -3.643  31.449  0.1180  0.1387 -0.1598
  242BOLB   C1C 5801  21.882  -3.527  30.947 -0.0033 -0.1738 -0.2738
  242BOLB   C2C 5802  21.636  -3.198  30.656 -0.1270 -0.0410 -0.0825
  242BOLB   C3C 5803  21.761  -2.724  30.524 -0.0982  0.0094  0.1508
  242BOLB   C4C 5804  21.591  -2.523  30.141  0.0451 -0.0568 -0.0796
  242BOLB   C1D 5805  21.446  -3.301  31.141 -0.0640 -0.0032  0.1356
  242BOLB   C2D 5806  21.101  -3.034  30.977 -0.2878 -0.0812  0.1485
  242BOLB   C3D 5807  20.839  -2.906  30.735  0.1105  0.0185 -0.0040
  242BOLB   C4D 5808  20.545  -2.632  30.544  0.0058  0.3233 -0.0290
  243BOLB   NC1 5809  16.161  -0.321  31.849 -0.3458 -0.1740 -0.0383
  243BOLB   PO1 5810  15.759  -0.112  31.813 -0.1320 -0.2953 -0.0553
  243BOLB   GL1 5811  15.674  -0.340  32.156 -0.1025 -0.1459  0.2320
  243BOLB   GL2 5812  15.847  -0.584  32.177 -0.0327 -0.1171 -0.0270
  243BOLB   C1A 5813  15.409  -0.568  32.486 -0.0047 -0.1416  0.2817
  243BOLB   C2A 5814  15.561  -0.572  32.957 -0.0077 -0.1708 -0.3558
  243BOLB   C3A 5815  15.665  -1.033  33.154  0.0556  0.0813  0.0784
  243BOLB   C4A 5816  15.996  -1.218  33.448  0.1661 -0.0699 -0.0176
  243BOLB   C1B 5817  15.800  -0.894  32.526  0.0876 -0.0688 -0.1328
  243BOLB   C2B 5818  15.691  -1.313  32.724  0.1114  0.1410 -0.0473
  243BOLB   C3B 5819  15.345  -1.470  33.006 -0.0209  0.1276 -0.0568
  243BOLB   C4B 5820  15.028  -1.661  33.339  0.0174  0.3713  0.2470
  243BOLB   NC2 5821  17.306  -1.989  35.386  0.0711 -0.1609 -0.2284
  243BOLB   PO2 5822  17.364  -2.220  34.991  0.0253 -0.2207 -0.2456
  243BOLB   GL3 5823  17.278  -1.880  34.862 -0.0206 -0.1952  0.2275
  243BOLB   GL4 5824  17.384  -1.612  35.038 -0.0180 -0.0247  0.4124
  243BOLB   C1C 5825  16.932  -1.660  34.654  0.1748  0.1762 -0.1092
  243BOLB   C2C 5826  16.830  -1.192  34.460  0.1137 -0.2264  0.2336
  243BOLB   C3C 5827  16.691  -1.115  34.149  0.2258  0.3050  0.2793
  243BOLB   C4C 5828  16.399  -1.284  33.729 -0.0000 -0.3013 -0.1201
  243BOLB   C1D 5829  17.200  -1.202  34.825  0.3038  0.0289 -0.0989
  243BOLB   C2D 5830  17.151  -0.823  34.559 -0.0350 -0.0644  0.0793
  243BOLB   C3D 5831  17.093  -0.373  34.611 -0.1844  0.2828 -0.0851
  243BOLB   C4D 5832  16.824  -0.197  34.804 -0.2811 -0.1644 -0.3959
  244BOLB   NC1 5833  16.575   2.147  32.709  0.0135 -0.1724  0.1291
  244BOLB   PO1 5834  16.699   1.855  33.094 -0.3201  0.0521  0.2560
  244BOLB   GL1 5835  16.892   1.889  33.499  0.0939  0.4635  0.1406
  244BOLB   GL2 5836  16.713   1.822  33.776  0.2025 -0.0719  0.2023
  244BOLB   C1A 5837  17.157   1.896  33.946 -0.0680 -0.0430  0.1139
  244BOLB   C2A 5838  17.109   1.666  34.304 -0.0930 -0.0591  0.1324
  244BOLB   C3A 5839  17.086   1.644  34.732 -0.0673  0.0175 -0.1792
  244BOLB   C4A 5840  17.087   1.455  35.153  0.0007 -0.0005  0.1516
  244BOLB   C1B 5841  16.700   1.999  34.284  0.0577  0.0749  0.2151
  244BOLB   C2B 5842  16.701   1.996  34.640  0.0888  0.3689 -0.1981
  244BOLB   C3B 5843  16.484   2.137  34.983 -0.0319 -0.1600  0.2481
  244BOLB   C4B 5844  16.179   2.097  35.330 -0.0713 -0.1260 -0.0851
  244BOLB   NC2 5845  17.419   1.363  37.732  0.1094  0.2442 -0.0093
  244BOLB   PO2 5846  17.653   1.421  37.482 -0.0092 -0.1070  0.0663
  244BOLB   GL3 5847  17.422   1.532  37.051 -0.3073 -0.0348 -0.1356
  244BOLB   GL4 5848  17.703   1.303  36.821  0.0319 -0.2956  0.1930
  244BOLB   C1C 5849  17.305   1.578  36.662 -0.1587 -0.0508 -0.0791
  244BOLB   C2C 5850  17.132   1.255  36.337  0.2319  0.1008 -0.0932
  244BOLB   C3C 5851  16.959   1.220  35.955 -0.0548 -0.0559 -0.1566
  244BOLB   C4C 5852  16.919   1.349  35.604  0.0885  0.0666  0.0011
  244BOLB   C1D 5853  17.794   1.741  36.635  0.1297  0.2715  0.1031
  244BOLB   C2D 5854  17.495   1.864  36.280 -0.1729  0.2615  0.0932
  244BOLB   C3D 5855  17.205   1.624  36.004  0.3928  0.1098  0.2166
  244BOLB   C4D 5856  17.364   1.430  35.620 -0.4466  0.0622  0.1148
  245BOLB   NC1 5857  12.622   9.270  31.539 -0.2192 -0.1853 -0.1156
  245BOLB   PO1 5858  12.369   9.530  31.293  0.1803 -0.0453  0.0946
  245BOLB   GL1 5859  12.357   9.794  31.647  0.0669  0.2159  0.0660
  245BOLB   GL2 5860  12.440   9.602  31.875 -0.0929  0.0647 -0.2410
  245BOLB   C1A 5861  12.363  10.109  31.859 -0.1030 -0.0533 -0.2237
  245BOLB   C2A 5862  12.328  10.503  32.125  0.1672 -0.3131  0.0909
  245BOLB   C3A 5863  12.262  10.722  32.427 -0.1963  0.2599 -0.0663
  245BOLB   C4A 5864  12.055  10.850  32.880  0.1386  0.3981  0.3005
  245BOLB   C1B 5865  12.140   9.745  32.110 -0.0171  0.1050 -0.0484
  245BOLB   C2B 5866  12.037   9.953  32.372  0.0492 -0.0612  0.2636
  245BOLB   C3B 5867  11.951  10.362  32.580 -0.6295  0.1218 -0.0071
  245BOLB   C4B 5868  11.785  10.302  33.030  0.1866 -0.0892 -0.0550
  245BOLB   NC2 5869  11.217  12.132  35.320 -0.1690  0.1199 -0.1040
  245BOLB   PO2 5870  11.451  11.680  35.185  0.1710 -0.0529  0.3710
  245BOLB   GL3 5871  11.589  11.533  34.741 -0.2080  0.0039  0.3331
  245BOLB   GL4 5872  11.922  11.697  34.618 -0.3710 -0.0920  0.0258
  245BOLB   C1C 5873  11.535  11.631  34.259 -0.1587  0.1930  0.2735
  245BOLB   C2C 5874  11.659  11.495  33.869 -0.1367 -0.1351  0.2676
  245BOLB   C3C 5875  11.729  11.376  33.440  0.1369 -0.1272 -0.1671
  245BOLB   C4C 5876  11.855  11.231  33.020  0.1474 -0.0357  0.1239
  245BOLB   C1D 5877  12.173  11.585  34.149  0.2378 -0.0755 -0.4212
  245BOLB   C2D 5878  12.379  11.307  33.886 -0.3004 -0.1962 -0.0577
  245BOLB   C3D 5879  12.518  11.077  33.702  0.0526  0.3270  0.1284
  245BOLB   C4D 5880  12.652  10.912  33.405 -0.2888 -0.0292 -0.2386
  246BOLB   NC1 5881  10.311   3.223  19.220  0.1466  0.0574 -0.0430
  246BOLB   PO1 5882  10.146   3.612  19.019  0.1062  0.0798 -0.0017
  246BOLB   GL1 5883   9.888   3.610  18.672 -0.2655 -0.2234 -0.0326
  246BOLB   GL2 5884   9.835   3.312  18.632  0.1534  0.2464  0.1406
  246BOLB   C1A 5885   9.789   3.595  18.230 -0.3310  0.1116  0.2024
  246BOLB   C2A 5886   9.769   3.787  17.812  0.4036  0.0639  0.2168
  246BOLB   C3A 5887   9.616   3.796  17.393 -0.1131  0.1591  0.0810
  246BOLB   C4A 5888   9.524   3.617  16.910 -0.1590 -0.1178  0.0602
  246BOLB   C1B 5889   9.740   3.123  18.307  0.1504 -0.2433  0.0828
  246BOLB   C2B 5890   9.538   3.262  17.973  0.0428  0.0234  0.0941
  246BOLB   C3B 5891   9.510   3.349  17.551 -0.2752 -0.0372 -0.1742
  246BOLB   C4B 5892   9.667   3.164  17.179 -0.1048 -0.1018  0.0245
  246BOLB   NC2 5893   7.400   4.423  15.423  0.0632  0.1602 -0.1156
  246BOLB   PO2 5894   7.644   4.127  15.756  0.2096  0.1903  0.0116
  246BOLB   GL3 5895   8.004   3.926  15.700 -0.0650  0.0646  0.1778
  246BOLB   GL4 5896   8.150   3.716  15.918  0.1585  0.1717  0.1897
  246BOLB   C1C 5897   8.466   3.990  15.629 -0.1322 -0.2651 -0.0742
  246BOLB   C2C 5898   8.807   3.800  15.773 -0.1139 -0.2260  0.2263
  246BOLB   C3C 5899   9.244   3.813  15.959  0.1037 -0.0832 -0.0374
  246BOLB   C4C 5900   9.350   3.686  16.404 -0.1352 -0.1636 -0.0326
  246BOLB   C1D 5901   8.481   3.506  15.916 -0.0406 -0.3691 -0.0387
  246BOLB   C2D 5902   9.005   3.393  16.107  0.2603  0.3199  0.1793
  246BOLB   C3D 5903   9.362   3.239  16.257 -0.0018 -0.3429  0.1783
  246BOLB   C4D 5904   9.545   2.946  16.379 -0.0685 -0.2443  0.2256
  247BOLB   NC1 5905  23.684  -0.074  23.720 -0.1563 -0.1287  0.1502
  247BOLB   PO1 5906  23.759  -0.401  23.868  0.2035  0.0817 -0.1855
  247BOLB   GL1 5907  24.069  -0.708  23.928 -0.0719 -0.2868  0.1609
  247BOLB   GL2 5908  23.975  -0.998  23.834 -0.2951 -0.2085  0.0843
  247BOLB   C1A 5909  24.548  -0.731  23.940 -0.0811  0.0111 -0.0237
  247BOLB   C2A 5910  24.837  -1.043  23.796 -0.1080 -0.0319 -0.1311
  247BOLB   C3A 5911  25.195  -1.273  23.781 -0.0031  0.4327  0.3017
  247BOLB   C4A 5912  25.144  -1.714  23.710 -0.0968 -0.0561 -0.0086
  247BOLB   C1B 5913  24.279  -1.057  23.483 -0.1985  0.1559  0.0296
  247BOLB   C2B 5914  24.717  -0.857  23.351  0.1194  0.4512  0.2054
  247BOLB   C3B 5915  25.043  -1.042  23.079  0.1417  0.2207 -0.2025
  247BOLB   C4B 5916  25.264  -1.252  22.819  0.0066 -0.2115  0.1611
  247BOLB   NC2 5917  26.716  -3.236  23.267  0.1512  0.1507 -0.0720
  247BOLB   PO2 5918  26.960  -3.133  23.794  0.0312  0.0753  0.3050
  247BOLB   GL3 5919  26.610  -2.892  23.572 -0.2653 -0.0336  0.1626
  247BOLB   GL4 5920  26.308  -2.868  23.500  0.2267  0.3013  0.1294
  247BOLB   C1C 5921  26.382  -2.815  24.003  0.0375  0.1406  0.2568
  247BOLB   C2C 5922  26.088  -2.571  24.096  0.0332 -0.3068  0.3498
  247BOLB   C3C 5923  25.605  -2.450  24.032 -0.0822  0.0101 -0.0120
  247BOLB   C4C 5924  25.300  -2.099  23.905 -0.0676 -0.1071 -0.0190
  247BOLB   C1D 5925  26.030  -3.064  23.770 -0.1263 -0.2291 -0.0803
  247BOLB   C2D 5926  25.726  -3.052  23.923  0.2272 -0.1199  0.0401
  247BOLB   C3D 5927  25.350  -2.853  23.954 -0.0835 -0.0734  0.3417
  247BOLB   C4D 5928  24.986  -2.570  23.825 -0.1375  0.1338  0.1506
  248BOLB   NC1 5929  14.037  -3.206  28.406 -0.0268 -0.1326 -0.1406
  248BOLB   PO1 5930  14.402  -3.406  28.284  0.1343  0.2185  0.1494
  248BOLB   GL1 5931  14.216  -3.678  28.558  0.1816 -0.0984 -0.0880
  248BOLB   GL2 5932  14.265  -3.617  28.808  0.1720 -0.0291  0.0957
  248BOLB   C1A 5933  13.972  -3.969  28.632 -0.0196  0.1975 -0.1038
  248BOLB   C2A 5934  14.031  -4.366  28.690 -0.1348  0.1708 -0.1540
  248BOLB   C3A 5935  13.999  -4.669  28.496  0.0192 -0.1599 -0.0014
  248BOLB   C4A 5936  14.010  -5.080  28.638 -0.2356  0.0241 -0.2353
  248BOLB   C1B 5937  14.391  -3.800  29.235 -0.0677  0.4378  0.2147
  248BOLB   C2B 5938  14.180  -3.893  29.605  0.1025  0.0971 -0.1184
  248BOLB   C3B 5939  14.305  -4.206  29.945  0.3587 -0.0264  0.0191
  248BOLB   C4B 5940  14.786  -4.128  30.192  0.2102 -0.1024 -0.2758
  248BOLB   NC2 5941  14.368  -7.102  29.654 -0.0571  0.3966 -0.0998
  248BOLB   PO2 5942  14.353  -6.796  30.067 -0.0420  0.4653  0.0412
  248BOLB   GL3 5943  14.222  -6.457  29.743 -0.0535  0.1749 -0.1824
  248BOLB   GL4 5944  14.335  -6.633  29.477 -0.1277  0.0744  0.1318
  248BOLB   C1C 5945  13.985  -6.257  29.526  0.0266  0.4703 -0.1241
  248BOLB   C2C 5946  13.972  -5.918  29.152 -0.1320 -0.0765 -0.0105
  248BOLB   C3C 5947  14.008  -5.797  28.790 -0.1257  0.2293 -0.3011
  248BOLB   C4C 5948  14.197  -5.450  28.656 -0.1721 -0.0761 -0.0632
  248BOLB   C1D 5949  14.393  -6.199  29.228  0.2933  0.2831 -0.1365
  248BOLB   C2D 5950  14.441  -5.868  29.006  0.0585 -0.0421  0.0781
  248BOLB   C3D 5951  14.622  -5.459  28.929 -0.1423  0.0185  0.2494
  248BOLB   C4D 5952  14.827  -5.170  28.584  0.1693 -0.2518  0.0050
  249BOLB   NC1 5953   9.864   5.059  31.601  0.1227 -0.1704  0.2723
  249BOLB   PO1 5954   9.751   5.435  31.479  0.0849  0.2638 -0.2517
  249BOLB   GL1 5955   9.511   5.364  31.848  0.2247  0.1116  0.1110
  249BOLB   GL2 5956   9.230   5.559  31.652  0.0437 -0.0921  0.0024
  249BOLB   C1A 5957   9.201   5.363  32.171 -0.1892 -0.2300  0.0356
  249BOLB   C2A 5958   8.968   5.258  32.475  0.3025  0.0863 -0.0430
  249BOLB   C3A 5959   8.756   5.061  32.840 -0.2558  0.1943  0.1041
  249BOLB   C4A 5960   8.329   5.025  32.919 -0.0321 -0.0491  0.0504
  249BOLB   C1B 5961   8.845   5.746  31.826 -0.0411  0.0764  0.1516
  249BOLB   C2B 5962   8.578   5.836  32.021 -0.1303  0.2259 -0.0195
  249BOLB   C3B 5963   8.278   6.165  32.142  0.0366 -0.0933 -0.0475
  249BOLB   C4B 5964   8.131   6.436  32.475 -0.2449  0.0243  0.0445
  249BOLB   NC2 5965   6.015   3.892  34.066 -0.1308  0.1579  0.1399
  249BOLB   PO2 5966   6.483   4.029  33.993  0.0357 -0.0388  0.1472
  249BOLB   GL3 5967   6.427   4.455  33.793 -0.0847  0.2245 -0.0640
  249BOLB   GL4 5968   6.360   4.269  33.484  0.0449  0.2664  0.1294
  249BOLB   C1C 5969   6.826   4.645  33.644 -0.0936 -0.0665 -0.0760
  249BOLB   C2C 5970   7.217   4.618  33.468 -0.0164 -0.1205 -0.1345
  249BOLB   C3C 5971   7.604   4.881  33.310  0.0740  0.3786  0.1225
  249BOLB   C4C 5972   8.109   4.793  33.173 -0.1500 -0.0083  0.0695
  249BOLB   C1D 5973   6.636   4.233  33.198 -0.1895  0.1769 -0.4124
  249BOLB   C2D 5974   6.913   4.502  33.085  0.2376  0.3191  0.2510
  249BOLB   C3D 5975   7.203   4.754  32.812  0.0213  0.1887  0.1115
  249BOLB   C4D 5976   7.669   5.021  32.797  0.0121 -0.2583  0.1670
  250BOLB   NC1 5977   7.382   5.422  24.671 -0.0107  0.3276 -0.0196
  250BOLB   PO1 5978   7.336   5.596  24.245 -0.1318  0.1088  0.0900
  250BOLB   GL1 5979   6.845   5.640  24.513  0.1233  0.2368 -0.0017
  250BOLB   GL2 5980   6.809   5.780  24.866 -0.1059  0.1709  0.0321
  250BOLB   C1A 5981   6.467   5.423  24.681 -0.2443  0.1311  0.1419
  250BOLB   C2A 5982   5.986   5.592  24.725 -0.0693  0.1940 -0.0268
  250BOLB   C3A 5983   5.670   5.825  24.707  0.1436 -0.1806  0.0980
  250BOLB   C4A 5984   5.451   6.162  24.926  0.4966  0.4519  0.0666
  250BOLB   C1B 5985   6.435   5.935  24.668 -0.2157  0.2388 -0.4701
  250BOLB   C2B 5986   6.269   5.731  24.320 -0.0655  0.1247  0.0303
  250BOLB   C3B 5987   6.048   5.597  24.023  0.0971  0.1773 -0.0795
  250BOLB   C4B 5988   6.028   5.469  23.596  0.0862  0.3194 -0.0144
  250BOLB   NC2 5989   3.650   7.072  25.213 -0.1117  0.3103 -0.1086
  250BOLB   PO2 5990   3.732   7.538  25.264 -0.3511 -0.1368  0.1676
  250BOLB   GL3 5991   4.119   7.390  25.194  0.2164 -0.2298 -0.1482
  250BOLB   GL4 5992   4.111   6.961  25.311  0.1331  0.0126  0.1531
  250BOLB   C1C 5993   4.466   7.098  25.020 -0.1578 -0.0237  0.1305
  250BOLB   C2C 5994   4.699   6.827  24.763 -0.1343  0.2110  0.0185
  250BOLB   C3C 5995   5.021   6.676  24.691 -0.1884  0.1020 -0.0807
  250BOLB   C4C 5996   5.412   6.500  24.881 -0.1015 -0.1875  0.4153
  250BOLB   C1D 5997   4.233   6.970  25.689 -0.4262  0.0805 -0.1071
  250BOLB   C2D 5998   4.471   6.818  26.109 -0.0701  0.2126  0.0843
  250BOLB   C3D 5999   4.818   6.459  26.114 -0.0018  0.1006  0.0700
  250BOLB   C4D 6000   5.182   6.312  26.251  0.2732  0.2703 -0.0816
  251BOLB   NC1 6001   2.773   2.322  27.125  0.0067 -0.1328  0.1432
  251BOLB   PO1 6002   2.645   1.965  26.916 -0.0149  0.2444 -0.0497
  251BOLB   GL1 6003   2.999   1.981  26.797  0.0595  0.1960  0.1252
  251BOLB   GL2 6004   2.988   1.629  26.829 -0.1456 -0.1409 -0.1361
  251BOLB   C1A 6005   3.409   1.981  26.487 -0.0640  0.0089  0.3023
  251BOLB   C2A 6006   3.833   2.313  26.532  0.1258 -0.2244  0.0176
  251BOLB   C3A 6007   4.188   2.488  26.534 -0.2214  0.1973  0.1946
  251BOLB   C4A 6008   4.622   2.750  26.460 -0.0845  0.2149 -0.0182
  251BOLB   C1B 6009   3.364   1.536  26.701 -0.1103  0.2945 -0.1407
  251BOLB   C2B 6010   3.770   1.543  26.414 -0.2615  0.1715  0.2086
  251BOLB   C3B 6011   4.096   1.563  26.073  0.1424  0.1566 -0.0875
  251BOLB   C4B 6012   4.520   1.577  26.363 -0.2001 -0.1257 -0.2606
  251BOLB   NC2 6013   2.984   3.725  26.781 -0.0570  0.1884  0.3315
  251BOLB   PO2 6014   2.891   4.130  26.664 -0.1023  0.2926  0.2292
  251BOLB   GL3 6015   3.339   4.024  26.580 -0.0968 -0.0058 -0.0635
  251BOLB   GL4 6016   3.489   4.255  26.500  0.1187 -0.0618  0.1205
  251BOLB   C1C 6017   3.534   3.634  26.319  0.1033 -0.1777  0.2356
  251BOLB   C2C 6018   3.668   3.241  26.398  0.0333  0.0408 -0.0240
  251BOLB   C3C 6019   4.029   3.230  26.705  0.2760 -0.0915  0.0147
  251BOLB   C4C 6020   4.429   3.058  26.657 -0.0972 -0.0174 -0.0139
  251BOLB   C1D 6021   3.797   4.077  26.268 -0.0608  0.1865  0.3601
  251BOLB   C2D 6022   4.272   4.060  26.072  0.1352 -0.0587 -0.0552
  251BOLB   C3D 6023   4.518   3.734  25.947 -0.2923  0.3332 -0.2801
  251BOLB   C4D 6024   4.568   3.678  25.532  0.0226  0.0416 -0.0067
  252BOLB   NC1 6025  21.799   8.521  30.201 -0.0960  0.0793 -0.0597
  252BOLB   PO1 6026  21.532   8.287  30.178  0.1576 -0.0213 -0.4110
  252BOLB   GL1 6027  21.762   8.124  30.643 -0.0497 -0.0246  0.0140
  252BOLB   GL2 6028  21.623   8.122  30.920  0.0153 -0.3009  0.1278
  252BOLB   C1A 6029  22.138   8.403  30.961  0.3380 -0.2817 -0.5151
  252BOLB   C2A 6030  22.262   8.591  31.392 -0.5975  0.0685 -0.0280
  252BOLB   C3A 6031  22.656   8.690  31.477  0.1535 -0.0679  0.1452
  252BOLB   C4A 6032  22.949   8.859  31.671  0.3548  0.2272 -0.1398
  252BOLB   C1B 6033  21.703   8.381  31.216  0.0703 -0.0283  0.2239
  252BOLB   C2B 6034  21.787   8.642  31.540  0.1412 -0.3223 -0.0979
  252BOLB   C3B 6035  21.921   8.704  31.927  0.1412 -0.0724  0.0026
  252BOLB   C4B 6036  22.145   8.848  32.280 -0.2646  0.0416 -0.1217
  252BOLB   NC2 6037  24.123  10.400  33.120 -0.4403 -0.0156  0.0641
  252BOLB   PO2 6038  24.343  10.520  32.705 -0.1547  0.0215  0.0779
  252BOLB   GL3 6039  24.229  10.391  32.454  0.1794  0.1009  0.1996
  252BOLB   GL4 6040  23.895  10.452  32.498  0.0867  0.4895 -0.0221
  252BOLB   C1C 6041  24.052   9.920  32.371  0.1541  0.1669  0.0292
  252BOLB   C2C 6042  23.659   9.853  32.069 -0.1500 -0.0454  0.0946
  252BOLB   C3C 6043  23.368   9.596  31.882 -0.3055 -0.1916 -0.1565
  252BOLB   C4C 6044  23.026   9.213  31.811  0.0493  0.0221 -0.1535
  252BOLB   C1D 6045  23.548  10.457  32.121  0.3099 -0.2168 -0.1969
  252BOLB   C2D 6046  23.275  10.115  31.984 -0.3701  0.2958  0.0910
  252BOLB   C3D 6047  22.993   9.738  32.179 -0.3977 -0.3194  0.2188
  252BOLB   C4D 6048  22.825   9.616  32.644  0.3149 -0.2038  0.1386
  253BOLB   NC1 6049  21.726   3.175  18.314 -0.1450 -0.1550  0.0537
  253BOLB   PO1 6050  22.185   3.297  18.302  0.1744 -0.0570  0.1192
  253BOLB   GL1 6051  22.543   3.335  18.152  0.1624 -0.1132 -0.1669
  253BOLB   GL2 6052  22.519   3.228  17.838  0.1113 -0.0438  0.2115
  253BOLB   C1A 6053  22.942   3.453  17.958  0.4203 -0.0897  0.1086
  253BOLB   C2A 6054  23.129   3.530  17.553 -0.2758  0.1761  0.0568
  253BOLB   C3A 6055  23.247   3.824  17.319 -0.0780 -0.2814  0.2657
  253BOLB   C4A 6056  23.542   3.996  17.016  0.3153 -0.1695  0.2555
  253BOLB   C1B 6057  22.793   3.081  17.591 -0.0594  0.2778 -0.1579
  253BOLB   C2B 6058  22.966   2.671  17.421  0.0498  0.1499 -0.3677
  253BOLB   C3B 6059  23.051   2.307  17.311  0.0038 -0.2731  0.0044
  253BOLB   C4B 6060  23.248   1.896  17.275 -0.2712  0.4514 -0.3004
  253BOLB   NC2 6061  25.594   4.577  16.210  0.0158 -0.2933 -0.2601
  253BOLB   PO2 6062  25.818   4.246  16.154 -0.0490  0.0653  0.1521
  253BOLB   GL3 6063  25.394   4.207  16.353  0.0049 -0.1731 -0.2708
  253BOLB   GL4 6064  25.154   3.989  16.146  0.0152  0.3311  0.3270
  253BOLB   C1C 6065  25.282   4.121  16.766 -0.1152  0.0303  0.0014
  253BOLB   C2C 6066  24.822   4.088  16.891  0.3119 -0.3946 -0.1813
  253BOLB   C3C 6067  24.381   4.129  16.797  0.1328  0.1908  0.3720
  253BOLB   C4C 6068  23.937   4.204  16.926 -0.2789  0.0969  0.1329
  253BOLB   C1D 6069  24.907   4.151  16.329 -0.4380  0.0321 -0.2119
  253BOLB   C2D 6070  24.449   4.342  16.301  0.4105  0.0485  0.2204
  253BOLB   C3D 6071  24.057   4.407  16.464 -0.1077  0.2178 -0.1190
  253BOLB   C4D 6072  23.761   4.680  16.735  0.1086 -0.3394  0.5788
  254BOLB   NC1 6073   7.346   4.081  24.597 -0.4529 -0.4007  0.2443
  254BOLB   PO1 6074   7.001   4.111  24.288  0.0342  0.0074  0.0423
  254BOLB   GL1 6075   6.573   3.945  24.192  0.2244 -0.0482  0.4103
  254BOLB   GL2 6076   6.301   3.974  24.405 -0.0543 -0.2866  0.2148
  254BOLB   C1A 6077   6.302   3.699  23.993  0.0811  0.2468  0.0549
  254BOLB   C2A 6078   5.854   3.813  23.813  0.0830  0.1787  0.0414
  254BOLB   C3A 6079   5.341   3.781  23.845  0.1677 -0.1834 -0.0894
  254BOLB   C4A 6080   5.168   3.270  23.779 -0.1177  0.1039  0.1281
  254BOLB   C1B 6081   5.990   4.321  24.441  0.1169  0.3184  0.0826
  254BOLB   C2B 6082   5.551   4.379  24.676 -0.0850 -0.0017  0.1112
  254BOLB   C3B 6083   5.057   4.311  24.672 -0.4107 -0.0483  0.1630
  254BOLB   C4B 6084   4.595   4.506  24.689 -0.0999 -0.5728  0.0495
  254BOLB   NC2 6085   2.974   2.777  23.584 -0.1366 -0.4237 -0.1304
  254BOLB   PO2 6086   2.921   3.068  23.138  0.0508 -0.0505  0.0129
  254BOLB   GL3 6087   3.337   3.045  23.267  0.0716  0.0613  0.3730
  254BOLB   GL4 6088   3.615   3.047  23.082  0.1238 -0.2883 -0.1651
  254BOLB   C1C 6089   3.589   3.079  23.582 -0.0894 -0.1459  0.3321
  254BOLB   C2C 6090   3.983   3.142  23.633  0.1225  0.1932 -0.1218
  254BOLB   C3C 6091   4.368   3.216  23.852 -0.2709  0.1579 -0.1407
  254BOLB   C4C 6092   4.813   3.195  23.810  0.3283  0.2784  0.1296
  254BOLB   C1D 6093   3.944   2.798  23.256  0.3472  0.2192 -0.2839
  254BOLB   C2D 6094   4.272   2.785  23.431  0.1495  0.0263  0.4302
  254BOLB   C3D 6095   4.634   3.014  23.371  0.0583 -0.1368  0.1295
  254BOLB   C4D 6096   4.935   2.858  23.166 -0.3130  0.0112 -0.3140
  255BOLB   NC1 6097  12.953   5.367  33.034 -0.0623 -0.0285 -0.2274
  255BOLB   PO1 6098  12.418   5.269  33.096 -0.1333  0.1128 -0.1729
  255BOLB   GL1 6099  12.264   5.050  33.324 -0.3600 -0.0267 -0.1259
  255BOLB   GL2 6100  11.989   5.104  33.374  0.1651  0.0570 -0.1843
  255BOLB   C1A 6101  12.344   4.956  33.768 -0.2435 -0.0120 -0.2041
  255BOLB   C2A 6102  12.184   4.895  34.297  0.4098 -0.1724 -0.1046
  255BOLB   C3A 6103  11.992   5.174  34.493  0.2128 -0.0153  0.0191
  255BOLB   C4A 6104  11.718   5.232  34.799  0.2703 -0.3680  0.0601
  255BOLB   C1B 6105  11.855   5.167  33.805 -0.2054  0.1453  0.0460
  255BOLB   C2B 6106  11.550   5.173  34.080 -0.0012  0.1903 -0.1125
  255BOLB   C3B 6107  11.239   4.881  34.341  0.0830 -0.0026 -0.0294
  255BOLB   C4B 6108  10.870   4.882  34.627 -0.2552 -0.0551 -0.0612
  255BOLB   NC2 6109  10.584   5.527  37.269  0.5612 -0.1108  0.0705
  255BOLB   PO2 6110  10.841   5.165  37.139 -0.0036 -0.1484 -0.2154
  255BOLB   GL3 6111  11.065   5.251  36.738  0.1834  0.2104  0.2994
  255BOLB   GL4 6112  11.307   4.965  36.780 -0.2175  0.0844 -0.0336
  255BOLB   C1C 6113  11.079   5.382  36.343  0.0835  0.0610  0.0030
  255BOLB   C2C 6114  11.328   5.329  36.056  0.0900  0.0042  0.1337
  255BOLB   C3C 6115  11.512   5.361  35.668 -0.5047  0.1857 -0.1842
  255BOLB   C4C 6116  11.701   5.157  35.259  0.3498 -0.2757  0.3370
  255BOLB   C1D 6117  11.447   4.872  36.395  0.0110  0.0560  0.2472
  255BOLB   C2D 6118  11.719   4.858  36.021 -0.2092 -0.0899 -0.2373
  255BOLB   C3D 6119  11.905   4.903  35.574 -0.0277 -0.1433 -0.2119
  255BOLB   C4D 6120  12.125   4.877  35.227  0.0949 -0.1237  0.0989
  256BOLB   NC1 6121  19.184   8.963  32.332 -0.1780  0.1348 -0.0701
  256BOLB   PO1 6122  18.817   8.955  32.490 -0.1726 -0.1863 -0.0023
  256BOLB   GL1 6123  18.910   9.382  32.672 -0.3103 -0.1598 -0.0248
  256BOLB   GL2 6124  19.103   9.533  32.403  0.3827  0.0254 -0.0268
  256BOLB   C1A 6125  18.934   9.773  32.831 -0.1998  0.0407 -0.3153
  256BOLB   C2A 6126  19.327  10.071  32.990 -0.1763 -0.0220  0.0191
  256BOLB   C3A 6127  19.539  10.411  32.942  0.2709  0.0416  0.4137
  256BOLB   C4A 6128  19.859  10.640  32.902 -0.0712  0.1344  0.2351
  256BOLB   C1B 6129  19.417   9.591  32.602 -0.5861 -0.1006 -0.2015
  256BOLB   C2B 6130  19.719   9.836  32.567 -0.1521 -0.2394 -0.0948
  256BOLB   C3B 6131  19.878  10.237  32.528 -0.2784  0.0123  0.0567
  256BOLB   C4B 6132  20.037  10.565  32.261  0.1832  0.0874  0.1260
  256BOLB   NC2 6133  20.294  11.243  35.134  0.3103 -0.1613 -0.0574
  256BOLB   PO2 6134  20.476  11.617  34.945  0.2422 -0.2715  0.0309
  256BOLB   GL3 6135  20.345  11.690  34.459  0.0645 -0.1181 -0.1313
  256BOLB   GL4 6136  20.056  11.595  34.479 -0.1110  0.1595 -0.0660
  256BOLB   C1C 6137  20.190  11.570  33.957 -0.3531  0.0850  0.2452
  256BOLB   C2C 6138  20.104  11.598  33.522  0.0593 -0.2289  0.2103
  256BOLB   C3C 6139  20.095  11.427  33.141  0.2048  0.5597  0.4362
  256BOLB   C4C 6140  19.941  11.090  33.001 -0.2130  0.1846 -0.1762
  256BOLB   C1D 6141  20.016  11.102  34.447  0.0527  0.0853  0.0831
  256BOLB   C2D 6142  19.834  10.703  34.166 -0.0443  0.0869  0.1617
  256BOLB   C3D 6143  19.795  10.294  34.314  0.3035  0.0341  0.4357
  256BOLB   C4D 6144  20.064   9.902  34.524 -0.1534 -0.2545 -0.3828
  257BOLB   NC1 6145  24.672   4.555  28.207 -0.1698 -0.1592  0.5228
  257BOLB   PO1 6146  24.624   4.130  28.474  0.0416 -0.1038 -0.0609
  257BOLB   GL1 6147  25.003   4.212  28.399 -0.4442 -0.0818 -0.2418
  257BOLB   GL2 6148  25.074   4.178  28.181  0.1470 -0.0468  0.1228
  257BOLB   C1A 6149  25.375   4.418  28.519  0.0909 -0.0978  0.0261
  257BOLB   C2A 6150  25.790   4.292  28.643  0.4873  0.0976 -0.1464
  257BOLB   C3A 6151  26.120   4.100  28.326 -0.2343  0.0473 -0.2885
  257BOLB   C4A 6152  26.490   4.050  28.234  0.3905  0.1000  0.1997
  257BOLB   C1B 6153  25.545   4.010  28.205  0.1807  0.2586 -0.2897
  257BOLB   C2B 6154  25.930   3.811  27.960 -0.0040  0.0191  0.1802
  257BOLB   C3B 6155  26.432   3.739  27.833  0.0527 -0.1164 -0.2446
  257BOLB   C4B 6156  26.773   3.919  27.798  0.2270 -0.2174  0.1965
  257BOLB   NC2 6157  28.634   4.597  29.369  0.1884  0.2243 -0.0999
  257BOLB   PO2 6158  28.738   4.237  29.111 -0.3865 -0.2310  0.0838
  257BOLB   GL3 6159  28.324   4.177  29.030 -0.0239  0.0761 -0.0588
  257BOLB   GL4 6160  28.441   3.811  29.123 -0.1331 -0.3108  0.1967
  257BOLB   C1C 6161  27.915   4.268  29.036 -0.0631  0.1313  0.0664
  257BOLB   C2C 6162  27.568   4.278  28.714  0.2284  0.1030  0.0261
  257BOLB   C3C 6163  27.255   4.303  28.784 -0.1979 -0.1487 -0.2301
  257BOLB   C4C 6164  26.808   4.371  28.545 -0.1246  0.1815 -0.2585
  257BOLB   C1D 6165  28.121   3.667  28.779 -0.1384  0.1996 -0.0969
  257BOLB   C2D 6166  27.768   3.374  28.780  0.1789 -0.0368  0.3668
  257BOLB   C3D 6167  27.407   3.296  28.954 -0.0129  0.0592  0.1087
  257BOLB   C4D 6168  27.010   3.145  29.177 -0.2487  0.2993  0.3007
  258BOLB   NC1 6169  24.350   2.066  22.332 -0.2077  0.1961 -0.2431
  258BOLB   PO1 6170  24.532   2.413  22.560 -0.2456 -0.1434  0.2088
  258BOLB   GL1 6171  24.870   2.286  22.359  0.1173 -0.1391  0.4217
  258BOLB   GL2 6172  24.802   1.947  22.156  0.0918  0.4526  0.0994
  258BOLB   C1A 6173  25.269   2.457  22.235 -0.2319 -0.1767  0.3630
  258BOLB   C2A 6174  25.546   2.304  22.108 -0.2772  0.0637 -0.4656
  258BOLB   C3A 6175  25.929   2.346  22.046 -0.1552 -0.1393  0.2226
  258BOLB   C4A 6176  26.411   2.483  21.843  0.2542  0.2042 -0.0253
  258BOLB   C1B 6177  25.202   1.984  21.906  0.0018 -0.0808  0.0802
  258BOLB   C2B 6178  25.553   1.997  21.623  0.4149 -0.1103  0.2076
  258BOLB   C3B 6179  25.993   2.084  21.470 -0.0380  0.0316 -0.2870
  258BOLB   C4B 6180  26.415   2.440  21.341 -0.2315 -0.2807 -0.0159
  258BOLB   NC2 6181  29.031   2.517  20.983  0.2074 -0.2983 -0.1238
  258BOLB   PO2 6182  28.609   2.488  21.230 -0.2639  0.2655  0.1211
  258BOLB   GL3 6183  28.279   2.778  21.391  0.1661  0.0001 -0.1345
  258BOLB   GL4 6184  28.244   2.833  21.788  0.0414 -0.2643  0.1693
  258BOLB   C1C 6185  27.888   3.088  21.443  0.1061 -0.3866  0.1514
  258BOLB   C2C 6186  27.444   3.056  21.593  0.0272 -0.0206  0.1400
  258BOLB   C3C 6187  27.057   2.835  21.558 -0.0790  0.4889 -0.0058
  258BOLB   C4C 6188  26.668   2.725  21.675 -0.3972  0.1026  0.1252
  258BOLB   C1D 6189  27.839   2.606  21.831 -0.0194 -0.0411 -0.0146
  258BOLB   C2D 6190  27.361   2.569  21.836  0.1486  0.0386 -0.2057
  258BOLB   C3D 6191  26.982   2.598  22.093 -0.1881  0.1428  0.2856
  258BOLB   C4D 6192  26.618   2.970  22.197 -0.2618  0.0174  0.0925
  259BOLB   NC1 6193  10.015  -2.447  23.241  0.1809  0.2552 -0.1079
  259BOLB   PO1 6194  10.092  -2.628  23.608  0.0460  0.2293 -0.2389
  259BOLB   GL1 6195   9.859  -2.921  23.546 -0.1608  0.2307 -0.2424
  259BOLB   GL2 6196   9.694  -2.775  23.909  0.0596  0.1763  0.0781
  259BOLB   C1A 6197   9.497  -3.091  23.507  0.3150 -0.2072  0.2005
  259BOLB   C2A 6198   9.470  -3.464  23.384 -0.2778 -0.3885  0.1588
  259BOLB   C3A 6199   9.230  -3.651  23.149  0.1076  0.2503 -0.0035
  259BOLB   C4A 6200   8.946  -3.730  22.868 -0.1143 -0.2967  0.0380
  259BOLB   C1B 6201   9.321  -2.971  23.967 -0.2251  0.0879  0.1773
  259BOLB   C2B 6202   8.976  -3.175  23.771  0.1209  0.0932 -0.2575
  259BOLB   C3B 6203   8.856  -3.430  23.395  0.1076  0.0489  0.1021
  259BOLB   C4B 6204   8.539  -3.683  23.212 -0.6159 -0.1550  0.0108
  259BOLB   NC2 6205   6.919  -5.090  24.091 -0.1307  0.0510 -0.1907
  259BOLB   PO2 6206   7.194  -5.445  23.733 -0.1805  0.0560 -0.0620
  259BOLB   GL3 6207   7.384  -5.154  23.466  0.3935  0.3969 -0.0768
  259BOLB   GL4 6208   7.695  -5.075  23.657  0.0582 -0.1179  0.2371
  259BOLB   C1C 6209   7.656  -4.880  23.134  0.1221  0.4088  0.0727
  259BOLB   C2C 6210   8.011  -4.701  23.031 -0.2363 -0.1551 -0.0864
  259BOLB   C3C 6211   8.315  -4.390  23.026 -0.3095 -0.3105 -0.0710
  259BOLB   C4C 6212   8.718  -4.149  22.824 -0.0945 -0.0504  0.0981
  259BOLB   C1D 6213   7.831  -4.716  23.562  0.0603 -0.1899  0.2808
  259BOLB   C2D 6214   7.862  -4.345  23.374 -0.1396  0.0617 -0.2468
  259BOLB   C3D 6215   8.093  -4.040  23.346  0.0625  0.2259  0.0021
  259BOLB   C4D 6216   8.172  -3.784  23.615  0.2324 -0.1832 -0.1493
  260BOLB   NC1 6217   8.978   0.866  19.712 -0.2240  0.1855  0.3341
  260BOLB   PO1 6218   9.422   0.653  19.522 -0.0335 -0.4099  0.1392
  260BOLB   GL1 6219   9.102   0.562  19.232 -0.3570 -0.0757 -0.1112
  260BOLB   GL2 6220   9.410   0.547  19.006 -0.0959 -0.1386  0.0141
  260BOLB   C1A 6221   8.822   0.461  19.130 -0.2467 -0.2586  0.1685
  260BOLB   C2A 6222   8.359   0.404  19.177 -0.1623 -0.1623 -0.0418
  260BOLB   C3A 6223   7.953   0.285  19.144 -0.3360  0.0565 -0.0298
  260BOLB   C4A 6224   7.533   0.323  18.830 -0.0791  0.0586 -0.1424
  260BOLB   C1B 6225   9.397   0.277  18.633  0.1346 -0.3294  0.2151
  260BOLB   C2B 6226   9.217  -0.085  18.499  0.2459  0.1919 -0.1041
  260BOLB   C3B 6227   9.200  -0.445  18.221 -0.0121 -0.0964  0.0319
  260BOLB   C4B 6228   9.430  -0.720  18.105 -0.0712  0.1797 -0.1785
  260BOLB   NC2 6229   5.855  -0.747  17.729 -0.1839  0.0134 -0.2281
  260BOLB   PO2 6230   5.538  -0.458  17.715 -0.3721  0.2412  0.0763
  260BOLB   GL3 6231   5.867  -0.302  17.981 -0.0250  0.0830  0.3315
  260BOLB   GL4 6232   6.183  -0.441  17.994 -0.0017  0.1516 -0.0718
  260BOLB   C1C 6233   6.058   0.092  18.209 -0.0861 -0.2584 -0.1991
  260BOLB   C2C 6234   6.498   0.160  18.303  0.1415 -0.2783 -0.0211
  260BOLB   C3C 6235   6.835   0.112  18.499  0.2388  0.1522 -0.3545
  260BOLB   C4C 6236   7.182   0.204  18.744 -0.0812 -0.1136 -0.1763
  260BOLB   C1D 6237   6.524  -0.157  17.970  0.0912 -0.0397 -0.0736
  260BOLB   C2D 6238   6.971  -0.023  18.043 -0.3416  0.0992 -0.1455
  260BOLB   C3D 6239   7.261   0.225  18.219  0.1226  0.1534 -0.1331
  260BOLB   C4D 6240   7.225   0.572  18.143  0.1732 -0.0614  0.4769
  261BOLB   NC1 6241  10.206   5.095  19.130 -0.0689 -0.2074 -0.2271
  261BOLB   PO1 6242  10.561   5.338  19.201  0.0077  0.1195  0.0696
  261BOLB   GL1 6243  10.471   5.538  18.806 -0.3023 -0.1893  0.2665
  261BOLB   GL2 6244  10.737   5.620  18.499 -0.1682 -0.1171  0.2958
  261BOLB   C1A 6245  10.352   5.812  18.585 -0.0873 -0.4505  0.1388
  261BOLB   C2A 6246  10.140   5.852  18.170 -0.2723  0.2978  0.2029
  261BOLB   C3A 6247  10.149   6.200  17.809  0.2427  0.0133  0.0556
  261BOLB   C4A 6248  10.045   6.418  17.383 -0.3066 -0.3781  0.1798
  261BOLB   C1B 6249  10.608   5.514  18.055  0.0591 -0.1338  0.4627
  261BOLB   C2B 6250  10.463   5.360  17.642  0.1537 -0.0959  0.6108
  261BOLB   C3B 6251  10.543   5.018  17.503 -0.3783 -0.2578  0.4542
  261BOLB   C4B 6252  10.593   4.728  17.233 -0.1348  0.0299  0.1114
  261BOLB   NC2 6253   9.069   6.559  15.053  0.1309  0.2048 -0.2193
  261BOLB   PO2 6254   9.019   6.180  15.129 -0.2805 -0.2730 -0.0922
  261BOLB   GL3 6255   9.432   6.014  15.448 -0.0135  0.1393  0.0868
  261BOLB   GL4 6256   9.551   5.679  15.429 -0.0207 -0.0848  0.1105
  261BOLB   C1C 6257   9.727   6.155  15.778 -0.0824  0.1652 -0.1633
  261BOLB   C2C 6258  10.002   6.314  16.128  0.2601 -0.1330 -0.0569
  261BOLB   C3C 6259  10.186   6.392  16.505 -0.4469  0.0863 -0.0481
  261BOLB   C4C 6260  10.213   6.417  16.949  0.1089  0.2397  0.1681
  261BOLB   C1D 6261   9.938   5.503  15.551 -0.0790 -0.1471  0.1751
  261BOLB   C2D 6262  10.173   5.377  15.886  0.1866 -0.1790  0.2350
  261BOLB   C3D 6263  10.432   5.389  16.227 -0.2944  0.1516 -0.0424
  261BOLB   C4D 6264  10.713   5.705  16.614  0.0688 -0.0010 -0.1577
  262BOLB   NC1 6265  26.448  -5.360  17.419  0.0432 -0.0348  0.1615
  262BOLB   PO1 6266  26.588  -5.347  16.977  0.0832 -0.2761  0.0979
  262BOLB   GL1 6267  26.124  -5.403  16.732  0.3655 -0.0219 -0.3093
  262BOLB   GL2 6268  26.017  -5.779  16.707  0.0912 -0.0833  0.3345
  262BOLB   C1A 6269  25.677  -5.256  16.667  0.0391 -0.1040  0.0256
  262BOLB   C2A 6270  25.217  -5.270  16.675 -0.3399  0.1081  0.0777
  262BOLB   C3A 6271  25.149  -5.477  17.040 -0.2201 -0.1603  0.1721
  262BOLB   C4A 6272  25.255  -5.382  17.552 -0.0287  0.0490  0.1895
  262BOLB   C1B 6273  25.584  -5.781  16.830  0.0183  0.0128  0.0335
  262BOLB   C2B 6274  25.476  -5.791  17.282 -0.0316 -0.1621  0.0275
  262BOLB   C3B 6275  25.114  -5.844  17.519  0.1588 -0.0031 -0.1524
  262BOLB   C4B 6276  24.823  -6.099  17.774  0.0696 -0.1670 -0.1035
  262BOLB   NC2 6277  25.883  -5.702  18.681 -0.0607  0.1919  0.1846
  262BOLB   PO2 6278  25.682  -5.605  19.057  0.2453 -0.0360  0.1505
  262BOLB   GL3 6279  25.312  -5.324  19.128 -0.2672  0.0822 -0.0929
  262BOLB   GL4 6280  25.233  -5.102  19.453 -0.0298 -0.1762  0.2881
  262BOLB   C1C 6281  24.984  -5.108  18.989 -0.0255 -0.4083 -0.0354
  262BOLB   C2C 6282  24.783  -5.006  18.620 -0.1628 -0.1371  0.1656
  262BOLB   C3C 6283  24.782  -5.161  18.222  0.1769 -0.0021 -0.2827
  262BOLB   C4C 6284  24.956  -5.174  17.909 -0.0645  0.2608 -0.1627
  262BOLB   C1D 6285  24.814  -4.887  19.380  0.3161  0.1762  0.3304
  262BOLB   C2D 6286  24.762  -4.668  19.165 -0.2243 -0.1239  0.1366
  262BOLB   C3D 6287  24.949  -4.466  18.754  0.1042 -0.0816 -0.0036
  262BOLB   C4D 6288  24.629  -4.574  18.512 -0.0640  0.1284  0.0814
  263BOLB   NC1 6289   9.154  -0.388  21.077 -0.0064  0.0349  0.1204
  263BOLB   PO1 6290   8.840  -0.580  21.177 -0.1158  0.3067  0.0679
  263BOLB   GL1 6291   8.473  -0.595  21.142  0.0722  0.0183  0.2822
  263BOLB   GL2 6292   8.548  -0.437  20.811  0.3694 -0.0521  0.1155
  263BOLB   C1A 6293   8.132  -0.876  21.057 -0.1910 -0.1117 -0.2653
  263BOLB   C2A 6294   7.665  -0.877  20.919  0.1914 -0.3427  0.2491
  263BOLB   C3A 6295   7.208  -1.096  20.815 -0.1872  0.1824  0.0975
  263BOLB   C4A 6296   6.950  -1.302  20.652 -0.4097  0.0109 -0.0563
  263BOLB   C1B 6297   8.407  -0.623  20.417  0.1543 -0.1174 -0.0618
  263BOLB   C2B 6298   8.316  -0.454  20.073  0.2925  0.0494  0.3391
  263BOLB   C3B 6299   8.066  -0.532  19.662 -0.1573 -0.0344  0.2675
  263BOLB   C4B 6300   8.185  -0.754  19.238 -0.2687 -0.1382  0.1575
  263BOLB   NC2 6301   4.486  -2.542  20.888 -0.1672  0.0199  0.2966
  263BOLB   PO2 6302   4.820  -2.723  20.802  0.1119 -0.0646  0.3928
  263BOLB   GL3 6303   5.182  -2.457  21.009  0.2164  0.3392 -0.1125
  263BOLB   GL4 6304   5.256  -2.165  20.883 -0.1569  0.4476  0.4789
  263BOLB   C1C 6305   5.667  -2.298  21.024  0.1823 -0.1228  0.1347
  263BOLB   C2C 6306   6.077  -1.985  20.861  0.1409  0.1066 -0.0454
  263BOLB   C3C 6307   6.543  -1.977  20.663  0.2284  0.1709  0.0804
  263BOLB   C4C 6308   6.829  -1.689  20.613  0.0070  0.2596  0.1273
  263BOLB   C1D 6309   5.580  -1.904  20.758  0.2843  0.0613 -0.3404
  263BOLB   C2D 6310   5.717  -1.573  20.459  0.2302  0.1157  0.2737
  263BOLB   C3D 6311   5.997  -1.233  20.384  0.4045 -0.1436 -0.0191
  263BOLB   C4D 6312   6.103  -0.821  20.524 -0.1058 -0.0916  0.0198
  264BOLB   NC1 6313  18.050  -3.846  26.525  0.1706 -0.1358  0.2646
  264BOLB   PO1 6314  18.278  -3.770  26.994 -0.0937  0.1668  0.1778
  264BOLB   GL1 6315  18.527  -4.134  26.843 -0.1103  0.0972  0.2165
  264BOLB   GL2 6316  18.357  -4.314  26.632  0.0820 -0.0922  0.1908
  264BOLB   C1A 6317  18.841  -4.205  26.568  0.1660  0.1020  0.1873
  264BOLB   C2A 6318  19.007  -4.582  26.667 -0.1927 -0.0963 -0.2170
  264BOLB   C3A 6319  18.910  -4.980  26.883  0.1710 -0.0159  0.1242
  264BOLB   C4A 6320  18.970  -5.364  26.755  0.0246 -0.0947 -0.2050
  264BOLB   C1B 6321  18.548  -4.721  26.670 -0.1969 -0.0432  0.1175
  264BOLB   C2B 6322  18.748  -4.997  26.386 -0.0973  0.2497 -0.2371
  264BOLB   C3B 6323  19.206  -5.122  26.416 -0.1213 -0.3558 -0.0386
  264BOLB   C4B 6324  19.410  -5.098  26.099  0.4337 -0.0780 -0.0492
  264BOLB   NC2 6325  20.618  -7.500  26.265  0.2437 -0.1829  0.1958
  264BOLB   PO2 6326  20.208  -7.611  26.300  0.0392 -0.2183  0.0855
  264BOLB   GL3 6327  19.962  -7.236  26.318  0.0346  0.1120  0.0707
  264BOLB   GL4 6328  19.719  -7.259  26.119  0.0974 -0.0248  0.0046
  264BOLB   C1C 6329  19.988  -6.747  26.469 -0.1156  0.1953  0.0658
  264BOLB   C2C 6330  19.966  -6.280  26.588 -0.0557  0.2259 -0.5380
  264BOLB   C3C 6331  19.562  -6.011  26.733 -0.2245 -0.2081 -0.1228
  264BOLB   C4C 6332  19.283  -5.720  26.886  0.2263 -0.2607 -0.1923
  264BOLB   C1D 6333  19.573  -6.853  26.279  0.0413 -0.4437 -0.0580
  264BOLB   C2D 6334  19.558  -6.400  26.307 -0.3112 -0.2871  0.4138
  264BOLB   C3D 6335  19.648  -5.889  26.280 -0.1142 -0.1181 -0.3104
  264BOLB   C4D 6336  19.422  -5.558  26.458 -0.1784 -0.1697 -0.0973
  265BOLB   NC1 6337  22.181  -0.544  29.317  0.1782  0.4918  0.0268
  265BOLB   PO1 6338  22.425  -0.203  29.362 -0.0214  0.1219 -0.1625
  265BOLB   GL1 6339  22.701  -0.255  29.613 -0.1434  0.2058 -0.0900
  265BOLB   GL2 6340  22.608  -0.589  29.701  0.1620  0.2005  0.0114
  265BOLB   C1A 6341  23.133  -0.386  29.767  0.1727  0.0345 -0.0012
  265BOLB   C2A 6342  23.459  -0.645  29.879 -0.2078 -0.1068 -0.2581
  265BOLB   C3A 6343  23.867  -0.636  30.073  0.0087  0.2489  0.0673
  265BOLB   C4A 6344  23.912  -0.767  30.535  0.2821  0.1131  0.0707
  265BOLB   C1B 6345  22.382  -1.079  29.733 -0.0970 -0.4264  0.1919
  265BOLB   C2B 6346  22.431  -1.475  29.814  0.0959  0.1806 -0.0772
  265BOLB   C3B 6347  22.274  -1.873  30.020 -0.2639 -0.1526  0.0888
  265BOLB   C4B 6348  22.355  -2.321  30.304 -0.1629  0.0849 -0.2789
  265BOLB   NC2 6349  25.328  -1.440  32.779  0.1382 -0.1488 -0.0551
  265BOLB   PO2 6350  25.526  -1.191  32.364  0.2605  0.2653 -0.1339
  265BOLB   GL3 6351  25.186  -1.054  31.971 -0.0554  0.4150  0.0387
  265BOLB   GL4 6352  25.199  -0.914  31.614 -0.1660  0.0003 -0.1619
  265BOLB   C1C 6353  24.780  -0.909  31.781  0.0344 -0.0599 -0.1602
  265BOLB   C2C 6354  24.388  -0.836  31.729 -0.0499 -0.0745 -0.0124
  265BOLB   C3C 6355  24.232  -0.806  31.279 -0.1327  0.0456 -0.1289
  265BOLB   C4C 6356  23.931  -0.627  30.932  0.1096  0.0355 -0.0067
  265BOLB   C1D 6357  25.159  -1.094  31.162 -0.1188  0.2993 -0.1264
  265BOLB   C2D 6358  25.160  -1.035  30.742  0.1376  0.0211 -0.2023
  265BOLB   C3D 6359  25.202  -0.821  30.306  0.0649  0.4373 -0.2244
  265BOLB   C4D 6360  25.422  -0.621  30.144 -0.0339 -0.1473 -0.3169
  266BOLB   NC1 6361  13.030   1.533  32.672  0.0789  0.0899 -0.2273
  266BOLB   PO1 6362  12.561   1.896  32.729  0.1751  0.0814  0.3896
  266BOLB   GL1 6363  12.420   1.670  33.131 -0.1352  0.2711 -0.5875
  266BOLB   GL2 6364  12.692   1.393  33.149  0.4035  0.1793  0.0894
  266BOLB   C1A 6365  12.409   1.526  33.509 -0.1192  0.1334  0.2183
  266BOLB   C2A 6366  12.263   1.299  33.856  0.0582 -0.1950 -0.0208
  266BOLB   C3A 6367  12.290   1.229  34.298 -0.0199 -0.0558  0.1392
  266BOLB   C4A 6368  12.518   1.134  34.699 -0.1878 -0.4986  0.1290
  266BOLB   C1B 6369  12.507   1.027  33.404 -0.0904 -0.1119 -0.1392
  266BOLB   C2B 6370  12.608   0.844  33.735  0.2816 -0.1313 -0.2967
  266BOLB   C3B 6371  12.677   0.591  34.021  0.1160  0.1663 -0.1251
  266BOLB   C4B 6372  12.492   0.367  34.317 -0.0861  0.1746 -0.0321
  266BOLB   NC2 6373  11.564   0.728  36.616  0.3058 -0.0540  0.0648
  266BOLB   PO2 6374  11.417   1.037  36.571  0.1817 -0.4176 -0.0940
  266BOLB   GL3 6375  11.700   1.093  36.222 -0.1879  0.1797  0.1382
  266BOLB   GL4 6376  11.628   1.347  36.262  0.0882 -0.1915 -0.2498
  266BOLB   C1C 6377  12.131   1.049  36.053 -0.0626  0.0244  0.5306
  266BOLB   C2C 6378  12.305   1.065  35.621  0.2387 -0.1664 -0.2238
  266BOLB   C3C 6379  12.491   0.786  35.256  0.0770  0.0252 -0.1790
  266BOLB   C4C 6380  12.608   0.896  35.009  0.1741  0.2339  0.2008
  266BOLB   C1D 6381  11.475   1.671  35.959  0.0294 -0.0203 -0.3067
  266BOLB   C2D 6382  11.710   1.918  35.716 -0.0662  0.0457 -0.0571
  266BOLB   C3D 6383  11.930   1.975  35.417 -0.1759 -0.0007 -0.0325
  266BOLB   C4D 6384  12.264   1.949  35.115  0.2455  0.1151  0.2208
  267BOLB   NC1 6385   6.918   2.413  25.390 -0.0730  0.2303 -0.0372
  267BOLB   PO1 6386   6.550   2.342  25.344  0.0578  0.1438 -0.0491
  267BOLB   GL1 6387   6.209   2.154  25.161  0.0980  0.3802 -0.4567
  267BOLB   GL2 6388   6.147   2.158  24.848 -0.1775  0.0925 -0.0857
  267BOLB   C1A 6389   5.944   1.821  25.199 -0.0209  0.0289  0.0943
  267BOLB   C2A 6390   5.603   1.569  25.182 -0.2677  0.0485 -0.2616
  267BOLB   C3A 6391   5.323   1.254  25.413  0.1352  0.1330  0.0326
  267BOLB   C4A 6392   5.480   0.816  25.563 -0.0202  0.0588  0.0138
  267BOLB   C1B 6393   5.733   2.083  24.876  0.1150  0.0135  0.2058
  267BOLB   C2B 6394   5.492   2.308  24.817  0.3922  0.2711  0.3329
  267BOLB   C3B 6395   5.212   2.587  24.682  0.0627  0.1995  0.0407
  267BOLB   C4B 6396   4.797   2.578  24.587 -0.0107  0.0187 -0.2182
  267BOLB   NC2 6397   3.485  -0.356  26.766 -0.1656 -0.0484 -0.1567
  267BOLB   PO2 6398   3.270  -0.051  26.515 -0.1196 -0.2745 -0.0252
  267BOLB   GL3 6399   3.564   0.097  26.277 -0.1746 -0.2886 -0.2221
  267BOLB   GL4 6400   3.759  -0.128  26.378  0.0448 -0.2120 -0.0722
  267BOLB   C1C 6401   4.019   0.336  26.253  0.2125 -0.0921  0.1019
  267BOLB   C2C 6402   4.438   0.308  26.102 -0.3955 -0.1886  0.1564
  267BOLB   C3C 6403   4.828   0.403  25.983 -0.2811  0.0447  0.1440
  267BOLB   C4C 6404   5.225   0.435  25.699 -0.3018 -0.1871 -0.0349
  267BOLB   C1D 6405   4.011  -0.503  26.366 -0.1733 -0.1359 -0.3495
  267BOLB   C2D 6406   4.204  -0.758  26.189  0.1657 -0.0860 -0.0183
  267BOLB   C3D 6407   4.496  -0.823  25.840 -0.0501  0.1624 -0.0094
  267BOLB   C4D 6408   4.971  -0.868  25.722  0.3092 -0.2746 -0.0737
  268BOLB   NC1 6409  17.018  -4.498  22.607  0.3983  0.0979 -0.0699
  268BOLB   PO1 6410  16.494  -4.597  22.401  0.3073  0.1963  0.2712
  268BOLB   GL1 6411  16.359  -5.055  22.439 -0.1416  0.3180 -0.0944
  268BOLB   GL2 6412  15.989  -5.120  22.382  0.2276 -0.1477  0.3755
  268BOLB   C1A 6413  16.490  -5.591  22.445  0.1350  0.2593  0.0794
  268BOLB   C2A 6414  16.804  -5.877  22.234 -0.3975  0.3118 -0.0209
  268BOLB   C3A 6415  16.883  -6.267  21.950  0.0312  0.1781 -0.0107
  268BOLB   C4A 6416  16.885  -6.552  21.592 -0.2371  0.0417  0.1972
  268BOLB   C1B 6417  16.004  -5.517  22.457  0.0402 -0.3458  0.2045
  268BOLB   C2B 6418  16.160  -5.979  22.517 -0.1613  0.1820  0.1493
  268BOLB   C3B 6419  16.491  -6.220  22.306  0.0756  0.0623 -0.1808
  268BOLB   C4B 6420  16.537  -6.637  21.992  0.0047 -0.2595  0.0165
  268BOLB   NC2 6421  15.451  -8.391  22.229  0.0825 -0.0445 -0.0774
  268BOLB   PO2 6422  15.870  -8.286  22.050  0.0139  0.0664 -0.3983
  268BOLB   GL3 6423  16.097  -8.016  22.289  0.1504  0.2031 -0.0065
  268BOLB   GL4 6424  15.924  -7.850  22.609  0.2247 -0.0422  0.0191
  268BOLB   C1C 6425  16.342  -7.637  22.547  0.0163  0.0200 -0.0515
  268BOLB   C2C 6426  16.177  -7.275  22.389  0.1127  0.3162  0.1462
  268BOLB   C3C 6427  16.357  -7.119  21.946 -0.1248 -0.2169  0.0323
  268BOLB   C4C 6428  16.613  -6.860  21.547  0.4028 -0.3834  0.0256
  268BOLB   C1D 6429  15.699  -7.466  22.343 -0.1710 -0.0464  0.2614
  268BOLB   C2D 6430  15.752  -7.016  22.442  0.0100  0.2489 -0.0055
  268BOLB   C3D 6431  15.549  -6.569  22.524 -0.2549  0.1674 -0.0844
  268BOLB   C4D 6432  15.343  -6.594  22.805  0.2068 -0.0082 -0.3208
  269BOLB   NC1 6433   9.200   6.627  31.081 -0.2471  0.1304 -0.1941
  269BOLB   PO1 6434   9.244   7.031  30.961 -0.2254 -0.1620  0.3972
  269BOLB   GL1 6435   8.904   7.035  31.129 -0.0525 -0.0641  0.4423
  269BOLB   GL2 6436   8.771   6.816  30.874 -0.1325  0.0373  0.3698
  269BOLB   C1A 6437   8.589   7.305  31.318 -0.2255 -0.0539  0.1728
  269BOLB   C2A 6438   8.243   7.488  31.436 -0.0574  0.3756  0.0062
  269BOLB   C3A 6439   8.104   7.602  31.759  0.0413  0.0452  0.3491
  269BOLB   C4A 6440   7.795   7.833  31.846  0.2229 -0.2536 -0.0034
  269BOLB   C1B 6441   8.390   7.054  30.960 -0.0435  0.1572  0.0730
  269BOLB   C2B 6442   7.954   7.120  31.089 -0.1549 -0.0108 -0.1088
  269BOLB   C3B 6443   7.566   7.115  31.222  0.0555 -0.0850  0.0857
  269BOLB   C4B 6444   7.153   7.051  31.324  0.2195  0.0542  0.0136
  269BOLB   NC2 6445   7.095   7.330  34.376  0.0249  0.0638 -0.2163
  269BOLB   PO2 6446   6.877   7.584  34.143  0.2718 -0.4546  0.1321
  269BOLB   GL3 6447   6.985   7.693  33.693 -0.2191  0.1326  0.1044
  269BOLB   GL4 6448   6.644   7.695  33.694 -0.3990 -0.2162 -0.1425
  269BOLB   C1C 6449   7.123   7.676  33.319  0.0849  0.0091  0.1399
  269BOLB   C2C 6450   7.425   7.874  32.997  0.4301 -0.1148 -0.0268
  269BOLB   C3C 6451   7.326   7.924  32.519 -0.3935  0.3055 -0.0467
  269BOLB   C4C 6452   7.586   7.935  32.163 -0.2196  0.3465  0.1559
  269BOLB   C1D 6453   6.492   7.728  33.305 -0.3219  0.0099  0.0775
  269BOLB   C2D 6454   6.644   7.637  33.004 -0.0475 -0.0089  0.0820
  269BOLB   C3D 6455   6.998   7.611  32.773 -0.1952  0.2038 -0.1218
  269BOLB   C4D 6456   7.198   7.431  32.474  0.0095 -0.0879  0.2879
  270BOLB   NC1 6457  13.072   8.255  18.803  0.1371 -0.2533 -0.1027
  270BOLB   PO1 6458  13.041   8.638  18.948 -0.1036  0.4670  0.2901
  270BOLB   GL1 6459  13.075   8.799  18.583 -0.0623 -0.1112  0.3241
  270BOLB   GL2 6460  12.727   8.948  18.623 -0.0356 -0.1426 -0.0704
  270BOLB   C1A 6461  13.356   9.115  18.317 -0.1407  0.2497 -0.2902
  270BOLB   C2A 6462  13.232   9.535  18.046 -0.1801 -0.0460  0.2339
  270BOLB   C3A 6463  13.090   9.734  17.627  0.2502  0.2105 -0.3789
  270BOLB   C4A 6464  13.128   9.820  17.208  0.0542 -0.0944 -0.2091
  270BOLB   C1B 6465  12.376   9.121  18.530  0.1265  0.3878  0.0907
  270BOLB   C2B 6466  11.946   9.230  18.386 -0.0841  0.1210  0.2689
  270BOLB   C3B 6467  11.861   9.636  18.225  0.2088  0.0434  0.0179
  270BOLB   C4B 6468  11.759  10.027  18.203 -0.1162 -0.1159 -0.2470
  270BOLB   NC2 6469  13.074  11.605  15.487  0.3128 -0.0783 -0.2624
  270BOLB   PO2 6470  13.096  11.135  15.262 -0.2397  0.0505 -0.0697
  270BOLB   GL3 6471  13.139  10.666  15.505 -0.0737 -0.1516  0.4266
  270BOLB   GL4 6472  13.304  10.422  15.337  0.0303 -0.1967  0.1491
  270BOLB   C1C 6473  13.192  10.562  15.947 -0.1614 -0.0647 -0.1179
  270BOLB   C2C 6474  12.926  10.556  16.330 -0.3729  0.1993  0.0734
  270BOLB   C3C 6475  13.155  10.363  16.611 -0.2695  0.0958 -0.2803
  270BOLB   C4C 6476  13.268  10.088  16.853 -0.1805 -0.6194  0.1560
  270BOLB   C1D 6477  13.106  10.074  15.449 -0.0000 -0.0315 -0.1436
  270BOLB   C2D 6478  13.266   9.671  15.668 -0.1897  0.1216  0.2290
  270BOLB   C3D 6479  13.425   9.366  15.879  0.1692  0.3829  0.1792
  270BOLB   C4D 6480  13.845   9.156  16.073 -0.3360  0.0338  0.0619
  271BOLB   NC1 6481  22.191   4.156  31.665 -0.0408 -0.3150  0.0339
  271BOLB   PO1 6482  22.455   3.749  31.613 -0.2240 -0.0953 -0.1076
  271BOLB   GL1 6483  22.808   3.506  31.672  0.0225 -0.0028 -0.0999
  271BOLB   GL2 6484  23.040   3.714  31.824  0.0904  0.2386  0.2549
  271BOLB   C1A 6485  23.058   3.258  32.002 -0.0679  0.0734 -0.0658
  271BOLB   C2A 6486  23.412   2.963  32.089 -0.1497  0.1105 -0.1517
  271BOLB   C3A 6487  23.803   2.748  32.036 -0.4166  0.0526 -0.1393
  271BOLB   C4A 6488  24.210   2.724  32.317 -0.1791 -0.0432 -0.1467
  271BOLB   C1B 6489  23.227   3.629  32.267  0.1972  0.0594  0.0063
  271BOLB   C2B 6490  23.320   3.255  32.526 -0.0210 -0.0809  0.2644
  271BOLB   C3B 6491  23.300   3.438  32.919 -0.2005  0.4375 -0.1869
  271BOLB   C4B 6492  23.377   3.388  33.349  0.0847  0.1555 -0.1440
  271BOLB   NC2 6493  25.906   3.844  33.299  0.1106 -0.0386 -0.1052
  271BOLB   PO2 6494  25.978   3.539  33.556  0.1248  0.2671 -0.3283
  271BOLB   GL3 6495  25.570   3.403  33.653  0.0210  0.0193 -0.2758
  271BOLB   GL4 6496  25.437   3.597  33.452 -0.1331 -0.0885  0.1047
  271BOLB   C1C 6497  25.129   3.170  33.513 -0.3281  0.0138 -0.0306
  271BOLB   C2C 6498  24.893   3.247  33.189  0.1479  0.3551  0.0560
  271BOLB   C3C 6499  24.862   2.995  32.858 -0.0011 -0.1417  0.0756
  271BOLB   C4C 6500  24.430   2.944  32.547 -0.0856 -0.4234  0.0392
  271BOLB   C1D 6501  25.159   3.801  33.203 -0.3494 -0.1931  0.1819
  271BOLB   C2D 6502  24.887   3.643  32.885  0.0266  0.0976 -0.0992
  271BOLB   C3D 6503  24.478   3.488  32.899  0.1035 -0.0309 -0.1015
  271BOLB   C4D 6504  24.157   3.602  32.829  0.2690 -0.1427 -0.1264
  272BOLB   NC1 6505  14.449   3.575  16.756  0.0924 -0.1353 -0.2479
  272BOLB   PO1 6506  14.290   3.914  16.388 -0.1012 -0.0060  0.1599
  272BOLB   GL1 6507  14.278   3.957  15.945  0.0510  0.1477 -0.0359
  272BOLB   GL2 6508  14.177   4.302  16.006  0.0747  0.2798 -0.1324
  272BOLB   C1A 6509  14.356   4.126  15.511  0.0052  0.1258  0.1894
  272BOLB   C2A 6510  14.627   4.144  15.072  0.0793 -0.1449  0.0027
  272BOLB   C3A 6511  14.763   4.009  14.705  0.1528  0.1197 -0.1267
  272BOLB   C4A 6512  14.555   3.855  14.368 -0.0892 -0.0620  0.0819
  272BOLB   C1B 6513  13.993   4.517  15.605  0.0426 -0.1127  0.3357
  272BOLB   C2B 6514  13.704   4.579  15.223 -0.0694  0.0737  0.1241
  272BOLB   C3B 6515  13.429   4.497  14.950  0.1602  0.0385  0.1739
  272BOLB   C4B 6516  13.264   4.167  14.737  0.2035 -0.3851  0.2724
  272BOLB   NC2 6517  12.778   3.113  12.841 -0.0582 -0.0086  0.2433
  272BOLB   PO2 6518  13.056   3.394  12.687  0.1920 -0.0697  0.3676
  272BOLB   GL3 6519  13.197   3.112  13.131 -0.2882  0.1528  0.0479
  272BOLB   GL4 6520  13.055   2.786  13.249 -0.0956  0.1352 -0.1291
  272BOLB   C1C 6521  13.400   3.190  13.499  0.1680  0.1529  0.1010
  272BOLB   C2C 6522  13.551   3.356  13.885  0.0372 -0.1046 -0.0026
  272BOLB   C3C 6523  13.969   3.399  13.940  0.1382  0.2261 -0.0841
  272BOLB   C4C 6524  14.247   3.744  13.991 -0.0022  0.1770  0.3520
  272BOLB   C1D 6525  12.932   2.585  13.629 -0.1384 -0.1983 -0.0873
  272BOLB   C2D 6526  12.851   2.475  14.033 -0.0465 -0.2346  0.3895
  272BOLB   C3D 6527  13.154   2.674  14.302  0.0725 -0.0535  0.0451
  272BOLB   C4D 6528  13.021   2.866  14.616 -0.1140 -0.1228  0.3118
  273BOLB   NC1 6529  11.736  -0.220  30.337 -0.0766  0.3124  0.0258
  273BOLB   PO1 6530  11.578  -0.608  30.473 -0.1913 -0.0787 -0.0338
  273BOLB   GL1 6531  11.517  -0.949  30.769  0.4209 -0.1400  0.0562
  273BOLB   GL2 6532  11.260  -0.782  30.901 -0.0938 -0.4373 -0.0054
  273BOLB   C1A 6533  11.305  -1.277  31.000 -0.0132 -0.1876 -0.0737
  273BOLB   C2A 6534  10.982  -1.743  31.066 -0.0358 -0.0646 -0.0848
  273BOLB   C3A 6535  10.739  -2.101  31.117 -0.2742  0.1917  0.0138
  273BOLB   C4A 6536  10.554  -2.268  31.424 -0.0115  0.2196  0.0556
  273BOLB   C1B 6537  10.930  -0.743  31.098  0.1286  0.0725 -0.3746
  273BOLB   C2B 6538  10.714  -0.977  31.303  0.3703  0.1342 -0.2779
  273BOLB   C3B 6539  10.644  -1.198  31.720 -0.3148  0.4632 -0.0058
  273BOLB   C4B 6540  10.402  -1.248  32.071  0.0123 -0.1008  0.0309
  273BOLB   NC2 6541   9.122  -2.159  33.384  0.3136 -0.1831 -0.0259
  273BOLB   PO2 6542   9.013  -2.131  32.936  0.1991 -0.3238 -0.0239
  273BOLB   GL3 6543   9.134  -1.890  32.667 -0.0603 -0.0119  0.1378
  273BOLB   GL4 6544   9.012  -1.634  32.736 -0.0352  0.0031  0.0041
  273BOLB   C1C 6545   9.634  -1.643  32.527  0.0400  0.2312 -0.0970
  273BOLB   C2C 6546  10.017  -1.551  32.301 -0.0318  0.1663  0.0602
  273BOLB   C3C 6547  10.318  -1.815  32.084 -0.0123  0.0890 -0.0791
  273BOLB   C4C 6548  10.302  -2.078  31.671  0.0729  0.0691 -0.1713
  273BOLB   C1D 6549   9.195  -1.259  32.528 -0.1018  0.1723 -0.1262
  273BOLB   C2D 6550   9.224  -1.089  32.168  0.1100  0.0472  0.0600
  273BOLB   C3D 6551   9.473  -0.920  31.726  0.3789 -0.0120  0.2633
  273BOLB   C4D 6552   9.804  -0.617  31.532 -0.3371 -0.2276 -0.2580
  274BOLB   NC1 6553  20.623  10.577  24.878  0.2537  0.0169  0.1234
  274BOLB   PO1 6554  20.355  10.970  24.827 -0.0336  0.0514 -0.0954
  274BOLB   GL1 6555  20.602  11.469  24.904 -0.0596  0.0369  0.0235
  274BOLB   GL2 6556  20.553  11.767  24.671  0.2634 -0.0777 -0.1532
  274BOLB   C1A 6557  20.942  11.595  24.969  0.1754 -0.0839 -0.0576
  274BOLB   C2A 6558  21.321  11.905  25.074  0.1532  0.1733  0.0940
  274BOLB   C3A 6559  21.519  12.256  25.271 -0.0003 -0.1342 -0.1247
  274BOLB   C4A 6560  21.530  12.619  25.391 -0.1208  0.2061  0.3648
  274BOLB   C1B 6561  20.962  11.956  24.604  0.1376 -0.0223 -0.1533
  274BOLB   C2B 6562  21.258  12.192  24.450  0.0112 -0.1450  0.1591
  274BOLB   C3B 6563  21.594  12.469  24.518 -0.1286  0.1115  0.0587
  274BOLB   C4B 6564  21.733  12.757  24.514 -0.2564 -0.0778  0.0342
  274BOLB   NC2 6565  23.634  13.651  25.461  0.0892 -0.1628  0.0996
  274BOLB   PO2 6566  23.428  13.930  25.746 -0.2065  0.1668  0.0946
  274BOLB   GL3 6567  23.067  13.839  25.930  0.1247  0.1326  0.1045
  274BOLB   GL4 6568  22.960  14.022  26.119 -0.2521  0.0800 -0.2452
  274BOLB   C1C 6569  22.736  13.528  25.894 -0.0761  0.3286 -0.0219
  274BOLB   C2C 6570  22.387  13.311  25.669 -0.0680 -0.2322  0.0375
  274BOLB   C3C 6571  22.273  12.938  25.678  0.4799 -0.1495 -0.3140
  274BOLB   C4C 6572  21.859  12.926  25.488  0.0598  0.1989  0.1098
  274BOLB   C1D 6573  22.789  13.643  26.374  0.0225 -0.0139 -0.0285
  274BOLB   C2D 6574  22.758  13.302  26.328  0.1028 -0.1682  0.1344
  274BOLB   C3D 6575  22.627  13.025  26.039  0.1305  0.1029  0.2402
  274BOLB   C4D 6576  22.767  12.557  26.004 -0.4144  0.2752  0.0057
  275BOLB   NC1 6577  23.794   7.749  28.956 -0.0457  0.0035  0.0005
  275BOLB   PO1 6578  23.567   8.078  29.193 -0.1414  0.1476  0.0280
  275BOLB   GL1 6579  23.846   7.943  29.468 -0.1433 -0.1824  0.0434
  275BOLB   GL2 6580  24.126   7.995  29.278  0.1921 -0.1426 -0.3453
  275BOLB   C1A 6581  24.105   8.144  29.753 -0.4207  0.1094  0.0017
  275BOLB   C2A 6582  24.508   8.238  29.725 -0.1625 -0.3149 -0.5936
  275BOLB   C3A 6583  24.887   8.344  29.686  0.1701 -0.1509 -0.1879
  275BOLB   C4A 6584  25.225   8.320  29.324 -0.2110  0.0297  0.0724
  275BOLB   C1B 6585  24.462   8.177  29.129  0.0696  0.1522  0.0401
  275BOLB   C2B 6586  24.804   8.454  29.159 -0.0099 -0.1156  0.0075
  275BOLB   C3B 6587  24.806   8.884  29.125 -0.3641  0.0784  0.1032
  275BOLB   C4B 6588  24.895   9.280  29.267 -0.2627  0.1767 -0.3807
  275BOLB   NC2 6589  27.633   8.648  28.664 -0.2087  0.1115  0.0067
  275BOLB   PO2 6590  27.632   8.412  28.292  0.2152 -0.1569  0.1443
  275BOLB   GL3 6591  27.231   8.463  28.374 -0.1365  0.3234 -0.1557
  275BOLB   GL4 6592  27.239   8.786  28.180  0.0184  0.2163  0.3828
  275BOLB   C1C 6593  26.734   8.544  28.568 -0.1194  0.0129  0.0618
  275BOLB   C2C 6594  26.381   8.606  28.784  0.3114 -0.2274  0.1052
  275BOLB   C3C 6595  25.990   8.541  28.876  0.3253 -0.2258  0.2972
  275BOLB   C4C 6596  25.626   8.564  29.150  0.1109  0.1270  0.2099
  275BOLB   C1D 6597  26.861   8.542  27.958  0.1805  0.0292  0.5283
  275BOLB   C2D 6598  26.726   8.519  27.513  0.0629 -0.4353 -0.3853
  275BOLB   C3D 6599  26.407   8.415  27.402 -0.1590 -0.0758  0.1208
  275BOLB   C4D 6600  26.139   8.230  27.129 -0.1010 -0.0659  0.0697
  276BOLB   NC1 6601  14.492  -1.132  17.141  0.0990  0.0449 -0.0437
  276BOLB   PO1 6602  14.771  -1.450  17.242  0.1009 -0.0048  0.0157
  276BOLB   GL1 6603  14.706  -1.575  16.859 -0.0944 -0.0182  0.1815
  276BOLB   GL2 6604  14.892  -1.304  16.812 -0.0314 -0.3229  0.1706
  276BOLB   C1A 6605  14.688  -1.726  16.427 -0.3154  0.1377 -0.0094
  276BOLB   C2A 6606  14.467  -1.715  16.036  0.0001 -0.4197 -0.0273
  276BOLB   C3A 6607  14.506  -1.653  15.553 -0.0280 -0.0784 -0.0210
  276BOLB   C4A 6608  14.473  -1.849  15.271 -0.0535 -0.1625 -0.1455
  276BOLB   C1B 6609  15.178  -1.540  16.581 -0.0870 -0.0287  0.0184
  276BOLB   C2B 6610  15.180  -1.713  16.210  0.4156 -0.0976 -0.3080
  276BOLB   C3B 6611  14.924  -2.032  16.029 -0.1748  0.2952  0.0635
  276BOLB   C4B 6612  14.644  -2.230  15.771  0.0991 -0.2215 -0.2118
  276BOLB   NC2 6613  13.360  -3.922  14.443  0.1673 -0.1722  0.1945
  276BOLB   PO2 6614  13.004  -3.638  14.211 -0.0590  0.0056 -0.0462
  276BOLB   GL3 6615  13.247  -3.402  14.557  0.0733 -0.1918 -0.0639
  276BOLB   GL4 6616  13.323  -3.538  14.796 -0.1529  0.0552 -0.1965
  276BOLB   C1C 6617  13.552  -3.113  14.708 -0.1426  0.0691 -0.1070
  276BOLB   C2C 6618  13.775  -2.885  14.907 -0.0702  0.1320  0.4158
  276BOLB   C3C 6619  14.220  -2.557  14.944 -0.0693 -0.0372 -0.2268
  276BOLB   C4C 6620  14.374  -2.178  15.060  0.1740 -0.2324 -0.0580
  276BOLB   C1D 6621  13.565  -3.295  15.173  0.1712  0.1010 -0.1022
  276BOLB   C2D 6622  13.695  -2.933  15.393  0.1047 -0.1142  0.2262
  276BOLB   C3D 6623  13.955  -2.555  15.424  0.1128  0.1110 -0.0545
  276BOLB   C4D 6624  14.088  -2.205  15.677 -0.1807 -0.1069  0.0611
  277BOLB   NC1 6625  18.666  -2.569  28.234 -0.0011 -0.1240  0.0171
  277BOLB   PO1 6626  18.674  -2.759  27.894  0.3598  0.1971  0.2118
  277BOLB   GL1 6627  18.884  -3.037  28.232 -0.1716 -0.1197  0.2608
  277BOLB   GL2 6628  19.019  -2.841  28.517  0.1811  0.0957 -0.1566
  277BOLB   C1A 6629  18.830  -3.309  28.678 -0.0074  0.1033 -0.0738
  277BOLB   C2A 6630  19.090  -3.601  28.938  0.3128 -0.1093  0.2081
  277BOLB   C3A 6631  19.319  -3.953  29.091  0.3335 -0.0691 -0.2311
  277BOLB   C4A 6632  19.623  -4.249  28.993  0.3095 -0.0690 -0.2698
  277BOLB   C1B 6633  19.313  -3.170  28.710 -0.1883  0.1338 -0.2284
  277BOLB   C2B 6634  19.520  -3.599  28.660 -0.0864 -0.1789 -0.0070
  277BOLB   C3B 6635  19.381  -4.059  28.576 -0.0950  0.2896 -0.0030
  277BOLB   C4B 6636  18.993  -4.197  28.285 -0.0634  0.0300 -0.0100
  277BOLB   NC2 6637  20.408  -6.206  29.126  0.0954  0.0831  0.1560
  277BOLB   PO2 6638  20.858  -6.141  29.359 -0.0966 -0.2452  0.2828
  277BOLB   GL3 6639  20.790  -5.819  29.170  0.2987  0.1742 -0.1569
  277BOLB   GL4 6640  20.787  -5.615  29.389 -0.2227  0.2127  0.2757
  277BOLB   C1C 6641  20.379  -5.548  29.132  0.1358  0.0739 -0.5112
  277BOLB   C2C 6642  20.227  -5.182  29.025 -0.2702 -0.0349  0.0172
  277BOLB   C3C 6643  20.063  -4.800  28.756 -0.3455  0.3818  0.0025
  277BOLB   C4C 6644  19.811  -4.495  28.739  0.0184 -0.1053 -0.1360
  277BOLB   C1D 6645  20.377  -5.597  29.656  0.3501  0.2238  0.1622
  277BOLB   C2D 6646  20.033  -5.698  29.476 -0.1500  0.0137  0.1640
  277BOLB   C3D 6647  19.545  -5.615  29.404  0.4763  0.0726 -0.3737
  277BOLB   C4D 6648  19.428  -5.230  29.224 -0.0443 -0.4310 -0.3058
  278BOLB   NC1 6649  13.049   9.712  21.600 -0.3528 -0.3260 -0.0983
  278BOLB   PO1 6650  13.184   9.744  21.290 -0.2239 -0.3986  0.1639
  278BOLB   GL1 6651  13.213  10.141  21.056 -0.1123 -0.1280  0.2723
  278BOLB   GL2 6652  13.030  10.306  21.116  0.0386  0.0865 -0.0019
  278BOLB   C1A 6653  13.230  10.413  20.701  0.0212 -0.1655 -0.0189
  278BOLB   C2A 6654  13.064  10.760  20.512 -0.1069  0.1054 -0.0607
  278BOLB   C3A 6655  12.977  11.052  20.090  0.0632 -0.1721  0.2907
  278BOLB   C4A 6656  13.098  11.473  19.740 -0.1312  0.3599 -0.0880
  278BOLB   C1B 6657  12.979  10.687  21.139 -0.2942 -0.2241 -0.1308
  278BOLB   C2B 6658  12.927  11.038  20.909 -0.0001  0.0026 -0.3086
  278BOLB   C3B 6659  12.790  11.234  20.572  0.1523 -0.0575  0.0860
  278BOLB   C4B 6660  12.657  11.542  20.195  0.1041 -0.2168 -0.0582
  278BOLB   NC2 6661  12.284  13.948  18.607  0.0398  0.1815  0.1043
  278BOLB   PO2 6662  12.431  13.546  18.461  0.0442  0.6065  0.2598
  278BOLB   GL3 6663  12.545  13.178  18.638 -0.0620  0.3459  0.0878
  278BOLB   GL4 6664  12.383  13.125  18.928  0.2031 -0.0259  0.2753
  278BOLB   C1C 6665  12.846  12.942  18.953  0.0008  0.3552  0.0846
  278BOLB   C2C 6666  12.941  12.522  19.237  0.1926  0.1691  0.1774
  278BOLB   C3C 6667  12.824  12.024  19.335  0.1804 -0.1644  0.2814
  278BOLB   C4C 6668  12.939  11.611  19.390 -0.0982  0.1304  0.3113
  278BOLB   C1D 6669  12.022  12.961  19.125 -0.0982  0.1407  0.0323
  278BOLB   C2D 6670  11.735  12.699  19.415 -0.1190 -0.1558  0.1165
  278BOLB   C3D 6671  11.682  12.675  19.822 -0.3086 -0.1087 -0.1481
  278BOLB   C4D 6672  11.891  12.642  20.148  0.0624 -0.3492 -0.0010
  279BOLB   NC1 6673   8.844   4.267  30.499  0.1107  0.2305  0.1839
  279BOLB   PO1 6674   8.629   4.727  30.524 -0.4374  0.0250 -0.0823
  279BOLB   GL1 6675   8.149   4.712  30.794  0.0095  0.1010  0.0075
  279BOLB   GL2 6676   7.856   4.789  30.499  0.0611 -0.0012  0.3725
  279BOLB   C1A 6677   7.741   4.731  30.984 -0.0985 -0.0182  0.2527
  279BOLB   C2A 6678   7.299   4.728  31.026 -0.0375 -0.2009 -0.2431
  279BOLB   C3A 6679   6.950   4.509  31.150  0.1270 -0.1612 -0.0407
  279BOLB   C4A 6680   6.730   4.051  31.343 -0.0492 -0.0090 -0.0769
  279BOLB   C1B 6681   7.497   4.852  30.617 -0.1817  0.1346 -0.1869
  279BOLB   C2B 6682   7.235   4.838  30.299 -0.0843  0.2253 -0.0472
  279BOLB   C3B 6683   6.833   4.735  29.949 -0.2461  0.0369 -0.1825
  279BOLB   C4B 6684   6.515   4.321  30.022  0.1482 -0.1161  0.5808
  279BOLB   NC2 6685   5.484   2.861  32.435 -0.0513  0.3698  0.1530
  279BOLB   PO2 6686   5.216   3.231  32.400 -0.0345 -0.0277  0.0105
  279BOLB   GL3 6687   5.508   3.386  32.176 -0.1763 -0.2564 -0.2699
  279BOLB   GL4 6688   5.967   3.518  32.182  0.1809  0.0293 -0.0237
  279BOLB   C1C 6689   5.611   3.379  31.816 -0.0684  0.1003  0.1735
  279BOLB   C2C 6690   5.783   3.160  31.584 -0.2165  0.0687 -0.2730
  279BOLB   C3C 6691   6.220   3.175  31.413 -0.1732  0.1457  0.0545
  279BOLB   C4C 6692   6.500   3.572  31.415 -0.3262 -0.1028 -0.1791
  279BOLB   C1D 6693   6.444   3.407  32.063  0.1027 -0.1324  0.1682
  279BOLB   C2D 6694   6.929   3.541  31.818 -0.0540 -0.0013 -0.0670
  279BOLB   C3D 6695   7.344   3.608  31.808  0.2979  0.5661 -0.0048
  279BOLB   C4D 6696   7.719   3.458  31.568 -0.3313 -0.1128 -0.1612
  280BOLB   NC1 6697  15.334   3.385  33.049 -0.1294 -0.1792  0.1294
  280BOLB   PO1 6698  15.439   3.115  33.291 -0.3919  0.2965 -0.0123
  280BOLB   GL1 6699  15.526   3.114  33.792  0.1411  0.2278  0.2793
  280BOLB   GL2 6700  15.276   3.228  34.072 -0.1265 -0.0446 -0.2406
  280BOLB   C1A 6701  15.654   2.971  34.233 -0.0903  0.0930 -0.0419
  280BOLB   C2A 6702  15.603   2.921  34.582 -0.0042 -0.3224 -0.0008
  280BOLB   C3A 6703  15.637   2.884  34.961  0.0610  0.0369  0.3229
  280BOLB   C4A 6704  15.368   3.035  35.299 -0.1999 -0.3227 -0.2313
  280BOLB   C1B 6705  14.954   3.337  34.366  0.0500  0.1110  0.1507
  280BOLB   C2B 6706  14.734   3.391  34.715 -0.0765  0.0264 -0.2864
  280BOLB   C3B 6707  14.680   3.624  35.097  0.1706  0.3495  0.1856
  280BOLB   C4B 6708  14.659   3.578  35.540 -0.1156 -0.0652 -0.0759
  280BOLB   NC2 6709  14.022   2.750  37.585  0.2274  0.2773  0.0373
  280BOLB   PO2 6710  14.385   2.916  37.405 -0.1384  0.0987 -0.0123
  280BOLB   GL3 6711  14.514   2.606  37.066 -0.1139  0.1047  0.0191
  280BOLB   GL4 6712  14.837   2.486  37.188 -0.0061  0.1028 -0.3870
  280BOLB   C1C 6713  14.532   2.641  36.672 -0.0040  0.0279 -0.1478
  280BOLB   C2C 6714  14.649   2.933  36.337  0.1343  0.0403 -0.1621
  280BOLB   C3C 6715  14.777   2.911  35.886  0.0313 -0.1296 -0.2340
  280BOLB   C4C 6716  15.128   3.106  35.709  0.1574  0.0725  0.0115
  280BOLB   C1D 6717  15.062   2.805  36.851 -0.0339 -0.0128 -0.2198
  280BOLB   C2D 6718  15.174   3.051  36.493 -0.3880 -0.3119 -0.1184
  280BOLB   C3D 6719  15.429   3.253  36.304  0.3325 -0.1315  0.1288
  280BOLB   C4D 6720  15.623   3.391  35.877  0.0225 -0.1619 -0.1425
  281BOLB   NC1 6721   7.765   1.755  21.366 -0.2671  0.0323 -0.0073
  281BOLB   PO1 6722   7.723   2.128  21.631 -0.1978  0.0719  0.1957
  281BOLB   GL1 6723   7.323   1.984  21.346 -0.2652 -0.0544 -0.0877
  281BOLB   GL2 6724   7.330   1.658  21.577 -0.1063 -0.0289  0.3437
  281BOLB   C1A 6725   7.057   1.803  21.128  0.0877  0.3000  0.1616
  281BOLB   C2A 6726   6.718   1.507  20.970 -0.0923 -0.2647  0.0241
  281BOLB   C3A 6727   6.402   1.256  20.977 -0.0611  0.2647 -0.0784
  281BOLB   C4A 6728   6.192   0.916  20.900  0.0449 -0.0719  0.4097
  281BOLB   C1B 6729   7.054   1.413  21.627 -0.0477  0.0007 -0.3028
  281BOLB   C2B 6730   6.826   1.137  21.339  0.1388 -0.1045  0.0747
  281BOLB   C3B 6731   6.751   0.831  20.973 -0.0213 -0.0630 -0.2137
  281BOLB   C4B 6732   6.562   0.792  20.506  0.0768  0.1430 -0.1005
  281BOLB   NC2 6733   4.077   0.808  19.474  0.4929 -0.1373  0.1084
  281BOLB   PO2 6734   4.542   0.573  19.515 -0.1590 -0.1258 -0.0923
  281BOLB   GL3 6735   4.782   0.672  19.765 -0.3133 -0.0125 -0.1844
  281BOLB   GL4 6736   4.736   0.550  20.157  0.0741 -0.2496 -0.2355
  281BOLB   C1C 6737   5.199   0.743  19.798 -0.2273 -0.1127 -0.0255
  281BOLB   C2C 6738   5.531   0.878  19.836 -0.3459 -0.0921  0.0931
  281BOLB   C3C 6739   5.827   0.932  20.076 -0.4067  0.1424 -0.2359
  281BOLB   C4C 6740   6.067   0.907  20.509  0.0537 -0.1587  0.1104
  281BOLB   C1D 6741   5.036   0.796  20.312  0.4294 -0.0743 -0.1759
  281BOLB   C2D 6742   5.493   0.936  20.537 -0.4143 -0.1737  0.0907
  281BOLB   C3D 6743   5.710   0.785  20.998 -0.3140  0.1422  0.1496
  281BOLB   C4D 6744   5.812   1.098  21.309 -0.0002 -0.4281 -0.0243
  282BOLB   NC1 6745  11.544  -2.415  19.314 -0.0567 -0.1795 -0.3909
  282BOLB   PO1 6746  12.005  -2.383  19.256 -0.0266  0.1206 -0.2894
  282BOLB   GL1 6747  11.945  -2.679  19.013 -0.1998 -0.0122  0.1190
  282BOLB   GL2 6748  11.665  -2.869  19.197  0.1276 -0.3245 -0.0671
  282BOLB   C1A 6749  11.881  -3.134  18.807 -0.0731 -0.2134  0.0458
  282BOLB   C2A 6750  11.604  -3.476  18.699  0.0221 -0.0058  0.0646
  282BOLB   C3A 6751  11.320  -3.749  18.567  0.3308  0.0314  0.0199
  282BOLB   C4A 6752  10.956  -3.799  18.517  0.1201 -0.0355  0.0827
  282BOLB   C1B 6753  11.473  -3.150  19.027  0.1821  0.2840 -0.1416
  282BOLB   C2B 6754  11.066  -3.300  18.729  0.1728  0.0180  0.0078
  282BOLB   C3B 6755  10.946  -3.269  18.338  0.1617  0.2325 -0.0149
  282BOLB   C4B 6756  10.997  -2.960  18.058 -0.2144 -0.2696  0.1774
  282BOLB   NC2 6757   9.992  -6.228  18.344  0.0546  0.1234  0.0725
  282BOLB   PO2 6758  10.285  -6.347  18.432  0.0132  0.4302 -0.1863
  282BOLB   GL3 6759  10.300  -5.840  18.547 -0.1589 -0.0091 -0.1534
  282BOLB   GL4 6760  10.147  -5.621  18.325 -0.1585  0.2600  0.0406
  282BOLB   C1C 6761  10.485  -5.409  18.591  0.2338  0.1805  0.2847
  282BOLB   C2C 6762  10.497  -5.055  18.606 -0.1885  0.0895 -0.0396
  282BOLB   C3C 6763  10.630  -4.686  18.484 -0.0102 -0.1444 -0.0426
  282BOLB   C4C 6764  10.708  -4.202  18.504 -0.0713 -0.3130 -0.1901
  282BOLB   C1D 6765  10.358  -5.255  18.047  0.2204  0.1558 -0.3609
  282BOLB   C2D 6766  10.462  -4.903  18.044 -0.3241  0.0376 -0.0370
  282BOLB   C3D 6767  10.815  -4.538  18.004  0.0354 -0.4224 -0.3103
  282BOLB   C4D 6768  10.922  -4.120  18.049  0.0860  0.2148  0.0311
  283BOLB   NC1 6769  15.091   2.057  15.918 -0.3263 -0.1111 -0.0354
  283BOLB   PO1 6770  15.193   1.694  16.070 -0.0429  0.2800 -0.1416
  283BOLB   GL1 6771  15.298   1.636  15.692 -0.0625  0.1130 -0.1082
  283BOLB   GL2 6772  15.288   1.952  15.477  0.1398  0.1340  0.0526
  283BOLB   C1A 6773  15.270   1.509  15.275 -0.3428  0.0154  0.1934
  283BOLB   C2A 6774  15.264   1.249  14.976 -0.1800 -0.2566  0.2321
  283BOLB   C3A 6775  15.308   1.300  14.612  0.0741 -0.1097 -0.1427
  283BOLB   C4A 6776  15.409   1.262  14.144  0.6684  0.2372 -0.0617
  283BOLB   C1B 6777  14.906   1.873  15.319 -0.0035 -0.1215  0.3353
  283BOLB   C2B 6778  14.433   1.776  15.308 -0.0105 -0.1020 -0.1139
  283BOLB   C3B 6779  14.030   1.592  15.095  0.0467 -0.1799  0.0551
  283BOLB   C4B 6780  13.847   1.166  15.091 -0.3130 -0.2022 -0.2898
  283BOLB   NC2 6781  14.795   0.606  12.201 -0.0016 -0.0886 -0.0314
  283BOLB   PO2 6782  15.251   0.381  12.150 -0.0743 -0.3096 -0.0424
  283BOLB   GL3 6783  15.384   0.344  12.565 -0.2289  0.2522 -0.0903
  283BOLB   GL4 6784  15.654   0.254  12.481 -0.1430  0.1381 -0.1321
  283BOLB   C1C 6785  15.388   0.361  12.941 -0.0042 -0.2609 -0.3055
  283BOLB   C2C 6786  15.502   0.684  13.276  0.1365 -0.4315 -0.1731
  283BOLB   C3C 6787  15.417   0.840  13.617 -0.1181 -0.1031  0.0442
  283BOLB   C4C 6788  15.304   0.954  13.951 -0.0954  0.1251  0.0254
  283BOLB   C1D 6789  15.822   0.217  12.889  0.1552  0.0491  0.0029
  283BOLB   C2D 6790  16.190   0.045  13.169 -0.2620 -0.0105  0.1029
  283BOLB   C3D 6791  16.487  -0.228  13.403 -0.1782  0.2982 -0.0257
  283BOLB   C4D 6792  16.716  -0.705  13.260 -0.0611 -0.2320  0.0849
  284BOLB   NC1 6793  22.410   7.583  21.125  0.1324 -0.0443 -0.0430
  284BOLB   PO1 6794  22.725   7.583  21.438 -0.2679  0.1186  0.0581
  284BOLB   GL1 6795  23.112   7.754  21.467  0.0922 -0.0525  0.0439
  284BOLB   GL2 6796  23.398   7.623  21.714  0.1901 -0.0713 -0.1104
  284BOLB   C1A 6797  23.395   8.131  21.542 -0.2404  0.1207 -0.1526
  284BOLB   C2A 6798  23.630   8.323  21.255  0.0723 -0.3086  0.0116
  284BOLB   C3A 6799  23.911   8.149  20.923  0.1624 -0.4782  0.3680
  284BOLB   C4A 6800  24.286   8.225  20.631 -0.0299 -0.1467  0.0319
  284BOLB   C1B 6801  23.736   7.804  21.398  0.1806 -0.0811  0.0934
  284BOLB   C2B 6802  24.008   8.130  21.450  0.0903  0.0872 -0.2010
  284BOLB   C3B 6803  24.414   8.280  21.101  0.2818 -0.3136  0.2092
  284BOLB   C4B 6804  24.786   8.328  21.077 -0.0807 -0.1369 -0.2531
  284BOLB   NC2 6805  26.036   9.590  20.244  0.0507  0.3636  0.1551
  284BOLB   PO2 6806  26.213   9.493  20.643 -0.0370  0.1044  0.0657
  284BOLB   GL3 6807  25.854   9.244  20.659  0.2793 -0.1618 -0.0738
  284BOLB   GL4 6808  25.813   8.881  20.755  0.0206 -0.0736  0.1241
  284BOLB   C1C 6809  25.396   9.251  20.897 -0.0624  0.1988 -0.0330
  284BOLB   C2C 6810  25.060   9.115  20.881 -0.0234 -0.2113 -0.0163
  284BOLB   C3C 6811  24.774   8.834  20.939 -0.2540 -0.1101 -0.0019
  284BOLB   C4C 6812  24.514   8.601  20.698  0.0171 -0.0894 -0.5943
  284BOLB   C1D 6813  25.708   8.404  20.778  0.0023  0.3654  0.0776
  284BOLB   C2D 6814  25.743   8.053  20.873 -0.1657 -0.1141  0.0146
  284BOLB   C3D 6815  25.580   7.812  21.229 -0.1926 -0.0135 -0.1801
  284BOLB   C4D 6816  25.694   7.979  21.728 -0.1802  0.1366 -0.0707
  285BOLB   NC1 6817  22.023  -6.611  26.548 -0.0020 -0.0251 -0.0471
  285BOLB   PO1 6818  22.296  -6.200  26.498  0.2456  0.1152  0.1906
  285BOLB   GL1 6819  22.016  -5.733  26.476 -0.0827  0.1419 -0.2627
  285BOLB   GL2 6820  21.679  -5.711  26.568  0.1950 -0.0754 -0.1689
  285BOLB   C1A 6821  22.125  -5.293  26.366  0.0076 -0.5324  0.0708
  285BOLB   C2A 6822  22.143  -4.812  26.286  0.1938 -0.2647 -0.1498
  285BOLB   C3A 6823  22.084  -4.421  26.232  0.1667  0.1840  0.1992
  285BOLB   C4A 6824  22.002  -4.147  25.855 -0.0560 -0.1127 -0.1640
  285BOLB   C1B 6825  21.710  -5.296  26.760  0.3684 -0.1716  0.2615
  285BOLB   C2B 6826  21.915  -4.917  26.752 -0.0551 -0.0887 -0.1885
  285BOLB   C3B 6827  21.745  -4.498  26.695  0.1292 -0.0965 -0.2173
  285BOLB   C4B 6828  21.829  -4.098  26.575  0.1588 -0.3275  0.1806
  285BOLB   NC2 6829  20.902  -2.703  25.764  0.1134 -0.1244  0.3674
  285BOLB   PO2 6830  20.902  -2.379  26.054 -0.0220  0.0131 -0.2164
  285BOLB   GL3 6831  20.976  -2.722  26.425 -0.1513 -0.2175  0.0402
  285BOLB   GL4 6832  20.812  -2.809  26.555 -0.1559  0.0875  0.1780
  285BOLB   C1C 6833  21.095  -3.164  26.282  0.0896  0.1431 -0.0416
  285BOLB   C2C 6834  21.264  -3.436  26.116 -0.0561  0.0587  0.1663
  285BOLB   C3C 6835  21.320  -3.756  25.849 -0.2791 -0.0900  0.3175
  285BOLB   C4C 6836  21.741  -3.991  25.653  0.0555 -0.1792 -0.4251
  285BOLB   C1D 6837  21.224  -3.003  26.731  0.0442  0.3414  0.1545
  285BOLB   C2D 6838  21.428  -3.335  26.574 -0.3980  0.3577 -0.2566
  285BOLB   C3D 6839  21.657  -3.640  26.490 -0.0492  0.0098 -0.0699
  285BOLB   C4D 6840  21.957  -3.765  26.186  0.2431  0.0823  0.0196
  286BOLB   NC1 6841  16.335  -1.015  30.779 -0.0259  0.1377 -0.1020
  286BOLB   PO1 6842  16.183  -1.384  30.958 -0.2030 -0.0423  0.0769
  286BOLB   GL1 6843  16.291  -1.637  31.265  0.1705  0.0628 -0.0013
  286BOLB   GL2 6844  16.295  -1.914  31.082  0.1170 -0.0608  0.3891
  286BOLB   C1A 6845  16.213  -1.989  31.629 -0.2103 -0.1053 -0.0137
  286BOLB   C2A 6846  16.049  -2.332  31.818  0.2048 -0.1753  0.0474
  286BOLB   C3A 6847  15.922  -2.570  32.158 -0.0424  0.0133  0.3918
  286BOLB   C4A 6848  16.005  -2.972  32.334 -0.3020  0.0834 -0.0882
  286BOLB   C1B 6849  16.463  -2.334  31.117 -0.5023 -0.4487 -0.3106
  286BOLB   C2B 6850  16.655  -2.720  31.379  0.0826 -0.0048  0.2121
  286BOLB   C3B 6851  16.891  -3.093  31.243 -0.3808  0.2740 -0.0284
  286BOLB   C4B 6852  17.085  -3.251  31.594  0.1911 -0.0202 -0.2222
  286BOLB   NC2 6853  17.463  -3.265  34.128  0.0782 -0.3785  0.2175
  286BOLB   PO2 6854  17.012  -3.342  34.187  0.2044  0.0154  0.4934
  286BOLB   GL3 6855  17.080  -3.543  33.805 -0.1224 -0.0391 -0.0814
  286BOLB   GL4 6856  17.282  -3.387  33.699  0.1282 -0.3524 -0.1005
  286BOLB   C1C 6857  17.004  -3.566  33.354 -0.2359  0.0540 -0.2262
  286BOLB   C2C 6858  16.733  -3.541  33.114  0.0489  0.2115 -0.2741
  286BOLB   C3C 6859  16.387  -3.249  33.025 -0.1261 -0.0248 -0.1321
  286BOLB   C4C 6860  16.167  -3.007  32.688 -0.0729 -0.0038 -0.0009
  286BOLB   C1D 6861  17.084  -3.090  33.581 -0.0615  0.3097 -0.2283
  286BOLB   C2D 6862  16.724  -3.023  33.282 -0.0844  0.0512  0.0175
  286BOLB   C3D 6863  16.531  -2.691  33.010 -0.3317 -0.1023 -0.0853
  286BOLB   C4D 6864  16.435  -2.303  32.827  0.1592 -0.2790 -0.1926
  287BOLB   NC1 6865  10.489  10.155  30.151  0.0395 -0.0520  0.0324
  287BOLB   PO1 6866  10.451  10.311  29.728  0.1771 -0.2386 -0.1236
  287BOLB   GL1 6867  10.077  10.610  29.978 -0.1213  0.0005  0.2636
  287BOLB   GL2 6868  10.185  10.975  29.907  0.0567  0.0633 -0.0346
  287BOLB   C1A 6869   9.592  10.757  30.090  0.0450  0.0155  0.2133
  287BOLB   C2A 6870   9.165  10.623  30.286 -0.1665 -0.3943 -0.4237
  287BOLB   C3A 6871   8.766  10.694  30.248  0.4509 -0.0476 -0.1775
  287BOLB   C4A 6872   8.489  10.660  30.516  0.1267  0.0634 -0.0217
  287BOLB   C1B 6873   9.933  11.167  30.311 -0.1066  0.0663  0.0305
  287BOLB   C2B 6874   9.591  11.378  30.571 -0.0230 -0.1764 -0.0836
  287BOLB   C3B 6875   9.052  11.506  30.575 -0.2845  0.1551 -0.1335
  287BOLB   C4B 6876   8.675  11.625  30.329  0.1166 -0.0382 -0.2649
  287BOLB   NC2 6877   7.360  11.700  32.317 -0.0528 -0.0100  0.4248
  287BOLB   PO2 6878   7.101  11.431  32.138  0.1137  0.1467  0.4300
  287BOLB   GL3 6879   7.435  11.543  31.856  0.1713  0.0254 -0.0947
  287BOLB   GL4 6880   7.735  11.668  31.957  0.0919  0.1003 -0.0350
  287BOLB   C1C 6881   7.675  11.267  31.634  0.0887  0.1646  0.2427
  287BOLB   C2C 6882   7.859  11.168  31.293  0.0972  0.3349 -0.0762
  287BOLB   C3C 6883   7.998  11.062  30.971  0.1343 -0.1139  0.0728
  287BOLB   C4C 6884   8.115  10.720  30.753 -0.0149 -0.1896 -0.2294
  287BOLB   C1D 6885   7.853  11.730  31.576  0.0730  0.0439  0.1580
  287BOLB   C2D 6886   8.234  11.553  31.440 -0.0070  0.0826 -0.1415
  287BOLB   C3D 6887   8.387  11.128  31.276 -0.1082 -0.1499  0.0728
  287BOLB   C4D 6888   8.544  10.928  31.034 -0.0456  0.0369 -0.2878
  288BOLB   NC1 6889  10.975   1.051  31.313  0.1143  0.0608  0.2989
  288BOLB   PO1 6890  10.673   1.179  31.601  0.0895 -0.2037  0.2065
  288BOLB   GL1 6891  10.413   1.012  31.709  0.2610 -0.1846 -0.0517
  288BOLB   GL2 6892  10.169   0.890  31.588  0.1535  0.4332 -0.2078
  288BOLB   C1A 6893  10.419   0.668  31.977 -0.2969  0.1639  0.1978
  288BOLB   C2A 6894  10.089   0.643  32.256 -0.1099 -0.2471 -0.2675
  288BOLB   C3A 6895   9.655   0.535  32.497  0.4006  0.1819 -0.0475
  288BOLB   C4A 6896   9.246   0.535  32.776 -0.0496  0.1683  0.0294
  288BOLB   C1B 6897   9.891   0.556  31.810  0.0978 -0.0318 -0.1069
  288BOLB   C2B 6898   9.431   0.337  31.961 -0.1333 -0.0784  0.0531
  288BOLB   C3B 6899   9.161   0.035  31.998  0.0979 -0.0390  0.1867
  288BOLB   C4B 6900   9.161  -0.234  32.166 -0.0641 -0.0276 -0.2860
  288BOLB   NC2 6901   7.524  -0.312  34.480  0.0947 -0.0620  0.2484
  288BOLB   PO2 6902   7.673   0.105  34.336 -0.0228  0.2066 -0.2533
  288BOLB   GL3 6903   7.714   0.171  33.794 -0.0265 -0.0857 -0.2099
  288BOLB   GL4 6904   7.657   0.494  33.718  0.1525 -0.0560 -0.1778
  288BOLB   C1C 6905   8.003   0.305  33.464  0.2389  0.2397 -0.2154
  288BOLB   C2C 6906   8.341   0.100  33.202 -0.1416  0.3041  0.1491
  288BOLB   C3C 6907   8.714   0.122  32.981 -0.1942 -0.1690 -0.2703
  288BOLB   C4C 6908   8.903   0.498  32.889  0.2765  0.1762 -0.0829
  288BOLB   C1D 6909   8.066   0.703  33.738  0.2950  0.2404  0.0550
  288BOLB   C2D 6910   8.443   0.800  33.347 -0.0070  0.1558 -0.0408
  288BOLB   C3D 6911   8.781   0.918  33.061  0.1359 -0.3046 -0.0376
  288BOLB   C4D 6912   9.127   0.979  32.834 -0.1093 -0.2666  0.0157
  289BOLB   NC1 6913   8.684  -1.518  23.541  0.0624 -0.0056 -0.2165
  289BOLB   PO1 6914   8.503  -1.248  23.803 -0.4351  0.0020 -0.4162
  289BOLB   GL1 6915   8.166  -1.396  23.604  0.0387  0.2928  0.0389
  289BOLB   GL2 6916   7.920  -1.150  23.524 -0.2886  0.1745 -0.0082
  289BOLB   C1A 6917   7.945  -1.528  23.206 -0.2533  0.3984 -0.0401
  289BOLB   C2A 6918   7.556  -1.725  23.182 -0.3661  0.1947 -0.0940
  289BOLB   C3A 6919   7.119  -1.939  23.033 -0.2086 -0.1144  0.0231
  289BOLB   C4A 6920   7.084  -1.980  22.520 -0.0259  0.2365 -0.1713
  289BOLB   C1B 6921   7.615  -1.335  23.535 -0.0059 -0.0070  0.0076
  289BOLB   C2B 6922   7.139  -1.528  23.565 -0.2102 -0.1185 -0.2827
  289BOLB   C3B 6923   6.715  -1.790  23.878 -0.2687  0.1930  0.1334
  289BOLB   C4B 6924   6.372  -1.711  24.138  0.0272  0.0750 -0.1217
  289BOLB   NC2 6925   6.058  -3.725  21.042 -0.1396 -0.1961 -0.0357
  289BOLB   PO2 6926   5.797  -3.522  21.355 -0.2495 -0.0132 -0.0099
  289BOLB   GL3 6927   6.230  -3.330  21.336  0.0693  0.1937  0.2778
  289BOLB   GL4 6928   6.151  -3.127  21.032  0.0390  0.4795 -0.0080
  289BOLB   C1C 6929   6.512  -3.021  21.602 -0.0639 -0.2326 -0.1797
  289BOLB   C2C 6930   6.853  -2.827  21.795 -0.0339  0.3260 -0.2364
  289BOLB   C3C 6931   7.233  -2.551  21.954 -0.0582  0.0236 -0.0352
  289BOLB   C4C 6932   7.365  -2.256  22.367  0.0240 -0.1546  0.1336
  289BOLB   C1D 6933   6.321  -2.802  21.226 -0.0381 -0.1626  0.1523
  289BOLB   C2D 6934   6.727  -2.594  21.316  0.4245 -0.3379 -0.1289
  289BOLB   C3D 6935   6.936  -2.297  21.621 -0.2787 -0.2670 -0.2307
  289BOLB   C4D 6936   7.273  -2.077  21.900  0.3883 -0.0650  0.1410
  290BOLB   NC1 6937  16.996  10.228  31.204 -0.0002 -0.0145 -0.0427
  290BOLB   PO1 6938  17.339  10.448  31.240  0.0566  0.0304 -0.1195
  290BOLB   GL1 6939  17.570  10.495  31.657  0.2416 -0.0383 -0.0887
  290BOLB   GL2 6940  17.400  10.226  31.836  0.0127  0.0181 -0.1073
  290BOLB   C1A 6941  17.778  10.880  31.913 -0.0127  0.0430 -0.0489
  290BOLB   C2A 6942  17.829  11.097  32.230  0.0048 -0.0632  0.3217
  290BOLB   C3A 6943  17.570  11.283  32.523 -0.0701  0.0550  0.1487
  290BOLB   C4A 6944  17.783  11.374  32.939  0.2771 -0.0304 -0.2128
  290BOLB   C1B 6945  17.400  10.219  32.223 -0.1718  0.0596 -0.0938
  290BOLB   C2B 6946  17.643  10.167  32.679 -0.0641  0.0502  0.1076
  290BOLB   C3B 6947  17.624  10.242  33.096 -0.0398  0.2695 -0.0317
  290BOLB   C4B 6948  17.694  10.401  33.485 -0.2397  0.1428  0.1630
  290BOLB   NC2 6949  19.544  12.602  34.139  0.0245 -0.1098  0.2107
  290BOLB   PO2 6950  19.428  12.926  33.674 -0.2101 -0.5075  0.1967
  290BOLB   GL3 6951  19.005  12.780  33.525 -0.2486 -0.1643 -0.3434
  290BOLB   GL4 6952  18.708  12.610  33.783 -0.0139  0.1257 -0.2243
  290BOLB   C1C 6953  18.658  12.548  33.340  0.2493  0.1976 -0.0275
  290BOLB   C2C 6954  18.526  12.164  33.156 -0.2008  0.3648 -0.1524
  290BOLB   C3C 6955  18.307  11.777  32.853  0.0639  0.0140  0.0006
  290BOLB   C4C 6956  17.888  11.685  32.949 -0.1448  0.0078 -0.0270
  290BOLB   C1D 6957  18.313  12.387  33.598  0.1624 -0.0034  0.1117
  290BOLB   C2D 6958  18.225  11.905  33.544 -0.3421 -0.0478 -0.0231
  290BOLB   C3D 6959  18.282  11.638  33.319 -0.0158 -0.0489  0.0546
  290BOLB   C4D 6960  18.297  11.305  33.013  0.3153 -0.1284  0.0315
  291BOLB   NC1 6961   6.610   4.605  25.348  0.1209  0.0846 -0.1638
  291BOLB   PO1 6962   6.762   4.901  25.642 -0.0516 -0.2957 -0.0493
  291BOLB   GL1 6963   6.331   4.751  25.790  0.4336  0.4221 -0.0313
  291BOLB   GL2 6964   6.109   4.682  25.505  0.0567 -0.1147 -0.2161
  291BOLB   C1A 6965   5.864   4.787  26.039  0.2822 -0.0478 -0.0685
  291BOLB   C2A 6966   5.446   5.002  26.077  0.1139 -0.1232  0.2121
  291BOLB   C3A 6967   5.253   5.207  26.415 -0.2124  0.2341  0.2254
  291BOLB   C4A 6968   4.906   5.517  26.527  0.0177 -0.0182  0.0217
  291BOLB   C1B 6969   5.835   4.886  25.212  0.4993 -0.2404  0.2689
  291BOLB   C2B 6970   5.473   4.673  25.116 -0.0158  0.2875  0.0149
  291BOLB   C3B 6971   5.204   4.278  25.149  0.1444 -0.0694  0.0778
  291BOLB   C4B 6972   5.018   3.966  25.529 -0.1389  0.1227  0.1060
  291BOLB   NC2 6973   2.534   6.096  25.086 -0.0398  0.1446  0.0914
  291BOLB   PO2 6974   2.729   6.103  25.415 -0.1544 -0.0862 -0.0298
  291BOLB   GL3 6975   3.143   5.964  25.564 -0.2451 -0.3659 -0.0150
  291BOLB   GL4 6976   3.314   5.873  25.319 -0.1339 -0.1565 -0.1261
  291BOLB   C1C 6977   3.570   6.039  25.906  0.1121  0.0270 -0.0953
  291BOLB   C2C 6978   4.027   6.094  26.145 -0.2445  0.2003 -0.2213
  291BOLB   C3C 6979   4.362   6.223  26.349 -0.1241 -0.0387  0.1929
  291BOLB   C4C 6980   4.541   5.867  26.614 -0.3281 -0.0216  0.0911
  291BOLB   C1D 6981   3.718   5.676  25.182 -0.8105  0.0285 -0.1137
  291BOLB   C2D 6982   3.940   5.522  24.781 -0.0411 -0.1747  0.2422
  291BOLB   C3D 6983   4.391   5.424  24.721  0.1768  0.0045  0.1566
  291BOLB   C4D 6984   4.737   5.420  24.518  0.1660 -0.0536  0.2217
  292BOLB   NC1 6985  25.676   1.715  13.784  0.4153  0.1487  0.0937
  292BOLB   PO1 6986  25.324   1.770  14.015 -0.2079 -0.2931  0.1591
  292BOLB   GL1 6987  24.941   1.807  14.300 -0.3874  0.0182 -0.1997
  292BOLB   GL2 6988  25.007   1.685  14.729  0.2482 -0.0746  0.4006
  292BOLB   C1A 6989  24.561   1.514  14.418  0.0199  0.0230 -0.1677
  292BOLB   C2A 6990  24.601   1.166  14.591  0.0400 -0.0952 -0.0506
  292BOLB   C3A 6991  24.708   0.817  14.743  0.3489 -0.0725 -0.1425
  292BOLB   C4A 6992  24.970   0.716  14.954  0.1418 -0.0538  0.0610
  292BOLB   C1B 6993  25.091   1.177  14.859 -0.3127 -0.1176 -0.2536
  292BOLB   C2B 6994  25.436   0.940  14.630  0.0065 -0.1020 -0.6885
  292BOLB   C3B 6995  25.693   0.773  14.404 -0.3018 -0.0095 -0.3984
  292BOLB   C4B 6996  25.780   0.303  14.385 -0.1255 -0.1062 -0.3221
  292BOLB   NC2 6997  26.632   0.951  15.723  0.1384  0.0379  0.2955
  292BOLB   PO2 6998  26.738   0.683  15.459 -0.0354  0.0866  0.2224
  292BOLB   GL3 6999  26.288   0.725  15.495  0.1958 -0.0974 -0.1011
  292BOLB   GL4 7000  26.091   0.528  15.633 -0.0438 -0.0628 -0.0035
  292BOLB   C1C 7001  25.852   0.927  15.537  0.0862 -0.0541 -0.2711
  292BOLB   C2C 7002  25.550   0.971  15.757 -0.0764 -0.0392 -0.1835
  292BOLB   C3C 7003  25.143   1.082  15.629  0.3488 -0.1780  0.0738
  292BOLB   C4C 7004  24.984   0.840  15.351 -0.1858  0.0264  0.1797
  292BOLB   C1D 7005  25.625   0.476  15.747 -0.3162  0.0961  0.2466
  292BOLB   C2D 7006  25.198   0.602  15.775  0.1268 -0.3442  0.1106
  292BOLB   C3D 7007  24.862   0.824  16.002 -0.0916 -0.3212  0.1350
  292BOLB   C4D 7008  24.366   0.914  16.122  0.1393  0.0001  0.0816
  293BOLB   NC1 7009  15.302  10.039  20.471 -0.0670 -0.1734 -0.3059
  293BOLB   PO1 7010  14.858  10.214  20.378 -0.1128  0.1004  0.0446
  293BOLB   GL1 7011  14.624  10.553  20.150 -0.0017  0.1736  0.0272
  293BOLB   GL2 7012  14.460  10.426  19.913 -0.0838 -0.0112  0.2502
  293BOLB   C1A 7013  14.803  11.006  20.061  0.1371  0.1273 -0.0296
  293BOLB   C2A 7014  15.228  11.262  20.080 -0.0417  0.0702 -0.1087
  293BOLB   C3A 7015  15.450  11.655  20.144 -0.0409  0.1247  0.0271
  293BOLB   C4A 7016  15.471  12.061  20.058  0.0479  0.0488  0.0869
  293BOLB   C1B 7017  14.187  10.785  20.117 -0.0103 -0.2630  0.0193
  293BOLB   C2B 7018  13.924  10.997  20.186  0.0316  0.0301 -0.5546
  293BOLB   C3B 7019  13.897  11.515  20.238  0.0486  0.1085  0.2003
  293BOLB   C4B 7020  13.903  11.882  20.333 -0.3237  0.2433  0.3338
  293BOLB   NC2 7021  14.374  14.091  19.355 -0.1117 -0.1231  0.0493
  293BOLB   PO2 7022  14.292  13.898  18.945  0.0374  0.3712 -0.1538
  293BOLB   GL3 7023  14.359  13.425  19.079 -0.0158 -0.1951 -0.1296
  293BOLB   GL4 7024  14.520  13.269  19.000 -0.0555  0.1963  0.1449
  293BOLB   C1C 7025  14.618  13.290  19.498  0.1995 -0.0446  0.0636
  293BOLB   C2C 7026  14.569  12.957  19.768  0.0631 -0.2588 -0.0743
  293BOLB   C3C 7027  14.935  12.701  20.075 -0.0624 -0.3285 -0.1400
  293BOLB   C4C 7028  15.274  12.497  19.945 -0.1403  0.2339 -0.3120
  293BOLB   C1D 7029  14.538  12.895  19.086  0.4998  0.2876 -0.0936
  293BOLB   C2D 7030  14.423  12.611  19.237  0.0287  0.0102  0.0595
  293BOLB   C3D 7031  14.385  12.192  19.378 -0.2044  0.1175  0.0116
  293BOLB   C4D 7032  14.277  11.871  19.422 -0.0655 -0.1285 -0.1318
  294BOLB   NC1 7033  12.881  12.205  25.580  0.1407  0.2666 -0.3804
  294BOLB   PO1 7034  12.440  12.060  25.751  0.2241 -0.1785 -0.1175
  294BOLB   GL1 7035  12.443  12.551  25.850 -0.3002 -0.0067 -0.0216
  294BOLB   GL2 7036  12.627  12.749  25.649  0.1878  0.2914  0.2154
  294BOLB   C1A 7037  12.232  12.933  26.036 -0.2508 -0.1897 -0.1257
  294BOLB   C2A 7038  12.207  13.354  26.089  0.1756 -0.3031  0.2955
  294BOLB   C3A 7039  12.101  13.833  26.098  0.1482 -0.2050 -0.3135
  294BOLB   C4A 7040  12.184  14.328  26.250  0.0165  0.2250  0.0348
  294BOLB   C1B 7041  12.434  13.124  25.557  0.0878  0.1009 -0.0694
  294BOLB   C2B 7042  12.069  13.367  25.509  0.1758 -0.0340  0.0498
  294BOLB   C3B 7043  11.729  13.680  25.620  0.3818 -0.0649 -0.2398
  294BOLB   C4B 7044  11.462  14.030  25.368  0.2213 -0.0466  0.0332
  294BOLB   NC2 7045  12.491  16.977  26.611  0.0622  0.5464 -0.2098
  294BOLB   PO2 7046  12.684  16.642  26.697  0.2936  0.3297 -0.1896
  294BOLB   GL3 7047  12.458  16.279  26.869 -0.3527 -0.1343 -0.0914
  294BOLB   GL4 7048  12.727  16.088  26.902  0.0070 -0.1761  0.0142
  294BOLB   C1C 7049  12.301  15.898  26.859  0.0197 -0.0580  0.0007
  294BOLB   C2C 7050  12.308  15.655  26.477  0.0887 -0.2103 -0.1273
  294BOLB   C3C 7051  12.161  15.208  26.207 -0.2398 -0.2126  0.1783
  294BOLB   C4C 7052  12.239  14.773  26.262  0.1122 -0.1787  0.1664
  294BOLB   C1D 7053  12.810  15.570  26.865  0.0403  0.0033 -0.0946
  294BOLB   C2D 7054  12.801  15.100  26.835  0.0028 -0.1900  0.2565
  294BOLB   C3D 7055  12.607  14.735  26.861 -0.0242  0.1406  0.0402
  294BOLB   C4D 7056  12.494  14.461  26.668  0.3125  0.1122  0.1543
  295BOLB   NC1 7057   7.446   3.377  27.104 -0.2350 -0.1148 -0.1918
  295BOLB   PO1 7058   7.041   3.196  27.136  0.0537 -0.0914 -0.3642
  295BOLB   GL1 7059   6.710   3.402  27.461 -0.0648  0.3195  0.0216
  295BOLB   GL2 7060   6.381   3.387  27.388  0.1457 -0.2342 -0.3385
  295BOLB   C1A 7061   6.633   3.526  27.853 -0.1242 -0.3577  0.1656
  295BOLB   C2A 7062   6.304   3.469  28.069 -0.0680 -0.1008 -0.0661
  295BOLB   C3A 7063   5.929   3.533  28.157  0.1616  0.0811  0.2440
  295BOLB   C4A 7064   5.610   3.636  28.562 -0.2031 -0.1443 -0.1482
  295BOLB   C1B 7065   6.026   3.352  27.655 -0.0691  0.0678  0.1731
  295BOLB   C2B 7066   5.883   3.040  27.799 -0.2207  0.2088  0.5180
  295BOLB   C3B 7067   5.510   2.745  28.025  0.0229 -0.0029 -0.1755
  295BOLB   C4B 7068   5.109   2.698  27.669  0.1732 -0.1343 -0.0076
  295BOLB   NC2 7069   3.218   3.766  29.544 -0.0971 -0.1618 -0.0254
  295BOLB   PO2 7070   3.650   3.710  29.535 -0.0412  0.3373 -0.1397
  295BOLB   GL3 7071   3.835   3.357  29.201 -0.0506 -0.6497  0.0979
  295BOLB   GL4 7072   3.920   3.501  28.925 -0.0393  0.1217 -0.0834
  295BOLB   C1C 7073   4.097   3.056  28.898  0.0407 -0.2304 -0.1569
  295BOLB   C2C 7074   4.485   2.989  28.795 -0.2937  0.0315  0.0551
  295BOLB   C3C 7075   4.999   3.150  28.890  0.0701  0.0494  0.1447
  295BOLB   C4C 7076   5.383   3.319  28.804 -0.0953 -0.1621 -0.1071
  295BOLB   C1D 7077   4.205   3.682  28.777 -0.0451 -0.2374  0.0255
  295BOLB   C2D 7078   4.541   3.562  28.549  0.2705 -0.0310  0.0804
  295BOLB   C3D 7079   4.320   3.557  28.087  0.1708  0.4132 -0.1132
  295BOLB   C4D 7080   4.198   3.854  27.894 -0.0500 -0.1140  0.0049
  296BOLB   NC1 7081  12.158   9.108  31.165  0.2856  0.1660 -0.0832
  296BOLB   PO1 7082  11.806   8.843  31.422  0.0229 -0.2007  0.0642
  296BOLB   GL1 7083  11.661   8.951  31.786 -0.1088  0.2602  0.3081
  296BOLB   GL2 7084  11.706   8.992  32.055 -0.0798 -0.1267  0.0514
  296BOLB   C1A 7085  11.245   9.263  31.999 -0.1225 -0.0744 -0.0463
  296BOLB   C2A 7086  10.975   9.322  32.387  0.0325  0.1883 -0.1843
  296BOLB   C3A 7087  10.859   9.206  32.872 -0.0496 -0.2400  0.3578
  296BOLB   C4A 7088  10.890   9.211  33.252  0.0012  0.1335 -0.0312
  296BOLB   C1B 7089  11.619   9.163  32.329 -0.2630 -0.2298 -0.0096
  296BOLB   C2B 7090  11.422   9.284  32.767 -0.0798 -0.1105 -0.1051
  296BOLB   C3B 7091  11.383   9.222  33.243 -0.0066  0.0377 -0.0525
  296BOLB   C4B 7092  11.581   9.317  33.587  0.2714 -0.1605  0.1313
  296BOLB   NC2 7093   9.277   9.078  35.496 -0.0760  0.4870 -0.1694
  296BOLB   PO2 7094   9.425   9.227  35.049 -0.1839  0.0467 -0.2029
  296BOLB   GL3 7095   9.829   9.048  34.845  0.1013 -0.3385  0.0433
  296BOLB   GL4 7096  10.042   8.749  34.950  0.4031 -0.0474  0.1422
  296BOLB   C1C 7097  10.251   9.075  34.648 -0.1052  0.0965 -0.1092
  296BOLB   C2C 7098  10.431   8.958  34.331  0.2778  0.1340  0.3693
  296BOLB   C3C 7099  10.650   8.940  33.956  0.0584 -0.0450  0.1804
  296BOLB   C4C 7100  10.847   9.121  33.592 -0.0727 -0.0962 -0.0841
  296BOLB   C1D 7101  10.321   8.531  34.719  0.2408 -0.1280  0.0549
  296BOLB   C2D 7102  10.475   8.176  34.569 -0.0694 -0.1742 -0.2668
  296BOLB   C3D 7103  10.463   7.957  34.246  0.1305  0.0304 -0.0451
  296BOLB   C4D 7104  10.474   7.850  33.778 -0.1958 -0.2456 -0.0920
  297BOLB   NC1 7105  19.289  -9.940  18.253  0.0320 -0.2564 -0.2709
  297BOLB   PO1 7106  18.876  -9.668  18.110  0.1460 -0.0472 -0.2605
  297BOLB   GL1 7107  18.972  -9.284  17.881  0.0888 -0.2133 -0.0245
  297BOLB   GL2 7108  18.731  -9.113  17.812 -0.1025  0.1834 -0.1472
  297BOLB   C1A 7109  19.226  -8.995  17.681  0.3208 -0.0355 -0.0078
  297BOLB   C2A 7110  19.412  -8.669  17.794 -0.0502 -0.1794  0.0597
  297BOLB   C3A 7111  19.319  -8.446  18.051 -0.2422 -0.1896 -0.0673
  297BOLB   C4A 7112  19.296  -8.466  18.460 -0.0285  0.0397  0.1925
  297BOLB   C1B 7113  18.772  -8.655  17.709  0.1799  0.0396 -0.1990
  297BOLB   C2B 7114  18.991  -8.212  17.767  0.0828  0.3007 -0.2174
  297BOLB   C3B 7115  19.411  -8.030  17.753 -0.2607 -0.0394  0.0844
  297BOLB   C4B 7116  19.850  -8.144  17.956  0.2345  0.1843  0.2133
  297BOLB   NC2 7117  17.309  -9.211  18.971 -0.2668  0.1635 -0.2159
  297BOLB   PO2 7118  17.245  -8.776  18.961 -0.1414  0.0486  0.1933
  297BOLB   GL3 7119  17.347  -8.288  18.977  0.2867  0.3666 -0.1135
  297BOLB   GL4 7120  17.157  -8.040  19.052 -0.2101  0.1536 -0.1161
  297BOLB   C1C 7121  17.840  -8.192  18.931  0.1728 -0.2178 -0.1356
  297BOLB   C2C 7122  18.235  -8.445  18.926  0.0086 -0.3397 -0.0856
  297BOLB   C3C 7123  18.598  -8.592  18.781 -0.0547  0.1344  0.1550
  297BOLB   C4C 7124  18.945  -8.565  18.735 -0.3946  0.0178 -0.0350
  297BOLB   C1D 7125  17.462  -7.761  19.062 -0.0274  0.0859  0.1434
  297BOLB   C2D 7126  17.508  -7.417  18.852 -0.0442  0.0215  0.0881
  297BOLB   C3D 7127  17.329  -7.056  18.599  0.0534  0.0509 -0.4456
  297BOLB   C4D 7128  17.271  -6.760  18.266  0.1509  0.0596  0.2753
  298BOLB   NC1 7129  12.869  -1.644  29.072  0.0488  0.1948 -0.1703
  298BOLB   PO1 7130  13.117  -2.045  29.056 -0.1078  0.1249  0.2335
  298BOLB   GL1 7131  12.900  -2.371  29.292 -0.0717 -0.1043 -0.2804
  298BOLB   GL2 7132  13.139  -2.591  29.399 -0.2393  0.2286 -0.0715
  298BOLB   C1A 7133  12.669  -2.699  29.381 -0.0080 -0.0200  0.2902
  298BOLB   C2A 7134  12.624  -3.068  29.630  0.0756  0.0287  0.1647
  298BOLB   C3A 7135  12.648  -3.475  29.761  0.1741  0.3422  0.3014
  298BOLB   C4A 7136  12.248  -3.697  29.843 -0.0498  0.0239 -0.0190
  298BOLB   C1B 7137  13.184  -2.863  29.709  0.2838  0.0569  0.1967
  298BOLB   C2B 7138  13.420  -2.895  30.166 -0.1484  0.0060  0.0676
  298BOLB   C3B 7139  13.833  -3.104  30.399  0.2265  0.2834 -0.0251
  298BOLB   C4B 7140  13.848  -3.508  30.615  0.1065 -0.0799 -0.0789
  298BOLB   NC2 7141  11.565  -5.235  31.812 -0.1003 -0.0404 -0.1155
  298BOLB   PO2 7142  11.373  -5.412  31.445 -0.0148 -0.3986  0.1933
  298BOLB   GL3 7143  11.659  -5.046  31.234 -0.2898  0.0471 -0.0241
  298BOLB   GL4 7144  11.678  -4.753  31.427 -0.0748  0.0084 -0.0443
  298BOLB   C1C 7145  11.949  -4.931  30.831  0.0893  0.0384 -0.1891
  298BOLB   C2C 7146  12.047  -4.685  30.599 -0.0846 -0.1854  0.2601
  298BOLB   C3C 7147  11.990  -4.248  30.317  0.0343  0.0803 -0.2950
  298BOLB   C4C 7148  12.130  -3.920  30.107 -0.0780 -0.1217  0.0865
  298BOLB   C1D 7149  11.724  -4.497  31.028  0.2942 -0.0849  0.0393
  298BOLB   C2D 7150  11.965  -4.160  30.787 -0.2406 -0.0051  0.1897
  298BOLB   C3D 7151  11.915  -3.743  30.796 -0.0142  0.1869  0.1343
  298BOLB   C4D 7152  11.786  -3.296  30.859 -0.0400 -0.0437  0.0180
  299BOLB   NC1 7153  15.916  -3.060  28.394  0.0927  0.2224  0.2611
  299BOLB   PO1 7154  15.778  -3.465  28.151 -0.2114 -0.1712  0.1999
  299BOLB   GL1 7155  15.811  -3.710  28.433 -0.0901 -0.2137  0.2103
  299BOLB   GL2 7156  15.901  -4.077  28.359 -0.0641 -0.0269 -0.1074
  299BOLB   C1A 7157  15.871  -3.934  28.840  0.0691 -0.0820  0.0551
  299BOLB   C2A 7158  15.761  -4.498  28.860 -0.0969 -0.0431  0.2325
  299BOLB   C3A 7159  15.995  -4.938  28.916 -0.0617  0.0829  0.1448
  299BOLB   C4A 7160  16.152  -5.349  28.900 -0.0914 -0.0519  0.1688
  299BOLB   C1B 7161  16.194  -4.317  28.585  0.3062 -0.2843 -0.0730
  299BOLB   C2B 7162  16.280  -4.535  28.944 -0.1173 -0.0336 -0.3540
  299BOLB   C3B 7163  16.423  -4.867  29.199  0.3185  0.1405 -0.2514
  299BOLB   C4B 7164  16.384  -4.921  29.603 -0.0840 -0.0451  0.2123
  299BOLB   NC2 7165  16.472  -7.570  29.919  0.1195 -0.0981  0.0953
  299BOLB   PO2 7166  16.103  -7.486  29.613  0.0364 -0.0694  0.0075
  299BOLB   GL3 7167  16.248  -7.096  29.665  0.1208  0.2886 -0.0534
  299BOLB   GL4 7168  16.568  -7.027  29.911 -0.0421 -0.1856 -0.2540
  299BOLB   C1C 7169  16.284  -6.590  29.826  0.0783 -0.0554  0.1510
  299BOLB   C2C 7170  16.492  -6.241  29.554 -0.1736  0.0310 -0.0418
  299BOLB   C3C 7171  16.527  -5.931  29.230  0.0521 -0.2304 -0.1384
  299BOLB   C4C 7172  16.531  -5.660  28.940 -0.2795  0.0578  0.0408
  299BOLB   C1D 7173  16.765  -6.723  29.694  0.2430 -0.2397  0.1188
  299BOLB   C2D 7174  16.957  -6.260  29.438  0.0859 -0.3111 -0.0466
  299BOLB   C3D 7175  17.078  -5.939  29.182 -0.2110 -0.0125 -0.2306
  299BOLB   C4D 7176  17.480  -5.641  29.046 -0.1578 -0.0684 -0.2891
  300BOLB   NC1 7177   8.691  -0.301  27.615  0.0212 -0.0032  0.1192
  300BOLB   PO1 7178   8.510  -0.087  27.331 -0.0311  0.0430 -0.1189
  300BOLB   GL1 7179   8.102  -0.331  27.350 -0.0391 -0.0040 -0.0315
  300BOLB   GL2 7180   8.272  -0.582  27.184  0.1684  0.0554 -0.2662
  300BOLB   C1A 7181   7.654  -0.531  27.341  0.2763  0.0733  0.1711
  300BOLB   C2A 7182   7.257  -0.687  27.543  0.0774  0.2068  0.0682
  300BOLB   C3A 7183   6.918  -0.755  27.793 -0.0193 -0.0211  0.1415
  300BOLB   C4A 7184   6.602  -0.901  28.073  0.0047 -0.0050 -0.1485
  300BOLB   C1B 7185   8.072  -0.806  27.542  0.1020 -0.0965  0.1121
  300BOLB   C2B 7186   7.688  -0.973  27.583 -0.0758 -0.0678 -0.1335
  300BOLB   C3B 7187   7.346  -1.066  27.829  0.1499  0.3127  0.2952
  300BOLB   C4B 7188   6.997  -1.243  28.014 -0.3712  0.0242  0.0139
  300BOLB   NC2 7189   4.675  -1.049  29.576  0.0065  0.1767  0.1030
  300BOLB   PO2 7190   4.354  -1.258  29.219 -0.1889 -0.1178  0.1504
  300BOLB   GL3 7191   4.739  -1.116  29.001 -0.1702 -0.1076  0.0038
  300BOLB   GL4 7192   4.786  -0.887  28.782  0.0499  0.0923 -0.3354
  300BOLB   C1C 7193   5.274  -1.033  29.121 -0.1478  0.0067  0.0385
  300BOLB   C2C 7194   5.612  -0.932  29.102  0.2143 -0.3927  0.2028
  300BOLB   C3C 7195   5.952  -0.937  28.853 -0.2139  0.0403  0.2532
  300BOLB   C4C 7196   6.294  -1.098  28.434  0.0566 -0.3101  0.1360
  300BOLB   C1D 7197   5.227  -0.863  28.561  0.0148 -0.3574 -0.1977
  300BOLB   C2D 7198   5.587  -0.558  28.371 -0.2268  0.1329 -0.1146
  300BOLB   C3D 7199   5.909  -0.393  28.058  0.1884  0.0087  0.1118
  300BOLB   C4D 7200   6.361  -0.392  28.074 -0.1952 -0.0809 -0.1952
  301BOLB   NC1 7201  20.232   2.558  32.141 -0.1700  0.4723  0.1884
  301BOLB   PO1 7202  20.089   2.757  32.527  0.0274  0.1974  0.2882
  301BOLB   GL1 7203  20.274   2.570  32.807 -0.2487 -0.1297  0.0726
  301BOLB   GL2 7204  20.112   2.682  33.044 -0.2128 -0.2905 -0.1313
  301BOLB   C1A 7205  20.675   2.371  32.952  0.1385 -0.0587 -0.0771
  301BOLB   C2A 7206  20.780   2.260  33.350  0.2458  0.2054 -0.0053
  301BOLB   C3A 7207  20.907   2.145  33.788  0.0324 -0.1032  0.0667
  301BOLB   C4A 7208  21.134   2.015  34.215 -0.0486  0.4167  0.2271
  301BOLB   C1B 7209  20.294   2.501  33.370 -0.0906 -0.2968  0.0558
  301BOLB   C2B 7210  20.425   2.111  33.684 -0.0768 -0.0120  0.0403
  301BOLB   C3B 7211  20.340   1.621  33.828  0.2103 -0.2789 -0.0080
  301BOLB   C4B 7212  20.374   1.199  33.731  0.1398 -0.4720 -0.0769
  301BOLB   NC2 7213  22.649   0.170  35.577 -0.2359 -0.1170  0.0720
  301BOLB   PO2 7214  22.604   0.466  35.355  0.0023  0.2183 -0.0334
  301BOLB   GL3 7215  22.526   0.591  34.834  0.2208  0.1744 -0.0019
  301BOLB   GL4 7216  22.906   0.443  34.653  0.0951 -0.0441  0.1122
  301BOLB   C1C 7217  22.177   0.856  34.600 -0.2488  0.0851  0.0118
  301BOLB   C2C 7218  21.932   1.075  34.324  0.2200 -0.0184 -0.1493
  301BOLB   C3C 7219  21.762   1.358  34.101 -0.1707  0.0458 -0.0001
  301BOLB   C4C 7220  21.485   1.651  34.154  0.1535  0.1283  0.0618
  301BOLB   C1D 7221  22.686   0.401  34.213  0.1046 -0.0784 -0.3915
  301BOLB   C2D 7222  22.696   0.380  33.814 -0.4758 -0.0641 -0.0951
  301BOLB   C3D 7223  22.481   0.181  33.505 -0.0667 -0.3578 -0.1687
  301BOLB   C4D 7224  22.107   0.038  33.322 -0.3912  0.3101  0.1429
  302BOLB   NC1 7225  23.920   7.700  24.652  0.0241  0.2284  0.0778
  302BOLB   PO1 7226  24.060   7.909  24.972  0.1617  0.2335  0.1649
  302BOLB   GL1 7227  24.313   8.152  25.203  0.2391  0.0651 -0.3224
  302BOLB   GL2 7228  24.533   7.973  25.320 -0.1812  0.1669  0.1441
  302BOLB   C1A 7229  24.604   8.430  25.491  0.0039 -0.0424 -0.1238
  302BOLB   C2A 7230  25.037   8.618  25.352  0.1156 -0.2231 -0.2399
  302BOLB   C3A 7231  25.432   8.505  25.447  0.1078  0.0734 -0.3271
  302BOLB   C4A 7232  25.656   8.537  25.870  0.0206  0.0813 -0.0094
  302BOLB   C1B 7233  24.923   8.054  25.362 -0.1994  0.0291  0.1979
  302BOLB   C2B 7234  25.261   8.107  25.585  0.1414  0.1445 -0.0075
  302BOLB   C3B 7235  25.714   8.105  25.679 -0.0351  0.0796  0.2730
  302BOLB   C4B 7236  26.064   8.294  25.747 -0.0534 -0.1914  0.0798
  302BOLB   NC2 7237  28.011  10.207  25.182 -0.1831 -0.0066 -0.1546
  302BOLB   PO2 7238  27.827   9.863  25.476 -0.2448  0.3034 -0.0001
  302BOLB   GL3 7239  27.378   9.651  25.566 -0.1832 -0.2202  0.1637
  302BOLB   GL4 7240  27.231   9.726  25.320  0.1987  0.0921  0.3912
  302BOLB   C1C 7241  27.002   9.444  25.665  0.2458 -0.0517  0.0695
  302BOLB   C2C 7242  26.591   9.288  25.787  0.0985 -0.2562 -0.2137
  302BOLB   C3C 7243  26.304   8.950  25.790  0.0309 -0.1479 -0.3102
  302BOLB   C4C 7244  25.944   8.823  26.004  0.3628 -0.1354  0.2354
  302BOLB   C1D 7245  26.859   9.578  25.201  0.1061 -0.0175  0.2083
  302BOLB   C2D 7246  26.511   9.405  25.027  0.0562 -0.2066  0.0250
  302BOLB   C3D 7247  26.061   9.406  24.888  0.1678 -0.4025  0.3647
  302BOLB   C4D 7248  25.699   9.229  24.582  0.0542 -0.0486 -0.0520
  303BOLB   NC1 7249  10.019  -0.738  21.045  0.2343 -0.1641  0.0176
  303BOLB   PO1 7250   9.544  -0.883  21.003  0.0109  0.3607 -0.0508
  303BOLB   GL1 7251   9.346  -1.264  20.826 -0.1484  0.0537 -0.0154
  303BOLB   GL2 7252   9.449  -1.547  20.897  0.0084 -0.0304  0.1673
  303BOLB   C1A 7253   9.173  -1.448  20.355 -0.3198 -0.0500  0.0466
  303BOLB   C2A 7254   8.913  -1.737  20.186 -0.1497  0.0937  0.0343
  303BOLB   C3A 7255   8.767  -1.919  19.820 -0.4636 -0.0396 -0.2166
  303BOLB   C4A 7256   8.782  -1.795  19.424 -0.0911  0.1499  0.2056
  303BOLB   C1B 7257   9.211  -1.791  21.023 -0.1099  0.1065 -0.1036
  303BOLB   C2B 7258   9.015  -2.165  20.791 -0.3391 -0.0209 -0.1467
  303BOLB   C3B 7259   8.776  -2.583  20.708  0.0506  0.0820 -0.0064
  303BOLB   C4B 7260   8.431  -2.605  20.582 -0.1204 -0.2444  0.1134
  303BOLB   NC2 7261   8.010  -2.715  17.032 -0.0220  0.4120  0.2546
  303BOLB   PO2 7262   7.829  -2.569  17.307  0.0478  0.0399 -0.2900
  303BOLB   GL3 7263   8.195  -2.329  17.569  0.0958  0.3703  0.1130
  303BOLB   GL4 7264   8.253  -2.285  17.251  0.2295  0.0495  0.4144
  303BOLB   C1C 7265   8.142  -1.966  17.850  0.2010 -0.0263  0.0489
  303BOLB   C2C 7266   8.161  -1.759  18.239 -0.0001  0.0959  0.0543
  303BOLB   C3C 7267   8.340  -1.754  18.732  0.1827  0.2502  0.1514
  303BOLB   C4C 7268   8.631  -1.870  19.033 -0.0719 -0.1540 -0.1445
  303BOLB   C1D 7269   8.630  -2.054  17.444  0.1899  0.1403 -0.1279
  303BOLB   C2D 7270   9.081  -1.995  17.599 -0.0038  0.0988 -0.1583
  303BOLB   C3D 7271   9.364  -1.944  17.904  0.1394  0.0685  0.1371
  303BOLB   C4D 7272   9.877  -2.063  17.873 -0.1668  0.3117  0.0086
  304BOLB   NC1 7273  11.011   8.798  20.919  0.0972 -0.1259  0.1182
  304BOLB   PO1 7274  10.796   8.662  20.589  0.1189  0.3088  0.1740
  304BOLB   GL1 7275  10.607   8.623  20.308  0.0512 -0.2635 -0.1881
  304BOLB   GL2 7276  10.256   8.740  20.369  0.1970 -0.2363  0.0711
  304BOLB   C1A 7277  10.602   8.869  20.018 -0.2424 -0.1607 -0.2888
  304BOLB   C2A 7278  10.470   9.336  19.908 -0.0069  0.0151  0.0930
  304BOLB   C3A 7279  10.596   9.740  19.804  0.2383 -0.1710  0.1096
  304BOLB   C4A 7280  10.642  10.124  19.576 -0.0882 -0.0309  0.2135
  304BOLB   C1B 7281  10.056   9.146  20.481 -0.0293 -0.0995 -0.0427
  304BOLB   C2B 7282   9.690   9.302  20.327  0.0509  0.0306 -0.0588
  304BOLB   C3B 7283   9.581   9.421  19.904  0.0336 -0.2845 -0.2031
  304BOLB   C4B 7284   9.572   9.735  19.608 -0.0474 -0.0451 -0.0198
  304BOLB   NC2 7285  10.570  12.051  17.771  0.2816  0.2037 -0.0782
  304BOLB   PO2 7286  10.253  11.787  17.741 -0.1518 -0.0698 -0.2039
  304BOLB   GL3 7287  10.371  11.420  18.161 -0.0869  0.2349 -0.0522
  304BOLB   GL4 7288  10.373  11.091  18.083 -0.1138 -0.0007 -0.1476
  304BOLB   C1C 7289  10.390  11.390  18.590  0.1114 -0.1127  0.1448
  304BOLB   C2C 7290  10.786  11.235  18.867  0.1473 -0.2715  0.0147
  304BOLB   C3C 7291  10.834  10.935  19.184 -0.2001  0.0821 -0.1148
  304BOLB   C4C 7292  10.797  10.530  19.331 -0.0687 -0.5105  0.0653
  304BOLB   C1D 7293  10.232  10.921  18.351 -0.1713 -0.1703 -0.0939
  304BOLB   C2D 7294  10.426  10.845  18.680  0.3349 -0.0448 -0.1474
  304BOLB   C3D 7295  10.306  11.087  19.021 -0.0229  0.1725  0.1545
  304BOLB   C4D 7296  10.478  10.971  19.461  0.0738  0.0254 -0.0356
  305BOLB   NC1 7297   7.369   0.996  26.720  0.1544  0.2933 -0.0091
  305BOLB   PO1 7298   7.331   1.232  26.456  0.0937 -0.2981 -0.4030
  305BOLB   GL1 7299   6.848   1.170  26.510  0.1351  0.0620 -0.0602
  305BOLB   GL2 7300   6.867   0.853  26.507 -0.1952 -0.0858 -0.0455
  305BOLB   C1A 7301   6.435   1.201  26.509  0.2546 -0.2687 -0.0050
  305BOLB   C2A 7302   6.029   1.243  26.254 -0.2841 -0.1014  0.0052
  305BOLB   C3A 7303   5.585   1.251  26.371  0.0790  0.1095  0.0622
  305BOLB   C4A 7304   5.147   1.405  26.595  0.1635  0.3028  0.0470
  305BOLB   C1B 7305   6.571   0.655  26.229  0.1943  0.1953 -0.3452
  305BOLB   C2B 7306   6.258   0.493  26.142  0.0354 -0.0046 -0.0603
  305BOLB   C3B 7307   5.977   0.132  26.368  0.0300  0.2778  0.2462
  305BOLB   C4B 7308   5.699   0.073  26.454  0.4143  0.0776 -0.0378
  305BOLB   NC2 7309   2.839   0.472  26.248  0.0778  0.0316  0.2954
  305BOLB   PO2 7310   2.879   0.273  26.557 -0.0389 -0.1923 -0.0456
  305BOLB   GL3 7311   3.299   0.453  26.501  0.0708 -0.2292 -0.3110
  305BOLB   GL4 7312   3.339   0.555  26.288  0.4093 -0.0429  0.3196
  305BOLB   C1C 7313   3.716   0.602  26.701  0.1178 -0.2744 -0.1969
  305BOLB   C2C 7314   4.064   0.858  26.844  0.2482 -0.2349  0.1172
  305BOLB   C3C 7315   4.507   1.053  26.697 -0.1613  0.0374  0.0149
  305BOLB   C4C 7316   4.812   1.280  26.745  0.0084  0.3951  0.1006
  305BOLB   C1D 7317   3.699   0.741  26.017 -0.2475  0.0331  0.0660
  305BOLB   C2D 7318   4.190   0.601  25.834  0.0863  0.1065  0.0328
  305BOLB   C3D 7319   4.531   0.368  25.606  0.2109  0.0181 -0.2778
  305BOLB   C4D 7320   4.820   0.151  25.431  0.2667  0.0071 -0.0479
  306BOLB   NC1 7321  23.661   2.147  29.655 -0.1390  0.1486  0.2093
  306BOLB   PO1 7322  24.133   2.312  29.623  0.0066  0.2300 -0.0433
  306BOLB   GL1 7323  24.212   2.204  30.104  0.0831 -0.1058 -0.0642
  306BOLB   GL2 7324  23.959   1.988  30.209  0.1027  0.3243 -0.2169
  306BOLB   C1A 7325  24.486   2.094  30.327 -0.1892  0.1455 -0.0700
  306BOLB   C2A 7326  24.511   1.889  30.614 -0.0047  0.0297  0.0478
  306BOLB   C3A 7327  24.529   2.050  30.945  0.4434 -0.2516  0.1412
  306BOLB   C4A 7328  24.808   2.133  31.303  0.1250 -0.1370 -0.2937
  306BOLB   C1B 7329  24.169   1.668  30.399  0.1240  0.0750 -0.1176
  306BOLB   C2B 7330  24.246   1.413  30.674  0.1022  0.1533  0.1821
  306BOLB   C3B 7331  24.368   1.045  30.879  0.0946  0.3498 -0.0912
  306BOLB   C4B 7332  24.710   0.938  31.225  0.1120  0.2429 -0.2451
  306BOLB   NC2 7333  26.658   1.677  33.736  0.3179 -0.0289  0.1166
  306BOLB   PO2 7334  26.425   1.779  33.341  0.0637  0.1173  0.0136
  306BOLB   GL3 7335  26.127   1.726  33.014 -0.0432 -0.0213  0.1328
  306BOLB   GL4 7336  25.925   1.835  33.301  0.0034 -0.0910 -0.1470
  306BOLB   C1C 7337  25.822   1.700  32.553  0.0631 -0.0196  0.3003
  306BOLB   C2C 7338  25.454   1.963  32.210  0.7489  0.2236  0.0903
  306BOLB   C3C 7339  25.378   2.034  31.771  0.1483 -0.1767  0.3732
  306BOLB   C4C 7340  25.209   2.140  31.426  0.1963  0.2222 -0.4201
  306BOLB   C1D 7341  25.766   2.069  32.920  0.1537  0.3747 -0.5383
  306BOLB   C2D 7342  25.408   2.061  32.678 -0.0311 -0.0935  0.2320
  306BOLB   C3D 7343  25.188   2.405  32.715  0.1082 -0.3146  0.3415
  306BOLB   C4D 7344  24.780   2.614  32.593  0.3989  0.6705 -0.2620
  307BOLB   NC1 7345  16.966  -4.647  22.141 -0.3170  0.0008 -0.0329
  307BOLB   PO1 7346  17.286  -4.642  21.816  0.1623 -0.2759 -0.2673
  307BOLB   GL1 7347  17.443  -5.059  21.790  0.1115 -0.0167  0.1483
  307BOLB   GL2 7348  17.745  -5.049  21.733  0.1052 -0.0052 -0.1286
  307BOLB   C1A 7349  17.484  -5.388  21.999  0.1638 -0.1176 -0.0567
  307BOLB   C2A 7350  17.688  -5.606  22.361 -0.2149  0.1858  0.3266
  307BOLB   C3A 7351  18.102  -5.785  22.496  0.1072  0.3135  0.1411
  307BOLB   C4A 7352  18.263  -6.147  22.685 -0.2126  0.1812  0.0467
  307BOLB   C1B 7353  17.925  -5.430  21.775 -0.0444  0.1939 -0.1734
  307BOLB   C2B 7354  17.951  -5.767  21.930  0.0113  0.2234  0.1477
  307BOLB   C3B 7355  17.821  -6.065  22.217  0.3362  0.1908  0.0852
  307BOLB   C4B 7356  17.712  -6.091  22.632  0.0301 -0.1753 -0.1305
  307BOLB   NC2 7357  19.068  -8.538  22.891  0.0591 -0.1847 -0.1206
  307BOLB   PO2 7358  19.181  -8.089  22.996 -0.0382 -0.3906  0.0587
  307BOLB   GL3 7359  19.038  -7.703  22.874 -0.1987  0.1855  0.3076
  307BOLB   GL4 7360  18.974  -7.621  22.497  0.0579  0.3644  0.1234
  307BOLB   C1C 7361  18.991  -7.311  23.025  0.0066 -0.2276 -0.2815
  307BOLB   C2C 7362  18.901  -6.907  23.173  0.2443  0.1171  0.1521
  307BOLB   C3C 7363  18.619  -6.676  23.190 -0.2465 -0.0844  0.1210
  307BOLB   C4C 7364  18.311  -6.373  23.081 -0.2232  0.4736 -0.0329
  307BOLB   C1D 7365  18.842  -7.219  22.319 -0.2668  0.0360  0.3258
  307BOLB   C2D 7366  18.547  -6.880  22.197 -0.1940 -0.1957 -0.0918
  307BOLB   C3D 7367  18.439  -6.468  22.107 -0.0943  0.1293  0.2809
  307BOLB   C4D 7368  18.276  -6.040  22.094 -0.4379 -0.1546 -0.0340
  308BOLB   NC1 7369  15.933  -8.257  13.446  0.0241 -0.1495  0.0184
  308BOLB   PO1 7370  15.832  -8.160  13.806 -0.1647 -0.2707  0.3097
  308BOLB   GL1 7371  16.255  -8.029  13.977  0.1799 -0.2378  0.0560
  308BOLB   GL2 7372  16.425  -8.147  14.128 -0.0598 -0.1298 -0.4703
  308BOLB   C1A 7373  16.602  -7.718  14.320 -0.0051 -0.1071  0.3351
  308BOLB   C2A 7374  16.985  -7.615  14.534  0.1904  0.0422 -0.3426
  308BOLB   C3A 7375  17.073  -7.551  14.923 -0.0028  0.2579 -0.1883
  308BOLB   C4A 7376  17.043  -7.535  15.375 -0.0823 -0.0347 -0.0812
  308BOLB   C1B 7377  16.816  -8.154  14.426 -0.2188  0.2578 -0.0594
  308BOLB   C2B 7378  17.136  -8.085  14.710 -0.3591 -0.1006 -0.3028
  308BOLB   C3B 7379  17.172  -8.032  15.156  0.0371  0.2564 -0.0374
  308BOLB   C4B 7380  16.862  -8.007  15.326 -0.3522  0.0739  0.0569
  308BOLB   NC2 7381  14.965  -8.364  15.689  0.0271  0.2561 -0.1978
  308BOLB   PO2 7382  15.272  -8.780  15.688 -0.0781 -0.0751 -0.0837
  308BOLB   GL3 7383  15.494  -8.341  15.678  0.0379  0.0934 -0.2567
  308BOLB   GL4 7384  15.325  -8.007  15.522 -0.4807 -0.2070 -0.1313
  308BOLB   C1C 7385  15.866  -8.245  15.786  0.2607  0.0923  0.1903
  308BOLB   C2C 7386  16.058  -7.916  15.976  0.2545 -0.0912  0.1346
  308BOLB   C3C 7387  16.497  -7.774  15.877  0.0224  0.0912 -0.2216
  308BOLB   C4C 7388  16.877  -7.669  15.636 -0.0499  0.1867  0.0928
  308BOLB   C1D 7389  15.823  -7.775  15.425  0.2568  0.0990  0.1184
  308BOLB   C2D 7390  16.161  -7.566  15.162 -0.1264  0.0699  0.0459
  308BOLB   C3D 7391  16.068  -7.204  15.409  0.0968  0.0211 -0.0857
  308BOLB   C4D 7392  15.830  -6.834  15.280 -0.1413 -0.0964 -0.3612
  309BOLB   NC1 7393   7.809   1.671  20.482  0.0213  0.0670 -0.1912
  309BOLB   PO1 7394   8.225   1.724  20.183  0.1123  0.0023 -0.0456
  309BOLB   GL1 7395   8.161   1.898  19.822 -0.1284 -0.1169 -0.0774
  309BOLB   GL2 7396   7.848   1.697  19.843 -0.2804 -0.0558  0.2025
  309BOLB   C1A 7397   8.080   1.781  19.285 -0.3812 -0.2401 -0.3297
  309BOLB   C2A 7398   8.058   1.934  18.948  0.2575 -0.0819 -0.0715
  309BOLB   C3A 7399   8.097   1.840  18.414  0.1527 -0.1116 -0.0600
  309BOLB   C4A 7400   7.813   1.647  18.118  0.1094  0.2811  0.1445
  309BOLB   C1B 7401   7.643   1.660  19.526  0.3750 -0.2282  0.1649
  309BOLB   C2B 7402   7.532   1.675  19.144  0.1935  0.0413  0.2571
  309BOLB   C3B 7403   7.236   1.571  18.946 -0.1029 -0.3195  0.1871
  309BOLB   C4B 7404   7.235   1.187  18.777 -0.3162 -0.1401  0.0861
  309BOLB   NC2 7405   6.587   0.431  15.990 -0.4033 -0.0506  0.5507
  309BOLB   PO2 7406   6.763   0.271  16.278 -0.0147 -0.1999 -0.2546
  309BOLB   GL3 7407   6.940   0.453  16.681 -0.0661 -0.3167 -0.0522
  309BOLB   GL4 7408   7.305   0.424  16.615  0.3143 -0.1223  0.2544
  309BOLB   C1C 7409   7.174   0.841  16.807 -0.0349 -0.1146 -0.1410
  309BOLB   C2C 7410   7.211   1.214  16.998  0.3707 -0.0331  0.0196
  309BOLB   C3C 7411   7.446   1.355  17.377  0.2240  0.3463 -0.0389
  309BOLB   C4C 7412   7.608   1.450  17.748 -0.0512  0.0457  0.2989
  309BOLB   C1D 7413   7.655   0.371  16.792 -0.1814  0.0693 -0.0711
  309BOLB   C2D 7414   7.966   0.408  16.497  0.0375 -0.1467  0.1655
  309BOLB   C3D 7415   8.382   0.258  16.372  0.2124 -0.0066  0.0574
  309BOLB   C4D 7416   8.602   0.269  16.004  0.1004 -0.2611  0.1019
  310BOLB   NC1 7417  16.023   9.650  31.853  0.1612 -0.1898 -0.2757
  310BOLB   PO1 7418  15.606   9.778  32.154  0.3322  0.1402 -0.1354
  310BOLB   GL1 7419  15.534  10.066  32.421 -0.2146 -0.0076 -0.2933
  310BOLB   GL2 7420  15.749  10.155  32.623 -0.0615 -0.1308 -0.2977
  310BOLB   C1A 7421  15.145  10.280  32.676 -0.2028  0.2736 -0.0983
  310BOLB   C2A 7422  15.182  10.599  32.878  0.2118 -0.2982 -0.1899
  310BOLB   C3A 7423  15.208  11.025  33.144  0.0572 -0.0531  0.0651
  310BOLB   C4A 7424  15.431  11.364  33.371  0.0536  0.0102 -0.1539
  310BOLB   C1B 7425  15.601  10.326  32.984  0.0728 -0.0978 -0.0542
  310BOLB   C2B 7426  15.737  10.670  33.137  0.1791 -0.0903  0.4384
  310BOLB   C3B 7427  15.797  11.116  33.126  0.0968  0.0888 -0.0663
  310BOLB   C4B 7428  15.978  11.518  33.253  0.1023 -0.3257  0.4744
  310BOLB   NC2 7429  14.947  12.346  35.013  0.5019 -0.1767  0.2576
  310BOLB   PO2 7430  15.422  12.565  35.168 -0.3823 -0.0375 -0.2009
  310BOLB   GL3 7431  15.681  12.489  34.790 -0.0717 -0.2218 -0.1461
  310BOLB   GL4 7432  15.896  12.560  34.772  0.3393  0.0723  0.0510
  310BOLB   C1C 7433  15.563  12.239  34.397 -0.2967  0.2054 -0.0565
  310BOLB   C2C 7434  15.779  11.928  34.145 -0.1522 -0.1527 -0.0499
  310BOLB   C3C 7435  15.759  11.682  33.831  0.1015  0.1162  0.0617
  310BOLB   C4C 7436  15.400  11.586  33.687 -0.2024 -0.0691 -0.1829
  310BOLB   C1D 7437  16.114  12.251  34.549 -0.2148  0.0315  0.0529
  310BOLB   C2D 7438  16.479  12.216  34.195  0.0127  0.1568 -0.2070
  310BOLB   C3D 7439  16.788  12.074  33.961  0.3218  0.0962 -0.1771
  310BOLB   C4D 7440  16.741  11.973  33.529 -0.0803  0.1157 -0.2426
  311BOLB   NC1 7441  15.375  12.541  27.049  0.0519  0.0204 -0.0822
  311BOLB   PO1 7442  15.109  12.427  26.917  0.0385 -0.2079 -0.0271
  311BOLB   GL1 7443  15.100  12.919  26.846 -0.2522 -0.0110  0.0599
  311BOLB   GL2 7444  14.904  12.886  26.669  0.0554 -0.0440  0.1166
  311BOLB   C1A 7445  14.872  13.291  27.046  0.0425 -0.0926 -0.2532
  311BOLB   C2A 7446  14.783  13.799  27.086  0.2018  0.1349  0.1674
  311BOLB   C3A 7447  15.108  14.024  27.277 -0.0372 -0.2085  0.5929
  311BOLB   C4A 7448  15.123  14.358  27.541  0.5931 -0.0434 -0.2743
  311BOLB   C1B 7449  14.840  13.300  26.538 -0.0410  0.2366  0.1612
  311BOLB   C2B 7450  14.470  13.507  26.802 -0.1746 -0.0944  0.0351
  311BOLB   C3B 7451  14.421  14.003  26.775 -0.1546  0.1978  0.2082
  311BOLB   C4B 7452  14.616  14.379  26.893  0.2517 -0.1243  0.1888
  311BOLB   NC2 7453  14.975  16.799  27.108 -0.0215  0.0693  0.2720
  311BOLB   PO2 7454  14.702  16.838  27.479 -0.1345 -0.4124 -0.0051
  311BOLB   GL3 7455  14.597  16.454  27.703 -0.2261  0.1062  0.0002
  311BOLB   GL4 7456  14.185  16.408  27.610  0.0428 -0.0657  0.1242
  311BOLB   C1C 7457  14.817  16.150  27.930 -0.1983 -0.0802  0.2691
  311BOLB   C2C 7458  14.897  15.716  27.996 -0.1877 -0.0448 -0.3826
  311BOLB   C3C 7459  14.937  15.275  27.843  0.2141 -0.2901 -0.0351
  311BOLB   C4C 7460  15.004  14.815  27.720 -0.4163  0.2090 -0.0461
  311BOLB   C1D 7461  14.308  16.060  27.798 -0.4171 -0.2472  0.1499
  311BOLB   C2D 7462  14.308  15.624  28.003 -0.0251 -0.2015  0.1646
  311BOLB   C3D 7463  14.285  15.206  27.895  0.0968 -0.0515 -0.2194
  311BOLB   C4D 7464  14.468  14.977  27.633 -0.1155  0.4692  0.1921
  312BOLB   NC1 7465   7.920   6.280  16.354  0.0516  0.0880  0.2226
  312BOLB   PO1 7466   8.198   6.536  16.362  0.0210  0.0634 -0.0923
  312BOLB   GL1 7467   8.306   6.223  16.634  0.2738 -0.0011 -0.0313
  312BOLB   GL2 7468   8.282   5.887  16.796  0.3645 -0.0758 -0.1746
  312BOLB   C1A 7469   8.743   6.137  16.910  0.1332  0.3556 -0.1852
  312BOLB   C2A 7470   8.946   6.275  17.253  0.2982  0.0795  0.0577
  312BOLB   C3A 7471   9.248   6.138  17.515 -0.1082  0.2510 -0.0339
  312BOLB   C4A 7472   9.520   5.872  17.670 -0.3704  0.0697  0.2314
  312BOLB   C1B 7473   8.423   6.033  17.236  0.1316  0.0328  0.1544
  312BOLB   C2B 7474   8.563   6.181  17.658 -0.0956 -0.0001 -0.1304
  312BOLB   C3B 7475   8.848   6.489  17.712 -0.2388  0.1413  0.3801
  312BOLB   C4B 7476   9.230   6.642  17.570  0.1820 -0.0674  0.1399
  312BOLB   NC2 7477   8.761   5.887  15.455  0.3332 -0.0493 -0.0694
  312BOLB   PO2 7478   8.682   6.031  15.853 -0.1913 -0.2411  0.0988
  312BOLB   GL3 7479   8.865   5.750  16.063 -0.0815  0.1595  0.4271
  312BOLB   GL4 7480   8.723   5.523  16.091 -0.0083 -0.1406  0.3893
  312BOLB   C1C 7481   9.154   5.471  16.373 -0.2042 -0.1442 -0.3095
  312BOLB   C2C 7482   9.629   5.438  16.502  0.2609 -0.1421 -0.0320
  312BOLB   C3C 7483   9.757   5.599  16.937  0.4602  0.0404  0.0583
  312BOLB   C4C 7484   9.604   5.519  17.334  0.0946  0.2592 -0.3477
  312BOLB   C1D 7485   8.760   5.093  16.180  0.1094 -0.0192 -0.1606
  312BOLB   C2D 7486   8.933   4.711  16.128  0.3331  0.0865 -0.0177
  312BOLB   C3D 7487   9.314   4.667  15.793 -0.3275  0.0033 -0.3281
  312BOLB   C4D 7488   9.730   4.500  15.895 -0.0594  0.1192 -0.1405
  313BOLB   NC1 7489  15.759   7.131  17.976  0.2121  0.0670 -0.2141
  313BOLB   PO1 7490  15.695   7.359  17.626  0.0834  0.0740 -0.0050
  313BOLB   GL1 7491  15.763   7.668  17.335  0.0931  0.1361 -0.4160
  313BOLB   GL2 7492  15.888   7.879  17.423 -0.1880  0.0296  0.1781
  313BOLB   C1A 7493  15.870   7.795  16.932  0.0843 -0.0888 -0.2457
  313BOLB   C2A 7494  15.764   8.051  16.605  0.0418  0.0491 -0.1020
  313BOLB   C3A 7495  15.653   8.439  16.339 -0.1787 -0.2610  0.1997
  313BOLB   C4A 7496  15.345   8.593  16.202 -0.1304  0.2090  0.0801
  313BOLB   C1B 7497  16.064   8.186  17.208 -0.0714 -0.1617 -0.1328
  313BOLB   C2B 7498  16.198   8.597  16.909 -0.0588 -0.1524 -0.0832
  313BOLB   C3B 7499  16.350   8.803  16.696 -0.1225 -0.2216  0.1112
  313BOLB   C4B 7500  16.617   9.034  16.475  0.1812 -0.1420  0.2779
  313BOLB   NC2 7501  14.577  10.768  14.525 -0.1682 -0.2376  0.0734
  313BOLB   PO2 7502  14.550  10.365  14.616 -0.1163  0.2857  0.1061
  313BOLB   GL3 7503  14.901  10.137  14.842  0.0160  0.0784  0.1664
  313BOLB   GL4 7504  15.278  10.221  14.863 -0.0522 -0.3263 -0.0890
  313BOLB   C1C 7505  15.008   9.801  15.134  0.0020  0.0530 -0.3421
  313BOLB   C2C 7506  15.255   9.568  15.489  0.1281 -0.0339  0.3886
  313BOLB   C3C 7507  15.297   9.250  15.741 -0.0732 -0.0239 -0.0741
  313BOLB   C4C 7508  15.198   8.967  16.053  0.1186 -0.0992  0.0914
  313BOLB   C1D 7509  15.702  10.113  15.111 -0.3435 -0.0449 -0.0811
  313BOLB   C2D 7510  16.073  10.140  15.386  0.1071  0.3295  0.1326
  313BOLB   C3D 7511  16.337  10.256  15.784 -0.1592  0.0423 -0.3244
  313BOLB   C4D 7512  16.738  10.118  15.884 -0.0080 -0.1303  0.0599
  314BOLB   NC1 7513  17.066  11.976  23.822  0.2613 -0.0599 -0.0444
  314BOLB   PO1 7514  16.656  12.057  23.973  0.0398  0.2719  0.1132
  314BOLB   GL1 7515  16.523  12.359  23.741  0.1110 -0.1005 -0.0706
  314BOLB   GL2 7516  16.670  12.481  23.492  0.0023  0.0307 -0.1697
  314BOLB   C1A 7517  16.474  12.794  23.914  0.1640  0.0232  0.3189
  314BOLB   C2A 7518  16.572  13.158  23.913  0.3709  0.2486 -0.2055
  314BOLB   C3A 7519  17.015  13.431  23.822 -0.0749 -0.2928 -0.3518
  314BOLB   C4A 7520  17.180  13.711  23.893  0.0520 -0.0828  0.1214
  314BOLB   C1B 7521  16.231  12.669  23.419 -0.0884  0.0091 -0.1723
  314BOLB   C2B 7522  16.002  13.067  23.287 -0.0971  0.1384  0.2861
  314BOLB   C3B 7523  15.898  13.435  23.489 -0.2824  0.2787 -0.0656
  314BOLB   C4B 7524  16.047  13.701  23.845  0.0300 -0.2677  0.2050
  314BOLB   NC2 7525  17.544  16.100  24.318  0.0667 -0.1792 -0.1064
  314BOLB   PO2 7526  17.360  16.106  23.962  0.0732  0.2100  0.0698
  314BOLB   GL3 7527  17.198  15.762  24.034 -0.2640  0.0368 -0.0221
  314BOLB   GL4 7528  16.832  15.728  23.949  0.3342  0.0838  0.0902
  314BOLB   C1C 7529  17.400  15.367  24.034  0.2581 -0.1906  0.1899
  314BOLB   C2C 7530  17.340  14.989  23.904 -0.2331 -0.2771 -0.0942
  314BOLB   C3C 7531  17.305  14.526  23.911 -0.0814 -0.3334  0.0335
  314BOLB   C4C 7532  17.190  14.094  23.712  0.0599  0.2902 -0.0813
  314BOLB   C1D 7533  16.502  15.674  24.141 -0.0194  0.2640  0.1189
  314BOLB   C2D 7534  16.531  15.213  24.236 -0.4017 -0.1407 -0.1327
  314BOLB   C3D 7535  16.256  14.984  24.121  0.1446  0.1524  0.0489
  314BOLB   C4D 7536  15.798  14.923  24.000  0.0874  0.1535 -0.0902
  315BOLB   NC1 7537   8.639   5.323  20.850  0.1585 -0.1544  0.1398
  315BOLB   PO1 7538   8.328   5.072  21.077 -0.2539  0.0625 -0.1421
  315BOLB   GL1 7539   7.915   5.144  21.061 -0.0188  0.1332  0.1349
  315BOLB   GL2 7540   7.846   5.391  20.848  0.1099  0.4121  0.0070
  315BOLB   C1A 7541   7.460   5.044  21.108 -0.0149 -0.0288  0.2847
  315BOLB   C2A 7542   7.024   5.121  21.182  0.0187  0.0450  0.1314
  315BOLB   C3A 7543   6.538   4.936  21.079 -0.1036 -0.2522  0.0361
  315BOLB   C4A 7544   6.158   4.775  20.869 -0.1032  0.2977 -0.0579
  315BOLB   C1B 7545   7.831   5.494  20.447  0.0838  0.0126 -0.0252
  315BOLB   C2B 7546   7.538   5.371  20.151  0.1274  0.1395  0.1381
  315BOLB   C3B 7547   7.359   5.005  20.087 -0.0864 -0.1753 -0.0704
  315BOLB   C4B 7548   7.073   4.961  19.836  0.1275  0.0808 -0.1775
  315BOLB   NC2 7549   3.566   5.271  20.185 -0.2199 -0.3042  0.1056
  315BOLB   PO2 7550   3.823   5.349  20.380 -0.3684 -0.6352 -0.0377
  315BOLB   GL3 7551   4.204   5.223  20.442  0.1906 -0.0282 -0.4074
  315BOLB   GL4 7552   4.425   5.387  20.164 -0.2067 -0.0460  0.2379
  315BOLB   C1C 7553   4.608   5.038  20.595  0.1826  0.0519 -0.1778
  315BOLB   C2C 7554   4.904   5.192  20.714 -0.1695 -0.0057  0.2168
  315BOLB   C3C 7555   5.321   5.097  20.736  0.0155 -0.0096 -0.2609
  315BOLB   C4C 7556   5.706   4.862  20.813  0.2557  0.1885  0.5058
  315BOLB   C1D 7557   4.848   5.494  20.137  0.2641 -0.0824 -0.2275
  315BOLB   C2D 7558   5.270   5.332  20.311  0.0340  0.1896  0.2878
  315BOLB   C3D 7559   5.608   5.355  20.293 -0.1082 -0.1576  0.3363
  315BOLB   C4D 7560   6.009   5.202  20.484  0.1771 -0.0656 -0.3808
  316BOLB   NC1 7561  14.075  -2.851  18.492  0.0356 -0.2754 -0.1752
  316BOLB   PO1 7562  14.468  -2.813  18.408 -0.0688 -0.0194 -0.0303
  316BOLB   GL1 7563  14.379  -3.125  18.102 -0.0268  0.1226 -0.0073
  316BOLB   GL2 7564  14.495  -3.053  17.714  0.0886  0.0727  0.1466
  316BOLB   C1A 7565  14.339  -3.565  17.890 -0.0745 -0.3354 -0.1110
  316BOLB   C2A 7566  14.224  -3.951  17.717 -0.3793 -0.1205 -0.1350
  316BOLB   C3A 7567  14.152  -4.381  17.712 -0.0897 -0.2166  0.3352
  316BOLB   C4A 7568  14.195  -4.767  17.685 -0.0970 -0.0386 -0.0020
  316BOLB   C1B 7569  14.639  -3.152  17.305  0.0236  0.1577 -0.2544
  316BOLB   C2B 7570  14.815  -3.412  17.039 -0.0518 -0.0321  0.0099
  316BOLB   C3B 7571  14.430  -3.693  16.978  0.1301 -0.0842 -0.0068
  316BOLB   C4B 7572  14.339  -3.799  16.570 -0.1100 -0.2568  0.0919
  316BOLB   NC2 7573  14.211  -7.507  16.873 -0.2805  0.2177  0.2398
  316BOLB   PO2 7574  14.003  -7.179  17.012  0.2700  0.0742  0.0399
  316BOLB   GL3 7575  13.947  -6.760  17.045  0.5631 -0.2958 -0.2689
  316BOLB   GL4 7576  13.918  -6.877  17.438 -0.1060 -0.0214 -0.0787
  316BOLB   C1C 7577  13.999  -6.396  17.229  0.1095  0.2149  0.1605
  316BOLB   C2C 7578  14.188  -5.924  16.996  0.1878  0.0955  0.1722
  316BOLB   C3C 7579  14.176  -5.531  17.374 -0.1607 -0.2238 -0.3541
  316BOLB   C4C 7580  14.145  -5.163  17.604  0.1658  0.1022 -0.2328
  316BOLB   C1D 7581  13.932  -6.588  17.714  0.1975 -0.3016 -0.1138
  316BOLB   C2D 7582  14.143  -6.236  17.910 -0.0174 -0.0618  0.0073
  316BOLB   C3D 7583  14.394  -6.086  18.241 -0.3498  0.0789 -0.2218
  316BOLB   C4D 7584  14.781  -5.824  18.398 -0.4010 -0.0082  0.0288
  317BOLB   NC1 7585  14.631  -3.902  27.307 -0.0579  0.0784  0.0729
  317BOLB   PO1 7586  14.231  -3.804  27.012 -0.2782  0.0033 -0.0164
  317BOLB   GL1 7587  13.932  -4.065  27.191 -0.1541  0.3876 -0.1961
  317BOLB   GL2 7588  14.191  -4.104  27.408 -0.1289 -0.0032  0.0421
  317BOLB   C1A 7589  13.791  -4.487  27.061 -0.1002  0.0326  0.0828
  317BOLB   C2A 7590  13.456  -4.788  27.019  0.1077  0.2877 -0.0502
  317BOLB   C3A 7591  13.450  -5.234  26.998 -0.0066 -0.2406  0.0582
  317BOLB   C4A 7592  13.710  -5.644  27.008 -0.1015  0.0866 -0.1158
  317BOLB   C1B 7593  14.117  -4.599  27.544  0.1605 -0.1463  0.3451
  317BOLB   C2B 7594  14.192  -4.977  27.601  0.1185 -0.1720  0.1524
  317BOLB   C3B 7595  13.984  -5.298  27.636  0.2232  0.1700 -0.1768
  317BOLB   C4B 7596  14.010  -5.698  27.465  0.2813  0.1351 -0.0053
  317BOLB   NC2 7597  13.495  -8.189  26.961  0.1550  0.3964  0.1121
  317BOLB   PO2 7598  13.819  -8.031  27.128 -0.0173  0.2357  0.1586
  317BOLB   GL3 7599  13.971  -7.682  27.270 -0.1283  0.0099  0.0411
  317BOLB   GL4 7600  14.044  -7.605  26.916 -0.0396 -0.0153  0.1496
  317BOLB   C1C 7601  13.830  -7.325  27.397 -0.1471  0.1820  0.1847
  317BOLB   C2C 7602  13.814  -6.907  27.356 -0.0481 -0.1421  0.0533
  317BOLB   C3C 7603  13.987  -6.469  27.356  0.0008  0.2038  0.3520
  317BOLB   C4C 7604  13.989  -6.041  27.138 -0.0521 -0.0462 -0.1413
  317BOLB   C1D 7605  14.288  -7.230  27.017 -0.0828  0.0600 -0.0059
  317BOLB   C2D 7606  14.279  -6.801  27.000  0.3945 -0.0885 -0.0031
  317BOLB   C3D 7607  14.661  -6.548  26.921  0.2607 -0.0491  0.1137
  317BOLB   C4D 7608  15.009  -6.328  27.139 -0.0775 -0.0807  0.0926
  318BOLB   NC1 7609  16.413   7.928  17.894  0.0136  0.0610 -0.0908
  318BOLB   PO1 7610  16.635   7.608  17.636  0.2303  0.2277 -0.0407
  318BOLB   GL1 7611  16.391   7.815  17.329 -0.1691  0.1745 -0.0028
  318BOLB   GL2 7612  16.290   7.729  17.079  0.0465  0.1994 -0.0062
  318BOLB   C1A 7613  16.478   8.113  16.933 -0.0519 -0.0422 -0.1674
  318BOLB   C2A 7614  16.570   8.245  16.549  0.0185  0.2470  0.0356
  318BOLB   C3A 7615  16.845   8.642  16.236  0.3610  0.2511  0.0189
  318BOLB   C4A 7616  16.974   8.662  15.863 -0.3596  0.1795 -0.1374
  318BOLB   C1B 7617  16.409   7.661  16.653 -0.1563  0.4351  0.0969
  318BOLB   C2B 7618  16.197   7.969  16.437 -0.1703 -0.1570 -0.0637
  318BOLB   C3B 7619  16.142   8.405  16.412 -0.1411 -0.0525  0.0492
  318BOLB   C4B 7620  15.934   8.832  16.250 -0.0172  0.4690  0.0396
  318BOLB   NC2 7621  17.039   8.921  13.802 -0.0127  0.3348  0.0998
  318BOLB   PO2 7622  17.397   9.109  13.758 -0.3129  0.1514  0.2829
  318BOLB   GL3 7623  17.472   9.293  14.136  0.1243  0.2930  0.0541
  318BOLB   GL4 7624  17.172   9.099  14.258 -0.1533 -0.0474 -0.2786
  318BOLB   C1C 7625  17.399   9.488  14.467 -0.1653 -0.1079  0.0843
  318BOLB   C2C 7626  17.206   9.337  14.891 -0.0211  0.1476 -0.0347
  318BOLB   C3C 7627  17.340   9.240  15.316 -0.2219  0.0305  0.2490
  318BOLB   C4C 7628  17.179   8.971  15.544  0.3390  0.0052  0.1479
  318BOLB   C1D 7629  17.103   8.690  14.497 -0.0502  0.3278 -0.0097
  318BOLB   C2D 7630  16.842   8.445  14.818  0.0779 -0.0406  0.0043
  318BOLB   C3D 7631  16.588   8.595  15.114 -0.1031 -0.0214  0.1872
  318BOLB   C4D 7632  16.371   8.321  15.417 -0.3939  0.0400 -0.3006
  319BOLB   NC1 7633  23.025  -0.228  20.803 -0.2488  0.2480 -0.1781
  319BOLB   PO1 7634  23.082   0.235  20.539 -0.1997  0.4310 -0.1715
  319BOLB   GL1 7635  23.599   0.156  20.661  0.0066  0.0167  0.0028
  319BOLB   GL2 7636  23.682   0.465  20.529 -0.3363 -0.0021  0.0887
  319BOLB   C1A 7637  23.929  -0.040  20.910  0.0790 -0.1368 -0.1079
  319BOLB   C2A 7638  24.358  -0.112  21.089  0.1168  0.1104 -0.0250
  319BOLB   C3A 7639  24.744  -0.227  21.063  0.0678 -0.1873 -0.2708
  319BOLB   C4A 7640  25.011  -0.615  21.183  0.3379 -0.4194  0.0879
  319BOLB   C1B 7641  24.164   0.597  20.563 -0.4746  0.0101 -0.2304
  319BOLB   C2B 7642  24.595   0.756  20.355  0.1511  0.1151  0.2736
  319BOLB   C3B 7643  24.835   1.032  20.226 -0.1181 -0.0150 -0.0858
  319BOLB   C4B 7644  25.188   1.385  20.331 -0.1044  0.1255  0.1911
  319BOLB   NC2 7645  26.860  -0.413  19.716  0.2795  0.5529 -0.1616
  319BOLB   PO2 7646  26.975  -0.778  19.975 -0.1845  0.0809  0.3056
  319BOLB   GL3 7647  26.723  -0.822  20.319  0.1818 -0.0531  0.0841
  319BOLB   GL4 7648  26.894  -0.798  20.658 -0.3582  0.0796 -0.0020
  319BOLB   C1C 7649  26.268  -0.854  20.474 -0.2794 -0.1726 -0.1908
  319BOLB   C2C 7650  25.993  -0.760  20.612  0.0227 -0.2385 -0.1207
  319BOLB   C3C 7651  25.794  -0.839  20.975  0.2022 -0.0807 -0.2780
  319BOLB   C4C 7652  25.362  -0.898  21.154 -0.0021  0.3383  0.1528
  319BOLB   C1D 7653  26.532  -0.742  20.856  0.1667 -0.1756  0.1196
  319BOLB   C2D 7654  26.266  -0.889  21.039  0.1467 -0.0447 -0.0066
  319BOLB   C3D 7655  26.051  -1.319  21.129 -0.0291  0.2857  0.0662
  319BOLB   C4D 7656  25.809  -1.613  21.047  0.1010  0.0086 -0.1345
  320BOLB   NC1 7657  10.103  11.670  27.153  0.0184 -0.0874  0.2794
  320BOLB   PO1 7658   9.992  11.211  26.914  0.1438 -0.1760 -0.0236
  320BOLB   GL1 7659   9.724  11.516  26.864 -0.0568 -0.2089 -0.0973
  320BOLB   GL2 7660   9.834  11.795  26.731  0.0821 -0.1516 -0.1328
  320BOLB   C1A 7661   9.338  11.685  26.721 -0.1811 -0.1849 -0.1434
  320BOLB   C2A 7662   9.032  11.939  26.529  0.0465 -0.1339  0.4064
  320BOLB   C3A 7663   8.648  12.216  26.553  0.1118  0.2653 -0.3931
  320BOLB   C4A 7664   8.223  12.036  26.573  0.2619 -0.2276  0.3430
  320BOLB   C1B 7665   9.821  12.163  26.858 -0.0831  0.1118  0.0338
  320BOLB   C2B 7666   9.509  12.295  26.651  0.3726 -0.0338  0.1383
  320BOLB   C3B 7667   9.137  12.419  26.543 -0.0251 -0.3913  0.0043
  320BOLB   C4B 7668   8.848  12.537  26.212  0.2349 -0.1509 -0.0036
  320BOLB   NC2 7669   6.295  13.771  26.043 -0.2076  0.0761  0.0396
  320BOLB   PO2 7670   6.281  13.483  26.440 -0.0696 -0.2232  0.5360
  320BOLB   GL3 7671   6.702  13.171  26.377 -0.1563  0.2096  0.1347
  320BOLB   GL4 7672   6.837  13.028  26.086 -0.2640  0.0858 -0.2215
  320BOLB   C1C 7673   6.845  12.786  26.561 -0.1933  0.0908  0.4343
  320BOLB   C2C 7674   7.243  12.528  26.540  0.2647 -0.0468  0.0773
  320BOLB   C3C 7675   7.503  12.236  26.699 -0.1791  0.0463  0.1896
  320BOLB   C4C 7676   7.778  11.935  26.707 -0.0085 -0.2832 -0.1023
  320BOLB   C1D 7677   7.243  13.015  26.211  0.0657  0.1216  0.0868
  320BOLB   C2D 7678   7.638  13.366  26.333 -0.0720 -0.0657 -0.1259
  320BOLB   C3D 7679   7.845  13.614  26.541 -0.2373 -0.0698 -0.0947
  320BOLB   C4D 7680   8.233  13.559  26.830 -0.3920 -0.3503  0.1449
  321BOLB   NC1 7681  16.766  16.606  24.471 -0.1291 -0.0225 -0.0083
  321BOLB   PO1 7682  16.238  16.397  24.568 -0.1453  0.0838  0.0868
  321BOLB   GL1 7683  16.058  15.971  24.655 -0.0777  0.0163  0.0938
  321BOLB   GL2 7684  16.240  15.857  25.012 -0.3075  0.0815  0.1411
  321BOLB   C1A 7685  16.002  15.517  24.801  0.1102 -0.1681 -0.1432
  321BOLB   C2A 7686  16.124  15.154  24.936 -0.0369  0.0641  0.2387
  321BOLB   C3A 7687  16.186  14.832  25.006 -0.0916  0.0166 -0.3337
  321BOLB   C4A 7688  16.023  14.491  25.279 -0.1822  0.2369 -0.2528
  321BOLB   C1B 7689  16.451  15.565  24.680  0.1609 -0.0559 -0.0128
  321BOLB   C2B 7690  16.587  15.141  24.703  0.0847 -0.1010 -0.3951
  321BOLB   C3B 7691  16.473  14.730  24.554  0.1042 -0.1620  0.1786
  321BOLB   C4B 7692  16.192  14.418  24.352 -0.2016 -0.1315 -0.2663
  321BOLB   NC2 7693  15.337  16.282  26.136 -0.2813 -0.2191  0.4850
  321BOLB   PO2 7694  15.222  16.427  25.691 -0.0440  0.0918 -0.2427
  321BOLB   GL3 7695  15.213  15.973  25.734  0.2847 -0.0077  0.0778
  321BOLB   GL4 7696  15.184  15.808  26.038  0.0909  0.2968 -0.2321
  321BOLB   C1C 7697  15.100  15.553  25.599 -0.1757  0.1639  0.1567
  321BOLB   C2C 7698  15.039  15.082  25.670 -0.3969 -0.0112  0.0193
  321BOLB   C3C 7699  15.408  14.823  25.791  0.1710 -0.0240  0.1656
  321BOLB   C4C 7700  15.806  14.628  25.616  0.1168 -0.1563 -0.2101
  321BOLB   C1D 7701  15.330  15.339  26.086  0.0087 -0.1137  0.0808
  321BOLB   C2D 7702  15.458  15.020  26.351 -0.0522  0.0385 -0.1184
  321BOLB   C3D 7703  15.358  14.750  26.668  0.1899 -0.2181 -0.2668
  321BOLB   C4D 7704  15.229  14.489  27.016 -0.1629  0.0968 -0.3184
  322BOLB   NC1 7705   8.588   2.806  30.190  0.1101  0.2036 -0.2884
  322BOLB   PO1 7706   8.638   2.481  29.910 -0.0403 -0.3276  0.0445
  322BOLB   GL1 7707   8.349   2.293  30.189 -0.0554  0.3835 -0.1835
  322BOLB   GL2 7708   8.275   2.037  30.434 -0.5913 -0.1207  0.1429
  322BOLB   C1A 7709   7.929   2.364  30.247  0.0160 -0.2420  0.2477
  322BOLB   C2A 7710   7.536   2.132  30.307 -0.0968 -0.0757 -0.2217
  322BOLB   C3A 7711   7.347   1.971  30.704  0.1038  0.1507  0.1282
  322BOLB   C4A 7712   7.296   1.709  31.152 -0.0728  0.2626 -0.0379
  322BOLB   C1B 7713   7.902   1.951  30.680  0.1089 -0.1138 -0.0852
  322BOLB   C2B 7714   7.763   1.836  30.971  0.1217  0.0635  0.1913
  322BOLB   C3B 7715   7.681   1.881  31.458  0.0661  0.0854  0.0214
  322BOLB   C4B 7716   7.655   1.939  31.925 -0.0367  0.2568 -0.0828
  322BOLB   NC2 7717   5.971  -0.193  32.803 -0.0729 -0.1657  0.0549
  322BOLB   PO2 7718   6.006   0.189  32.719  0.1292  0.0006  0.1284
  322BOLB   GL3 7719   6.234   0.281  32.331  0.0275 -0.0493  0.1413
  322BOLB   GL4 7720   6.125   0.370  32.064 -0.1538 -0.0977  0.3986
  322BOLB   C1C 7721   6.685   0.514  32.233 -0.2110 -0.1074 -0.1126
  322BOLB   C2C 7722   6.736   0.919  32.169 -0.0386  0.1512  0.1065
  322BOLB   C3C 7723   6.843   1.200  31.744 -0.0063  0.1875  0.2773
  322BOLB   C4C 7724   7.164   1.451  31.460  0.2564 -0.0451  0.1204
  322BOLB   C1D 7725   6.235   0.787  31.904 -0.0150 -0.1473  0.2731
  322BOLB   C2D 7726   6.346   0.857  31.529  0.1561  0.0841 -0.0286
  322BOLB   C3D 7727   6.327   0.976  31.053 -0.0318 -0.1690  0.3458
  322BOLB   C4D 7728   6.615   1.134  30.706  0.0933  0.3231 -0.0912
  323BOLB   NC1 7729  11.236   9.328  30.919  0.0110 -0.2333 -0.0707
  323BOLB   PO1 7730  11.127   8.914  30.878 -0.1108  0.0534  0.0154
  323BOLB   GL1 7731  10.826   9.176  31.150 -0.0142  0.1440 -0.0302
  323BOLB   GL2 7732  10.481   9.148  31.284 -0.0649 -0.4787  0.1245
  323BOLB   C1A 7733  10.914   9.474  31.623  0.5242  0.2495  0.1596
  323BOLB   C2A 7734  10.832   9.695  32.009 -0.2220  0.2259  0.0530
  323BOLB   C3A 7735  10.653   9.777  32.359 -0.2319  0.4520 -0.3309
  323BOLB   C4A 7736  10.884   9.809  32.772  0.1918 -0.2483  0.0199
  323BOLB   C1B 7737  10.268   9.028  31.714  0.2550 -0.0089 -0.1674
  323BOLB   C2B 7738   9.953   8.912  32.121 -0.0516 -0.1104 -0.1119
  323BOLB   C3B 7739   9.613   8.779  32.278 -0.3088 -0.2647 -0.0008
  323BOLB   C4B 7740   9.244   8.506  32.516  0.1343  0.3056  0.0207
  323BOLB   NC2 7741  10.330  10.793  34.433 -0.0503 -0.2942 -0.1563
  323BOLB   PO2 7742  10.088  11.114  34.208  0.3191 -0.0151  0.2469
  323BOLB   GL3 7743  10.271  10.853  33.922  0.4897  0.0407  0.1022
  323BOLB   GL4 7744  10.362  11.059  33.769  0.4165  0.1168 -0.0606
  323BOLB   C1C 7745  10.438  10.497  33.717 -0.2367  0.0352  0.3254
  323BOLB   C2C 7746  10.494  10.091  33.681  0.0744  0.0928 -0.0135
  323BOLB   C3C 7747  10.540   9.857  33.358 -0.1458 -0.3088 -0.2939
  323BOLB   C4C 7748  10.763   9.683  33.156 -0.0672  0.1763 -0.1773
  323BOLB   C1D 7749  10.569  10.978  33.402 -0.0777 -0.1522  0.0181
  323BOLB   C2D 7750  10.672  10.806  32.944 -0.0455  0.0849  0.0639
  323BOLB   C3D 7751  10.507  10.653  32.671  0.1679 -0.0626  0.3339
  323BOLB   C4D 7752  10.433  10.743  32.309 -0.1909  0.0861  0.0125
  324BOLB   NC1 7753  16.303   2.611  33.548 -0.1103 -0.2870 -0.0396
  324BOLB   PO1 7754  16.610   2.332  33.639 -0.0769  0.0102 -0.1084
  324BOLB   GL1 7755  16.370   2.332  33.976 -0.1286 -0.0550 -0.0360
  324BOLB   GL2 7756  16.112   2.078  34.107 -0.0822  0.0599 -0.1108
  324BOLB   C1A 7757  16.456   2.460  34.411  0.4342 -0.1794 -0.1500
  324BOLB   C2A 7758  16.580   2.653  34.774  0.0026  0.2471 -0.1630
  324BOLB   C3A 7759  16.898   3.000  35.075 -0.0354 -0.0288  0.1986
  324BOLB   C4A 7760  17.115   3.001  35.416 -0.1081 -0.1777 -0.2344
  324BOLB   C1B 7761  16.249   1.914  34.492 -0.1388 -0.0623 -0.1046
  324BOLB   C2B 7762  16.252   1.703  35.005 -0.0377  0.0981 -0.0947
  324BOLB   C3B 7763  16.589   1.437  35.181 -0.0142 -0.1336  0.0034
  324BOLB   C4B 7764  16.758   1.089  35.192  0.2686 -0.1741 -0.2614
  324BOLB   NC2 7765  18.226   3.171  37.478 -0.1760  0.0690 -0.2765
  324BOLB   PO2 7766  18.001   3.363  37.800  0.0062 -0.2325 -0.0351
  324BOLB   GL3 7767  17.709   3.245  37.410 -0.1757  0.1306 -0.2605
  324BOLB   GL4 7768  17.416   3.359  37.318  0.2441  0.4184  0.0970
  324BOLB   C1C 7769  17.797   3.071  36.902 -0.1896  0.2023 -0.2386
  324BOLB   C2C 7770  17.655   3.162  36.473 -0.2109 -0.2395  0.1374
  324BOLB   C3C 7771  17.568   3.237  36.126 -0.2639 -0.2343 -0.0106
  324BOLB   C4C 7772  17.453   3.050  35.714 -0.0739  0.1402  0.3962
  324BOLB   C1D 7773  17.499   3.463  37.015  0.0201 -0.1948 -0.0128
  324BOLB   C2D 7774  17.252   3.324  36.696  0.0363  0.1142 -0.1857
  324BOLB   C3D 7775  17.103   3.298  36.352 -0.0793  0.2752 -0.0178
  324BOLB   C4D 7776  17.179   3.595  35.990 -0.1793  0.1452  0.0364
  325BOLB   NC1 7777  18.994   5.601  17.754 -0.0096  0.2091  0.3511
  325BOLB   PO1 7778  19.230   5.911  17.341  0.0900  0.1551  0.1376
  325BOLB   GL1 7779  19.057   5.821  16.914 -0.2405  0.2755 -0.0707
  325BOLB   GL2 7780  19.405   5.664  16.750 -0.0530  0.1933 -0.0640
  325BOLB   C1A 7781  18.848   5.987  16.481  0.2717  0.0228  0.0203
  325BOLB   C2A 7782  18.644   6.310  16.181 -0.0536  0.2217  0.0572
  325BOLB   C3A 7783  18.688   6.742  15.936  0.1292  0.1253  0.0140
  325BOLB   C4A 7784  18.586   6.771  15.462  0.1940  0.1011  0.3719
  325BOLB   C1B 7785  19.693   5.898  16.393  0.0150 -0.2809 -0.1227
  325BOLB   C2B 7786  20.002   6.102  16.073  0.1261  0.0832  0.0069
  325BOLB   C3B 7787  20.058   6.372  15.791  0.0455 -0.1645  0.2555
  325BOLB   C4B 7788  19.898   6.751  15.515 -0.2515  0.1145  0.2122
  325BOLB   NC2 7789  18.780   6.581  13.015  0.3801  0.0209 -0.0596
  325BOLB   PO2 7790  19.102   6.700  13.101 -0.0568 -0.3620  0.2647
  325BOLB   GL3 7791  19.231   6.537  13.474  0.0173 -0.0041  0.0503
  325BOLB   GL4 7792  19.478   6.335  13.491 -0.4230 -0.2248  0.0649
  325BOLB   C1C 7793  19.072   6.436  13.815 -0.0129  0.2536  0.1365
  325BOLB   C2C 7794  18.837   6.206  14.190 -0.2396  0.1018 -0.1460
  325BOLB   C3C 7795  18.910   6.291  14.709  0.1762 -0.0781  0.2087
  325BOLB   C4C 7796  18.711   6.568  15.047 -0.3097  0.1772  0.3600
  325BOLB   C1D 7797  19.558   6.244  13.865 -0.0564 -0.2960 -0.2324
  325BOLB   C2D 7798  19.392   6.245  14.159  0.1626 -0.0639 -0.2168
  325BOLB   C3D 7799  19.179   5.984  14.404  0.0672 -0.1640 -0.1376
  325BOLB   C4D 7800  19.153   5.850  14.880 -0.1995 -0.2015 -0.1823
  326BOLB   NC1 7801  12.441  10.615  30.463 -0.0108 -0.1109 -0.1397
  326BOLB   PO1 7802  12.341  11.015  30.147 -0.3998 -0.4325  0.1878
  326BOLB   GL1 7803  12.103  11.054  30.495  0.1195  0.1386  0.1578
  326BOLB   GL2 7804  11.966  11.294  30.487 -0.1305 -0.1480  0.1912
  326BOLB   C1A 7805  12.186  11.190  30.912 -0.1491 -0.0929  0.3371
  326BOLB   C2A 7806  12.165  11.573  31.199 -0.2499 -0.2056  0.1997
  326BOLB   C3A 7807  11.887  11.612  31.487 -0.1082 -0.1281 -0.0894
  326BOLB   C4A 7808  11.584  11.882  31.666  0.1814 -0.2174 -0.0084
  326BOLB   C1B 7809  11.860  11.653  30.692 -0.1403 -0.1645  0.0711
  326BOLB   C2B 7810  12.072  11.994  30.878 -0.3735  0.0954 -0.2285
  326BOLB   C3B 7811  12.126  12.128  31.360 -0.1673  0.1157  0.0848
  326BOLB   C4B 7812  12.088  11.905  31.789  0.3312 -0.1396 -0.0765
  326BOLB   NC2 7813  10.131  12.903  33.339  0.6904 -0.1222 -0.0178
  326BOLB   PO2 7814  10.654  12.980  33.442  0.0031 -0.1757 -0.0612
  326BOLB   GL3 7815  10.824  12.816  33.184 -0.0449 -0.5344 -0.1246
  326BOLB   GL4 7816  10.540  12.787  32.966 -0.0433  0.1613 -0.0158
  326BOLB   C1C 7817  10.911  12.427  32.932  0.0692 -0.0060  0.0116
  326BOLB   C2C 7818  11.029  12.240  32.650 -0.3303  0.1187  0.0470
  326BOLB   C3C 7819  11.371  12.062  32.480  0.0986  0.0692 -0.0830
  326BOLB   C4C 7820  11.653  12.012  32.120  0.0978  0.2784 -0.0580
  326BOLB   C1D 7821  10.541  12.467  32.640  0.1299 -0.0364 -0.0987
  326BOLB   C2D 7822  10.712  12.471  32.352 -0.2262  0.1333  0.0957
  326BOLB   C3D 7823  10.917  12.742  32.400 -0.0721 -0.0408  0.0554
  326BOLB   C4D 7824  10.995  12.951  32.735  0.1045  0.2643 -0.1144
  327BOLB   NC1 7825  12.537  -0.856  18.335  0.0279  0.3617 -0.1642
  327BOLB   PO1 7826  12.163  -0.605  18.264 -0.3631 -0.0082 -0.5131
  327BOLB   GL1 7827  11.924  -0.692  17.772  0.1086 -0.2503  0.0128
  327BOLB   GL2 7828  11.721  -0.396  17.663  0.0162 -0.2240  0.0356
  327BOLB   C1A 7829  11.694  -0.966  17.423  0.1204  0.0695  0.0905
  327BOLB   C2A 7830  11.445  -1.287  17.401 -0.1966  0.0179 -0.2974
  327BOLB   C3A 7831  11.528  -1.720  17.249  0.4485 -0.0755  0.0569
  327BOLB   C4A 7832  11.187  -1.990  17.013 -0.1316 -0.1945  0.3320
  327BOLB   C1B 7833  11.383  -0.556  17.352 -0.1331 -0.0484 -0.0273
  327BOLB   C2B 7834  11.138  -0.968  17.184 -0.2316 -0.0959 -0.0449
  327BOLB   C3B 7835  11.215  -1.209  16.875 -0.1800 -0.0858 -0.2297
  327BOLB   C4B 7836  11.640  -1.437  16.763  0.0401 -0.2576  0.1587
  327BOLB   NC2 7837  10.066  -2.867  15.215  0.0624  0.0384 -0.2595
  327BOLB   PO2 7838   9.728  -2.741  15.425  0.2734  0.1482 -0.0569
  327BOLB   GL3 7839   9.745  -2.537  15.838 -0.0818 -0.2039  0.0885
  327BOLB   GL4 7840   9.512  -2.388  15.953  0.2384 -0.0667 -0.0538
  327BOLB   C1C 7841  10.063  -2.387  16.096  0.1867 -0.3132  0.1736
  327BOLB   C2C 7842  10.474  -2.445  16.115 -0.2253 -0.0833 -0.0510
  327BOLB   C3C 7843  10.636  -2.450  16.584 -0.1547 -0.0311 -0.5796
  327BOLB   C4C 7844  10.885  -2.278  16.986 -0.1192  0.2929 -0.2870
  327BOLB   C1D 7845   9.659  -2.260  16.356  0.1353  0.0425  0.0333
  327BOLB   C2D 7846  10.066  -2.182  16.559  0.2182  0.0314  0.1389
  327BOLB   C3D 7847  10.122  -1.765  16.679  0.0614  0.0062 -0.0133
  327BOLB   C4D 7848   9.874  -1.441  16.750  0.3394  0.0410  0.1143
  328BOLB   NC1 7849   8.631  -1.159  22.611 -0.0689  0.0659  0.0471
  328BOLB   PO1 7850   8.598  -0.663  22.467 -0.1113  0.1240  0.2593
  328BOLB   GL1 7851   8.301  -0.570  22.295 -0.1985 -0.0777 -0.0416
  328BOLB   GL2 7852   8.203  -0.486  21.968  0.0555 -0.2962 -0.0806
  328BOLB   C1A 7853   7.729  -0.589  22.288 -0.2183 -0.3177  0.3381
  328BOLB   C2A 7854   7.421  -0.549  22.130  0.2773 -0.0498 -0.1165
  328BOLB   C3A 7855   7.222  -0.663  21.751 -0.3313 -0.1618 -0.1734
  328BOLB   C4A 7856   6.820  -0.539  21.486 -0.0987  0.3029 -0.1419
  328BOLB   C1B 7857   7.996  -0.831  21.969 -0.0053 -0.1541  0.1508
  328BOLB   C2B 7858   7.552  -0.992  21.973  0.0079 -0.3737 -0.1793
  328BOLB   C3B 7859   7.217  -1.207  21.902 -0.0688  0.1549 -0.1097
  328BOLB   C4B 7860   7.034  -1.380  21.518 -0.0531  0.2066 -0.2368
  328BOLB   NC2 7861   4.599  -0.968  19.862 -0.0188 -0.0239 -0.1001
  328BOLB   PO2 7862   4.629  -0.658  20.204 -0.2702  0.1788 -0.0228
  328BOLB   GL3 7863   4.853  -0.552  20.563 -0.1792  0.1110  0.1812
  328BOLB   GL4 7864   4.851  -0.253  20.716  0.0551 -0.1735 -0.0955
  328BOLB   C1C 7865   5.262  -0.522  20.653  0.1759  0.0038  0.0140
  328BOLB   C2C 7866   5.702  -0.546  20.779 -0.0677 -0.3415 -0.2220
  328BOLB   C3C 7867   6.182  -0.566  20.961  0.0891  0.0312  0.0642
  328BOLB   C4C 7868   6.338  -0.571  21.332 -0.2539 -0.2233 -0.0419
  328BOLB   C1D 7869   5.045   0.047  21.080  0.1917  0.2387  0.2373
  328BOLB   C2D 7870   5.397   0.222  21.339  0.0408  0.1876 -0.0502
  328BOLB   C3D 7871   5.802   0.241  21.470 -0.1254  0.1372  0.2979
  328BOLB   C4D 7872   6.070   0.575  21.367 -0.0892 -0.0555  0.2806
  329BOLB   NC1 7873  23.816   4.180  22.001 -0.1981  0.1493 -0.1647
  329BOLB   PO1 7874  23.975   4.424  22.337  0.2568 -0.0500 -0.1993
  329BOLB   GL1 7875  24.400   4.513  22.346 -0.0713 -0.1472 -0.0928
  329BOLB   GL2 7876  24.626   4.432  22.642  0.4010  0.0225  0.0861
  329BOLB   C1A 7877  24.669   4.783  22.100 -0.1545 -0.2042  0.1783
  329BOLB   C2A 7878  25.017   4.815  22.071  0.0967 -0.1287  0.5215
  329BOLB   C3A 7879  25.480   4.910  21.913  0.1731 -0.0217 -0.2544
  329BOLB   C4A 7880  25.899   4.788  21.831  0.0720 -0.0105  0.0139
  329BOLB   C1B 7881  24.942   4.360  22.335  0.1931 -0.1601  0.1421
  329BOLB   C2B 7882  25.273   4.352  22.139 -0.2232 -0.0981 -0.0431
  329BOLB   C3B 7883  25.766   4.464  22.167 -0.1978 -0.2562  0.1238
  329BOLB   C4B 7884  26.220   4.523  22.065  0.2095  0.3406 -0.0554
  329BOLB   NC2 7885  27.904   5.124  19.903 -0.0642  0.1511 -0.0936
  329BOLB   PO2 7886  27.466   5.100  20.065  0.0408 -0.2271  0.1845
  329BOLB   GL3 7887  27.260   4.843  20.319  0.0377  0.0225 -0.0958
  329BOLB   GL4 7888  26.854   4.932  20.358 -0.0605  0.6802 -0.1167
  329BOLB   C1C 7889  27.177   4.745  20.742  0.0457  0.2435  0.2064
  329BOLB   C2C 7890  26.980   4.906  21.182 -0.2838 -0.0689 -0.2103
  329BOLB   C3C 7891  26.703   4.805  21.321 -0.0289 -0.1358 -0.4258
  329BOLB   C4C 7892  26.180   4.846  21.387 -0.4718 -0.0560 -0.1498
  329BOLB   C1D 7893  26.540   4.775  20.668 -0.1202  0.3261 -0.0195
  329BOLB   C2D 7894  26.262   4.664  20.951 -0.0641 -0.1432  0.2161
  329BOLB   C3D 7895  25.885   4.526  21.130 -0.1565 -0.1273  0.2060
  329BOLB   C4D 7896  25.763   4.373  21.490  0.1939  0.4210 -0.2238
  330BOLB   NC1 7897  18.262  11.859  24.122  0.0831 -0.1828 -0.2616
  330BOLB   PO1 7898  17.849  11.729  24.305  0.0126  0.1112 -0.0471
  330BOLB   GL1 7899  17.885  12.055  24.566 -0.0958 -0.1267  0.0136
  330BOLB   GL2 7900  17.829  11.942  24.820  0.4123  0.1434  0.1842
  330BOLB   C1A 7901  18.009  12.508  24.493 -0.1916  0.2610 -0.2739
  330BOLB   C2A 7902  18.075  12.908  24.479  0.1176  0.0046 -0.1492
  330BOLB   C3A 7903  18.332  13.240  24.712 -0.2176 -0.0527  0.3284
  330BOLB   C4A 7904  18.631  13.456  24.802 -0.1318  0.2230  0.1527
  330BOLB   C1B 7905  17.578  12.386  24.837  0.0155 -0.1541  0.0565
  330BOLB   C2B 7906  17.619  12.774  24.697  0.1859  0.2950 -0.0202
  330BOLB   C3B 7907  17.623  13.141  24.463 -0.0745  0.4537 -0.1138
  330BOLB   C4B 7908  17.967  13.339  24.358 -0.3322 -0.0806  0.0599
  330BOLB   NC2 7909  20.645  15.843  24.259  0.2596 -0.1497  0.1655
  330BOLB   PO2 7910  20.222  15.613  24.484 -0.2080 -0.1069  0.0876
  330BOLB   GL3 7911  20.046  15.181  24.599 -0.6150 -0.2101 -0.0984
  330BOLB   GL4 7912  20.200  14.915  24.560 -0.4117  0.0670 -0.0309
  330BOLB   C1C 7913  19.613  14.843  24.431  0.0187  0.3010 -0.0596
  330BOLB   C2C 7914  19.203  14.555  24.372 -0.1253  0.0849 -0.1924
  330BOLB   C3C 7915  19.141  14.204  24.704 -0.0573 -0.0298  0.0748
  330BOLB   C4C 7916  18.832  13.785  24.807 -0.0405  0.0383  0.0040
  330BOLB   C1D 7917  19.940  14.688  24.873  0.3679  0.1844  0.0711
  330BOLB   C2D 7918  20.001  14.613  25.324  0.1812  0.1504 -0.0574
  330BOLB   C3D 7919  19.803  14.409  25.648 -0.0677 -0.0138 -0.0725
  330BOLB   C4D 7920  19.892  14.166  25.955 -0.1440  0.1969 -0.5373
  331BOLB   NC1 7921  22.297   5.338  18.780  0.2137  0.1206 -0.1236
  331BOLB   PO1 7922  22.113   5.503  18.383 -0.2356  0.3694 -0.1461
  331BOLB   GL1 7923  22.319   5.886  18.272  0.1904 -0.0700 -0.1056
  331BOLB   GL2 7924  22.351   6.219  18.372  0.2513 -0.1535 -0.0431
  331BOLB   C1A 7925  22.451   6.025  17.850 -0.0958 -0.1533  0.2121
  331BOLB   C2A 7926  22.308   6.216  17.537 -0.1797 -0.0721  0.1140
  331BOLB   C3A 7927  22.348   6.278  17.131 -0.2356 -0.2003  0.0703
  331BOLB   C4A 7928  22.461   6.175  16.771  0.2910 -0.1191  0.3654
  331BOLB   C1B 7929  22.638   6.410  18.113 -0.2302  0.2259  0.0532
  331BOLB   C2B 7930  22.848   6.756  17.966  0.1722  0.2701 -0.0972
  331BOLB   C3B 7931  23.130   7.075  17.800 -0.0120  0.4127  0.0633
  331BOLB   C4B 7932  23.234   7.435  17.587 -0.0265  0.0022 -0.0839
  331BOLB   NC2 7933  23.825   7.331  15.039  0.2588  0.1186  0.2060
  331BOLB   PO2 7934  23.803   7.656  15.297  0.0963 -0.2361  0.0463
  331BOLB   GL3 7935  23.581   7.364  15.583 -0.1834 -0.0456  0.1917
  331BOLB   GL4 7936  23.272   7.523  15.727 -0.0150  0.1573  0.2655
  331BOLB   C1C 7937  23.282   6.938  15.774  0.0141 -0.1780  0.2186
  331BOLB   C2C 7938  23.222   6.731  16.079  0.3242  0.1028 -0.0758
  331BOLB   C3C 7939  22.875   6.609  16.220  0.0003  0.0236 -0.2480
  331BOLB   C4C 7940  22.585   6.197  16.355  0.0240  0.0341  0.0639
  331BOLB   C1D 7941  23.349   7.332  16.114 -0.3075 -0.1396 -0.0968
  331BOLB   C2D 7942  23.077   7.140  16.422  0.2029  0.0919  0.1413
  331BOLB   C3D 7943  22.825   6.892  16.658  0.2592  0.1484 -0.4631
  331BOLB   C4D 7944  22.628   6.612  16.871  0.0466 -0.0074  0.1780
  332BOLB   NC1 7945  13.419   7.575  18.157  0.0513 -0.2602 -0.1491
  332BOLB   PO1 7946  13.297   7.189  18.396  0.0357 -0.1013 -0.0299
  332BOLB   GL1 7947  13.001   7.340  18.086 -0.0063  0.1189  0.0592
  332BOLB   GL2 7948  12.829   7.406  18.213  0.2473 -0.1388  0.1942
  332BOLB   C1A 7949  12.863   7.292  17.653  0.4587 -0.0216 -0.1058
  332BOLB   C2A 7950  12.649   7.340  17.335 -0.2270 -0.6949 -0.4220
  332BOLB   C3A 7951  12.494   7.736  17.177  0.0302 -0.1771  0.2084
  332BOLB   C4A 7952  12.266   8.009  16.868 -0.0156  0.0460 -0.3749
  332BOLB   C1B 7953  12.778   7.773  17.904 -0.2280 -0.0630  0.2262
  332BOLB   C2B 7954  12.573   7.990  17.634  0.2470  0.0213 -0.2482
  332BOLB   C3B 7955  12.522   8.235  17.289 -0.2333  0.0583 -0.4693
  332BOLB   C4B 7956  12.395   8.450  17.105 -0.2383  0.0389 -0.0101
  332BOLB   NC2 7957  10.946   9.353  15.817  0.0180 -0.2814 -0.0924
  332BOLB   PO2 7958  10.571   9.210  15.613  0.0047 -0.2012 -0.0421
  332BOLB   GL3 7959  10.668   8.925  16.013 -0.4094  0.0919  0.0082
  332BOLB   GL4 7960  10.925   8.729  15.880  0.2289  0.1490  0.1117
  332BOLB   C1C 7961  10.683   8.633  16.422 -0.0448 -0.0525  0.0001
  332BOLB   C2C 7962  11.020   8.372  16.616 -0.0596 -0.0352 -0.0215
  332BOLB   C3C 7963  11.383   8.215  16.862  0.0625 -0.0231  0.2268
  332BOLB   C4C 7964  11.864   8.302  16.723 -0.0901  0.2997 -0.2752
  332BOLB   C1D 7965  11.175   8.627  16.200  0.1561 -0.0634  0.1880
  332BOLB   C2D 7966  11.521   8.619  16.557  0.2804 -0.1388 -0.0542
  332BOLB   C3D 7967  11.615   8.605  17.039  0.2596  0.1741  0.3264
  332BOLB   C4D 7968  11.950   8.548  17.352  0.3552 -0.2641 -0.0439
  333BOLB   NC1 7969  22.423   1.263  30.145  0.1813 -0.1510 -0.0610
  333BOLB   PO1 7970  21.997   1.263  30.358 -0.0896  0.1038  0.0183
  333BOLB   GL1 7971  22.295   1.104  30.626 -0.0134 -0.1430 -0.3117
  333BOLB   GL2 7972  22.189   0.972  30.871  0.0010  0.0349 -0.2690
  333BOLB   C1A 7973  22.656   1.101  31.005  0.2592 -0.1542 -0.0474
  333BOLB   C2A 7974  22.882   0.945  31.331  0.2431  0.1966 -0.0576
  333BOLB   C3A 7975  23.175   0.599  31.518 -0.0181 -0.0316  0.1646
  333BOLB   C4A 7976  23.276   0.427  31.940  0.0185  0.4317 -0.2049
  333BOLB   C1B 7977  22.430   0.676  31.142  0.0569  0.0014 -0.4914
  333BOLB   C2B 7978  22.519   0.384  31.555  0.4040 -0.3068 -0.0068
  333BOLB   C3B 7979  22.778   0.299  31.821  0.0594 -0.2667 -0.0326
  333BOLB   C4B 7980  23.011  -0.011  32.041 -0.0572  0.2222 -0.1705
  333BOLB   NC2 7981  24.999  -0.351  33.055 -0.0426  0.1732  0.0367
  333BOLB   PO2 7982  24.939  -0.793  33.086 -0.0928 -0.0797  0.0376
  333BOLB   GL3 7983  24.689  -0.606  32.772  0.0746 -0.1645  0.1819
  333BOLB   GL4 7984  24.961  -0.503  32.605  0.4233 -0.0906  0.1681
  333BOLB   C1C 7985  24.388  -0.361  32.683  0.0708  0.0426 -0.1497
  333BOLB   C2C 7986  24.040  -0.070  32.806 -0.2335  0.0627 -0.3152
  333BOLB   C3C 7987  23.735   0.166  32.522 -0.0319 -0.2320  0.0677
  333BOLB   C4C 7988  23.528   0.207  32.174  0.0289 -0.1819  0.3211
  333BOLB   C1D 7989  24.707  -0.381  32.295 -0.2123  0.2689 -0.1215
  333BOLB   C2D 7990  24.540  -0.332  32.065 -0.2623  0.2630  0.1139
  333BOLB   C3D 7991  24.443  -0.356  31.648 -0.2358  0.0536  0.0218
  333BOLB   C4D 7992  24.335  -0.322  31.319 -0.1239 -0.0149  0.0820
  334BOLB   NC1 7993  11.080  -2.483  21.235  0.0121  0.0330  0.1815
  334BOLB   PO1 7994  10.775  -2.445  20.944  0.0373  0.1765 -0.5301
  334BOLB   GL1 7995  10.753  -2.607  20.609  0.1026  0.3170 -0.1954
  334BOLB   GL2 7996  10.676  -2.898  20.710  0.0566  0.2636 -0.3255
  334BOLB   C1A 7997  10.478  -2.747  20.256 -0.2745  0.0454 -0.2876
  334BOLB   C2A 7998  10.117  -2.924  19.906  0.0855  0.2190  0.2374
  334BOLB   C3A 7999  10.138  -3.388  19.726 -0.1727  0.0057 -0.0414
  334BOLB   C4A 8000   9.973  -3.785  19.462 -0.1675 -0.1575 -0.2702
  334BOLB   C1B 8001  10.817  -3.356  20.782  0.1667  0.0380 -0.2667
  334BOLB   C2B 8002  10.513  -3.717  20.815  0.5089 -0.0334 -0.0058
  334BOLB   C3B 8003  10.143  -3.816  20.855 -0.3599  0.3101 -0.1362
  334BOLB   C4B 8004   9.846  -4.060  20.738 -0.0893 -0.0191  0.1043
  334BOLB   NC2 8005   9.218  -5.531  18.323 -0.2618  0.1799 -0.2592
  334BOLB   PO2 8006   9.500  -5.589  18.017 -0.2460  0.1656  0.0149
  334BOLB   GL3 8007   9.828  -5.285  18.083  0.0070 -0.0213  0.3268
  334BOLB   GL4 8008   9.963  -5.011  17.894  0.2084 -0.1671 -0.1445
  334BOLB   C1C 8009  10.041  -5.018  18.415  0.2913 -0.1335  0.3418
  334BOLB   C2C 8010  10.091  -4.598  18.585  0.2269  0.0918 -0.0615
  334BOLB   C3C 8011  10.270  -4.314  18.944  0.0530 -0.0765 -0.0095
  334BOLB   C4C 8012  10.182  -4.088  19.306  0.0445 -0.2847  0.2998
  334BOLB   C1D 8013   9.662  -4.754  18.135  0.1129 -0.5158 -0.0042
  334BOLB   C2D 8014   9.654  -4.334  18.213  0.0243  0.2245  0.0942
  334BOLB   C3D 8015   9.908  -3.993  18.165 -0.0291 -0.0336  0.2645
  334BOLB   C4D 8016  10.030  -3.606  17.984 -0.0808 -0.3507  0.0960
  335BOLB   NC1 8017   2.736   4.334  24.646  0.0289  0.4143  0.2681
  335BOLB   PO1 8018   2.703   4.829  24.723 -0.1329 -0.1570 -0.4006
  335BOLB   GL1 8019   2.922   4.565  24.981 -0.0478  0.4056 -0.2030
  335BOLB   GL2 8020   2.777   4.572  25.198  0.2667 -0.1891 -0.1486
  335BOLB   C1A 8021   3.436   4.556  24.949 -0.0331 -0.1023 -0.3555
  335BOLB   C2A 8022   3.830   4.666  24.651 -0.1030 -0.0529 -0.2211
  335BOLB   C3A 8023   4.237   4.467  24.408  0.1425 -0.2583 -0.0286
  335BOLB   C4A 8024   4.640   4.427  24.226  0.1468  0.2804 -0.0010
  335BOLB   C1B 8025   3.126   4.762  25.331 -0.0563 -0.0552 -0.2175
  335BOLB   C2B 8026   3.466   5.097  25.409 -0.1197 -0.0914  0.0427
  335BOLB   C3B 8027   3.892   5.202  25.408  0.3539 -0.0866 -0.0290
  335BOLB   C4B 8028   4.151   4.885  25.508 -0.1334  0.1575  0.1322
  335BOLB   NC2 8029   3.465   6.219  23.992  0.0733  0.1902  0.1371
  335BOLB   PO2 8030   3.708   5.989  23.621 -0.0544 -0.3550 -0.1262
  335BOLB   GL3 8031   4.083   5.898  23.455 -0.1406  0.0493  0.2005
  335BOLB   GL4 8032   3.972   5.773  23.169  0.0364  0.1471 -0.1209
  335BOLB   C1C 8033   4.472   5.838  23.588  0.1795 -0.1232  0.1150
  335BOLB   C2C 8034   4.658   5.525  23.428 -0.1416 -0.0429  0.0571
  335BOLB   C3C 8035   4.634   5.151  23.714 -0.3248  0.3156  0.1860
  335BOLB   C4C 8036   4.758   4.718  23.911  0.0641  0.2289 -0.0128
  335BOLB   C1D 8037   4.366   5.835  23.050 -0.1669  0.0516 -0.0840
  335BOLB   C2D 8038   4.802   5.611  22.967  0.1251 -0.2745 -0.0096
  335BOLB   C3D 8039   4.935   5.411  22.576  0.0634  0.0762  0.0550
  335BOLB   C4D 8040   5.341   5.249  22.509  0.1997 -0.0456  0.2504
  336BOLB   NC1 8041  21.953   5.686  31.757 -0.0036  0.0600 -0.2181
  336BOLB   PO1 8042  21.666   5.569  31.958 -0.0020  0.2453 -0.0579
  336BOLB   GL1 8043  21.939   5.508  32.288 -0.1128  0.1526 -0.0353
  336BOLB   GL2 8044  21.850   5.229  32.515  0.2103  0.2735 -0.2702
  336BOLB   C1A 8045  21.946   5.864  32.672 -0.0096 -0.1565 -0.4141
  336BOLB   C2A 8046  22.110   6.198  32.929  0.1831  0.1155  0.0249
  336BOLB   C3A 8047  22.260   6.386  33.328  0.3266 -0.1494  0.1458
  336BOLB   C4A 8048  22.221   6.886  33.406 -0.0541  0.0587 -0.2679
  336BOLB   C1B 8049  21.979   5.340  32.926  0.1362 -0.0155 -0.0742
  336BOLB   C2B 8050  22.282   5.551  33.139 -0.1081 -0.4019  0.2495
  336BOLB   C3B 8051  22.545   5.849  33.371  0.1128  0.2608  0.0160
  336BOLB   C4B 8052  22.555   5.824  33.685 -0.2469  0.0881  0.0327
  336BOLB   NC2 8053  22.444   8.410  35.730  0.1393  0.0833  0.1128
  336BOLB   PO2 8054  22.627   8.442  35.291  0.0915 -0.1159 -0.2931
  336BOLB   GL3 8055  22.484   8.198  34.938  0.1942  0.1243  0.0227
  336BOLB   GL4 8056  22.213   8.213  34.978 -0.1013  0.2066  0.0826
  336BOLB   C1C 8057  22.372   7.896  34.615  0.0553 -0.2223 -0.0064
  336BOLB   C2C 8058  22.108   7.751  34.255 -0.2204 -0.1961 -0.0362
  336BOLB   C3C 8059  22.007   7.426  33.969  0.0226 -0.0895  0.0072
  336BOLB   C4C 8060  21.998   7.104  33.618 -0.0734  0.1071 -0.4097
  336BOLB   C1D 8061  21.777   8.385  34.994  0.0132 -0.2856  0.0304
  336BOLB   C2D 8062  21.436   8.544  34.687  0.1404  0.3903 -0.2832
  336BOLB   C3D 8063  21.091   8.742  34.500 -0.0589  0.2226 -0.0079
  336BOLB   C4D 8064  21.110   8.943  34.068 -0.2121  0.2661  0.2772
  337BOLB   NC1 8065  15.028  10.345  19.940  0.0104  0.0827 -0.1734
  337BOLB   PO1 8066  14.776  10.113  19.684 -0.0665 -0.0033 -0.1514
  337BOLB   GL1 8067  14.823  10.475  19.465 -0.1807 -0.4093 -0.0719
  337BOLB   GL2 8068  14.838  10.747  19.655  0.0749  0.3570  0.0518
  337BOLB   C1A 8069  14.677  10.772  19.193  0.2423 -0.1670 -0.0358
  337BOLB   C2A 8070  14.683  11.211  18.965  0.3210  0.1259 -0.1119
  337BOLB   C3A 8071  14.534  11.502  18.607  0.0337 -0.0401  0.4460
  337BOLB   C4A 8072  14.199  11.700  18.513  0.0492 -0.0717  0.0962
  337BOLB   C1B 8073  14.829  11.161  19.567  0.2300  0.1546 -0.1826
  337BOLB   C2B 8074  15.010  11.615  19.553  0.1467  0.1857 -0.1230
  337BOLB   C3B 8075  15.048  12.013  19.652 -0.1192  0.0966 -0.0850
  337BOLB   C4B 8076  14.800  12.390  19.672 -0.0045 -0.0087  0.1692
  337BOLB   NC2 8077  12.632  12.730  17.687 -0.0234  0.0119 -0.2763
  337BOLB   PO2 8078  12.471  12.321  17.750  0.0492 -0.3010  0.1519
  337BOLB   GL3 8079  12.713  12.055  17.764  0.3423 -0.2488 -0.1818
  337BOLB   GL4 8080  12.969  12.277  17.714 -0.0401  0.2933 -0.0037
  337BOLB   C1C 8081  12.785  11.947  18.187 -0.2272 -0.1195 -0.3711
  337BOLB   C2C 8082  12.986  11.966  18.415 -0.1002  0.1319 -0.1238
  337BOLB   C3C 8083  13.332  11.756  18.484 -0.0661 -0.1502  0.3341
  337BOLB   C4C 8084  13.760  11.555  18.630  0.0029 -0.3472 -0.0126
  337BOLB   C1D 8085  13.219  12.019  17.908  0.0152 -0.1887  0.0427
  337BOLB   C2D 8086  13.426  11.712  17.945 -0.0609 -0.1228 -0.2774
  337BOLB   C3D 8087  13.447  11.335  17.807  0.0238  0.2539  0.1134
  337BOLB   C4D 8088  13.350  11.327  17.262  0.1066 -0.3987  0.3126
  338BOLB   NC1 8089  13.029   9.509  36.886  0.1356  0.0807  0.1322
  338BOLB   PO1 8090  12.959   9.026  36.719 -0.3195 -0.1517 -0.0011
  338BOLB   GL1 8091  13.158   8.765  36.436 -0.1358  0.0620  0.0939
  338BOLB   GL2 8092  13.463   8.770  36.496 -0.1299  0.0074 -0.1505
  338BOLB   C1A 8093  13.264   8.607  36.008 -0.2353  0.0464  0.2078
  338BOLB   C2A 8094  13.396   8.457  35.567  0.3112  0.0858 -0.0901
  338BOLB   C3A 8095  13.603   8.157  35.176  0.0844 -0.2757  0.2380
  338BOLB   C4A 8096  13.760   7.757  35.019  0.1397 -0.0719  0.3152
  338BOLB   C1B 8097  13.869   8.896  36.298 -0.2251  0.0931  0.1608
  338BOLB   C2B 8098  14.271   8.547  36.194  0.2488  0.0165 -0.0375
  338BOLB   C3B 8099  14.503   8.204  36.152 -0.0768  0.2522  0.1280
  338BOLB   C4B 8100  14.627   7.851  35.923 -0.1876 -0.2070  0.0734
  338BOLB   NC2 8101  13.723   8.859  37.390 -0.0164  0.3359 -0.1623
  338BOLB   PO2 8102  13.715   8.510  36.968 -0.2720  0.0882 -0.1407
  338BOLB   GL3 8103  13.947   8.420  36.558  0.0783  0.0743  0.3670
  338BOLB   GL4 8104  13.660   8.384  36.349 -0.1249  0.1149  0.1668
  338BOLB   C1C 8105  14.000   8.040  36.266  0.1913  0.0137 -0.0538
  338BOLB   C2C 8106  14.021   7.833  36.031 -0.0752  0.0098 -0.1060
  338BOLB   C3C 8107  14.212   7.614  35.661  0.0391 -0.0889 -0.4142
  338BOLB   C4C 8108  14.227   7.604  35.236  0.0103 -0.0663 -0.0293
  338BOLB   C1D 8109  13.585   8.173  35.957 -0.1043  0.2165 -0.0687
  338BOLB   C2D 8110  13.716   7.898  35.651 -0.0018  0.0389 -0.1978
  338BOLB   C3D 8111  13.710   7.571  35.465 -0.1222 -0.1202  0.0176
  338BOLB   C4D 8112  13.444   7.312  35.212 -0.1791  0.0115  0.1046
  339BOLB   NC1 8113  19.390  -4.052  23.192  0.1240 -0.1311 -0.1603
  339BOLB   PO1 8114  19.593  -3.856  22.892  0.0881 -0.0173  0.0817
  339BOLB   GL1 8115  20.089  -3.926  22.884  0.2582  0.0827 -0.4223
  339BOLB   GL2 8116  20.148  -3.876  23.273 -0.1041 -0.1350 -0.0551
  339BOLB   C1A 8117  20.364  -4.417  23.029 -0.0314 -0.1984 -0.1183
  339BOLB   C2A 8118  20.857  -4.581  23.000 -0.0047  0.0242 -0.0942
  339BOLB   C3A 8119  21.068  -4.857  22.648  0.0140  0.1638 -0.3747
  339BOLB   C4A 8120  21.461  -4.978  22.603  0.1685  0.0094  0.0834
  339BOLB   C1B 8121  20.045  -4.263  23.381  0.2247  0.4216  0.1286
  339BOLB   C2B 8122  20.370  -4.628  23.458 -0.0958 -0.0215  0.2361
  339BOLB   C3B 8123  20.462  -4.943  23.194  0.1407  0.2049  0.2758
  339BOLB   C4B 8124  20.333  -5.216  22.863  0.2828 -0.0493 -0.2479
  339BOLB   NC2 8125  22.063  -7.206  23.462 -0.1748 -0.0189  0.0661
  339BOLB   PO2 8126  21.616  -7.262  23.323  0.4020 -0.0595  0.0152
  339BOLB   GL3 8127  21.588  -6.906  23.006  0.0072  0.3614  0.0453
  339BOLB   GL4 8128  21.320  -6.716  23.243  0.0595 -0.1535 -0.2347
  339BOLB   C1C 8129  21.458  -6.498  22.812  0.1276 -0.1072 -0.1092
  339BOLB   C2C 8130  21.735  -6.183  22.623  0.1880 -0.2926 -0.0510
  339BOLB   C3C 8131  21.786  -5.708  22.699  0.1925  0.0880  0.0325
  339BOLB   C4C 8132  21.687  -5.356  22.753  0.2208  0.1449  0.0661
  339BOLB   C1D 8133  21.133  -6.332  23.164 -0.0079  0.0832 -0.1847
  339BOLB   C2D 8134  20.842  -5.990  23.164 -0.1304 -0.3363 -0.2643
  339BOLB   C3D 8135  20.405  -6.074  23.367 -0.1380  0.3845  0.4320
  339BOLB   C4D 8136  20.021  -6.091  23.204  0.1599 -0.1042 -0.0853
  340BOLB   NC1 8137   9.376   9.139  23.264  0.0560 -0.1307 -0.0430
  340BOLB   PO1 8138   9.085   9.123  22.847  0.3469  0.1850 -0.2580
  340BOLB   GL1 8139   8.889   9.177  22.425  0.0131 -0.3365  0.2751
  340BOLB   GL2 8140   8.666   8.977  22.200 -0.0661  0.0653  0.0138
  340BOLB   C1A 8141   8.958   9.414  22.134 -0.2104 -0.0279  0.0641
  340BOLB   C2A 8142   8.715   9.714  21.964  0.2861 -0.3972  0.1633
  340BOLB   C3A 8143   8.330   9.919  21.673 -0.1977 -0.1482  0.3578
  340BOLB   C4A 8144   8.007   9.857  21.370 -0.1668 -0.0858 -0.1787
  340BOLB   C1B 8145   8.427   9.252  22.271 -0.0645  0.0637 -0.0352
  340BOLB   C2B 8146   8.163   9.651  22.153 -0.2272 -0.0823  0.1622
  340BOLB   C3B 8147   8.047  10.122  22.069 -0.2382  0.1172 -0.0469
  340BOLB   C4B 8148   7.987  10.357  21.702  0.0365 -0.1199 -0.3043
  340BOLB   NC2 8149   6.157  10.869  19.935  0.1068 -0.0848 -0.1526
  340BOLB   PO2 8150   6.428  10.615  19.744  0.1895  0.4600 -0.1793
  340BOLB   GL3 8151   6.631  10.379  20.084  0.1849 -0.0747 -0.2903
  340BOLB   GL4 8152   6.957  10.525  20.076 -0.2663 -0.1178 -0.0149
  340BOLB   C1C 8153   6.587  10.231  20.580 -0.0916 -0.0228 -0.0528
  340BOLB   C2C 8154   6.907   9.966  20.735 -0.0494  0.2667 -0.1219
  340BOLB   C3C 8155   7.278   9.768  20.819 -0.1787  0.1129  0.2130
  340BOLB   C4C 8156   7.659   9.902  21.022 -0.4467 -0.0151  0.1557
  340BOLB   C1D 8157   7.178  10.215  20.278 -0.1080  0.0677 -0.1713
  340BOLB   C2D 8158   7.524  10.185  20.610 -0.1972 -0.0980  0.0204
  340BOLB   C3D 8159   7.891  10.230  20.769  0.3194 -0.0240 -0.3425
  340BOLB   C4D 8160   7.999  10.343  21.135 -0.0589  0.0241 -0.1847
  341BOLB   NC1 8161  12.356   7.883  19.216  0.0740  0.1137 -0.0285
  341BOLB   PO1 8162  12.228   8.232  19.457 -0.2925  0.1339  0.0061
  341BOLB   GL1 8163  11.953   8.265  19.138  0.1879 -0.1270 -0.0696
  341BOLB   GL2 8164  11.827   8.010  19.329 -0.0375 -0.2561  0.1134
  341BOLB   C1A 8165  11.778   8.466  18.794 -0.0126  0.1112 -0.0445
  341BOLB   C2A 8166  11.650   8.263  18.553 -0.0306 -0.2413  0.1113
  341BOLB   C3A 8167  11.259   8.152  18.393 -0.2561  0.1145  0.1257
  341BOLB   C4A 8168  11.238   8.146  17.921 -0.0034 -0.0829  0.0647
  341BOLB   C1B 8169  11.691   7.821  18.921  0.0474 -0.1597 -0.1231
  341BOLB   C2B 8170  11.300   7.845  18.736  0.1581  0.1820  0.0900
  341BOLB   C3B 8171  11.015   7.684  18.481 -0.1580  0.3126  0.1268
  341BOLB   C4B 8172  11.298   7.624  18.172 -0.1541  0.1750 -0.1336
  341BOLB   NC2 8173  10.053   9.533  16.320 -0.0715  0.2439 -0.1208
  341BOLB   PO2 8174  10.344   9.883  16.383  0.0732 -0.1785 -0.0527
  341BOLB   GL3 8175  10.337   9.805  16.752 -0.1213 -0.3501 -0.0418
  341BOLB   GL4 8176  10.125  10.164  16.923  0.1174 -0.0708 -0.2688
  341BOLB   C1C 8177  10.593   9.589  17.113 -0.0420  0.1837  0.0335
  341BOLB   C2C 8178  10.553   9.216  17.381  0.0884  0.4084  0.0598
  341BOLB   C3C 8179  10.645   8.956  17.647 -0.1036  0.0009  0.1144
  341BOLB   C4C 8180  10.958   8.525  17.747  0.2162  0.2520  0.0932
  341BOLB   C1D 8181  10.327   9.894  17.347 -0.1850  0.0118  0.1954
  341BOLB   C2D 8182  10.469   9.648  17.640 -0.1102 -0.0338 -0.0408
  341BOLB   C3D 8183  10.861   9.389  17.761  0.0518 -0.4623  0.1832
  341BOLB   C4D 8184  11.133   9.047  17.799 -0.1777  0.1074 -0.0202
  342BOLB   NC1 8185  12.511   3.506  33.258  0.0802 -0.1058 -0.0482
  342BOLB   PO1 8186  12.244   3.733  32.973  0.0590 -0.0047 -0.1152
  342BOLB   GL1 8187  12.043   3.471  33.297 -0.0332 -0.1732  0.0581
  342BOLB   GL2 8188  11.953   3.259  33.437 -0.3805 -0.2595  0.3854
  342BOLB   C1A 8189  11.818   3.665  33.647 -0.0369 -0.3962 -0.0236
  342BOLB   C2A 8190  11.812   3.596  34.055 -0.3395 -0.0692  0.0389
  342BOLB   C3A 8191  11.917   3.726  34.465 -0.3142  0.1074  0.2457
  342BOLB   C4A 8192  12.262   3.679  34.678  0.3706 -0.1293 -0.3526
  342BOLB   C1B 8193  11.645   3.048  33.719  0.1154  0.1789  0.2191
  342BOLB   C2B 8194  11.197   2.971  33.792  0.2937 -0.0867  0.3092
  342BOLB   C3B 8195  10.778   2.702  33.774 -0.1500  0.3061  0.0792
  342BOLB   C4B 8196  10.440   2.803  33.482 -0.1819  0.1098 -0.0881
  342BOLB   NC2 8197  12.083   2.948  37.482 -0.1339 -0.0969  0.3239
  342BOLB   PO2 8198  12.222   3.417  37.270  0.0034  0.1558  0.1623
  342BOLB   GL3 8199  12.240   3.484  36.828 -0.1357 -0.0075  0.0859
  342BOLB   GL4 8200  12.111   3.824  36.766 -0.2368  0.2485 -0.2781
  342BOLB   C1C 8201  12.422   3.489  36.514  0.0354 -0.3892 -0.1201
  342BOLB   C2C 8202  12.416   3.472  35.978  0.1296 -0.1817 -0.3820
  342BOLB   C3C 8203  12.373   3.623  35.592  0.0043 -0.0262  0.2512
  342BOLB   C4C 8204  12.323   3.793  35.101  0.0754  0.1107  0.3025
  342BOLB   C1D 8205  12.250   3.934  36.342  0.0214  0.0492  0.0320
  342BOLB   C2D 8206  12.485   3.994  35.968  0.1785 -0.1140  0.1638
  342BOLB   C3D 8207  12.851   3.821  35.879  0.0166  0.0152  0.0115
  342BOLB   C4D 8208  13.189   3.983  35.725 -0.2226  0.0246  0.1332
  343BOLB   NC1 8209  10.189  -1.581  28.412  0.1046  0.1519  0.2445
  343BOLB   PO1 8210   9.815  -1.386  28.642 -0.1602 -0.1443  0.1780
  343BOLB   GL1 8211   9.560  -1.541  28.986 -0.0380  0.1178 -0.0932
  343BOLB   GL2 8212   9.365  -1.325  29.117 -0.0952  0.1538 -0.0763
  343BOLB   C1A 8213   9.280  -1.879  29.060 -0.0002 -0.0636  0.0537
  343BOLB   C2A 8214   8.953  -2.237  29.177 -0.2291  0.1013 -0.2124
  343BOLB   C3A 8215   8.849  -2.730  29.089 -0.1297 -0.0903  0.2123
  343BOLB   C4A 8216   8.914  -3.107  28.768  0.0657 -0.1534  0.1580
  343BOLB   C1B 8217   9.368  -1.600  29.484 -0.1611 -0.0334  0.0746
  343BOLB   C2B 8218   9.133  -1.963  29.531  0.0074 -0.0201 -0.0897
  343BOLB   C3B 8219   8.751  -2.109  29.802 -0.0288 -0.2222 -0.1290
  343BOLB   C4B 8220   8.388  -2.281  29.970  0.0692  0.2480 -0.1046
  343BOLB   NC2 8221   6.878  -4.268  29.079 -0.1341  0.0277 -0.0614
  343BOLB   PO2 8222   7.176  -4.668  29.097 -0.1111  0.0546 -0.0729
  343BOLB   GL3 8223   7.603  -4.727  28.897  0.0602 -0.2055 -0.2304
  343BOLB   GL4 8224   7.877  -4.858  29.011  0.0626  0.3338  0.3679
  343BOLB   C1C 8225   7.860  -4.299  28.685 -0.1406  0.0935  0.0985
  343BOLB   C2C 8226   7.953  -3.960  28.628 -0.1361  0.2274 -0.0866
  343BOLB   C3C 8227   8.166  -3.613  28.668  0.3869  0.1771 -0.1047
  343BOLB   C4C 8228   8.463  -3.271  28.621  0.1549 -0.2228  0.4307
  343BOLB   C1D 8229   8.389  -4.826  28.814 -0.1670  0.1441 -0.1559
  343BOLB   C2D 8230   8.608  -4.480  28.685 -0.0621 -0.0106  0.3953
  343BOLB   C3D 8231   8.938  -4.175  28.672  0.4466  0.0520  0.0601
  343BOLB   C4D 8232   8.971  -4.082  28.339  0.0300 -0.0934 -0.0268
  344BOLB   NC1 8233  20.386   6.883  32.259 -0.1937 -0.2552 -0.3033
  344BOLB   PO1 8234  20.123   7.035  32.029  0.1917  0.1640 -0.0704
  344BOLB   GL1 8235  20.285   7.462  32.507  0.3554  0.0644 -0.1168
  344BOLB   GL2 8236  20.437   7.245  32.596 -0.1272 -0.1016 -0.4660
  344BOLB   C1A 8237  20.381   7.655  32.932  0.0423  0.0698  0.1817
  344BOLB   C2A 8238  20.686   8.058  33.268  0.1342  0.1716  0.2199
  344BOLB   C3A 8239  20.668   8.414  33.418 -0.1781 -0.2512  0.0754
  344BOLB   C4A 8240  20.686   8.716  33.694 -0.0589 -0.2116 -0.2586
  344BOLB   C1B 8241  20.764   7.593  32.645  0.0725  0.0329  0.3023
  344BOLB   C2B 8242  21.001   7.767  32.916  0.1664  0.1355 -0.1801
  344BOLB   C3B 8243  21.244   7.939  33.203  0.2015 -0.2216  0.0971
  344BOLB   C4B 8244  21.437   8.358  33.261  0.0948 -0.2855  0.3175
  344BOLB   NC2 8245  21.141   9.102  35.840  0.0754  0.1709  0.0085
  344BOLB   PO2 8246  21.353   9.419  35.584  0.0437 -0.0689  0.1462
  344BOLB   GL3 8247  21.222   9.067  35.308 -0.1620  0.0845 -0.3240
  344BOLB   GL4 8248  21.215   8.754  35.522  0.0431  0.0079 -0.0518
  344BOLB   C1C 8249  21.222   9.073  34.896  0.1665  0.1126  0.1106
  344BOLB   C2C 8250  21.067   9.281  34.639 -0.0430  0.0161  0.1222
  344BOLB   C3C 8251  20.893   9.347  34.179  0.5022  0.0437 -0.1350
  344BOLB   C4C 8252  20.621   9.228  33.859  0.1188  0.1267  0.3097
  344BOLB   C1D 8253  21.214   8.481  35.158 -0.1804 -0.1698  0.4632
  344BOLB   C2D 8254  20.957   8.284  34.850 -0.1018  0.0210  0.2242
  344BOLB   C3D 8255  20.723   8.262  34.491  0.0539  0.0602  0.2656
  344BOLB   C4D 8256  20.699   8.375  34.108 -0.0382 -0.3650 -0.0319
  345BOLB   NC1 8257  23.372   4.688  20.426  0.1844  0.1175 -0.0798
  345BOLB   PO1 8258  23.265   4.242  20.499  0.1115  0.0520 -0.0602
  345BOLB   GL1 8259  23.701   4.152  20.318  0.1691  0.2635  0.1748
  345BOLB   GL2 8260  23.797   4.449  20.276  0.1664 -0.0489 -0.1301
  345BOLB   C1A 8261  24.132   4.116  20.217 -0.1788 -0.1524  0.2602
  345BOLB   C2A 8262  24.437   3.814  20.138 -0.2306 -0.3441 -0.0729
  345BOLB   C3A 8263  24.843   3.712  20.186 -0.4955 -0.3490 -0.1635
  345BOLB   C4A 8264  25.137   3.625  19.921 -0.2432 -0.1635  0.2758
  345BOLB   C1B 8265  24.094   4.694  20.204 -0.0627 -0.0065 -0.1326
  345BOLB   C2B 8266  24.589   4.692  20.005 -0.1488 -0.2762 -0.0560
  345BOLB   C3B 8267  25.024   4.505  19.894 -0.1726  0.1228  0.1173
  345BOLB   C4B 8268  25.207   4.123  19.969 -0.0902  0.1751 -0.2131
  345BOLB   NC2 8269  27.363   4.560  19.205  0.1522  0.3203  0.0059
  345BOLB   PO2 8270  26.996   4.690  19.040 -0.1763  0.1954 -0.0436
  345BOLB   GL3 8271  26.798   4.482  19.427  0.0497 -0.0410  0.0344
  345BOLB   GL4 8272  26.549   4.640  19.501  0.4344 -0.2722  0.0449
  345BOLB   C1C 8273  26.663   4.003  19.496  0.0427  0.0038  0.0486
  345BOLB   C2C 8274  26.401   3.795  19.785  0.3290 -0.1774 -0.2477
  345BOLB   C3C 8275  26.008   3.653  19.929  0.2183 -0.0747 -0.3242
  345BOLB   C4C 8276  25.541   3.667  19.912 -0.3784 -0.3966  0.0434
  345BOLB   C1D 8277  26.163   4.615  19.745 -0.0850 -0.0060  0.1306
  345BOLB   C2D 8278  25.721   4.673  20.005  0.0779  0.1204  0.0607
  345BOLB   C3D 8279  25.633   4.984  20.303 -0.1159 -0.0629 -0.1028
  345BOLB   C4D 8280  25.647   5.383  20.565 -0.0877  0.4502  0.1368
  346BOLB   NC1 8281   8.217   8.635  26.565 -0.1870  0.1611 -0.1618
  346BOLB   PO1 8282   7.986   8.213  26.580 -0.0802 -0.0168 -0.1407
  346BOLB   GL1 8283   7.540   8.105  26.784  0.0421 -0.2337  0.4056
  346BOLB   GL2 8284   7.336   7.770  26.645 -0.0724 -0.2592  0.3956
  346BOLB   C1A 8285   7.486   8.252  27.133 -0.0138 -0.1756  0.2245
  346BOLB   C2A 8286   7.415   8.113  27.544 -0.2000 -0.1577  0.1889
  346BOLB   C3A 8287   7.045   8.343  27.681 -0.0271 -0.0063  0.0532
  346BOLB   C4A 8288   6.739   8.731  27.735  0.0433 -0.2338 -0.2690
  346BOLB   C1B 8289   6.922   7.892  26.705 -0.2089 -0.3497  0.1815
  346BOLB   C2B 8290   6.638   8.224  26.930  0.4184 -0.1144 -0.1997
  346BOLB   C3B 8291   6.542   8.675  26.910 -0.1178  0.0137 -0.1114
  346BOLB   C4B 8292   6.584   9.008  27.239 -0.0336 -0.1362  0.0749
  346BOLB   NC2 8293   4.301  10.152  28.527 -0.0238  0.1863  0.0005
  346BOLB   PO2 8294   4.638  10.181  28.106  0.2533 -0.1740  0.0217
  346BOLB   GL3 8295   5.072  10.011  28.046 -0.1446  0.0164  0.2733
  346BOLB   GL4 8296   5.189   9.598  28.232  0.0644  0.3228 -0.4324
  346BOLB   C1C 8297   5.356   9.711  27.789 -0.0121  0.1891 -0.2355
  346BOLB   C2C 8298   5.678   9.435  27.696 -0.0547 -0.2474  0.0546
  346BOLB   C3C 8299   6.001   9.180  27.887 -0.1701 -0.0735 -0.2044
  346BOLB   C4C 8300   6.420   8.867  27.914  0.0133  0.0851  0.2534
  346BOLB   C1D 8301   5.611   9.605  28.293  0.4059  0.1340  0.2219
  346BOLB   C2D 8302   5.963   9.786  28.240 -0.0075  0.0867 -0.0826
  346BOLB   C3D 8303   6.378   9.820  28.150 -0.2315 -0.0826 -0.0726
  346BOLB   C4D 8304   6.739  10.204  28.128 -0.0764  0.2337 -0.0420
  347BOLB   NC1 8305  23.051  -0.876  26.302 -0.1710 -0.3088 -0.2256
  347BOLB   PO1 8306  23.079  -1.023  25.820  0.0400 -0.3975 -0.0702
  347BOLB   GL1 8307  23.403  -1.395  25.862 -0.2374 -0.0060 -0.1127
  347BOLB   GL2 8308  23.494  -1.269  26.150  0.1768 -0.0541 -0.1893
  347BOLB   C1A 8309  23.682  -1.703  26.012 -0.1414 -0.1045  0.1545
  347BOLB   C2A 8310  23.886  -1.966  26.277  0.1501 -0.2316 -0.3530
  347BOLB   C3A 8311  24.119  -1.923  26.670  0.1190  0.2628 -0.1437
  347BOLB   C4A 8312  24.152  -2.018  27.101  0.0027  0.1819 -0.3766
  347BOLB   C1B 8313  23.248  -1.644  26.268  0.1146 -0.0513 -0.0172
  347BOLB   C2B 8314  23.405  -2.080  26.242 -0.1705 -0.2023 -0.1281
  347BOLB   C3B 8315  23.645  -2.435  26.206  0.1189  0.0844  0.1302
  347BOLB   C4B 8316  23.948  -2.505  25.997 -0.3081 -0.0307 -0.1038
  347BOLB   NC2 8317  25.861  -3.710  28.117  0.1333  0.2485 -0.1349
  347BOLB   PO2 8318  25.707  -3.630  27.698 -0.1516  0.4872  0.1348
  347BOLB   GL3 8319  25.534  -3.392  27.407  0.2557 -0.4485 -0.0984
  347BOLB   GL4 8320  25.669  -3.150  27.153 -0.1523  0.1510  0.1371
  347BOLB   C1C 8321  25.290  -3.117  27.630 -0.1897 -0.1597 -0.1694
  347BOLB   C2C 8322  25.045  -2.752  27.684 -0.2627  0.3234  0.3697
  347BOLB   C3C 8323  24.825  -2.517  27.396  0.0349 -0.1823 -0.1304
  347BOLB   C4C 8324  24.404  -2.325  27.324 -0.1298  0.1310  0.1780
  347BOLB   C1D 8325  25.448  -3.146  26.701 -0.0250 -0.1522  0.0784
  347BOLB   C2D 8326  25.019  -3.110  26.619 -0.2913  0.1322 -0.2825
  347BOLB   C3D 8327  24.584  -3.190  26.362 -0.1539 -0.0217  0.1456
  347BOLB   C4D 8328  24.272  -3.309  26.150  0.2931  0.0443  0.1507
  348BOLB   NC1 8329   9.385   6.672  30.601  0.1306  0.0989 -0.2943
  348BOLB   PO1 8330   9.718   6.674  30.935 -0.0719 -0.3376  0.0070
  348BOLB   GL1 8331   9.718   6.951  31.468 -0.5293  0.3463 -0.2585
  348BOLB   GL2 8332   9.502   7.215  31.384  0.0672  0.0637  0.2528
  348BOLB   C1A 8333   9.523   7.097  31.853 -0.0691 -0.1723  0.0284
  348BOLB   C2A 8334   9.199   7.313  32.065 -0.0996  0.0294  0.1993
  348BOLB   C3A 8335   8.983   7.448  32.358 -0.0890 -0.7049  0.1814
  348BOLB   C4A 8336   8.616   7.546  32.530  0.1238  0.1089 -0.3730
  348BOLB   C1B 8337   9.097   7.127  31.561  0.0232 -0.0507  0.2396
  348BOLB   C2B 8338   8.968   6.812  31.660 -0.1856  0.0446  0.0739
  348BOLB   C3B 8339   8.547   6.584  31.796  0.0667  0.1476 -0.1611
  348BOLB   C4B 8340   8.285   6.783  32.147 -0.2682 -0.0520  0.0826
  348BOLB   NC2 8341   7.568   9.249  34.006 -0.2763 -0.3756 -0.2786
  348BOLB   PO2 8342   7.512   9.368  33.564 -0.3283 -0.1016  0.1382
  348BOLB   GL3 8343   7.612   9.157  33.160 -0.3021 -0.0075 -0.0554
  348BOLB   GL4 8344   7.275   9.220  32.977 -0.1090 -0.1114  0.1193
  348BOLB   C1C 8345   7.903   8.851  32.917  0.0912  0.0796 -0.1086
  348BOLB   C2C 8346   8.154   8.731  32.743 -0.0963  0.1337 -0.2242
  348BOLB   C3C 8347   8.321   8.508  32.486 -0.1429  0.2293 -0.2327
  348BOLB   C4C 8348   8.394   8.012  32.578  0.0464 -0.2520  0.1573
  348BOLB   C1D 8349   7.512   8.942  32.621 -0.0653 -0.2850 -0.2687
  348BOLB   C2D 8350   7.854   8.740  32.402 -0.0887 -0.0496 -0.1363
  348BOLB   C3D 8351   7.848   8.361  32.249  0.1387 -0.1978 -0.0174
  348BOLB   C4D 8352   8.130   8.065  32.112  0.3420 -0.2158 -0.4471
  349BOLB   NC1 8353   8.309   8.357  28.767  0.1815 -0.1837  0.0772
  349BOLB   PO1 8354   8.229   7.830  28.821  0.0989  0.1202 -0.0150
  349BOLB   GL1 8355   7.784   7.694  28.824 -0.1191  0.0686 -0.5561
  349BOLB   GL2 8356   7.602   7.287  28.715  0.0330 -0.0442  0.1570
  349BOLB   C1A 8357   7.377   7.780  28.825  0.0507  0.0899 -0.1513
  349BOLB   C2A 8358   7.040   7.721  28.666 -0.0444  0.0873  0.2690
  349BOLB   C3A 8359   6.655   7.982  28.602  0.1910  0.1423 -0.2123
  349BOLB   C4A 8360   6.260   7.965  28.696 -0.3949 -0.1727 -0.3148
  349BOLB   C1B 8361   7.174   7.299  28.969 -0.1718  0.0351  0.3339
  349BOLB   C2B 8362   6.916   7.554  29.175 -0.1187 -0.0097 -0.0827
  349BOLB   C3B 8363   6.554   7.837  29.102  0.0448 -0.1167  0.0312
  349BOLB   C4B 8364   6.556   8.264  29.081 -0.0672 -0.0336  0.2712
  349BOLB   NC2 8365   3.800   8.227  30.277  0.0783 -0.1108  0.0400
  349BOLB   PO2 8366   4.103   7.976  29.944  0.0836 -0.0426  0.0164
  349BOLB   GL3 8367   4.387   7.724  29.647 -0.0076 -0.0285  0.1817
  349BOLB   GL4 8368   4.560   7.470  29.617 -0.0198  0.1790 -0.0381
  349BOLB   C1C 8369   4.842   7.823  29.488  0.3019  0.1170 -0.2176
  349BOLB   C2C 8370   5.205   8.008  29.268 -0.1291 -0.1987  0.0150
  349BOLB   C3C 8371   5.490   7.869  28.926  0.0112 -0.0675 -0.2242
  349BOLB   C4C 8372   5.884   7.832  28.636 -0.0659  0.0459 -0.2002
  349BOLB   C1D 8373   4.822   7.075  29.682 -0.0380  0.0848 -0.3737
  349BOLB   C2D 8374   5.121   6.906  29.404 -0.1817  0.1201 -0.0961
  349BOLB   C3D 8375   5.031   6.901  29.061  0.2109  0.0433 -0.0205
  349BOLB   C4D 8376   4.727   6.909  28.942 -0.0271 -0.0483  0.0178
  350BOLB   NC1 8377  10.175  11.322  28.545 -0.2468  0.2101 -0.0537
  350BOLB   PO1 8378  10.357  11.276  28.992 -0.0649 -0.0294 -0.1092
  350BOLB   GL1 8379   9.985  11.431  29.080  0.2212  0.0704 -0.0286
  350BOLB   GL2 8380   9.744  11.448  28.773 -0.1669  0.0305  0.1421
  350BOLB   C1A 8381   9.625  11.511  29.356  0.1788  0.0494 -0.1133
  350BOLB   C2A 8382   9.488  11.776  29.568  0.1295  0.0422 -0.1907
  350BOLB   C3A 8383   9.615  12.314  29.582 -0.3947  0.2124  0.2916
  350BOLB   C4A 8384   9.872  12.751  29.476 -0.0625  0.1703 -0.2607
  350BOLB   C1B 8385   9.494  11.678  28.511 -0.1139  0.2605 -0.2280
  350BOLB   C2B 8386   9.435  11.831  28.071  0.0791  0.0550 -0.0411
  350BOLB   C3B 8387   9.478  12.008  27.631 -0.0258 -0.1910 -0.1596
  350BOLB   C4B 8388   9.759  12.222  27.318 -0.3769  0.2186 -0.3066
  350BOLB   NC2 8389   9.623  14.605  30.818  0.2086  0.2626 -0.0557
  350BOLB   PO2 8390   9.534  14.862  30.353 -0.1947 -0.3563  0.2249
  350BOLB   GL3 8391   9.725  14.581  30.240  0.0946  0.2320 -0.1113
  350BOLB   GL4 8392   9.721  14.639  29.895  0.3807  0.0263  0.0350
  350BOLB   C1C 8393   9.906  14.202  30.185  0.2322  0.0274  0.0084
  350BOLB   C2C 8394   9.986  13.866  29.854 -0.0402 -0.0425  0.0834
  350BOLB   C3C 8395  10.236  13.461  29.651 -0.2973  0.1104  0.1616
  350BOLB   C4C 8396  10.213  13.050  29.641  0.1828 -0.2138 -0.0085
  350BOLB   C1D 8397   9.886  14.273  29.601  0.0333 -0.0161 -0.2257
  350BOLB   C2D 8398   9.801  14.168  29.147 -0.0506  0.2344  0.2632
  350BOLB   C3D 8399   9.847  13.750  28.965  0.0987  0.2405  0.1091
  350BOLB   C4D 8400   9.786  13.319  28.781  0.1156  0.0423  0.0282
  351BOLB   NC1 8401  22.804   2.202  30.222  0.0882  0.0508  0.3228
  351BOLB   PO1 8402  22.583   2.020  30.474  0.0089  0.2628 -0.2675
  351BOLB   GL1 8403  22.664   1.913  30.955  0.1029 -0.5209 -0.0524
  351BOLB   GL2 8404  22.836   1.588  30.892  0.1946  0.0744 -0.0786
  351BOLB   C1A 8405  22.909   1.982  31.309  0.1752  0.0622 -0.1195
  351BOLB   C2A 8406  23.135   2.125  31.699 -0.3938 -0.0331  0.1706
  351BOLB   C3A 8407  23.327   1.922  32.001  0.1536  0.1036  0.3302
  351BOLB   C4A 8408  23.524   1.857  32.340  0.1418  0.2847 -0.3483
  351BOLB   C1B 8409  23.340   1.523  30.876 -0.3230 -0.2010 -0.1824
  351BOLB   C2B 8410  23.619   1.399  31.130 -0.0509  0.0150  0.0531
  351BOLB   C3B 8411  23.846   1.428  31.495 -0.0781 -0.2220  0.1560
  351BOLB   C4B 8412  24.231   1.732  31.716 -0.2068  0.1737 -0.2351
  351BOLB   NC2 8413  24.538   1.530  34.786 -0.1158  0.1865 -0.3925
  351BOLB   PO2 8414  24.431   1.783  34.394  0.0616  0.2630 -0.3336
  351BOLB   GL3 8415  24.121   1.572  34.015 -0.0886 -0.0589 -0.0277
  351BOLB   GL4 8416  24.408   1.642  33.708  0.1112 -0.1611  0.2218
  351BOLB   C1C 8417  23.968   1.699  33.647  0.2685  0.2874  0.0337
  351BOLB   C2C 8418  23.857   1.353  33.271 -0.1678 -0.1287  0.1038
  351BOLB   C3C 8419  23.596   1.403  32.877  0.0663  0.1293 -0.0090
  351BOLB   C4C 8420  23.493   1.762  32.802 -0.2089  0.3031 -0.0687
  351BOLB   C1D 8421  24.315   1.711  33.301  0.0772  0.4687 -0.1762
  351BOLB   C2D 8422  24.610   1.650  32.986  0.1424  0.1936 -0.2592
  351BOLB   C3D 8423  24.958   2.060  32.959 -0.1023 -0.4219 -0.1478
  351BOLB   C4D 8424  25.311   2.182  33.132 -0.3422  0.1134 -0.0737
  352BOLB   NC1 8425  22.490   3.978  30.775 -0.3158  0.1981 -0.2388
  352BOLB   PO1 8426  22.492   4.105  31.289  0.0322  0.0000  0.1062
  352BOLB   GL1 8427  22.712   4.205  31.634  0.0871 -0.0422 -0.2046
  352BOLB   GL2 8428  22.556   4.439  31.900 -0.1028 -0.2749 -0.1865
  352BOLB   C1A 8429  22.842   4.094  32.097  0.0591  0.1151 -0.2409
  352BOLB   C2A 8430  22.852   3.990  32.429 -0.1490 -0.0377 -0.1572
  352BOLB   C3A 8431  22.947   4.148  32.766 -0.1804 -0.1573 -0.0936
  352BOLB   C4A 8432  23.308   4.050  32.935  0.1621 -0.0709  0.1518
  352BOLB   C1B 8433  22.813   4.614  32.228  0.0496  0.0364 -0.1370
  352BOLB   C2B 8434  23.145   4.812  32.173  0.1599  0.0114 -0.1822
  352BOLB   C3B 8435  23.523   4.688  32.378  0.0993 -0.0655 -0.1624
  352BOLB   C4B 8436  23.715   4.886  32.648 -0.0621  0.0043  0.3117
  352BOLB   NC2 8437  24.591   3.106  34.530 -0.1087  0.0967 -0.0833
  352BOLB   PO2 8438  25.066   3.234  34.417 -0.0404  0.1791  0.1831
  352BOLB   GL3 8439  24.875   3.430  34.152 -0.0423 -0.0723  0.2243
  352BOLB   GL4 8440  24.900   3.264  33.920 -0.2434 -0.2423 -0.1417
  352BOLB   C1C 8441  24.476   3.501  34.113 -0.0458  0.1154  0.0027
  352BOLB   C2C 8442  24.066   3.703  33.841 -0.1963 -0.3793  0.0692
  352BOLB   C3C 8443  23.737   3.705  33.552  0.2672 -0.2778 -0.2749
  352BOLB   C4C 8444  23.502   3.909  33.278  0.2169 -0.0564 -0.2651
  352BOLB   C1D 8445  24.558   3.131  33.748  0.1262 -0.1211 -0.0240
  352BOLB   C2D 8446  24.198   3.152  33.628  0.1391  0.0493  0.3495
  352BOLB   C3D 8447  23.910   3.293  33.363  0.1411  0.3017 -0.1430
  352BOLB   C4D 8448  23.777   3.433  33.033  0.2555  0.2358  0.0865
  353BOLB   NC1 8449   7.810   3.644  22.902 -0.1633 -0.2405 -0.0066
  353BOLB   PO1 8450   7.501   3.334  22.809 -0.0303  0.2221  0.2039
  353BOLB   GL1 8451   7.166   3.487  22.761  0.2824  0.0447  0.0319
  353BOLB   GL2 8452   7.247   3.724  22.664 -0.0882  0.0191  0.2600
  353BOLB   C1A 8453   6.733   3.634  22.690 -0.2267 -0.1075 -0.0775
  353BOLB   C2A 8454   6.403   3.589  22.615  0.1304  0.0169 -0.1704
  353BOLB   C3A 8455   5.907   3.465  22.655 -0.1103 -0.2057  0.0187
  353BOLB   C4A 8456   5.511   3.539  22.810 -0.4000  0.1987  0.2573
  353BOLB   C1B 8457   7.036   4.001  22.785  0.0526 -0.0124 -0.4076
  353BOLB   C2B 8458   6.525   4.150  22.738 -0.1527 -0.0336 -0.1615
  353BOLB   C3B 8459   6.167   4.353  22.662  0.0442  0.1462 -0.1674
  353BOLB   C4B 8460   5.704   4.382  22.586 -0.2773  0.0907  0.1706
  353BOLB   NC2 8461   3.250   3.038  22.733 -0.0313 -0.1681 -0.0994
  353BOLB   PO2 8462   3.365   2.868  22.303 -0.1340 -0.0226  0.0644
  353BOLB   GL3 8463   3.758   2.809  22.357 -0.2709 -0.2221  0.0346
  353BOLB   GL4 8464   3.810   2.741  22.026  0.0687 -0.1660 -0.1558
  353BOLB   C1C 8465   4.004   2.987  22.703 -0.4209  0.3280  0.1278
  353BOLB   C2C 8466   4.304   3.065  22.989 -0.2448  0.0468 -0.3430
  353BOLB   C3C 8467   4.754   3.176  22.843  0.3523  0.0253 -0.1266
  353BOLB   C4C 8468   5.044   3.538  22.848  0.0327  0.1512  0.1121
  353BOLB   C1D 8469   4.251   2.767  21.895  0.0480  0.3543  0.0135
  353BOLB   C2D 8470   4.749   2.863  21.862  0.0795 -0.0507 -0.0254
  353BOLB   C3D 8471   4.899   3.198  21.445 -0.2231  0.1859 -0.0997
  353BOLB   C4D 8472   5.056   3.678  21.381 -0.0535 -0.2487  0.3567
  354BOLB   NC1 8473  15.007  10.972  21.869 -0.0142  0.3184 -0.1417
  354BOLB   PO1 8474  14.982  11.167  22.305  0.1281 -0.0171 -0.0796
  354BOLB   GL1 8475  14.782  11.591  22.189 -0.2772 -0.2280 -0.1212
  354BOLB   GL2 8476  14.966  11.756  22.276  0.1608  0.1437 -0.2254
  354BOLB   C1A 8477  14.413  11.727  22.045 -0.0675 -0.3189  0.3615
  354BOLB   C2A 8478  14.254  12.123  21.882  0.2306 -0.1284  0.2037
  354BOLB   C3A 8479  14.192  12.593  21.770  0.0620 -0.1408  0.2832
  354BOLB   C4A 8480  14.241  12.993  21.680  0.2278 -0.2294 -0.0249
  354BOLB   C1B 8481  14.774  12.076  21.905 -0.1371  0.1478 -0.3051
  354BOLB   C2B 8482  14.623  12.412  21.799 -0.3672 -0.2311  0.0933
  354BOLB   C3B 8483  14.697  12.877  21.836 -0.1998  0.1568  0.0162
  354BOLB   C4B 8484  14.793  13.285  21.638 -0.0243  0.0022 -0.2119
  354BOLB   NC2 8485  14.385  15.454  20.930  0.0004  0.1393 -0.3963
  354BOLB   PO2 8486  14.203  15.167  20.501 -0.2569  0.1716 -0.3719
  354BOLB   GL3 8487  14.167  14.935  20.889  0.2507 -0.2096 -0.0121
  354BOLB   GL4 8488  14.421  14.892  21.056 -0.0298 -0.0779 -0.0534
  354BOLB   C1C 8489  14.091  14.476  20.935  0.0408 -0.0014  0.0492
  354BOLB   C2C 8490  13.959  14.222  21.268 -0.1790  0.3898 -0.1331
  354BOLB   C3C 8491  13.931  13.763  21.441  0.4702  0.0678  0.0380
  354BOLB   C4C 8492  13.948  13.356  21.619  0.2169 -0.1003  0.2881
  354BOLB   C1D 8493  14.550  14.776  21.400  0.0146  0.1883 -0.2158
  354BOLB   C2D 8494  14.543  14.394  21.276  0.1434 -0.0902  0.0230
  354BOLB   C3D 8495  14.448  14.093  21.072 -0.0690  0.0491 -0.3842
  354BOLB   C4D 8496  14.195  13.694  21.056  0.2977  0.1172  0.3466
  355BOLB   NC1 8497  21.735   9.561  23.152  0.1664 -0.1050 -0.0202
  355BOLB   PO1 8498  22.049   9.472  23.373  0.0916 -0.3025  0.0693
  355BOLB   GL1 8499  22.438   9.714  23.351 -0.0932 -0.1960 -0.1070
  355BOLB   GL2 8500  22.751   9.866  23.568  0.0212 -0.1806  0.0792
  355BOLB   C1A 8501  22.622   9.932  23.046  0.2596 -0.0116 -0.0133
  355BOLB   C2A 8502  22.981  10.038  22.763 -0.1049  0.3827  0.1529
  355BOLB   C3A 8503  23.284  10.264  22.548  0.0532 -0.4087 -0.1229
  355BOLB   C4A 8504  23.536  10.496  22.250 -0.2472 -0.1985  0.0932
  355BOLB   C1B 8505  23.040  10.062  23.320 -0.0208 -0.0061 -0.0629
  355BOLB   C2B 8506  23.456  10.214  23.020  0.0101 -0.0598  0.0994
  355BOLB   C3B 8507  23.717  10.575  22.780  0.1636  0.1328  0.0280
  355BOLB   C4B 8508  24.130  10.653  22.718  0.1638 -0.1922 -0.0541
  355BOLB   NC2 8509  25.217  11.852  21.797 -0.2700 -0.2628 -0.0491
  355BOLB   PO2 8510  24.889  12.061  21.618  0.1272 -0.0565  0.0314
  355BOLB   GL3 8511  24.709  11.780  21.826  0.0015 -0.1095  0.0714
  355BOLB   GL4 8512  24.462  11.959  22.028  0.2341  0.1199 -0.2019
  355BOLB   C1C 8513  24.630  11.381  21.643  0.1532  0.1228 -0.3722
  355BOLB   C2C 8514  24.417  11.087  21.620  0.2591 -0.0456 -0.2810
  355BOLB   C3C 8515  24.037  10.852  21.698 -0.1004  0.0306 -0.2678
  355BOLB   C4C 8516  23.754  10.593  21.950  0.1021 -0.3616  0.1391
  355BOLB   C1D 8517  24.457  11.521  22.224  0.1633 -0.2321 -0.2269
  355BOLB   C2D 8518  24.200  11.160  22.333 -0.4374 -0.1106 -0.4194
  355BOLB   C3D 8519  23.904  10.884  22.309 -0.3225  0.0744 -0.1813
  355BOLB   C4D 8520  23.542  10.987  22.031  0.2045 -0.0486  0.0548
  356BOLB   NC1 8521  21.969   9.753  25.458 -0.1177 -0.0868 -0.0733
  356BOLB   PO1 8522  22.242   9.690  25.033  0.2079 -0.0666 -0.2807
  356BOLB   GL1 8523  22.640   9.906  25.076 -0.2936 -0.3250  0.2462
  356BOLB   GL2 8524  22.628  10.300  25.126  0.0155  0.3799  0.2526
  356BOLB   C1A 8525  23.097  10.165  25.095  0.1086 -0.1379  0.0603
  356BOLB   C2A 8526  23.285  10.503  24.924 -0.0519 -0.1536 -0.1090
  356BOLB   C3A 8527  23.311  10.872  24.710 -0.3359 -0.4227  0.0154
  356BOLB   C4A 8528  23.607  10.990  24.505 -0.1238 -0.3556 -0.4517
  356BOLB   C1B 8529  22.807  10.685  25.016  0.0477 -0.1620  0.3119
  356BOLB   C2B 8530  23.164  10.947  25.267  0.1023  0.2361  0.0665
  356BOLB   C3B 8531  23.412  11.141  25.539  0.0915  0.0168  0.0513
  356BOLB   C4B 8532  23.468  11.532  25.612  0.2277 -0.0911 -0.0822
  356BOLB   NC2 8533  25.555  12.388  24.303 -0.4092 -0.2018  0.1665
  356BOLB   PO2 8534  25.451  12.673  24.448 -0.4184  0.0192  0.0422
  356BOLB   GL3 8535  25.095  12.340  24.587 -0.1756 -0.1862  0.0698
  356BOLB   GL4 8536  25.059  12.260  24.958 -0.3076  0.0534  0.2223
  356BOLB   C1C 8537  24.895  11.970  24.547  0.0235  0.1334  0.2375
  356BOLB   C2C 8538  24.630  11.681  24.702 -0.0621 -0.0618  0.1709
  356BOLB   C3C 8539  24.377  11.370  24.557 -0.1418 -0.0003  0.1014
  356BOLB   C4C 8540  23.942  11.218  24.526 -0.1149 -0.1818  0.3340
  356BOLB   C1D 8541  24.742  12.061  25.053  0.2168 -0.1570 -0.1437
  356BOLB   C2D 8542  24.308  11.939  25.035  0.0411 -0.0583  0.1925
  356BOLB   C3D 8543  24.001  11.709  24.793 -0.1713  0.3557  0.4081
  356BOLB   C4D 8544  23.594  11.496  24.667 -0.0747  0.2215  0.3880
  357BOLB   NC1 8545  19.273   6.756  18.239  0.0471  0.3246 -0.2156
  357BOLB   PO1 8546  19.284   6.458  17.855  0.2689 -0.1712  0.0912
  357BOLB   GL1 8547  19.457   6.893  17.663 -0.2371  0.1138 -0.1630
  357BOLB   GL2 8548  19.482   7.197  17.874 -0.3052 -0.0588 -0.0787
  357BOLB   C1A 8549  19.629   7.155  17.391  0.0352  0.3159 -0.3347
  357BOLB   C2A 8550  19.674   7.117  16.880 -0.2046  0.5196 -0.1913
  357BOLB   C3A 8551  19.913   7.302  16.540 -0.2011 -0.2838 -0.2333
  357BOLB   C4A 8552  20.340   7.429  16.382 -0.3450 -0.0890 -0.1153
  357BOLB   C1B 8553  19.346   7.475  17.637  0.2625 -0.1626  0.4664
  357BOLB   C2B 8554  19.302   7.933  17.419 -0.0028 -0.0464  0.0859
  357BOLB   C3B 8555  19.543   8.195  17.040  0.0229 -0.3383  0.2094
  357BOLB   C4B 8556  19.790   8.384  16.672 -0.2725  0.2008 -0.1734
  357BOLB   NC2 8557  21.523   9.494  15.257  0.0361  0.1952 -0.3600
  357BOLB   PO2 8558  21.521   9.225  15.512  0.0278  0.2465  0.0308
  357BOLB   GL3 8559  21.318   8.887  15.703  0.2601  0.0903 -0.2069
  357BOLB   GL4 8560  21.469   8.621  15.548 -0.0259 -0.0158 -0.1884
  357BOLB   C1C 8561  21.088   8.512  15.862  0.0583  0.1267  0.0227
  357BOLB   C2C 8562  20.763   8.290  16.009  0.0399  0.1542 -0.1232
  357BOLB   C3C 8563  20.747   7.899  16.200  0.3613  0.2341  0.0729
  357BOLB   C4C 8564  20.631   7.651  16.516  0.1480  0.2668 -0.0499
  357BOLB   C1D 8565  21.483   8.226  15.815 -0.2405  0.5733  0.1181
  357BOLB   C2D 8566  21.376   7.834  16.294 -0.1276 -0.0119 -0.0089
  357BOLB   C3D 8567  21.111   7.485  16.397 -0.0383  0.1915  0.1323
  357BOLB   C4D 8568  20.867   7.394  15.980  0.3721 -0.1818  0.0418
  358BOLB   NC1 8569  18.134   2.425  32.758  0.0238  0.1744 -0.0941
  358BOLB   PO1 8570  18.200   2.120  33.032 -0.0640  0.1702  0.1304
  358BOLB   GL1 8571  18.265   2.041  33.363  0.1064 -0.1089  0.0104
  358BOLB   GL2 8572  18.077   2.306  33.465 -0.1755  0.0444 -0.1609
  358BOLB   C1A 8573  18.005   1.960  33.802  0.1155  0.1430 -0.1308
  358BOLB   C2A 8574  18.134   1.880  34.274  0.1744  0.2187 -0.4638
  358BOLB   C3A 8575  18.411   2.071  34.583  0.0448 -0.1468 -0.0851
  358BOLB   C4A 8576  18.477   2.015  35.008  0.0383 -0.0068 -0.0078
  358BOLB   C1B 8577  18.376   2.392  33.746 -0.1115 -0.0596 -0.1299
  358BOLB   C2B 8578  18.537   2.111  34.067 -0.1486  0.0545 -0.0772
  358BOLB   C3B 8579  18.845   1.950  34.495  0.0604  0.2542  0.0141
  358BOLB   C4B 8580  18.826   1.737  34.869 -0.0076  0.0982  0.1010
  358BOLB   NC2 8581  18.303   1.976  37.246 -0.0039  0.0302 -0.3173
  358BOLB   PO2 8582  18.560   1.602  37.362  0.1149 -0.0314 -0.2418
  358BOLB   GL3 8583  18.662   1.548  36.882  0.1876 -0.0321 -0.0681
  358BOLB   GL4 8584  18.740   1.935  36.921  0.0452 -0.2637 -0.1537
  358BOLB   C1C 8585  18.498   1.645  36.456 -0.0416 -0.0150 -0.2747
  358BOLB   C2C 8586  18.135   1.831  36.180  0.1405  0.0760  0.6044
  358BOLB   C3C 8587  18.270   1.865  35.717  0.0537  0.4186 -0.1728
  358BOLB   C4C 8588  18.478   1.992  35.444 -0.2175  0.0747 -0.0276
  358BOLB   C1D 8589  18.729   2.324  36.605 -0.1312 -0.0364  0.0663
  358BOLB   C2D 8590  18.686   2.694  36.544 -0.1040 -0.1295 -0.1621
  358BOLB   C3D 8591  18.404   2.961  36.506 -0.0664 -0.0265  0.3371
  358BOLB   C4D 8592  18.131   3.259  36.545  0.2073 -0.2708 -0.2435
  359BOLB   NC1 8593  22.832   0.228  20.113  0.1386  0.0728  0.0332
  359BOLB   PO1 8594  22.793  -0.105  20.393  0.0370 -0.2877  0.1458
  359BOLB   GL1 8595  23.158  -0.288  20.166 -0.1954  0.2599  0.2024
  359BOLB   GL2 8596  23.302   0.025  20.108  0.2903  0.0245  0.0243
  359BOLB   C1A 8597  23.640  -0.328  19.946 -0.0869 -0.0708  0.2474
  359BOLB   C2A 8598  23.941  -0.137  19.610  0.0733 -0.0730  0.1662
  359BOLB   C3A 8599  24.168  -0.109  19.346 -0.2163 -0.1634 -0.1258
  359BOLB   C4A 8600  24.513   0.003  19.050 -0.1569 -0.0502  0.2342
  359BOLB   C1B 8601  23.389  -0.037  19.621 -0.3394  0.0706 -0.2619
  359BOLB   C2B 8602  23.650  -0.044  19.233 -0.1646 -0.0956 -0.0328
  359BOLB   C3B 8603  23.741  -0.040  18.879  0.1139 -0.1255  0.1750
  359BOLB   C4B 8604  23.857  -0.311  18.477  0.2129 -0.2012 -0.4213
  359BOLB   NC2 8605  26.755   0.808  17.893  0.1028  0.1601  0.0585
  359BOLB   PO2 8606  26.743   0.690  18.344 -0.2796 -0.0107  0.0516
  359BOLB   GL3 8607  26.284   0.845  18.459 -0.4044 -0.0802  0.3389
  359BOLB   GL4 8608  26.311   1.160  18.710  0.0565  0.0558  0.0728
  359BOLB   C1C 8609  25.813   0.903  18.377 -0.1763  0.0624 -0.0656
  359BOLB   C2C 8610  25.404   0.723  18.742  0.1855  0.0891 -0.0166
  359BOLB   C3C 8611  25.092   0.356  18.752 -0.0540  0.0005  0.1523
  359BOLB   C4C 8612  24.739   0.190  18.911  0.1678 -0.4468 -0.3097
  359BOLB   C1D 8613  25.855   1.142  18.872 -0.3167  0.0085 -0.0791
  359BOLB   C2D 8614  25.438   1.433  19.032 -0.2989  0.0910  0.0240
  359BOLB   C3D 8615  25.056   1.496  18.924  0.2694 -0.0008 -0.2410
  359BOLB   C4D 8616  24.547   1.416  19.131  0.2671 -0.2510  0.1978
  360BOLB   NC1 8617   6.814   1.868  24.366 -0.0555  0.2805 -0.4208
  360BOLB   PO1 8618   6.955   2.251  24.514 -0.2617 -0.0451  0.2521
  360BOLB   GL1 8619   6.645   2.349  24.367  0.0636  0.1785  0.0761
  360BOLB   GL2 8620   6.624   2.687  24.377 -0.0477  0.0724  0.3136
  360BOLB   C1A 8621   6.265   2.420  24.174 -0.2651 -0.2190 -0.0002
  360BOLB   C2A 8622   5.924   2.754  24.106 -0.0456 -0.3176  0.0532
  360BOLB   C3A 8623   5.460   2.808  24.216 -0.1720  0.0072  0.0567
  360BOLB   C4A 8624   5.089   2.978  24.183  0.1209 -0.1590 -0.1040
  360BOLB   C1B 8625   6.479   2.962  24.089 -0.1522 -0.2307 -0.0447
  360BOLB   C2B 8626   6.118   3.184  24.005 -0.1630 -0.1141 -0.3613
  360BOLB   C3B 8627   5.673   3.348  23.916 -0.0513 -0.0371  0.0466
  360BOLB   C4B 8628   5.387   3.426  24.279  0.0591 -0.1741  0.2617
  360BOLB   NC2 8629   2.735   2.723  22.761 -0.2482 -0.4769  0.0493
  360BOLB   PO2 8630   3.071   2.608  23.160 -0.0950  0.0381 -0.0570
  360BOLB   GL3 8631   3.438   2.570  23.394  0.0545 -0.0528  0.2125
  360BOLB   GL4 8632   3.487   2.254  23.548 -0.3526  0.1018  0.1129
  360BOLB   C1C 8633   3.805   2.616  23.669  0.0494 -0.0352  0.1623
  360BOLB   C2C 8634   4.008   2.484  24.071  0.1478 -0.1007 -0.1043
  360BOLB   C3C 8635   4.357   2.634  24.373  0.1653  0.1284  0.1276
  360BOLB   C4C 8636   4.633   2.910  24.259 -0.0000 -0.1186  0.1855
  360BOLB   C1D 8637   3.791   2.232  23.270  0.1325  0.0579  0.3485
  360BOLB   C2D 8638   4.093   1.956  23.233  0.0470 -0.0712 -0.2277
  360BOLB   C3D 8639   4.464   2.037  23.184 -0.2481 -0.1720  0.0702
  360BOLB   C4D 8640   4.857   1.977  23.369  0.1041 -0.2484 -0.1705
  361BOLB   NC1 8641  16.806  10.587  21.948 -0.1296 -0.0233 -0.1634
  361BOLB   PO1 8642  17.060  10.704  21.500  0.0456 -0.3168 -0.4109
  361BOLB   GL1 8643  16.972  11.070  21.228 -0.4768  0.0831 -0.3712
  361BOLB   GL2 8644  17.270  11.292  21.132 -0.1549  0.2411  0.1529
  361BOLB   C1A 8645  16.750  11.466  21.069  0.0797 -0.3526  0.0121
  361BOLB   C2A 8646  16.956  11.875  21.139  0.1646  0.1113  0.2868
  361BOLB   C3A 8647  16.983  12.335  20.944  0.1422  0.2489 -0.4010
  361BOLB   C4A 8648  17.155  12.543  20.592 -0.2609  0.3540 -0.1303
  361BOLB   C1B 8649  17.416  11.662  21.323  0.1270 -0.2070  0.2810
  361BOLB   C2B 8650  17.740  11.900  21.289 -0.1274 -0.1552  0.1601
  361BOLB   C3B 8651  17.861  12.330  21.148  0.1404 -0.1289 -0.1301
  361BOLB   C4B 8652  17.516  12.649  20.962  0.0685  0.3082  0.1251
  361BOLB   NC2 8653  17.985  14.962  20.100 -0.1200 -0.0203 -0.0950
  361BOLB   PO2 8654  18.042  14.555  20.129  0.0248  0.0414  0.1860
  361BOLB   GL3 8655  17.720  14.095  20.135 -0.0107  0.3782  0.1493
  361BOLB   GL4 8656  17.367  14.297  19.964  0.0524 -0.1726 -0.1176
  361BOLB   C1C 8657  17.579  13.730  20.367 -0.0036  0.1112 -0.0497
  361BOLB   C2C 8658  17.770  13.621  20.597 -0.2439  0.1351  0.3299
  361BOLB   C3C 8659  17.849  13.215  20.668 -0.2231  0.0233  0.1231
  361BOLB   C4C 8660  17.400  12.947  20.591  0.0657 -0.1044 -0.0176
  361BOLB   C1D 8661  17.325  14.246  20.405 -0.3306  0.4776  0.0161
  361BOLB   C2D 8662  17.137  14.560  20.764 -0.1436  0.3157  0.0589
  361BOLB   C3D 8663  16.697  14.519  20.943  0.1823 -0.0704  0.1355
  361BOLB   C4D 8664  16.323  14.356  20.783 -0.0742 -0.0462  0.0512
  362BOLB   NC1 8665  24.692   1.278  27.570 -0.1056  0.1581  0.0311
  362BOLB   PO1 8666  24.535   1.323  28.040 -0.1176 -0.0995  0.0010
  362BOLB   GL1 8667  24.982   1.198  27.991  0.2115  0.2222 -0.1433
  362BOLB   GL2 8668  25.255   1.415  28.068  0.1448  0.1699 -0.0660
  362BOLB   C1A 8669  25.254   0.877  28.009 -0.0001  0.4312 -0.0743
  362BOLB   C2A 8670  25.362   0.588  28.304 -0.2114 -0.0609 -0.2066
  362BOLB   C3A 8671  25.194   0.152  28.382  0.0554  0.2513  0.1625
  362BOLB   C4A 8672  25.354  -0.198  28.790  0.1522  0.1558  0.2030
  362BOLB   C1B 8673  25.551   1.236  28.232  0.0792 -0.2982 -0.0260
  362BOLB   C2B 8674  25.809   0.792  28.310 -0.0934  0.0944  0.0646
  362BOLB   C3B 8675  26.217   0.649  28.568  0.1236  0.0278  0.1043
  362BOLB   C4B 8676  26.191   0.164  28.707  0.1258  0.3642 -0.1023
  362BOLB   NC2 8677  26.312  -1.173  30.851  0.0817 -0.0955 -0.1821
  362BOLB   PO2 8678  26.052  -1.477  30.731  0.2114 -0.0189 -0.0164
  362BOLB   GL3 8679  25.828  -1.235  30.456 -0.1128 -0.1279 -0.2099
  362BOLB   GL4 8680  25.681  -1.100  30.645  0.3901 -0.2288  0.0243
  362BOLB   C1C 8681  25.837  -0.976  30.117 -0.1725 -0.1794 -0.1167
  362BOLB   C2C 8682  25.694  -0.772  29.683  0.0433  0.0098  0.1665
  362BOLB   C3C 8683  25.420  -0.421  29.629  0.0473  0.3295 -0.0807
  362BOLB   C4C 8684  25.470  -0.144  29.232  0.2499 -0.0088  0.2066
  362BOLB   C1D 8685  25.583  -0.632  30.576 -0.2427 -0.1918  0.2433
  362BOLB   C2D 8686  25.139  -0.457  30.568  0.0664  0.2453 -0.1101
  362BOLB   C3D 8687  24.873  -0.482  30.905  0.2802  0.1993 -0.0255
  362BOLB   C4D 8688  24.444  -0.489  30.801  0.1358  0.0809  0.0849
  363BOLB   NC1 8689  25.646  -4.589  22.584  0.2639  0.4496  0.2431
  363BOLB   PO1 8690  25.565  -4.669  23.003 -0.2235  0.3148  0.1457
  363BOLB   GL1 8691  25.308  -4.323  22.892 -0.0431  0.2766  0.1087
  363BOLB   GL2 8692  25.389  -4.176  22.635  0.2545  0.1816  0.1838
  363BOLB   C1A 8693  25.019  -4.020  22.952  0.0004  0.2479 -0.0846
  363BOLB   C2A 8694  24.594  -4.067  23.067 -0.0546 -0.1301 -0.1922
  363BOLB   C3A 8695  24.472  -3.900  23.465  0.3379 -0.3491  0.0577
  363BOLB   C4A 8696  24.351  -3.973  23.825 -0.2968 -0.1870 -0.1839
  363BOLB   C1B 8697  25.352  -3.719  22.636 -0.0374  0.0629 -0.2402
  363BOLB   C2B 8698  24.950  -3.583  22.750  0.0629 -0.0034 -0.1614
  363BOLB   C3B 8699  24.577  -3.465  22.947  0.1274 -0.0760 -0.4057
  363BOLB   C4B 8700  24.191  -3.643  23.027  0.0789 -0.1417  0.0299
  363BOLB   NC2 8701  23.988  -5.979  23.819 -0.1050  0.0584  0.2516
  363BOLB   PO2 8702  24.148  -5.956  24.267 -0.3172  0.1172 -0.2916
  363BOLB   GL3 8703  23.838  -5.679  24.178  0.2722 -0.0028 -0.2682
  363BOLB   GL4 8704  23.593  -5.770  24.227 -0.0484 -0.0084 -0.1710
  363BOLB   C1C 8705  23.788  -5.291  24.341  0.0335  0.1972  0.3842
  363BOLB   C2C 8706  23.778  -4.833  24.311  0.0611 -0.6652  0.2546
  363BOLB   C3C 8707  24.100  -4.530  24.294  0.2820 -0.0849 -0.1949
  363BOLB   C4C 8708  24.312  -4.227  24.236  0.1393 -0.1784 -0.2622
  363BOLB   C1D 8709  23.334  -5.374  24.143 -0.1271 -0.4234 -0.0360
  363BOLB   C2D 8710  23.138  -4.910  24.287 -0.1755 -0.0313  0.1679
  363BOLB   C3D 8711  23.296  -4.517  24.375  0.1695 -0.0369  0.0406
  363BOLB   C4D 8712  23.694  -4.234  24.365 -0.1070  0.0411  0.2116
  364BOLB   NC1 8713  15.742  -4.168  26.608 -0.1523 -0.2140 -0.1884
  364BOLB   PO1 8714  16.010  -4.425  26.517 -0.0110  0.0678 -0.0652
  364BOLB   GL1 8715  15.907  -4.739  26.433  0.0367 -0.3324 -0.0393
  364BOLB   GL2 8716  16.115  -4.799  26.110  0.0599  0.0432  0.0867
  364BOLB   C1A 8717  15.729  -5.164  26.294 -0.1990 -0.1067  0.0753
  364BOLB   C2A 8718  15.702  -5.626  26.330 -0.0113  0.2526 -0.0724
  364BOLB   C3A 8719  15.786  -6.021  26.425 -0.0738  0.1251  0.1290
  364BOLB   C4A 8720  15.914  -6.421  26.262  0.0277 -0.0896 -0.0243
  364BOLB   C1B 8721  16.268  -5.133  26.128 -0.0825 -0.0852  0.2658
  364BOLB   C2B 8722  16.378  -5.576  25.877  0.1063  0.0496  0.0351
  364BOLB   C3B 8723  16.693  -6.014  25.850  0.0473  0.1408  0.1058
  364BOLB   C4B 8724  16.489  -6.297  26.120 -0.2568  0.0381  0.0752
  364BOLB   NC2 8725  15.145  -8.224  27.183  0.0453  0.1019 -0.1983
  364BOLB   PO2 8726  15.407  -8.487  27.187 -0.2136 -0.0159 -0.5022
  364BOLB   GL3 8727  15.666  -8.133  27.081  0.1942  0.0269 -0.1139
  364BOLB   GL4 8728  15.502  -7.933  27.196 -0.2105  0.1782 -0.2163
  364BOLB   C1C 8729  15.971  -8.000  26.828  0.0939  0.0165 -0.1507
  364BOLB   C2C 8730  16.180  -7.716  26.439 -0.0576  0.0636  0.0188
  364BOLB   C3C 8731  16.016  -7.325  26.305 -0.0011 -0.1740  0.2840
  364BOLB   C4C 8732  15.979  -6.890  26.203  0.0645 -0.0797  0.1165
  364BOLB   C1D 8733  15.606  -7.603  26.972 -0.3259  0.0800 -0.3328
  364BOLB   C2D 8734  15.747  -7.145  26.808  0.0789 -0.0282  0.0521
  364BOLB   C3D 8735  15.926  -6.701  26.699 -0.0068  0.1174 -0.3933
  364BOLB   C4D 8736  16.014  -6.299  26.871 -0.0307 -0.2266 -0.3315
  365BOLB   NC1 8737  11.399  11.618  25.868 -0.0069 -0.0469 -0.0477
  365BOLB   PO1 8738  11.580  11.721  25.529 -0.2302 -0.0047  0.2022
  365BOLB   GL1 8739  11.603  12.126  25.474  0.2495 -0.3117  0.1092
  365BOLB   GL2 8740  11.557  12.155  25.102  0.0995 -0.1211  0.0416
  365BOLB   C1A 8741  11.490  12.535  25.502  0.0983 -0.6091 -0.1132
  365BOLB   C2A 8742  11.385  12.820  25.244 -0.1906  0.1127 -0.1078
  365BOLB   C3A 8743  11.154  13.156  25.157 -0.3304  0.2012  0.1029
  365BOLB   C4A 8744  10.922  13.317  24.995 -0.1435  0.1039 -0.3382
  365BOLB   C1B 8745  11.728  12.494  24.959  0.2202  0.0754  0.0002
  365BOLB   C2B 8746  11.676  12.896  24.827  0.1762  0.1361 -0.1367
  365BOLB   C3B 8747  11.589  13.322  24.895  0.3782 -0.0807  0.3057
  365BOLB   C4B 8748  11.665  13.711  25.111 -0.1461 -0.0725 -0.1479
  365BOLB   NC2 8749   8.919  15.379  24.911 -0.2013 -0.2725 -0.3634
  365BOLB   PO2 8750   9.391  15.207  25.009  0.1442  0.0904  0.2179
  365BOLB   GL3 8751   9.689  14.835  24.997  0.0133  0.4384 -0.1140
  365BOLB   GL4 8752   9.581  14.486  25.041  0.0127  0.0828 -0.0349
  365BOLB   C1C 8753  10.003  14.616  24.741 -0.2774  0.2297 -0.0770
  365BOLB   C2C 8754  10.146  14.150  24.642  0.3231  0.1191  0.3463
  365BOLB   C3C 8755  10.299  13.778  24.483  0.1429 -0.0549 -0.0212
  365BOLB   C4C 8756  10.621  13.561  24.793  0.0956 -0.0957  0.1797
  365BOLB   C1D 8757   9.745  14.197  25.203  0.1453 -0.0877  0.1392
  365BOLB   C2D 8758   9.813  13.752  25.304  0.0263 -0.1946 -0.0751
  365BOLB   C3D 8759   9.972  13.310  25.432  0.1446 -0.1236 -0.1323
  365BOLB   C4D 8760  10.327  13.245  25.767 -0.1830 -0.0333  0.0418
  366BOLB   NC1 8761   9.587   4.925  19.824 -0.2536 -0.1233  0.0793
  366BOLB   PO1 8762   9.953   5.101  19.922 -0.2511 -0.2182 -0.1468
  366BOLB   GL1 8763   9.724   5.473  19.632 -0.3767 -0.0935  0.0342
  366BOLB   GL2 8764   9.777   5.827  19.494 -0.1131 -0.1842 -0.3437
  366BOLB   C1A 8765   9.318   5.505  19.413  0.5255  0.3210  0.1091
  366BOLB   C2A 8766   8.869   5.647  19.342  0.2728  0.1639 -0.2269
  366BOLB   C3A 8767   8.438   5.532  19.173  0.1418  0.0377 -0.2136
  366BOLB   C4A 8768   8.057   5.463  19.072  0.2723 -0.4896  0.1606
  366BOLB   C1B 8769   9.501   5.831  19.090 -0.1466 -0.1775 -0.3697
  366BOLB   C2B 8770   9.147   5.831  18.926 -0.1562 -0.0791 -0.0874
  366BOLB   C3B 8771   8.755   5.758  18.842  0.3128 -0.0278 -0.1229
  366BOLB   C4B 8772   8.311   5.738  18.687  0.1951 -0.0038  0.0138
  366BOLB   NC2 8773   6.525   5.363  17.536  0.3545  0.1162  0.4541
  366BOLB   PO2 8774   6.468   5.891  17.410  0.0011  0.3548  0.1049
  366BOLB   GL3 8775   6.882   5.784  17.568 -0.0787  0.0520  0.1080
  366BOLB   GL4 8776   6.813   5.656  17.846  0.1283 -0.1494  0.0134
  366BOLB   C1C 8777   7.298   5.894  17.711  0.0331  0.2371 -0.0042
  366BOLB   C2C 8778   7.277   5.661  18.100 -0.0319 -0.0588 -0.0363
  366BOLB   C3C 8779   7.535   5.710  18.492  0.1152 -0.0269 -0.0583
  366BOLB   C4C 8780   7.779   5.648  18.717 -0.1004 -0.0138  0.2458
  366BOLB   C1D 8781   6.808   5.367  18.204 -0.2342  0.2114  0.2027
  366BOLB   C2D 8782   7.161   5.331  18.436  0.0694  0.0308  0.0444
  366BOLB   C3D 8783   7.290   5.455  18.885  0.2586 -0.0425 -0.2177
  366BOLB   C4D 8784   7.525   5.470  19.250  0.0400 -0.1792  0.0640
  367BOLB   NC1 8785  18.397  -2.496  27.507 -0.0715  0.1825 -0.2252
  367BOLB   PO1 8786  18.367  -3.007  27.546 -0.1333  0.0952  0.0933
  367BOLB   GL1 8787  18.467  -3.281  27.843 -0.0032  0.1253 -0.1508
  367BOLB   GL2 8788  18.804  -3.526  27.867 -0.1790  0.1465  0.0496
  367BOLB   C1A 8789  18.564  -3.448  28.263  0.1222  0.0847  0.1134
  367BOLB   C2A 8790  18.805  -3.710  28.411  0.2472  0.0575  0.1264
  367BOLB   C3A 8791  18.894  -4.065  28.738  0.0257 -0.1479  0.4254
  367BOLB   C4A 8792  19.051  -4.356  29.044  0.0719 -0.3972 -0.0688
  367BOLB   C1B 8793  19.036  -3.857  27.876 -0.1949 -0.2598  0.2096
  367BOLB   C2B 8794  19.204  -4.269  27.864 -0.0754  0.0570  0.1897
  367BOLB   C3B 8795  18.984  -4.649  27.700 -0.1350 -0.0681 -0.0052
  367BOLB   C4B 8796  19.156  -4.833  27.331 -0.1537  0.1054 -0.4653
  367BOLB   NC2 8797  19.786  -6.532  29.817  0.2344 -0.1604 -0.2999
  367BOLB   PO2 8798  19.520  -6.528  30.176 -0.0563 -0.0458 -0.1169
  367BOLB   GL3 8799  19.542  -6.113  30.036 -0.0005 -0.0178  0.3186
  367BOLB   GL4 8800  19.799  -5.969  29.883 -0.3130 -0.1889  0.0410
  367BOLB   C1C 8801  19.406  -5.679  29.885  0.2183 -0.1797 -0.2275
  367BOLB   C2C 8802  19.538  -5.272  29.739 -0.2159  0.0471  0.0853
  367BOLB   C3C 8803  19.389  -4.860  29.629 -0.0663 -0.1262 -0.1508
  367BOLB   C4C 8804  19.175  -4.655  29.296  0.1012  0.3748  0.2885
  367BOLB   C1D 8805  20.013  -5.529  29.982 -0.0240 -0.1593 -0.1003
  367BOLB   C2D 8806  19.848  -5.176  30.117  0.0792  0.3719 -0.1606
  367BOLB   C3D 8807  19.569  -4.917  30.127  0.2935  0.1555  0.1720
  367BOLB   C4D 8808  19.330  -4.778  30.426 -0.0894 -0.0936  0.3951
  368BOLB   NC1 8809  10.016   4.446  19.233 -0.0282  0.0422  0.0202
  368BOLB   PO1 8810   9.850   4.892  19.406  0.2145  0.0775 -0.0331
  368BOLB   GL1 8811   9.691   4.757  18.984  0.2921 -0.1120 -0.1599
  368BOLB   GL2 8812   9.578   4.415  18.882 -0.0879 -0.0167  0.0638
  368BOLB   C1A 8813   9.433   4.996  18.831 -0.2425  0.3888 -0.1353
  368BOLB   C2A 8814   9.223   5.115  18.548 -0.0221 -0.0723  0.3175
  368BOLB   C3A 8815   9.094   4.947  18.163  0.3549 -0.2700  0.0142
  368BOLB   C4A 8816   8.952   4.798  17.766  0.0797  0.0627 -0.2771
  368BOLB   C1B 8817   9.106   4.375  18.697  0.2848  0.1945 -0.1388
  368BOLB   C2B 8818   8.774   4.301  18.334 -0.3379 -0.1155 -0.1384
  368BOLB   C3B 8819   8.693   3.983  17.891 -0.3157  0.1594  0.2245
  368BOLB   C4B 8820   8.558   4.138  17.453 -0.2371 -0.0954  0.1503
  368BOLB   NC2 8821   6.343   5.048  16.658  0.0219 -0.2947  0.0339
  368BOLB   PO2 8822   6.475   5.092  17.109 -0.1907  0.2206  0.1778
  368BOLB   GL3 8823   6.844   4.993  17.360 -0.1654 -0.0960 -0.0804
  368BOLB   GL4 8824   6.917   5.119  17.702 -0.1144 -0.1678  0.0779
  368BOLB   C1C 8825   7.357   4.884  17.455 -0.2718 -0.0235 -0.1680
  368BOLB   C2C 8826   7.707   4.584  17.491  0.0480 -0.2070 -0.1446
  368BOLB   C3C 8827   8.141   4.488  17.389 -0.0975 -0.3155  0.0120
  368BOLB   C4C 8828   8.453   4.636  17.645 -0.0960  0.0952 -0.1325
  368BOLB   C1D 8829   7.143   4.660  17.778  0.0737 -0.0108 -0.0191
  368BOLB   C2D 8830   7.390   4.283  17.749  0.0666 -0.1175 -0.0540
  368BOLB   C3D 8831   7.724   4.087  17.639 -0.2537 -0.1601 -0.4338
  368BOLB   C4D 8832   7.821   3.725  17.740  0.0667  0.1990 -0.1971
  369BOLB   NC1 8833   8.122   7.339  28.972  0.2477 -0.0650 -0.1066
  369BOLB   PO1 8834   8.149   6.900  29.138  0.0569  0.2198  0.1861
  369BOLB   GL1 8835   7.732   7.036  29.333  0.1509  0.1375  0.0395
  369BOLB   GL2 8836   7.718   7.261  29.255 -0.1246 -0.1755  0.1912
  369BOLB   C1A 8837   7.266   7.128  29.475  0.0910  0.2403 -0.0332
  369BOLB   C2A 8838   6.957   7.314  29.617 -0.0773  0.1670 -0.0827
  369BOLB   C3A 8839   6.646   7.522  29.726  0.2058  0.0561  0.2626
  369BOLB   C4A 8840   6.392   7.700  29.603  0.3465 -0.3006 -0.0984
  369BOLB   C1B 8841   7.491   7.514  29.235  0.0643 -0.0852  0.0836
  369BOLB   C2B 8842   7.295   7.705  29.561 -0.2765  0.1032  0.2285
  369BOLB   C3B 8843   7.155   7.882  29.930  0.2383 -0.2277  0.1984
  369BOLB   C4B 8844   6.793   7.790  30.188 -0.1509  0.0919 -0.0180
  369BOLB   NC2 8845   4.678   8.022  31.142  0.0929 -0.0035 -0.0834
  369BOLB   PO2 8846   4.657   8.160  30.693  0.4726  0.0964  0.0756
  369BOLB   GL3 8847   5.077   8.115  30.618  0.1567  0.1007  0.1638
  369BOLB   GL4 8848   5.255   8.344  30.544  0.2308 -0.2052 -0.2028
  369BOLB   C1C 8849   5.178   7.995  30.207 -0.0622 -0.1217  0.1659
  369BOLB   C2C 8850   5.347   7.780  29.792 -0.2988 -0.0136  0.1265
  369BOLB   C3C 8851   5.580   7.722  29.409 -0.0189 -0.2274 -0.1663
  369BOLB   C4C 8852   6.028   7.535  29.520  0.3034  0.0982  0.1225
  369BOLB   C1D 8853   5.569   8.307  30.147  0.1576 -0.1255  0.0559
  369BOLB   C2D 8854   5.705   8.544  29.812 -0.3083  0.1144  0.0317
  369BOLB   C3D 8855   6.017   8.701  29.682  0.2278 -0.0979 -0.2358
  369BOLB   C4D 8856   6.307   8.938  30.001  0.0545 -0.0708 -0.1213
  370BOLB   NC1 8857  14.898   0.780  32.182 -0.0539  0.3271  0.0183
  370BOLB   PO1 8858  14.789   0.693  32.740 -0.2331 -0.1731  0.0724
  370BOLB   GL1 8859  15.110   0.494  33.023  0.0310  0.0580  0.0751
  370BOLB   GL2 8860  14.974   0.815  33.259  0.0367  0.1895  0.1792
  370BOLB   C1A 8861  15.206   0.374  33.442  0.0813 -0.0083  0.0756
  370BOLB   C2A 8862  15.441   0.148  33.641 -0.0734  0.2857  0.2018
  370BOLB   C3A 8863  15.478   0.051  34.081 -0.1071 -0.2505  0.0179
  370BOLB   C4A 8864  15.436  -0.080  34.479  0.0878  0.0425  0.0844
  370BOLB   C1B 8865  15.122   0.852  33.691  0.0564  0.1547 -0.0913
  370BOLB   C2B 8866  15.447   0.649  33.853  0.0640  0.2270 -0.0755
  370BOLB   C3B 8867  15.801   0.516  33.806  0.0408  0.0504  0.2915
  370BOLB   C4B 8868  15.989   0.014  33.871  0.0551 -0.1040  0.0945
  370BOLB   NC2 8869  16.154  -1.108  36.698 -0.3116  0.2253  0.0475
  370BOLB   PO2 8870  16.009  -1.223  36.236 -0.0665  0.0752  0.4879
  370BOLB   GL3 8871  16.185  -0.804  36.149  0.0544 -0.1142 -0.1043
  370BOLB   GL4 8872  16.201  -0.480  36.241  0.3743 -0.1458 -0.0062
  370BOLB   C1C 8873  16.171  -0.600  35.787  0.3125  0.1129 -0.0731
  370BOLB   C2C 8874  15.840  -0.511  35.585 -0.2906 -0.2433 -0.4427
  370BOLB   C3C 8875  15.525  -0.494  35.211 -0.0505  0.1217 -0.0388
  370BOLB   C4C 8876  15.496  -0.413  34.728  0.0941  0.0155  0.4194
  370BOLB   C1D 8877  16.340   0.001  36.199  0.0034  0.0877 -0.0387
  370BOLB   C2D 8878  16.198   0.230  35.843 -0.0364  0.3936 -0.1207
  370BOLB   C3D 8879  16.046   0.457  35.527  0.1579 -0.3927  0.1671
  370BOLB   C4D 8880  16.115   1.030  35.513  0.3234  0.0882 -0.0939
  371BOLB   NC1 8881  21.383   7.160  31.225  0.3459  0.0461  0.0666
  371BOLB   PO1 8882  20.954   7.261  31.248  0.1237 -0.3994  0.1512
  371BOLB   GL1 8883  21.179   7.558  31.521  0.1219 -0.0483  0.3153
  371BOLB   GL2 8884  21.335   7.332  31.800 -0.4651 -0.1121  0.3685
  371BOLB   C1A 8885  21.618   7.660  31.586  0.2274  0.2523  0.0123
  371BOLB   C2A 8886  21.938   7.805  31.856 -0.1972  0.2794 -0.0341
  371BOLB   C3A 8887  22.392   7.773  32.075 -0.1934 -0.0622  0.0450
  371BOLB   C4A 8888  22.562   8.098  32.254 -0.1596 -0.0351 -0.1291
  371BOLB   C1B 8889  21.622   7.484  32.142  0.2394  0.1804 -0.0076
  371BOLB   C2B 8890  21.678   7.122  32.533 -0.1731  0.0437  0.1828
  371BOLB   C3B 8891  21.545   6.971  32.899 -0.0306 -0.0967 -0.0828
  371BOLB   C4B 8892  21.263   6.838  33.209 -0.5309 -0.0074 -0.1040
  371BOLB   NC2 8893  24.831   9.741  32.974 -0.2177  0.1048 -0.0472
  371BOLB   PO2 8894  24.451   9.701  33.183  0.0213  0.0344 -0.0689
  371BOLB   GL3 8895  24.194   9.534  32.873 -0.1668  0.0240  0.0590
  371BOLB   GL4 8896  24.449   9.495  32.633  0.1170  0.2446 -0.3487
  371BOLB   C1C 8897  23.750   9.280  32.961  0.2729  0.0843  0.0748
  371BOLB   C2C 8898  23.456   8.966  32.723  0.1595 -0.0904  0.1407
  371BOLB   C3C 8899  23.083   8.811  32.481 -0.0788 -0.0362 -0.1536
  371BOLB   C4C 8900  22.880   8.436  32.363 -0.0626  0.4976 -0.2399
  371BOLB   C1D 8901  24.458   9.099  32.427  0.0626 -0.2050 -0.0369
  371BOLB   C2D 8902  24.399   8.791  32.088  0.2103 -0.0730  0.0521
  371BOLB   C3D 8903  24.031   8.425  31.981  0.0849  0.2026 -0.0599
  371BOLB   C4D 8904  23.627   8.243  31.983 -0.1229 -0.0442 -0.0470
  372BOLB   NC1 8905   8.223  -0.040  26.875  0.2249 -0.7109  0.1114
  372BOLB   PO1 8906   7.985  -0.386  26.845 -0.0043  0.3007 -0.0525
  372BOLB   GL1 8907   7.724  -0.740  26.814  0.5927  0.1118 -0.0480
  372BOLB   GL2 8908   7.489  -0.705  26.679 -0.3946 -0.1065 -0.0777
  372BOLB   C1A 8909   7.371  -0.935  27.156 -0.3968  0.0036  0.2838
  372BOLB   C2A 8910   7.436  -1.323  27.356  0.0348 -0.2280  0.0028
  372BOLB   C3A 8911   7.206  -1.564  27.570 -0.1704 -0.0007  0.0291
  372BOLB   C4A 8912   6.813  -1.663  27.785 -0.0103  0.0973 -0.4496
  372BOLB   C1B 8913   7.409  -1.147  26.685  0.1528  0.1677  0.1352
  372BOLB   C2B 8914   7.108  -1.347  26.907  0.1607 -0.2082 -0.2640
  372BOLB   C3B 8915   7.061  -1.747  27.073  0.2885 -0.0144  0.0413
  372BOLB   C4B 8916   7.109  -2.093  27.446  0.1334  0.0767 -0.1056
  372BOLB   NC2 8917   4.425  -2.060  27.545 -0.0293  0.3586  0.1825
  372BOLB   PO2 8918   4.533  -1.983  27.995 -0.0348  0.2238 -0.1577
  372BOLB   GL3 8919   4.795  -1.722  27.724  0.0064  0.2605  0.1455
  372BOLB   GL4 8920   4.570  -1.584  27.600  0.0734  0.1431 -0.3144
  372BOLB   C1C 8921   5.153  -1.653  27.447 -0.0182 -0.3433 -0.0826
  372BOLB   C2C 8922   5.529  -1.865  27.369 -0.0653 -0.1584 -0.1204
  372BOLB   C3C 8923   5.936  -1.762  27.309 -0.0055  0.1041 -0.3750
  372BOLB   C4C 8924   6.389  -1.697  27.400  0.0179 -0.2754  0.0870
  372BOLB   C1D 8925   4.853  -1.154  27.555 -0.1099 -0.1770 -0.0568
  372BOLB   C2D 8926   5.274  -1.151  27.688  0.2670 -0.1145 -0.0292
  372BOLB   C3D 8927   5.612  -1.168  27.820 -0.0863  0.2164  0.0834
  372BOLB   C4D 8928   5.945  -1.519  27.748 -0.0673 -0.0466  0.0851
  373BOLB   NC1 8929  13.154  11.219  30.438 -0.2755 -0.1008  0.0405
  373BOLB   PO1 8930  12.846  10.998  30.590  0.2936  0.3562 -0.0970
  373BOLB   GL1 8931  12.567  11.257  30.573  0.3099  0.1674  0.1189
  373BOLB   GL2 8932  12.808  11.593  30.366 -0.1265  0.1735 -0.0001
  373BOLB   C1A 8933  12.534  11.628  30.858 -0.2245  0.1524  0.1094
  373BOLB   C2A 8934  12.573  11.935  31.204  0.2610 -0.3756 -0.1893
  373BOLB   C3A 8935  12.560  11.994  31.647  0.3981 -0.2493  0.0339
  373BOLB   C4A 8936  12.498  12.027  32.040 -0.1432 -0.1279 -0.0983
  373BOLB   C1B 8937  12.929  11.823  30.690 -0.1700  0.0405  0.0115
  373BOLB   C2B 8938  13.177  12.118  30.988  0.0605 -0.2005  0.4505
  373BOLB   C3B 8939  13.030  12.161  31.421  0.0638 -0.1746 -0.0948
  373BOLB   C4B 8940  13.036  12.443  31.725  0.0439  0.0307  0.2614
  373BOLB   NC2 8941  12.401  13.559  33.686  0.1997 -0.0022  0.1338
  373BOLB   PO2 8942  12.735  13.441  33.527  0.0495 -0.0533  0.2532
  373BOLB   GL3 8943  12.781  13.052  33.514 -0.0977 -0.0995  0.1103
  373BOLB   GL4 8944  13.005  12.941  33.303 -0.1599  0.1622  0.3241
  373BOLB   C1C 8945  12.534  12.735  33.462 -0.2127  0.1787 -0.2289
  373BOLB   C2C 8946  12.410  12.494  33.179 -0.2604  0.1125 -0.2735
  373BOLB   C3C 8947  12.307  12.374  32.725 -0.1389 -0.2019 -0.1434
  373BOLB   C4C 8948  12.224  12.343  32.340 -0.2654  0.0828  0.0510
  373BOLB   C1D 8949  12.895  12.614  32.992  0.0672 -0.1958  0.0637
  373BOLB   C2D 8950  12.811  12.165  32.916  0.3041 -0.1648  0.2477
  373BOLB   C3D 8951  12.714  12.056  32.478  0.0804 -0.3410  0.3143
  373BOLB   C4D 8952  12.988  12.122  32.094  0.0286  0.2496 -0.0450
  374BOLB   NC1 8953  16.053   9.631  19.284 -0.0050 -0.3709 -0.1352
  374BOLB   PO1 8954  15.631   9.961  19.260 -0.1835  0.0131 -0.1003
  374BOLB   GL1 8955  15.574  10.332  18.970 -0.1749 -0.0364  0.1276
  374BOLB   GL2 8956  15.715  10.542  19.023 -0.3041 -0.0039 -0.1649
  374BOLB   C1A 8957  15.279  10.289  18.556  0.1318 -0.3582  0.1187
  374BOLB   C2A 8958  14.978  10.488  18.258  0.0226  0.0176 -0.4332
  374BOLB   C3A 8959  15.100  10.759  17.811 -0.0961 -0.4059  0.0120
  374BOLB   C4A 8960  15.095  10.905  17.424 -0.1397 -0.1811  0.1196
  374BOLB   C1B 8961  15.589  10.853  18.934 -0.0049  0.0498  0.2979
  374BOLB   C2B 8962  15.519  11.132  18.721 -0.4008  0.2434 -0.0334
  374BOLB   C3B 8963  15.600  11.522  18.604 -0.3879  0.1407 -0.0082
  374BOLB   C4B 8964  15.571  11.654  18.280 -0.0230  0.2692  0.1011
  374BOLB   NC2 8965  16.209  11.800  15.346  0.1095 -0.3281 -0.0484
  374BOLB   PO2 8966  16.308  11.397  15.468  0.3359  0.0384  0.3714
  374BOLB   GL3 8967  15.986  11.165  15.670  0.0879 -0.1139 -0.0136
  374BOLB   GL4 8968  16.172  11.086  15.975 -0.1592  0.0415  0.2928
  374BOLB   C1C 8969  15.621  10.955  15.715 -0.0904  0.0975 -0.1832
  374BOLB   C2C 8970  15.244  10.890  16.093 -0.2320 -0.0471 -0.0799
  374BOLB   C3C 8971  15.281  10.897  16.565  0.2246 -0.2330 -0.1883
  374BOLB   C4C 8972  15.265  10.846  17.011 -0.1949 -0.2848 -0.1248
  374BOLB   C1D 8973  16.133  10.932  16.300  0.4752 -0.1041 -0.1278
  374BOLB   C2D 8974  16.301  10.796  16.622 -0.0847  0.1819 -0.1184
  374BOLB   C3D 8975  16.494  10.341  16.762 -0.2904 -0.1386  0.3058
  374BOLB   C4D 8976  16.548  10.000  16.843  0.0722  0.1489 -0.0939
  375BOLB   NC1 8977  19.577  11.550  25.383  0.2412 -0.1129 -0.1904
  375BOLB   PO1 8978  19.607  11.767  25.774  0.0588 -0.3484 -0.5405
  375BOLB   GL1 8979  19.918  12.047  25.977 -0.0106  0.1465  0.4186
  375BOLB   GL2 8980  20.267  11.851  26.036 -0.1186 -0.0404 -0.0520
  375BOLB   C1A 8981  19.937  12.399  25.871 -0.1572 -0.3556 -0.1169
  375BOLB   C2A 8982  20.063  12.766  25.617 -0.0609  0.1140 -0.0121
  375BOLB   C3A 8983  20.322  12.898  25.252 -0.3034 -0.1404  0.0643
  375BOLB   C4A 8984  20.558  13.260  25.229  0.1572  0.2287  0.0006
  375BOLB   C1B 8985  20.375  12.294  26.075 -0.0938 -0.1790  0.1185
  375BOLB   C2B 8986  20.296  12.774  26.017 -0.2386  0.0578  0.1477
  375BOLB   C3B 8987  20.320  13.207  25.883  0.1263  0.0788 -0.1136
  375BOLB   C4B 8988  20.145  13.682  25.966 -0.0712  0.2266 -0.2235
  375BOLB   NC2 8989  22.219  14.799  24.784 -0.1581  0.1870  0.2799
  375BOLB   PO2 8990  22.535  14.666  25.073 -0.3102 -0.0385  0.0346
  375BOLB   GL3 8991  22.261  14.434  25.241  0.0436 -0.1478  0.0633
  375BOLB   GL4 8992  22.250  14.303  25.542 -0.1650  0.1676 -0.0171
  375BOLB   C1C 8993  21.818  14.450  25.318 -0.1464 -0.1416  0.2192
  375BOLB   C2C 8994  21.394  14.270  25.471 -0.4431  0.1436  0.2226
  375BOLB   C3C 8995  21.156  13.883  25.302 -0.0111  0.0988  0.0445
  375BOLB   C4C 8996  20.894  13.542  25.284 -0.0726  0.1016  0.2080
  375BOLB   C1D 8997  21.862  14.160  25.782 -0.0425 -0.0350  0.0153
  375BOLB   C2D 8998  21.394  14.161  26.016 -0.1280  0.0443  0.2183
  375BOLB   C3D 8999  21.232  13.828  26.258  0.0298 -0.0073  0.3706
  375BOLB   C4D 9000  21.059  13.714  26.599 -0.2280  0.1350 -0.2574
  376BOLB   NC1 9001  17.224  -1.821  30.765  0.1809  0.1431 -0.0865
  376BOLB   PO1 9002  17.293  -1.526  31.026  0.0152 -0.1248 -0.0917
  376BOLB   GL1 9003  17.123  -1.510  31.423 -0.0112 -0.2239 -0.0794
  376BOLB   GL2 9004  17.083  -1.227  31.585 -0.0566 -0.0050  0.1996
  376BOLB   C1A 9005  17.132  -1.714  31.737 -0.2903  0.1435  0.1405
  376BOLB   C2A 9006  17.517  -1.946  31.903  0.3965 -0.1724  0.2793
  376BOLB   C3A 9007  17.620  -2.370  31.760  0.2625  0.1305  0.0992
  376BOLB   C4A 9008  17.961  -2.748  31.773  0.2533  0.0565  0.0485
  376BOLB   C1B 9009  16.988  -1.309  32.001  0.3262 -0.2417  0.1478
  376BOLB   C2B 9010  16.939  -1.332  32.410  0.3390  0.2152 -0.2247
  376BOLB   C3B 9011  17.073  -1.712  32.580 -0.4610  0.0852 -0.1540
  376BOLB   C4B 9012  17.367  -2.098  32.448  0.0666  0.2687  0.0461
  376BOLB   NC2 9013  18.726  -4.215  33.733  0.2275 -0.0071  0.0915
  376BOLB   PO2 9014  18.754  -3.933  33.398 -0.0574 -0.1091  0.0680
  376BOLB   GL3 9015  18.826  -3.920  33.031 -0.0074 -0.2915  0.1897
  376BOLB   GL4 9016  18.765  -4.270  32.994  0.0664  0.1034 -0.0623
  376BOLB   C1C 9017  18.852  -3.624  32.678  0.0428  0.0595 -0.2075
  376BOLB   C2C 9018  18.649  -3.419  32.385 -0.3985  0.0469 -0.1736
  376BOLB   C3C 9019  18.443  -3.307  32.122 -0.0941  0.0266 -0.0696
  376BOLB   C4C 9020  18.028  -3.143  31.960 -0.1055  0.4036  0.0843
  376BOLB   C1D 9021  18.456  -4.250  32.632  0.2322 -0.0848  0.0039
  376BOLB   C2D 9022  18.478  -4.347  32.279 -0.2622  0.1150  0.5059
  376BOLB   C3D 9023  18.423  -4.471  31.780  0.0468 -0.2435  0.3018
  376BOLB   C4D 9024  18.384  -4.444  31.376 -0.1437  0.1210 -0.0346
  377BOLB   NC1 9025  21.018   5.194  17.576  0.0805 -0.3981  0.0080
  377BOLB   PO1 9026  20.932   5.645  17.678 -0.0924  0.2117  0.0507
  377BOLB   GL1 9027  21.390   5.600  17.496 -0.1458  0.0772 -0.4171
  377BOLB   GL2 9028  21.315   5.464  17.288 -0.1794 -0.0761  0.2530
  377BOLB   C1A 9029  21.661   5.924  17.249 -0.0275 -0.1537  0.1572
  377BOLB   C2A 9030  21.816   6.055  16.855  0.0932  0.3529 -0.1372
  377BOLB   C3A 9031  21.950   6.069  16.447 -0.5742  0.2940  0.1309
  377BOLB   C4A 9032  22.069   6.144  15.948  0.0301 -0.0738 -0.1262
  377BOLB   C1B 9033  21.544   5.437  16.930  0.0097 -0.0885 -0.0073
  377BOLB   C2B 9034  21.811   5.377  16.630 -0.1632 -0.0279  0.0038
  377BOLB   C3B 9035  22.177   5.062  16.478 -0.1338 -0.3623  0.0553
  377BOLB   C4B 9036  22.444   4.837  16.595 -0.1147  0.1084  0.1421
  377BOLB   NC2 9037  22.461   6.345  13.936  0.3581  0.1353 -0.2081
  377BOLB   PO2 9038  22.901   6.443  13.981 -0.0637 -0.4138 -0.2010
  377BOLB   GL3 9039  22.720   6.594  14.316 -0.0904  0.0444 -0.0721
  377BOLB   GL4 9040  22.404   6.552  14.376  0.1529 -0.1073 -0.3576
  377BOLB   C1C 9041  22.687   6.273  14.700 -0.1244 -0.4283 -0.1063
  377BOLB   C2C 9042  22.857   6.261  14.991  0.0893  0.0590 -0.5268
  377BOLB   C3C 9043  22.615   6.116  15.291  0.1301 -0.0072 -0.0065
  377BOLB   C4C 9044  22.205   6.041  15.539  0.0655 -0.2665 -0.2148
  377BOLB   C1D 9045  22.101   6.321  14.540  0.1735  0.0244 -0.1353
  377BOLB   C2D 9046  21.887   5.971  14.574 -0.1119  0.0018  0.0329
  377BOLB   C3D 9047  21.424   5.828  14.552  0.1661  0.1485 -0.1338
  377BOLB   C4D 9048  21.127   5.627  14.725  0.2191 -0.2461 -0.1346
  378BOLB   NC1 9049  12.491  11.556  25.632 -0.2742  0.1148  0.0571
  378BOLB   PO1 9050  12.072  11.653  25.766  0.0230  0.1510 -0.0829
  378BOLB   GL1 9051  11.773  11.897  25.993  0.2796 -0.2297 -0.1740
  378BOLB   GL2 9052  12.021  12.211  26.047  0.1467  0.1314  0.0625
  378BOLB   C1A 9053  11.578  12.334  25.976 -0.0411  0.2377  0.4308
  378BOLB   C2A 9054  11.486  12.758  25.946 -0.1509  0.1062 -0.1903
  378BOLB   C3A 9055  11.265  13.053  25.705 -0.1364 -0.0613 -0.0690
  378BOLB   C4A 9056  11.205  13.524  25.880  0.1978  0.0590  0.1203
  378BOLB   C1B 9057  11.940  12.599  25.771  0.0031  0.0990 -0.2917
  378BOLB   C2B 9058  11.756  13.006  25.642 -0.2454  0.0103  0.1186
  378BOLB   C3B 9059  11.612  13.232  25.390  0.2164 -0.4339 -0.3148
  378BOLB   C4B 9060  11.207  13.608  25.344  0.1726  0.2504  0.1196
  378BOLB   NC2 9061  10.085  15.749  24.721 -0.1024  0.0626 -0.0379
  378BOLB   PO2 9062  10.263  15.487  24.945 -0.1366  0.0153  0.1720
  378BOLB   GL3 9063  10.571  15.369  25.105 -0.2525  0.1707 -0.1197
  378BOLB   GL4 9064  10.710  15.243  24.907 -0.2491 -0.0657 -0.2508
  378BOLB   C1C 9065  10.707  15.120  25.457  0.2100 -0.2749  0.3068
  378BOLB   C2C 9066  10.856  14.830  25.681 -0.0076  0.1065  0.0824
  378BOLB   C3C 9067  11.054  14.360  25.718 -0.1760 -0.0044 -0.1754
  378BOLB   C4C 9068  11.138  14.023  25.841  0.1172  0.1109  0.1063
  378BOLB   C1D 9069  10.622  14.808  25.084  0.0443  0.1308 -0.2494
  378BOLB   C2D 9070  10.624  14.378  25.344  0.3883  0.3311  0.1657
  378BOLB   C3D 9071  10.540  14.140  25.728  0.0154  0.2690 -0.3168
  378BOLB   C4D 9072  10.686  13.738  25.827 -0.0588 -0.1987 -0.2953
  379BOLB   NC1 9073  17.009  -8.207  20.492 -0.0975 -0.2760 -0.2818
  379BOLB   PO1 9074  17.013  -8.217  20.045 -0.0929  0.2190 -0.1614
  379BOLB   GL1 9075  16.920  -7.813  20.203  0.4908 -0.0378 -0.0092
  379BOLB   GL2 9076  16.641  -7.666  20.105  0.0009 -0.1356 -0.0919
  379BOLB   C1A 9077  16.991  -7.328  20.136 -0.0608 -0.0671 -0.1676
  379BOLB   C2A 9078  16.818  -6.862  19.973 -0.2356 -0.2608 -0.2113
  379BOLB   C3A 9079  16.440  -6.582  20.040  0.2429  0.2187  0.0037
  379BOLB   C4A 9080  15.996  -6.513  20.039  0.1422 -0.0220 -0.0609
  379BOLB   C1B 9081  16.508  -7.321  19.946 -0.2127 -0.1798  0.0866
  379BOLB   C2B 9082  16.322  -7.007  19.773 -0.3200 -0.1866 -0.0889
  379BOLB   C3B 9083  16.037  -6.881  19.528 -0.1676 -0.1686 -0.1126
  379BOLB   C4B 9084  15.989  -6.907  19.100  0.3968  0.2621 -0.0401
  379BOLB   NC2 9085  15.117  -7.899  18.793 -0.1045  0.2636  0.1644
  379BOLB   PO2 9086  15.094  -7.817  18.339 -0.2014 -0.0447  0.0232
  379BOLB   GL3 9087  15.350  -7.510  18.489 -0.1004  0.0746  0.0279
  379BOLB   GL4 9088  15.562  -7.501  18.209  0.2516 -0.5472  0.0162
  379BOLB   C1C 9089  15.352  -7.293  18.818 -0.2288 -0.1569  0.2918
  379BOLB   C2C 9090  15.493  -6.971  19.051 -0.0672 -0.2140 -0.0385
  379BOLB   C3C 9091  15.673  -6.585  19.298 -0.1217  0.0977 -0.1392
  379BOLB   C4C 9092  15.870  -6.429  19.674  0.4331  0.0363  0.0890
  379BOLB   C1D 9093  15.705  -7.100  18.472  0.0001 -0.3740  0.0759
  379BOLB   C2D 9094  15.826  -6.731  18.634 -0.0760  0.2436  0.1158
  379BOLB   C3D 9095  16.005  -6.500  18.863 -0.0377 -0.1600  0.1728
  379BOLB   C4D 9096  16.180  -6.161  18.929  0.0295 -0.5512  0.2945
  380BOLB   NC1 9097  22.491   1.690  18.704 -0.1101  0.1548  0.0598
  380BOLB   PO1 9098  22.497   2.110  18.627 -0.0303  0.2544  0.0849
  380BOLB   GL1 9099  22.859   2.080  18.530 -0.1941 -0.0275 -0.2867
  380BOLB   GL2 9100  23.150   1.880  18.599 -0.1285  0.5031  0.0312
  380BOLB   C1A 9101  23.288   2.113  18.215 -0.2702  0.0132  0.1873
  380BOLB   C2A 9102  23.574   2.172  17.882  0.0464 -0.1841  0.2717
  380BOLB   C3A 9103  23.875   2.265  17.662  0.0344  0.3022  0.1598
  380BOLB   C4A 9104  24.141   2.426  17.292  0.0285 -0.2250  0.1325
  380BOLB   C1B 9105  23.008   1.564  18.365  0.2830 -0.0710  0.1544
  380BOLB   C2B 9106  22.914   1.273  18.077  0.2485 -0.1914  0.3228
  380BOLB   C3B 9107  22.807   0.852  17.910  0.1450  0.3655 -0.1255
  380BOLB   C4B 9108  22.925   0.483  18.087 -0.1046 -0.0059  0.1079
  380BOLB   NC2 9109  26.131   3.714  16.172 -0.0175  0.0803 -0.1787
  380BOLB   PO2 9110  25.790   3.362  16.026  0.0063  0.0452  0.1857
  380BOLB   GL3 9111  25.369   3.452  16.028 -0.4845 -0.3161  0.0871
  380BOLB   GL4 9112  25.287   3.252  15.785 -0.0850 -0.1970 -0.1270
  380BOLB   C1C 9113  25.043   3.613  16.427 -0.0750  0.1095 -0.3168
  380BOLB   C2C 9114  24.833   3.278  16.740  0.2137 -0.1223 -0.0610
  380BOLB   C3C 9115  24.607   2.995  16.933  0.3362 -0.2929  0.1229
  380BOLB   C4C 9116  24.326   2.671  17.029 -0.5249 -0.0858 -0.0514
  380BOLB   C1D 9117  24.975   3.117  16.082  0.1894 -0.2400 -0.1325
  380BOLB   C2D 9118  24.726   3.026  16.345  0.0794  0.1148  0.3944
  380BOLB   C3D 9119  24.303   3.177  16.450  0.4353  0.1277 -0.2920
  380BOLB   C4D 9120  24.046   3.124  16.977  0.3022 -0.0281 -0.1227
  381BOLB   NC1 9121  19.398   4.740  33.043 -0.1437  0.1083 -0.0295
  381BOLB   PO1 9122  19.655   4.426  32.866 -0.0511 -0.2499  0.1290
  381BOLB   GL1 9123  19.943   4.319  33.261 -0.0220 -0.1131 -0.2999
  381BOLB   GL2 9124  20.051   4.016  33.054 -0.1725 -0.0867  0.1661
  381BOLB   C1A 9125  20.320   4.221  33.498 -0.2271  0.0707 -0.1752
  381BOLB   C2A 9126  20.590   4.216  33.788 -0.5160  0.4314 -0.0891
  381BOLB   C3A 9127  20.879   4.115  34.100 -0.0065 -0.0134  0.1494
  381BOLB   C4A 9128  21.168   4.040  34.399  0.0339  0.1719  0.1163
  381BOLB   C1B 9129  20.391   4.366  33.023  0.2862  0.1463  0.1215
  381BOLB   C2B 9130  20.773   4.301  33.245 -0.0471  0.1775 -0.1451
  381BOLB   C3B 9131  21.041   4.179  33.633 -0.1649  0.1537 -0.0021
  381BOLB   C4B 9132  21.376   4.124  33.863  0.1012  0.0446 -0.1431
  381BOLB   NC2 9133  22.571   3.002  35.913 -0.2609  0.3918 -0.0030
  381BOLB   PO2 9134  22.366   3.272  36.134  0.2887  0.1612 -0.2346
  381BOLB   GL3 9135  22.121   3.419  35.826 -0.0545 -0.2110 -0.0348
  381BOLB   GL4 9136  22.002   3.696  35.951 -0.1990 -0.1314 -0.1662
  381BOLB   C1C 9137  21.849   3.456  35.465  0.3593  0.2365 -0.0123
  381BOLB   C2C 9138  21.583   3.717  35.345  0.4966 -0.0172  0.2157
  381BOLB   C3C 9139  21.254   4.072  35.300 -0.0117 -0.0761 -0.3094
  381BOLB   C4C 9140  21.115   4.135  34.895  0.0745 -0.1487  0.0733
  381BOLB   C1D 9141  21.632   3.719  35.900  0.0186 -0.1480  0.2503
  381BOLB   C2D 9142  21.180   3.487  35.815  0.3454  0.0457  0.0580
  381BOLB   C3D 9143  20.953   3.692  35.571  0.2191  0.2171 -0.0934
  381BOLB   C4D 9144  20.781   3.887  35.238 -0.0400  0.0768 -0.0985
  382BOLB   NC1 9145  12.655  11.354  23.684  0.1544  0.1165 -0.2538
  382BOLB   PO1 9146  12.297  11.469  23.798 -0.0287  0.2141 -0.1028
  382BOLB   GL1 9147  12.400  11.918  23.691 -0.3909  0.0617  0.0087
  382BOLB   GL2 9148  12.814  11.817  23.661  0.0529 -0.3218  0.2371
  382BOLB   C1A 9149  12.525  12.333  23.418  0.1851  0.0152 -0.1665
  382BOLB   C2A 9150  12.569  12.745  23.319  0.2561  0.0342  0.1917
  382BOLB   C3A 9151  12.547  13.098  23.017  0.3886  0.0043  0.0451
  382BOLB   C4A 9152  12.828  13.433  22.886 -0.0035  0.2719 -0.0803
  382BOLB   C1B 9153  12.940  12.186  23.457 -0.0568  0.1285  0.4678
  382BOLB   C2B 9154  13.057  12.504  23.235 -0.0159  0.1746 -0.0881
  382BOLB   C3B 9155  12.999  12.820  22.961 -0.0014  0.0768  0.0564
  382BOLB   C4B 9156  12.873  13.039  22.561 -0.2043 -0.0432 -0.6738
  382BOLB   NC2 9157  11.663  15.539  22.136  0.2883 -0.2306  0.2744
  382BOLB   PO2 9158  12.090  15.519  22.166 -0.2498  0.2377 -0.1196
  382BOLB   GL3 9159  12.130  15.012  22.067  0.0620 -0.1060 -0.1239
  382BOLB   GL4 9160  12.022  14.800  22.019 -0.1091  0.0977 -0.2412
  382BOLB   C1C 9161  12.462  14.780  22.291 -0.2829  0.3040 -0.2375
  382BOLB   C2C 9162  12.557  14.644  22.615  0.0009  0.3186 -0.1519
  382BOLB   C3C 9163  12.702  14.243  22.777 -0.6200  0.0163  0.1762
  382BOLB   C4C 9164  12.794  13.841  22.935  0.1362  0.1028  0.0993
  382BOLB   C1D 9165  12.131  14.465  21.981 -0.2758  0.2438  0.1406
  382BOLB   C2D 9166  12.492  14.188  22.000  0.0779 -0.2273  0.0878
  382BOLB   C3D 9167  12.912  14.285  21.759  0.2188 -0.3241  0.0327
  382BOLB   C4D 9168  13.226  14.193  21.928 -0.4110  0.1731 -0.0485
  383BOLB   NC1 9169  23.316   5.928  30.546  0.1813 -0.0443  0.1678
  383BOLB   PO1 9170  22.979   6.108  30.684  0.0996  0.0751 -0.0031
  383BOLB   GL1 9171  23.235   6.239  30.952  0.2192 -0.0961 -0.1801
  383BOLB   GL2 9172  23.587   6.028  30.951 -0.0449  0.2185 -0.1651
  383BOLB   C1A 9173  23.557   6.408  31.285 -0.0076 -0.2583  0.2125
  383BOLB   C2A 9174  23.443   6.678  31.712  0.0494  0.0591 -0.1239
  383BOLB   C3A 9175  23.552   6.961  32.001  0.0945  0.1355 -0.0472
  383BOLB   C4A 9176  23.648   7.163  32.339 -0.2342 -0.2430 -0.1353
  383BOLB   C1B 9177  23.807   6.026  31.415 -0.4325  0.3350  0.0271
  383BOLB   C2B 9178  24.011   5.983  31.808 -0.0199 -0.1741 -0.2294
  383BOLB   C3B 9179  24.222   6.090  32.086  0.3687 -0.2578  0.2654
  383BOLB   C4B 9180  24.393   6.496  32.197 -0.2154  0.0981 -0.3306
  383BOLB   NC2 9181  25.119   8.548  33.701  0.1370  0.0970 -0.2163
  383BOLB   PO2 9182  25.388   8.717  33.396  0.1193  0.0566 -0.1353
  383BOLB   GL3 9183  25.132   8.361  33.201 -0.0035  0.2405 -0.1822
  383BOLB   GL4 9184  25.191   8.272  32.884 -0.4013  0.3105 -0.1475
  383BOLB   C1C 9185  24.700   8.300  32.958 -0.2034 -0.1416  0.0881
  383BOLB   C2C 9186  24.381   8.047  32.714 -0.1760 -0.2291 -0.0460
  383BOLB   C3C 9187  24.104   7.724  32.664 -0.1947  0.2499  0.0012
  383BOLB   C4C 9188  23.874   7.362  32.613  0.0649 -0.0755  0.0841
  383BOLB   C1D 9189  24.869   8.201  32.464  0.1824  0.0997  0.1464
  383BOLB   C2D 9190  24.883   7.961  32.144  0.3666  0.2392 -0.3167
  383BOLB   C3D 9191  24.654   7.724  31.733  0.2535 -0.1154 -0.2587
  383BOLB   C4D 9192  24.644   7.510  31.324  0.0715  0.1991  0.2832
  384BOLB   NC1 9193  23.538  -0.818  24.078 -0.0257 -0.0882  0.2658
  384BOLB   PO1 9194  23.723  -1.079  24.287  0.2214 -0.0600 -0.0272
  384BOLB   GL1 9195  23.895  -1.359  24.226  0.0727  0.0666  0.2837
  384BOLB   GL2 9196  23.780  -1.501  23.988  0.0685  0.1609 -0.1076
  384BOLB   C1A 9197  24.204  -1.695  24.333 -0.0103  0.3996  0.2557
  384BOLB   C2A 9198  24.269  -1.995  24.565 -0.3504 -0.1890  0.3874
  384BOLB   C3A 9199  24.569  -2.147  24.861  0.2581  0.0332 -0.1356
  384BOLB   C4A 9200  24.855  -2.295  25.129  0.1604  0.1613  0.1222
  384BOLB   C1B 9201  24.299  -1.368  23.915 -0.2076  0.1114 -0.3076
  384BOLB   C2B 9202  24.654  -1.705  23.877  0.1647 -0.1923  0.2362
  384BOLB   C3B 9203  24.731  -2.189  23.657  0.1808 -0.0308 -0.1326
  384BOLB   C4B 9204  24.408  -2.492  23.635 -0.0908  0.0480 -0.0470
  384BOLB   NC2 9205  26.775  -3.202  26.730 -0.2930 -0.0012  0.0945
  384BOLB   PO2 9206  26.521  -3.277  26.544 -0.0162 -0.0872 -0.2580
  384BOLB   GL3 9207  26.191  -3.163  26.402  0.1556  0.0198 -0.0743
  384BOLB   GL4 9208  25.840  -3.185  26.396 -0.1087  0.2451 -0.0549
  384BOLB   C1C 9209  26.113  -3.001  25.975  0.0645  0.1183  0.0241
  384BOLB   C2C 9210  25.697  -2.887  25.787 -0.1129  0.0864  0.0523
  384BOLB   C3C 9211  25.406  -2.899  25.521 -0.0015  0.2874 -0.3132
  384BOLB   C4C 9212  25.103  -2.808  25.307  0.0622 -0.1478 -0.0328
  384BOLB   C1D 9213  25.809  -2.748  26.283 -0.0835 -0.3337  0.0375
  384BOLB   C2D 9214  25.459  -2.458  26.092 -0.3080  0.0724 -0.2998
  384BOLB   C3D 9215  25.081  -2.206  26.174  0.0773 -0.1006  0.1577
  384BOLB   C4D 9216  24.782  -1.832  25.934 -0.0573 -0.0125 -0.0635
  385BOLB   NC1 9217  22.147  -0.238  20.353 -0.0550 -0.1135  0.1841
  385BOLB   PO1 9218  22.430  -0.058  20.047 -0.2789  0.3649 -0.1285
  385BOLB   GL1 9219  22.722  -0.344  19.830 -0.0843  0.1481  0.1417
  385BOLB   GL2 9220  22.645  -0.265  19.580  0.6291 -0.0288 -0.1492
  385BOLB   C1A 9221  23.101  -0.672  19.732  0.3819 -0.2039 -0.0524
  385BOLB   C2A 9222  23.448  -1.006  19.864 -0.1171  0.2930  0.0536
  385BOLB   C3A 9223  23.834  -1.109  19.685  0.1368 -0.3205 -0.1117
  385BOLB   C4A 9224  24.202  -1.112  19.625 -0.5313  0.1465  0.1090
  385BOLB   C1B 9225  22.986  -0.261  19.405  0.0178 -0.0273  0.0247
  385BOLB   C2B 9226  23.314  -0.389  19.210  0.0694  0.2761 -0.0191
  385BOLB   C3B 9227  23.598  -0.649  19.415  0.1863 -0.4130 -0.0417
  385BOLB   C4B 9228  23.969  -0.887  19.239 -0.1496 -0.0556  0.0004
  385BOLB   NC2 9229  26.618  -0.713  18.584 -0.1847 -0.2373 -0.1412
  385BOLB   PO2 9230  26.529  -1.028  18.636  0.2435  0.3058 -0.0757
  385BOLB   GL3 9231  26.142  -1.002  18.778  0.0052  0.1429  0.0810
  385BOLB   GL4 9232  26.007  -0.743  19.058 -0.3833 -0.1719  0.0845
  385BOLB   C1C 9233  25.800  -1.162  18.668  0.0296 -0.1896  0.1183
  385BOLB   C2C 9234  25.323  -1.105  18.827 -0.1671 -0.1567 -0.1854
  385BOLB   C3C 9235  24.926  -1.161  19.005 -0.0327  0.0865  0.1049
  385BOLB   C4C 9236  24.591  -1.060  19.423  0.0631  0.0202  0.2129
  385BOLB   C1D 9237  25.628  -0.853  19.141 -0.0583  0.1934 -0.0463
  385BOLB   C2D 9238  25.343  -1.063  19.361 -0.2204  0.2645  0.3064
  385BOLB   C3D 9239  25.000  -0.796  19.518  0.0466 -0.1346 -0.2672
  385BOLB   C4D 9240  24.723  -0.662  19.761  0.1522  0.2426  0.2948
  386BOLB   NC1 9241  11.731   5.777  19.229  0.0407 -0.1992 -0.1971
  386BOLB   PO1 9242  11.316   5.753  18.947  0.1489 -0.0365 -0.2714
  386BOLB   GL1 9243  10.923   5.985  18.735  0.0427 -0.2355 -0.1760
  386BOLB   GL2 9244  10.987   6.330  18.883  0.2130 -0.2175 -0.1216
  386BOLB   C1A 9245  10.816   6.228  18.417  0.1275 -0.1982 -0.0447
  386BOLB   C2A 9246  10.628   6.304  17.999  0.1695 -0.3664 -0.0594
  386BOLB   C3A 9247  10.574   6.687  17.766 -0.0626  0.4044  0.4884
  386BOLB   C4A 9248  10.416   6.995  17.463  0.1076  0.0946  0.1047
  386BOLB   C1B 9249  10.564   6.352  18.779  0.0132 -0.0800 -0.0653
  386BOLB   C2B 9250  10.106   6.303  18.569 -0.2236  0.0416 -0.2342
  386BOLB   C3B 9251   9.658   6.488  18.325 -0.2948  0.1227 -0.1215
  386BOLB   C4B 9252   9.376   6.743  18.446 -0.0727 -0.5548 -0.1851
  386BOLB   NC2 9253   9.120   7.251  15.611  0.1852  0.1027  0.0368
  386BOLB   PO2 9254   8.993   6.922  15.390  0.1251  0.1336  0.0133
  386BOLB   GL3 9255   9.094   6.676  15.794 -0.1497  0.4387  0.1135
  386BOLB   GL4 9256   9.130   6.351  15.779  0.2598  0.0841 -0.2512
  386BOLB   C1C 9257   9.190   6.484  16.257  0.0925  0.2214 -0.2222
  386BOLB   C2C 9258   9.444   6.755  16.579 -0.0714 -0.2675  0.0973
  386BOLB   C3C 9259   9.845   6.753  16.760  0.0072 -0.1774  0.0868
  386BOLB   C4C 9260  10.078   6.952  17.090  0.0977 -0.2183  0.0402
  386BOLB   C1D 9261   9.270   6.008  15.989  0.0603  0.2734 -0.1919
  386BOLB   C2D 9262   9.576   6.094  16.387 -0.0229  0.1743 -0.2849
  386BOLB   C3D 9263   9.821   6.141  16.738 -0.0922  0.0622  0.4256
  386BOLB   C4D 9264  10.167   5.834  16.736  0.1000  0.2171  0.0431
  387BOLB   NC1 9265  23.097   2.552  30.527  0.0332 -0.2302 -0.1807
  387BOLB   PO1 9266  22.651   2.576  30.514  0.1224  0.0864  0.1728
  387BOLB   GL1 9267  22.796   2.411  30.932 -0.0660  0.1697 -0.0781
  387BOLB   GL2 9268  22.591   2.357  31.225  0.1525 -0.0061 -0.1021
  387BOLB   C1A 9269  23.145   2.417  31.229 -0.2819 -0.0906 -0.3801
  387BOLB   C2A 9270  23.434   2.437  31.428  0.1810 -0.3612 -0.0454
  387BOLB   C3A 9271  23.771   2.547  31.585  0.0727  0.1542  0.1282
  387BOLB   C4A 9272  24.043   2.346  31.842  0.1915 -0.0096  0.1374
  387BOLB   C1B 9273  22.816   2.446  31.579  0.1284  0.1407 -0.0029
  387BOLB   C2B 9274  22.814   2.211  32.036  0.0433  0.0724  0.0330
  387BOLB   C3B 9275  23.181   2.214  32.383  0.3225  0.0615 -0.0218
  387BOLB   C4B 9276  23.544   2.224  32.691  0.0215  0.3322 -0.0334
  387BOLB   NC2 9277  25.376   1.028  33.669 -0.3073 -0.2502 -0.2085
  387BOLB   PO2 9278  25.621   0.901  33.352 -0.1687 -0.2698 -0.2422
  387BOLB   GL3 9279  25.266   1.026  33.135  0.2273 -0.2665 -0.0386
  387BOLB   GL4 9280  25.214   1.382  33.241  0.1299 -0.0531  0.1684
  387BOLB   C1C 9281  24.842   1.131  32.914  0.1914 -0.3187  0.2008
  387BOLB   C2C 9282  24.698   1.355  32.548  0.1515  0.1119  0.1203
  387BOLB   C3C 9283  24.517   1.678  32.390 -0.3574 -0.0902  0.2481
  387BOLB   C4C 9284  24.379   2.035  32.063  0.0643 -0.0668 -0.1444
  387BOLB   C1D 9285  25.109   1.573  32.828 -0.2854  0.0827  0.0661
  387BOLB   C2D 9286  25.015   1.762  32.472 -0.0195 -0.0298  0.1181
  387BOLB   C3D 9287  24.927   2.010  32.094 -0.0863  0.0092  0.0608
  387BOLB   C4D 9288  24.738   1.814  31.705 -0.0402  0.1759  0.1698
  388BOLB   NC1 9289   7.314   3.249  23.255  0.0139 -0.0160 -0.1259
  388BOLB   PO1 9290   7.294   3.058  23.617  0.0961 -0.2206  0.2665
  388BOLB   GL1 9291   6.841   2.882  23.548 -0.0960  0.2373  0.2535
  388BOLB   GL2 9292   6.768   2.556  23.422 -0.1982 -0.0323  0.0677
  388BOLB   C1A 9293   6.373   2.996  23.520  0.1140 -0.2196 -0.1101
  388BOLB   C2A 9294   6.010   2.990  23.571  0.0384 -0.0494 -0.1671
  388BOLB   C3A 9295   5.601   3.050  23.462 -0.3911  0.0400 -0.0199
  388BOLB   C4A 9296   5.172   2.830  23.674 -0.1073  0.2413  0.0322
  388BOLB   C1B 9297   6.379   2.518  23.674 -0.2357 -0.2553  0.0462
  388BOLB   C2B 9298   5.950   2.408  23.647  0.1309  0.1716  0.0210
  388BOLB   C3B 9299   5.602   2.440  23.854  0.1009 -0.1452 -0.4300
  388BOLB   C4B 9300   5.332   2.327  24.168 -0.0367 -0.3591 -0.1753
  388BOLB   NC2 9301   2.911   3.476  24.201 -0.1580 -0.0254  0.3281
  388BOLB   PO2 9302   2.764   3.024  23.981  0.1861  0.0349  0.1903
  388BOLB   GL3 9303   3.108   3.143  23.936  0.0805  0.2929 -0.0418
  388BOLB   GL4 9304   3.288   3.433  23.760 -0.2894 -0.1012 -0.0254
  388BOLB   C1C 9305   3.501   3.120  24.040 -0.0380 -0.2273 -0.2214
  388BOLB   C2C 9306   3.995   3.016  24.091 -0.2513  0.3830 -0.2490
  388BOLB   C3C 9307   4.446   2.757  23.851 -0.2653 -0.0650  0.1215
  388BOLB   C4C 9308   4.843   2.741  23.770 -0.2943  0.1107 -0.1608
  388BOLB   C1D 9309   3.745   3.548  23.900 -0.1662 -0.1412 -0.0353
  388BOLB   C2D 9310   4.137   3.586  24.066  0.1593 -0.1584 -0.2746
  388BOLB   C3D 9311   4.523   3.563  24.359 -0.1082 -0.0809  0.0856
  388BOLB   C4D 9312   4.863   3.415  24.275 -0.1844  0.1256  0.0429
  389BOLB   NC1 9313  26.821  10.846  26.005  0.0378  0.0638  0.2328
  389BOLB   PO1 9314  27.126  10.531  26.022 -0.1081 -0.1536  0.0947
  389BOLB   GL1 9315  26.997  10.022  26.119  0.0987  0.1155 -0.0438
  389BOLB   GL2 9316  27.241   9.747  26.041 -0.1308  0.4292 -0.3681
  389BOLB   C1A 9317  26.794   9.675  26.176  0.0953 -0.0606 -0.0756
  389BOLB   C2A 9318  26.373   9.685  26.084 -0.0258  0.0375 -0.4704
  389BOLB   C3A 9319  26.129   9.521  25.701 -0.2801 -0.0688  0.2270
  389BOLB   C4A 9320  25.806   9.169  25.661 -0.2380 -0.0630  0.1029
  389BOLB   C1B 9321  27.344   9.321  26.170  0.3270 -0.3182  0.1994
  389BOLB   C2B 9322  27.220   8.918  26.005 -0.0738  0.1277 -0.1193
  389BOLB   C3B 9323  26.820   8.790  25.933  0.0962  0.1010 -0.1751
  389BOLB   C4B 9324  26.581   8.481  25.756  0.1087  0.3380 -0.0488
  389BOLB   NC2 9325  24.114   7.697  25.487 -0.1468 -0.1587 -0.1418
  389BOLB   PO2 9326  24.164   7.323  25.695 -0.1616  0.4843  0.2810
  389BOLB   GL3 9327  24.496   7.487  25.806 -0.1035 -0.2267 -0.3042
  389BOLB   GL4 9328  24.736   7.289  25.879  0.0991  0.0491  0.0363
  389BOLB   C1C 9329  24.831   7.867  25.837 -0.0320 -0.1202 -0.1287
  389BOLB   C2C 9330  25.054   8.365  25.922 -0.1849 -0.0802 -0.1241
  389BOLB   C3C 9331  25.167   8.767  25.831 -0.0190  0.0076 -0.0234
  389BOLB   C4C 9332  25.371   8.981  25.587  0.0072  0.0793  0.2771
  389BOLB   C1D 9333  24.935   7.507  25.505 -0.0292 -0.2260  0.1492
  389BOLB   C2D 9334  25.345   7.611  25.489 -0.0402 -0.2084 -0.2390
  389BOLB   C3D 9335  25.663   7.616  25.182 -0.0508  0.0138 -0.0396
  389BOLB   C4D 9336  25.970   7.709  24.985  0.1246 -0.1052  0.0873
  390BOLB   NC1 9337  24.053   0.874  28.553  0.1889 -0.0324 -0.0874
  390BOLB   PO1 9338  24.089   1.178  28.858  0.1544 -0.0894 -0.5198
  390BOLB   GL1 9339  24.133   0.922  29.032 -0.1401  0.0178 -0.1379
  390BOLB   GL2 9340  23.914   0.876  29.245 -0.2620 -0.1300  0.0786
  390BOLB   C1A 9341  24.502   0.685  28.973 -0.1855  0.2532  0.0269
  390BOLB   C2A 9342  24.898   0.681  29.244 -0.1423 -0.0592  0.2472
  390BOLB   C3A 9343  25.263   0.872  29.560 -0.3659 -0.0361  0.1353
  390BOLB   C4A 9344  25.435   0.923  29.997 -0.0681 -0.2437  0.1688
  390BOLB   C1B 9345  24.160   0.761  29.529  0.2168  0.0024 -0.2219
  390BOLB   C2B 9346  24.572   0.746  29.709 -0.2596 -0.1527 -0.3722
  390BOLB   C3B 9347  24.902   0.777  30.090  0.0842  0.2280  0.0558
  390BOLB   C4B 9348  25.191   0.527  30.351 -0.1600  0.0804  0.1111
  390BOLB   NC2 9349  25.986  -0.319  31.678  0.0828 -0.0174 -0.2770
  390BOLB   PO2 9350  26.409  -0.140  31.867 -0.1761 -0.0083  0.0450
  390BOLB   GL3 9351  26.126   0.191  31.754  0.0920  0.0715 -0.0623
  390BOLB   GL4 9352  25.799   0.133  31.765 -0.0175 -0.2510  0.2150
  390BOLB   C1C 9353  25.948   0.396  31.308  0.1852 -0.0919 -0.0155
  390BOLB   C2C 9354  25.655   0.778  31.346 -0.0633  0.2515  0.0453
  390BOLB   C3C 9355  25.686   1.112  30.943 -0.0135  0.1055  0.1796
  390BOLB   C4C 9356  25.495   1.013  30.528 -0.2533 -0.0640 -0.1839
  390BOLB   C1D 9357  25.720   0.578  31.792 -0.2078 -0.1618 -0.1339
  390BOLB   C2D 9358  25.772   1.054  31.806 -0.2911  0.4895 -0.3116
  390BOLB   C3D 9359  25.773   1.216  31.444 -0.2983  0.0235 -0.0822
  390BOLB   C4D 9360  25.718   1.576  31.154 -0.5023  0.0368  0.1930
  391BOLB   NC1 9361  23.766   6.321  29.317  0.4457 -0.0082  0.0231
  391BOLB   PO1 9362  23.575   6.611  29.527  0.1732  0.3292 -0.3394
  391BOLB   GL1 9363  23.777   6.699  29.955 -0.0589 -0.2892  0.1421
  391BOLB   GL2 9364  23.873   7.048  29.867 -0.2195 -0.1674  0.0654
  391BOLB   C1A 9365  24.079   6.627  30.291  0.0462 -0.1320  0.0703
  391BOLB   C2A 9366  24.226   6.645  30.691  0.0568  0.0788  0.0664
  391BOLB   C3A 9367  24.578   6.658  31.075 -0.1702 -0.1475  0.0380
  391BOLB   C4A 9368  24.901   6.919  31.348 -0.2122 -0.0329  0.4500
  391BOLB   C1B 9369  24.019   7.219  30.196 -0.1833  0.3734 -0.0387
  391BOLB   C2B 9370  24.286   7.457  30.377 -0.0865 -0.3020 -0.0025
  391BOLB   C3B 9371  24.362   7.841  30.466 -0.0118 -0.1471 -0.1922
  391BOLB   C4B 9372  24.463   8.225  30.350 -0.3299 -0.0400  0.1872
  391BOLB   NC2 9373  26.409   7.069  33.201  0.1811 -0.0574 -0.2160
  391BOLB   PO2 9374  26.570   6.796  32.901 -0.2079 -0.0727  0.2393
  391BOLB   GL3 9375  26.261   6.569  32.741 -0.0303  0.1049  0.3638
  391BOLB   GL4 9376  26.208   6.218  32.912  0.1359 -0.0261  0.2600
  391BOLB   C1C 9377  25.864   6.500  32.535  0.1264  0.2953  0.1049
  391BOLB   C2C 9378  25.692   6.586  32.135 -0.1576  0.2050  0.1680
  391BOLB   C3C 9379  25.570   6.858  31.722  0.1568  0.2431 -0.2127
  391BOLB   C4C 9380  25.162   6.970  31.677  0.0808  0.2109 -0.1368
  391BOLB   C1D 9381  26.294   6.244  32.395 -0.3035 -0.2322 -0.0508
  391BOLB   C2D 9382  26.529   6.195  31.989 -0.2571 -0.2347  0.1058
  391BOLB   C3D 9383  26.392   6.113  31.557 -0.4682 -0.0222  0.1804
  391BOLB   C4D 9384  26.371   5.879  31.229 -0.1592  0.1911  0.1914
  392BOLB   NC1 9385  19.960   0.915  31.792  0.0392 -0.1759  0.0884
  392BOLB   PO1 9386  19.820   1.157  32.116 -0.3435  0.0529 -0.1032
  392BOLB   GL1 9387  19.830   1.150  32.478  0.2232  0.0283  0.0923
  392BOLB   GL2 9388  19.753   0.830  32.556  0.0422 -0.1233 -0.0984
  392BOLB   C1A 9389  19.796   1.184  32.916 -0.0717  0.1089 -0.0417
  392BOLB   C2A 9390  19.671   1.039  33.315  0.1505 -0.0964 -0.1135
  392BOLB   C3A 9391  19.914   0.948  33.754  0.3125 -0.1218  0.0620
  392BOLB   C4A 9392  19.939   0.686  34.035 -0.4668  0.1392  0.5045
  392BOLB   C1B 9393  19.888   0.677  32.963  0.0672 -0.2466 -0.0415
  392BOLB   C2B 9394  19.737   0.509  33.397  0.1212 -0.0434 -0.0363
  392BOLB   C3B 9395  19.562   0.357  33.789  0.3624 -0.2623 -0.0498
  392BOLB   C4B 9396  19.103   0.338  34.021  0.1593  0.2651  0.2957
  392BOLB   NC2 9397  20.630   0.544  36.355  0.0866  0.0184 -0.1083
  392BOLB   PO2 9398  20.858   0.191  36.202  0.0740 -0.1047  0.2951
  392BOLB   GL3 9399  20.926   0.158  35.765 -0.0320 -0.0532 -0.0643
  392BOLB   GL4 9400  21.229   0.507  35.611  0.0015 -0.1179  0.1006
  392BOLB   C1C 9401  20.707   0.246  35.413 -0.1565 -0.1970  0.2996
  392BOLB   C2C 9402  20.554   0.327  34.997  0.2367 -0.0702 -0.2277
  392BOLB   C3C 9403  20.371   0.461  34.759  0.2566  0.0285  0.1374
  392BOLB   C4C 9404  20.092   0.500  34.385  0.0562 -0.2149 -0.2111
  392BOLB   C1D 9405  20.985   0.708  35.196 -0.1390  0.1432  0.0404
  392BOLB   C2D 9406  20.740   0.933  34.899 -0.0701 -0.3524  0.2599
  392BOLB   C3D 9407  20.355   0.963  34.665  0.2674  0.0699  0.1202
  392BOLB   C4D 9408  20.068   1.094  34.244  0.0474 -0.0757  0.0364
  393BOLB   NC1 9409  24.789   2.705  23.833  0.0754  0.0095 -0.1151
  393BOLB   PO1 9410  24.770   2.458  24.265  0.2572  0.2376 -0.1752
  393BOLB   GL1 9411  25.158   2.406  24.090 -0.5553  0.2905 -0.0779
  393BOLB   GL2 9412  25.048   2.259  23.817  0.0317 -0.0119  0.1663
  393BOLB   C1A 9413  25.622   2.297  24.127 -0.0339 -0.1093 -0.1278
  393BOLB   C2A 9414  26.002   2.080  23.869 -0.0031  0.1068 -0.1509
  393BOLB   C3A 9415  26.502   1.981  23.854  0.0077 -0.1321 -0.2029
  393BOLB   C4A 9416  26.769   1.941  24.204 -0.0557  0.3104 -0.1201
  393BOLB   C1B 9417  25.387   2.049  23.680 -0.0442  0.1273 -0.0213
  393BOLB   C2B 9418  25.670   1.726  23.627  0.0399 -0.2713 -0.0016
  393BOLB   C3B 9419  25.626   1.339  23.580 -0.1102 -0.2257  0.1114
  393BOLB   C4B 9420  25.877   0.992  23.411  0.1039  0.1572  0.0112
  393BOLB   NC2 9421  28.510   3.156  24.833 -0.2360 -0.0121  0.0384
  393BOLB   PO2 9422  28.695   3.121  24.481 -0.1734  0.3067  0.2152
  393BOLB   GL3 9423  28.348   2.901  24.399  0.1446 -0.0731 -0.1637
  393BOLB   GL4 9424  28.121   3.251  24.491  0.0295  0.0666 -0.2589
  393BOLB   C1C 9425  28.150   2.518  24.315 -0.1282  0.1086 -0.0783
  393BOLB   C2C 9426  27.741   2.444  24.234  0.2257  0.0679  0.3508
  393BOLB   C3C 9427  27.379   2.186  24.184 -0.2195  0.0258  0.0266
  393BOLB   C4C 9428  27.060   2.034  24.262  0.0048  0.2171 -0.0835
  393BOLB   C1D 9429  27.729   3.224  24.675  0.4286  0.1866  0.3346
  393BOLB   C2D 9430  27.326   3.177  24.841 -0.1288 -0.0352 -0.1437
  393BOLB   C3D 9431  26.873   3.237  24.723 -0.1102 -0.2677 -0.1431
  393BOLB   C4D 9432  26.433   3.175  24.813 -0.0237  0.0755 -0.0998
  394BOLB   NC1 9433  17.346  10.051  20.866 -0.0533  0.3338  0.2609
  394BOLB   PO1 9434  17.590  10.420  20.616  0.0388  0.1213 -0.0248
  394BOLB   GL1 9435  17.654  10.765  20.327 -0.3872  0.4552 -0.1816
  394BOLB   GL2 9436  17.957  10.864  20.593 -0.0777  0.0665 -0.3398
  394BOLB   C1A 9437  17.685  11.151  20.061  0.0445 -0.2195 -0.5482
  394BOLB   C2A 9438  17.756  11.580  20.022  0.0052 -0.0318  0.1373
  394BOLB   C3A 9439  17.629  12.065  20.007 -0.3222 -0.0158 -0.0165
  394BOLB   C4A 9440  17.248  12.236  20.022 -0.2203 -0.3922 -0.2392
  394BOLB   C1B 9441  17.950  11.408  20.485 -0.1831 -0.1499  0.0570
  394BOLB   C2B 9442  17.772  11.888  20.474  0.3468  0.0596  0.2543
  394BOLB   C3B 9443  17.690  12.353  20.590  0.2753  0.0307  0.1371
  394BOLB   C4B 9444  17.960  12.660  20.685 -0.0358  0.0210 -0.3715
  394BOLB   NC2 9445  16.834  14.921  20.252  0.0202  0.2041 -0.0458
  394BOLB   PO2 9446  16.995  14.646  19.959 -0.2886 -0.2478 -0.0463
  394BOLB   GL3 9447  16.885  14.302  20.167 -0.2853  0.1114  0.1425
  394BOLB   GL4 9448  16.712  14.394  20.488 -0.3391  0.2182  0.1633
  394BOLB   C1C 9449  16.934  13.851  20.329  0.0826  0.2949  0.3311
  394BOLB   C2C 9450  16.878  13.342  20.184 -0.2223 -0.4167  0.2365
  394BOLB   C3C 9451  16.881  12.898  20.308 -0.3547 -0.1365 -0.1812
  394BOLB   C4C 9452  16.995  12.584  20.090 -0.0170  0.4451  0.1867
  394BOLB   C1D 9453  16.772  14.078  20.799  0.0281 -0.0846  0.5306
  394BOLB   C2D 9454  16.999  13.609  20.998 -0.1438  0.4405 -0.2859
  394BOLB   C3D 9455  17.059  13.337  21.351 -0.2220 -0.0070 -0.0257
  394BOLB   C4D 9456  17.320  13.139  21.705  0.0059 -0.2496 -0.1608
  395BOLB   NC1 9457  19.085  -3.710  23.833 -0.1711  0.0774 -0.0164
  395BOLB   PO1 9458  19.092  -3.837  24.316  0.0423 -0.1781 -0.2673
  395BOLB   GL1 9459  19.177  -4.231  24.436  0.2939 -0.0822 -0.2289
  395BOLB   GL2 9460  19.523  -4.329  24.507 -0.2180 -0.0816  0.0520
  395BOLB   C1A 9461  19.161  -4.693  24.593 -0.1137 -0.0355 -0.1236
  395BOLB   C2A 9462  18.857  -5.009  24.622  0.1446 -0.2306 -0.2803
  395BOLB   C3A 9463  18.867  -5.252  24.888  0.0302 -0.2931 -0.1246
  395BOLB   C4A 9464  19.151  -5.423  25.223 -0.1412 -0.1170  0.0673
  395BOLB   C1B 9465  19.746  -4.580  24.190 -0.1951 -0.0659  0.3461
  395BOLB   C2B 9466  20.116  -4.772  23.896  0.0932  0.0212  0.0237
  395BOLB   C3B 9467  20.395  -5.017  23.803 -0.0301  0.0656  0.0964
  395BOLB   C4B 9468  20.749  -5.210  23.791  0.1144  0.3245  0.1870
  395BOLB   NC2 9469  21.220  -7.064  26.009 -0.3656 -0.0330  0.0311
  395BOLB   PO2 9470  20.783  -7.320  25.791 -0.2430 -0.0796 -0.0976
  395BOLB   GL3 9471  20.417  -7.136  25.500 -0.0655  0.3762 -0.4877
  395BOLB   GL4 9472  20.383  -7.284  25.219  0.2336  0.1559 -0.1799
  395BOLB   C1C 9473  20.147  -6.781  25.323  0.0159  0.4455  0.0541
  395BOLB   C2C 9474  19.947  -6.414  25.288  0.0297  0.0216  0.0301
  395BOLB   C3C 9475  19.623  -6.071  25.360 -0.3258  0.0807 -0.1105
  395BOLB   C4C 9476  19.480  -5.715  25.193 -0.3780  0.3198  0.2503
  395BOLB   C1D 9477  20.348  -6.908  24.832 -0.0815  0.0898  0.0283
  395BOLB   C2D 9478  20.559  -6.476  25.112  0.1861 -0.0753  0.0736
  395BOLB   C3D 9479  20.512  -6.044  25.078 -0.4229  0.0772 -0.0501
  395BOLB   C4D 9480  20.304  -5.708  24.974 -0.1294  0.1392 -0.2351
  396BOLB   NC1 9481   8.541   4.235  20.438 -0.1417  0.0062 -0.1197
  396BOLB   PO1 9482   8.915   4.533  20.328  0.0292 -0.2786  0.2139
  396BOLB   GL1 9483   8.748   4.621  19.940 -0.2102 -0.2392  0.0657
  396BOLB   GL2 9484   8.513   4.363  19.959 -0.1802 -0.0462 -0.4725
  396BOLB   C1A 9485   8.616   4.767  19.583 -0.4095  0.0633  0.1428
  396BOLB   C2A 9486   8.537   4.831  19.175 -0.0354  0.1305  0.1300
  396BOLB   C3A 9487   8.434   5.120  18.865  0.0430 -0.2366 -0.2186
  396BOLB   C4A 9488   8.097   5.297  18.551  0.0441 -0.0061 -0.1265
  396BOLB   C1B 9489   8.459   4.253  19.497  0.3146 -0.0674 -0.0020
  396BOLB   C2B 9490   8.131   4.355  19.216 -0.1378  0.1061 -0.1937
  396BOLB   C3B 9491   7.824   4.101  19.267  0.2657  0.0920 -0.2032
  396BOLB   C4B 9492   7.420   3.995  19.044 -0.1306  0.0609  0.1877
  396BOLB   NC2 9493   7.391   5.877  16.312  0.2169  0.3847  0.1462
  396BOLB   PO2 9494   7.401   6.269  16.478  0.0304  0.1072 -0.3508
  396BOLB   GL3 9495   7.756   6.263  16.838 -0.1002 -0.0364  0.1136
  396BOLB   GL4 9496   7.845   6.528  16.770  0.3082 -0.1352  0.1856
  396BOLB   C1C 9497   7.880   5.964  17.213  0.2423 -0.0129 -0.1842
  396BOLB   C2C 9498   7.692   5.725  17.492 -0.0609 -0.0212  0.0543
  396BOLB   C3C 9499   7.682   5.538  17.892 -0.1434 -0.4532  0.2055
  396BOLB   C4C 9500   7.745   5.294  18.296  0.0242 -0.1072  0.1061
  396BOLB   C1D 9501   8.230   6.462  17.095 -0.2215  0.2027  0.1426
  396BOLB   C2D 9502   8.391   6.684  17.480 -0.1697  0.3976 -0.1547
  396BOLB   C3D 9503   8.442   7.081  17.347 -0.2379  0.4823  0.0625
  396BOLB   C4D 9504   8.647   7.259  16.896  0.1199  0.0003 -0.3603
  397BOLB   NC1 9505  16.180  11.707  22.372  0.0412  0.1272  0.4296
  397BOLB   PO1 9506  15.936  11.373  22.021 -0.1331 -0.0076 -0.4694
  397BOLB   GL1 9507  15.994  11.663  21.745 -0.0712 -0.0578 -0.0947
  397BOLB   GL2 9508  15.647  11.726  21.584  0.1690  0.0206 -0.3211
  397BOLB   C1A 9509  16.188  11.878  21.444 -0.1568 -0.4645 -0.0537
  397BOLB   C2A 9510  16.522  12.136  21.167 -0.1786 -0.1118 -0.2347
  397BOLB   C3A 9511  16.279  12.313  20.772 -0.1720  0.1847  0.3180
  397BOLB   C4A 9512  16.111  12.520  20.499  0.0079 -0.2690 -0.1038
  397BOLB   C1B 9513  15.772  11.982  21.152 -0.1960  0.1338 -0.2077
  397BOLB   C2B 9514  15.899  12.421  21.053 -0.0057 -0.2916  0.0741
  397BOLB   C3B 9515  15.753  12.798  20.762  0.0099  0.2319 -0.0462
  397BOLB   C4B 9516  15.587  13.194  20.573  0.0028 -0.1622 -0.0475
  397BOLB   NC2 9517  15.667  14.609  19.029 -0.2588  0.3223 -0.2549
  397BOLB   PO2 9518  15.926  14.649  19.421  0.0723  0.1874  0.0021
  397BOLB   GL3 9519  16.004  14.275  19.226  0.0811  0.0802  0.0074
  397BOLB   GL4 9520  15.707  14.061  19.049  0.1852  0.2397  0.2517
  397BOLB   C1C 9521  16.145  13.791  19.314  0.1500  0.0843 -0.1264
  397BOLB   C2C 9522  16.064  13.493  19.625 -0.0128 -0.2890  0.2072
  397BOLB   C3C 9523  15.854  13.289  20.106  0.0870  0.2099  0.0473
  397BOLB   C4C 9524  15.958  12.897  20.243  0.1594 -0.1443 -0.0035
  397BOLB   C1D 9525  15.623  13.649  19.203  0.0684  0.0646  0.1222
  397BOLB   C2D 9526  15.948  13.353  19.120  0.1201 -0.0767  0.0255
  397BOLB   C3D 9527  16.139  13.035  19.347 -0.0449 -0.1386  0.0692
  397BOLB   C4D 9528  16.364  13.104  19.689 -0.1562 -0.2842  0.0113
  398BOLB   NC1 9529   8.329   3.604  20.915  0.3939  0.0806 -0.1190
  398BOLB   PO1 9530   7.913   3.523  20.680 -0.0946 -0.1888  0.0433
  398BOLB   GL1 9531   7.630   3.846  20.509 -0.0602  0.0986 -0.2500
  398BOLB   GL2 9532   7.417   3.634  20.515 -0.0326 -0.1876  0.0941
  398BOLB   C1A 9533   7.332   4.165  20.364 -0.4202  0.2243  0.2323
  398BOLB   C2A 9534   7.046   4.196  20.151  0.1321  0.1324 -0.1874
  398BOLB   C3A 9535   6.668   4.176  20.096 -0.1036  0.2352 -0.2496
  398BOLB   C4A 9536   6.267   4.119  19.824  0.0538 -0.0273 -0.0856
  398BOLB   C1B 9537   7.093   3.717  20.421 -0.1281  0.1032  0.1191
  398BOLB   C2B 9538   6.634   3.704  20.491  0.1893 -0.0980  0.0218
  398BOLB   C3B 9539   6.218   3.796  20.432 -0.1426  0.2157  0.0593
  398BOLB   C4B 9540   6.129   4.252  20.314 -0.1299 -0.0551 -0.1440
  398BOLB   NC2 9541   4.668   4.779  18.994  0.0061 -0.3630 -0.0037
  398BOLB   PO2 9542   4.351   4.475  19.022 -0.0261 -0.0672  0.1665
  398BOLB   GL3 9543   4.752   4.508  19.452 -0.0234  0.0739  0.4128
  398BOLB   GL4 9544   5.000   4.747  19.369 -0.1247  0.2721  0.1012
  398BOLB   C1C 9545   5.176   4.256  19.493 -0.0327 -0.0678  0.1395
  398BOLB   C2C 9546   5.342   3.864  19.630 -0.0265  0.0110 -0.0327
  398BOLB   C3C 9547   5.496   3.708  19.934  0.1932 -0.0180 -0.0821
  398BOLB   C4C 9548   5.997   3.789  19.832 -0.2063 -0.0862 -0.0471
  398BOLB   C1D 9549   5.201   5.071  19.263 -0.0920  0.0494 -0.4762
  398BOLB   C2D 9550   5.594   5.091  19.138  0.0605 -0.1648 -0.2515
  398BOLB   C3D 9551   5.907   5.377  19.110 -0.2101  0.3968 -0.1400
  398BOLB   C4D 9552   6.227   5.424  18.762 -0.3854  0.1570 -0.2345
  399BOLB   NC1 9553  11.808  11.201  24.202 -0.2443 -0.2236  0.1783
  399BOLB   PO1 9554  11.640  11.551  23.953  0.0478  0.1097 -0.0078
  399BOLB   GL1 9555  11.412  11.850  23.980 -0.5610  0.0610 -0.0535
  399BOLB   GL2 9556  11.558  12.074  24.149  0.1445 -0.0844 -0.0509
  399BOLB   C1A 9557  11.075  12.082  23.803  0.1537 -0.0156 -0.0846
  399BOLB   C2A 9558  10.898  12.493  23.692 -0.0260 -0.1060 -0.3670
  399BOLB   C3A 9559  10.758  12.845  23.603  0.0636  0.0149 -0.1332
  399BOLB   C4A 9560  10.447  13.011  23.326 -0.0268  0.1144 -0.2503
  399BOLB   C1B 9561  11.282  12.466  24.222 -0.1197  0.0334 -0.1178
  399BOLB   C2B 9562  11.265  12.750  23.914 -0.0840 -0.0045  0.0394
  399BOLB   C3B 9563  11.251  13.202  23.973  0.1609 -0.0368 -0.0665
  399BOLB   C4B 9564  11.088  13.618  23.853 -0.0382 -0.0400  0.0108
  399BOLB   NC2 9565   8.987  15.076  22.465 -0.1383  0.1959  0.0452
  399BOLB   PO2 9566   9.196  14.653  22.564  0.0421 -0.0575 -0.3758
  399BOLB   GL3 9567   9.254  14.202  22.789 -0.1032  0.2767 -0.0430
  399BOLB   GL4 9568   9.255  13.937  22.579  0.2083 -0.2423  0.1209
  399BOLB   C1C 9569   9.434  13.812  23.035 -0.0773  0.0874 -0.0285
  399BOLB   C2C 9570   9.486  13.516  23.373 -0.3378 -0.2444 -0.3334
  399BOLB   C3C 9571   9.764  13.212  23.482  0.2606 -0.1443 -0.1195
  399BOLB   C4C 9572  10.063  13.029  23.248  0.1371 -0.1805  0.1855
  399BOLB   C1D 9573   9.106  13.583  22.710 -0.0748 -0.1821 -0.1016
  399BOLB   C2D 9574   8.682  13.352  22.766  0.0498 -0.0499  0.1079
  399BOLB   C3D 9575   8.499  13.011  22.981 -0.1542 -0.3184 -0.0909
  399BOLB   C4D 9576   8.382  12.618  22.888  0.0067 -0.2739 -0.0161
  400BOLB   NC1 9577  10.684  -3.054  22.003  0.1351 -0.0467  0.1395
  400BOLB   PO1 9578  10.935  -2.922  21.700 -0.1648  0.0152  0.3397
  400BOLB   GL1 9579  10.638  -3.298  21.544 -0.3083 -0.0269 -0.0536
  400BOLB   GL2 9580  10.842  -3.582  21.719 -0.2029  0.0980  0.0541
  400BOLB   C1A 9581  10.356  -3.567  21.495 -0.1313  0.3726 -0.0652
  400BOLB   C2A 9582  10.155  -3.914  21.444 -0.3791  0.2087 -0.1672
  400BOLB   C3A 9583  10.169  -4.304  21.131  0.3093  0.1818 -0.2452
  400BOLB   C4A 9584  10.067  -4.543  20.863 -0.1309  0.2646  0.2906
  400BOLB   C1B 9585  10.813  -3.672  21.233 -0.1060  0.1141  0.2391
  400BOLB   C2B 9586  10.754  -4.092  21.099  0.1087 -0.2589  0.1748
  400BOLB   C3B 9587  10.583  -4.359  20.875  0.0624  0.2542 -0.1186
  400BOLB   C4B 9588  10.266  -4.220  20.549 -0.1328  0.1921  0.0680
  400BOLB   NC2 9589   8.365  -6.342  20.459 -0.4338  0.2821 -0.0095
  400BOLB   PO2 9590   8.636  -6.005  20.248 -0.0714  0.1993  0.2411
  400BOLB   GL3 9591   8.854  -5.708  20.246 -0.0572  0.1350 -0.1014
  400BOLB   GL4 9592   8.733  -5.582  20.433 -0.2734  0.0467 -0.2248
  400BOLB   C1C 9593   8.949  -5.205  20.294  0.1314  0.0351 -0.0344
  400BOLB   C2C 9594   9.265  -5.122  20.416  0.2573 -0.0112 -0.0176
  400BOLB   C3C 9595   9.516  -4.763  20.367 -0.1675  0.2346 -0.1176
  400BOLB   C4C 9596   9.894  -4.575  20.441 -0.0480 -0.1078  0.2334
  400BOLB   C1D 9597   9.138  -5.584  20.695  0.1510 -0.4302  0.2683
  400BOLB   C2D 9598   9.528  -5.284  20.792  0.2007 -0.0535 -0.0527
  400BOLB   C3D 9599   9.634  -4.968  21.093  0.0855 -0.0942 -0.0548
  400BOLB   C4D 9600   9.855  -4.651  21.301 -0.0297  0.2153 -0.2193
  401BOLB   NC1 9601   9.329  -1.852  22.552 -0.0312 -0.1294 -0.2336
  401BOLB   PO1 9602   9.282  -1.662  23.003 -0.1500  0.0174  0.2077
  401BOLB   GL1 9603   8.950  -2.011  22.806 -0.0314  0.2348  0.1770
  401BOLB   GL2 9604   8.844  -2.067  22.461 -0.0391  0.2260  0.0083
  401BOLB   C1A 9605   8.804  -2.343  22.980  0.0611  0.0929  0.3507
  401BOLB   C2A 9606   8.653  -2.824  22.988 -0.4004  0.0373 -0.0838
  401BOLB   C3A 9607   8.376  -3.010  23.014 -0.2173  0.0045  0.0059
  401BOLB   C4A 9608   7.868  -3.032  23.050  0.0335  0.0282  0.0301
  401BOLB   C1B 9609   8.708  -2.528  22.460  0.0329 -0.1821  0.0515
  401BOLB   C2B 9610   8.460  -2.857  22.495 -0.3751 -0.3214  0.0730
  401BOLB   C3B 9611   8.061  -2.830  22.592 -0.1147  0.0796 -0.0554
  401BOLB   C4B 9612   7.741  -2.455  22.586  0.0634  0.1023 -0.0255
  401BOLB   NC2 9613   6.189  -4.951  22.341  0.3374 -0.0618 -0.2955
  401BOLB   PO2 9614   6.028  -4.700  22.620  0.2659 -0.0681 -0.0600
  401BOLB   GL3 9615   6.389  -4.434  22.423  0.0044  0.0773  0.1403
  401BOLB   GL4 9616   6.784  -4.542  22.350 -0.2779  0.0817 -0.2297
  401BOLB   C1C 9617   6.751  -4.101  22.598 -0.0906 -0.1226 -0.0051
  401BOLB   C2C 9618   6.919  -3.734  22.626 -0.0198 -0.2750  0.3444
  401BOLB   C3C 9619   7.333  -3.501  22.817 -0.3110  0.0755  0.1194
  401BOLB   C4C 9620   7.439  -3.281  23.113 -0.4119 -0.3595 -0.2278
  401BOLB   C1D 9621   7.164  -4.414  22.211  0.0327 -0.1456  0.2579
  401BOLB   C2D 9622   7.293  -3.926  22.121  0.0365 -0.1254 -0.1864
  401BOLB   C3D 9623   7.362  -3.557  22.306  0.1774  0.0514  0.0111
  401BOLB   C4D 9624   7.732  -3.297  22.625 -0.0362  0.1463  0.1356
  402BOLB   NC1 9625   9.616  -2.142  26.041  0.0913 -0.2970 -0.0045
  402BOLB   PO1 9626   9.401  -2.321  26.380  0.0803  0.0262 -0.2735
  402BOLB   GL1 9627   9.047  -2.496  26.334 -0.2126 -0.0599 -0.1998
  402BOLB   GL2 9628   8.847  -2.261  26.355  0.3500  0.1191  0.1238
  402BOLB   C1A 9629   8.782  -2.857  26.369 -0.0223 -0.1661  0.2126
  402BOLB   C2A 9630   8.543  -3.092  26.299  0.0204 -0.0286  0.1687
  402BOLB   C3A 9631   8.531  -3.503  26.207  0.1295  0.4065 -0.0580
  402BOLB   C4A 9632   8.116  -3.650  26.080 -0.1084 -0.0639  0.0921
  402BOLB   C1B 9633   8.785  -2.476  26.723 -0.4085 -0.1496  0.2786
  402BOLB   C2B 9634   8.762  -2.897  26.866  0.1230 -0.0755  0.0234
  402BOLB   C3B 9635   8.805  -3.332  26.757  0.1044 -0.0347  0.0056
  402BOLB   C4B 9636   8.625  -3.733  26.876 -0.1125  0.3008 -0.1783
  402BOLB   NC2 9637   7.708  -5.660  26.362 -0.1965  0.3007  0.0055
  402BOLB   PO2 9638   7.901  -5.854  26.620  0.2018 -0.1540 -0.0816
  402BOLB   GL3 9639   8.149  -5.491  26.589 -0.3995 -0.0786  0.0218
  402BOLB   GL4 9640   8.397  -5.550  26.747  0.1017 -0.0028  0.0726
  402BOLB   C1C 9641   8.343  -5.266  26.323  0.1924 -0.1532 -0.2144
  402BOLB   C2C 9642   8.252  -4.906  26.105  0.4439 -0.1045  0.1590
  402BOLB   C3C 9643   7.996  -4.539  25.877  0.3253 -0.1177 -0.1571
  402BOLB   C4C 9644   7.971  -4.040  25.948 -0.4528  0.1599 -0.0943
  402BOLB   C1D 9645   8.255  -5.164  26.954 -0.1162  0.3091  0.1922
  402BOLB   C2D 9646   8.586  -4.778  26.998 -0.1097  0.0604 -0.0554
  402BOLB   C3D 9647   9.017  -4.589  27.017  0.2619  0.0227 -0.2402
  402BOLB   C4D 9648   9.358  -4.409  27.072  0.2518 -0.1825 -0.0483
  403BOLB   NC1 9649  13.660   0.496  16.756  0.3145  0.0694  0.0918
  403BOLB   PO1 9650  13.268   0.312  16.822 -0.1426  0.0426 -0.3388
  403BOLB   GL1 9651  12.934   0.248  16.534  0.3226  0.2260 -0.0006
  403BOLB   GL2 9652  12.598   0.118  16.704  0.1917 -0.1628  0.0898
  403BOLB   C1A 9653  12.714   0.060  16.205 -0.0335 -0.2384  0.4265
  403BOLB   C2A 9654  12.485   0.208  15.943  0.1758  0.0412 -0.2442
  403BOLB   C3A 9655  12.022   0.105  15.902  0.1403 -0.2697  0.0199
  403BOLB   C4A 9656  11.726  -0.073  15.854 -0.0849  0.0773  0.2465
  403BOLB   C1B 9657  12.229   0.117  16.498  0.4123  0.1982 -0.2797
  403BOLB   C2B 9658  11.833   0.016  16.340  0.0220 -0.1036  0.1004
  403BOLB   C3B 9659  11.436   0.086  16.431  0.0171  0.1523 -0.0310
  403BOLB   C4B 9660  10.928   0.094  16.168  0.0021 -0.0929  0.0767
  403BOLB   NC2 9661   9.844  -1.124  13.855 -0.1720  0.4052 -0.0398
  403BOLB   PO2 9662  10.165  -1.371  14.107 -0.3457 -0.1001  0.2698
  403BOLB   GL3 9663  10.351  -1.118  14.417  0.0345 -0.1046  0.2251
  403BOLB   GL4 9664  10.577  -1.312  14.402 -0.4083  0.2818  0.2852
  403BOLB   C1C 9665  10.702  -0.881  14.644 -0.0559 -0.2387  0.1203
  403BOLB   C2C 9666  10.991  -0.735  14.961  0.2081 -0.2306 -0.0533
  403BOLB   C3C 9667  11.253  -0.448  15.236 -0.1332  0.2826 -0.2122
  403BOLB   C4C 9668  11.572  -0.354  15.550 -0.1471 -0.4087  0.3646
  403BOLB   C1D 9669  10.909  -1.362  14.616  0.3149 -0.0300 -0.0827
  403BOLB   C2D 9670  11.237  -1.146  14.853 -0.0909 -0.1332 -0.1982
  403BOLB   C3D 9671  11.442  -0.871  15.128  0.0438  0.0449  0.0143
  403BOLB   C4D 9672  11.789  -0.926  15.346  0.3025  0.1138 -0.1832
  404BOLB   NC1 9673  13.800   9.680  31.472  0.1222 -0.0043 -0.0639
  404BOLB   PO1 9674  13.827   9.374  31.824  0.3080  0.2356  0.2466
  404BOLB   GL1 9675  13.638   9.500  32.267  0.0966 -0.0964  0.4502
  404BOLB   GL2 9676  13.607   9.842  32.348  0.2461 -0.1056 -0.0028
  404BOLB   C1A 9677  13.373   9.536  32.671  0.2901 -0.5004 -0.3182
  404BOLB   C2A 9678  13.427   9.700  32.989  0.0593  0.0472 -0.3399
  404BOLB   C3A 9679  13.286   9.932  33.342  0.2206  0.2234  0.1605
  404BOLB   C4A 9680  13.347   9.985  33.775  0.0914 -0.3902  0.1138
  404BOLB   C1B 9681  13.816  10.017  32.701  0.1022  0.0875  0.0876
  404BOLB   C2B 9682  13.734  10.155  33.083 -0.1646  0.0394 -0.1076
  404BOLB   C3B 9683  13.530  10.389  33.253  0.2155  0.1418 -0.2414
  404BOLB   C4B 9684  13.222  10.481  33.565  0.2091  0.0178  0.1487
  404BOLB   NC2 9685  13.095  11.056  35.560 -0.3848 -0.0095  0.3073
  404BOLB   PO2 9686  12.760  10.890  35.800  0.1216 -0.1241 -0.0415
  404BOLB   GL3 9687  12.859  10.680  35.376  0.0153 -0.1877  0.1413
  404BOLB   GL4 9688  12.671  10.876  35.295 -0.0027 -0.1548 -0.2342
  404BOLB   C1C 9689  13.045  10.722  35.042 -0.0231  0.1471  0.2104
  404BOLB   C2C 9690  13.304  10.670  34.805 -0.3394 -0.1188  0.2802
  404BOLB   C3C 9691  13.379  10.373  34.449 -0.1500 -0.0207  0.0608
  404BOLB   C4C 9692  13.495  10.189  34.017 -0.0551  0.1694  0.3794
  404BOLB   C1D 9693  12.542  10.418  35.036  0.1131 -0.2006  0.0053
  404BOLB   C2D 9694  12.533  10.133  34.741 -0.2314  0.0416  0.2480
  404BOLB   C3D 9695  12.801  10.053  34.410 -0.0434  0.0397  0.1829
  404BOLB   C4D 9696  12.962  10.300  34.064  0.0748 -0.2109 -0.0367
  405BOLB   NC1 9697  14.921   1.755  33.057  0.1126 -0.1255 -0.1010
  405BOLB   PO1 9698  15.050   2.053  33.217  0.1938 -0.1950 -0.1604
  405BOLB   GL1 9699  15.108   1.955  33.571 -0.3061 -0.1437 -0.3402
  405BOLB   GL2 9700  15.001   1.673  33.701 -0.0766 -0.0182 -0.2200
  405BOLB   C1A 9701  15.251   1.939  34.093 -0.1668 -0.0569 -0.0095
  405BOLB   C2A 9702  15.149   1.620  34.366  0.1858 -0.3100 -0.1911
  405BOLB   C3A 9703  15.345   1.292  34.625  0.0815 -0.0304  0.0603
  405BOLB   C4A 9704  15.333   0.892  34.992 -0.1349 -0.2698 -0.1359
  405BOLB   C1B 9705  14.934   1.393  33.913  0.1857  0.0127 -0.2997
  405BOLB   C2B 9706  14.932   1.154  34.289  0.2150  0.1489  0.2085
  405BOLB   C3B 9707  14.988   0.746  34.350  0.0363 -0.0244 -0.1116
  405BOLB   C4B 9708  15.339   0.563  34.378  0.0352 -0.1005  0.0371
  405BOLB   NC2 9709  14.318   0.373  37.196 -0.0127 -0.1752 -0.1351
  405BOLB   PO2 9710  14.386   0.797  37.406 -0.2246 -0.0053 -0.2110
  405BOLB   GL3 9711  14.604   0.852  36.991  0.1632  0.1705 -0.2820
  405BOLB   GL4 9712  14.678   1.206  36.888  0.1264  0.1752 -0.4200
  405BOLB   C1C 9713  14.669   0.961  36.471 -0.1771 -0.2710 -0.0054
  405BOLB   C2C 9714  14.841   0.840  36.102 -0.2460  0.2278 -0.1256
  405BOLB   C3C 9715  14.927   0.591  35.652  0.2128 -0.2018  0.1654
  405BOLB   C4C 9716  15.144   0.562  35.218 -0.2244 -0.1778 -0.3367
  405BOLB   C1D 9717  14.810   1.487  36.606 -0.0608  0.1819  0.1007
  405BOLB   C2D 9718  15.259   1.606  36.587  0.1865 -0.0388 -0.1474
  405BOLB   C3D 9719  15.341   2.022  36.708  0.1388  0.1080 -0.1269
  405BOLB   C4D 9720  15.467   2.457  36.810  0.0254 -0.1023  0.0436
  406BOLB   NC1 9721  10.644  -1.498  29.129  0.0590  0.0370 -0.0167
  406BOLB   PO1 9722  10.329  -1.322  28.769 -0.0732  0.0088 -0.1837
  406BOLB   GL1 9723  10.084  -1.666  28.938  0.1649 -0.1194  0.3383
  406BOLB   GL2 9724  10.210  -1.951  29.024  0.2816  0.1639  0.2743
  406BOLB   C1A 9725   9.814  -1.943  29.294  0.1133 -0.3181 -0.0537
  406BOLB   C2A 9726   9.550  -2.168  29.351 -0.4262  0.0426  0.0664
  406BOLB   C3A 9727   9.263  -2.561  29.400 -0.2413  0.0424 -0.2724
  406BOLB   C4A 9728   8.969  -2.808  29.665  0.0605 -0.1147  0.2063
  406BOLB   C1B 9729  10.098  -2.349  29.158  0.0631  0.0620  0.0012
  406BOLB   C2B 9730  10.224  -2.725  29.316 -0.2713 -0.0750 -0.0553
  406BOLB   C3B 9731  10.212  -2.981  29.736  0.2364  0.2029  0.1107
  406BOLB   C4B 9732  10.443  -3.385  29.850  0.0900 -0.1288 -0.0559
  406BOLB   NC2 9733   7.158  -2.876  31.203 -0.2319  0.0142  0.0508
  406BOLB   PO2 9734   6.849  -2.864  30.978 -0.0944  0.2415 -0.2089
  406BOLB   GL3 9735   7.143  -2.750  30.680 -0.1495  0.0028  0.1749
  406BOLB   GL4 9736   7.020  -2.682  30.439  0.1956 -0.1708  0.2460
  406BOLB   C1C 9737   7.657  -2.611  30.570  0.0808 -0.3113  0.3564
  406BOLB   C2C 9738   8.106  -2.489  30.511  0.1713  0.0053 -0.1848
  406BOLB   C3C 9739   8.366  -2.799  30.359 -0.1507 -0.0472 -0.0914
  406BOLB   C4C 9740   8.790  -2.964  30.047 -0.0309  0.0525 -0.1612
  406BOLB   C1D 9741   7.376  -2.607  30.144 -0.0475  0.0973  0.0770
  406BOLB   C2D 9742   7.930  -2.681  30.065  0.2603 -0.0068  0.2218
  406BOLB   C3D 9743   8.316  -2.833  29.855  0.0545  0.0178  0.1279
  406BOLB   C4D 9744   8.527  -2.585  29.623 -0.3597  0.0715  0.1717
  407BOLB   NC1 9745   8.011   0.829  20.468  0.1474  0.0373  0.0236
  407BOLB   PO1 9746   8.112   1.206  20.335 -0.1445  0.1133 -0.1308
  407BOLB   GL1 9747   7.774   1.293  20.192 -0.0593  0.1915 -0.1294
  407BOLB   GL2 9748   7.468   1.213  20.382  0.0430  0.0726 -0.1998
  407BOLB   C1A 9749   7.506   1.322  19.829  0.1444 -0.2490 -0.0308
  407BOLB   C2A 9750   7.149   1.446  19.711  0.1530  0.2250  0.0758
  407BOLB   C3A 9751   6.718   1.259  19.733  0.0061 -0.1514 -0.1590
  407BOLB   C4A 9752   6.345   1.418  19.538 -0.0038 -0.0448  0.3404
  407BOLB   C1B 9753   7.113   1.096  20.183 -0.2744 -0.2834  0.0571
  407BOLB   C2B 9754   6.837   0.868  20.051 -0.0923 -0.1457  0.3813
  407BOLB   C3B 9755   6.771   0.472  20.183  0.0252  0.1077  0.2133
  407BOLB   C4B 9756   7.134   0.149  20.161 -0.0318  0.0645  0.0462
  407BOLB   NC2 9757   4.861  -0.311  18.258  0.3875  0.0213 -0.0063
  407BOLB   PO2 9758   4.927   0.118  18.361  0.2097  0.1309  0.0278
  407BOLB   GL3 9759   5.336  -0.018  18.548 -0.2324 -0.0587 -0.3665
  407BOLB   GL4 9760   5.262  -0.310  18.713  0.0219  0.0444 -0.2162
  407BOLB   C1C 9761   5.679   0.240  18.660  0.0695  0.3298 -0.1082
  407BOLB   C2C 9762   5.781   0.641  18.817 -0.1072 -0.0914  0.1964
  407BOLB   C3C 9763   5.981   1.024  18.989  0.1818 -0.2633 -0.0556
  407BOLB   C4C 9764   6.297   1.203  19.169  0.1865  0.0949  0.0068
  407BOLB   C1D 9765   5.621  -0.303  18.948  0.0634  0.2209 -0.2456
  407BOLB   C2D 9766   6.031  -0.408  18.992  0.2429 -0.2977  0.2197
  407BOLB   C3D 9767   6.425  -0.582  19.056  0.1579  0.2176  0.1328
  407BOLB   C4D 9768   6.701  -0.746  19.445 -0.0269 -0.1975  0.2429
  408BOLB   NC1 9769   8.693  -0.913  24.210 -0.1095  0.1985 -0.1328
  408BOLB   PO1 9770   8.214  -0.998  24.122 -0.1964 -0.5066  0.1291
  408BOLB   GL1 9771   8.048  -1.286  24.094 -0.0229  0.0854  0.4338
  408BOLB   GL2 9772   8.141  -1.623  24.166  0.2747  0.0615 -0.0985
  408BOLB   C1A 9773   7.673  -1.469  24.207 -0.3177  0.4618  0.0186
  408BOLB   C2A 9774   7.332  -1.713  24.015  0.2724 -0.1507  0.1566
  408BOLB   C3A 9775   7.141  -1.812  24.362  0.4917 -0.2025  0.1180
  408BOLB   C4A 9776   6.754  -1.659  24.498 -0.0609  0.1745  0.3398
  408BOLB   C1B 9777   7.898  -1.887  24.049 -0.0887 -0.1011  0.0854
  408BOLB   C2B 9778   7.565  -2.188  23.960  0.1848 -0.1099  0.0427
  408BOLB   C3B 9779   7.264  -2.215  24.173  0.1951  0.0451  0.0980
  408BOLB   C4B 9780   6.790  -2.161  24.226 -0.0791 -0.2243 -0.0112
  408BOLB   NC2 9781   5.538  -3.878  24.691  0.1947 -0.0373 -0.1947
  408BOLB   PO2 9782   5.102  -3.626  24.377 -0.3128  0.1730 -0.0325
  408BOLB   GL3 9783   5.304  -3.209  24.474  0.0212 -0.2746  0.3445
  408BOLB   GL4 9784   5.600  -3.344  24.496  0.0691  0.1236 -0.0134
  408BOLB   C1C 9785   5.561  -2.840  24.578  0.0436 -0.2061  0.3211
  408BOLB   C2C 9786   5.670  -2.398  24.664  0.1891 -0.0807  0.1433
  408BOLB   C3C 9787   5.996  -2.226  24.808  0.0099 -0.2477 -0.1024
  408BOLB   C4C 9788   6.344  -1.989  24.615  0.0294 -0.0435 -0.2192
  408BOLB   C1D 9789   5.990  -3.196  24.566 -0.0115 -0.0990 -0.1243
  408BOLB   C2D 9790   6.079  -2.673  24.551  0.0010 -0.1752  0.1598
  408BOLB   C3D 9791   6.061  -2.322  24.315  0.1052 -0.1870 -0.2269
  408BOLB   C4D 9792   5.941  -1.817  24.408 -0.0399 -0.0702 -0.0954
  409BOLB   NC1 9793  23.576   8.658  26.920  0.2272 -0.1040 -0.1238
  409BOLB   PO1 9794  23.405   8.836  27.305  0.1399  0.1631 -0.4749
  409BOLB   GL1 9795  23.697   9.119  27.349 -0.1556 -0.1513  0.1211
  409BOLB   GL2 9796  23.868   9.179  27.081  0.1153  0.0418 -0.0665
  409BOLB   C1A 9797  24.031   9.116  27.559 -0.0026 -0.3312  0.3105
  409BOLB   C2A 9798  24.328   9.218  27.920 -0.2494  0.3039 -0.3975
  409BOLB   C3A 9799  24.554   9.205  28.292  0.1224 -0.1150 -0.5226
  409BOLB   C4A 9800  24.860   9.475  28.360  0.0081 -0.1121 -0.0779
  409BOLB   C1B 9801  24.015   9.509  27.285 -0.0382  0.1823 -0.3603
  409BOLB   C2B 9802  24.225   9.714  27.662  0.2364 -0.0222  0.1045
  409BOLB   C3B 9803  24.278   9.676  28.071  0.3997  0.0075  0.1911
  409BOLB   C4B 9804  24.207  10.137  28.327 -0.1477 -0.0519  0.0985
  409BOLB   NC2 9805  25.695  12.126  28.005 -0.0292 -0.1884  0.0324
  409BOLB   PO2 9806  25.559  11.964  28.413 -0.1081 -0.0607 -0.4211
  409BOLB   GL3 9807  25.351  11.542  28.400 -0.2278 -0.0431  0.1098
  409BOLB   GL4 9808  25.577  11.368  28.217  0.2553  0.3272 -0.0370
  409BOLB   C1C 9809  25.054  11.317  28.315 -0.0747 -0.5766 -0.3399
  409BOLB   C2C 9810  24.792  10.916  28.463 -0.0070 -0.1672 -0.0225
  409BOLB   C3C 9811  24.704  10.425  28.303  0.2103 -0.3376  0.0148
  409BOLB   C4C 9812  24.775  10.002  28.474  0.1033  0.1890 -0.1569
  409BOLB   C1D 9813  25.340  10.990  28.128 -0.0010  0.3379  0.2204
  409BOLB   C2D 9814  25.036  10.700  28.109 -0.2053  0.1032  0.0443
  409BOLB   C3D 9815  24.742  10.701  27.828  0.5204  0.0923  0.0103
  409BOLB   C4D 9816  24.542  10.355  27.860 -0.0105  0.0791  0.0847
  410BOLB   NC1 9817  12.078  -4.215  23.637 -0.0389 -0.2825 -0.0670
  410BOLB   PO1 9818  12.467  -4.233  23.400 -0.0279  0.0924 -0.1019
  410BOLB   GL1 9819  12.667  -4.626  23.556 -0.1032 -0.4739  0.2848
  410BOLB   GL2 9820  12.779  -4.767  23.240  0.0516 -0.0405 -0.0988
  410BOLB   C1A 9821  12.583  -5.057  23.750 -0.2626  0.0439 -0.0169
  410BOLB   C2A 9822  12.462  -5.474  23.860  0.0667  0.0150 -0.0072
  410BOLB   C3A 9823  12.434  -5.879  24.114 -0.1257  0.2135 -0.0811
  410BOLB   C4A 9824  12.548  -6.229  24.003  0.3128 -0.3690 -0.1589
  410BOLB   C1B 9825  12.838  -5.201  23.253  0.2535  0.5797 -0.1072
  410BOLB   C2B 9826  12.733  -5.649  23.304  0.0091 -0.1315 -0.2900
  410BOLB   C3B 9827  12.607  -6.065  23.395 -0.0135 -0.1267  0.0134
  410BOLB   C4B 9828  12.509  -6.405  23.249  0.0619  0.1526  0.3515
  410BOLB   NC2 9829  13.176  -8.898  24.367 -0.1408  0.0481 -0.2546
  410BOLB   PO2 9830  13.156  -8.461  24.585  0.3582  0.2481 -0.0348
  410BOLB   GL3 9831  12.986  -8.183  24.240  0.0466  0.1983 -0.0874
  410BOLB   GL4 9832  13.200  -8.146  23.978  0.0827  0.0238 -0.3604
  410BOLB   C1C 9833  12.804  -7.881  23.955 -0.2583  0.2803  0.2388
  410BOLB   C2C 9834  12.659  -7.460  23.983 -0.1716  0.0681  0.1020
  410BOLB   C3C 9835  12.555  -7.119  23.664  0.1594 -0.4054 -0.0970
  410BOLB   C4C 9836  12.471  -6.580  23.725  0.2482  0.1728 -0.0686
  410BOLB   C1D 9837  13.240  -7.635  23.983  0.1244  0.3198 -0.1260
  410BOLB   C2D 9838  13.085  -7.189  24.003  0.2575  0.0948 -0.1357
  410BOLB   C3D 9839  13.052  -6.802  23.915 -0.0971 -0.1890 -0.2297
  410BOLB   C4D 9840  13.014  -6.350  23.892  0.1402 -0.3089 -0.0946
  411BOLB   NC1 9841  26.484   0.297  32.170  0.0044  0.0009  0.0574
  411BOLB   PO1 9842  26.030   0.133  32.204  0.3897  0.1814 -0.2144
  411BOLB   GL1 9843  25.627   0.355  32.260  0.0867  0.0645  0.1434
  411BOLB   GL2 9844  25.594   0.745  32.229 -0.1111 -0.0670  0.0369
  411BOLB   C1A 9845  25.238   0.442  32.155  0.4783 -0.2988 -0.0551
  411BOLB   C2A 9846  24.938   0.583  31.940  0.1987 -0.0515 -0.3904
  411BOLB   C3A 9847  24.819   0.452  31.552  0.1569 -0.0665  0.1330
  411BOLB   C4A 9848  24.558   0.495  31.189  0.0294 -0.0760 -0.0742
  411BOLB   C1B 9849  25.351   1.001  32.000 -0.1193 -0.8398  0.0607
  411BOLB   C2B 9850  25.109   1.097  31.663 -0.0402 -0.0969 -0.0779
  411BOLB   C3B 9851  24.706   1.336  31.551 -0.0179  0.3352 -0.2591
  411BOLB   C4B 9852  24.291   1.143  31.497  0.0914  0.0640 -0.4135
  411BOLB   NC2 9853  26.553  -0.797  31.156 -0.1177 -0.1841 -0.3038
  411BOLB   PO2 9854  26.305  -0.882  31.235  0.0733  0.0280  0.2975
  411BOLB   GL3 9855  26.061  -0.567  31.138  0.2640 -0.2373  0.1756
  411BOLB   GL4 9856  26.093  -0.675  30.798 -0.0032  0.0125 -0.3328
  411BOLB   C1C 9857  25.727  -0.338  31.066  0.1853  0.2602 -0.1629
  411BOLB   C2C 9858  25.333  -0.180  30.926 -0.4662 -0.0147 -0.0655
  411BOLB   C3C 9859  24.991   0.001  30.668 -0.2396  0.2308  0.0469
  411BOLB   C4C 9860  24.748   0.454  30.789  0.1633 -0.3572 -0.0481
  411BOLB   C1D 9861  26.043  -0.360  30.617 -0.2888  0.1426 -0.0502
  411BOLB   C2D 9862  26.045   0.031  30.308  0.0742 -0.2549  0.3644
  411BOLB   C3D 9863  26.189   0.281  29.970 -0.1437  0.3891  0.1154
  411BOLB   C4D 9864  26.106   0.470  29.527  0.0647  0.1672 -0.0762
  412BOLB   NC1 9865   8.240   8.064  27.874 -0.0950  0.2351  0.0116
  412BOLB   PO1 9866   8.082   7.856  27.571  0.4736  0.1395 -0.0998
  412BOLB   GL1 9867   7.796   7.753  27.435  0.4316  0.0800  0.1235
  412BOLB   GL2 9868   7.681   7.779  27.166 -0.0662 -0.1358 -0.2569
  412BOLB   C1A 9869   7.309   7.634  27.635  0.0386 -0.1855  0.0173
  412BOLB   C2A 9870   6.996   7.784  27.696 -0.0028  0.0882 -0.1539
  412BOLB   C3A 9871   6.684   7.964  27.932 -0.1311  0.0188 -0.1422
  412BOLB   C4A 9872   6.652   8.399  28.233  0.0105 -0.4200  0.3463
  412BOLB   C1B 9873   7.288   7.764  27.087 -0.0520 -0.2685  0.0262
  412BOLB   C2B 9874   6.984   8.046  27.245 -0.1675  0.0149  0.0789
  412BOLB   C3B 9875   6.595   8.214  27.425  0.2759  0.0672  0.0678
  412BOLB   C4B 9876   6.122   8.306  27.171  0.0295  0.0799  0.2809
  412BOLB   NC2 9877   4.973   9.783  29.165 -0.1003 -0.0232  0.1955
  412BOLB   PO2 9878   4.734   9.404  29.123  0.1946 -0.0321 -0.2586
  412BOLB   GL3 9879   5.086   9.298  28.915 -0.0267  0.4889  0.0074
  412BOLB   GL4 9880   5.233   9.261  28.600 -0.1800  0.0003  0.2090
  412BOLB   C1C 9881   5.634   9.131  28.925  0.0154 -0.0579  0.1872
  412BOLB   C2C 9882   6.027   8.960  28.849  0.0576  0.1342  0.0129
  412BOLB   C3C 9883   6.376   8.851  28.790 -0.3115 -0.2582 -0.1956
  412BOLB   C4C 9884   6.445   8.490  28.609 -0.1751  0.4401 -0.0693
  412BOLB   C1D 9885   5.740   9.080  28.381 -0.3039 -0.1873  0.0544
  412BOLB   C2D 9886   6.126   8.856  28.344 -0.1305  0.3931 -0.0635
  412BOLB   C3D 9887   6.588   8.948  28.334  0.0269  0.0299 -0.4242
  412BOLB   C4D 9888   6.848   9.297  28.207 -0.2743  0.1612 -0.2992
  413BOLB   NC1 9889  15.194  -3.745  26.573 -0.1717 -0.0357  0.0666
  413BOLB   PO1 9890  14.683  -3.834  26.764 -0.1127  0.1561  0.3544
  413BOLB   GL1 9891  14.602  -4.270  26.946  0.1885  0.2987 -0.4097
  413BOLB   GL2 9892  14.526  -4.461  27.247 -0.1963  0.1127 -0.1744
  413BOLB   C1A 9893  14.683  -4.713  26.802 -0.0766 -0.0089 -0.0106
  413BOLB   C2A 9894  14.825  -5.153  26.902  0.0904 -0.0533 -0.1761
  413BOLB   C3A 9895  14.827  -5.550  26.934  0.0642  0.1021 -0.3003
  413BOLB   C4A 9896  14.939  -5.824  27.293 -0.2513 -0.1733  0.2025
  413BOLB   C1B 9897  14.526  -4.866  27.277  0.1694 -0.0788  0.2427
  413BOLB   C2B 9898  14.834  -5.149  27.397 -0.0113 -0.0253 -0.0682
  413BOLB   C3B 9899  15.117  -5.337  27.622 -0.0525  0.1212 -0.1811
  413BOLB   C4B 9900  15.204  -5.722  27.723 -0.1021 -0.2613  0.1618
  413BOLB   NC2 9901  14.685  -7.780  28.013  0.0233 -0.2317 -0.3861
  413BOLB   PO2 9902  14.345  -7.765  27.674  0.1103  0.1910  0.2021
  413BOLB   GL3 9903  14.420  -7.406  27.816  0.1495  0.1301  0.0246
  413BOLB   GL4 9904  14.679  -7.343  27.618 -0.1665 -0.0790  0.1970
  413BOLB   C1C 9905  14.569  -6.967  27.947  0.1453  0.1959  0.0501
  413BOLB   C2C 9906  14.918  -6.728  28.050  0.0064  0.0055 -0.2790
  413BOLB   C3C 9907  15.043  -6.356  27.889  0.4162  0.0111 -0.1734
  413BOLB   C4C 9908  14.889  -6.081  27.592 -0.1982 -0.2049 -0.2035
  413BOLB   C1D 9909  14.329  -7.033  27.535 -0.0598 -0.2367  0.0047
  413BOLB   C2D 9910  14.123  -6.741  27.703  0.3295 -0.1528  0.0438
  413BOLB   C3D 9911  14.208  -6.309  27.875 -0.0305  0.0944 -0.1624
  413BOLB   C4D 9912  14.292  -5.967  27.860  0.1606 -0.2213  0.0385
  414BOLB   NC1 9913  13.234  -2.116  18.800  0.2142  0.0204 -0.2670
  414BOLB   PO1 9914  13.446  -2.470  18.436 -0.4125  0.1031 -0.0194
  414BOLB   GL1 9915  13.430  -2.636  17.996 -0.0608 -0.3153 -0.3219
  414BOLB   GL2 9916  13.280  -2.414  17.744 -0.0298  0.0103  0.3692
  414BOLB   C1A 9917  13.423  -2.873  17.633 -0.0746  0.0133  0.1927
  414BOLB   C2A 9918  13.152  -3.204  17.409  0.1313 -0.2255 -0.0336
  414BOLB   C3A 9919  12.926  -3.366  17.087  0.5211  0.0860  0.1716
  414BOLB   C4A 9920  12.532  -3.320  16.800 -0.0478  0.0786  0.0251
  414BOLB   C1B 9921  13.309  -2.610  17.264 -0.2624  0.1831  0.1306
  414BOLB   C2B 9922  13.047  -2.879  17.053  0.0155  0.0105 -0.1809
  414BOLB   C3B 9923  12.991  -3.061  16.568 -0.3950  0.0206  0.1431
  414BOLB   C4B 9924  12.613  -3.169  16.323  0.0989  0.0200  0.0424
  414BOLB   NC2 9925  11.107  -3.952  15.429  0.3505  0.0522  0.0796
  414BOLB   PO2 9926  10.971  -4.345  15.624  0.0759  0.2264  0.1968
  414BOLB   GL3 9927  11.183  -4.222  16.066  0.1350 -0.2207 -0.1859
  414BOLB   GL4 9928  11.199  -4.367  16.380 -0.0305 -0.0164  0.0997
  414BOLB   C1C 9929  11.488  -3.981  16.246  0.1020 -0.1306 -0.5351
  414BOLB   C2C 9930  11.940  -4.053  16.210 -0.3228 -0.0046 -0.2114
  414BOLB   C3C 9931  12.221  -3.843  16.291  0.3263 -0.6149 -0.1717
  414BOLB   C4C 9932  12.250  -3.477  16.498  0.2630 -0.0457 -0.0189
  414BOLB   C1D 9933  11.492  -4.137  16.727  0.2269  0.0933  0.1451
  414BOLB   C2D 9934  11.620  -3.831  17.033 -0.3144  0.0278 -0.4185
  414BOLB   C3D 9935  11.942  -3.782  17.331 -0.1237 -0.0196 -0.4907
  414BOLB   C4D 9936  12.408  -3.710  17.536  0.1527  0.0453 -0.2107
  415BOLB   NC1 9937  22.753   0.798  29.630  0.1641  0.0710  0.1369
  415BOLB   PO1 9938  22.918   1.166  29.934  0.0524 -0.2415 -0.1323
  415BOLB   GL1 9939  22.735   0.845  30.268  0.0513 -0.0263  0.0383
  415BOLB   GL2 9940  22.397   0.761  30.277  0.1905  0.0374  0.1345
  415BOLB   C1A 9941  23.052   0.561  30.367 -0.2220  0.0016  0.1520
  415BOLB   C2A 9942  23.301   0.480  30.682 -0.0603 -0.2969  0.1173
  415BOLB   C3A 9943  23.655   0.149  30.765  0.0158 -0.1343 -0.0688
  415BOLB   C4A 9944  23.562  -0.242  30.692 -0.1493  0.0791 -0.0071
  415BOLB   C1B 9945  22.649   0.547  30.631 -0.0812 -0.0771  0.1266
  415BOLB   C2B 9946  22.912   0.447  31.055 -0.2665 -0.0430  0.0048
  415BOLB   C3B 9947  23.185  -0.002  31.073  0.4285  0.1920 -0.1311
  415BOLB   C4B 9948  23.168  -0.432  31.266 -0.3248  0.2150  0.0296
  415BOLB   NC2 9949  24.082  -1.520  33.030  0.2162  0.1227 -0.2392
  415BOLB   PO2 9950  24.210  -1.690  32.602  0.0440 -0.2674  0.0010
  415BOLB   GL3 9951  23.764  -1.504  32.266  0.1493 -0.0819 -0.0952
  415BOLB   GL4 9952  23.489  -1.727  32.274  0.2386  0.3487  0.0542
  415BOLB   C1C 9953  23.556  -1.422  31.811  0.3130 -0.1680 -0.4021
  415BOLB   C2C 9954  23.454  -1.174  31.591 -0.1827 -0.2615 -0.3106
  415BOLB   C3C 9955  23.439  -0.940  31.202 -0.3064 -0.1723  0.0571
  415BOLB   C4C 9956  23.431  -0.684  30.845 -0.1799  0.1517 -0.4001
  415BOLB   C1D 9957  23.149  -1.535  32.088  0.1336 -0.1623  0.0227
  415BOLB   C2D 9958  23.034  -1.221  31.911  0.0257 -0.0084 -0.0425
  415BOLB   C3D 9959  22.982  -0.820  31.884  0.0870 -0.1457 -0.1699
  415BOLB   C4D 9960  23.078  -0.394  31.748 -0.2746  0.2283 -0.2130
  416BOLB   NC1 9961  15.015  11.019  31.065  0.2135 -0.1135 -0.0918
  416BOLB   PO1 9962  15.358  10.651  31.120  0.3179  0.1535 -0.0668
  416BOLB   GL1 9963  15.752  10.814  31.415 -0.2181  0.1837  0.0950
  416BOLB   GL2 9964  15.899  10.651  31.702  0.1415  0.2109  0.0636
  416BOLB   C1A 9965  15.653  11.136  31.545  0.0101 -0.1705  0.4625
  416BOLB   C2A 9966  15.703  11.431  31.893  0.2653  0.0582 -0.2351
  416BOLB   C3A 9967  16.008  11.629  32.178  0.0001  0.2263 -0.0738
  416BOLB   C4A 9968  16.254  11.861  32.514  0.1905 -0.1150 -0.0514
  416BOLB   C1B 9969  16.060  10.984  31.936 -0.1932  0.3797 -0.0871
  416BOLB   C2B 9970  16.184  11.042  32.372  0.1343  0.1348  0.2735
  416BOLB   C3B 9971  16.385  11.370  32.498  0.1493 -0.0702 -0.1878
  416BOLB   C4B 9972  16.497  11.472  32.887 -0.1072  0.1496  0.0279
  416BOLB   NC2 9973  16.729  13.697  34.133  0.0162  0.2043  0.1249
  416BOLB   PO2 9974  17.033  13.416  34.082 -0.0205 -0.5439  0.2635
  416BOLB   GL3 9975  16.801  13.065  33.977 -0.0285 -0.3815  0.4652
  416BOLB   GL4 9976  16.819  13.006  33.568 -0.0636 -0.2598 -0.0502
  416BOLB   C1C 9977  16.494  12.838  33.966 -0.1667  0.1683  0.1297
  416BOLB   C2C 9978  16.483  12.393  33.699 -0.2286 -0.2377  0.2146
  416BOLB   C3C 9979  16.398  12.285  33.249  0.0919  0.0039  0.0029
  416BOLB   C4C 9980  16.251  11.975  33.056 -0.0166 -0.0688  0.0550
  416BOLB   C1D 9981  16.803  12.648  33.268  0.0913  0.0729 -0.1050
  416BOLB   C2D 9982  16.866  12.249  33.139 -0.2851  0.1729  0.2342
  416BOLB   C3D 9983  16.879  11.751  33.096 -0.0852  0.0081 -0.1383
  416BOLB   C4D 9984  16.797  11.398  33.311  0.1481  0.0043  0.0185
  417BOLB   NC1 9985  23.764   2.176  21.371 -0.2626 -0.1460 -0.0682
  417BOLB   PO1 9986  23.687   1.762  21.452  0.0075  0.0682 -0.1244
  417BOLB   GL1 9987  24.217   1.871  21.405 -0.2171  0.4220 -0.0621
  417BOLB   GL2 9988  24.476   2.136  21.533 -0.0475 -0.2031  0.0491
  417BOLB   C1A 9989  24.495   1.710  21.227 -0.3689  0.1842  0.1291
  417BOLB   C2A 9990  24.878   1.600  21.285  0.0175  0.0111  0.0246
  417BOLB   C3A 9991  25.267   1.669  21.330 -0.0636  0.0320 -0.1213
  417BOLB   C4A 9992  25.762   1.724  21.205  0.1621  0.1006  0.2176
  417BOLB   C1B 9993  24.952   2.054  21.521 -0.1288  0.0455  0.1336
  417BOLB   C2B 9994  25.323   2.186  21.215 -0.0716 -0.0314  0.3279
  417BOLB   C3B 9995  25.733   2.163  21.020  0.0509 -0.0302  0.0561
  417BOLB   C4B 9996  25.747   2.281  20.635  0.0874 -0.2056  0.1769
  417BOLB   NC2 9997  27.660  -0.275  21.133  0.1291  0.0303 -0.2564
  417BOLB   PO2 9998  27.782   0.141  20.964 -0.1140  0.0746 -0.3325
  417BOLB   GL3 9999  27.425   0.308  21.156 -0.3423 -0.1217  0.3001
  417BOLB   GL410000  27.445   0.173  21.431 -0.0958 -0.2579  0.1990
  417BOLB   C1C10001  27.071   0.548  21.047  0.0970  0.1828 -0.0229
  417BOLB   C2C10002  26.772   0.852  21.020 -0.1306 -0.1207  0.3804
  417BOLB   C3C10003  26.456   1.229  21.006 -0.1415  0.1842 -0.1061
  417BOLB   C4C10004  26.070   1.516  21.051 -0.3259  0.2278 -0.1596
  417BOLB   C1D10005  27.015   0.069  21.291  0.0843 -0.0163  0.0666
  417BOLB   C2D10006  26.681  -0.019  21.603  0.0003  0.3804 -0.2727
  417BOLB   C3D10007  26.270  -0.204  21.811  0.0792  0.0065  0.0869
  417BOLB   C4D10008  26.077  -0.224  22.211 -0.0081 -0.2111  0.1029
  418BOLB   NC110009  18.107   1.256  32.629  0.1633 -0.3796 -0.0686
  418BOLB   PO110010  17.791   1.210  32.678 -0.2176 -0.2882  0.3145
  418BOLB   GL110011  17.882   1.072  33.061 -0.2221  0.2445 -0.0041
  418BOLB   GL210012  17.641   1.183  33.289  0.0176 -0.2647 -0.3933
  418BOLB   C1A10013  18.123   0.842  33.447  0.3466  0.3693  0.0094
  418BOLB   C2A10014  18.231   0.492  33.648 -0.0699 -0.1310  0.0465
  418BOLB   C3A10015  18.502   0.127  33.829 -0.2275  0.1573  0.2315
  418BOLB   C4A10016  18.347  -0.289  33.843  0.0214  0.1573 -0.1065
  418BOLB   C1B10017  17.646   1.073  33.687  0.3379 -0.0834 -0.1965
  418BOLB   C2B10018  17.965   0.837  33.946 -0.0787 -0.2218 -0.0717
  418BOLB   C3B10019  18.346   0.586  34.240 -0.1221 -0.0301 -0.0947
  418BOLB   C4B10020  18.701   0.342  34.364  0.2578 -0.0522  0.1724
  418BOLB   NC210021  18.719  -0.737  36.038  0.0952  0.0709 -0.1404
  418BOLB   PO210022  18.226  -0.622  36.068  0.0934 -0.2089  0.3745
  418BOLB   GL310023  18.201  -0.819  35.677 -0.2931 -0.1956  0.1269
  418BOLB   GL410024  18.482  -0.748  35.584 -0.0521 -0.0764  0.4273
  418BOLB   C1C10025  17.982  -0.825  35.256 -0.0578 -0.1204 -0.0652
  418BOLB   C2C10026  18.080  -0.808  34.821 -0.1253 -0.0808  0.1015
  418BOLB   C3C10027  17.936  -0.693  34.373 -0.3576 -0.1080 -0.0008
  418BOLB   C4C10028  18.136  -0.451  34.082  0.1983  0.0313  0.0214
  418BOLB   C1D10029  18.367  -0.507  35.210  0.2098  0.1332 -0.3824
  418BOLB   C2D10030  18.441  -0.452  34.732 -0.0143 -0.1310 -0.4392
  418BOLB   C3D10031  18.495  -0.311  34.391  0.3021  0.0641  0.2093
  418BOLB   C4D10032  18.306   0.051  34.312 -0.0414  0.0122 -0.1616
  419BOLB   NC110033   7.582   5.296  27.259 -0.0003 -0.0383  0.0772
  419BOLB   PO110034   7.266   5.486  27.119 -0.0278  0.1247 -0.2392
  419BOLB   GL110035   6.918   5.575  27.327 -0.1574  0.2976 -0.1230
  419BOLB   GL210036   6.974   5.854  27.506  0.0291 -0.0065  0.0923
  419BOLB   C1A10037   6.587   5.473  27.654 -0.0445 -0.0433  0.0000
  419BOLB   C2A10038   6.260   5.270  27.869  0.0033 -0.0040 -0.1432
  419BOLB   C3A10039   5.816   5.337  27.900  0.0439 -0.0758 -0.2877
  419BOLB   C4A10040   5.554   5.090  27.865 -0.0523 -0.1715 -0.0200
  419BOLB   C1B10041   6.675   6.000  27.709  0.0739 -0.1410 -0.0300
  419BOLB   C2B10042   6.354   6.011  27.703 -0.1556  0.1305  0.2240
  419BOLB   C3B10043   5.996   5.721  27.636 -0.1284 -0.0053  0.2022
  419BOLB   C4B10044   5.442   5.734  27.666 -0.1872 -0.2500 -0.0566
  419BOLB   NC210045   2.890   5.290  28.921 -0.0260  0.0405  0.1256
  419BOLB   PO210046   3.116   4.986  28.638 -0.1553 -0.2278 -0.1751
  419BOLB   GL310047   3.589   5.057  28.585 -0.3545 -0.2137  0.3096
  419BOLB   GL410048   3.880   5.014  28.789  0.2189  0.1870 -0.1394
  419BOLB   C1C10049   3.926   4.836  28.329 -0.1226 -0.4992 -0.3888
  419BOLB   C2C10050   4.262   4.859  27.997 -0.1605  0.2521 -0.0792
  419BOLB   C3C10051   4.744   4.885  28.073 -0.1180 -0.3306  0.1341
  419BOLB   C4C10052   5.124   5.056  27.988  0.0970  0.2203 -0.1673
  419BOLB   C1D10053   4.240   4.797  28.890  0.0158  0.0885  0.1329
  419BOLB   C2D10054   4.654   4.698  28.822 -0.1849  0.1946  0.0815
  419BOLB   C3D10055   5.104   4.636  28.773 -0.2380  0.1205  0.3265
  419BOLB   C4D10056   5.304   4.960  28.526 -0.3028  0.0682 -0.0482
  420BOLB   NC110057  17.577   8.550  32.813  0.1373 -0.0679  0.0209
  420BOLB   PO110058  17.772   8.184  33.097 -0.1978  0.0774 -0.0330
  420BOLB   GL110059  17.699   8.456  33.430  0.0626  0.0617 -0.2235
  420BOLB   GL210060  17.750   8.730  33.250  0.0069 -0.1893 -0.0930
  420BOLB   C1A10061  17.997   8.619  33.640 -0.4763  0.2339 -0.2013
  420BOLB   C2A10062  18.340   8.810  33.692 -0.0063  0.4727 -0.2452
  420BOLB   C3A10063  18.360   9.232  34.013 -0.0511 -0.0877 -0.0725
  420BOLB   C4A10064  17.998   9.464  34.276  0.2612 -0.2935 -0.3002
  420BOLB   C1B10065  18.045   9.007  33.326  0.0111  0.2299  0.1796
  420BOLB   C2B10066  18.303   9.396  33.556 -0.3623  0.1433 -0.0191
  420BOLB   C3B10067  18.580   9.743  33.350  0.0468  0.0405 -0.3123
  420BOLB   C4B10068  18.915   9.975  33.298  0.1837  0.2282  0.2450
  420BOLB   NC210069  18.576  10.582  35.951  0.1677 -0.0082  0.3169
  420BOLB   PO210070  18.633  10.276  36.167  0.0919  0.0482 -0.6211
  420BOLB   GL310071  18.764   9.912  35.912  0.0894  0.0962  0.1517
  420BOLB   GL410072  18.636  10.113  35.667 -0.0550 -0.0488 -0.1247
  420BOLB   C1C10073  18.549   9.687  35.718  0.0691  0.1502  0.0699
  420BOLB   C2C10074  18.246   9.710  35.391  0.0811 -0.0251 -0.4068
  420BOLB   C3C10075  17.966   9.728  35.041 -0.5152 -0.0665  0.1940
  420BOLB   C4C10076  17.936   9.746  34.627  0.1915 -0.1047  0.0042
  420BOLB   C1D10077  18.689  10.040  35.300 -0.2269  0.0890  0.1153
  420BOLB   C2D10078  18.973   9.791  34.932  0.3349 -0.0737  0.2039
  420BOLB   C3D10079  18.897   9.597  34.598 -0.3022 -0.0873  0.1629
  420BOLB   C4D10080  18.631   9.324  34.499 -0.1055  0.2481 -0.2247
  421BOLB   NC110081  25.140   0.365  11.860 -0.0104 -0.0079  0.0644
  421BOLB   PO110082  25.143   0.130  12.361  0.3676  0.2359  0.2218
  421BOLB   GL110083  25.016   0.075  12.735  0.2398 -0.0227  0.1330
  421BOLB   GL210084  25.015  -0.140  13.007  0.0667 -0.2161  0.1456
  421BOLB   C1A10085  24.578   0.066  12.769 -0.3966  0.0801 -0.1089
  421BOLB   C2A10086  24.151   0.351  12.852 -0.1726  0.2924 -0.1483
  421BOLB   C3A10087  23.854   0.609  12.597 -0.0547  0.2265 -0.0963
  421BOLB   C4A10088  23.674   0.503  12.224  0.0724 -0.2025 -0.0469
  421BOLB   C1B10089  24.787   0.075  13.285  0.0782 -0.0678 -0.2584
  421BOLB   C2B10090  24.494  -0.030  13.527  0.0427  0.1113 -0.1306
  421BOLB   C3B10091  24.171  -0.358  13.568  0.1619 -0.0594  0.0137
  421BOLB   C4B10092  24.052  -0.647  13.906  0.0252 -0.1456  0.1642
  421BOLB   NC210093  23.540  -0.679  10.109 -0.0082 -0.3197 -0.2158
  421BOLB   PO210094  23.422  -0.125  10.243  0.1832 -0.0926 -0.0913
  421BOLB   GL310095  23.126   0.018  10.583 -0.1175  0.2193 -0.0975
  421BOLB   GL410096  22.990   0.370  10.587 -0.0924 -0.0713 -0.1643
  421BOLB   C1C10097  22.948  -0.040  10.962  0.0987 -0.0995 -0.2068
  421BOLB   C2C10098  23.009   0.164  11.347  0.4301  0.0941 -0.0121
  421BOLB   C3C10099  23.167   0.428  11.652  0.4100 -0.0160 -0.3512
  421BOLB   C4C10100  23.408   0.652  11.872 -0.1396 -0.1600  0.4144
  421BOLB   C1D10101  23.260   0.427  10.987 -0.1024  0.0670 -0.1923
  421BOLB   C2D10102  23.595   0.595  11.397  0.1348  0.1464 -0.1922
  421BOLB   C3D10103  23.938   0.520  11.710  0.2476  0.0296 -0.2730
  421BOLB   C4D10104  24.123   0.507  12.083 -0.0332 -0.3071 -0.2976
  422BOLB   NC110105   8.807  -1.099  25.081 -0.1036  0.0199 -0.0969
  422BOLB   PO110106   9.019  -1.462  25.231  0.0784  0.4620 -0.1802
  422BOLB   GL110107   8.714  -1.860  25.078 -0.1167 -0.1192 -0.3818
  422BOLB   GL210108   8.404  -1.787  25.230  0.3310  0.0694 -0.2460
  422BOLB   C1A10109   8.411  -2.234  25.042 -0.1223 -0.0528 -0.1187
  422BOLB   C2A10110   8.149  -2.314  24.681  0.2707  0.0445 -0.4947
  422BOLB   C3A10111   7.935  -2.402  24.237  0.0600 -0.1716  0.2273
  422BOLB   C4A10112   7.801  -2.659  23.864 -0.0811 -0.1208  0.1710
  422BOLB   C1B10113   8.143  -2.050  25.434  0.1565  0.0105  0.2997
  422BOLB   C2B10114   7.911  -2.414  25.549  0.0167 -0.1276  0.0182
  422BOLB   C3B10115   7.545  -2.589  25.479 -0.1369 -0.0730  0.1528
  422BOLB   C4B10116   7.323  -3.012  25.553  0.0735  0.0569  0.0029
  422BOLB   NC210117   6.254  -4.386  23.593 -0.1949 -0.3441  0.1799
  422BOLB   PO210118   6.550  -4.754  23.325  0.1253  0.2874 -0.0660
  422BOLB   GL310119   6.800  -4.410  23.532  0.2623  0.0693  0.1269
  422BOLB   GL410120   6.644  -4.249  23.283 -0.1403  0.0235 -0.0641
  422BOLB   C1C10121   7.264  -4.148  23.495  0.2318 -0.2647 -0.0598
  422BOLB   C2C10122   7.703  -3.943  23.565  0.1475 -0.0527 -0.0561
  422BOLB   C3C10123   7.769  -3.462  23.578 -0.0806 -0.0557 -0.1093
  422BOLB   C4C10124   7.679  -3.044  23.540 -0.2470 -0.1228 -0.2276
  422BOLB   C1D10125   6.996  -4.119  23.047  0.0165  0.0775  0.4556
  422BOLB   C2D10126   7.352  -3.878  23.078  0.2614  0.0036  0.1464
  422BOLB   C3D10127   7.720  -3.778  23.105  0.0730  0.1313 -0.2670
  422BOLB   C4D10128   8.068  -3.504  23.172 -0.2433  0.2301  0.5357
  423BOLB   NC110129  20.525  11.094  25.233 -0.1971  0.2449 -0.0625
  423BOLB   PO110130  20.174  11.183  25.431  0.0286 -0.0980  0.0121
  423BOLB   GL110131  20.053  11.591  25.272  0.2611 -0.0025  0.1326
  423BOLB   GL210132  20.129  11.638  25.631  0.2988  0.2296 -0.1321
  423BOLB   C1A10133  20.246  11.998  25.003  0.0708 -0.0810  0.1640
  423BOLB   C2A10134  20.493  12.260  24.791  0.2933 -0.1945 -0.0066
  423BOLB   C3A10135  20.764  12.437  24.525 -0.1609  0.1323 -0.0342
  423BOLB   C4A10136  21.157  12.689  24.376 -0.2246 -0.0792  0.0200
  423BOLB   C1B10137  20.305  12.102  25.618  0.0261  0.0557 -0.1135
  423BOLB   C2B10138  20.419  12.416  25.308  0.0869 -0.1106 -0.0453
  423BOLB   C3B10139  20.703  12.660  25.009 -0.1023 -0.1554  0.1341
  423BOLB   C4B10140  20.901  12.971  24.726 -0.0133 -0.0020 -0.1314
  423BOLB   NC210141  23.155  14.618  24.153 -0.0439  0.2033  0.1699
  423BOLB   PO210142  22.945  14.266  24.401  0.0305  0.1291  0.3580
  423BOLB   GL310143  22.652  13.935  24.514 -0.2087 -0.0443 -0.0995
  423BOLB   GL410144  23.000  13.856  24.640 -0.2245 -0.1919  0.1807
  423BOLB   C1C10145  22.543  13.589  24.614  0.0108 -0.1656  0.0644
  423BOLB   C2C10146  22.058  13.580  24.580 -0.1586 -0.0867  0.1707
  423BOLB   C3C10147  21.693  13.298  24.616 -0.2368  0.0980  0.4177
  423BOLB   C4C10148  21.297  13.070  24.396 -0.1621  0.3974 -0.0179
  423BOLB   C1D10149  23.062  13.415  24.833  0.3592 -0.1706  0.0725
  423BOLB   C2D10150  22.868  13.279  25.224  0.3779  0.0849  0.1651
  423BOLB   C3D10151  22.814  12.933  25.548 -0.2210 -0.2669  0.0583
  423BOLB   C4D10152  22.986  12.436  25.557  0.0305  0.0059  0.0814
  424BOLB   NC110153  14.257  -0.065  31.847  0.4909 -0.1537  0.1447
  424BOLB   PO110154  14.154  -0.416  32.132  0.1018 -0.1848 -0.3176
  424BOLB   GL110155  14.241  -0.697  32.416  0.2602  0.0660 -0.0470
  424BOLB   GL210156  14.335  -0.898  32.266  0.2434 -0.2228 -0.0358
  424BOLB   C1A10157  14.163  -0.769  32.813  0.4130  0.3743 -0.1060
  424BOLB   C2A10158  14.095  -0.698  33.255 -0.2159 -0.2085  0.3785
  424BOLB   C3A10159  14.141  -0.422  33.647  0.0367 -0.0496 -0.1158
  424BOLB   C4A10160  14.474  -0.453  33.988 -0.0780  0.0985 -0.1477
  424BOLB   C1B10161  14.394  -1.163  32.619 -0.0813  0.2921  0.2994
  424BOLB   C2B10162  14.121  -1.219  33.054  0.1234  0.1101  0.2457
  424BOLB   C3B10163  14.261  -1.108  33.440 -0.0190  0.2037  0.3300
  424BOLB   C4B10164  14.626  -1.224  33.580  0.2197 -0.0525  0.0217
  424BOLB   NC210165  14.866  -1.856  35.989  0.0302 -0.1957  0.0407
  424BOLB   PO210166  15.132  -1.451  36.038  0.5044 -0.1722  0.2122
  424BOLB   GL310167  14.867  -1.266  35.775 -0.3778  0.2653 -0.1705
  424BOLB   GL410168  14.487  -1.420  35.838 -0.0291 -0.1635  0.2402
  424BOLB   C1C10169  14.606  -1.166  35.403  0.0564  0.3349 -0.0868
  424BOLB   C2C10170  14.661  -0.841  35.059  0.3049  0.0053 -0.1231
  424BOLB   C3C10171  14.554  -0.596  34.766 -0.0099 -0.0633  0.2514
  424BOLB   C4C10172  14.730  -0.361  34.270 -0.1942  0.2743 -0.2123
  424BOLB   C1D10173  14.072  -1.154  35.688  0.1466  0.2007  0.1406
  424BOLB   C2D10174  14.099  -1.184  35.218 -0.0348  0.2491 -0.2588
  424BOLB   C3D10175  14.157  -0.908  34.877 -0.3520 -0.0214 -0.1712
  424BOLB   C4D10176  14.078  -1.080  34.537 -0.0888  0.1061  0.1646
  425BOLB   NC110177  20.594   9.854  29.807 -0.0404 -0.1984 -0.1656
  425BOLB   PO110178  20.496  10.281  29.588  0.0562  0.0488  0.1078
  425BOLB   GL110179  20.756  10.640  29.605 -0.1954  0.1062  0.0120
  425BOLB   GL210180  20.744  11.027  29.615  0.0110 -0.0060 -0.1359
  425BOLB   C1A10181  21.168  10.595  29.646 -0.1387 -0.0345 -0.1956
  425BOLB   C2A10182  21.333  10.479  29.954 -0.1256 -0.2191  0.0493
  425BOLB   C3A10183  21.473  10.593  30.374  0.0385 -0.1086 -0.0168
  425BOLB   C4A10184  21.639  10.925  30.722  0.1721 -0.2257 -0.1938
  425BOLB   C1B10185  21.017  11.189  29.238  0.0437 -0.3121 -0.1726
  425BOLB   C2B10186  21.217  11.459  29.005 -0.2725  0.1579 -0.1929
  425BOLB   C3B10187  21.577  11.592  28.834 -0.0018  0.0345  0.3265
  425BOLB   C4B10188  21.966  11.698  29.022 -0.1634 -0.0054 -0.1372
  425BOLB   NC210189  23.584  12.001  31.714 -0.0967 -0.2986 -0.1542
  425BOLB   PO210190  23.059  12.202  31.641  0.2398 -0.4845  0.2278
  425BOLB   GL310191  22.667  11.949  31.704 -0.3365  0.1748  0.2571
  425BOLB   GL410192  22.612  11.851  31.362 -0.0788 -0.2057  0.0806
  425BOLB   C1C10193  22.531  11.564  31.779  0.2825  0.2298  0.1925
  425BOLB   C2C10194  22.165  11.404  31.688 -0.3867  0.3317  0.0036
  425BOLB   C3C10195  21.912  11.298  31.288 -0.2533  0.1289 -0.2455
  425BOLB   C4C10196  21.965  10.957  30.987  0.1241 -0.0386 -0.0143
  425BOLB   C1D10197  22.128  11.725  31.350 -0.0682 -0.0176 -0.2859
  425BOLB   C2D10198  21.743  11.684  31.109 -0.1662 -0.1229 -0.0404
  425BOLB   C3D10199  21.527  11.577  30.766 -0.1974  0.3574  0.1088
  425BOLB   C4D10200  21.283  11.244  30.485 -0.1139 -0.0919  0.1460
  426BOLB   NC110201   8.893  -1.206  26.934  0.0753  0.0012  0.1519
  426BOLB   PO110202   8.739  -0.874  26.844 -0.2313 -0.1701 -0.1391
  426BOLB   GL110203   8.357  -0.966  26.900 -0.0699  0.1125  0.2508
  426BOLB   GL210204   8.014  -1.031  27.037  0.0762  0.4960 -0.2432
  426BOLB   C1A10205   8.315  -1.256  27.296 -0.2280  0.0838  0.0520
  426BOLB   C2A10206   8.069  -1.340  27.622 -0.0813  0.1348 -0.2252
  426BOLB   C3A10207   7.646  -1.461  27.816  0.2322 -0.3582  0.0043
  426BOLB   C4A10208   7.413  -1.494  28.167 -0.0656  0.1875  0.0827
  426BOLB   C1B10209   7.960  -1.448  27.032 -0.1210 -0.2886  0.0611
  426BOLB   C2B10210   7.989  -1.809  26.995 -0.1125 -0.0633 -0.1925
  426BOLB   C3B10211   7.725  -2.169  26.806  0.0516  0.0310 -0.0043
  426BOLB   C4B10212   7.767  -2.577  26.781  0.0543  0.1356 -0.2010
  426BOLB   NC210213   5.623  -3.807  28.335  0.0048  0.2592 -0.1346
  426BOLB   PO210214   5.881  -3.538  28.692  0.0955  0.2676 -0.2278
  426BOLB   GL310215   6.205  -3.146  28.617 -0.0352  0.0761 -0.1617
  426BOLB   GL410216   6.145  -3.076  28.902 -0.3854  0.3368 -0.0967
  426BOLB   C1C10217   6.576  -2.786  28.498  0.1899  0.3328 -0.1400
  426BOLB   C2C10218   6.900  -2.622  28.675 -0.3516  0.0542  0.0655
  426BOLB   C3C10219   7.187  -2.354  28.470  0.0494 -0.2114  0.1089
  426BOLB   C4C10220   7.259  -1.870  28.466  0.1558 -0.3338 -0.0520
  426BOLB   C1D10221   6.325  -2.705  28.979 -0.2134 -0.3314  0.0027
  426BOLB   C2D10222   6.734  -2.500  29.122  0.1414 -0.1535 -0.1375
  426BOLB   C3D10223   7.180  -2.615  29.133 -0.3084 -0.2489  0.0189
  426BOLB   C4D10224   7.485  -2.754  28.714  0.2549 -0.0572  0.3293
  427BOLB   NC110225  12.626  10.163  21.661 -0.2202 -0.1339 -0.0793
  427BOLB   PO110226  12.231  10.301  21.783  0.1498 -0.0303 -0.3228
  427BOLB   GL110227  12.150  10.658  21.436 -0.2370  0.3579  0.1938
  427BOLB   GL210228  11.844  10.822  21.405 -0.0295  0.2838  0.1595
  427BOLB   C1A10229  12.385  10.893  21.266 -0.3615 -0.0361 -0.4312
  427BOLB   C2A10230  12.423  11.241  21.018  0.0413 -0.0742 -0.0013
  427BOLB   C3A10231  12.210  11.633  20.811 -0.3014  0.1792 -0.0051
  427BOLB   C4A10232  12.235  11.892  20.426 -0.0954  0.0411 -0.0940
  427BOLB   C1B10233  11.495  11.158  21.390 -0.1282 -0.1263  0.1104
  427BOLB   C2B10234  11.353  11.549  21.295 -0.1322 -0.1556  0.3947
  427BOLB   C3B10235  11.584  11.761  21.010  0.1105 -0.1007  0.0361
  427BOLB   C4B10236  11.940  12.072  20.899  0.1510  0.0331  0.1699
  427BOLB   NC210237  11.378  13.793  19.951 -0.1896  0.1325 -0.0951
  427BOLB   PO210238  11.563  13.794  19.599 -0.1893 -0.0050 -0.4444
  427BOLB   GL310239  11.609  13.341  19.646  0.2378  0.1628  0.0664
  427BOLB   GL410240  11.398  13.290  19.884  0.1378 -0.1943 -0.0509
  427BOLB   C1C10241  11.954  13.080  19.665  0.1822 -0.1914  0.0687
  427BOLB   C2C10242  12.204  12.788  19.792  0.5009 -0.4039  0.1151
  427BOLB   C3C10243  12.425  12.552  19.986  0.5498 -0.0756  0.0511
  427BOLB   C4C10244  12.302  12.324  20.305 -0.1966  0.0343 -0.0114
  427BOLB   C1D10245  11.676  13.155  20.124 -0.2331 -0.3073  0.0278
  427BOLB   C2D10246  11.691  12.948  20.463  0.1698  0.1760  0.0130
  427BOLB   C3D10247  11.442  12.915  20.711 -0.3723 -0.1963 -0.1638
  427BOLB   C4D10248  11.543  13.165  20.949 -0.0781 -0.0460  0.3915
  428BOLB   NC110249  27.685  -0.609  16.010 -0.2664  0.3467  0.3139
  428BOLB   PO110250  27.340  -0.817  16.306 -0.0943  0.1034 -0.2505
  428BOLB   GL110251  26.848  -0.720  16.363 -0.1747  0.1890  0.0777
  428BOLB   GL210252  26.679  -0.650  16.598 -0.1194  0.2325  0.1465
  428BOLB   C1A10253  26.500  -1.011  16.336  0.4341  0.4473 -0.1527
  428BOLB   C2A10254  26.325  -1.364  16.274  0.1054  0.2355 -0.3084
  428BOLB   C3A10255  25.989  -1.314  15.924  0.2185  0.0155  0.3059
  428BOLB   C4A10256  25.655  -1.361  15.544  0.0446 -0.0480  0.1131
  428BOLB   C1B10257  26.271  -0.723  16.741 -0.2463  0.1664  0.2264
  428BOLB   C2B10258  25.802  -0.543  16.707 -0.1871  0.0792 -0.2356
  428BOLB   C3B10259  25.307  -0.477  16.780 -0.2018 -0.1600 -0.3491
  428BOLB   C4B10260  24.909  -0.442  16.955 -0.4509 -0.0035 -0.3180
  428BOLB   NC210261  26.931  -1.415  13.788  0.1121 -0.0401  0.0315
  428BOLB   PO210262  26.820  -0.934  13.803  0.0386  0.0437 -0.3132
  428BOLB   GL310263  26.562  -1.157  13.928  0.0719 -0.0642 -0.0767
  428BOLB   GL410264  26.430  -1.242  13.675 -0.1081 -0.4191  0.1545
  428BOLB   C1C10265  26.235  -1.270  14.134 -0.2162 -0.1886  0.2050
  428BOLB   C2C10266  25.997  -1.533  14.348 -0.0220 -0.1402 -0.0148
  428BOLB   C3C10267  25.625  -1.555  14.606 -0.1212 -0.0312 -0.0896
  428BOLB   C4C10268  25.622  -1.455  15.151  0.1673 -0.1983  0.0103
  428BOLB   C1D10269  26.068  -0.931  13.810  0.1750 -0.4833  0.2163
  428BOLB   C2D10270  25.679  -1.030  13.945  0.1010 -0.2431  0.1144
  428BOLB   C3D10271  25.337  -1.244  13.695  0.5824 -0.1532 -0.2021
  428BOLB   C4D10272  25.231  -1.196  13.282 -0.1287  0.0198 -0.0444
  429BOLB   NC110273  13.343   4.942  17.256 -0.2221  0.1472  0.2041
  429BOLB   PO110274  13.562   4.630  16.905  0.3745  0.2668  0.0569
  429BOLB   GL110275  13.426   4.657  16.578  0.0967 -0.2114  0.3259
  429BOLB   GL210276  13.156   4.648  16.529  0.2239 -0.1018 -0.0877
  429BOLB   C1A10277  13.364   4.845  16.129 -0.0798  0.2963 -0.1161
  429BOLB   C2A10278  13.093   4.882  15.832 -0.1350 -0.0642 -0.1161
  429BOLB   C3A10279  12.994   5.021  15.384  0.3109 -0.3443 -0.0156
  429BOLB   C4A10280  13.063   5.006  14.926  0.1220 -0.2011 -0.2793
  429BOLB   C1B10281  12.987   4.505  16.175  0.1703 -0.1988 -0.2100
  429BOLB   C2B10282  12.796   4.365  15.814  0.5247 -0.0232 -0.1022
  429BOLB   C3B10283  12.672   4.293  15.428 -0.2205  0.0642 -0.1108
  429BOLB   C4B10284  12.532   4.288  14.994  0.1636 -0.2531  0.1775
  429BOLB   NC210285  12.449   6.057  12.770 -0.1492  0.0923 -0.1450
  429BOLB   PO210286  12.273   5.825  13.142 -0.0423 -0.1107  0.2273
  429BOLB   GL310287  12.562   5.933  13.500  0.0673  0.0142  0.0288
  429BOLB   GL410288  12.620   6.273  13.601 -0.0692 -0.2559  0.2029
  429BOLB   C1C10289  12.869   5.657  13.597  0.0919  0.0037  0.2770
  429BOLB   C2C10290  13.084   5.297  13.750  0.0579 -0.1579  0.0058
  429BOLB   C3C10291  13.205   5.126  14.121  0.4243 -0.0743  0.3521
  429BOLB   C4C10292  13.231   4.992  14.545  0.0174  0.0136 -0.0331
  429BOLB   C1D10293  12.774   6.178  13.965 -0.0279  0.1252 -0.0176
  429BOLB   C2D10294  13.009   6.117  14.343 -0.1394 -0.1726 -0.3341
  429BOLB   C3D10295  13.274   6.027  14.616 -0.1924  0.2249  0.0204
  429BOLB   C4D10296  13.636   6.025  14.630 -0.0318  0.1306 -0.0516
  430BOLB   NC110297  12.975   2.009  16.583  0.2301 -0.2245 -0.2793
  430BOLB   PO110298  12.929   2.428  16.603  0.0386 -0.2556 -0.0574
  430BOLB   GL110299  12.585   2.584  16.419 -0.4361 -0.3654  0.0254
  430BOLB   GL210300  12.404   2.651  16.658 -0.0656  0.0681 -0.0358
  430BOLB   C1A10301  12.313   2.375  16.155  0.0330  0.1361 -0.0164
  430BOLB   C2A10302  11.980   2.331  15.850  0.2978  0.4532 -0.0981
  430BOLB   C3A10303  11.805   2.373  15.464  0.0589  0.0858  0.1418
  430BOLB   C4A10304  11.619   2.620  15.187 -0.2280  0.2138  0.1690
  430BOLB   C1B10305  12.220   2.892  16.377 -0.0909  0.0950  0.0418
  430BOLB   C2B10306  12.045   3.213  16.107  0.1914  0.5043  0.1187
  430BOLB   C3B10307  12.125   3.560  15.855 -0.1431 -0.1646  0.4271
  430BOLB   C4B10308  12.314   3.909  15.539 -0.0573 -0.1018 -0.3171
  430BOLB   NC210309  11.653   3.777  12.727  0.1448  0.1143 -0.1824
  430BOLB   PO210310  12.089   3.671  12.913  0.0384  0.1259 -0.2134
  430BOLB   GL310311  11.985   3.497  13.284 -0.0370  0.2385  0.4224
  430BOLB   GL410312  12.154   3.658  13.452 -0.1332  0.4442  0.1578
  430BOLB   C1C10313  12.061   3.106  13.598 -0.3315 -0.2875 -0.4286
  430BOLB   C2C10314  12.093   2.880  14.020 -0.2852 -0.2268  0.1542
  430BOLB   C3C10315  12.010   2.572  14.368 -0.0164  0.1298 -0.0333
  430BOLB   C4C10316  11.718   2.643  14.737  0.1552 -0.2757  0.1850
  430BOLB   C1D10317  12.584   3.864  13.708  0.2628  0.0808  0.0483
  430BOLB   C2D10318  12.901   4.106  13.940 -0.2202  0.0472  0.1449
  430BOLB   C3D10319  12.855   4.139  14.345  0.0314 -0.1862  0.0095
  430BOLB   C4D10320  12.784   3.973  14.693 -0.2742 -0.2864  0.0853
  431BOLB   NC110321  20.952  -0.023  30.428  0.1382 -0.0692  0.3034
  431BOLB   PO110322  21.275   0.173  30.599  0.1981 -0.0833 -0.0642
  431BOLB   GL110323  21.384  -0.119  30.891 -0.0732 -0.0528 -0.0371
  431BOLB   GL210324  21.187   0.037  31.094  0.2456  0.1853 -0.0478
  431BOLB   C1A10325  21.537  -0.519  31.025  0.0758 -0.1551  0.0624
  431BOLB   C2A10326  21.515  -0.753  31.349 -0.0241  0.1363  0.0243
  431BOLB   C3A10327  21.494  -1.134  31.568 -0.3244  0.3102 -0.0260
  431BOLB   C4A10328  21.371  -1.591  31.595  0.1582  0.0158  0.0355
  431BOLB   C1B10329  21.530   0.269  31.233 -0.0285  0.1996  0.0202
  431BOLB   C2B10330  21.728   0.293  31.653  0.0159  0.1535  0.0080
  431BOLB   C3B10331  22.028   0.039  31.692 -0.5374  0.0923  0.0208
  431BOLB   C4B10332  22.511  -0.161  31.736  0.2911 -0.1049  0.2093
  431BOLB   NC210333  23.023  -3.218  32.769  0.3032 -0.1171  0.1117
  431BOLB   PO210334  22.764  -3.125  32.997 -0.1281 -0.1565  0.2100
  431BOLB   GL310335  22.449  -2.687  32.909  0.2867  0.0588 -0.0096
  431BOLB   GL410336  22.112  -2.555  32.972  0.2622 -0.1869  0.0472
  431BOLB   C1C10337  22.192  -2.591  32.529  0.0177  0.0166  0.1483
  431BOLB   C2C10338  21.867  -2.701  32.151  0.1218  0.3062  0.0151
  431BOLB   C3C10339  21.697  -2.356  31.973 -0.3420  0.0354 -0.1751
  431BOLB   C4C10340  21.463  -1.914  31.903 -0.0598  0.0650  0.2049
  431BOLB   C1D10341  21.760  -2.599  32.782  0.0458 -0.2338  0.0732
  431BOLB   C2D10342  21.493  -2.330  32.509 -0.3910  0.2485  0.1175
  431BOLB   C3D10343  21.097  -2.168  32.342 -0.2118 -0.0105  0.2160
  431BOLB   C4D10344  20.831  -1.913  32.241 -0.2965  0.1522 -0.1222
  432BOLB   NC110345   8.575   4.060  29.944 -0.2246 -0.1057 -0.1316
  432BOLB   PO110346   8.428   3.655  29.997 -0.0981 -0.0431 -0.3567
  432BOLB   GL110347   8.165   3.603  30.140  0.0752  0.0766 -0.2759
  432BOLB   GL210348   8.115   3.337  30.382 -0.1913 -0.1921 -0.1151
  432BOLB   C1A10349   7.701   3.550  30.165  0.2069 -0.0341 -0.2145
  432BOLB   C2A10350   7.159   3.571  30.138 -0.1307 -0.1918 -0.0291
  432BOLB   C3A10351   6.809   3.357  30.090 -0.0332 -0.1082 -0.1260
  432BOLB   C4A10352   6.561   3.106  30.362 -0.0752 -0.2123  0.2871
  432BOLB   C1B10353   7.809   3.366  30.657 -0.1297  0.3107  0.1331
  432BOLB   C2B10354   7.654   3.328  31.037 -0.0281  0.0749  0.0512
  432BOLB   C3B10355   7.346   3.215  31.387  0.2054  0.0158  0.1058
  432BOLB   C4B10356   7.044   3.038  31.784  0.3705  0.3546  0.1946
  432BOLB   NC210357   3.951   2.932  30.810 -0.0319 -0.2485 -0.0098
  432BOLB   PO210358   4.124   2.447  30.693 -0.0021  0.0765 -0.0002
  432BOLB   GL310359   4.423   2.727  30.698 -0.1256 -0.4021 -0.1337
  432BOLB   GL410360   4.587   2.842  30.455 -0.0613  0.0096 -0.0823
  432BOLB   C1C10361   4.951   2.544  30.622  0.2282  0.2107 -0.1949
  432BOLB   C2C10362   5.349   2.696  30.300  0.0024 -0.2993 -0.2049
  432BOLB   C3C10363   5.782   2.804  30.129 -0.0335 -0.1855 -0.0542
  432BOLB   C4C10364   6.173   2.840  30.275  0.1894  0.1296  0.0271
  432BOLB   C1D10365   5.074   3.123  30.485 -0.3853 -0.0282 -0.0939
  432BOLB   C2D10366   5.477   3.237  30.254  0.2158  0.0258 -0.1973
  432BOLB   C3D10367   5.907   3.274  30.168 -0.0897 -0.0267  0.0142
  432BOLB   C4D10368   6.304   3.372  29.991 -0.0374 -0.0853  0.0308
  433BOLB   NC110369  11.124  -3.156  22.097 -0.0995  0.1429  0.0885
  433BOLB   PO110370  11.274  -3.298  21.751 -0.1863  0.3474 -0.0728
  433BOLB   GL110371  11.304  -3.680  21.483  0.0425 -0.0179 -0.1957
  433BOLB   GL210372  11.442  -3.536  21.217 -0.2224  0.2838 -0.2986
  433BOLB   C1A10373  11.175  -4.152  21.456  0.1403  0.2954  0.0676
  433BOLB   C2A10374  10.851  -4.464  21.544 -0.0886 -0.1721  0.1531
  433BOLB   C3A10375  10.439  -4.736  21.369 -0.1739  0.2054  0.2943
  433BOLB   C4A10376  10.534  -4.893  20.961  0.0497  0.3696 -0.0895
  433BOLB   C1B10377  11.261  -3.866  20.972  0.0486 -0.2585  0.2558
  433BOLB   C2B10378  11.116  -4.299  20.771 -0.1372  0.2858  0.2207
  433BOLB   C3B10379  10.905  -4.670  20.721 -0.1101  0.0324 -0.0344
  433BOLB   C4B10380  11.159  -4.986  20.587 -0.1303 -0.2172  0.0391
  433BOLB   NC210381  10.393  -7.093  19.105 -0.0292 -0.0278  0.0049
  433BOLB   PO210382  10.253  -7.028  19.592  0.0260  0.2236  0.2154
  433BOLB   GL310383  10.245  -6.706  19.834 -0.2617  0.1990  0.3151
  433BOLB   GL410384  10.352  -6.989  20.072 -0.1828  0.0419 -0.1470
  433BOLB   C1C10385  10.175  -6.338  20.194  0.3427 -0.2453 -0.1521
  433BOLB   C2C10386  10.242  -5.910  20.366  0.3070 -0.2362 -0.1735
  433BOLB   C3C10387  10.350  -5.522  20.452  0.0164 -0.1245 -0.2134
  433BOLB   C4C10388  10.484  -5.179  20.723  0.1336 -0.4303 -0.1816
  433BOLB   C1D10389  10.615  -6.657  20.165 -0.1373  0.0413  0.0569
  433BOLB   C2D10390  10.658  -6.392  20.468  0.0739  0.1352  0.2187
  433BOLB   C3D10391  10.767  -5.880  20.480  0.5450 -0.3107 -0.1106
  433BOLB   C4D10392  10.931  -5.420  20.508 -0.1659  0.0201  0.2498
  434BOLB   NC110393  13.553  -1.542  12.778  0.2573  0.1113 -0.0915
  434BOLB   PO110394  13.584  -1.816  13.188 -0.3276  0.3379  0.1165
  434BOLB   GL110395  13.726  -1.871  13.645  0.3164 -0.4275 -0.4456
  434BOLB   GL210396  13.945  -1.565  13.540 -0.1851 -0.0443  0.0782
  434BOLB   C1A10397  13.753  -1.630  14.102  0.1940  0.1409 -0.0657
  434BOLB   C2A10398  14.133  -1.493  14.348 -0.0916  0.0692  0.0223
  434BOLB   C3A10399  14.496  -1.319  14.510 -0.1112  0.1339 -0.4431
  434BOLB   C4A10400  14.953  -1.620  14.414  0.1959 -0.1516 -0.3521
  434BOLB   C1B10401  14.280  -1.281  13.413  0.2621 -0.3264 -0.2070
  434BOLB   C2B10402  14.637  -1.127  13.640 -0.0760  0.0541  0.3717
  434BOLB   C3B10403  14.917  -1.267  13.946 -0.2331 -0.0491  0.0560
  434BOLB   C4B10404  15.045  -1.054  14.294 -0.0993 -0.2233  0.1149
  434BOLB   NC210405  14.064  -3.027  12.575  0.0440  0.1146  0.0001
  434BOLB   PO210406  14.402  -2.665  12.537 -0.0445 -0.0780 -0.0528
  434BOLB   GL310407  14.645  -2.646  12.903 -0.0378  0.1332 -0.2707
  434BOLB   GL410408  14.499  -2.398  12.969  0.4264 -0.0422 -0.3217
  434BOLB   C1C10409  14.949  -2.688  13.237  0.0284  0.0209 -0.3000
  434BOLB   C2C10410  15.109  -2.635  13.658 -0.1184  0.0172  0.0721
  434BOLB   C3C10411  15.184  -2.200  13.715  0.0604 -0.0504  0.0310
  434BOLB   C4C10412  15.030  -1.808  13.923 -0.3513  0.2087 -0.0457
  434BOLB   C1D10413  14.804  -2.222  13.267  0.1864 -0.1353 -0.2973
  434BOLB   C2D10414  14.999  -1.801  13.292 -0.0774 -0.2703 -0.0307
  434BOLB   C3D10415  15.033  -1.406  13.444 -0.0513 -0.1549  0.4071
  434BOLB   C4D10416  15.400  -1.210  13.638  0.1407 -0.0917 -0.0515
  435BOLB   NC110417  23.178   5.130  14.236 -0.1400 -0.0704 -0.0948
  435BOLB   PO110418  22.816   5.072  13.998 -0.2268  0.2474  0.0370
  435BOLB   GL110419  22.513   4.719  14.112 -0.1637  0.2561  0.2435
  435BOLB   GL210420  22.222   4.689  14.097  0.0329 -0.1459  0.0380
  435BOLB   C1A10421  22.424   4.472  14.517  0.0510 -0.0342  0.3014
  435BOLB   C2A10422  22.314   4.187  14.817  0.1583 -0.2388  0.0630
  435BOLB   C3A10423  22.274   3.779  14.735 -0.1039 -0.1136  0.0291
  435BOLB   C4A10424  22.198   3.418  14.327  0.2319 -0.2554  0.1323
  435BOLB   C1B10425  22.004   4.466  14.247 -0.1684 -0.5250 -0.0006
  435BOLB   C2B10426  21.868   4.269  14.560 -0.1382  0.0265 -0.0247
  435BOLB   C3B10427  21.797   4.095  14.948  0.3031 -0.2478  0.0553
  435BOLB   C4B10428  21.473   4.050  15.240 -0.1660 -0.0578 -0.1117
  435BOLB   NC210429  23.339   3.588  13.215  0.1036  0.2063  0.3310
  435BOLB   PO210430  23.667   3.561  13.331  0.0187  0.4870  0.0239
  435BOLB   GL310431  23.574   3.388  13.625 -0.1305 -0.0710  0.0731
  435BOLB   GL410432  23.649   3.130  13.824  0.0560 -0.0190 -0.0188
  435BOLB   C1C10433  23.251   3.432  13.947  0.2204 -0.0485 -0.0424
  435BOLB   C2C10434  23.129   3.130  14.074  0.0557 -0.2604 -0.0387
  435BOLB   C3C10435  22.753   3.029  14.027  0.1710  0.3510 -0.0007
  435BOLB   C4C10436  22.364   3.062  14.193 -0.1783  0.0790  0.1080
  435BOLB   C1D10437  23.502   2.888  14.227 -0.3874 -0.0160  0.2052
  435BOLB   C2D10438  23.318   2.710  14.545  0.0846 -0.1581  0.0804
  435BOLB   C3D10439  23.155   2.514  14.856 -0.2188 -0.0592 -0.1802
  435BOLB   C4D10440  23.089   2.406  15.345  0.2663  0.0466  0.0310
  436BOLB   NC110441  16.409  -3.915  27.204 -0.0623  0.0300  0.0353
  436BOLB   PO110442  16.620  -3.847  27.591 -0.2218  0.1912  0.3212
  436BOLB   GL110443  16.788  -4.117  28.001 -0.0328 -0.0280  0.1270
  436BOLB   GL210444  17.061  -4.371  27.883 -0.1999 -0.0679 -0.3757
  436BOLB   C1A10445  16.692  -4.480  28.200 -0.0627  0.1882 -0.0998
  436BOLB   C2A10446  16.827  -4.903  28.353 -0.2162 -0.1845  0.2304
  436BOLB   C3A10447  17.116  -5.195  28.566  0.0719  0.1656  0.2286
  436BOLB   C4A10448  17.071  -5.648  28.730  0.3620  0.1172 -0.2733
  436BOLB   C1B10449  17.226  -4.767  28.129  0.0305 -0.1258  0.1478
  436BOLB   C2B10450  17.487  -5.079  28.149  0.0112  0.3292  0.1922
  436BOLB   C3B10451  17.741  -5.340  28.123  0.0532 -0.3020 -0.2105
  436BOLB   C4B10452  18.063  -5.637  28.183 -0.1073 -0.1515 -0.1752
  436BOLB   NC210453  17.783  -7.498  30.104 -0.0696  0.1396  0.1070
  436BOLB   PO210454  17.807  -7.355  29.706 -0.1834 -0.0662  0.2865
  436BOLB   GL310455  17.431  -7.161  29.416  0.0244  0.0804 -0.1563
  436BOLB   GL410456  17.050  -7.171  29.667  0.0455 -0.0501 -0.1600
  436BOLB   C1C10457  17.166  -6.836  29.257 -0.0066  0.1208 -0.1875
  436BOLB   C2C10458  16.835  -6.633  29.163  0.0766 -0.3841 -0.0807
  436BOLB   C3C10459  16.656  -6.301  28.991 -0.3966  0.0169 -0.1706
  436BOLB   C4C10460  16.842  -6.024  28.738 -0.1554  0.2636  0.2558
  436BOLB   C1D10461  17.348  -6.771  29.733  0.2287  0.0599 -0.0108
  436BOLB   C2D10462  17.312  -6.348  29.778  0.0218 -0.1734 -0.4557
  436BOLB   C3D10463  17.089  -5.937  29.814 -0.0343  0.4899 -0.1797
  436BOLB   C4D10464  16.985  -5.544  29.525 -0.0061  0.1910 -0.0240
  437BOLB   NC110465  17.557   7.471  33.493  0.1964 -0.2520  0.0775
  437BOLB   PO110466  17.966   7.246  33.532 -0.0865  0.0880  0.2162
  437BOLB   GL110467  17.940   7.226  33.882 -0.2686 -0.0636  0.0444
  437BOLB   GL210468  17.626   7.441  33.979 -0.0193  0.1370  0.1409
  437BOLB   C1A10469  17.965   7.448  34.375  0.0008 -0.0178  0.2150
  437BOLB   C2A10470  17.945   7.589  34.653 -0.3927 -0.0300 -0.0029
  437BOLB   C3A10471  18.105   7.539  35.074  0.1213 -0.0426  0.1053
  437BOLB   C4A10472  18.001   7.469  35.446  0.0896 -0.0031  0.0445
  437BOLB   C1B10473  17.518   7.715  34.363 -0.2377  0.0781 -0.0645
  437BOLB   C2B10474  17.646   8.127  34.502 -0.1287 -0.0135 -0.0400
  437BOLB   C3B10475  17.740   8.339  34.908  0.1456 -0.1159  0.3055
  437BOLB   C4B10476  17.626   8.791  34.972  0.1091  0.2738  0.0201
  437BOLB   NC210477  20.237   7.924  36.727 -0.4458  0.1804  0.2324
  437BOLB   PO210478  19.966   7.645  36.572 -0.2671  0.3372 -0.1426
  437BOLB   GL310479  19.628   7.545  36.340 -0.0808 -0.0141  0.1418
  437BOLB   GL410480  19.638   7.444  36.049  0.1314  0.2105 -0.3383
  437BOLB   C1C10481  19.091   7.342  36.559  0.0808  0.1911 -0.0825
  437BOLB   C2C10482  18.645   7.202  36.521  0.1584 -0.3067  0.0656
  437BOLB   C3C10483  18.343   7.051  36.165  0.0806  0.0914 -0.0656
  437BOLB   C4C10484  18.181   7.321  35.821  0.2266 -0.4221  0.0100
  437BOLB   C1D10485  19.598   7.844  35.795  0.1861  0.1327 -0.0608
  437BOLB   C2D10486  19.724   7.877  35.482  0.1190 -0.0835 -0.4703
  437BOLB   C3D10487  19.697   8.121  35.233  0.2138  0.2557 -0.1657
  437BOLB   C4D10488  19.787   8.093  34.744 -0.1439  0.0115  0.3349
  438BOLB   NC110489  15.627  10.506  20.567 -0.1078  0.0098  0.2933
  438BOLB   PO110490  15.575  10.349  20.168  0.0788  0.1685 -0.0013
  438BOLB   GL110491  15.506  10.652  19.964  0.0281 -0.2652 -0.0419
  438BOLB   GL210492  15.613  10.886  20.103  0.2904 -0.2972  0.2330
  438BOLB   C1A10493  15.343  10.954  19.658 -0.0230 -0.1540 -0.0188
  438BOLB   C2A10494  15.404  11.379  19.630 -0.0869  0.3551  0.0909
  438BOLB   C3A10495  15.584  11.777  19.542 -0.4088 -0.2576 -0.0227
  438BOLB   C4A10496  15.560  12.245  19.605 -0.3647 -0.0743 -0.0290
  438BOLB   C1B10497  15.791  11.236  20.040 -0.0149 -0.0070  0.0217
  438BOLB   C2B10498  15.923  11.705  19.978 -0.0017 -0.2361 -0.2309
  438BOLB   C3B10499  16.048  12.097  19.730  0.3108  0.1323 -0.0451
  438BOLB   C4B10500  16.211  12.523  19.504 -0.0612 -0.0310 -0.1397
  438BOLB   NC210501  15.125  14.481  19.586  0.1177 -0.1929  0.1416
  438BOLB   PO210502  15.379  14.370  19.333  0.0370  0.2024  0.3033
  438BOLB   GL310503  15.306  13.950  19.376 -0.0300 -0.1402 -0.1658
  438BOLB   GL410504  15.732  13.960  19.545 -0.1378  0.2134 -0.0193
  438BOLB   C1C10505  15.149  13.549  19.332 -0.1314  0.0035  0.2007
  438BOLB   C2C10506  15.017  13.175  19.241  0.0242  0.3105 -0.2349
  438BOLB   C3C10507  14.960  12.743  19.322 -0.0067  0.0780 -0.1296
  438BOLB   C4C10508  15.354  12.626  19.424  0.1971 -0.0599 -0.2176
  438BOLB   C1D10509  15.525  13.652  19.722  0.0312 -0.2377 -0.1459
  438BOLB   C2D10510  15.502  13.639  20.180 -0.2514 -0.1305 -0.1241
  438BOLB   C3D10511  15.419  13.743  20.586 -0.0716 -0.2513 -0.0931
  438BOLB   C4D10512  15.207  13.503  20.828 -0.1268  0.1280  0.2353
  439BOLB   NC110513   8.229   4.801  30.150 -0.0146  0.4453 -0.2339
  439BOLB   PO110514   8.664   4.496  30.094  0.1088 -0.0722 -0.3235
  439BOLB   GL110515   8.366   4.338  30.430 -0.1253  0.0954 -0.0028
  439BOLB   GL210516   8.425   4.038  30.390 -0.1530 -0.3354 -0.3962
  439BOLB   C1A10517   7.988   4.205  30.380 -0.1228 -0.2880 -0.0477
  439BOLB   C2A10518   7.729   4.279  30.706 -0.0616  0.0065 -0.0107
  439BOLB   C3A10519   7.322   4.224  30.925  0.5112 -0.0100 -0.0088
  439BOLB   C4A10520   7.031   4.019  30.877  0.1747 -0.0739 -0.2796
  439BOLB   C1B10521   8.075   3.852  30.679 -0.4671  0.0598  0.1690
  439BOLB   C2B10522   7.789   3.787  31.009  0.3737  0.3394  0.1670
  439BOLB   C3B10523   7.397   3.847  31.280 -0.1140  0.1118 -0.0666
  439BOLB   C4B10524   7.185   4.103  31.636 -0.0743  0.0867  0.0494
  439BOLB   NC210525   4.888   3.238  32.019 -0.0107 -0.1877  0.0724
  439BOLB   PO210526   4.751   3.577  31.734 -0.1778  0.0535  0.1241
  439BOLB   GL310527   5.120   3.334  31.559  0.0316  0.1144  0.1503
  439BOLB   GL410528   5.121   3.069  31.351  0.1037 -0.2348 -0.0977
  439BOLB   C1C10529   5.457   3.474  31.342  0.2750 -0.2910  0.0281
  439BOLB   C2C10530   5.707   3.358  31.109  0.0952  0.1846 -0.2040
  439BOLB   C3C10531   6.160   3.466  31.073  0.0261 -0.1239  0.0245
  439BOLB   C4C10532   6.615   3.781  30.947 -0.2473  0.2505 -0.0817
  439BOLB   C1D10533   5.345   3.041  31.115 -0.2364 -0.1834  0.1017
  439BOLB   C2D10534   5.587   3.041  30.735 -0.3625 -0.0683 -0.2989
  439BOLB   C3D10535   6.030   3.146  30.689 -0.2129 -0.0301  0.3438
  439BOLB   C4D10536   6.357   3.517  30.542  0.1224  0.1427  0.2194
  440BOLB   NC110537   7.652   4.294  27.453  0.1269  0.0078  0.0428
  440BOLB   PO110538   7.387   4.614  27.188  0.0103  0.5266  0.2926
  440BOLB   GL110539   7.124   4.501  27.472 -0.3425  0.2795  0.0091
  440BOLB   GL210540   6.779   4.343  27.332 -0.3016  0.2502 -0.1030
  440BOLB   C1A10541   6.886   4.514  27.792 -0.0723  0.0566 -0.1119
  440BOLB   C2A10542   6.406   4.336  27.899  0.2865 -0.1529 -0.1284
  440BOLB   C3A10543   6.079   4.401  27.895 -0.1348 -0.2294 -0.0649
  440BOLB   C4A10544   5.748   4.530  27.661 -0.1156  0.1754  0.0117
  440BOLB   C1B10545   6.357   4.363  27.206 -0.2781  0.3428  0.3732
  440BOLB   C2B10546   6.056   4.214  27.340  0.0084  0.2256 -0.0685
  440BOLB   C3B10547   5.607   4.189  27.259  0.2859 -0.2601 -0.1269
  440BOLB   C4B10548   5.358   4.497  27.095 -0.3188 -0.3358 -0.0188
  440BOLB   NC210549   3.075   4.838  27.751 -0.2154  0.0694 -0.0022
  440BOLB   PO210550   3.214   4.485  27.858  0.0291 -0.0968 -0.2201
  440BOLB   GL310551   3.582   4.520  27.926 -0.1582 -0.0235 -0.2469
  440BOLB   GL410552   3.607   4.857  27.997 -0.1312  0.2537 -0.2479
  440BOLB   C1C10553   3.986   4.308  28.023 -0.1894 -0.2327  0.0510
  440BOLB   C2C10554   4.470   4.327  27.914 -0.3032 -0.1818 -0.3585
  440BOLB   C3C10555   4.926   4.499  27.850  0.0844  0.3884  0.0961
  440BOLB   C4C10556   5.313   4.715  27.661  0.4770  0.1108 -0.0708
  440BOLB   C1D10557   3.841   4.838  27.670 -0.1098  0.1124 -0.1720
  440BOLB   C2D10558   4.215   4.635  27.480 -0.0925 -0.1504  0.0188
  440BOLB   C3D10559   4.679   4.589  27.370  0.0296 -0.2441 -0.1988
  440BOLB   C4D10560   4.977   4.750  27.205 -0.1199  0.1061 -0.1890
  441BOLB   NC110561   9.568   8.989  22.717  0.2620 -0.1728 -0.3705
  441BOLB   PO110562   9.628   9.407  22.794  0.1234  0.1291 -0.0285
  441BOLB   GL110563   9.298   9.618  22.702  0.0327  0.1068 -0.0458
  441BOLB   GL210564   9.161   9.770  22.450 -0.2636 -0.1910 -0.3772
  441BOLB   C1A10565   9.205  10.087  22.855  0.0449 -0.4141 -0.0821
  441BOLB   C2A10566   8.851  10.377  22.785  0.3055  0.0018  0.1595
  441BOLB   C3A10567   8.593  10.539  22.500  0.3136  0.2351  0.0254
  441BOLB   C4A10568   8.248  10.835  22.265  0.0505 -0.0249  0.1210
  441BOLB   C1B10569   8.832   9.852  22.665  0.0441  0.1947  0.0314
  441BOLB   C2B10570   8.431   9.641  22.618  0.0881 -0.1939 -0.1564
  441BOLB   C3B10571   8.037   9.443  22.583  0.0002  0.2015 -0.0927
  441BOLB   C4B10572   7.696   9.403  22.767 -0.0837 -0.1376 -0.2478
  441BOLB   NC210573   7.297  12.218  20.919  0.2052  0.1523  0.0613
  441BOLB   PO210574   7.132  11.817  20.584  0.1669 -0.1679  0.1390
  441BOLB   GL310575   7.378  11.655  20.857 -0.1223 -0.1145 -0.1038
  441BOLB   GL410576   7.488  11.846  21.138 -0.3486 -0.2412 -0.1456
  441BOLB   C1C10577   7.320  11.313  21.094  0.0402 -0.2267  0.4607
  441BOLB   C2C10578   7.676  11.211  21.344 -0.1009  0.3833 -0.3605
  441BOLB   C3C10579   7.839  11.138  21.695 -0.1993  0.2385  0.0848
  441BOLB   C4C10580   7.984  10.816  21.899  0.0873  0.2052 -0.0398
  441BOLB   C1D10581   7.442  11.690  21.524  0.2514 -0.3492 -0.0632
  441BOLB   C2D10582   7.272  11.594  21.953 -0.0951 -0.2790  0.3867
  441BOLB   C3D10583   7.085  11.763  22.289  0.0065 -0.0686 -0.3053
  441BOLB   C4D10584   7.182  11.716  22.733  0.2122  0.1984  0.2259
  442BOLB   NC110585  27.193  -2.711  17.125 -0.0838  0.0643  0.2062
  442BOLB   PO110586  26.890  -2.402  16.997  0.0334 -0.2614  0.0153
  442BOLB   GL110587  26.646  -2.623  16.758 -0.0109  0.2325  0.0539
  442BOLB   GL210588  26.553  -2.265  16.711  0.0326  0.2631  0.2423
  442BOLB   C1A10589  26.192  -2.703  16.780 -0.4891 -0.3041 -0.1359
  442BOLB   C2A10590  25.888  -2.897  16.930  0.0141  0.1787 -0.2184
  442BOLB   C3A10591  25.606  -2.996  17.249 -0.0369 -0.3031 -0.2922
  442BOLB   C4A10592  25.641  -3.293  17.572  0.1117  0.2445 -0.2485
  442BOLB   C1B10593  26.194  -2.261  16.392  0.0855 -0.0358 -0.1665
  442BOLB   C2B10594  25.809  -2.357  16.118 -0.0473  0.0082  0.3440
  442BOLB   C3B10595  25.447  -2.258  16.072 -0.1150  0.2080 -0.0262
  442BOLB   C4B10596  25.101  -1.957  15.996  0.0663 -0.2923  0.2862
  442BOLB   NC210597  26.779  -3.966  17.747  0.1668 -0.4204 -0.2484
  442BOLB   PO210598  26.490  -4.287  18.004  0.2269 -0.1134  0.1052
  442BOLB   GL310599  26.068  -4.396  17.924 -0.0338 -0.1296 -0.3133
  442BOLB   GL410600  26.031  -4.143  17.761  0.4718 -0.1819 -0.3686
  442BOLB   C1C10601  25.647  -4.458  17.938  0.0763 -0.0081  0.2298
  442BOLB   C2C10602  25.438  -4.149  18.121  0.3176  0.1177 -0.0153
  442BOLB   C3C10603  25.384  -3.840  18.128  0.0587  0.1335 -0.0874
  442BOLB   C4C10604  25.438  -3.678  17.780  0.1179 -0.0876 -0.0275
  442BOLB   C1D10605  25.913  -3.890  18.120  0.1839  0.0070 -0.2546
  442BOLB   C2D10606  25.891  -3.498  18.195 -0.0634  0.3255  0.2445
  442BOLB   C3D10607  25.797  -3.183  18.335  0.0132  0.2782  0.4307
  442BOLB   C4D10608  25.892  -2.726  18.492 -0.3907  0.1963 -0.1048
  443BOLB   NC110609  17.775  -2.414  28.794  0.1148 -0.2876 -0.1750
  443BOLB   PO110610  17.789  -2.489  29.167  0.0757  0.0697  0.5278
  443BOLB   GL110611  18.000  -2.848  29.275 -0.1136 -0.1365  0.1493
  443BOLB   GL210612  18.316  -3.121  29.151 -0.1823 -0.3520  0.3055
  443BOLB   C1A10613  18.110  -3.114  29.609  0.2427 -0.0744 -0.1733
  443BOLB   C2A10614  17.871  -3.383  29.872  0.2624  0.3650  0.0497
  443BOLB   C3A10615  17.713  -3.718  30.195  0.1234  0.1556  0.1223
  443BOLB   C4A10616  17.392  -4.146  30.279  0.0951  0.2833  0.2071
  443BOLB   C1B10617  18.835  -3.324  29.255  0.0398  0.0852  0.0103
  443BOLB   C2B10618  19.223  -3.599  29.401 -0.0360 -0.4402 -0.2668
  443BOLB   C3B10619  19.568  -3.598  29.728 -0.2310 -0.5581 -0.1221
  443BOLB   C4B10620  19.572  -3.429  30.165  0.3957  0.0386 -0.1905
  443BOLB   NC210621  18.097  -5.773  31.731  0.2509 -0.2633 -0.2481
  443BOLB   PO210622  18.396  -5.513  31.951 -0.0621  0.2357 -0.0085
  443BOLB   GL310623  18.356  -5.296  31.467  0.0548  0.1657  0.0228
  443BOLB   GL410624  18.532  -5.183  31.197  0.2576  0.0510 -0.4673
  443BOLB   C1C10625  18.071  -5.264  31.092  0.1261  0.0903 -0.1811
  443BOLB   C2C10626  17.665  -5.166  30.935  0.3682 -0.1275 -0.1047
  443BOLB   C3C10627  17.551  -4.979  30.655  0.2043  0.0330  0.2025
  443BOLB   C4C10628  17.403  -4.568  30.368  0.0675 -0.3223 -0.0426
  443BOLB   C1D10629  18.297  -4.899  30.924 -0.2518 -0.0726  0.0482
  443BOLB   C2D10630  17.918  -4.607  30.678  0.2653  0.0819 -0.3568
  443BOLB   C3D10631  17.899  -4.235  30.548  0.0847 -0.0133 -0.0215
  443BOLB   C4D10632  18.222  -4.068  30.435  0.0004 -0.0512 -0.0590
  444BOLB   NC110633  11.970  10.063  22.296 -0.4204 -0.0362 -0.0387
  444BOLB   PO110634  11.610  10.216  22.180 -0.0950 -0.1055 -0.3750
  444BOLB   GL110635  11.393  10.545  21.816  0.3337 -0.3230 -0.2215
  444BOLB   GL210636  11.094  10.613  21.987 -0.0674 -0.3547 -0.4606
  444BOLB   C1A10637  11.367  10.685  21.420 -0.0289 -0.1363  0.2345
  444BOLB   C2A10638  11.053  10.931  21.193 -0.4288 -0.0287 -0.0372
  444BOLB   C3A10639  10.968  11.333  21.036 -0.3625 -0.1482  0.3815
  444BOLB   C4A10640  10.722  11.576  20.826 -0.2705  0.1363 -0.1569
  444BOLB   C1B10641  10.940  10.998  21.870 -0.1418 -0.1307  0.2312
  444BOLB   C2B10642  11.029  11.322  21.593  0.1917  0.0297 -0.1589
  444BOLB   C3B10643  10.901  11.610  21.477 -0.3847 -0.0137  0.2979
  444BOLB   C4B10644  10.636  11.873  21.319 -0.1748 -0.0599  0.3088
  444BOLB   NC210645   9.158  13.136  19.105  0.0252 -0.0816  0.0128
  444BOLB   PO210646   9.031  12.835  19.567 -0.4134 -0.0022 -0.2139
  444BOLB   GL310647   9.433  12.629  19.754 -0.0272 -0.1731 -0.0570
  444BOLB   GL410648   9.356  12.384  19.504 -0.2321 -0.0617  0.1052
  444BOLB   C1C10649   9.666  12.488  20.068 -0.1418  0.0550 -0.3170
  444BOLB   C2C10650  10.112  12.435  20.267 -0.0370 -0.0950  0.1761
  444BOLB   C3C10651  10.463  12.404  20.552  0.0364 -0.0508  0.3351
  444BOLB   C4C10652  10.664  12.065  20.745 -0.3596  0.0932 -0.1941
  444BOLB   C1D10653   9.580  12.088  19.652  0.2385  0.0430  0.1042
  444BOLB   C2D10654   9.753  11.714  19.738  0.1967  0.1213  0.1602
  444BOLB   C3D10655   9.914  11.504  20.096  0.1841 -0.0820 -0.2259
  444BOLB   C4D10656  10.288  11.307  20.265 -0.1733 -0.1050  0.2006
  445BOLB   NC110657  19.489   9.647  30.841 -0.0288  0.0070 -0.2223
  445BOLB   PO110658  19.532   9.543  31.299  0.4445 -0.0857 -0.0679
  445BOLB   GL110659  19.823   9.656  31.616  0.3162  0.1108  0.0971
  445BOLB   GL210660  19.583   9.612  31.912 -0.2146  0.0620 -0.1912
  445BOLB   C1A10661  20.301   9.731  31.668 -0.2408 -0.1515  0.3028
  445BOLB   C2A10662  20.611   9.631  31.986  0.2605 -0.3345  0.0248
  445BOLB   C3A10663  20.906   9.781  32.294  0.1182  0.1031 -0.4721
  445BOLB   C4A10664  20.995  10.168  32.251 -0.3705 -0.1338  0.2166
  445BOLB   C1B10665  19.400   9.981  32.213  0.0416 -0.0749  0.3202
  445BOLB   C2B10666  19.394  10.226  32.474 -0.0367 -0.3820 -0.1725
  445BOLB   C3B10667  19.535  10.617  32.488  0.1494 -0.3095  0.0113
  445BOLB   C4B10668  19.556  11.069  32.693  0.0259 -0.1460  0.1476
  445BOLB   NC210669  20.841  12.172  33.735  0.2474  0.2914 -0.3514
  445BOLB   PO210670  21.163  12.100  33.476 -0.2222  0.1639 -0.0204
  445BOLB   GL310671  21.163  11.826  33.114  0.2410  0.3739 -0.0369
  445BOLB   GL410672  21.292  11.617  32.956  0.1470  0.2771  0.1262
  445BOLB   C1C10673  20.787  11.697  32.790  0.0339 -0.0950  0.1534
  445BOLB   C2C10674  20.725  11.333  32.485  0.1328 -0.0429 -0.1527
  445BOLB   C3C10675  20.710  10.842  32.443 -0.0955 -0.0869 -0.1122
  445BOLB   C4C10676  20.921  10.458  32.500  0.1558  0.3242  0.1160
  445BOLB   C1D10677  21.237  11.385  32.506 -0.2369 -0.2263 -0.2649
  445BOLB   C2D10678  21.174  11.039  32.246  0.0568  0.1859 -0.1166
  445BOLB   C3D10679  21.126  10.882  31.823  0.1990  0.0185  0.2375
  445BOLB   C4D10680  20.773  10.909  31.584 -0.1223  0.1742 -0.0027
  446BOLB   NC110681  23.260  -0.392  27.686 -0.0114  0.2611 -0.1426
  446BOLB   PO110682  22.978  -0.492  27.312 -0.0182 -0.1389  0.0816
  446BOLB   GL110683  23.365  -0.744  27.322 -0.2315 -0.0727  0.0752
  446BOLB   GL210684  23.646  -0.569  27.421 -0.1870 -0.0634 -0.1096
  446BOLB   C1A10685  23.528  -1.033  27.692 -0.0428  0.1357 -0.1345
  446BOLB   C2A10686  23.910  -1.273  27.818 -0.0767 -0.3345 -0.1368
  446BOLB   C3A10687  24.139  -1.507  27.642  0.2655 -0.0254 -0.0341
  446BOLB   C4A10688  24.370  -1.610  27.353 -0.2232  0.2326  0.0108
  446BOLB   C1B10689  23.898  -0.962  27.320  0.0338 -0.0739 -0.0553
  446BOLB   C2B10690  24.257  -1.125  27.310 -0.0334 -0.2508 -0.0895
  446BOLB   C3B10691  24.696  -1.181  27.354  0.2092  0.3011 -0.0926
  446BOLB   C4B10692  24.995  -1.336  27.560  0.0700  0.0250  0.1459
  446BOLB   NC210693  26.421  -2.901  27.708 -0.2332 -0.0594  0.1082
  446BOLB   PO210694  26.294  -2.905  28.124 -0.2764 -0.1137 -0.0290
  446BOLB   GL310695  25.952  -2.699  27.944 -0.0731  0.1950  0.0629
  446BOLB   GL410696  25.860  -2.905  27.650  0.0962  0.0565  0.2653
  446BOLB   C1C10697  25.498  -2.707  27.948  0.3716  0.0364  0.0549
  446BOLB   C2C10698  25.182  -2.298  27.889 -0.0512  0.0659 -0.0284
  446BOLB   C3C10699  25.024  -1.902  27.667 -0.0165 -0.3130 -0.2388
  446BOLB   C4C10700  24.726  -1.878  27.463  0.0127 -0.0933 -0.1947
  446BOLB   C1D10701  25.453  -2.706  27.380 -0.1871  0.1295 -0.2596
  446BOLB   C2D10702  25.234  -2.561  27.088 -0.0135 -0.0542  0.0448
  446BOLB   C3D10703  24.827  -2.498  26.845 -0.0730  0.3176  0.3275
  446BOLB   C4D10704  24.416  -2.409  26.782 -0.1950  0.0071 -0.1898
  447BOLB   NC110705  20.134   9.883  20.663  0.3312 -0.2997  0.2587
  447BOLB   PO110706  20.106   9.435  20.541 -0.1202  0.0266 -0.0076
  447BOLB   GL110707  20.383   9.563  20.224  0.0069 -0.4190  0.0298
  447BOLB   GL210708  20.197   9.908  20.126  0.2112 -0.3162 -0.0641
  447BOLB   C1A10709  20.661   9.832  19.911 -0.2371  0.1290  0.2817
  447BOLB   C2A10710  21.007   9.846  19.669  0.2087 -0.2140 -0.1388
  447BOLB   C3A10711  21.258  10.202  19.501 -0.1584 -0.2184  0.8380
  447BOLB   C4A10712  21.103  10.491  19.080 -0.0369 -0.2909 -0.0225
  447BOLB   C1B10713  20.418  10.278  20.028  0.1776  0.3220  0.1562
  447BOLB   C2B10714  20.485  10.694  20.203 -0.2086 -0.0276 -0.3543
  447BOLB   C3B10715  20.395  10.958  20.475  0.2115 -0.1438  0.0825
  447BOLB   C4B10716  20.814  11.035  20.875 -0.2519  0.0061 -0.2341
  447BOLB   NC210717  22.025  10.566  16.751  0.1012 -0.1431  0.0239
  447BOLB   PO210718  22.037  10.873  17.028 -0.2099  0.0979 -0.0086
  447BOLB   GL310719  21.862  10.839  17.438  0.2237 -0.2440  0.1337
  447BOLB   GL410720  21.571  10.670  17.314  0.1220  0.1364 -0.1694
  447BOLB   C1C10721  21.826  10.681  17.769 -0.3487 -0.0268  0.1554
  447BOLB   C2C10722  21.669  10.930  18.070  0.1590  0.0564 -0.1444
  447BOLB   C3C10723  21.435  10.894  18.468 -0.1582 -0.1566  0.1117
  447BOLB   C4C10724  21.410  10.736  18.757 -0.2082  0.0437  0.2594
  447BOLB   C1D10725  21.307  10.564  17.666 -0.1726 -0.1759 -0.2009
  447BOLB   C2D10726  20.903  10.581  17.790 -0.0714 -0.0975  0.0395
  447BOLB   C3D10727  20.553  10.235  17.882  0.3738 -0.0957  0.2792
  447BOLB   C4D10728  20.323   9.951  17.932  0.0457  0.2028 -0.2681
  448BOLB   NC110729  24.105   3.526  28.800 -0.2142 -0.0330 -0.4413
  448BOLB   PO110730  24.429   3.572  28.498  0.2778  0.1532  0.2028
  448BOLB   GL110731  24.845   3.636  28.442  0.1702  0.1117 -0.0494
  448BOLB   GL210732  24.914   3.495  28.796  0.0864  0.2691 -0.0217
  448BOLB   C1A10733  25.223   3.747  28.556 -0.2612 -0.0396 -0.0468
  448BOLB   C2A10734  25.651   3.722  28.883 -0.1667 -0.0588 -0.1323
  448BOLB   C3A10735  26.020   3.818  28.962  0.1903  0.0618  0.0692
  448BOLB   C4A10736  26.388   3.730  28.783  0.0089  0.0664 -0.0572
  448BOLB   C1B10737  25.182   3.726  29.110  0.1937  0.0802  0.1583
  448BOLB   C2B10738  25.530   3.874  29.431  0.0250 -0.1363 -0.3560
  448BOLB   C3B10739  25.892   3.725  29.499  0.1102  0.1860 -0.1095
  448BOLB   C4B10740  26.289   3.722  29.719  0.0389  0.1484  0.1574
  448BOLB   NC210741  28.657   3.726  29.881  0.1460  0.0532  0.0495
  448BOLB   PO210742  28.523   3.533  29.584 -0.0960 -0.3278  0.2696
  448BOLB   GL310743  28.146   3.803  29.568  0.0704 -0.0461  0.0159
  448BOLB   GL410744  28.128   4.186  29.580 -0.0151  0.1160 -0.0017
  448BOLB   C1C10745  27.920   3.763  29.175  0.1279 -0.0214  0.2357
  448BOLB   C2C10746  27.530   3.770  28.975  0.1339 -0.1028  0.0873
  448BOLB   C3C10747  27.151   3.849  28.744  0.0200 -0.0009 -0.1831
  448BOLB   C4C10748  26.738   3.852  28.655  0.1880  0.4854  0.1293
  448BOLB   C1D10749  27.738   4.244  29.529  0.1185  0.0575  0.0991
  448BOLB   C2D10750  27.330   4.225  29.291  0.1655  0.0610  0.1807
  448BOLB   C3D10751  26.916   4.205  29.215  0.0546 -0.2490 -0.0688
  448BOLB   C4D10752  26.571   4.041  29.167 -0.0921  0.3255  0.4037
  449BOLB   NC110753  12.703  -3.867  21.596  0.0630 -0.0203 -0.0299
  449BOLB   PO110754  12.733  -4.016  21.989 -0.0186  0.1367  0.1652
  449BOLB   GL110755  12.565  -4.423  22.037  0.3231 -0.3289  0.1110
  449BOLB   GL210756  12.388  -4.536  22.227  0.1011 -0.0357  0.0345
  449BOLB   C1A10757  12.603  -4.761  21.859 -0.0178 -0.1753  0.2929
  449BOLB   C2A10758  12.453  -5.052  21.452  0.2612  0.1463  0.0370
  449BOLB   C3A10759  12.323  -5.313  21.098 -0.0207 -0.1333  0.1407
  449BOLB   C4A10760  12.202  -5.653  20.928 -0.1662  0.1804 -0.3419
  449BOLB   C1B10761  12.164  -4.791  22.124 -0.1765  0.0705  0.0726
  449BOLB   C2B10762  12.204  -5.189  21.873  0.3356  0.1765 -0.0724
  449BOLB   C3B10763  12.398  -5.607  21.580 -0.0904  0.0867 -0.1261
  449BOLB   C4B10764  12.365  -5.862  21.286  0.1145  0.5070 -0.0941
  449BOLB   NC210765  12.130  -7.526  19.893 -0.0158 -0.2113 -0.0439
  449BOLB   PO210766  11.668  -7.617  20.096  0.3390  0.2902  0.2640
  449BOLB   GL310767  11.962  -7.451  20.347  0.0963 -0.1794 -0.0283
  449BOLB   GL410768  12.174  -7.508  20.386 -0.3860  0.4941  0.1275
  449BOLB   C1C10769  11.928  -7.381  20.773  0.3160 -0.2298  0.2939
  449BOLB   C2C10770  11.799  -6.945  20.940  0.0055  0.0230 -0.2911
  449BOLB   C3C10771  12.006  -6.574  20.969 -0.3227  0.1532 -0.0909
  449BOLB   C4C10772  12.133  -6.157  20.962 -0.1700 -0.4892 -0.0319
  449BOLB   C1D10773  12.409  -7.386  20.695  0.1492  0.0391  0.1865
  449BOLB   C2D10774  12.774  -7.093  20.729  0.0062  0.1686 -0.1956
  449BOLB   C3D10775  12.963  -6.636  20.677  0.3949 -0.0052 -0.0393
  449BOLB   C4D10776  12.978  -6.202  20.610 -0.2244  0.1471  0.0073
  450BOLB   NC110777  17.280   5.212  33.479 -0.0297 -0.1114 -0.1597
  450BOLB   PO110778  16.898   5.437  33.751 -0.2124 -0.5136 -0.0944
  450BOLB   GL110779  16.868   5.286  34.090 -0.0714 -0.3231 -0.0359
  450BOLB   GL210780  16.962   5.497  34.393 -0.2014 -0.1363 -0.1965
  450BOLB   C1A10781  17.207   5.013  34.302  0.1098  0.1740 -0.0067
  450BOLB   C2A10782  17.281   4.894  34.715  0.1523  0.5870 -0.0855
  450BOLB   C3A10783  17.518   5.031  35.046  0.2719  0.1065  0.1537
  450BOLB   C4A10784  17.575   5.202  35.426 -0.3993  0.0194  0.2478
  450BOLB   C1B10785  16.547   5.554  34.569  0.0099 -0.1030  0.0071
  450BOLB   C2B10786  16.511   5.683  34.885  0.1055 -0.1161  0.1213
  450BOLB   C3B10787  16.641   5.555  35.227 -0.2183  0.2554 -0.0817
  450BOLB   C4B10788  16.638   5.264  35.537 -0.1948  0.4887 -0.1675
  450BOLB   NC210789  18.933   6.545  37.657  0.2409  0.1856  0.4319
  450BOLB   PO210790  18.879   6.107  37.406 -0.1329  0.2108  0.1190
  450BOLB   GL310791  18.462   6.187  37.149 -0.2075 -0.2479 -0.1599
  450BOLB   GL410792  18.610   6.271  36.804 -0.0855 -0.0031  0.0294
  450BOLB   C1C10793  18.224   5.931  36.878 -0.0077  0.1153  0.1323
  450BOLB   C2C10794  17.876   5.716  36.598 -0.1104  0.2148 -0.2821
  450BOLB   C3C10795  17.748   5.523  36.224  0.0589 -0.3327 -0.2604
  450BOLB   C4C10796  17.549   5.309  35.870 -0.0414 -0.3056  0.0379
  450BOLB   C1D10797  18.681   5.855  36.612 -0.0381  0.0258 -0.2981
  450BOLB   C2D10798  18.698   5.785  36.135  0.2253 -0.0420 -0.4984
  450BOLB   C3D10799  18.685   6.134  35.809  0.0006 -0.0535  0.0222
  450BOLB   C4D10800  18.476   6.187  35.439  0.1552 -0.1964 -0.0462
  451BOLB   NC110801  12.115  -0.182  31.635 -0.3951 -0.0297  0.1204
  451BOLB   PO110802  12.540  -0.017  31.600  0.2342 -0.2658  0.0219
  451BOLB   GL110803  12.540  -0.288  31.931 -0.3893  0.1990 -0.2149
  451BOLB   GL210804  12.800  -0.444  32.184  0.0215  0.5321 -0.1624
  451BOLB   C1A10805  12.155  -0.459  32.214  0.0119  0.2428 -0.0371
  451BOLB   C2A10806  11.768  -0.621  32.127  0.0848  0.2131 -0.0712
  451BOLB   C3A10807  11.437  -0.914  32.175  0.1189  0.1406 -0.4987
  451BOLB   C4A10808  11.430  -1.453  32.356 -0.4586 -0.0885  0.1831
  451BOLB   C1B10809  12.801  -0.864  32.460 -0.1094 -0.0200  0.1014
  451BOLB   C2B10810  12.432  -1.074  32.612 -0.1143  0.0217  0.1017
  451BOLB   C3B10811  12.288  -1.573  32.793  0.1795  0.3275  0.0122
  451BOLB   C4B10812  12.400  -1.917  33.015  0.1525  0.0995  0.1925
  451BOLB   NC210813  10.236  -2.622  33.841 -0.2503  0.3098 -0.1129
  451BOLB   PO210814  10.558  -2.974  34.038 -0.1309  0.0576 -0.2598
  451BOLB   GL310815  10.703  -2.772  33.635 -0.0213 -0.0328 -0.1844
  451BOLB   GL410816  10.810  -3.003  33.392 -0.2411  0.0520  0.1192
  451BOLB   C1C10817  10.666  -2.491  33.188  0.1772  0.1494 -0.0996
  451BOLB   C2C10818  10.709  -2.429  32.787  0.0299 -0.0218 -0.1179
  451BOLB   C3C10819  11.097  -2.198  32.538  0.1955  0.2710  0.2582
  451BOLB   C4C10820  11.128  -1.806  32.319  0.1108 -0.1658  0.1331
  451BOLB   C1D10821  11.124  -2.954  33.140  0.3109  0.2080 -0.0371
  451BOLB   C2D10822  11.495  -2.786  33.097  0.0975 -0.2276 -0.1157
  451BOLB   C3D10823  11.885  -2.876  33.155 -0.4202  0.1642  0.3015
  451BOLB   C4D10824  12.373  -2.890  32.991  0.1752 -0.4537 -0.4461
  452BOLB   NC110825   8.006   4.359  21.179  0.0570  0.1440 -0.2801
  452BOLB   PO110826   7.939   3.963  20.901 -0.1825 -0.1219 -0.2442
  452BOLB   GL110827   7.537   4.162  21.046  0.3552  0.3431  0.4636
  452BOLB   GL210828   7.237   3.995  20.820 -0.3947  0.0212  0.4778
  452BOLB   C1A10829   7.130   4.502  21.015 -0.3381 -0.2694  0.1756
  452BOLB   C2A10830   6.908   4.799  20.824 -0.0338 -0.0145 -0.3077
  452BOLB   C3A10831   6.939   5.059  20.445 -0.2588  0.0841 -0.2372
  452BOLB   C4A10832   7.056   5.450  20.270  0.1631 -0.1019 -0.0416
  452BOLB   C1B10833   6.826   4.167  20.617 -0.1670 -0.1999 -0.1369
  452BOLB   C2B10834   6.545   4.422  20.546  0.1429  0.4274  0.0743
  452BOLB   C3B10835   6.483   4.881  20.541  0.1048  0.2750 -0.0641
  452BOLB   C4B10836   6.434   5.245  20.289 -0.0212  0.0117 -0.2531
  452BOLB   NC210837   5.829   6.844  18.257 -0.0684  0.1675  0.0795
  452BOLB   PO210838   6.024   6.496  18.167  0.0703 -0.2386 -0.1686
  452BOLB   GL310839   6.177   6.443  18.609 -0.1685  0.0395  0.0109
  452BOLB   GL410840   6.495   6.556  18.456 -0.0319 -0.1143 -0.0087
  452BOLB   C1C10841   6.375   6.384  19.073 -0.1521 -0.0077 -0.0070
  452BOLB   C2C10842   6.546   6.400  19.471  0.2042 -0.2892  0.0020
  452BOLB   C3C10843   6.752   6.096  19.878  0.1974 -0.4941 -0.1596
  452BOLB   C4C10844   6.887   5.767  20.135  0.1456  0.1033 -0.3720
  452BOLB   C1D10845   6.655   6.251  18.665  0.2482  0.1506  0.0759
  452BOLB   C2D10846   6.801   6.070  19.051  0.1108  0.2164 -0.0681
  452BOLB   C3D10847   6.972   6.168  19.381  0.0322 -0.1706  0.1975
  452BOLB   C4D10848   7.340   6.255  19.544  0.2004 -0.1391  0.1608
  453BOLB   NC110849   8.363   8.888  25.793  0.2093  0.0167  0.2257
  453BOLB   PO110850   7.999   8.642  25.992 -0.4110 -0.0515  0.0911
  453BOLB   GL110851   7.719   8.756  25.933  0.0019 -0.3641 -0.0424
  453BOLB   GL210852   7.465   8.636  25.857  0.1418  0.0108 -0.0345
  453BOLB   C1A10853   7.470   9.156  26.069 -0.1680 -0.1296  0.1916
  453BOLB   C2A10854   7.215   9.501  25.914 -0.0172 -0.3555 -0.1180
  453BOLB   C3A10855   6.783   9.686  25.816 -0.0549  0.3369  0.0391
  453BOLB   C4A10856   6.571   9.785  25.422  0.2813  0.1319 -0.2055
  453BOLB   C1B10857   6.945   8.633  25.958  0.3300 -0.3605  0.0440
  453BOLB   C2B10858   6.606   8.580  25.609 -0.0635 -0.2768 -0.0993
  453BOLB   C3B10859   6.177   8.443  25.672 -0.1258 -0.1864  0.3520
  453BOLB   C4B10860   5.978   8.051  25.854 -0.2179  0.4727  0.0979
  453BOLB   NC210861   6.047  12.291  24.875 -0.2363 -0.2868  0.1193
  453BOLB   PO210862   5.949  11.985  24.655  0.0119  0.1354  0.1250
  453BOLB   GL310863   6.141  11.631  24.604 -0.4298  0.1807  0.1133
  453BOLB   GL410864   6.175  11.703  24.185 -0.2532  0.0990  0.0704
  453BOLB   C1C10865   6.046  11.223  24.649 -0.0959  0.2212  0.2018
  453BOLB   C2C10866   6.137  10.757  24.812  0.1514  0.1053  0.0243
  453BOLB   C3C10867   6.212  10.412  24.956  0.0978 -0.3566 -0.1393
  453BOLB   C4C10868   6.515   9.991  25.014 -0.2747  0.2973  0.0867
  453BOLB   C1D10869   6.611  11.722  24.239  0.0211 -0.1869  0.0331
  453BOLB   C2D10870   6.877  11.455  24.257 -0.0233 -0.2370  0.1765
  453BOLB   C3D10871   7.026  11.039  24.329 -0.1389  0.0962 -0.2444
  453BOLB   C4D10872   7.319  10.686  24.188  0.0659  0.1817  0.1136
  454BOLB   NC110873  19.222   3.529  33.185  0.1810  0.0089  0.2364
  454BOLB   PO110874  18.943   3.098  33.156  0.2998  0.0846  0.4516
  454BOLB   GL110875  19.228   3.061  33.478  0.4632  0.1634 -0.0009
  454BOLB   GL210876  19.544   3.167  33.364 -0.0846 -0.1881  0.0892
  454BOLB   C1A10877  19.449   2.831  33.739 -0.5202 -0.1228  0.0400
  454BOLB   C2A10878  19.768   2.720  33.984  0.1670 -0.1353 -0.1558
  454BOLB   C3A10879  19.989   2.909  34.216  0.6423 -0.0003  0.3211
  454BOLB   C4A10880  19.978   2.692  34.547  0.5268  0.2519  0.0569
  454BOLB   C1B10881  19.831   3.214  33.730  0.3233 -0.2986  0.1295
  454BOLB   C2B10882  19.875   3.454  34.255 -0.0910 -0.2742 -0.1504
  454BOLB   C3B10883  19.811   3.617  34.604  0.0121 -0.0512 -0.1762
  454BOLB   C4B10884  19.539   3.717  34.816  0.3767  0.2529  0.3019
  454BOLB   NC210885  21.389   1.947  36.516  0.1650 -0.0226 -0.2047
  454BOLB   PO210886  20.980   1.883  36.598 -0.2352  0.1458  0.0201
  454BOLB   GL310887  21.031   1.932  36.161  0.1947  0.0159  0.4111
  454BOLB   GL410888  21.065   2.218  36.125  0.1758  0.2373 -0.2423
  454BOLB   C1C10889  20.730   2.019  35.831 -0.0720 -0.0587  0.4078
  454BOLB   C2C10890  20.353   1.975  35.534 -0.0851 -0.2436 -0.2491
  454BOLB   C3C10891  20.109   2.161  35.348 -0.0686  0.2998  0.1178
  454BOLB   C4C10892  20.219   2.383  34.905  0.1644 -0.1724 -0.1662
  454BOLB   C1D10893  21.003   2.402  35.716 -0.1059  0.0581 -0.2524
  454BOLB   C2D10894  20.889   2.532  35.273  0.0700 -0.0788 -0.2407
  454BOLB   C3D10895  20.734   2.589  34.827  0.1220  0.3192 -0.1238
  454BOLB   C4D10896  20.952   2.856  34.512 -0.2076 -0.1985 -0.4342
  455BOLB   NC110897  23.394   2.045  11.083 -0.2805 -0.2003 -0.1342
  455BOLB   PO110898  23.128   1.794  11.208 -0.0999  0.0611  0.0393
  455BOLB   GL110899  23.047   1.772  11.597  0.1970 -0.0146  0.0018
  455BOLB   GL210900  23.324   1.955  11.809  0.2099  0.1786 -0.0368
  455BOLB   C1A10901  22.995   1.720  12.040  0.3278 -0.3860  0.2279
  455BOLB   C2A10902  22.916   1.389  12.361 -0.0811  0.1471 -0.2629
  455BOLB   C3A10903  22.954   1.114  12.765 -0.1745  0.0780  0.0914
  455BOLB   C4A10904  22.837   1.013  13.169 -0.1332 -0.2602 -0.0428
  455BOLB   C1B10905  23.391   1.772  12.264 -0.2563 -0.0838  0.1299
  455BOLB   C2B10906  23.413   1.374  12.411 -0.0310  0.3993  0.1389
  455BOLB   C3B10907  23.436   0.935  12.301  0.2512 -0.0697 -0.1210
  455BOLB   C4B10908  23.292   0.562  12.495 -0.1564 -0.1887  0.0838
  455BOLB   NC210909  24.430   2.549  13.520  0.2260 -0.0545  0.1276
  455BOLB   PO210910  24.378   2.563  13.911  0.0329  0.0083  0.1206
  455BOLB   GL310911  24.214   2.199  13.954 -0.1391  0.1419  0.4004
  455BOLB   GL410912  24.408   1.994  14.251  0.1369  0.1043 -0.2900
  455BOLB   C1C10913  23.830   2.092  13.758  0.3114 -0.1570  0.2792
  455BOLB   C2C10914  23.397   1.908  13.712 -0.1541 -0.1280  0.4082
  455BOLB   C3C10915  23.021   1.729  13.756 -0.1871 -0.4336 -0.0960
  455BOLB   C4C10916  22.919   1.222  13.625  0.2408 -0.1485  0.0578
  455BOLB   C1D10917  24.104   1.764  14.159  0.3167  0.2128 -0.0084
  455BOLB   C2D10918  24.124   1.321  14.261 -0.0953 -0.1352 -0.0796
  455BOLB   C3D10919  24.100   1.175  14.626 -0.1819  0.2476 -0.0131
  455BOLB   C4D10920  23.838   1.204  14.932  0.1666  0.1565  0.2542
  456BOLB   NC110921  12.010  11.748  27.088 -0.0217  0.2015 -0.0571
  456BOLB   PO110922  11.611  11.915  27.220 -0.1467 -0.1589  0.0546
  456BOLB   GL110923  11.389  12.340  26.952  0.0584  0.0875 -0.1637
  456BOLB   GL210924  11.424  12.652  27.115  0.2063  0.2516  0.0934
  456BOLB   C1A10925  11.018  12.557  26.906  0.0123  0.0014  0.0512
  456BOLB   C2A10926  10.675  12.830  27.026  0.0269 -0.1820 -0.0635
  456BOLB   C3A10927  10.513  13.162  27.114 -0.0565  0.2139 -0.0112
  456BOLB   C4A10928  10.346  13.518  27.250  0.0803  0.1034 -0.0512
  456BOLB   C1B10929  11.556  13.007  27.283  0.0345  0.0027 -0.2896
  456BOLB   C2B10930  11.591  13.418  27.419 -0.1706  0.1054 -0.0144
  456BOLB   C3B10931  11.351  13.775  27.469 -0.5273 -0.0560 -0.2165
  456BOLB   C4B10932  10.956  13.985  27.499 -0.2387 -0.1437 -0.2231
  456BOLB   NC210933   9.824  15.791  26.853  0.1285  0.1457  0.1248
  456BOLB   PO210934   9.400  15.667  26.729 -0.0382 -0.3131  0.1334
  456BOLB   GL310935   9.787  15.294  26.738 -0.0654  0.5581  0.2092
  456BOLB   GL410936   9.754  15.061  26.505 -0.1671  0.2756 -0.2190
  456BOLB   C1C10937  10.064  15.143  27.004  0.1581 -0.0769  0.1578
  456BOLB   C2C10938  10.295  14.796  27.068 -0.0611 -0.1043 -0.2460
  456BOLB   C3C10939  10.461  14.400  27.237  0.3450  0.2443 -0.0746
  456BOLB   C4C10940  10.516  13.907  27.255  0.2070  0.0773 -0.0271
  456BOLB   C1D10941   9.699  14.663  26.191 -0.2833 -0.1447 -0.1088
  456BOLB   C2D10942   9.785  14.462  25.915  0.1226  0.0193  0.1361
  456BOLB   C3D10943  10.072  14.306  25.586  0.0684 -0.2234 -0.4633
  456BOLB   C4D10944  10.127  14.516  25.278  0.2520  0.0087  0.0649
  457BOLB   NC110945  18.930   5.330  32.719  0.1850 -0.2032 -0.3294
  457BOLB   PO110946  19.372   5.186  32.812  0.3385  0.0137 -0.1351
  457BOLB   GL110947  19.727   5.165  33.105  0.0950  0.0491  0.1649
  457BOLB   GL210948  19.828   4.890  33.246 -0.0375  0.2215 -0.2101
  457BOLB   C1A10949  19.945   5.187  33.585 -0.2081 -0.0114 -0.0408
  457BOLB   C2A10950  20.292   5.262  33.771  0.2717 -0.3883 -0.1011
  457BOLB   C3A10951  20.573   5.192  34.073 -0.1552 -0.0266  0.0577
  457BOLB   C4A10952  20.705   5.231  34.446 -0.3888 -0.2013  0.1083
  457BOLB   C1B10953  19.854   4.590  33.682  0.0376  0.0614  0.2785
  457BOLB   C2B10954  20.129   4.327  34.008  0.2801  0.2396  0.2461
  457BOLB   C3B10955  20.459   4.361  34.289  0.0359 -0.1144  0.4134
  457BOLB   C4B10956  20.724   4.121  34.630  0.2167 -0.0642 -0.2528
  457BOLB   NC210957  21.902   5.118  36.552 -0.4539 -0.1983  0.0578
  457BOLB   PO210958  21.474   5.016  36.726  0.0867 -0.3176 -0.1249
  457BOLB   GL310959  21.398   5.248  36.417  0.0659 -0.2209  0.0099
  457BOLB   GL410960  21.363   5.530  36.488 -0.0589  0.0046  0.2447
  457BOLB   C1C10961  21.501   5.179  35.978 -0.2160 -0.0025  0.1100
  457BOLB   C2C10962  21.294   5.273  35.627  0.0250  0.3133  0.1305
  457BOLB   C3C10963  21.109   5.352  35.140  0.1697  0.1005 -0.1336
  457BOLB   C4C10964  20.842   5.459  34.789 -0.0973 -0.0275  0.1458
  457BOLB   C1D10965  21.154   5.521  36.048 -0.1556  0.1871 -0.3208
  457BOLB   C2D10966  20.781   5.394  35.878  0.1234 -0.0359 -0.2852
  457BOLB   C3D10967  20.856   5.069  35.639 -0.0417  0.0665 -0.0029
  457BOLB   C4D10968  20.932   4.897  35.257 -0.1929  0.0232 -0.2086
  458BOLB   NC110969   9.190  -7.196  25.391  0.0213 -0.0574  0.0863
  458BOLB   PO110970   9.483  -7.314  25.670 -0.1336  0.0378 -0.0299
  458BOLB   GL110971   9.734  -7.021  25.467 -0.0074  0.1560 -0.1425
  458BOLB   GL210972  10.068  -7.162  25.595  0.0129 -0.2326  0.2226
  458BOLB   C1A10973   9.662  -6.630  25.237  0.1857  0.1019 -0.0249
  458BOLB   C2A10974   9.654  -6.231  25.083 -0.1249 -0.0437  0.1545
  458BOLB   C3A10975  10.014  -5.956  24.811  0.4503 -0.2164 -0.0876
  458BOLB   C4A10976  10.432  -6.107  24.666  0.0711 -0.1039  0.2638
  458BOLB   C1B10977  10.506  -6.989  25.702 -0.3383 -0.1717 -0.2251
  458BOLB   C2B10978  10.944  -6.788  25.817 -0.2858 -0.2377  0.1252
  458BOLB   C3B10979  11.229  -6.434  25.715  0.1430  0.2107  0.3126
  458BOLB   C4B10980  11.408  -6.109  25.324  0.2112 -0.3579  0.1922
  458BOLB   NC210981  10.860  -8.059  23.797 -0.3397  0.0170 -0.0381
  458BOLB   PO210982  11.279  -8.088  23.992 -0.0390 -0.3088  0.2883
  458BOLB   GL310983  11.054  -7.651  23.962  0.3333 -0.0310  0.0628
  458BOLB   GL410984  11.220  -7.460  24.065  0.0820 -0.1485  0.1251
  458BOLB   C1C10985  10.804  -7.310  23.807 -0.0730  0.0737 -0.3306
  458BOLB   C2C10986  10.582  -6.891  23.914  0.1369  0.1172  0.3505
  458BOLB   C3C10987  10.655  -6.539  24.185 -0.0647  0.5385 -0.0875
  458BOLB   C4C10988  10.742  -6.285  24.430 -0.1247 -0.0497  0.1355
  458BOLB   C1D10989  11.154  -7.030  24.033 -0.0923  0.0623  0.1251
  458BOLB   C2D10990  11.060  -6.720  23.915 -0.2526 -0.1162 -0.2914
  458BOLB   C3D10991  11.126  -6.433  23.640 -0.1481 -0.3348  0.0637
  458BOLB   C4D10992  11.263  -6.044  23.621  0.0021  0.1160 -0.1795
  459BOLB   NC110993  22.873   6.579  30.444 -0.2604 -0.3435  0.0817
  459BOLB   PO110994  23.336   6.436  30.499  0.0594 -0.2027 -0.1313
  459BOLB   GL110995  23.678   6.459  30.654 -0.1572 -0.1038  0.0097
  459BOLB   GL210996  23.821   6.260  30.503  0.3663  0.2183 -0.2784
  459BOLB   C1A10997  24.004   6.281  30.982 -0.2095  0.1415 -0.1501
  459BOLB   C2A10998  24.303   6.281  31.361 -0.3948 -0.3106 -0.0829
  459BOLB   C3A10999  24.708   6.430  31.531  0.1510  0.2405  0.0245
  459BOLB   C4A11000  24.902   6.528  31.975 -0.0312 -0.0387  0.0315
  459BOLB   C1B11001  24.213   6.196  30.514  0.2416 -0.0962 -0.1262
  459BOLB   C2B11002  24.493   6.204  30.872  0.2794  0.0298 -0.0106
  459BOLB   C3B11003  24.812   6.088  31.180  0.1030  0.0283 -0.0996
  459BOLB   C4B11004  25.023   6.032  31.592 -0.1903  0.1628  0.2881
  459BOLB   NC211005  26.433   8.850  32.596  0.2966 -0.0268  0.1816
  459BOLB   PO211006  26.026   8.602  32.670 -0.1228  0.0833 -0.0899
  459BOLB   GL311007  25.846   8.338  32.241 -0.0058 -0.1578  0.0922
  459BOLB   GL411008  25.938   8.342  31.908  0.1172  0.0564 -0.3664
  459BOLB   C1C11009  25.878   7.856  32.191 -0.2076  0.2839 -0.1213
  459BOLB   C2C11010  25.702   7.378  32.310 -0.1537 -0.0771 -0.1477
  459BOLB   C3C11011  25.414   6.971  32.284 -0.0176  0.0639  0.0913
  459BOLB   C4C11012  25.102   6.898  32.126 -0.3234  0.1596  0.0468
  459BOLB   C1D11013  25.765   8.375  31.562  0.1431  0.0995  0.0563
  459BOLB   C2D11014  25.551   8.169  31.236  0.2205  0.1599  0.1170
  459BOLB   C3D11015  25.189   7.953  31.071 -0.0949 -0.2043  0.0704
  459BOLB   C4D11016  24.944   7.636  30.903 -0.1660  0.5469  0.1038
  460BOLB   NC111017  19.010   1.037  31.897  0.0930 -0.1516 -0.0779
  460BOLB   PO111018  19.254   1.074  32.401 -0.0798 -0.0041 -0.0392
  460BOLB   GL111019  19.340   1.295  32.793 -0.3023  0.0790 -0.1402
  460BOLB   GL211020  19.377   0.996  32.915  0.0106  0.1727  0.1441
  460BOLB   C1A11021  19.500   1.475  33.276  0.0187 -0.2316 -0.3106
  460BOLB   C2A11022  19.543   1.351  33.676  0.0610 -0.2313 -0.0011
  460BOLB   C3A11023  19.553   1.224  34.181 -0.0764 -0.1030 -0.1889
  460BOLB   C4A11024  19.340   1.073  34.502 -0.1658  0.2331 -0.0697
  460BOLB   C1B11025  19.160   0.664  33.015  0.2542 -0.0819  0.1297
  460BOLB   C2B11026  19.230   0.463  33.337  0.0347  0.0528  0.0049
  460BOLB   C3B11027  19.374   0.007  33.370  0.1486  0.0140  0.0080
  460BOLB   C4B11028  19.518  -0.267  33.000  0.2480 -0.1211  0.0197
  460BOLB   NC211029  20.230   0.811  37.022  0.1151 -0.0999  0.0759
  460BOLB   PO211030  20.182   0.533  36.694  0.0155 -0.0652  0.1105
  460BOLB   GL311031  20.008   0.690  36.222  0.0595 -0.2849 -0.4222
  460BOLB   GL411032  20.304   0.805  36.076 -0.0267  0.4311  0.2982
  460BOLB   C1C11033  19.639   0.880  35.950 -0.1036 -0.0233  0.0748
  460BOLB   C2C11034  19.297   0.991  35.556  0.1251 -0.0555  0.2525
  460BOLB   C3C11035  19.241   1.282  35.254 -0.2173 -0.1155 -0.0896
  460BOLB   C4C11036  19.293   1.326  34.864  0.0921 -0.2351  0.1867
  460BOLB   C1D11037  20.185   1.192  36.156 -0.0728 -0.1174 -0.5308
  460BOLB   C2D11038  19.989   1.588  35.892  0.1874  0.0453 -0.3551
  460BOLB   C3D11039  19.932   1.717  35.475 -0.3603  0.2944 -0.1882
  460BOLB   C4D11040  19.608   1.616  35.150 -0.2188 -0.2160 -0.0407
  461BOLB   NC111041   6.775   4.501  25.975 -0.0378 -0.1052  0.0891
  461BOLB   PO111042   6.426   4.280  25.777 -0.2564 -0.0831 -0.0835
  461BOLB   GL111043   6.075   4.167  25.624  0.2716 -0.1599 -0.0551
  461BOLB   GL211044   6.025   3.889  25.467  0.1249  0.1215 -0.0799
  461BOLB   C1A11045   5.741   4.254  25.284 -0.4449 -0.3389  0.0093
  461BOLB   C2A11046   5.515   3.765  25.229  0.4104  0.1691 -0.1602
  461BOLB   C3A11047   5.110   3.582  25.279 -0.0060  0.2352  0.0971
  461BOLB   C4A11048   4.693   3.395  25.115  0.0565 -0.2445  0.0123
  461BOLB   C1B11049   5.635   4.047  25.714 -0.0836  0.1226 -0.1834
  461BOLB   C2B11050   5.315   4.217  25.838  0.0578 -0.4017 -0.0480
  461BOLB   C3B11051   5.112   4.564  26.025  0.4119  0.1403 -0.0947
  461BOLB   C4B11052   4.807   4.899  26.079  0.1071 -0.0401  0.0871
  461BOLB   NC211053   2.638   4.222  23.738  0.1715 -0.0427  0.0840
  461BOLB   PO211054   2.811   4.003  24.018 -0.0763  0.3006  0.1716
  461BOLB   GL311055   3.213   3.896  23.954  0.1104  0.0018 -0.1768
  461BOLB   GL411056   3.441   3.934  23.690 -0.0988 -0.1684  0.2382
  461BOLB   C1C11057   3.565   3.831  24.208  0.1316  0.0911  0.1920
  461BOLB   C2C11058   3.845   3.859  24.442  0.2914  0.0977 -0.0059
  461BOLB   C3C11059   4.135   3.774  24.680  0.3970 -0.0163 -0.0013
  461BOLB   C4C11060   4.448   3.527  24.835 -0.2340 -0.0516  0.0867
  461BOLB   C1D11061   3.889   4.074  23.948  0.3889 -0.1134 -0.3622
  461BOLB   C2D11062   4.313   4.035  24.164  0.3254 -0.1043 -0.2839
  461BOLB   C3D11063   4.580   4.047  24.577  0.1097  0.3045  0.0187
  461BOLB   C4D11064   4.796   3.984  24.997 -0.1287 -0.0208  0.0144
  462BOLB   NC111065   8.257   2.144  20.533  0.0432  0.0036  0.0129
  462BOLB   PO111066   7.900   2.134  20.425  0.0479 -0.0021 -0.1702
  462BOLB   GL111067   7.526   2.004  20.226 -0.1257 -0.3965  0.2465
  462BOLB   GL211068   7.335   1.686  20.143  0.2626  0.1263  0.0712
  462BOLB   C1A11069   7.236   2.310  20.132  0.1680  0.0303  0.0749
  462BOLB   C2A11070   6.889   2.272  20.105  0.0336 -0.1023  0.0169
  462BOLB   C3A11071   6.477   2.281  19.932  0.0231 -0.1041  0.0567
  462BOLB   C4A11072   5.979   2.249  19.846 -0.0272 -0.3353  0.1604
  462BOLB   C1B11073   7.155   1.969  19.803 -0.3450  0.0907  0.2608
  462BOLB   C2B11074   6.918   2.275  19.510 -0.1340 -0.0936  0.2440
  462BOLB   C3B11075   6.853   2.168  19.117 -0.2151 -0.1924  0.1680
  462BOLB   C4B11076   7.034   2.010  18.726 -0.1083  0.1035 -0.0945
  462BOLB   NC211077   5.162   3.281  18.330  0.1108 -0.0200 -0.1894
  462BOLB   PO211078   4.728   3.556  18.479 -0.0378  0.1395 -0.1637
  462BOLB   GL311079   5.026   3.385  18.921 -0.2795  0.0833 -0.0708
  462BOLB   GL411080   5.383   3.304  18.841  0.1870  0.4141  0.0333
  462BOLB   C1C11081   5.003   3.129  19.206 -0.5142  0.1590  0.0374
  462BOLB   C2C11082   5.188   2.914  19.412 -0.2203 -0.0119  0.0615
  462BOLB   C3C11083   5.437   2.649  19.510 -0.0115 -0.0128  0.1711
  462BOLB   C4C11084   5.634   2.421  19.713 -0.0826  0.0998  0.3430
  462BOLB   C1D11085   5.475   3.489  19.172 -0.0775 -0.3618 -0.4420
  462BOLB   C2D11086   5.759   3.754  19.394 -0.1136  0.3021  0.0921
  462BOLB   C3D11087   6.090   3.926  19.245  0.2516 -0.0597  0.1255
  462BOLB   C4D11088   6.368   3.880  18.923 -0.1064 -0.3303 -0.1823
  463BOLB   NC111089   7.942   3.780  28.661  0.1718  0.0498  0.3217
  463BOLB   PO111090   7.717   3.983  28.259 -0.0656 -0.0112  0.0264
  463BOLB   GL111091   7.488   3.615  28.396  0.0168 -0.1088 -0.0814
  463BOLB   GL211092   7.403   3.883  28.685 -0.1364  0.0566  0.0347
  463BOLB   C1A11093   7.080   3.805  28.254  0.0737 -0.1053 -0.0229
  463BOLB   C2A11094   6.621   3.882  28.228  0.4131 -0.0791  0.0143
  463BOLB   C3A11095   6.207   3.874  28.379 -0.0186 -0.1571  0.1476
  463BOLB   C4A11096   5.804   3.985  28.245  0.0937  0.0375 -0.1178
  463BOLB   C1B11097   6.901   3.704  28.726 -0.0646  0.2120 -0.0976
  463BOLB   C2B11098   6.596   3.514  28.856  0.1680 -0.0413  0.3094
  463BOLB   C3B11099   6.097   3.376  28.845  0.1032  0.2657 -0.1350
  463BOLB   C4B11100   5.994   2.899  28.939  0.0298 -0.1158  0.0281
  463BOLB   NC211101   3.257   3.857  28.459 -0.0891 -0.1515 -0.1002
  463BOLB   PO211102   3.401   3.967  27.985 -0.0329  0.0433 -0.1356
  463BOLB   GL311103   3.739   3.853  27.691  0.0372  0.1163  0.1268
  463BOLB   GL411104   3.909   4.171  27.365 -0.1693 -0.1058 -0.0600
  463BOLB   C1C11105   4.134   3.658  27.472 -0.1446 -0.1163 -0.2219
  463BOLB   C2C11106   4.629   3.487  27.643  0.2319 -0.1588  0.4375
  463BOLB   C3C11107   5.016   3.617  27.834 -0.3360 -0.2344 -0.3493
  463BOLB   C4C11108   5.496   3.762  28.106 -0.0035 -0.1606 -0.3623
  463BOLB   C1D11109   4.360   4.074  27.451 -0.0231 -0.2460  0.4152
  463BOLB   C2D11110   4.792   3.981  27.524  0.1035 -0.0567  0.1458
  463BOLB   C3D11111   5.002   4.123  27.162  0.0615  0.1904  0.1181
  463BOLB   C4D11112   5.110   4.222  26.777 -0.4208 -0.2396  0.0928
  464BOLB   NC111113  17.108  12.387  25.242 -0.0431  0.0182 -0.1148
  464BOLB   PO111114  17.281  12.430  25.582 -0.2692  0.2351 -0.1648
  464BOLB   GL111115  17.338  12.875  25.761 -0.2348 -0.2395  0.0977
  464BOLB   GL211116  17.661  12.865  25.711 -0.1362 -0.0996  0.0806
  464BOLB   C1A11117  17.227  13.278  25.452 -0.2179  0.1815 -0.1025
  464BOLB   C2A11118  17.282  13.463  25.122 -0.0649  0.0943  0.1630
  464BOLB   C3A11119  17.546  13.560  24.725  0.0247  0.3699 -0.2009
  464BOLB   C4A11120  17.825  13.861  24.676 -0.3256 -0.1483 -0.2541
  464BOLB   C1B11121  17.979  13.157  25.904  0.0057 -0.0407  0.0797
  464BOLB   C2B11122  18.260  13.495  25.778  0.0758  0.1871 -0.2227
  464BOLB   C3B11123  18.551  13.665  25.946  0.2131 -0.0660  0.0735
  464BOLB   C4B11124  18.580  13.977  26.226  0.0029 -0.2748  0.3435
  464BOLB   NC211125  18.788  16.359  24.149 -0.0683 -0.1172  0.2837
  464BOLB   PO211126  18.469  15.992  24.104 -0.0552  0.3399 -0.0702
  464BOLB   GL311127  18.261  15.557  24.139 -0.1643 -0.2367 -0.0606
  464BOLB   GL411128  18.427  15.262  24.426  0.0585  0.0110 -0.0690
  464BOLB   C1C11129  17.862  15.373  24.322 -0.1608  0.0394 -0.0905
  464BOLB   C2C11130  17.836  15.032  24.672 -0.1452 -0.0203 -0.0728
  464BOLB   C3C11131  17.864  14.700  24.933  0.2153 -0.1131 -0.1858
  464BOLB   C4C11132  17.784  14.268  24.779 -0.0134 -0.2325 -0.2854
  464BOLB   C1D11133  18.234  14.826  24.321  0.1935 -0.2391  0.0249
  464BOLB   C2D11134  18.022  14.436  24.338 -0.4457  0.1429 -0.4399
  464BOLB   C3D11135  17.598  14.191  24.345  0.0013  0.2431  0.0485
  464BOLB   C4D11136  17.267  14.096  24.197  0.1328  0.2181 -0.0902
  465BOLB   NC111137  21.437   4.851  17.868  0.2946  0.2771  0.1920
  465BOLB   PO111138  21.104   4.736  17.489 -0.1830 -0.0819  0.2595
  465BOLB   GL111139  21.237   5.009  17.128  0.4240  0.3378  0.2911
  465BOLB   GL211140  21.490   4.938  16.954  0.3357 -0.0765  0.0003
  465BOLB   C1A11141  21.117   5.213  16.805  0.2189  0.1130 -0.3032
  465BOLB   C2A11142  21.329   5.284  16.365 -0.4221 -0.1630 -0.3175
  465BOLB   C3A11143  21.611   5.312  16.171 -0.3959  0.1317 -0.0199
  465BOLB   C4A11144  21.865   5.626  15.929 -0.1701  0.1329 -0.1502
  465BOLB   C1B11145  21.648   4.932  16.514  0.2313  0.2824  0.2019
  465BOLB   C2B11146  21.858   4.834  16.171 -0.1609  0.0162  0.2876
  465BOLB   C3B11147  21.936   4.683  15.821  0.0540 -0.3074  0.4744
  465BOLB   C4B11148  22.028   4.872  15.418 -0.3323  0.0196  0.1810
  465BOLB   NC211149  23.487   6.065  14.558 -0.0316 -0.1945 -0.2747
  465BOLB   PO211150  23.942   6.172  14.717  0.2944  0.0594 -0.1398
  465BOLB   GL311151  23.642   6.180  15.097  0.4460  0.1345  0.1043
  465BOLB   GL411152  23.349   6.018  15.021  0.0232  0.1310 -0.1551
  465BOLB   C1C11153  23.353   6.238  15.459 -0.2654  0.1034 -0.1077
  465BOLB   C2C11154  23.006   5.991  15.559  0.0890  0.2644 -0.0051
  465BOLB   C3C11155  22.645   6.013  15.788  0.0569 -0.0402 -0.2478
  465BOLB   C4C11156  22.339   5.703  15.986 -0.2034 -0.1711  0.0723
  465BOLB   C1D11157  22.989   5.760  15.166  0.0469 -0.0013 -0.2905
  465BOLB   C2D11158  22.568   5.632  15.500 -0.2178  0.1156  0.1839
  465BOLB   C3D11159  22.383   5.236  15.742 -0.3123 -0.0734  0.1635
  465BOLB   C4D11160  22.381   4.883  16.063  0.1554 -0.1897  0.0646
  466BOLB   NC111161  23.573   2.534  20.968  0.0559 -0.1147  0.1476
  466BOLB   PO111162  23.676   2.861  20.803 -0.1279 -0.0445 -0.4405
  466BOLB   GL111163  24.050   3.051  20.612  0.0347 -0.1036  0.1701
  466BOLB   GL211164  24.368   3.076  20.902 -0.2435  0.0161 -0.1828
  466BOLB   C1A11165  24.312   2.872  20.372  0.0169  0.1692  0.2178
  466BOLB   C2A11166  24.571   2.808  19.979 -0.2699 -0.1704 -0.0583
  466BOLB   C3A11167  24.718   2.667  19.607  0.1942 -0.0768 -0.0859
  466BOLB   C4A11168  25.012   2.903  19.291  0.0958  0.3516 -0.0507
  466BOLB   C1B11169  24.786   3.438  20.797 -0.0056 -0.0222  0.0746
  466BOLB   C2B11170  25.066   3.429  20.530  0.2208 -0.0681  0.0879
  466BOLB   C3B11171  24.999   3.217  20.128  0.2030  0.2234 -0.3445
  466BOLB   C4B11172  25.052   2.848  19.935  0.1092  0.2410  0.0608
  466BOLB   NC211173  27.197   3.745  18.799  0.3536 -0.0729 -0.0097
  466BOLB   PO211174  27.336   3.397  18.972  0.0256  0.3061 -0.0034
  466BOLB   GL311175  26.909   3.347  18.690  0.1272  0.1210  0.0234
  466BOLB   GL411176  26.801   3.206  18.417 -0.1109  0.1024  0.1775
  466BOLB   C1C11177  26.514   3.317  18.894 -0.0329 -0.1126  0.1371
  466BOLB   C2C11178  26.000   3.308  18.757  0.1409  0.0050  0.1050
  466BOLB   C3C11179  25.629   3.375  18.997  0.2479  0.1151  0.0367
  466BOLB   C4C11180  25.132   3.306  19.109  0.0500 -0.0908  0.2663
  466BOLB   C1D11181  26.446   3.071  18.172  0.2623  0.0659  0.0050
  466BOLB   C2D11182  26.194   3.121  17.853  0.1100 -0.3046  0.1933
  466BOLB   C3D11183  25.718   3.091  17.833 -0.0216 -0.3372  0.1617
  466BOLB   C4D11184  25.389   2.706  17.941 -0.0566 -0.0792 -0.0584
  467BOLB   NC111185  15.040   2.962  16.204 -0.0335  0.2061 -0.0562
  467BOLB   PO111186  14.620   3.095  16.029  0.1508 -0.0052  0.1584
  467BOLB   GL111187  14.347   3.437  15.745  0.1206 -0.1930 -0.3181
  467BOLB   GL211188  14.633   3.664  15.663 -0.0936  0.2490  0.1316
  467BOLB   C1A11189  14.121   3.701  15.458 -0.4028 -0.0645  0.3158
  467BOLB   C2A11190  13.918   3.979  15.114 -0.2551  0.0239  0.2412
  467BOLB   C3A11191  14.172   4.331  14.924  0.2780 -0.0231 -0.0259
  467BOLB   C4A11192  14.366   4.647  14.692  0.0864 -0.3721 -0.1766
  467BOLB   C1B11193  14.584   3.678  15.280  0.0277 -0.1050  0.1642
  467BOLB   C2B11194  14.446   3.695  14.963  0.0501  0.3067  0.3746
  467BOLB   C3B11195  14.157   3.885  14.670 -0.1358  0.2278 -0.0923
  467BOLB   C4B11196  13.797   4.174  14.669 -0.0111 -0.1549 -0.1774
  467BOLB   NC211197  14.523   5.294  12.301 -0.0021  0.0807  0.0810
  467BOLB   PO211198  14.150   5.499  12.477  0.0691  0.2252 -0.3898
  467BOLB   GL311199  14.028   5.416  12.938 -0.2010 -0.1455  0.4146
  467BOLB   GL411200  14.110   5.742  13.144 -0.2804  0.0326 -0.3776
  467BOLB   C1C11201  14.052   5.288  13.316  0.1771 -0.1629  0.1901
  467BOLB   C2C11202  14.023   5.230  13.667 -0.0127  0.1605  0.4347
  467BOLB   C3C11203  14.247   4.998  13.941 -0.0305 -0.3716 -0.0205
  467BOLB   C4C11204  14.369   4.721  14.202 -0.0399  0.0462 -0.0571
  467BOLB   C1D11205  14.400   5.791  13.560  0.2160 -0.1665 -0.0700
  467BOLB   C2D11206  14.377   5.534  13.878 -0.0303  0.1317 -0.0279
  467BOLB   C3D11207  14.370   5.400  14.275 -0.0173  0.1471 -0.0970
  467BOLB   C4D11208  14.561   5.519  14.547  0.0225  0.2691 -0.0230
  468BOLB   NC111209  10.450  11.330  27.152 -0.0119  0.1765  0.0733
  468BOLB   PO111210  10.228  11.414  27.633 -0.0179  0.0063 -0.0309
  468BOLB   GL111211  10.344  11.869  27.724 -0.1086  0.0719  0.0423
  468BOLB   GL211212  10.425  11.946  27.960  0.3508 -0.3533 -0.0377
  468BOLB   C1A11213  10.011  12.042  27.714 -0.2103 -0.1228 -0.1311
  468BOLB   C2A11214   9.772  12.337  27.932  0.1157  0.2797  0.2283
  468BOLB   C3A11215   9.500  12.470  27.793  0.1730 -0.0225  0.0104
  468BOLB   C4A11216   9.145  12.333  27.556  0.0519  0.0990 -0.0680
  468BOLB   C1B11217  10.498  12.403  27.890  0.1453  0.0685 -0.1517
  468BOLB   C2B11218  10.426  12.889  28.052 -0.0872  0.3716  0.1371
  468BOLB   C3B11219  10.781  13.161  27.917  0.1725 -0.1364 -0.0433
  468BOLB   C4B11220  11.087  13.210  27.725  0.2990  0.1825  0.1324
  468BOLB   NC211221   7.314  14.085  28.816 -0.4755  0.1568  0.3896
  468BOLB   PO211222   7.595  13.756  28.849 -0.1840  0.2406  0.1284
  468BOLB   GL311223   7.847  13.425  28.656 -0.0867 -0.1451  0.3201
  468BOLB   GL411224   7.807  13.102  28.864  0.0377 -0.1408  0.0555
  468BOLB   C1C11225   7.843  13.090  28.295  0.0211 -0.0954  0.0832
  468BOLB   C2C11226   8.041  12.672  28.055  0.2275 -0.1243  0.2342
  468BOLB   C3C11227   8.382  12.501  27.742  0.3928  0.1939  0.1881
  468BOLB   C4C11228   8.706  12.308  27.468 -0.1611  0.0422 -0.1505
  468BOLB   C1D11229   7.890  12.557  28.782 -0.0784 -0.0341  0.2718
  468BOLB   C2D11230   8.209  12.321  28.577 -0.0879  0.1702  0.0069
  468BOLB   C3D11231   8.635  12.270  28.734  0.0184 -0.1353 -0.0589
  468BOLB   C4D11232   8.963  12.590  28.494  0.0017 -0.0919  0.1297
  469BOLB   NC111233  17.951  12.615  26.754 -0.1822 -0.1392 -0.2291
  469BOLB   PO111234  18.243  12.322  27.077  0.0203 -0.1918 -0.5521
  469BOLB   GL111235  18.132  12.719  27.374  0.0067 -0.1063 -0.0983
  469BOLB   GL211236  18.179  13.011  27.125 -0.0564 -0.0199 -0.1075
  469BOLB   C1A11237  18.418  13.014  27.603 -0.1146 -0.1139  0.1824
  469BOLB   C2A11238  18.470  13.446  27.806 -0.0093  0.2080 -0.0737
  469BOLB   C3A11239  18.419  13.600  28.172 -0.1520 -0.0988  0.1611
  469BOLB   C4A11240  18.683  13.542  28.499  0.1469  0.1605 -0.1086
  469BOLB   C1B11241  18.063  13.327  27.366 -0.1666  0.0425 -0.3253
  469BOLB   C2B11242  17.719  13.574  27.403 -0.0782  0.0300  0.0987
  469BOLB   C3B11243  17.505  13.902  27.303  0.1118  0.0187 -0.3570
  469BOLB   C4B11244  17.177  14.077  27.570  0.0864 -0.0768 -0.2752
  469BOLB   NC211245  19.766  15.303  29.762  0.0582 -0.1913 -0.1172
  469BOLB   PO211246  19.938  15.378  29.349 -0.2549 -0.0335 -0.0962
  469BOLB   GL311247  19.594  15.034  29.397  0.0866 -0.1428  0.1599
  469BOLB   GL411248  19.349  14.916  29.153  0.1647 -0.1556 -0.1750
  469BOLB   C1C11249  19.633  14.594  29.359 -0.0031 -0.1885 -0.0534
  469BOLB   C2C11250  19.404  14.199  29.236 -0.3467  0.1609 -0.4148
  469BOLB   C3C11251  19.039  14.062  29.172  0.2264  0.0742  0.2200
  469BOLB   C4C11252  18.684  13.847  28.976  0.1719 -0.0872 -0.1070
  469BOLB   C1D11253  18.995  14.684  29.185  0.2501  0.2383  0.2279
  469BOLB   C2D11254  18.797  14.477  29.525  0.2793 -0.0272  0.1526
  469BOLB   C3D11255  18.760  14.085  29.718 -0.0432  0.1375 -0.0325
  469BOLB   C4D11256  18.703  13.740  29.475  0.1951  0.0633 -0.2552
  470BOLB   NC111257  17.914   8.827  32.038  0.1963  0.4589  0.1324
  470BOLB   PO111258  17.845   8.791  32.464 -0.0155  0.0442 -0.0222
  470BOLB   GL111259  17.775   9.005  32.841  0.0812 -0.2636  0.0608
  470BOLB   GL211260  18.008   9.227  32.845  0.0808 -0.0590  0.1863
  470BOLB   C1A11261  17.584   9.434  32.912 -0.0272  0.2719 -0.1527
  470BOLB   C2A11262  17.607   9.749  33.192  0.1415  0.3269  0.0289
  470BOLB   C3A11263  17.689   9.712  33.589  0.0851 -0.0168  0.2554
  470BOLB   C4A11264  17.842   9.855  33.978 -0.1012 -0.0235  0.2425
  470BOLB   C1B11265  18.019   9.483  33.143  0.2048  0.3037  0.0450
  470BOLB   C2B11266  18.059   9.952  33.252  0.3154 -0.1632 -0.0427
  470BOLB   C3B11267  18.256  10.194  33.583  0.2295 -0.1330  0.1578
  470BOLB   C4B11268  18.344   9.807  33.833 -0.1640 -0.3629  0.1522
  470BOLB   NC211269  19.247  11.185  35.908 -0.0675 -0.0096 -0.0495
  470BOLB   PO211270  19.207  11.021  35.563  0.0997  0.1691  0.1134
  470BOLB   GL311271  18.939  11.119  35.218 -0.0619 -0.0862  0.3488
  470BOLB   GL411272  18.920  11.400  34.908 -0.0524  0.1243 -0.1857
  470BOLB   C1C11273  18.445  11.004  34.942 -0.0974 -0.0380 -0.0399
  470BOLB   C2C11274  18.371  10.870  34.568 -0.1378 -0.0583  0.1319
  470BOLB   C3C11275  18.310  10.510  34.314  0.1621 -0.1491  0.0684
  470BOLB   C4C11276  18.155  10.156  34.120  0.3588  0.0328  0.2032
  470BOLB   C1D11277  18.949  10.991  34.750  0.1913 -0.1055 -0.0056
  470BOLB   C2D11278  18.812  10.623  34.493  0.2302  0.0277 -0.0783
  470BOLB   C3D11279  18.851  10.207  34.369 -0.3229  0.0741 -0.0310
  470BOLB   C4D11280  19.231  10.002  34.476  0.0013  0.1195  0.1778
  471BOLB   NC111281  10.803   2.508  32.424  0.1732  0.1203 -0.1280
  471BOLB   PO111282  11.145   2.420  32.428  0.2993  0.0008  0.0411
  471BOLB   GL111283  11.186   2.065  32.632  0.2385 -0.0984  0.1474
  471BOLB   GL211284  11.305   2.182  32.875  0.2443  0.2172  0.2035
  471BOLB   C1A11285  10.988   1.679  32.558 -0.0840 -0.1856  0.1532
  471BOLB   C2A11286  10.498   1.509  32.725  0.1677 -0.1470 -0.1135
  471BOLB   C3A11287  10.489   1.184  33.033  0.2299 -0.1155  0.1182
  471BOLB   C4A11288  10.472   0.964  33.409  0.0109 -0.1695  0.1698
  471BOLB   C1B11289  11.006   1.983  33.153 -0.1563  0.3525 -0.1068
  471BOLB   C2B11290  11.039   1.567  33.398  0.0141 -0.1603  0.2332
  471BOLB   C3B11291  10.717   1.371  33.621 -0.2117 -0.1693 -0.0821
  471BOLB   C4B11292  10.227   1.417  33.595 -0.0178  0.1410  0.0128
  471BOLB   NC211293   8.383  -0.228  34.231 -0.1463  0.0163 -0.0720
  471BOLB   PO211294   8.745  -0.043  34.515  0.0983 -0.1688 -0.0969
  471BOLB   GL311295   9.158   0.098  34.413 -0.4483 -0.0340  0.2068
  471BOLB   GL411296   9.199  -0.223  34.300 -0.2485  0.1199  0.2768
  471BOLB   C1C11297   9.389   0.478  34.355  0.1644  0.1426 -0.2031
  471BOLB   C2C11298   9.718   0.627  34.180 -0.3734 -0.0688  0.0313
  471BOLB   C3C11299  10.035   0.700  33.888 -0.1119 -0.0801 -0.2304
  471BOLB   C4C11300  10.190   0.840  33.586  0.1299 -0.0862  0.0091
  471BOLB   C1D11301   9.616   0.005  34.119  0.2879 -0.3193 -0.0205
  471BOLB   C2D11302   9.973   0.158  33.952 -0.1157 -0.1624  0.4110
  471BOLB   C3D11303  10.316   0.196  33.854 -0.0051 -0.1722  0.1602
  471BOLB   C4D11304  10.571   0.500  33.672 -0.0900  0.1405  0.2177
  472BOLB   NC111305  14.141  -2.947  19.027 -0.0532  0.0782  0.0970
  472BOLB   PO111306  14.542  -3.104  18.818  0.4050  0.1357  0.1637
  472BOLB   GL111307  14.655  -3.533  18.648  0.1187 -0.0369 -0.6074
  472BOLB   GL211308  14.653  -3.474  18.334 -0.2938  0.2282 -0.1063
  472BOLB   C1A11309  14.725  -3.931  18.588  0.3629  0.3918  0.0856
  472BOLB   C2A11310  14.538  -4.401  18.577 -0.0205  0.0610  0.0846
  472BOLB   C3A11311  14.379  -4.858  18.620  0.1531  0.0887 -0.0755
  472BOLB   C4A11312  14.507  -5.305  18.618  0.0818  0.1250  0.0659
  472BOLB   C1B11313  14.773  -3.766  18.126  0.0696 -0.1281  0.1233
  472BOLB   C2B11314  14.738  -3.964  17.719 -0.1716  0.2269 -0.1440
  472BOLB   C3B11315  14.531  -3.632  17.449  0.1059  0.1561 -0.1132
  472BOLB   C4B11316  14.263  -3.440  17.390 -0.1790  0.0004 -0.3482
  472BOLB   NC211317  13.153  -7.120  17.876  0.1548 -0.1367  0.3367
  472BOLB   PO211318  13.065  -7.043  17.461 -0.0553 -0.2949  0.2282
  472BOLB   GL311319  13.444  -6.743  17.604  0.0359 -0.0754  0.0931
  472BOLB   GL411320  13.495  -6.632  17.298  0.0502 -0.0977 -0.3119
  472BOLB   C1C11321  13.485  -6.418  17.851  0.1018 -0.1134 -0.2492
  472BOLB   C2C11322  13.596  -6.106  18.197 -0.0234 -0.0364  0.3908
  472BOLB   C3C11323  13.901  -5.742  18.367  0.0278 -0.1631  0.0543
  472BOLB   C4C11324  14.300  -5.626  18.522 -0.1150  0.1689  0.3733
  472BOLB   C1D11325  13.270  -6.234  17.336  0.1430 -0.1046 -0.0222
  472BOLB   C2D11326  13.259  -5.801  17.492 -0.2405 -0.4512  0.1367
  472BOLB   C3D11327  13.156  -5.348  17.580  0.0853 -0.0272 -0.0369
  472BOLB   C4D11328  12.832  -5.133  17.887 -0.0456  0.1978 -0.3172
  473BOLB   NC111329   7.797   3.701  23.430 -0.1015 -0.0729 -0.3242
  473BOLB   PO111330   7.447   3.584  23.594  0.2004  0.1770  0.1608
  473BOLB   GL111331   7.045   3.684  23.334 -0.1096 -0.1482 -0.0021
  473BOLB   GL211332   7.033   4.038  23.361  0.0724 -0.2270  0.0948
  473BOLB   C1A11333   6.684   3.782  23.145 -0.0184  0.0924 -0.2154
  473BOLB   C2A11334   6.257   3.839  23.009  0.1175  0.4236 -0.1476
  473BOLB   C3A11335   5.913   3.975  22.870 -0.0677 -0.5504 -0.2911
  473BOLB   C4A11336   5.551   4.009  22.985 -0.1834  0.1673 -0.1151
  473BOLB   C1B11337   6.706   4.301  23.223 -0.0534  0.0037 -0.0539
  473BOLB   C2B11338   6.492   4.453  23.542  0.0387  0.2048  0.3128
  473BOLB   C3B11339   6.018   4.609  23.506  0.1139 -0.1411 -0.2113
  473BOLB   C4B11340   5.569   4.754  23.416  0.2575  0.2797  0.2135
  473BOLB   NC211341   3.131   4.018  22.176  0.2071 -0.0593 -0.2086
  473BOLB   PO211342   3.217   4.161  22.587  0.2283  0.0748 -0.0233
  473BOLB   GL311343   3.544   4.315  22.684  0.1455  0.4018 -0.1524
  473BOLB   GL411344   3.699   4.477  23.023 -0.1013  0.0482 -0.1732
  473BOLB   C1C11345   4.121   4.387  22.464  0.1234 -0.2251  0.1775
  473BOLB   C2C11346   4.451   4.145  22.644  0.0871 -0.2738 -0.0578
  473BOLB   C3C11347   4.748   3.894  22.711  0.1337 -0.0523  0.1240
  473BOLB   C4C11348   5.120   4.016  22.949  0.0588  0.2635  0.2691
  473BOLB   C1D11349   4.115   4.332  22.963 -0.1926 -0.0753 -0.1741
  473BOLB   C2D11350   4.510   4.519  22.995  0.1152 -0.0586  0.0325
  473BOLB   C3D11351   4.749   4.365  22.965  0.2990  0.0483 -0.0364
  473BOLB   C4D11352   5.255   4.463  23.087  0.1457 -0.1800 -0.0408
  474BOLB   NC111353  17.536   0.512  10.599 -0.4128  0.0639  0.1497
  474BOLB   PO111354  17.599   0.976  10.704  0.0991  0.0919 -0.2258
  474BOLB   GL111355  17.873   0.942  11.096 -0.0736  0.0018 -0.2824
  474BOLB   GL211356  18.218   0.953  11.076  0.0376 -0.1590  0.2667
  474BOLB   C1A11357  17.871   0.649  11.528 -0.0297 -0.0456  0.1590
  474BOLB   C2A11358  17.821   0.387  11.833 -0.0283  0.2235  0.4188
  474BOLB   C3A11359  17.577   0.023  12.140  0.2028 -0.1746  0.1661
  474BOLB   C4A11360  17.621  -0.380  12.163 -0.1102  0.2272  0.0323
  474BOLB   C1B11361  18.293   0.558  11.127 -0.1112 -0.0016  0.0066
  474BOLB   C2B11362  18.472   0.198  11.354 -0.0389  0.1626  0.1078
  474BOLB   C3B11363  18.540  -0.187  11.354  0.0129 -0.0950  0.1668
  474BOLB   C4B11364  18.508  -0.596  11.133  0.0424  0.1150  0.1982
  474BOLB   NC211365  16.917  -0.012  10.405  0.3684 -0.0229 -0.0447
  474BOLB   PO211366  16.722   0.113  10.638  0.0661 -0.1819 -0.0540
  474BOLB   GL311367  16.804  -0.138  11.010 -0.2748  0.1140  0.0010
  474BOLB   GL411368  16.855  -0.018  11.381 -0.3546 -0.0640 -0.1098
  474BOLB   C1C11369  17.311  -0.139  11.236  0.1055  0.2399  0.1544
  474BOLB   C2C11370  17.605  -0.486  11.218  0.0746 -0.1917  0.1372
  474BOLB   C3C11371  17.802  -0.650  11.537 -0.0852 -0.1460 -0.2255
  474BOLB   C4C11372  17.827  -0.634  11.924  0.0112 -0.2674 -0.0726
  474BOLB   C1D11373  16.761  -0.356  11.543 -0.1301  0.1005  0.6528
  474BOLB   C2D11374  16.852  -0.720  11.719 -0.0715 -0.1035 -0.3554
  474BOLB   C3D11375  16.917  -1.152  11.933  0.1039  0.0768 -0.0469
  474BOLB   C4D11376  16.616  -1.463  12.340 -0.3370  0.4198  0.4210
  475BOLB   NC111377  25.582  -0.583  11.928 -0.2381 -0.0192 -0.0979
  475BOLB   PO111378  25.279  -0.132  11.936  0.1946 -0.0443  0.0584
  475BOLB   GL111379  25.066  -0.345  12.299  0.2214  0.0851  0.1857
  475BOLB   GL211380  25.453  -0.491  12.374  0.3786 -0.1072 -0.1288
  475BOLB   C1A11381  24.666  -0.345  12.514  0.1693  0.1243  0.1068
  475BOLB   C2A11382  24.273  -0.353  12.614 -0.3605  0.0599 -0.0460
  475BOLB   C3A11383  23.970  -0.557  12.825 -0.0492  0.1259  0.4359
  475BOLB   C4A11384  23.728  -0.878  12.666 -0.0462  0.2958 -0.1045
  475BOLB   C1B11385  25.185  -0.597  12.777 -0.0261  0.0532  0.0256
  475BOLB   C2B11386  25.080  -0.653  13.205  0.1201  0.1994  0.0364
  475BOLB   C3B11387  24.744  -0.883  13.255  0.0269  0.0875 -0.0969
  475BOLB   C4B11388  24.333  -0.722  13.311  0.3869  0.1227  0.0721
  475BOLB   NC211389  24.925  -0.210  11.621  0.1694 -0.2617  0.1497
  475BOLB   PO211390  25.060  -0.543  11.323 -0.3325 -0.0882  0.1161
  475BOLB   GL311391  24.670  -0.660  11.325  0.1244 -0.2330  0.0035
  475BOLB   GL411392  24.614  -0.672  11.588 -0.0110 -0.2223  0.2350
  475BOLB   C1C11393  24.248  -0.854  11.251  0.1963 -0.2209 -0.1437
  475BOLB   C2C11394  23.999  -1.127  11.406  0.0444  0.0437 -0.4321
  475BOLB   C3C11395  23.836  -1.315  11.833  0.0138  0.1827  0.5036
  475BOLB   C4C11396  23.789  -1.165  12.291 -0.2473 -0.0880 -0.0915
  475BOLB   C1D11397  24.660  -0.815  12.045  0.0797  0.2611 -0.1176
  475BOLB   C2D11398  24.586  -1.100  12.393  0.1890 -0.1557  0.2915
  475BOLB   C3D11399  24.660  -1.337  12.817 -0.1629 -0.0460 -0.0121
  475BOLB   C4D11400  24.626  -1.519  13.253 -0.0366  0.1568  0.0284
  476BOLB   NC111401   8.005   7.022  25.997 -0.1738 -0.3259  0.0452
  476BOLB   PO111402   7.690   6.937  26.253  0.3742 -0.1468  0.1335
  476BOLB   GL111403   7.363   7.207  26.211 -0.1832  0.2426  0.0088
  476BOLB   GL211404   7.185   6.875  26.169 -0.0083  0.2182 -0.2193
  476BOLB   C1A11405   6.992   7.345  26.395  0.1231 -0.0563 -0.0976
  476BOLB   C2A11406   6.647   7.506  26.598  0.0869 -0.0593 -0.4125
  476BOLB   C3A11407   6.150   7.428  26.717 -0.0226  0.1031  0.4054
  476BOLB   C4A11408   5.656   7.415  26.732 -0.3182 -0.2093  0.2341
  476BOLB   C1B11409   6.651   6.829  26.126  0.2476  0.0113  0.2722
  476BOLB   C2B11410   6.310   6.955  25.859 -0.2048  0.2734  0.0956
  476BOLB   C3B11411   5.776   6.912  25.840 -0.0295  0.1284  0.2586
  476BOLB   C4B11412   5.365   7.140  25.670 -0.1134  0.1531 -0.4407
  476BOLB   NC211413   3.167   7.763  27.815  0.0102  0.2465 -0.1881
  476BOLB   PO211414   3.601   7.682  27.684 -0.0567  0.1685  0.0714
  476BOLB   GL311415   3.892   7.646  27.368  0.2221  0.3562 -0.3654
  476BOLB   GL411416   4.096   7.852  27.365 -0.3315 -0.0158  0.0281
  476BOLB   C1C11417   4.158   7.414  27.107  0.4373  0.2255  0.0983
  476BOLB   C2C11418   4.494   7.232  27.063 -0.2741 -0.0968 -0.0298
  476BOLB   C3C11419   4.890   7.105  26.845 -0.0136  0.0622  0.2911
  476BOLB   C4C11420   5.209   7.310  26.847  0.2372  0.1054 -0.0641
  476BOLB   C1D11421   4.475   8.062  27.654 -0.0428 -0.2468 -0.0981
  476BOLB   C2D11422   4.817   8.106  27.922 -0.1485  0.0097  0.0648
  476BOLB   C3D11423   5.189   8.270  28.204  0.0030  0.2163  0.3073
  476BOLB   C4D11424   5.422   8.307  28.610  0.1212 -0.1855  0.1075
  477BOLB   NC111425   6.402  -4.234  28.158  0.1465  0.1732  0.2395
  477BOLB   PO111426   6.274  -4.078  27.693 -0.0931 -0.1877  0.2238
  477BOLB   GL111427   6.147  -3.702  27.429 -0.0431  0.1809 -0.3476
  477BOLB   GL211428   5.924  -3.520  27.349 -0.1684 -0.0723 -0.1638
  477BOLB   C1A11429   6.485  -3.394  27.274 -0.0063 -0.1413  0.3660
  477BOLB   C2A11430   6.681  -3.041  27.120  0.0301 -0.1043 -0.1241
  477BOLB   C3A11431   6.686  -2.899  26.695 -0.2827  0.2100  0.3333
  477BOLB   C4A11432   6.723  -2.748  26.200  0.3419 -0.0834 -0.1681
  477BOLB   C1B11433   5.980  -3.199  27.150 -0.0557 -0.1455 -0.3778
  477BOLB   C2B11434   6.201  -3.055  26.823 -0.6186 -0.3206  0.0938
  477BOLB   C3B11435   6.493  -3.308  26.515  0.0984 -0.4631 -0.0846
  477BOLB   C4B11436   6.843  -3.382  26.318 -0.0164 -0.2893 -0.0405
  477BOLB   NC211437   4.908  -3.730  25.259 -0.3378  0.4849  0.0095
  477BOLB   PO211438   5.323  -3.902  25.147  0.0377  0.0213 -0.3173
  477BOLB   GL311439   5.798  -3.668  25.145 -0.0698  0.3730  0.1955
  477BOLB   GL411440   5.837  -3.399  25.015  0.0615 -0.0020 -0.0811
  477BOLB   C1C11441   6.302  -3.758  25.403  0.3994  0.1506 -0.1635
  477BOLB   C2C11442   6.714  -3.715  25.556 -0.0709  0.1516  0.0436
  477BOLB   C3C11443   7.005  -3.408  25.655 -0.1682 -0.1909  0.0717
  477BOLB   C4C11444   6.882  -3.035  25.884  0.0669  0.0314  0.0618
  477BOLB   C1D11445   6.146  -3.120  25.063 -0.1568  0.2226 -0.2294
  477BOLB   C2D11446   6.488  -2.751  25.146  0.0075  0.1742  0.3487
  477BOLB   C3D11447   6.949  -2.529  25.171 -0.1403 -0.2725  0.2955
  477BOLB   C4D11448   7.394  -2.211  25.212  0.0044 -0.1670  0.0134
  478BOLB   NC111449  23.152   0.819  28.682  0.0752  0.0511  0.3410
  478BOLB   PO111450  23.540   0.593  28.616 -0.0663  0.1766  0.0022
  478BOLB   GL111451  23.882   0.500  28.894  0.0994  0.1111 -0.1557
  478BOLB   GL211452  24.140   0.429  29.000  0.1257 -0.3036  0.0882
  478BOLB   C1A11453  23.766   0.317  29.305  0.3129  0.1465 -0.1302
  478BOLB   C2A11454  24.059   0.076  29.510 -0.0940  0.2193  0.2545
  478BOLB   C3A11455  24.460  -0.141  29.499 -0.0214 -0.0323 -0.1771
  478BOLB   C4A11456  24.884  -0.204  29.753 -0.1358  0.2160  0.1547
  478BOLB   C1B11457  24.508   0.356  29.363 -0.1615 -0.1828 -0.0502
  478BOLB   C2B11458  24.895   0.312  29.610  0.2723 -0.0890 -0.5403
  478BOLB   C3B11459  25.388   0.466  29.830 -0.0291  0.0041 -0.1653
  478BOLB   C4B11460  25.752   0.500  29.888 -0.0514  0.2318  0.2358
  478BOLB   NC211461  26.158  -2.207  30.084 -0.2381  0.2082 -0.0683
  478BOLB   PO211462  25.815  -2.205  30.300 -0.1627  0.5011 -0.0301
  478BOLB   GL311463  25.769  -1.748  30.116  0.1767  0.1358  0.0393
  478BOLB   GL411464  26.024  -1.523  29.958 -0.1350 -0.0512  0.0593
  478BOLB   C1C11465  25.440  -1.517  30.157  0.1381 -0.0385 -0.0650
  478BOLB   C2C11466  25.446  -1.154  29.851 -0.1428  0.3474  0.3376
  478BOLB   C3C11467  25.134  -0.822  29.704 -0.1129  0.0734  0.1564
  478BOLB   C4C11468  25.009  -0.451  30.022  0.2166  0.3761  0.0984
  478BOLB   C1D11469  26.039  -1.166  29.714 -0.0629  0.2476 -0.0105
  478BOLB   C2D11470  26.152  -0.676  29.730  0.1019 -0.2221  0.2291
  478BOLB   C3D11471  25.876  -0.439  29.389 -0.0505  0.2013  0.0055
  478BOLB   C4D11472  25.867  -0.350  28.908  0.1746  0.0245  0.0775
  479BOLB   NC111473  15.622   8.317  17.776  0.0012 -0.0247  0.1949
  479BOLB   PO111474  15.378   7.904  17.545 -0.1305 -0.2757 -0.2704
  479BOLB   GL111475  15.440   8.260  17.256 -0.2815 -0.1021  0.0334
  479BOLB   GL211476  15.018   8.198  17.190 -0.0170 -0.2488 -0.0879
  479BOLB   C1A11477  15.692   8.491  17.046  0.0513  0.1070 -0.1392
  479BOLB   C2A11478  15.754   8.776  16.719 -0.0995 -0.1481  0.3704
  479BOLB   C3A11479  15.493   9.061  16.547  0.2909 -0.0590  0.0117
  479BOLB   C4A11480  15.082   9.231  16.391  0.1412 -0.6981 -0.2754
  479BOLB   C1B11481  15.183   8.509  16.858  0.1432  0.0361  0.1518
  479BOLB   C2B11482  14.971   8.734  16.504  0.3259  0.1141  0.1366
  479BOLB   C3B11483  14.742   8.950  16.218  0.0397 -0.5053 -0.4864
  479BOLB   C4B11484  14.732   9.282  15.875 -0.4003  0.3096  0.0328
  479BOLB   NC211485  13.639  11.241  14.834 -0.2176 -0.1123 -0.0262
  479BOLB   PO211486  14.050  11.235  15.129  0.2127  0.0915  0.1762
  479BOLB   GL311487  14.149  10.833  15.363  0.0849 -0.1793  0.0547
  479BOLB   GL411488  14.181  10.744  15.737 -0.0043  0.2099  0.0096
  479BOLB   C1C11489  14.200  10.340  15.405  0.1175  0.1536 -0.3763
  479BOLB   C2C11490  14.159   9.980  15.797  0.1275  0.0744  0.0434
  479BOLB   C3C11491  14.523   9.887  16.160 -0.1589 -0.5350 -0.0821
  479BOLB   C4C11492  14.862   9.689  16.479 -0.0969 -0.3727  0.2077
  479BOLB   C1D11493  13.752  10.526  15.610 -0.0091 -0.2321  0.5884
  479BOLB   C2D11494  13.712  10.185  15.509 -0.1732 -0.0496 -0.1986
  479BOLB   C3D11495  13.995   9.846  15.299  0.0684  0.1456  0.3898
  479BOLB   C4D11496  14.275   9.488  15.430  0.0969 -0.0554 -0.0805
  480BOLB   NC111497  11.586   4.134  32.541 -0.0180 -0.0960  0.1086
  480BOLB   PO111498  11.387   4.388  32.328  0.2611 -0.4440 -0.0160
  480BOLB   GL111499  11.226   4.420  32.752 -0.0737  0.0084  0.0419
  480BOLB   GL211500  11.404   4.692  32.863 -0.0428  0.0580 -0.1833
  480BOLB   C1A11501  11.084   4.414  33.060  0.0522 -0.1236  0.3469
  480BOLB   C2A11502  10.892   4.544  33.351 -0.0858 -0.2679  0.1749
  480BOLB   C3A11503  10.501   4.569  33.630 -0.0516  0.1515  0.0586
  480BOLB   C4A11504  10.172   4.745  33.822 -0.2537 -0.3138  0.2984
  480BOLB   C1B11505  11.416   4.796  33.315  0.0532  0.2171 -0.4416
  480BOLB   C2B11506  11.258   4.893  33.832  0.0677 -0.3162  0.3911
  480BOLB   C3B11507  10.890   4.716  34.048 -0.2566  0.4109 -0.0544
  480BOLB   C4B11508  10.684   4.855  34.189 -0.0702  0.0566 -0.2364
  480BOLB   NC211509  10.322   5.011  36.889  0.3129 -0.3849 -0.0173
  480BOLB   PO211510  10.020   4.782  36.648 -0.3662 -0.1924  0.0112
  480BOLB   GL311511  10.058   4.677  36.141 -0.2759 -0.1595  0.0525
  480BOLB   GL411512  10.191   4.915  35.972 -0.1689  0.1493 -0.0296
  480BOLB   C1C11513  10.068   4.577  35.630 -0.1243  0.2632  0.0730
  480BOLB   C2C11514  10.213   4.641  35.144  0.0327  0.0089  0.1063
  480BOLB   C3C11515  10.251   4.811  34.705 -0.0173  0.4340 -0.0413
  480BOLB   C4C11516  10.183   4.840  34.256 -0.0306  0.0369  0.1674
  480BOLB   C1D11517  10.558   4.783  35.652 -0.1226 -0.1606  0.1610
  480BOLB   C2D11518  10.919   4.510  35.455 -0.0507  0.0149  0.0755
  480BOLB   C3D11519  11.016   4.068  35.304  0.2573  0.1703  0.0309
  480BOLB   C4D11520  11.178   3.869  34.909 -0.0773  0.1262 -0.1591
  481BOLB   NC111521  18.832   9.792  30.212 -0.4035  0.0817  0.3973
  481BOLB   PO111522  18.811  10.278  30.386 -0.1537 -0.3575  0.0431
  481BOLB   GL111523  18.819  10.618  30.636 -0.0656  0.2723  0.1992
  481BOLB   GL211524  18.656  10.927  30.493 -0.0504  0.1952 -0.3073
  481BOLB   C1A11525  18.896  10.845  30.963 -0.3093  0.1209  0.2783
  481BOLB   C2A11526  18.816  11.250  31.247  0.0752 -0.0224  0.0419
  481BOLB   C3A11527  18.674  11.089  31.658  0.4365  0.0393  0.2158
  481BOLB   C4A11528  18.774  11.334  32.065 -0.2482 -0.0308  0.2255
  481BOLB   C1B11529  18.801  11.313  30.629  0.1401 -0.1336 -0.1248
  481BOLB   C2B11530  18.841  11.700  30.893 -0.1135  0.0147 -0.4201
  481BOLB   C3B11531  18.829  11.880  31.203  0.1174 -0.2972  0.1576
  481BOLB   C4B11532  18.568  12.310  31.073  0.4277  0.0963  0.0078
  481BOLB   NC211533  19.687  11.920  34.444 -0.0288 -0.1296  0.3109
  481BOLB   PO211534  19.820  12.182  34.130 -0.0316 -0.1596  0.1848
  481BOLB   GL311535  19.631  12.217  33.695 -0.1119  0.1633 -0.0548
  481BOLB   GL411536  19.848  12.325  33.403  0.2672 -0.0038 -0.0899
  481BOLB   C1C11537  19.424  11.996  33.396  0.0082 -0.0026  0.0409
  481BOLB   C2C11538  19.221  11.660  33.315  0.0132  0.0937 -0.0458
  481BOLB   C3C11539  19.210  11.400  32.902  0.2100  0.0712  0.2758
  481BOLB   C4C11540  19.133  11.488  32.395  0.2380  0.1872 -0.0645
  481BOLB   C1D11541  19.615  12.233  33.016 -0.1067  0.0399  0.0511
  481BOLB   C2D11542  19.256  11.996  32.939  0.0073 -0.0262  0.1226
  481BOLB   C3D11543  18.920  12.207  32.787  0.2916  0.0227 -0.0576
  481BOLB   C4D11544  18.753  12.599  32.732  0.1916  0.1980 -0.2377
  482BOLB   NC111545   7.559   1.355  27.025 -0.0289 -0.0069  0.1089
  482BOLB   PO111546   7.081   1.374  26.946 -0.0962  0.0809  0.3041
  482BOLB   GL111547   6.837   1.148  27.049  0.0031 -0.0883  0.0946
  482BOLB   GL211548   6.529   1.386  27.058  0.0919  0.1939  0.0602
  482BOLB   C1A11549   6.639   0.824  26.970 -0.1579  0.1794  0.1290
  482BOLB   C2A11550   6.238   1.000  26.907 -0.0577  0.1130 -0.2831
  482BOLB   C3A11551   5.925   1.086  26.736  0.1532  0.0723 -0.1969
  482BOLB   C4A11552   5.575   1.135  26.981 -0.1595 -0.1225 -0.3806
  482BOLB   C1B11553   6.242   1.454  27.190  0.1458 -0.2555  0.0122
  482BOLB   C2B11554   6.054   1.204  27.564  0.1000 -0.1462 -0.2999
  482BOLB   C3B11555   5.722   1.044  27.436  0.2352  0.0051  0.1546
  482BOLB   C4B11556   5.448   0.686  27.254 -0.0108 -0.2647  0.2472
  482BOLB   NC211557   3.004   0.587  28.280 -0.1674 -0.3029 -0.1750
  482BOLB   PO211558   3.338   0.431  27.986  0.3052  0.1861  0.0533
  482BOLB   GL311559   3.589   0.622  27.710 -0.2304 -0.2285 -0.0249
  482BOLB   GL411560   3.508   0.931  27.556 -0.2705 -0.0567 -0.0489
  482BOLB   C1C11561   3.999   0.696  27.680 -0.2249 -0.1049 -0.0928
  482BOLB   C2C11562   4.398   0.768  27.403 -0.0443  0.0482  0.0716
  482BOLB   C3C11563   4.823   0.926  27.214 -0.3135  0.1233 -0.1901
  482BOLB   C4C11564   5.148   1.212  27.114  0.0323  0.2719  0.0598
  482BOLB   C1D11565   3.555   1.425  27.415  0.5375  0.0377 -0.1869
  482BOLB   C2D11566   3.978   1.714  27.323 -0.1575 -0.0897 -0.3597
  482BOLB   C3D11567   4.344   1.607  27.516 -0.0012  0.2602  0.2761
  482BOLB   C4D11568   4.455   1.711  27.917 -0.0197 -0.1291  0.0257
  483BOLB   NC111569  19.139   8.552  32.653 -0.0948 -0.1794 -0.1822
  483BOLB   PO111570  19.518   8.623  32.564 -0.0171  0.1085 -0.2293
  483BOLB   GL111571  19.583   8.812  32.991 -0.2305 -0.0039  0.2693
  483BOLB   GL211572  19.603   9.087  32.929  0.2278 -0.0829  0.1359
  483BOLB   C1A11573  19.673   8.737  33.418  0.1830  0.0894  0.1246
  483BOLB   C2A11574  20.021   8.346  33.684  0.0840 -0.2024 -0.0152
  483BOLB   C3A11575  20.102   8.181  34.051 -0.3068  0.0182  0.0129
  483BOLB   C4A11576  20.252   8.095  34.426  0.2331 -0.3488 -0.3826
  483BOLB   C1B11577  19.861   9.469  32.864 -0.1897 -0.1264  0.0600
  483BOLB   C2B11578  19.758   9.821  33.074 -0.2200 -0.0755  0.3853
  483BOLB   C3B11579  19.932  10.196  33.134  0.0272  0.0593  0.1201
  483BOLB   C4B11580  19.724  10.530  33.352  0.0883 -0.2953  0.1732
  483BOLB   NC211581  20.540   8.489  36.257 -0.4188  0.1280 -0.3721
  483BOLB   PO211582  20.733   8.107  36.367  0.0977 -0.2532 -0.1665
  483BOLB   GL311583  20.700   8.080  35.998  0.0786 -0.1214  0.2183
  483BOLB   GL411584  20.463   8.300  35.830 -0.2650  0.1486  0.4044
  483BOLB   C1C11585  20.479   7.777  35.779 -0.3173  0.0055  0.1389
  483BOLB   C2C11586  20.197   7.708  35.450  0.0617 -0.0875  0.0741
  483BOLB   C3C11587  20.083   7.798  35.121  0.3217  0.4837 -0.0553
  483BOLB   C4C11588  20.290   7.947  34.808  0.3112 -0.0211 -0.1489
  483BOLB   C1D11589  20.355   8.590  35.569  0.0748 -0.3244 -0.2193
  483BOLB   C2D11590  20.027   8.787  35.467  0.2684 -0.1370  0.0341
  483BOLB   C3D11591  19.730   8.581  35.280 -0.1257  0.1287 -0.2350
  483BOLB   C4D11592  19.550   8.509  34.974  0.0410 -0.0271 -0.0869
  484BOLB   NC111593  12.658   0.850  31.446 -0.2003 -0.1122  0.0476
  484BOLB   PO111594  12.543   0.877  31.855  0.1487  0.1436  0.0139
  484BOLB   GL111595  12.224   0.703  32.180 -0.0490 -0.0668  0.1698
  484BOLB   GL211596  11.875   0.562  32.153 -0.2551 -0.0435 -0.0328
  484BOLB   C1A11597  12.213   0.328  32.470  0.1072  0.0714  0.0780
  484BOLB   C2A11598  12.036   0.257  32.845 -0.2847 -0.1748  0.2807
  484BOLB   C3A11599  12.212  -0.097  32.912  0.1023 -0.1084  0.0099
  484BOLB   C4A11600  12.290  -0.444  33.289 -0.0500 -0.0072  0.0138
  484BOLB   C1B11601  11.705   0.376  32.497  0.1847  0.0523  0.0072
  484BOLB   C2B11602  11.383   0.063  32.532  0.2492 -0.2869 -0.2364
  484BOLB   C3B11603  10.817   0.119  32.644  0.2561 -0.0473  0.0853
  484BOLB   C4B11604  10.540   0.190  33.007  0.0226 -0.5008 -0.0188
  484BOLB   NC211605  12.777  -2.246  35.006 -0.0686  0.2151 -0.0125
  484BOLB   PO211606  12.366  -2.038  35.129 -0.0077  0.1311  0.0453
  484BOLB   GL311607  12.478  -1.910  34.733 -0.0766 -0.0968  0.1180
  484BOLB   GL411608  12.649  -2.141  34.543  0.1258  0.1081 -0.0998
  484BOLB   C1C11609  12.518  -1.671  34.336 -0.1417 -0.0503 -0.1664
  484BOLB   C2C11610  12.571  -1.359  34.038 -0.0589  0.0456 -0.2100
  484BOLB   C3C11611  12.425  -1.136  33.700 -0.0025  0.0833 -0.1502
  484BOLB   C4C11612  12.292  -0.706  33.494 -0.3087 -0.1275 -0.0724
  484BOLB   C1D11613  12.545  -2.181  34.153 -0.0181  0.0297  0.2939
  484BOLB   C2D11614  12.381  -2.266  33.755  0.0802 -0.1161  0.0207
  484BOLB   C3D11615  12.110  -2.084  33.394  0.1484 -0.0872  0.0994
  484BOLB   C4D11616  11.918  -1.850  33.096 -0.0131 -0.2468  0.1097
  485BOLB   NC111617  16.078   5.180  16.446 -0.0224  0.0182 -0.0896
  485BOLB   PO111618  16.343   5.526  16.560 -0.0110 -0.0244 -0.2403
  485BOLB   GL111619  16.526   5.282  16.224 -0.0487  0.1251  0.1901
  485BOLB   GL211620  16.792   5.528  16.182  0.1706  0.1407  0.0564
  485BOLB   C1A11621  16.412   5.480  15.820  0.1488 -0.1478  0.3115
  485BOLB   C2A11622  16.295   5.817  15.585 -0.0527  0.0146  0.0117
  485BOLB   C3A11623  16.237   5.860  15.204  0.2034  0.1543  0.0092
  485BOLB   C4A11624  16.073   5.987  14.713  0.2062  0.1454  0.2396
  485BOLB   C1B11625  16.902   5.491  15.758  0.1043  0.0710  0.1606
  485BOLB   C2B11626  16.707   5.725  15.370 -0.1306  0.2456 -0.1506
  485BOLB   C3B11627  16.926   5.871  15.037  0.0834 -0.0325  0.1223
  485BOLB   C4B11628  17.109   6.204  14.830  0.2020 -0.1199 -0.0099
  485BOLB   NC211629  15.256   6.463  12.919 -0.1479  0.0816 -0.2122
  485BOLB   PO211630  15.675   6.501  12.756  0.0308 -0.0869  0.0576
  485BOLB   GL311631  15.578   6.756  13.111  0.3911  0.1970 -0.0369
  485BOLB   GL411632  15.799   7.005  13.313  0.0162 -0.0104  0.0602
  485BOLB   C1C11633  15.385   6.999  13.568 -0.0340 -0.1203  0.0618
  485BOLB   C2C11634  15.405   6.707  13.938  0.0410 -0.2008 -0.1635
  485BOLB   C3C11635  15.520   6.612  14.399  0.3733 -0.4432  0.2379
  485BOLB   C4C11636  15.686   6.211  14.531 -0.0561  0.0706 -0.0964
  485BOLB   C1D11637  16.024   6.671  13.559 -0.0189  0.2708  0.1680
  485BOLB   C2D11638  16.076   6.229  13.599 -0.0602 -0.1500  0.1649
  485BOLB   C3D11639  16.471   5.934  13.591  0.0834  0.1657 -0.2744
  485BOLB   C4D11640  16.662   5.574  13.680  0.3217  0.0941  0.1239
  486BOLB   NC111641  10.291   1.474  18.893 -0.2457 -0.1354 -0.0314
  486BOLB   PO111642  10.519   1.430  18.500 -0.0945  0.0501  0.3303
  486BOLB   GL111643  10.349   1.566  18.265 -0.0024  0.0281  0.2207
  486BOLB   GL211644  10.146   1.742  18.216  0.0677  0.2476  0.1621
  486BOLB   C1A11645  10.284   1.638  17.768 -0.0342 -0.0944 -0.1567
  486BOLB   C2A11646  10.155   1.481  17.265  0.2626 -0.0801 -0.0889
  486BOLB   C3A11647  10.147   1.528  16.892  0.2961 -0.1746 -0.1542
  486BOLB   C4A11648   9.951   1.433  16.446 -0.0294  0.0209  0.0786
  486BOLB   C1B11649   9.802   1.576  18.000 -0.0238 -0.2282  0.1775
  486BOLB   C2B11650   9.477   1.441  17.934 -0.1194  0.0788 -0.0057
  486BOLB   C3B11651   9.041   1.421  17.662  0.2991  0.2958  0.0896
  486BOLB   C4B11652   8.836   1.147  17.308 -0.2457  0.0210 -0.2738
  486BOLB   NC211653   8.035   0.229  15.572 -0.0601 -0.0928 -0.0664
  486BOLB   PO211654   8.127   0.343  15.282  0.2808  0.1340  0.2527
  486BOLB   GL311655   8.322   0.647  15.593  0.0410 -0.2431  0.1714
  486BOLB   GL411656   8.194   1.000  15.508 -0.1417 -0.0219  0.0591
  486BOLB   C1C11657   8.694   0.678  15.766  0.0649 -0.2568  0.0991
  486BOLB   C2C11658   8.837   0.918  15.987  0.0269  0.2951 -0.1375
  486BOLB   C3C11659   9.357   0.929  16.203  0.0932  0.1199 -0.2090
  486BOLB   C4C11660   9.770   0.991  16.373 -0.5040 -0.1419 -0.1879
  486BOLB   C1D11661   8.432   1.103  15.782 -0.0680  0.3061 -0.0037
  486BOLB   C2D11662   8.829   1.442  15.843  0.0781  0.0409  0.1059
  486BOLB   C3D11663   8.929   1.937  15.755 -0.0555 -0.2369  0.2286
  486BOLB   C4D11664   9.192   2.061  16.118  0.4103  0.2076  0.0507
  487BOLB   NC111665  16.106  -4.091  19.961 -0.0094  0.1443 -0.2001
  487BOLB   PO111666  16.486  -4.004  20.052 -0.1332 -0.0842 -0.1806
  487BOLB   GL111667  16.495  -4.324  19.791  0.2317 -0.1308  0.1519
  487BOLB   GL211668  16.679  -4.552  19.952  0.0733 -0.3359  0.0137
  487BOLB   C1A11669  16.569  -4.485  19.403 -0.3155 -0.2915  0.0128
  487BOLB   C2A11670  16.342  -4.808  19.185  0.1681 -0.0242  0.2671
  487BOLB   C3A11671  16.167  -4.936  18.827 -0.0946  0.2483  0.2198
  487BOLB   C4A11672  15.821  -5.158  18.729  0.1764 -0.0419 -0.0064
  487BOLB   C1B11673  16.553  -4.949  19.924 -0.1181 -0.0611  0.1773
  487BOLB   C2B11674  16.531  -5.387  19.937 -0.2162 -0.3878  0.4084
  487BOLB   C3B11675  16.777  -5.751  20.004 -0.0822  0.1178  0.0927
  487BOLB   C4B11676  17.155  -5.965  19.848  0.0528  0.0545  0.2523
  487BOLB   NC211677  15.428  -7.907  18.001 -0.2550 -0.3479  0.1868
  487BOLB   PO211678  15.215  -7.777  17.774 -0.1872  0.1602  0.1153
  487BOLB   GL311679  15.263  -7.296  17.820 -0.1115 -0.0009  0.0632
  487BOLB   GL411680  14.967  -7.217  17.721  0.0228  0.2607  0.0918
  487BOLB   C1C11681  15.623  -6.896  18.016  0.0519  0.1553 -0.1181
  487BOLB   C2C11682  15.708  -6.449  18.179  0.0000  0.1855 -0.1600
  487BOLB   C3C11683  15.785  -6.109  18.522 -0.3039 -0.0110 -0.2621
  487BOLB   C4C11684  15.756  -5.693  18.731  0.0678  0.3932 -0.4019
  487BOLB   C1D11685  15.119  -6.847  17.906  0.1796 -0.0186 -0.0432
  487BOLB   C2D11686  15.273  -6.500  17.911  0.0526 -0.1807  0.0892
  487BOLB   C3D11687  15.474  -6.055  18.035 -0.0925  0.3037 -0.0830
  487BOLB   C4D11688  15.474  -5.612  18.011 -0.1212 -0.1014  0.1421
  488BOLB   NC111689  13.172  -2.838  28.450 -0.3475  0.2786  0.1026
  488BOLB   PO111690  13.285  -3.267  28.187  0.0399 -0.1470  0.0335
  488BOLB   GL111691  13.062  -3.484  28.488  0.1244 -0.0205  0.1520
  488BOLB   GL211692  12.897  -3.392  28.800  0.2428 -0.0471 -0.0509
  488BOLB   C1A11693  12.796  -3.786  28.472  0.2740 -0.0072  0.1931
  488BOLB   C2A11694  12.364  -4.084  28.529 -0.1483  0.1108 -0.2938
  488BOLB   C3A11695  12.228  -4.546  28.372 -0.0842  0.1459  0.2033
  488BOLB   C4A11696  12.014  -4.786  28.700 -0.2488  0.1214  0.1094
  488BOLB   C1B11697  13.063  -3.884  28.891  0.4424 -0.0881 -0.3523
  488BOLB   C2B11698  13.172  -4.229  29.171 -0.0173 -0.1412  0.2256
  488BOLB   C3B11699  13.564  -4.300  29.365 -0.0450  0.1417  0.2366
  488BOLB   C4B11700  13.860  -4.324  29.677 -0.0321 -0.1111  0.0421
  488BOLB   NC211701  11.901  -6.843  29.618  0.5315  0.1685 -0.0841
  488BOLB   PO211702  11.948  -6.533  29.903 -0.1353 -0.0885  0.2568
  488BOLB   GL311703  11.992  -6.360  29.461  0.1542 -0.1755 -0.1469
  488BOLB   GL411704  11.761  -6.395  29.174  0.3696 -0.0859  0.1044
  488BOLB   C1C11705  12.185  -6.232  28.953  0.1380  0.0231 -0.1820
  488BOLB   C2C11706  12.112  -5.892  28.780 -0.0264 -0.0072 -0.0106
  488BOLB   C3C11707  12.057  -5.506  28.937  0.2321 -0.1772  0.2386
  488BOLB   C4C11708  12.011  -5.105  28.809  0.0729  0.0238  0.0967
  488BOLB   C1D11709  11.909  -5.915  29.357 -0.0135 -0.0626 -0.1670
  488BOLB   C2D11710  11.993  -5.459  29.453 -0.1615  0.3479  0.0035
  488BOLB   C3D11711  12.250  -5.434  29.755 -0.0015  0.0688 -0.1797
  488BOLB   C4D11712  12.183  -5.441  30.146  0.0326 -0.0710 -0.2366
  489BOLB   NC111713  23.400  -0.685  23.034 -0.3289  0.1260 -0.0455
  489BOLB   PO111714  23.560  -0.815  22.591 -0.1427  0.0625 -0.2412
  489BOLB   GL111715  23.888  -0.859  22.362  0.2507 -0.1268  0.1268
  489BOLB   GL211716  24.174  -0.773  22.549 -0.2563  0.0180  0.0200
  489BOLB   C1A11717  23.965  -1.061  21.931 -0.0779 -0.0171  0.0279
  489BOLB   C2A11718  24.202  -1.255  21.706 -0.1312 -0.0367 -0.0912
  489BOLB   C3A11719  24.267  -1.309  21.405 -0.1866  0.0756 -0.3234
  489BOLB   C4A11720  24.461  -1.536  21.175  0.2027  0.0416  0.2005
  489BOLB   C1B11721  24.378  -1.124  22.354 -0.1469  0.0806 -0.1645
  489BOLB   C2B11722  24.699  -1.482  22.437  0.1811  0.0604 -0.1194
  489BOLB   C3B11723  25.055  -1.668  22.544 -0.2989  0.1983  0.3417
  489BOLB   C4B11724  25.419  -1.727  22.238 -0.0481 -0.1713  0.1587
  489BOLB   NC211725  26.345  -2.901  21.284  0.4524  0.2990  0.4075
  489BOLB   PO211726  26.193  -2.777  20.927  0.2732  0.1801 -0.0894
  489BOLB   GL311727  25.926  -2.739  21.387 -0.0941  0.2284 -0.3716
  489BOLB   GL411728  25.766  -2.574  21.223  0.0054  0.2942 -0.1246
  489BOLB   C1C11729  25.531  -2.687  21.651 -0.1292 -0.2823  0.0139
  489BOLB   C2C11730  25.091  -2.482  21.711 -0.2652 -0.0550  0.0570
  489BOLB   C3C11731  25.013  -2.077  21.423  0.0318 -0.0199 -0.2698
  489BOLB   C4C11732  24.629  -1.927  21.114  0.1880 -0.1350 -0.0622
  489BOLB   C1D11733  25.348  -2.387  21.226  0.0685 -0.0065  0.0198
  489BOLB   C2D11734  24.889  -2.371  21.050 -0.2127  0.0870 -0.0125
  489BOLB   C3D11735  24.498  -2.396  20.951  0.1219 -0.0413  0.1955
  489BOLB   C4D11736  24.165  -2.017  21.035 -0.0338  0.0392  0.0255
  490BOLB   NC111737  10.315   9.355  29.774  0.0568  0.3969 -0.0823
  490BOLB   PO111738  10.269   9.646  30.175 -0.2782  0.1057 -0.0692
  490BOLB   GL111739   9.882   9.591  30.410 -0.2972  0.2548  0.1526
  490BOLB   GL211740   9.817   9.638  30.743 -0.1726 -0.2237 -0.2731
  490BOLB   C1A11741   9.432   9.872  30.445  0.2331  0.0766 -0.0271
  490BOLB   C2A11742   9.005  10.112  30.381  0.0015  0.0386  0.0972
  490BOLB   C3A11743   8.576   9.847  30.511 -0.0647  0.0842 -0.0355
  490BOLB   C4A11744   8.217   9.843  30.808  0.2563 -0.1783 -0.0486
  490BOLB   C1B11745   9.622  10.077  30.846 -0.0103 -0.1383 -0.3543
  490BOLB   C2B11746   9.328  10.312  30.797 -0.1239 -0.0395  0.0104
  490BOLB   C3B11747   9.085  10.646  30.984  0.3368 -0.1456 -0.2001
  490BOLB   C4B11748   8.920  11.027  30.744  0.0173  0.3031 -0.0998
  490BOLB   NC211749   6.736  11.901  30.891  0.0500 -0.0840  0.3107
  490BOLB   PO211750   6.797  11.707  31.287 -0.1340 -0.2042 -0.1159
  490BOLB   GL311751   7.029  11.456  31.024 -0.2446  0.0919 -0.2923
  490BOLB   GL411752   7.322  11.195  31.213  0.1430  0.0301  0.0960
  490BOLB   C1C11753   7.037  11.062  30.827  0.1012 -0.0858 -0.0205
  490BOLB   C2C11754   7.222  10.714  30.816  0.2199  0.3636  0.2771
  490BOLB   C3C11755   7.597  10.519  30.810 -0.0986 -0.1970 -0.0494
  490BOLB   C4C11756   7.812  10.109  30.843  0.2461 -0.4817 -0.1121
  490BOLB   C1D11757   7.523  11.143  30.890 -0.3168  0.0024 -0.0630
  490BOLB   C2D11758   7.745  10.881  30.522 -0.1183 -0.3247  0.1045
  490BOLB   C3D11759   7.997  10.755  30.229  0.1136  0.0115  0.0532
  490BOLB   C4D11760   8.362  10.642  29.944  0.0724  0.0126 -0.2411
  491BOLB   NC111761  19.043   7.665  32.761 -0.0185  0.4124 -0.1812
  491BOLB   PO111762  18.691   7.852  32.938 -0.2027  0.0527  0.0314
  491BOLB   GL111763  18.751   8.191  33.254 -0.0233  0.3015  0.2847
  491BOLB   GL211764  19.056   8.503  33.222 -0.0506 -0.1181 -0.1097
  491BOLB   C1A11765  18.687   8.462  33.666 -0.2819 -0.3450 -0.4359
  491BOLB   C2A11766  18.728   8.804  34.023 -0.0785 -0.0075 -0.1165
  491BOLB   C3A11767  18.658   8.822  34.436  0.1412  0.1012  0.5015
  491BOLB   C4A11768  18.626   8.549  34.975  0.0730  0.1375  0.3930
  491BOLB   C1B11769  19.165   8.747  33.450 -0.0427 -0.1645  0.1728
  491BOLB   C2B11770  19.405   9.057  33.750  0.2643  0.1762  0.1753
  491BOLB   C3B11771  19.561   9.521  33.829 -0.2176 -0.1632  0.0940
  491BOLB   C4B11772  19.485   9.975  33.955 -0.1730  0.0121  0.4573
  491BOLB   NC211773  19.775   9.491  37.073 -0.0351 -0.0315 -0.1515
  491BOLB   PO211774  19.933   9.144  37.128  0.2138 -0.2491  0.1100
  491BOLB   GL311775  19.759   9.028  36.647  0.0977  0.0119  0.1549
  491BOLB   GL411776  19.723   8.573  36.619  0.3950  0.1393  0.2642
  491BOLB   C1C11777  19.332   9.096  36.403  0.0328 -0.0906  0.2339
  491BOLB   C2C11778  19.141   8.961  36.030  0.0857  0.0380 -0.1592
  491BOLB   C3C11779  18.731   8.863  35.786  0.2280 -0.0858 -0.1689
  491BOLB   C4C11780  18.511   8.642  35.405  0.2008 -0.4994  0.1203
  491BOLB   C1D11781  19.687   8.828  36.176  0.0600 -0.1941 -0.0761
  491BOLB   C2D11782  19.778   8.985  35.794  0.1777  0.1985 -0.0615
  491BOLB   C3D11783  19.425   8.912  35.508 -0.1057 -0.2536  0.1342
  491BOLB   C4D11784  19.340   8.917  35.131  0.0198 -0.2133  0.0153
  492BOLB   NC111785  24.412   6.664  28.673  0.0028  0.1545 -0.2159
  492BOLB   PO111786  24.441   7.191  28.552 -0.1941  0.0715 -0.1345
  492BOLB   GL111787  24.717   7.081  28.870  0.1415  0.4114  0.1610
  492BOLB   GL211788  24.815   6.855  28.797 -0.1331  0.0398  0.1526
  492BOLB   C1A11789  24.719   7.202  29.225 -0.3935  0.1723 -0.0384
  492BOLB   C2A11790  24.881   7.502  29.669 -0.1827  0.2356  0.2132
  492BOLB   C3A11791  25.185   7.603  30.015  0.0717  0.0346 -0.2097
  492BOLB   C4A11792  25.650   7.770  29.882  0.1346 -0.1464  0.1589
  492BOLB   C1B11793  25.115   6.822  28.936  0.0623 -0.2652  0.1114
  492BOLB   C2B11794  25.465   6.671  29.046  0.0351 -0.0513  0.1786
  492BOLB   C3B11795  25.855   6.914  29.171 -0.2669  0.1009 -0.1273
  492BOLB   C4B11796  26.229   7.244  29.189 -0.2733  0.0004  0.0390
  492BOLB   NC211797  28.175   7.990  30.610  0.0102 -0.0649  0.1366
  492BOLB   PO211798  27.865   7.652  30.592  0.1443  0.1129  0.0196
  492BOLB   GL311799  27.544   7.577  30.263 -0.0703  0.0472 -0.2078
  492BOLB   GL411800  27.267   7.638  30.503  0.1071 -0.0412 -0.1014
  492BOLB   C1C11801  27.208   7.624  29.926 -0.0187 -0.2254 -0.1995
  492BOLB   C2C11802  26.842   7.780  29.776  0.1104 -0.1665 -0.1651
  492BOLB   C3C11803  26.503   7.897  29.881  0.0798  0.2653 -0.2152
  492BOLB   C4C11804  26.150   7.977  29.954 -0.0657 -0.2029  0.1081
  492BOLB   C1D11805  27.167   7.195  30.565 -0.1422 -0.0636  0.0966
  492BOLB   C2D11806  26.766   6.857  30.440 -0.3191  0.0657 -0.0053
  492BOLB   C3D11807  26.469   6.630  30.368 -0.0842  0.0773 -0.1296
  492BOLB   C4D11808  26.213   6.585  30.063  0.3051 -0.2180 -0.1141
  493BOLB   NC111809  19.730   8.180  32.534  0.1008 -0.5035 -0.1596
  493BOLB   PO111810  19.923   8.270  32.092  0.0431  0.0238  0.1682
  493BOLB   GL111811  20.261   8.174  32.386 -0.0339 -0.0111  0.1350
  493BOLB   GL211812  20.219   7.965  32.559 -0.0162  0.1398  0.1568
  493BOLB   C1A11813  20.231   8.382  32.850  0.0914  0.1072  0.3601
  493BOLB   C2A11814  20.114   8.666  33.125 -0.0610  0.4211 -0.2250
  493BOLB   C3A11815  20.118   8.826  33.542 -0.0228  0.1322  0.0165
  493BOLB   C4A11816  20.236   8.731  34.001  0.3284  0.1007 -0.2997
  493BOLB   C1B11817  20.635   8.216  32.695  0.0803 -0.1692  0.1473
  493BOLB   C2B11818  20.946   8.343  32.920 -0.2722  0.0891 -0.0659
  493BOLB   C3B11819  20.988   8.717  33.160  0.1489 -0.2634  0.2656
  493BOLB   C4B11820  21.154   8.879  33.554  0.0263 -0.1146 -0.0685
  493BOLB   NC211821  19.886  10.658  36.126  0.2181 -0.1704  0.1417
  493BOLB   PO211822  19.726  10.236  36.069 -0.3836 -0.4367  0.2358
  493BOLB   GL311823  19.777   9.988  35.770 -0.2671  0.0149  0.1960
  493BOLB   GL411824  19.545   9.783  35.717  0.2373  0.0248  0.1420
  493BOLB   C1C11825  19.863   9.804  35.342  0.1859  0.0089 -0.0771
  493BOLB   C2C11826  20.096   9.558  35.017  0.1626  0.0326  0.2202
  493BOLB   C3C11827  20.067   9.368  34.685  0.0729  0.0686  0.2608
  493BOLB   C4C11828  20.094   8.981  34.413  0.0191  0.1914 -0.1128
  493BOLB   C1D11829  19.362   9.514  35.416 -0.2705  0.2461  0.0715
  493BOLB   C2D11830  19.159   9.318  35.034 -0.1315 -0.0923 -0.0080
  493BOLB   C3D11831  18.910   8.952  34.831  0.1448  0.0468 -0.2303
  493BOLB   C4D11832  18.394   8.943  34.903  0.0900  0.0414 -0.0643
  494BOLB   NC111833   7.634   7.794  25.523  0.1364  0.0019  0.3866
  494BOLB   PO111834   7.847   7.823  25.216  0.0748 -0.1989 -0.0704
  494BOLB   GL111835   7.320   7.950  25.151  0.2056 -0.3808  0.1724
  494BOLB   GL211836   7.168   7.887  24.950 -0.1099  0.0202  0.1383
  494BOLB   C1A11837   6.945   8.360  25.141 -0.0232 -0.2225 -0.0394
  494BOLB   C2A11838   6.773   8.771  25.109 -0.1027 -0.1239  0.1708
  494BOLB   C3A11839   6.698   9.056  25.466  0.0186  0.3093 -0.0846
  494BOLB   C4A11840   6.410   9.327  25.583  0.5629 -0.0222  0.2536
  494BOLB   C1B11841   6.733   7.882  24.898 -0.3566  0.2532 -0.0811
  494BOLB   C2B11842   6.277   7.946  25.018  0.0539  0.1308  0.1725
  494BOLB   C3B11843   6.052   7.771  25.303  0.1466 -0.1749 -0.1487
  494BOLB   C4B11844   6.139   7.453  25.682 -0.2412 -0.3019  0.0889
  494BOLB   NC211845   4.944  11.234  26.042 -0.2773 -0.0631 -0.1015
  494BOLB   PO211846   5.431  11.227  26.198  0.0249  0.1244 -0.3108
  494BOLB   GL311847   5.338  10.793  25.958 -0.2411 -0.1930 -0.1270
  494BOLB   GL411848   5.618  10.649  26.124  0.2859 -0.1276  0.2129
  494BOLB   C1C11849   5.291  10.326  25.920 -0.0301 -0.0604 -0.0087
  494BOLB   C2C11850   5.397   9.925  25.968  0.2775  0.2496  0.1191
  494BOLB   C3C11851   5.778   9.832  25.759  0.3324 -0.0324  0.0058
  494BOLB   C4C11852   6.117   9.653  25.572  0.1320 -0.1026  0.4368
  494BOLB   C1D11853   5.841  10.347  26.019  0.0542 -0.0306  0.0559
  494BOLB   C2D11854   6.030  10.203  25.701 -0.1389  0.1927 -0.1722
  494BOLB   C3D11855   6.359  10.328  25.401 -0.0288  0.3525 -0.1948
  494BOLB   C4D11856   6.775  10.329  25.366  0.1119 -0.1658  0.2208
  495BOLB   NC111857  14.942  -4.366  25.441 -0.3465  0.2090  0.2960
  495BOLB   PO111858  14.779  -4.248  25.127 -0.1734 -0.0004  0.2192
  495BOLB   GL111859  14.713  -4.711  25.077  0.1162  0.1042 -0.0358
  495BOLB   GL211860  14.927  -4.844  25.256 -0.0866  0.0566  0.1125
  495BOLB   C1A11861  14.634  -5.172  24.962 -0.1989  0.1504 -0.4462
  495BOLB   C2A11862  14.524  -5.523  24.754 -0.0208  0.2193 -0.0122
  495BOLB   C3A11863  14.460  -5.984  24.771 -0.2249 -0.2137 -0.0168
  495BOLB   C4A11864  14.426  -6.484  24.699  0.1348  0.0775 -0.1677
  495BOLB   C1B11865  14.945  -5.380  25.361 -0.3678  0.1219 -0.4365
  495BOLB   C2B11866  14.909  -5.639  25.600  0.0195 -0.2140  0.0302
  495BOLB   C3B11867  15.079  -6.062  25.851 -0.1682  0.0657 -0.1285
  495BOLB   C4B11868  15.006  -6.392  26.009 -0.2552 -0.0321  0.0462
  495BOLB   NC211869  14.062  -8.638  24.438 -0.4280  0.0332 -0.1840
  495BOLB   PO211870  14.504  -8.709  24.418 -0.1059 -0.2468  0.1440
  495BOLB   GL311871  14.312  -8.258  24.677 -0.0924  0.0157  0.1082
  495BOLB   GL411872  14.549  -8.118  24.829 -0.4434  0.2604 -0.1365
  495BOLB   C1C11873  14.281  -7.758  24.510 -0.0980 -0.0083  0.0316
  495BOLB   C2C11874  13.989  -7.517  24.490 -0.1643  0.0093  0.0702
  495BOLB   C3C11875  13.986  -7.068  24.436 -0.3099  0.1969  0.2618
  495BOLB   C4C11876  14.011  -6.678  24.579 -0.1036 -0.1433 -0.0397
  495BOLB   C1D11877  14.515  -7.936  25.282 -0.0155 -0.0565  0.0321
  495BOLB   C2D11878  14.146  -7.744  25.461 -0.0653  0.1459  0.0916
  495BOLB   C3D11879  14.265  -7.722  25.908  0.1229 -0.0397  0.1100
  495BOLB   C4D11880  14.586  -7.580  26.090  0.2559 -0.0485 -0.0698
  496BOLB   NC111881  20.848  -0.540  29.737 -0.0993 -0.2048  0.0862
  496BOLB   PO111882  20.905  -0.853  29.417 -0.3292 -0.0639  0.0034
  496BOLB   GL111883  21.178  -1.203  29.439 -0.0385  0.1383 -0.2072
  496BOLB   GL211884  21.403  -1.188  29.308 -0.0893 -0.2118  0.3355
  496BOLB   C1A11885  21.471  -1.321  29.840  0.0628 -0.0549  0.0625
  496BOLB   C2A11886  21.485  -1.514  30.231 -0.0616  0.4255  0.0240
  496BOLB   C3A11887  21.541  -1.698  30.573  0.0856 -0.2375 -0.0526
  496BOLB   C4A11888  21.331  -1.911  30.826 -0.1652 -0.0434 -0.1273
  496BOLB   C1B11889  21.588  -1.555  29.407  0.0222  0.1908 -0.1656
  496BOLB   C2B11890  21.920  -1.843  29.672  0.0312  0.0749  0.2188
  496BOLB   C3B11891  21.977  -2.274  29.745 -0.0424  0.1175 -0.4308
  496BOLB   C4B11892  22.148  -2.613  29.982 -0.0950  0.1637  0.0644
  496BOLB   NC211893  23.286  -3.299  31.521  0.0672  0.2805  0.1031
  496BOLB   PO211894  22.817  -3.504  31.534 -0.0139  0.1258 -0.3887
  496BOLB   GL311895  22.558  -3.172  31.571  0.2243  0.1544 -0.0307
  496BOLB   GL411896  22.229  -3.358  31.454 -0.1864  0.1325 -0.1534
  496BOLB   C1C11897  22.318  -2.813  31.434 -0.1717 -0.0384 -0.2194
  496BOLB   C2C11898  22.031  -2.593  31.629  0.1358 -0.1474 -0.0920
  496BOLB   C3C11899  21.612  -2.339  31.469  0.4912 -0.2795 -0.1256
  496BOLB   C4C11900  21.369  -1.967  31.230 -0.1295  0.1909 -0.2612
  496BOLB   C1D11901  22.035  -3.163  31.231 -0.0507  0.1620  0.0237
  496BOLB   C2D11902  22.056  -2.905  30.896  0.2355 -0.3592  0.2084
  496BOLB   C3D11903  22.157  -2.512  30.750  0.0344  0.0116 -0.1439
  496BOLB   C4D11904  22.564  -2.288  30.738 -0.2445  0.1583  0.0341
  497BOLB   NC111905   8.048   0.561  22.817  0.0706 -0.1332 -0.0198
  497BOLB   PO111906   7.987   0.816  23.084  0.1307  0.2103  0.2329
  497BOLB   GL111907   7.520   0.748  22.688  0.1887  0.1037  0.1796
  497BOLB   GL211908   7.201   0.866  22.795 -0.3660  0.1169  0.0773
  497BOLB   C1A11909   7.302   0.494  22.384  0.1767  0.1398  0.0630
  497BOLB   C2A11910   6.887   0.366  22.317 -0.0514  0.0140  0.1348
  497BOLB   C3A11911   6.693  -0.049  22.447 -0.1354  0.1516 -0.0091
  497BOLB   C4A11912   6.407  -0.484  22.407  0.1259  0.0240 -0.0546
  497BOLB   C1B11913   6.968   0.530  22.773  0.2071  0.1526  0.0504
  497BOLB   C2B11914   6.515   0.458  22.699  0.3245 -0.0736  0.0732
  497BOLB   C3B11915   6.349   0.352  22.315  0.1165 -0.0349  0.2306
  497BOLB   C4B11916   6.351  -0.010  22.147  0.0487 -0.0055 -0.2203
  497BOLB   NC211917   4.093  -1.104  22.221 -0.1678 -0.2571  0.0737
  497BOLB   PO211918   4.144  -0.736  22.378  0.0148 -0.4376  0.0785
  497BOLB   GL311919   4.474  -0.865  22.483  0.0908 -0.1694 -0.2168
  497BOLB   GL411920   4.509  -0.755  22.832 -0.3626  0.0724  0.0357
  497BOLB   C1C11921   4.817  -1.045  22.518  0.1219 -0.1709  0.0024
  497BOLB   C2C11922   5.154  -0.997  22.212  0.0306 -0.1496 -0.0360
  497BOLB   C3C11923   5.538  -0.849  22.391 -0.2723 -0.0573  0.1193
  497BOLB   C4C11924   5.934  -0.628  22.584 -0.1234 -0.0293 -0.2306
  497BOLB   C1D11925   4.823  -0.940  23.019 -0.1100  0.0155 -0.2284
  497BOLB   C2D11926   5.260  -0.954  23.025 -0.0870 -0.2260  0.2177
  497BOLB   C3D11927   5.721  -0.898  22.990 -0.2007  0.4046 -0.0985
  497BOLB   C4D11928   5.862  -0.654  23.267  0.3570  0.0618  0.2465
  498BOLB   NC111929  18.973  11.365  23.534 -0.0050 -0.3405  0.0517
  498BOLB   PO111930  18.897  11.076  23.233 -0.2220  0.1607 -0.2019
  498BOLB   GL111931  19.152  11.514  23.066  0.0545 -0.1600 -0.1360
  498BOLB   GL211932  19.329  11.627  22.951  0.0078 -0.1192  0.2911
  498BOLB   C1A11933  19.103  12.091  22.928 -0.0856 -0.1402 -0.0876
  498BOLB   C2A11934  19.335  12.369  22.776  0.1245 -0.0286  0.0690
  498BOLB   C3A11935  19.364  12.660  22.564 -0.2798 -0.0714 -0.1513
  498BOLB   C4A11936  19.249  13.085  22.444 -0.0779 -0.0173  0.1055
  498BOLB   C1B11937  19.704  11.892  23.016 -0.0530  0.0076 -0.1025
  498BOLB   C2B11938  20.090  11.892  22.939  0.0374  0.0179 -0.2152
  498BOLB   C3B11939  20.426  12.122  22.716 -0.0581  0.3991 -0.0951
  498BOLB   C4B11940  20.703  12.403  22.467  0.1249 -0.1210  0.2051
  498BOLB   NC211941  20.546  15.551  21.852  0.0071 -0.0771 -0.1178
  498BOLB   PO211942  20.243  15.279  21.944  0.1063 -0.0526 -0.0401
  498BOLB   GL311943  20.076  14.921  22.118  0.0530  0.0046 -0.0376
  498BOLB   GL411944  19.967  15.026  22.420 -0.2308 -0.0893  0.1456
  498BOLB   C1C11945  19.740  14.629  22.132 -0.2558  0.2745 -0.0529
  498BOLB   C2C11946  19.601  14.147  22.080 -0.0493 -0.2926  0.0889
  498BOLB   C3C11947  19.547  13.698  22.143  0.1243 -0.0317 -0.4920
  498BOLB   C4C11948  19.568  13.315  22.137 -0.1478  0.1346 -0.0440
  498BOLB   C1D11949  19.660  14.748  22.644 -0.3343 -0.0148 -0.0114
  498BOLB   C2D11950  19.630  14.469  22.977  0.2180  0.1286 -0.1037
  498BOLB   C3D11951  19.385  14.357  23.176 -0.0863  0.0310  0.0674
  498BOLB   C4D11952  19.161  14.128  23.324  0.2102  0.2628 -0.0012
  499BOLB   NC111953  13.425  11.563  29.468  0.1714 -0.0378  0.3392
  499BOLB   PO111954  13.621  11.974  29.502  0.1588  0.3095  0.0531
  499BOLB   GL111955  13.806  12.317  29.678 -0.0363 -0.1320 -0.1294
  499BOLB   GL211956  14.066  12.229  29.778 -0.1314  0.0755  0.0986
  499BOLB   C1A11957  13.591  12.724  29.712  0.0116  0.1763  0.1549
  499BOLB   C2A11958  13.514  13.080  29.930 -0.0219  0.1039  0.3204
  499BOLB   C3A11959  13.598  13.392  30.209  0.2675  0.0707  0.0359
  499BOLB   C4A11960  13.743  13.503  30.621 -0.2634  0.2613  0.3025
  499BOLB   C1B11961  14.063  12.690  29.809 -0.2653 -0.1477 -0.1184
  499BOLB   C2B11962  13.966  13.168  29.846  0.2992 -0.0677  0.2092
  499BOLB   C3B11963  14.279  13.508  29.658  0.1362 -0.1706 -0.1920
  499BOLB   C4B11964  14.571  13.789  29.470  0.0450 -0.0331 -0.1012
  499BOLB   NC211965  14.920  15.640  30.451 -0.2207 -0.0119 -0.1257
  499BOLB   PO211966  15.044  15.425  30.861 -0.3229  0.0145 -0.0452
  499BOLB   GL311967  14.952  15.011  30.957  0.2779 -0.2601 -0.1036
  499BOLB   GL411968  15.206  14.832  30.878 -0.1579 -0.0938  0.0027
  499BOLB   C1C11969  14.838  14.597  31.157  0.0857 -0.2898  0.1082
  499BOLB   C2C11970  14.488  14.250  31.170 -0.0226 -0.0041 -0.2075
  499BOLB   C3C11971  14.341  13.926  31.087  0.3389 -0.0505 -0.2487
  499BOLB   C4C11972  14.106  13.716  30.736 -0.0044  0.2106 -0.2676
  499BOLB   C1D11973  15.109  14.489  30.724 -0.2034  0.1190  0.0923
  499BOLB   C2D11974  15.179  14.252  30.564  0.0342 -0.2016 -0.2278
  499BOLB   C3D11975  15.457  14.061  30.230  0.0852 -0.1721  0.2113
  499BOLB   C4D11976  15.955  14.108  30.095  0.0272  0.1201  0.0597
  500BOLB   NC111977  16.131   7.335  17.409 -0.3249  0.1148  0.1865
  500BOLB   PO111978  15.888   6.951  17.390  0.1832  0.0020 -0.1612
  500BOLB   GL111979  15.800   7.213  17.041 -0.0351 -0.2594 -0.1924
  500BOLB   GL211980  16.022   7.326  16.774 -0.2931 -0.2683 -0.0779
  500BOLB   C1A11981  15.661   7.005  16.626 -0.0974 -0.6883  0.1524
  500BOLB   C2A11982  15.622   6.988  16.272  0.1933  0.0436 -0.0951
  500BOLB   C3A11983  15.556   7.392  15.977 -0.3749  0.4974 -0.2083
  500BOLB   C4A11984  15.392   7.605  15.653  0.2135 -0.1380 -0.4184
  500BOLB   C1B11985  15.954   7.525  16.399 -0.4742  0.0862  0.1435
  500BOLB   C2B11986  16.091   7.674  16.036 -0.3342 -0.1815  0.0700
  500BOLB   C3B11987  16.138   8.048  15.940  0.1633  0.1076 -0.1273
  500BOLB   C4B11988  16.503   8.424  15.963 -0.0097  0.3647  0.0471
  500BOLB   NC211989  14.456   8.546  13.564  0.1209  0.0569  0.0044
  500BOLB   PO211990  14.030   8.729  13.697  0.3596  0.1480 -0.2139
  500BOLB   GL311991  14.242   8.342  13.986 -0.0927 -0.4050  0.1726
  500BOLB   GL411992  14.475   8.580  14.126  0.0735  0.2131 -0.0987
  500BOLB   C1C11993  14.440   8.049  14.301  0.3187  0.2818  0.0459
  500BOLB   C2C11994  14.746   7.986  14.610  0.0800 -0.0897 -0.0652
  500BOLB   C3C11995  14.970   7.854  15.006 -0.1631 -0.2303 -0.3171
  500BOLB   C4C11996  15.327   7.887  15.302 -0.1943  0.0347  0.4365
  500BOLB   C1D11997  14.590   8.485  14.490 -0.4489  0.0927 -0.2029
  500BOLB   C2D11998  14.680   8.476  14.898  0.1400 -0.1394 -0.0128
  500BOLB   C3D11999  14.948   8.765  15.014  0.0710  0.0591 -0.0830
  500BOLB   C4D12000  15.072   8.832  15.444  0.0923 -0.0901  0.0029
  501BOLB   NC112001  13.376  11.870  26.337  0.2968  0.1526  0.3277
  501BOLB   PO112002  13.205  12.060  25.918 -0.0933  0.1820 -0.0975
  501BOLB   GL112003  13.367  12.503  25.860  0.0254 -0.2540 -0.0100
  501BOLB   GL212004  13.106  12.649  26.035 -0.1705  0.2169  0.0249
  501BOLB   C1A12005  13.521  12.906  25.788 -0.0672 -0.4693  0.1051
  501BOLB   C2A12006  13.725  13.195  25.490  0.1208  0.0396  0.1305
  501BOLB   C3A12007  13.869  13.503  25.246 -0.1617  0.2329  0.3109
  501BOLB   C4A12008  14.234  13.765  25.378 -0.2415  0.2673  0.1959
  501BOLB   C1B12009  12.965  13.004  25.831  0.0290 -0.3346 -0.1047
  501BOLB   C2B12010  13.090  13.470  25.815 -0.0834 -0.3605  0.4492
  501BOLB   C3B12011  13.276  13.894  25.798  0.0923  0.1953 -0.1416
  501BOLB   C4B12012  13.595  14.298  25.944  0.0880  0.2812 -0.2899
  501BOLB   NC212013  15.145  16.358  25.218 -0.1205  0.1259 -0.0184
  501BOLB   PO212014  14.832  16.016  25.000  0.2863 -0.1252 -0.3361
  501BOLB   GL312015  14.877  15.601  25.021  0.2094 -0.0378 -0.1546
  501BOLB   GL412016  15.047  15.614  24.709 -0.1117 -0.0698 -0.0530
  501BOLB   C1C12017  14.739  15.246  25.233  0.1931 -0.0632  0.1328
  501BOLB   C2C12018  14.621  14.841  25.285 -0.0057  0.1893 -0.0800
  501BOLB   C3C12019  14.513  14.482  25.282  0.3238 -0.2373 -0.2873
  501BOLB   C4C12020  14.442  14.165  25.452 -0.0954  0.2125 -0.0474
  501BOLB   C1D12021  15.137  15.188  24.760 -0.2942 -0.0694 -0.0434
  501BOLB   C2D12022  14.905  14.918  24.872  0.3272 -0.1895 -0.2178
  501BOLB   C3D12023  14.840  14.525  24.933 -0.0182  0.0617  0.2224
  501BOLB   C4D12024  15.202  14.134  24.871  0.0386  0.4076 -0.0557
  502BOLB   NC112025   8.111   5.849  28.777 -0.0590  0.0710  0.0445
  502BOLB   PO112026   7.977   5.437  28.516 -0.2658 -0.1791  0.0775
  502BOLB   GL112027   7.633   5.752  28.736  0.1114 -0.2878  0.0639
  502BOLB   GL212028   7.303   5.646  28.515  0.1515 -0.1067 -0.1387
  502BOLB   C1A12029   7.227   5.831  28.976  0.2219  0.3457 -0.0131
  502BOLB   C2A12030   6.846   5.748  29.194  0.2238  0.2700  0.0141
  502BOLB   C3A12031   6.514   5.404  29.197 -0.5584 -0.0811  0.0792
  502BOLB   C4A12032   6.126   5.216  29.331 -0.0230 -0.5604 -0.0949
  502BOLB   C1B12033   6.905   5.696  28.576  0.2531  0.0388  0.0265
  502BOLB   C2B12034   6.426   5.676  28.575 -0.1705  0.0708 -0.2340
  502BOLB   C3B12035   5.918   5.686  28.690 -0.0245  0.3288  0.2562
  502BOLB   C4B12036   5.540   5.858  28.595 -0.2038 -0.1688 -0.1256
  502BOLB   NC212037   3.921   5.738  31.441 -0.1191 -0.0766 -0.0907
  502BOLB   PO212038   4.114   5.781  31.035  0.4782 -0.1984 -0.2436
  502BOLB   GL312039   4.490   5.588  30.764 -0.1036  0.0502  0.1314
  502BOLB   GL412040   4.699   5.816  30.957  0.1337  0.4386 -0.0081
  502BOLB   C1C12041   4.672   5.439  30.313 -0.5279 -0.5771 -0.2120
  502BOLB   C2C12042   5.031   5.375  29.994 -0.2123  0.2666  0.0465
  502BOLB   C3C12043   5.379   5.253  29.711  0.1547  0.2194  0.0040
  502BOLB   C4C12044   5.762   5.214  29.532  0.1283  0.1881 -0.1701
  502BOLB   C1D12045   4.948   5.492  30.709 -0.2117  0.1342  0.1408
  502BOLB   C2D12046   5.361   5.505  30.556 -0.2405 -0.0510 -0.1724
  502BOLB   C3D12047   5.594   5.420  30.116  0.0437 -0.2312  0.1020
  502BOLB   C4D12048   6.010   5.454  29.863 -0.4774  0.0108 -0.0280
  503BOLB   NC112049   7.425   0.310  26.474 -0.3244 -0.1641 -0.0603
  503BOLB   PO112050   7.680   0.643  26.757 -0.0050  0.1983 -0.0054
  503BOLB   GL112051   7.440   0.318  26.999  0.3361 -0.3258 -0.0204
  503BOLB   GL212052   7.170   0.497  26.880  0.1147  0.0264  0.0367
  503BOLB   C1A12053   7.072   0.226  27.289 -0.1388 -0.3262 -0.1963
  503BOLB   C2A12054   6.986   0.179  27.600 -0.2227 -0.0601  0.1017
  503BOLB   C3A12055   6.598   0.082  27.675 -0.0146 -0.2441  0.2207
  503BOLB   C4A12056   6.293  -0.243  27.500  0.3278  0.2349 -0.2439
  503BOLB   C1B12057   6.729   0.300  26.911  0.1188  0.0192  0.0303
  503BOLB   C2B12058   6.294   0.448  26.717  0.3314  0.1564  0.1798
  503BOLB   C3B12059   5.947   0.626  26.548 -0.2967 -0.1243 -0.1375
  503BOLB   C4B12060   5.560   0.741  26.702  0.0825 -0.3142  0.0065
  503BOLB   NC212061   3.899  -1.639  27.098  0.1858 -0.1913 -0.1301
  503BOLB   PO212062   4.134  -1.714  27.303  0.0822 -0.2840  0.1675
  503BOLB   GL312063   4.449  -1.374  27.172  0.2569  0.4023 -0.1179
  503BOLB   GL412064   4.443  -1.075  27.173 -0.4078 -0.1524  0.2856
  503BOLB   C1C12065   4.880  -1.300  27.048 -0.0090  0.0197 -0.3752
  503BOLB   C2C12066   5.292  -1.040  27.188 -0.3852  0.2719  0.1552
  503BOLB   C3C12067   5.703  -0.938  27.328  0.1114  0.0728 -0.0015
  503BOLB   C4C12068   5.968  -0.672  27.551 -0.0482  0.1984  0.2888
  503BOLB   C1D12069   4.400  -0.613  27.107  0.2051 -0.1117  0.1679
  503BOLB   C2D12070   4.465  -0.394  26.735 -0.2189 -0.2553 -0.1406
  503BOLB   C3D12071   4.931  -0.405  26.574 -0.1499 -0.1549 -0.2361
  503BOLB   C4D12072   5.401  -0.367  26.477 -0.0196 -0.2033 -0.0111
  504BOLB   NC112073   7.174   1.283  23.091 -0.1512  0.0655 -0.0529
  504BOLB   PO112074   7.165   1.592  23.387  0.0873  0.1792  0.2399
  504BOLB   GL112075   6.777   1.651  23.206  0.1658  0.2430 -0.0706
  504BOLB   GL212076   6.669   1.329  22.976  0.2687  0.2536  0.1767
  504BOLB   C1A12077   6.413   1.809  22.919 -0.2530  0.0417  0.0796
  504BOLB   C2A12078   6.258   1.812  22.506  0.0704  0.2011 -0.0830
  504BOLB   C3A12079   5.881   1.821  22.264 -0.1534  0.3070 -0.3461
  504BOLB   C4A12080   5.609   1.986  21.960 -0.0021  0.3055 -0.0019
  504BOLB   C1B12081   6.333   1.194  23.280  0.1532 -0.0890  0.0643
  504BOLB   C2B12082   6.083   1.038  23.617 -0.0955  0.0427  0.0530
  504BOLB   C3B12083   5.772   0.788  23.766  0.0023 -0.4121  0.0655
  504BOLB   C4B12084   5.302   1.020  23.945 -0.2735  0.0624 -0.1965
  504BOLB   NC212085   3.617   2.605  20.433  0.1088  0.3255  0.1650
  504BOLB   PO212086   3.584   2.842  20.851  0.0425 -0.5203  0.2512
  504BOLB   GL312087   3.990   2.570  20.849 -0.3435 -0.2360 -0.0483
  504BOLB   GL412088   4.157   2.460  20.588 -0.1498  0.2252 -0.1584
  504BOLB   C1C12089   4.406   2.334  20.975 -0.0575  0.0158 -0.0613
  504BOLB   C2C12090   4.749   2.343  21.160  0.1638 -0.0238  0.1657
  504BOLB   C3C12091   5.169   2.127  21.298 -0.1234 -0.1389 -0.0687
  504BOLB   C4C12092   5.425   2.217  21.634  0.0848 -0.0224 -0.2614
  504BOLB   C1D12093   4.583   2.691  20.695  0.3456  0.3520 -0.0641
  504BOLB   C2D12094   4.921   2.828  20.856  0.2570  0.2036 -0.0706
  504BOLB   C3D12095   5.259   2.628  20.946  0.0397 -0.1853 -0.0220
  504BOLB   C4D12096   5.500   2.453  21.175 -0.2130 -0.5956  0.0470
  505BOLB   NC112097  22.164   7.150  30.718 -0.0891  0.0605 -0.0754
  505BOLB   PO112098  21.916   7.185  31.084  0.0359 -0.2465 -0.3043
  505BOLB   GL112099  22.266   7.133  31.288  0.1785  0.0618 -0.1276
  505BOLB   GL212100  22.321   7.435  31.240  0.2061 -0.0276 -0.0409
  505BOLB   C1A12101  22.522   6.992  31.710 -0.1574 -0.1968  0.2668
  505BOLB   C2A12102  22.579   7.222  32.090 -0.1324 -0.3886  0.0350
  505BOLB   C3A12103  22.773   7.530  32.284  0.0639  0.5421  0.0291
  505BOLB   C4A12104  22.894   7.823  32.452  0.2044 -0.0381  0.0943
  505BOLB   C1B12105  22.611   7.775  31.499  0.3671 -0.1064  0.0308
  505BOLB   C2B12106  22.607   8.155  31.790 -0.1574  0.1001  0.2579
  505BOLB   C3B12107  22.603   8.590  31.956 -0.0055 -0.1479 -0.1884
  505BOLB   C4B12108  22.417   8.920  31.792 -0.0702  0.0847 -0.0572
  505BOLB   NC212109  23.754   8.629  35.007 -0.2318 -0.3125 -0.2874
  505BOLB   PO212110  23.573   8.358  34.653 -0.4230 -0.2406 -0.2671
  505BOLB   GL312111  23.389   8.307  34.272  0.2274 -0.2573 -0.1238
  505BOLB   GL412112  23.188   8.023  34.435 -0.0799 -0.2320  0.0385
  505BOLB   C1C12113  23.150   8.428  33.964  0.1318  0.1395 -0.0169
  505BOLB   C2C12114  23.051   8.278  33.614 -0.1964  0.0059 -0.2573
  505BOLB   C3C12115  22.909   8.073  33.238  0.1222  0.0991  0.0743
  505BOLB   C4C12116  22.716   8.146  32.805 -0.4316  0.1285  0.0406
  505BOLB   C1D12117  23.174   7.888  34.029 -0.0187 -0.1185 -0.2079
  505BOLB   C2D12118  22.996   7.748  33.669  0.3217 -0.0472  0.0462
  505BOLB   C3D12119  22.813   7.569  33.342  0.3724  0.0137 -0.0498
  505BOLB   C4D12120  22.984   7.395  32.977 -0.1024  0.1493 -0.0615
  506BOLB   NC112121  12.054   9.480  14.919  0.3048 -0.0609  0.0420
  506BOLB   PO112122  11.814   9.824  15.154 -0.3968  0.0198 -0.0161
  506BOLB   GL112123  12.229   9.668  15.347 -0.1187 -0.1828 -0.1996
  506BOLB   GL212124  12.161   9.994  15.590  0.1351  0.2130 -0.0566
  506BOLB   C1A12125  12.355   9.322  15.626  0.0854 -0.0053  0.0255
  506BOLB   C2A12126  12.352   9.328  16.140  0.2247  0.0183 -0.0076
  506BOLB   C3A12127  12.308   8.980  16.447 -0.0737 -0.0965  0.0720
  506BOLB   C4A12128  12.196   8.615  16.532 -0.2944 -0.2805  0.0461
  506BOLB   C1B12129  12.071   9.655  15.876  0.2141 -0.1644  0.0641
  506BOLB   C2B12130  11.847   9.568  16.341 -0.2266 -0.1838  0.1410
  506BOLB   C3B12131  12.119   9.525  16.589 -0.0264 -0.0455  0.0320
  506BOLB   C4B12132  12.325   9.403  16.930  0.2051  0.3769 -0.0223
  506BOLB   NC212133  10.833   8.698  15.254  0.2763  0.3097  0.2743
  506BOLB   PO212134  11.193   8.690  14.983 -0.2458 -0.1376 -0.1553
  506BOLB   GL312135  11.373   8.417  15.213 -0.0857  0.1919  0.1504
  506BOLB   GL412136  11.188   8.092  15.222  0.1563  0.2965  0.2179
  506BOLB   C1C12137  11.638   8.108  15.377 -0.0018 -0.1214 -0.1776
  506BOLB   C2C12138  12.011   8.005  15.727  0.0050 -0.3935 -0.1505
  506BOLB   C3C12139  12.284   8.074  15.989 -0.3714  0.0474 -0.0441
  506BOLB   C4C12140  12.297   8.263  16.381  0.2781  0.3300  0.0348
  506BOLB   C1D12141  11.108   8.267  15.589  0.0190 -0.0129 -0.1542
  506BOLB   C2D12142  11.511   8.211  15.943 -0.1406  0.0648 -0.0281
  506BOLB   C3D12143  11.856   7.999  16.243 -0.1835  0.0326 -0.2184
  506BOLB   C4D12144  12.203   7.735  16.396  0.4211  0.2633  0.0135
  507BOLB   NC112145  24.233   1.291  28.443 -0.0888 -0.1261  0.0640
  507BOLB   PO112146  24.484   1.074  28.560 -0.0487  0.1649 -0.1555
  507BOLB   GL112147  24.697   0.805  28.240 -0.2235  0.4489  0.2644
  507BOLB   GL212148  24.931   0.820  28.389  0.1862 -0.1396 -0.0396
  507BOLB   C1A12149  24.867   0.458  27.985 -0.0608  0.2326  0.2516
  507BOLB   C2A12150  25.038   0.151  27.689  0.1671 -0.3470 -0.1435
  507BOLB   C3A12151  25.257  -0.137  27.515  0.0119 -0.0264 -0.1371
  507BOLB   C4A12152  25.393  -0.555  27.279  0.4731  0.1337  0.2475
  507BOLB   C1B12153  24.925   0.507  28.662  0.0326 -0.1453  0.1679
  507BOLB   C2B12154  25.198   0.326  28.837 -0.0234  0.2906  0.0865
  507BOLB   C3B12155  25.287   0.316  29.265 -0.1470 -0.0027 -0.1822
  507BOLB   C4B12156  25.687   0.217  29.509 -0.0408 -0.3024  0.0098
  507BOLB   NC212157  26.572  -2.499  28.531  0.0937 -0.0201  0.2750
  507BOLB   PO212158  26.925  -2.353  28.426 -0.1709 -0.1159  0.1165
  507BOLB   GL312159  26.768  -2.009  28.414  0.2275  0.1598 -0.2284
  507BOLB   GL412160  26.492  -2.031  28.667  0.2204 -0.0896 -0.1654
  507BOLB   C1C12161  26.555  -1.689  28.228  0.2956 -0.0729  0.1891
  507BOLB   C2C12162  26.264  -1.511  27.748  0.1564 -0.2075  0.0779
  507BOLB   C3C12163  26.001  -1.226  27.541  0.0858  0.3131 -0.0919
  507BOLB   C4C12164  25.706  -0.936  27.304  0.0046  0.1379  0.0907
  507BOLB   C1D12165  26.175  -1.900  28.437 -0.2259  0.3794  0.2106
  507BOLB   C2D12166  26.033  -1.828  28.080 -0.2346  0.0737  0.0592
  507BOLB   C3D12167  25.818  -1.516  27.995  0.0934  0.0002  0.1901
  507BOLB   C4D12168  25.628  -1.234  28.146 -0.2579  0.4309 -0.0054
  508BOLB   NC112169  15.795  11.583  23.746 -0.0968  0.2705  0.4364
  508BOLB   PO112170  15.870  11.747  23.318  0.2159  0.3997  0.1741
  508BOLB   GL112171  15.923  12.192  23.120  0.1560 -0.2543 -0.3755
  508BOLB   GL212172  16.282  12.236  23.213  0.0903  0.2623  0.2105
  508BOLB   C1A12173  16.052  12.638  22.954  0.2740 -0.0020 -0.1892
  508BOLB   C2A12174  16.406  12.884  22.892  0.2984  0.1152  0.0197
  508BOLB   C3A12175  16.505  13.330  22.902  0.1223  0.1256 -0.0655
  508BOLB   C4A12176  16.643  13.725  23.017 -0.2863  0.0417 -0.4651
  508BOLB   C1B12177  16.560  12.365  22.869  0.1410 -0.2702  0.2510
  508BOLB   C2B12178  16.840  12.763  22.668  0.5149  0.0203  0.1146
  508BOLB   C3B12179  16.931  13.082  22.374  0.1618 -0.0100  0.2771
  508BOLB   C4B12180  17.119  13.461  22.219  0.0326 -0.1771  0.0301
  508BOLB   NC212181  16.594  16.300  23.210 -0.2241  0.0284 -0.0157
  508BOLB   PO212182  16.897  15.956  22.986  0.2425  0.0556  0.0051
  508BOLB   GL312183  17.016  15.494  23.211  0.3158 -0.2924  0.0574
  508BOLB   GL412184  16.918  15.556  23.409 -0.1343  0.3079  0.1820
  508BOLB   C1C12185  16.810  15.083  23.142 -0.1762 -0.0215  0.0627
  508BOLB   C2C12186  16.506  14.821  23.311  0.1006  0.0227 -0.1085
  508BOLB   C3C12187  16.462  14.453  23.267 -0.0511 -0.2836  0.2541
  508BOLB   C4C12188  16.545  14.167  22.983  0.2755 -0.0321 -0.0150
  508BOLB   C1D12189  16.877  15.263  23.742 -0.2257  0.1620 -0.1479
  508BOLB   C2D12190  16.638  14.871  23.873 -0.1488 -0.1127  0.2709
  508BOLB   C3D12191  16.492  14.520  23.796 -0.0838 -0.2488 -0.0165
  508BOLB   C4D12192  16.330  14.113  23.748 -0.0551  0.4420  0.1769
  509BOLB   NC112193  22.534  -1.896  24.711 -0.3184  0.0378 -0.2093
  509BOLB   PO112194  22.066  -2.087  24.507 -0.4694  0.1006  0.4738
  509BOLB   GL112195  22.380  -2.333  24.804 -0.2382  0.4684 -0.1874
  509BOLB   GL212196  22.476  -2.671  24.890 -0.0677 -0.3135  0.3898
  509BOLB   C1A12197  22.888  -2.474  24.655 -0.1292  0.2118 -0.0601
  509BOLB   C2A12198  23.392  -2.507  24.757  0.0699 -0.0170 -0.0208
  509BOLB   C3A12199  23.751  -2.533  25.108  0.2657 -0.0589  0.3758
  509BOLB   C4A12200  23.906  -2.854  25.355  0.0633 -0.1581  0.0423
  509BOLB   C1B12201  22.629  -3.071  24.985 -0.0016  0.0019 -0.2575
  509BOLB   C2B12202  22.848  -3.421  24.918 -0.0404  0.0094  0.3098
  509BOLB   C3B12203  23.022  -3.781  24.663  0.1315 -0.0641 -0.1326
  509BOLB   C4B12204  23.370  -3.908  24.561  0.1930  0.0216 -0.2810
  509BOLB   NC212205  24.515  -5.193  26.154 -0.1735 -0.2828  0.1636
  509BOLB   PO212206  24.026  -5.429  26.038 -0.0317  0.1165  0.1488
  509BOLB   GL312207  23.905  -5.077  25.760  0.3726 -0.4719 -0.1102
  509BOLB   GL412208  23.955  -4.886  25.952  0.0118 -0.0279  0.0029
  509BOLB   C1C12209  23.918  -4.506  25.641  0.2554 -0.1514 -0.2695
  509BOLB   C2C12210  23.963  -4.057  25.556 -0.0096 -0.0039 -0.2196
  509BOLB   C3C12211  23.781  -3.690  25.564  0.1625 -0.1726 -0.0478
  509BOLB   C4C12212  23.784  -3.182  25.486 -0.0231 -0.0009  0.1764
  509BOLB   C1D12213  23.548  -4.601  25.921 -0.2798  0.0000 -0.2859
  509BOLB   C2D12214  23.220  -4.306  25.995  0.0286 -0.3025  0.5538
  509BOLB   C3D12215  22.829  -4.125  26.272  0.2421  0.0445 -0.1777
  509BOLB   C4D12216  22.330  -4.101  26.471 -0.0930  0.1590 -0.0268
  510BOLB   NC112217  15.042  -3.908  24.206 -0.0466 -0.0644 -0.1195
  510BOLB   PO112218  15.190  -4.385  24.367  0.1864  0.4428  0.4330
  510BOLB   GL112219  15.114  -4.758  24.704 -0.0779  0.2380  0.2586
  510BOLB   GL212220  14.846  -4.935  24.592  0.0973  0.0495 -0.1827
  510BOLB   C1A12221  15.244  -5.227  24.787 -0.3837  0.0827  0.1747
  510BOLB   C2A12222  15.048  -5.693  24.839  0.0115 -0.3417 -0.2035
  510BOLB   C3A12223  14.863  -5.884  25.167 -0.0165  0.1697 -0.3167
  510BOLB   C4A12224  14.495  -6.183  25.241 -0.1002 -0.0277  0.0726
  510BOLB   C1B12225  14.903  -5.349  24.430 -0.0667  0.3850  0.0645
  510BOLB   C2B12226  14.766  -5.760  24.359 -0.0047 -0.0846 -0.0231
  510BOLB   C3B12227  14.733  -6.226  24.384 -0.3802  0.2862  0.1163
  510BOLB   C4B12228  14.774  -6.632  24.365 -0.1034 -0.0212  0.3065
  510BOLB   NC212229  13.109  -8.082  24.899  0.4099 -0.0753  0.0122
  510BOLB   PO212230  13.218  -8.241  25.245 -0.0251 -0.2701 -0.2295
  510BOLB   GL312231  13.578  -7.916  25.280  0.2368  0.0409 -0.0696
  510BOLB   GL412232  13.469  -7.892  25.562 -0.2394  0.1740  0.0498
  510BOLB   C1C12233  13.645  -7.446  25.240 -0.1556 -0.1051  0.0430
  510BOLB   C2C12234  13.763  -7.034  25.434  0.1794 -0.1374 -0.1478
  510BOLB   C3C12235  14.064  -6.770  25.673  0.2658 -0.0040 -0.2698
  510BOLB   C4C12236  14.217  -6.366  25.535  0.2990  0.0651 -0.0010
  510BOLB   C1D12237  13.337  -7.492  25.655 -0.1185  0.0382  0.0927
  510BOLB   C2D12238  13.244  -7.086  25.511 -0.2080 -0.0289 -0.0540
  510BOLB   C3D12239  12.907  -6.728  25.613 -0.0663  0.2023 -0.4262
  510BOLB   C4D12240  12.778  -6.306  25.513 -0.1889  0.2164 -0.0893
  511BOLB   NC112241   8.985  10.088  28.522  0.1743  0.0893 -0.1339
  511BOLB   PO112242   8.771   9.785  28.466  0.2565 -0.0497  0.3098
  511BOLB   GL112243   8.410  10.037  28.461 -0.0501 -0.0845 -0.2815
  511BOLB   GL212244   8.120   9.810  28.414  0.1544 -0.2483 -0.1867
  511BOLB   C1A12245   8.189  10.332  28.646 -0.2573  0.0038  0.0106
  511BOLB   C2A12246   8.240  10.869  28.687  0.0267  0.1191  0.2165
  511BOLB   C3A12247   8.344  11.068  29.066  0.0818  0.5871 -0.2502
  511BOLB   C4A12248   8.116  11.212  29.439 -0.2451  0.3169  0.1712
  511BOLB   C1B12249   7.770  10.241  28.341 -0.2296 -0.1212  0.0830
  511BOLB   C2B12250   7.308  10.330  28.573 -0.1072 -0.3710 -0.0878
  511BOLB   C3B12251   7.242   9.980  28.834  0.1970 -0.0977 -0.0509
  511BOLB   C4B12252   6.963   9.710  28.991  0.3569 -0.2122  0.0754
  511BOLB   NC212253   6.530  12.279  30.152  0.0614  0.1904  0.0455
  511BOLB   PO212254   6.516  12.204  30.555  0.0254  0.3689  0.1429
  511BOLB   GL312255   6.861  11.986  30.388  0.1582  0.0414  0.1902
  511BOLB   GL412256   6.831  11.708  30.471  0.1527 -0.1211 -0.0009
  511BOLB   C1C12257   7.310  12.034  30.333  0.0217  0.0394  0.0483
  511BOLB   C2C12258   7.633  11.865  30.203 -0.0080  0.1402  0.1131
  511BOLB   C3C12259   7.821  11.556  30.094 -0.0533 -0.0625  0.1905
  511BOLB   C4C12260   7.929  11.218  29.843  0.1931 -0.0814 -0.1928
  511BOLB   C1D12261   7.182  11.623  30.576 -0.3620 -0.0351 -0.1271
  511BOLB   C2D12262   7.314  11.212  30.449  0.1206 -0.1670 -0.0317
  511BOLB   C3D12263   7.374  10.981  30.232  0.3954  0.2303 -0.2182
  511BOLB   C4D12264   7.376  10.579  30.366  0.2903  0.0580 -0.0082
  512BOLB   NC112265  20.833   7.904  30.557  0.1540  0.1169 -0.0809
  512BOLB   PO112266  21.177   8.260  30.668 -0.1101 -0.0884  0.0426
  512BOLB   GL112267  21.283   8.514  31.077 -0.0110  0.1767  0.0238
  512BOLB   GL212268  21.162   8.752  30.923  0.0683  0.1039 -0.0055
  512BOLB   C1A12269  21.294   8.633  31.567 -0.2138  0.2237 -0.0024
  512BOLB   C2A12270  21.117   8.857  32.048 -0.1647 -0.0045 -0.2653
  512BOLB   C3A12271  21.234   9.149  32.373  0.3679  0.4143  0.2561
  512BOLB   C4A12272  21.284   9.521  32.517 -0.2520 -0.2458 -0.2495
  512BOLB   C1B12273  21.441   8.980  31.320 -0.3098 -0.3032  0.5835
  512BOLB   C2B12274  21.527   9.025  31.817  0.0125 -0.4656 -0.1409
  512BOLB   C3B12275  21.609   9.395  32.150  0.4447  0.0202 -0.1915
  512BOLB   C4B12276  21.967   9.711  32.117 -0.0114 -0.0238  0.0779
  512BOLB   NC212277  22.371  10.986  34.356  0.0448  0.0015  0.0806
  512BOLB   PO212278  22.414  10.450  34.392 -0.1400 -0.1058  0.1621
  512BOLB   GL312279  22.230  10.104  34.153  0.1666  0.1949  0.0404
  512BOLB   GL412280  22.449   9.918  33.887  0.0436 -0.0829 -0.0539
  512BOLB   C1C12281  21.942   9.889  33.893 -0.0639  0.0909 -0.0396
  512BOLB   C2C12282  21.655   9.825  33.552 -0.1385 -0.0808  0.0301
  512BOLB   C3C12283  21.378   9.788  33.146  0.1123  0.1964  0.0164
  512BOLB   C4C12284  21.256   9.883  32.694  0.3647  0.1858 -0.1552
  512BOLB   C1D12285  22.202  10.193  33.664 -0.0074 -0.0965  0.1984
  512BOLB   C2D12286  21.809  10.309  33.455  0.1722 -0.3047  0.0856
  512BOLB   C3D12287  21.407  10.288  33.223 -0.2814  0.3208  0.1158
  512BOLB   C4D12288  21.171  10.333  32.903  0.2166 -0.0108  0.0601
  513BOLB   NC112289  12.836   7.560  32.487  0.0034 -0.1779 -0.2387
  513BOLB   PO112290  13.201   7.347  32.596  0.0820  0.0795 -0.0718
  513BOLB   GL112291  12.920   7.312  32.942  0.2696 -0.0842  0.0514
  513BOLB   GL212292  12.591   7.564  32.960  0.0674  0.2325  0.0775
  513BOLB   C1A12293  12.827   7.417  33.349  0.0297  0.1323 -0.0912
  513BOLB   C2A12294  12.686   7.569  33.739 -0.0707 -0.2107 -0.0219
  513BOLB   C3A12295  12.588   7.620  34.184  0.0370 -0.0309 -0.0050
  513BOLB   C4A12296  12.416   7.722  34.565 -0.0203 -0.0745 -0.1799
  513BOLB   C1B12297  12.420   7.721  33.317  0.1750 -0.2259 -0.1829
  513BOLB   C2B12298  12.231   7.706  33.737  0.0456 -0.1402 -0.0987
  513BOLB   C3B12299  12.211   7.917  34.112  0.0211 -0.3091 -0.1317
  513BOLB   C4B12300  11.720   8.164  34.232 -0.1722  0.0778  0.0394
  513BOLB   NC212301  11.745   8.721  36.234 -0.5491  0.2388  0.0872
  513BOLB   PO212302  11.478   9.139  36.133  0.1576 -0.1784  0.2317
  513BOLB   GL312303  11.718   9.015  35.813 -0.3285 -0.0599  0.3873
  513BOLB   GL412304  11.587   9.250  35.532  0.2023  0.1535 -0.0965
  513BOLB   C1C12305  11.544   8.826  35.373  0.0821  0.5412  0.3056
  513BOLB   C2C12306  11.792   8.699  34.950 -0.3606 -0.0059 -0.1328
  513BOLB   C3C12307  11.955   8.467  34.668  0.1968  0.2710 -0.5104
  513BOLB   C4C12308  12.216   8.071  34.610 -0.0264 -0.0952 -0.1594
  513BOLB   C1D12309  11.928   9.231  35.240 -0.0971 -0.0853  0.1906
  513BOLB   C2D12310  12.235   9.292  34.938  0.2157  0.3429 -0.2347
  513BOLB   C3D12311  12.501   9.600  34.809 -0.3180  0.1080 -0.1845
  513BOLB   C4D12312  12.954   9.664  34.726 -0.0395 -0.1441 -0.2470
  514BOLB   NC112313  22.933   5.990  21.075 -0.0712 -0.2547 -0.0703
  514BOLB   PO112314  22.697   5.886  20.740 -0.1066  0.0097  0.1473
  514BOLB   GL112315  23.165   6.118  20.597 -0.0590 -0.0825  0.0284
  514BOLB   GL212316  23.346   5.845  20.417 -0.1698  0.1505  0.0399
  514BOLB   C1A12317  23.494   6.418  20.679 -0.0954 -0.2668 -0.2918
  514BOLB   C2A12318  23.766   6.746  20.794 -0.0315 -0.3300  0.1506
  514BOLB   C3A12319  24.002   7.051  20.709  0.2676  0.0358 -0.2200
  514BOLB   C4A12320  24.150   7.504  20.527  0.3111 -0.1661 -0.1571
  514BOLB   C1B12321  23.568   6.133  20.273 -0.0194  0.2191 -0.0928
  514BOLB   C2B12322  23.766   6.581  20.323 -0.0860  0.3754  0.2113
  514BOLB   C3B12323  24.041   6.896  20.221  0.0187  0.0473 -0.0164
  514BOLB   C4B12324  24.371   7.219  20.182 -0.1855 -0.0509 -0.0985
  514BOLB   NC212325  26.774   7.927  20.085 -0.1246  0.0702  0.1493
  514BOLB   PO212326  26.388   8.218  19.885 -0.1847 -0.0460 -0.1285
  514BOLB   GL312327  25.966   8.202  20.031 -0.1293 -0.1179 -0.4655
  514BOLB   GL412328  25.669   8.216  19.824 -0.2550  0.2754 -0.1863
  514BOLB   C1C12329  25.703   7.938  20.292  0.4472  0.2488 -0.1078
  514BOLB   C2C12330  25.309   7.972  20.463  0.2550 -0.0024  0.3351
  514BOLB   C3C12331  24.878   7.921  20.420  0.2466  0.0623  0.3324
  514BOLB   C4C12332  24.460   7.781  20.519 -0.2488 -0.3766  0.2170
  514BOLB   C1D12333  25.241   8.037  19.755 -0.2351 -0.1035 -0.4206
  514BOLB   C2D12334  24.797   8.063  19.814  0.0505 -0.0146 -0.0521
  514BOLB   C3D12335  24.707   8.486  19.775  0.4170 -0.1131 -0.1762
  514BOLB   C4D12336  24.709   8.841  19.510 -0.0642  0.2757 -0.0345
  515BOLB   NC112337  12.186  11.434  28.921 -0.1249 -0.0258  0.0816
  515BOLB   PO112338  12.186  11.768  29.127  0.2152 -0.2640 -0.0847
  515BOLB   GL112339  12.167  12.058  29.427  0.1534 -0.1473  0.5574
  515BOLB   GL212340  12.246  12.006  29.772 -0.4454  0.3401 -0.1734
  515BOLB   C1A12341  12.049  12.428  29.642 -0.1369 -0.0873  0.0422
  515BOLB   C2A12342  12.262  12.796  29.610  0.0274 -0.1802  0.0895
  515BOLB   C3A12343  12.407  13.175  29.908  0.0049 -0.2451  0.0256
  515BOLB   C4A12344  12.144  13.353  30.224  0.2968 -0.3381  0.3508
  515BOLB   C1B12345  12.265  12.169  30.095 -0.0199 -0.0305 -0.2695
  515BOLB   C2B12346  12.130  12.641  30.152  0.0763  0.0119 -0.2625
  515BOLB   C3B12347  12.100  12.944  30.554 -0.0378  0.2012  0.0599
  515BOLB   C4B12348  12.408  12.873  30.954 -0.0371 -0.0122 -0.2751
  515BOLB   NC212349  11.797  15.577  31.927  0.1158 -0.0180  0.1461
  515BOLB   PO212350  11.489  15.242  31.906  0.1037 -0.1932 -0.2488
  515BOLB   GL312351  11.573  14.896  31.568  0.2117  0.3087 -0.0850
  515BOLB   GL412352  11.623  14.988  31.362 -0.0434  0.0282  0.0609
  515BOLB   C1C12353  11.762  14.466  31.493  0.0042 -0.0771 -0.0903
  515BOLB   C2C12354  11.857  14.335  31.072  0.2910 -0.0112 -0.1230
  515BOLB   C3C12355  11.983  13.928  30.863  0.2770  0.3499  0.1195
  515BOLB   C4C12356  11.975  13.473  30.697 -0.2091  0.0994  0.0095
  515BOLB   C1D12357  11.747  14.887  30.950 -0.0513  0.3031 -0.0738
  515BOLB   C2D12358  11.831  14.600  30.609  0.0986  0.0104 -0.0688
  515BOLB   C3D12359  11.848  14.204  30.443  0.2170  0.0495 -0.2077
  515BOLB   C4D12360  12.006  13.844  30.397 -0.3787  0.1583  0.1279
  516BOLB   NC112361  15.417   1.111  15.937 -0.3546  0.0406 -0.0496
  516BOLB   PO112362  15.175   0.828  16.007  0.3380 -0.0208 -0.2944
  516BOLB   GL112363  15.441   0.596  15.767  0.0887 -0.1500 -0.1509
  516BOLB   GL212364  15.783   0.787  15.683 -0.0368 -0.0730  0.2589
  516BOLB   C1A12365  15.317   0.180  15.567  0.0019 -0.0935  0.3432
  516BOLB   C2A12366  15.313  -0.012  15.206 -0.0618 -0.1846  0.3032
  516BOLB   C3A12367  15.317  -0.398  15.017 -0.0892  0.1665 -0.1418
  516BOLB   C4A12368  15.135  -0.428  14.665  0.2284 -0.0245  0.1318
  516BOLB   C1B12369  16.010   0.792  15.295  0.1307  0.0816 -0.3086
  516BOLB   C2B12370  16.030   0.821  14.834 -0.0335  0.1684  0.1922
  516BOLB   C3B12371  16.338   1.154  14.736  0.0112  0.1166  0.2040
  516BOLB   C4B12372  16.759   1.288  14.566 -0.0115  0.3076  0.1032
  516BOLB   NC212373  15.476  -1.400  11.772  0.2976  0.1744  0.0498
  516BOLB   PO212374  15.310  -1.453  12.230 -0.1745 -0.1729  0.1356
  516BOLB   GL312375  15.313  -1.173  12.618  0.0063  0.2213  0.0540
  516BOLB   GL412376  15.553  -1.037  12.692  0.3049 -0.1355 -0.0632
  516BOLB   C1C12377  15.067  -1.061  12.993  0.2337 -0.0577  0.0240
  516BOLB   C2C12378  15.041  -0.860  13.450  0.5374  0.1447  0.0794
  516BOLB   C3C12379  14.994  -0.804  13.848  0.4614 -0.0979  0.1102
  516BOLB   C4C12380  14.984  -0.486  14.215  0.4429  0.0626 -0.5695
  516BOLB   C1D12381  15.920  -1.096  12.483 -0.1637  0.1294 -0.0306
  516BOLB   C2D12382  16.421  -1.039  12.621 -0.0600 -0.0021 -0.2543
  516BOLB   C3D12383  16.594  -0.735  12.751 -0.4707 -0.2773  0.2771
  516BOLB   C4D12384  16.994  -0.625  12.704 -0.5453 -0.1641 -0.2790
  517BOLB   NC112385  13.169   9.406  20.976 -0.1967  0.0328  0.2305
  517BOLB   PO112386  12.928   9.696  20.790  0.2495  0.0894  0.3053
  517BOLB   GL112387  12.839  10.080  20.632 -0.2629  0.1676  0.0332
  517BOLB   GL212388  13.095  10.049  20.373 -0.0675 -0.2098 -0.3928
  517BOLB   C1A12389  12.565  10.218  20.190 -0.1740 -0.0159 -0.2543
  517BOLB   C2A12390  12.350  10.421  20.074 -0.1598 -0.0105  0.1152
  517BOLB   C3A12391  12.117  10.517  19.732 -0.0555  0.0275  0.1405
  517BOLB   C4A12392  11.760  10.446  19.554  0.0733  0.0405 -0.2627
  517BOLB   C1B12393  13.024  10.398  20.222 -0.2596  0.2132  0.2910
  517BOLB   C2B12394  12.793  10.563  19.786  0.1953 -0.0026 -0.2706
  517BOLB   C3B12395  12.574  10.519  19.335 -0.0740  0.2081 -0.1067
  517BOLB   C4B12396  12.192  10.575  19.080 -0.0906 -0.2945  0.1129
  517BOLB   NC212397  11.342  12.283  17.984  0.1278 -0.0469 -0.0278
  517BOLB   PO212398  11.050  11.975  17.708 -0.2055  0.1267  0.1066
  517BOLB   GL312399  11.323  11.775  18.005 -0.0129  0.0563  0.0872
  517BOLB   GL412400  11.655  11.782  17.926 -0.0753  0.1004 -0.1727
  517BOLB   C1C12401  11.325  11.385  18.345 -0.3061 -0.2771  0.1408
  517BOLB   C2C12402  11.375  10.919  18.427  0.0349 -0.1588 -0.4591
  517BOLB   C3C12403  11.447  10.532  18.695  0.0023 -0.0994  0.3981
  517BOLB   C4C12404  11.692  10.430  19.091 -0.0706 -0.1668 -0.3144
  517BOLB   C1D12405  11.855  11.501  18.221 -0.1154  0.3506 -0.0466
  517BOLB   C2D12406  12.014  11.215  18.426  0.1519 -0.0991 -0.0564
  517BOLB   C3D12407  11.817  10.881  18.697 -0.0084  0.0480  0.0511
  517BOLB   C4D12408  11.761  10.907  19.222 -0.1315 -0.3133 -0.2889
  518BOLB   NC112409  11.606  -0.390  30.909 -0.1022  0.2205  0.1201
  518BOLB   PO112410  11.274  -0.189  30.644 -0.3534  0.0221  0.0204
  518BOLB   GL112411  11.174  -0.260  31.125 -0.1312  0.1789 -0.0910
  518BOLB   GL212412  11.248  -0.446  31.270  0.1541 -0.2269  0.1231
  518BOLB   C1A12413  10.777  -0.179  31.320 -0.1982 -0.0592 -0.0804
  518BOLB   C2A12414  10.487  -0.411  31.396  0.4407  0.3765  0.0119
  518BOLB   C3A12415  10.318  -0.671  31.710 -0.1111  0.1268 -0.0002
  518BOLB   C4A12416  10.390  -0.667  32.111 -0.0581 -0.0837 -0.1245
  518BOLB   C1B12417  11.378  -0.588  31.777  0.1665  0.0469 -0.0762
  518BOLB   C2B12418  10.994  -0.554  32.123 -0.1935 -0.3147 -0.2626
  518BOLB   C3B12419  10.811  -0.341  32.446 -0.0907 -0.0714 -0.1644
  518BOLB   C4B12420  10.798  -0.279  32.917  0.0497 -0.2847 -0.2110
  518BOLB   NC212421   8.819  -1.664  33.217  0.1676 -0.0090 -0.2936
  518BOLB   PO212422   9.072  -1.750  33.666 -0.0296 -0.2078 -0.0694
  518BOLB   GL312423   9.341  -1.497  33.379 -0.2164 -0.0086  0.0860
  518BOLB   GL412424   9.355  -1.736  33.097  0.0855 -0.0274 -0.2536
  518BOLB   C1C12425   9.516  -1.285  32.937 -0.0428 -0.1345 -0.0800
  518BOLB   C2C12426   9.895  -1.252  32.764 -0.1549  0.3644 -0.1696
  518BOLB   C3C12427  10.337  -1.217  32.594 -0.1751 -0.2552 -0.1913
  518BOLB   C4C12428  10.554  -0.841  32.423 -0.0793 -0.1516 -0.5040
  518BOLB   C1D12429   9.834  -1.761  32.986  0.2055 -0.2121  0.0007
  518BOLB   C2D12430  10.170  -1.720  32.730 -0.0923  0.0840  0.4716
  518BOLB   C3D12431  10.612  -1.620  32.433 -0.0321  0.1767 -0.0130
  518BOLB   C4D12432  10.840  -1.472  32.078 -0.0739 -0.0390  0.1363
  519BOLB   NC112433  23.739   6.968  23.396 -0.0151 -0.2221  0.0596
  519BOLB   PO112434  23.813   6.466  23.303 -0.0221  0.2129 -0.1313
  519BOLB   GL112435  24.096   6.705  23.198 -0.2271 -0.0252  0.3813
  519BOLB   GL212436  24.236   6.691  23.022 -0.1623 -0.0256  0.0472
  519BOLB   C1A12437  24.404   7.104  23.392  0.0809  0.0999  0.0917
  519BOLB   C2A12438  24.658   7.532  23.276 -0.0751  0.4765 -0.2411
  519BOLB   C3A12439  24.990   7.690  23.128  0.1279 -0.1357  0.2242
  519BOLB   C4A12440  25.428   7.900  22.956 -0.0968  0.0054 -0.2693
  519BOLB   C1B12441  24.488   6.740  22.665 -0.2956  0.1654  0.1574
  519BOLB   C2B12442  24.909   6.899  22.567 -0.0302 -0.1322 -0.1901
  519BOLB   C3B12443  25.254   6.955  22.395  0.4359  0.1303 -0.1303
  519BOLB   C4B12444  25.447   7.230  22.205  0.1108 -0.2941  0.0468
  519BOLB   NC212445  27.583   8.782  22.753  0.1981  0.2058  0.1452
  519BOLB   PO212446  27.289   8.612  22.409  0.1974 -0.1920  0.2235
  519BOLB   GL312447  26.904   8.572  22.291 -0.0226  0.1674 -0.0922
  519BOLB   GL412448  26.689   8.848  21.994  0.0519 -0.1847  0.1831
  519BOLB   C1C12449  26.452   8.346  22.084  0.1028  0.0346  0.1150
  519BOLB   C2C12450  26.065   8.116  22.023 -0.0527  0.0091 -0.0704
  519BOLB   C3C12451  25.876   8.348  22.354  0.2868 -0.0195 -0.3138
  519BOLB   C4C12452  25.583   8.113  22.691 -0.0550 -0.2169 -0.1322
  519BOLB   C1D12453  26.248   8.795  22.062 -0.4317 -0.2827  0.2225
  519BOLB   C2D12454  25.755   8.772  22.213  0.0563  0.1893  0.0293
  519BOLB   C3D12455  25.389   8.459  22.231 -0.2256 -0.0737  0.1621
  519BOLB   C4D12456  25.295   8.047  22.039 -0.1185 -0.2192  0.1280
  520BOLB   NC112457  22.428   2.297  19.169 -0.0223 -0.2069  0.2290
  520BOLB   PO112458  22.852   2.513  19.263 -0.3700  0.0239 -0.0028
  520BOLB   GL112459  23.135   2.460  19.007 -0.1868  0.0615 -0.2450
  520BOLB   GL212460  23.498   2.796  18.901  0.0560 -0.1400 -0.2302
  520BOLB   C1A12461  23.456   2.272  18.661  0.0871 -0.3091 -0.6058
  520BOLB   C2A12462  23.741   2.263  18.327  0.2453  0.0509  0.2454
  520BOLB   C3A12463  24.201   2.449  18.350 -0.1083  0.1353 -0.1348
  520BOLB   C4A12464  24.539   2.482  17.973  0.1014  0.0973  0.1213
  520BOLB   C1B12465  23.803   2.710  18.530  0.2882 -0.0556 -0.2775
  520BOLB   C2B12466  24.058   2.889  18.161 -0.0125  0.0142  0.1554
  520BOLB   C3B12467  24.435   2.935  17.873 -0.2167 -0.0625 -0.1242
  520BOLB   C4B12468  24.864   2.816  17.873  0.0308 -0.3057  0.0071
  520BOLB   NC212469  25.745   2.889  16.003  0.1470  0.1843  0.3878
  520BOLB   PO212470  25.815   2.549  15.862  0.2500  0.0819 -0.1749
  520BOLB   GL312471  25.671   2.355  16.221 -0.2232 -0.2083 -0.1035
  520BOLB   GL412472  25.749   2.073  16.186 -0.1424 -0.1021  0.2512
  520BOLB   C1C12473  25.482   2.454  16.572  0.1335 -0.1045  0.0672
  520BOLB   C2C12474  25.160   2.401  16.941  0.3252  0.1802  0.0581
  520BOLB   C3C12475  24.819   2.538  17.137  0.0100 -0.3892 -0.1520
  520BOLB   C4C12476  24.568   2.590  17.515  0.0256 -0.1007  0.1664
  520BOLB   C1D12477  25.286   1.939  16.094  0.0670 -0.0363  0.0286
  520BOLB   C2D12478  25.091   1.665  16.210  0.0922  0.0198  0.3093
  520BOLB   C3D12479  25.164   1.459  16.551  0.2361  0.0966 -0.2174
  520BOLB   C4D12480  24.900   1.353  16.837 -0.2125 -0.0895 -0.2069
  521BOLB   NC112481  12.630  -3.655  24.377  0.0643  0.1570  0.0568
  521BOLB   PO112482  12.806  -3.866  24.794  0.0835 -0.0569 -0.2522
  521BOLB   GL112483  12.745  -4.242  24.933 -0.1919 -0.0286 -0.4018
  521BOLB   GL212484  12.890  -4.473  25.217  0.2405  0.0639  0.0489
  521BOLB   C1A12485  12.509  -4.558  24.897  0.4989 -0.0535 -0.0231
  521BOLB   C2A12486  12.277  -4.964  25.072  0.2245 -0.0982 -0.0425
  521BOLB   C3A12487  12.067  -5.381  25.183  0.0092  0.0437 -0.1260
  521BOLB   C4A12488  11.740  -5.679  25.185  0.0447  0.0523 -0.0540
  521BOLB   C1B12489  12.861  -4.865  24.993 -0.1424  0.1710 -0.4649
  521BOLB   C2B12490  12.677  -5.214  24.672  0.0625  0.2465  0.1583
  521BOLB   C3B12491  12.279  -5.303  24.703 -0.0108  0.1040 -0.1252
  521BOLB   C4B12492  11.803  -5.426  24.756 -0.1407  0.0234 -0.1588
  521BOLB   NC212493  10.765  -7.675  26.121  0.1517 -0.0154 -0.0997
  521BOLB   PO212494  10.987  -7.905  25.768 -0.0971  0.1350  0.1995
  521BOLB   GL312495  11.051  -7.489  25.669 -0.0726 -0.1222 -0.1321
  521BOLB   GL412496  11.200  -7.202  25.910  0.0204 -0.1389 -0.1926
  521BOLB   C1C12497  11.359  -7.215  25.488  0.0916  0.2384 -0.2657
  521BOLB   C2C12498  11.480  -6.828  25.540 -0.1661 -0.0340  0.2806
  521BOLB   C3C12499  11.749  -6.464  25.492  0.1289  0.2098 -0.0199
  521BOLB   C4C12500  11.871  -6.068  25.482  0.0449 -0.0037 -0.1104
  521BOLB   C1D12501  11.664  -7.127  25.865  0.3069 -0.2912  0.1213
  521BOLB   C2D12502  11.957  -6.804  25.815 -0.0654 -0.0259  0.0578
  521BOLB   C3D12503  12.059  -6.339  25.882  0.0233  0.2194  0.2512
  521BOLB   C4D12504  12.336  -6.127  25.704  0.2684  0.1093  0.1075
  522BOLB   NC112505  14.359  10.264  30.820 -0.1757  0.4390  0.0766
  522BOLB   PO112506  14.347  10.842  30.864  0.1494 -0.0754 -0.1814
  522BOLB   GL112507  14.195  11.384  30.969  0.0266  0.0764 -0.1988
  522BOLB   GL212508  13.898  11.394  31.179  0.0504  0.0338  0.1061
  522BOLB   C1A12509  14.295  11.707  31.219  0.0300  0.0458  0.0294
  522BOLB   C2A12510  14.230  12.172  31.225 -0.0967 -0.2598  0.2216
  522BOLB   C3A12511  13.902  12.429  31.412  0.1345  0.1377 -0.0824
  522BOLB   C4A12512  13.583  12.742  31.313 -0.0969  0.0034  0.2811
  522BOLB   C1B12513  13.855  11.517  31.611 -0.1443 -0.1249  0.1334
  522BOLB   C2B12514  13.696  11.712  31.984  0.2497 -0.0546 -0.3661
  522BOLB   C3B12515  13.941  11.805  32.363 -0.0775  0.0600 -0.2355
  522BOLB   C4B12516  14.122  11.990  32.562  0.0903  0.0054  0.1356
  522BOLB   NC212517  12.353  14.320  33.230 -0.1237  0.1286 -0.4015
  522BOLB   PO212518  12.780  14.126  33.091 -0.2890  0.3112  0.0489
  522BOLB   GL312519  12.876  13.740  32.899  0.1328  0.1277 -0.0941
  522BOLB   GL412520  12.932  13.409  33.049 -0.3189 -0.0273  0.2246
  522BOLB   C1C12521  13.062  13.637  32.473  0.1103 -0.0292 -0.3128
  522BOLB   C2C12522  13.189  13.409  32.208  0.0139 -0.0603  0.2413
  522BOLB   C3C12523  13.320  13.181  31.935  0.1316 -0.1614 -0.0066
  522BOLB   C4C12524  13.462  13.085  31.531 -0.0216 -0.1758  0.2886
  522BOLB   C1D12525  13.020  13.100  32.735 -0.2452  0.0513 -0.1525
  522BOLB   C2D12526  13.164  12.720  32.610 -0.4194 -0.2726 -0.2918
  522BOLB   C3D12527  13.132  12.307  32.553 -0.1986 -0.2261  0.1781
  522BOLB   C4D12528  13.465  12.023  32.258 -0.1489 -0.0897 -0.1461
  523BOLB   NC112529   7.978   0.645  24.694 -0.4006 -0.1158 -0.4299
  523BOLB   PO112530   7.708   0.300  24.861  0.2222 -0.0007  0.2461
  523BOLB   GL112531   7.274   0.197  24.938 -0.1463  0.3580  0.0862
  523BOLB   GL212532   7.302   0.041  25.212 -0.1452 -0.2305 -0.2915
  523BOLB   C1A12533   6.852   0.270  24.791 -0.1543 -0.0811 -0.3029
  523BOLB   C2A12534   6.412   0.239  24.825  0.1491 -0.1961  0.1686
  523BOLB   C3A12535   6.010   0.123  24.872  0.1579  0.2640 -0.2325
  523BOLB   C4A12536   5.682  -0.034  25.181  0.0373  0.0409  0.1329
  523BOLB   C1B12537   6.938   0.020  25.226  0.4127 -0.2697  0.0457
  523BOLB   C2B12538   6.531  -0.117  25.426  0.4417  0.1024  0.2812
  523BOLB   C3B12539   6.174  -0.293  25.297  0.2795 -0.0839 -0.1212
  523BOLB   C4B12540   5.980  -0.456  24.950  0.0112 -0.0599  0.2761
  523BOLB   NC212541   3.803  -1.388  25.703  0.0355 -0.0920 -0.1015
  523BOLB   PO212542   3.998  -1.434  25.325  0.1094  0.1553  0.2607
  523BOLB   GL312543   4.314  -1.425  25.209  0.1681  0.2273  0.1694
  523BOLB   GL412544   4.454  -1.201  25.536  0.1363  0.0843 -0.0060
  523BOLB   C1C12545   4.596  -1.180  24.945  0.2028  0.0866  0.1878
  523BOLB   C2C12546   4.806  -0.799  24.873  0.2468 -0.0450  0.0912
  523BOLB   C3C12547   5.002  -0.446  24.998  0.2459 -0.3100 -0.0770
  523BOLB   C4C12548   5.325  -0.204  25.067 -0.1753  0.0776 -0.0169
  523BOLB   C1D12549   4.820  -1.135  25.377  0.1399 -0.1152  0.1926
  523BOLB   C2D12550   5.306  -1.172  25.503 -0.2140  0.0625 -0.1877
  523BOLB   C3D12551   5.691  -1.023  25.515 -0.1087  0.4254 -0.0875
  523BOLB   C4D12552   6.019  -0.821  25.393 -0.1978  0.1451  0.0249
  524BOLB   NC112553  17.967  11.913  27.375 -0.1103 -0.0337  0.0297
  524BOLB   PO112554  17.609  11.983  27.260 -0.0405  0.0592  0.2718
  524BOLB   GL112555  17.664  12.299  27.600  0.0116 -0.2643  0.2139
  524BOLB   GL212556  17.975  12.304  27.733  0.0508 -0.0207  0.1707
  524BOLB   C1A12557  17.699  12.755  27.757 -0.3173  0.0357 -0.0414
  524BOLB   C2A12558  17.767  13.214  27.871 -0.0163  0.2286  0.1417
  524BOLB   C3A12559  17.958  13.622  27.832 -0.3976 -0.3258 -0.2533
  524BOLB   C4A12560  17.863  13.978  27.674  0.2623  0.2015  0.0446
  524BOLB   C1B12561  17.858  12.484  28.127 -0.0255 -0.1127 -0.0317
  524BOLB   C2B12562  17.857  12.370  28.520 -0.3189  0.1406 -0.2026
  524BOLB   C3B12563  17.653  12.619  28.836  0.1697  0.3420  0.0874
  524BOLB   C4B12564  17.279  12.671  29.159  0.0000  0.0264 -0.2466
  524BOLB   NC212565  17.293  16.400  28.340  0.0503 -0.0046  0.2507
  524BOLB   PO212566  17.657  16.183  28.534  0.1992  0.2305 -0.0791
  524BOLB   GL312567  17.855  15.962  28.182  0.2769 -0.1483 -0.5279
  524BOLB   GL412568  18.040  15.660  28.217  0.0322  0.1486 -0.0215
  524BOLB   C1C12569  17.748  15.628  27.870 -0.0488  0.2058  0.1623
  524BOLB   C2C12570  17.562  15.214  27.768 -0.1551 -0.0956 -0.1019
  524BOLB   C3C12571  17.515  14.637  27.840 -0.1011 -0.1866  0.2000
  524BOLB   C4C12572  17.714  14.348  27.665 -0.1601 -0.2423 -0.2387
  524BOLB   C1D12573  17.995  15.177  28.116 -0.1069  0.3843  0.1198
  524BOLB   C2D12574  17.987  14.751  28.039  0.1251  0.0896 -0.1729
  524BOLB   C3D12575  17.715  14.337  28.203  0.1134 -0.2553  0.1898
  524BOLB   C4D12576  17.273  14.118  28.071  0.1019 -0.0327 -0.0737
  525BOLB   NC112577  22.863   9.889  26.375 -0.3730 -0.2261  0.0153
  525BOLB   PO112578  22.392  10.159  26.566 -0.1285 -0.0545  0.1281
  525BOLB   GL112579  22.294  10.556  26.598 -0.0562  0.4146  0.1541
  525BOLB   GL212580  22.005  10.660  26.734 -0.0299  0.2339  0.0041
  525BOLB   C1A12581  22.578  10.919  26.702 -0.1599 -0.1567  0.3195
  525BOLB   C2A12582  22.974  11.025  26.557 -0.2030  0.0732 -0.0035
  525BOLB   C3A12583  23.106  11.350  26.440  0.2272  0.0481 -0.3067
  525BOLB   C4A12584  23.328  11.593  26.589 -0.1890  0.0976 -0.0925
  525BOLB   C1B12585  22.089  11.011  26.848  0.0213  0.0559 -0.0440
  525BOLB   C2B12586  22.315  11.356  27.070 -0.0534  0.1348 -0.1179
  525BOLB   C3B12587  22.828  11.373  26.942  0.2495 -0.0730 -0.1172
  525BOLB   C4B12588  23.168  11.164  26.962  0.0710 -0.1740  0.0912
  525BOLB   NC212589  23.951  13.657  27.487  0.0316  0.1285 -0.2700
  525BOLB   PO212590  23.804  13.785  27.863 -0.0698 -0.0685 -0.0577
  525BOLB   GL312591  23.554  13.429  27.728 -0.2283 -0.0388 -0.1746
  525BOLB   GL412592  23.344  13.536  27.577  0.2487 -0.1912  0.2557
  525BOLB   C1C12593  23.525  12.982  27.588  0.0523  0.0767 -0.0736
  525BOLB   C2C12594  23.518  12.626  27.357 -0.2023 -0.0842 -0.0753
  525BOLB   C3C12595  23.513  12.319  27.126  0.0013 -0.2212 -0.1071
  525BOLB   C4C12596  23.323  11.903  26.919 -0.0177 -0.2811  0.0554
  525BOLB   C1D12597  23.382  13.329  27.225  0.0867 -0.0152 -0.3120
  525BOLB   C2D12598  23.346  12.949  27.091 -0.1306 -0.0116 -0.0951
  525BOLB   C3D12599  23.401  12.686  26.707 -0.2390 -0.0238 -0.1794
  525BOLB   C4D12600  23.666  12.537  26.354  0.1313  0.3035  0.1714
  526BOLB   NC112601  11.441  11.947  28.263 -0.1378  0.1662  0.3829
  526BOLB   PO112602  11.801  12.059  28.192  0.1632 -0.1861 -0.2663
  526BOLB   GL112603  11.600  12.233  28.665 -0.0179 -0.3176  0.1818
  526BOLB   GL212604  11.873  12.025  28.882  0.1859  0.1885  0.0311
  526BOLB   C1A12605  11.412  12.669  28.892 -0.2630  0.1522 -0.0519
  526BOLB   C2A12606  11.386  13.113  29.103 -0.4529 -0.0732  0.2452
  526BOLB   C3A12607  11.617  13.283  29.477  0.1572 -0.0876 -0.4017
  526BOLB   C4A12608  11.953  13.468  29.638 -0.2224  0.0622 -0.0696
  526BOLB   C1B12609  11.845  12.453  29.043 -0.1112  0.1047 -0.1508
  526BOLB   C2B12610  11.867  12.798  29.297 -0.0329  0.2079  0.0233
  526BOLB   C3B12611  11.784  12.885  29.796 -0.1150 -0.1943  0.1798
  526BOLB   C4B12612  11.684  13.054  30.304  0.4526 -0.1671 -0.1357
  526BOLB   NC212613  11.550  15.926  29.385  0.0042  0.0943  0.1036
  526BOLB   PO212614  11.786  15.821  29.648  0.0878 -0.0240 -0.0259
  526BOLB   GL312615  11.972  15.462  29.632 -0.0447 -0.1941  0.1814
  526BOLB   GL412616  12.279  15.464  29.901  0.0756  0.1213 -0.0829
  526BOLB   C1C12617  12.132  15.041  29.676  0.2496 -0.1842  0.2587
  526BOLB   C2C12618  12.221  14.585  29.879 -0.2597 -0.0169 -0.0592
  526BOLB   C3C12619  12.095  14.167  29.992  0.1601 -0.1542 -0.1230
  526BOLB   C4C12620  12.023  13.707  29.904 -0.1552 -0.4927 -0.0191
  526BOLB   C1D12621  12.370  15.112  30.143  0.2788  0.0982  0.2083
  526BOLB   C2D12622  12.329  14.693  30.368  0.2260  0.1241 -0.0648
  526BOLB   C3D12623  12.557  14.297  30.253 -0.0575  0.2083  0.2360
  526BOLB   C4D12624  12.904  13.927  30.333 -0.3489 -0.1577  0.1427
  527BOLB   NC112625  22.728   0.548  20.684  0.1828  0.2071 -0.1889
  527BOLB   PO112626  22.930   0.836  20.393  0.3514  0.3050  0.2332
  527BOLB   GL112627  23.355   0.708  20.162  0.2310  0.2322 -0.0507
  527BOLB   GL212628  23.642   0.910  20.229 -0.1240 -0.1536 -0.1647
  527BOLB   C1A12629  23.543   0.393  19.947 -0.1179 -0.3817  0.0037
  527BOLB   C2A12630  23.877   0.149  20.072  0.1110 -0.4372 -0.0558
  527BOLB   C3A12631  24.333  -0.117  19.937  0.2282  0.2745 -0.1635
  527BOLB   C4A12632  24.644  -0.167  19.639 -0.1343  0.1225 -0.1901
  527BOLB   C1B12633  23.784   0.761  19.815  0.0131 -0.3367 -0.1918
  527BOLB   C2B12634  24.151   0.739  19.550 -0.1804 -0.1050 -0.4313
  527BOLB   C3B12635  24.515   0.706  19.164  0.1682  0.1861  0.2983
  527BOLB   C4B12636  24.847   0.834  18.861 -0.1356  0.1948  0.0982
  527BOLB   NC212637  27.176  -0.524  19.068  0.0637 -0.1837  0.0653
  527BOLB   PO212638  26.916  -0.209  19.304  0.1620 -0.2162  0.2804
  527BOLB   GL312639  26.503  -0.178  19.385  0.1151  0.0182  0.1009
  527BOLB   GL412640  26.348  -0.418  19.539  0.0769  0.0334 -0.0454
  527BOLB   C1C12641  26.145  -0.262  19.076  0.0592  0.0641 -0.1541
  527BOLB   C2C12642  25.735  -0.375  19.098  0.4137 -0.0127  0.1839
  527BOLB   C3C12643  25.323  -0.429  19.241 -0.0758  0.2749 -0.0690
  527BOLB   C4C12644  24.909  -0.389  19.304  0.2234 -0.1625  0.0884
  527BOLB   C1D12645  25.910  -0.338  19.611  0.2188  0.0688  0.0365
  527BOLB   C2D12646  25.582  -0.139  19.537  0.0742 -0.2999  0.3822
  527BOLB   C3D12647  25.352   0.030  19.099 -0.0334  0.2004 -0.1112
  527BOLB   C4D12648  25.115  -0.179  18.823  0.2151 -0.0223 -0.4087
  528BOLB   NC112649  14.402  -3.895  12.771 -0.2542 -0.0371 -0.1955
  528BOLB   PO112650  14.133  -3.491  12.775 -0.0781 -0.3401  0.3144
  528BOLB   GL112651  14.580  -3.486  12.951  0.3488 -0.0081 -0.0647
  528BOLB   GL212652  14.718  -3.134  12.973  0.0589 -0.1843 -0.1311
  528BOLB   C1A12653  14.886  -3.590  13.276  0.0204 -0.1941  0.1665
  528BOLB   C2A12654  15.285  -3.626  13.479  0.0313  0.0615 -0.2139
  528BOLB   C3A12655  15.666  -3.353  13.614 -0.0928  0.3174 -0.0148
  528BOLB   C4A12656  16.006  -3.470  13.320  0.0253  0.2035 -0.0961
  528BOLB   C1B12657  14.596  -3.064  13.446  0.0939 -0.0649 -0.1077
  528BOLB   C2B12658  14.614  -3.382  13.744 -0.3140  0.1880  0.1864
  528BOLB   C3B12659  14.311  -3.404  14.111  0.1644 -0.2823  0.0298
  528BOLB   C4B12660  14.363  -3.513  14.590  0.0222 -0.4562  0.1120
  528BOLB   NC212661  15.032  -6.206  12.883  0.0168 -0.0368 -0.4409
  528BOLB   PO212662  15.081  -5.784  12.711 -0.0197 -0.0446  0.1114
  528BOLB   GL312663  15.116  -5.312  12.855 -0.0534  0.0687 -0.1193
  528BOLB   GL412664  15.331  -5.304  12.617 -0.1691  0.0912 -0.3348
  528BOLB   C1C12665  15.189  -4.850  12.831  0.2064 -0.2364  0.2189
  528BOLB   C2C12666  15.225  -4.352  12.761  0.1818 -0.1767 -0.2392
  528BOLB   C3C12667  15.519  -4.197  13.135 -0.1123  0.3509 -0.0205
  528BOLB   C4C12668  15.659  -3.797  13.136  0.1636  0.1052  0.0456
  528BOLB   C1D12669  15.610  -5.459  12.961  0.1531  0.2322 -0.5519
  528BOLB   C2D12670  15.729  -5.623  13.315 -0.0642  0.0908  0.0397
  528BOLB   C3D12671  16.022  -5.820  13.620  0.0090 -0.2244 -0.0894
  528BOLB   C4D12672  16.255  -5.863  14.025 -0.0723  0.1165  0.0257
  529BOLB   NC112673  17.197   1.415  33.012  0.0300  0.1353  0.1086
  529BOLB   PO112674  17.594   1.574  32.875 -0.1134 -0.0332 -0.2361
  529BOLB   GL112675  17.865   1.751  33.167  0.1859 -0.2794 -0.2088
  529BOLB   GL212676  17.766   1.927  33.264  0.1773 -0.1410 -0.3360
  529BOLB   C1A12677  18.005   1.454  33.519 -0.0616 -0.3272  0.3025
  529BOLB   C2A12678  18.087   1.316  33.882 -0.1461  0.0174  0.3452
  529BOLB   C3A12679  17.894   1.436  34.218  0.0075 -0.0634 -0.1926
  529BOLB   C4A12680  17.883   1.376  34.654  0.0442  0.2804  0.1667
  529BOLB   C1B12681  17.557   1.647  33.589  0.3976  0.0207 -0.1373
  529BOLB   C2B12682  17.311   1.457  33.812 -0.0624 -0.3819 -0.2584
  529BOLB   C3B12683  17.421   1.218  34.150  0.0237 -0.1006 -0.0261
  529BOLB   C4B12684  17.678   0.879  34.355 -0.0415  0.0933 -0.4156
  529BOLB   NC212685  18.476   1.119  37.289  0.0454 -0.1309  0.0952
  529BOLB   PO212686  18.007   1.030  37.139 -0.4882  0.1737 -0.0637
  529BOLB   GL312687  18.173   1.050  36.727  0.0772  0.1740  0.0923
  529BOLB   GL412688  18.501   1.156  36.631  0.2796  0.3158  0.1712
  529BOLB   C1C12689  18.108   1.332  36.349  0.1909  0.0956 -0.3057
  529BOLB   C2C12690  18.183   1.337  35.923  0.2845 -0.1515 -0.0408
  529BOLB   C3C12691  18.049   1.400  35.473 -0.3437 -0.1502 -0.0848
  529BOLB   C4C12692  17.914   1.391  35.027 -0.0049 -0.3729 -0.1508
  529BOLB   C1D12693  18.578   1.192  36.251  0.1741 -0.1022 -0.0099
  529BOLB   C2D12694  18.648   1.626  36.004  0.0512 -0.0527 -0.0689
  529BOLB   C3D12695  18.868   1.941  35.813  0.1523  0.0041 -0.1647
  529BOLB   C4D12696  19.266   2.143  35.930 -0.0435 -0.0409 -0.0844
  530BOLB   NC112697  20.399  10.231  22.078  0.1170  0.1487 -0.0264
  530BOLB   PO112698  20.758  10.227  21.890 -0.2705  0.1704 -0.0205
  530BOLB   GL112699  21.050  10.476  21.639  0.0709  0.2308 -0.1164
  530BOLB   GL212700  20.942  10.372  21.299  0.1047  0.0327 -0.1809
  530BOLB   C1A12701  21.276  10.876  21.480 -0.0869  0.0199  0.1359
  530BOLB   C2A12702  21.412  11.086  21.142  0.1849  0.0341 -0.3638
  530BOLB   C3A12703  21.540  11.331  20.792  0.2368  0.1784  0.0535
  530BOLB   C4A12704  21.600  11.735  20.652  0.2536  0.2032  0.0070
  530BOLB   C1B12705  21.069  10.606  21.023 -0.2440 -0.0452  0.0210
  530BOLB   C2B12706  21.323  10.750  20.861  0.0521  0.1509 -0.0853
  530BOLB   C3B12707  21.506  10.864  20.569  0.1912  0.1575  0.0235
  530BOLB   C4B12708  21.769  10.988  20.362 -0.1427  0.4339 -0.1664
  530BOLB   NC212709  21.947  13.132  18.498 -0.0809 -0.1272 -0.1682
  530BOLB   PO212710  21.961  12.840  18.805  0.2760  0.0780 -0.1425
  530BOLB   GL312711  21.920  12.583  19.140  0.2355  0.2846  0.0475
  530BOLB   GL412712  21.961  12.273  19.230  0.2442  0.0035 -0.3739
  530BOLB   C1C12713  21.587  12.559  19.476 -0.0703 -0.0073  0.0391
  530BOLB   C2C12714  21.606  12.728  19.920 -0.1261  0.3405 -0.6887
  530BOLB   C3C12715  21.532  12.448  20.312  0.2430  0.2993 -0.0103
  530BOLB   C4C12716  21.595  12.183  20.659 -0.1442 -0.0111  0.0721
  530BOLB   C1D12717  21.819  11.981  19.466  0.0825 -0.1419 -0.1496
  530BOLB   C2D12718  21.775  11.657  19.828 -0.1161 -0.3303 -0.2129
  530BOLB   C3D12719  21.824  11.266  19.837  0.0042  0.3522  0.0244
  530BOLB   C4D12720  21.851  10.800  19.870  0.2613  0.2155  0.2724
  531BOLB   NC112721  17.846  -4.003  25.831 -0.0083  0.1730 -0.0367
  531BOLB   PO112722  17.621  -4.007  26.333 -0.0760  0.1603 -0.0734
  531BOLB   GL112723  17.672  -4.381  26.124 -0.1366 -0.1655 -0.3239
  531BOLB   GL212724  17.748  -4.483  26.423  0.0003  0.4269 -0.3206
  531BOLB   C1A12725  17.492  -4.656  25.955  0.0535  0.5605 -0.0094
  531BOLB   C2A12726  17.354  -5.097  26.065  0.0388  0.0835  0.3046
  531BOLB   C3A12727  17.493  -5.430  26.347  0.1276 -0.1583 -0.0659
  531BOLB   C4A12728  17.650  -5.844  26.443 -0.1304 -0.0187 -0.3501
  531BOLB   C1B12729  17.653  -4.933  26.429  0.3817  0.2208 -0.3314
  531BOLB   C2B12730  17.717  -5.225  26.869  0.1969 -0.1956  0.0952
  531BOLB   C3B12731  17.993  -5.385  26.964 -0.1738  0.0266 -0.2165
  531BOLB   C4B12732  18.234  -5.362  27.340  0.2206 -0.1100 -0.2585
  531BOLB   NC212733  17.577  -8.163  26.538 -0.0191 -0.1349  0.0393
  531BOLB   PO212734  17.171  -8.071  26.691  0.0568  0.0207 -0.1453
  531BOLB   GL312735  17.324  -7.724  26.919  0.1530 -0.1825  0.0935
  531BOLB   GL412736  17.610  -7.653  26.749 -0.2246  0.1150 -0.3799
  531BOLB   C1C12737  17.193  -7.208  26.912 -0.1751 -0.1456  0.1001
  531BOLB   C2C12738  17.310  -6.890  26.819  0.0497  0.0395 -0.0849
  531BOLB   C3C12739  17.152  -6.487  26.769  0.0544 -0.0338 -0.0446
  531BOLB   C4C12740  17.366  -6.185  26.603  0.2376 -0.1002 -0.1199
  531BOLB   C1D12741  17.733  -7.246  26.638  0.1233  0.0552  0.2536
  531BOLB   C2D12742  17.430  -7.233  26.356  0.2288 -0.1404  0.0961
  531BOLB   C3D12743  17.105  -7.423  26.153 -0.3691 -0.1161 -0.2483
  531BOLB   C4D12744  16.887  -7.752  25.952  0.1977  0.1772  0.1760
  532BOLB   NC112745   8.121   5.514  27.942  0.3257 -0.2881  0.1097
  532BOLB   PO112746   7.830   5.744  27.724 -0.1063 -0.1434  0.0157
  532BOLB   GL112747   7.444   6.021  27.784  0.1116 -0.0214 -0.1121
  532BOLB   GL212748   7.429   6.101  28.006  0.2039  0.1963 -0.0995
  532BOLB   C1A12749   6.996   6.381  27.844 -0.1905  0.0880 -0.2097
  532BOLB   C2A12750   6.689   6.588  27.924 -0.1938  0.0010 -0.0508
  532BOLB   C3A12751   6.284   6.824  27.980 -0.0301 -0.2485 -0.0705
  532BOLB   C4A12752   6.035   7.220  27.961 -0.1406  0.0846  0.0289
  532BOLB   C1B12753   7.019   5.918  28.155  0.3244 -0.5011 -0.2842
  532BOLB   C2B12754   6.618   5.935  28.196 -0.1068  0.4048 -0.1089
  532BOLB   C3B12755   6.190   5.797  28.120  0.2102 -0.0787  0.1855
  532BOLB   C4B12756   5.688   5.960  28.119  0.2494 -0.1313  0.2023
  532BOLB   NC212757   3.944   7.662  29.168 -0.2592 -0.1561 -0.2447
  532BOLB   PO212758   4.191   7.990  29.266  0.0170 -0.1761  0.0453
  532BOLB   GL312759   4.477   7.746  29.052  0.0007 -0.2710 -0.4163
  532BOLB   GL412760   4.334   7.446  29.049 -0.0300 -0.0494  0.1686
  532BOLB   C1C12761   4.921   7.864  28.828 -0.0169 -0.0128 -0.2923
  532BOLB   C2C12762   5.145   7.903  28.509 -0.1202 -0.0544 -0.0445
  532BOLB   C3C12763   5.541   7.875  28.275 -0.1499  0.1601 -0.1805
  532BOLB   C4C12764   5.877   7.618  28.089 -0.4353 -0.3949  0.1938
  532BOLB   C1D12765   4.844   7.436  29.128  0.2072  0.0006  0.0063
  532BOLB   C2D12766   5.258   7.400  29.123 -0.0803 -0.0046  0.0402
  532BOLB   C3D12767   5.743   7.371  29.087 -0.0981  0.0221 -0.0424
  532BOLB   C4D12768   6.088   7.031  28.930 -0.0734 -0.0319  0.1730
  533BOLB   NC112769  21.642  -2.368  24.581 -0.1330  0.1958  0.0402
  533BOLB   PO112770  21.874  -2.430  24.192 -0.1320  0.0045  0.0593
  533BOLB   GL112771  21.876  -2.752  24.342  0.1571  0.0723  0.4415
  533BOLB   GL212772  22.210  -2.722  24.506 -0.0486  0.3784 -0.0292
  533BOLB   C1A12773  22.040  -3.201  24.533 -0.2183  0.4563  0.1280
  533BOLB   C2A12774  22.029  -3.696  24.618  0.0091  0.1023 -0.1899
  533BOLB   C3A12775  21.917  -4.179  24.662 -0.2159 -0.0239 -0.4812
  533BOLB   C4A12776  21.779  -4.573  24.803 -0.1982 -0.1428  0.1981
  533BOLB   C1B12777  22.507  -3.018  24.435 -0.0186  0.2970 -0.2244
  533BOLB   C2B12778  22.505  -3.507  24.533 -0.0731 -0.1412  0.1333
  533BOLB   C3B12779  22.457  -3.811  24.318 -0.3955 -0.2060  0.1431
  533BOLB   C4B12780  22.270  -4.163  24.180  0.0437  0.3234 -0.1582
  533BOLB   NC212781  23.311  -6.380  25.319 -0.2623  0.1723 -0.0558
  533BOLB   PO212782  23.001  -6.624  25.079  0.1569 -0.2568  0.0147
  533BOLB   GL312783  22.535  -6.326  25.001  0.1483  0.1395 -0.0747
  533BOLB   GL412784  22.303  -6.358  24.840  0.1469 -0.2384 -0.1820
  533BOLB   C1C12785  22.453  -5.838  24.952  0.1187 -0.0645  0.2671
  533BOLB   C2C12786  21.961  -5.654  24.800  0.0078 -0.0303 -0.1355
  533BOLB   C3C12787  21.680  -5.367  24.696  0.1001  0.0300  0.1349
  533BOLB   C4C12788  21.689  -5.066  24.879  0.0101  0.1764 -0.0729
  533BOLB   C1D12789  21.840  -6.114  24.788  0.0993 -0.1101  0.1359
  533BOLB   C2D12790  21.593  -5.801  24.476  0.2484  0.1283 -0.0137
  533BOLB   C3D12791  21.517  -5.532  24.266  0.1415 -0.0471  0.0469
  533BOLB   C4D12792  21.247  -5.317  24.105 -0.0623 -0.0291 -0.1053
  534BOLB   NC112793  23.729   7.353  27.197  0.4562 -0.4579  0.0624
  534BOLB   PO112794  23.734   7.741  27.351 -0.1878 -0.0471  0.3012
  534BOLB   GL112795  24.218   7.903  27.421  0.1816  0.2585 -0.0469
  534BOLB   GL212796  24.344   7.956  27.151  0.0419 -0.0227 -0.0650
  534BOLB   C1A12797  24.613   8.079  27.696  0.1742 -0.1227  0.4570
  534BOLB   C2A12798  25.056   8.204  27.735  0.0364  0.2647 -0.0391
  534BOLB   C3A12799  25.488   8.038  27.701  0.2065 -0.1329 -0.1001
  534BOLB   C4A12800  25.744   7.943  27.945  0.2344  0.1639 -0.2199
  534BOLB   C1B12801  24.721   8.282  27.258 -0.4023 -0.0976  0.0478
  534BOLB   C2B12802  25.047   8.412  27.299  0.1923  0.4949  0.2027
  534BOLB   C3B12803  25.500   8.397  27.113  0.1378  0.0404  0.0965
  534BOLB   C4B12804  25.763   8.391  26.838  0.1431  0.3432 -0.0610
  534BOLB   NC212805  28.218   7.841  27.136  0.0373 -0.0806  0.0821
  534BOLB   PO212806  27.990   7.774  26.888  0.0669  0.0622 -0.1918
  534BOLB   GL312807  27.685   7.933  27.186 -0.0694  0.0321 -0.2090
  534BOLB   GL412808  27.573   8.256  27.171 -0.1427  0.2018  0.0722
  534BOLB   C1C12809  27.301   7.795  27.399 -0.1156  0.0681 -0.0889
  534BOLB   C2C12810  26.932   7.916  27.658 -0.1708 -0.0812  0.0129
  534BOLB   C3C12811  26.503   8.077  27.802  0.0341 -0.2307  0.0693
  534BOLB   C4C12812  26.093   7.944  28.041 -0.0557  0.2669 -0.0472
  534BOLB   C1D12813  27.096   8.264  27.213 -0.3225 -0.3604 -0.2355
  534BOLB   C2D12814  26.758   8.111  27.199  0.3167 -0.0611  0.2069
  534BOLB   C3D12815  26.421   7.879  27.320 -0.0336 -0.1039 -0.0532
  534BOLB   C4D12816  26.098   7.930  27.556 -0.1754 -0.1705  0.7589
  535BOLB   NC112817  21.060   9.407  21.340 -0.3504  0.0661 -0.3888
  535BOLB   PO112818  21.144   9.109  21.018 -0.2341 -0.0382  0.0571
  535BOLB   GL112819  21.221   9.560  20.833 -0.2234  0.1579  0.1753
  535BOLB   GL212820  21.062   9.861  21.079  0.2169  0.0832  0.3542
  535BOLB   C1A12821  21.554   9.868  20.867 -0.5893 -0.1686 -0.0794
  535BOLB   C2A12822  21.608  10.337  20.831 -0.3539  0.2143  0.0048
  535BOLB   C3A12823  21.889  10.626  20.841 -0.2844  0.0565 -0.1764
  535BOLB   C4A12824  22.251  10.979  20.733 -0.1592  0.1665  0.0511
  535BOLB   C1B12825  21.040  10.183  20.726 -0.0222 -0.2401  0.0314
  535BOLB   C2B12826  21.277  10.389  20.400 -0.3249 -0.1990  0.1258
  535BOLB   C3B12827  21.384  10.605  20.004  0.2465 -0.1876  0.1191
  535BOLB   C4B12828  21.354  10.733  19.600  0.0614 -0.2431  0.0210
  535BOLB   NC212829  23.157  12.764  18.925 -0.3287  0.0549  0.0539
  535BOLB   PO212830  22.847  12.454  19.044  0.1435 -0.3475  0.2245
  535BOLB   GL312831  22.584  12.150  19.154  0.1386  0.2916  0.1561
  535BOLB   GL412832  22.414  12.121  19.541  0.1875  0.0637 -0.3500
  535BOLB   C1C12833  22.370  11.652  19.229 -0.0316 -0.1536  0.0884
  535BOLB   C2C12834  22.215  11.567  19.565  0.0874 -0.0207 -0.2169
  535BOLB   C3C12835  22.312  11.512  19.979  0.2780  0.0393  0.1925
  535BOLB   C4C12836  22.354  11.267  20.326  0.1252 -0.1984  0.1221
  535BOLB   C1D12837  22.660  11.771  19.662  0.1574 -0.3542  0.0898
  535BOLB   C2D12838  22.741  11.782  20.139 -0.1904  0.0736 -0.2126
  535BOLB   C3D12839  22.923  11.602  20.480  0.4554  0.2011 -0.1771
  535BOLB   C4D12840  22.658  11.247  20.726  0.0744 -0.1227 -0.0925
  536BOLB   NC112841  14.366  -3.445  26.721  0.1643 -0.2139 -0.0996
  536BOLB   PO112842  14.259  -3.888  26.448 -0.5873  0.1878 -0.2027
  536BOLB   GL112843  14.152  -4.210  26.677 -0.0084  0.0375  0.2538
  536BOLB   GL212844  13.945  -4.404  26.521  0.1282  0.0830 -0.1270
  536BOLB   C1A12845  14.207  -4.592  26.894  0.0463 -0.2152  0.1321
  536BOLB   C2A12846  14.031  -4.900  27.181 -0.3011  0.0173 -0.0214
  536BOLB   C3A12847  13.733  -4.983  27.403 -0.2731 -0.1402  0.0868
  536BOLB   C4A12848  13.403  -5.309  27.567 -0.1773  0.1293  0.1892
  536BOLB   C1B12849  13.859  -4.871  26.722 -0.0400 -0.2480  0.0441
  536BOLB   C2B12850  13.904  -5.278  26.694  0.1897 -0.0239  0.2468
  536BOLB   C3B12851  14.162  -5.560  26.829 -0.0159 -0.0421 -0.2315
  536BOLB   C4B12852  14.442  -5.823  27.060  0.0790  0.3091  0.0796
  536BOLB   NC212853  12.236  -7.569  27.763  0.0377 -0.2324  0.2464
  536BOLB   PO212854  12.185  -7.371  28.103 -0.2025  0.0247 -0.0435
  536BOLB   GL312855  12.378  -6.975  28.044 -0.4264 -0.1117 -0.2144
  536BOLB   GL412856  12.488  -6.891  27.740  0.2300  0.0782 -0.1296
  536BOLB   C1C12857  12.442  -6.485  28.081  0.0045  0.0918  0.1404
  536BOLB   C2C12858  12.441  -6.036  27.989 -0.0282  0.0912 -0.1697
  536BOLB   C3C12859  12.790  -5.834  27.740  0.1791 -0.1270 -0.1778
  536BOLB   C4C12860  13.097  -5.556  27.675  0.5899  0.0928  0.4328
  536BOLB   C1D12861  12.451  -6.526  27.565  0.0258  0.1797  0.3695
  536BOLB   C2D12862  12.644  -6.181  27.346 -0.0923 -0.0072  0.0980
  536BOLB   C3D12863  12.749  -5.807  27.140 -0.2004  0.3012  0.0961
  536BOLB   C4D12864  12.578  -5.434  26.926 -0.0500 -0.2202 -0.0238
  537BOLB   NC112865  12.630   5.219  17.484 -0.2769 -0.0849 -0.1075
  537BOLB   PO112866  12.461   5.663  17.504 -0.1802 -0.0842  0.1005
  537BOLB   GL112867  12.269   5.504  17.132 -0.1257  0.2703  0.1078
  537BOLB   GL212868  12.479   5.275  17.045  0.0622 -0.1376  0.2006
  537BOLB   C1A12869  12.118   5.627  16.731 -0.0273 -0.1710 -0.2527
  537BOLB   C2A12870  11.779   5.772  16.493  0.1792 -0.0442 -0.0991
  537BOLB   C3A12871  11.832   5.867  16.049  0.0757 -0.2668  0.1910
  537BOLB   C4A12872  11.681   6.188  15.770 -0.4667 -0.1618 -0.2584
  537BOLB   C1B12873  12.274   5.132  16.674  0.1513  0.0550 -0.1377
  537BOLB   C2B12874  12.226   4.911  16.323 -0.1721 -0.1483  0.2131
  537BOLB   C3B12875  11.962   4.810  15.903 -0.1863  0.1034 -0.0152
  537BOLB   C4B12876  11.591   4.672  15.657 -0.0118  0.1356  0.1214
  537BOLB   NC212877   9.536   5.749  14.328 -0.2000 -0.2750  0.2746
  537BOLB   PO212878   9.932   5.892  14.079  0.0159  0.0262 -0.0361
  537BOLB   GL312879  10.199   6.067  14.535  0.0042 -0.2591  0.2017
  537BOLB   GL412880  10.542   6.172  14.507  0.0694  0.1190  0.0608
  537BOLB   C1C12881  10.239   6.113  14.994 -0.0714 -0.5763  0.0138
  537BOLB   C2C12882  10.606   6.157  15.209  0.3166  0.3592  0.3842
  537BOLB   C3C12883  11.003   6.364  15.231  0.2036  0.1472  0.0687
  537BOLB   C4C12884  11.425   6.209  15.366  0.1077  0.0614  0.1440
  537BOLB   C1D12885  10.603   5.830  14.778 -0.1496  0.3038 -0.3688
  537BOLB   C2D12886  10.812   5.411  14.786  0.0474  0.0136 -0.0026
  537BOLB   C3D12887  11.213   5.272  15.018  0.1826  0.0560  0.1033
  537BOLB   C4D12888  11.523   5.153  15.396  0.1202  0.2081 -0.1175
  538BOLB   NC112889   7.897  -0.347  26.366  0.5297  0.1960  0.0211
  538BOLB   PO112890   7.787   0.068  26.612 -0.0084 -0.1670 -0.1986
  538BOLB   GL112891   7.462  -0.164  26.705  0.1216  0.1799 -0.0690
  538BOLB   GL212892   7.116  -0.023  26.618 -0.2117  0.0669 -0.1850
  538BOLB   C1A12893   7.181  -0.422  26.987 -0.2502  0.2263 -0.1872
  538BOLB   C2A12894   6.822  -0.376  27.262  0.2408 -0.1075 -0.1054
  538BOLB   C3A12895   6.545  -0.743  27.382 -0.2233 -0.4392 -0.0813
  538BOLB   C4A12896   6.566  -1.201  27.655 -0.0495  0.0007 -0.0191
  538BOLB   C1B12897   6.770  -0.334  26.756 -0.0282  0.1280  0.3983
  538BOLB   C2B12898   6.431  -0.681  26.642  0.1271 -0.2462  0.1060
  538BOLB   C3B12899   6.141  -0.807  26.315  0.2697 -0.0383 -0.3215
  538BOLB   C4B12900   5.940  -1.122  25.971  0.0324  0.0264  0.1579
  538BOLB   NC212901   5.297  -2.263  29.408  0.0950 -0.1798  0.1433
  538BOLB   PO212902   5.062  -2.172  29.007  0.1949 -0.1987 -0.0639
  538BOLB   GL312903   5.266  -1.754  29.138  0.0792  0.3022  0.0353
  538BOLB   GL412904   5.566  -1.784  29.348 -0.1632  0.0389  0.1015
  538BOLB   C1C12905   5.513  -1.437  28.880  0.0824  0.3298 -0.0522
  538BOLB   C2C12906   5.882  -1.487  28.718 -0.2660  0.1720 -0.0623
  538BOLB   C3C12907   6.056  -1.475  28.328  0.2983 -0.2434  0.0764
  538BOLB   C4C12908   6.461  -1.400  28.014  0.0567 -0.1048 -0.1483
  538BOLB   C1D12909   5.761  -2.064  29.025 -0.0531  0.0855 -0.0021
  538BOLB   C2D12910   5.567  -1.884  28.706  0.1551 -0.4237  0.2772
  538BOLB   C3D12911   5.550  -1.701  28.360  0.0120  0.0219  0.1276
  538BOLB   C4D12912   5.511  -1.736  27.855  0.0943  0.3058  0.1690
  539BOLB   NC112913  10.002  10.528  27.916 -0.0614  0.0627  0.1931
  539BOLB   PO112914   9.770  10.609  27.627 -0.2211  0.1703  0.2541
  539BOLB   GL112915   9.336  10.785  27.473  0.0135 -0.1338  0.0002
  539BOLB   GL212916   9.177  11.114  27.373 -0.1418 -0.0155 -0.0894
  539BOLB   C1A12917   9.140  10.742  27.046 -0.0080  0.1564  0.1088
  539BOLB   C2A12918   8.784  10.967  27.045 -0.3210 -0.1530  0.0841
  539BOLB   C3A12919   8.549  11.347  27.170  0.1184 -0.2566 -0.0073
  539BOLB   C4A12920   8.284  11.708  27.182 -0.2091  0.0509 -0.0378
  539BOLB   C1B12921   9.058  11.424  27.111  0.3371  0.4729 -0.3777
  539BOLB   C2B12922   8.839  11.532  26.746 -0.2125 -0.3998 -0.0801
  539BOLB   C3B12923   8.513  11.667  26.628 -0.1700  0.0189  0.0811
  539BOLB   C4B12924   8.263  11.557  26.288  0.2222 -0.3504  0.3244
  539BOLB   NC212925   6.176  12.753  28.018  0.3577  0.1181  0.1025
  539BOLB   PO212926   6.024  12.670  27.605 -0.4544 -0.0024 -0.1298
  539BOLB   GL312927   6.377  12.395  27.502 -0.0793 -0.2734  0.1022
  539BOLB   GL412928   6.413  12.242  27.780  0.1576 -0.1968 -0.1180
  539BOLB   C1C12929   6.881  12.392  27.559  0.1351 -0.0859  0.4708
  539BOLB   C2C12930   7.178  12.163  27.481 -0.3099  0.0776  0.0969
  539BOLB   C3C12931   7.547  12.182  27.199 -0.0862 -0.0839 -0.0892
  539BOLB   C4C12932   7.974  12.021  27.224  0.0157 -0.0383  0.0787
  539BOLB   C1D12933   6.713  11.979  27.711  0.3115 -0.3022  0.0192
  539BOLB   C2D12934   7.051  11.746  27.629 -0.1346  0.0091 -0.0588
  539BOLB   C3D12935   7.288  11.475  27.357 -0.2317 -0.0516  0.4454
  539BOLB   C4D12936   7.460  11.119  27.361 -0.1376  0.0916  0.1250
  540BOLB   NC112937  14.339  -7.979  27.154 -0.0345 -0.2472 -0.0584
  540BOLB   PO112938  14.678  -8.129  26.938  0.0301  0.4496  0.2875
  540BOLB   GL112939  14.874  -7.696  27.034 -0.1940  0.2137 -0.1367
  540BOLB   GL212940  14.711  -7.452  27.092 -0.1070 -0.0337  0.1800
  540BOLB   C1A12941  15.202  -7.449  27.310 -0.2332  0.0947 -0.3560
  540BOLB   C2A12942  15.414  -7.059  27.244  0.0280  0.0888  0.2053
  540BOLB   C3A12943  15.798  -6.710  27.264  0.2688 -0.0550  0.0146
  540BOLB   C4A12944  15.936  -6.328  27.449  0.2060  0.0347 -0.2315
  540BOLB   C1B12945  14.842  -7.056  27.167  0.0535 -0.0742 -0.1778
  540BOLB   C2B12946  14.774  -6.679  27.422  0.0828 -0.0783  0.1107
  540BOLB   C3B12947  14.561  -6.537  27.552 -0.1020  0.1325 -0.3760
  540BOLB   C4B12948  14.413  -6.154  27.390 -0.1218  0.0203  0.0500
  540BOLB   NC212949  15.734  -4.281  26.111 -0.0279  0.0171  0.0158
  540BOLB   PO212950  15.351  -4.148  26.315  0.1887  0.0940 -0.1249
  540BOLB   GL312951  15.367  -4.488  26.378  0.0453  0.3493 -0.2682
  540BOLB   GL412952  15.462  -4.672  26.133  0.1699 -0.1242  0.0417
  540BOLB   C1C12953  15.330  -4.845  26.652 -0.0040 -0.0296  0.0626
  540BOLB   C2C12954  15.600  -5.108  26.839 -0.0586 -0.2959  0.1158
  540BOLB   C3C12955  15.732  -5.457  27.010  0.4135  0.0694  0.2102
  540BOLB   C4C12956  15.909  -5.952  27.191  0.0845  0.0288 -0.0873
  540BOLB   C1D12957  15.296  -4.961  26.124 -0.3119 -0.0570  0.3483
  540BOLB   C2D12958  15.297  -5.326  26.409 -0.0073  0.1030  0.1910
  540BOLB   C3D12959  15.248  -5.565  26.668 -0.0049  0.0600 -0.1372
  540BOLB   C4D12960  15.087  -5.989  26.760 -0.0461 -0.0537  0.0067
  541BOLB   NC112961  20.324  -0.319  30.663  0.3129 -0.0003 -0.3929
  541BOLB   PO112962  20.563   0.083  30.705  0.2570 -0.1523  0.1289
  541BOLB   GL112963  20.750  -0.293  30.887 -0.0282 -0.2512  0.2280
  541BOLB   GL212964  20.600  -0.485  31.086 -0.0300  0.2421  0.2230
  541BOLB   C1A12965  21.081  -0.418  31.260 -0.1476  0.0419 -0.4557
  541BOLB   C2A12966  21.172  -0.517  31.704  0.0156 -0.1999  0.0857
  541BOLB   C3A12967  21.150  -0.819  32.119  0.1331  0.1579 -0.1476
  541BOLB   C4A12968  20.761  -0.979  32.273 -0.2391 -0.4882  0.0408
  541BOLB   C1B12969  20.667  -0.583  31.471 -0.0038  0.1704 -0.1707
  541BOLB   C2B12970  20.746  -0.926  31.689  0.1740 -0.2472 -0.1127
  541BOLB   C3B12971  21.023  -1.216  31.795 -0.0772 -0.0824  0.4087
  541BOLB   C4B12972  20.974  -1.678  31.843 -0.2077  0.0294  0.0635
  541BOLB   NC212973  20.051  -2.878  34.427  0.4624 -0.1657  0.0738
  541BOLB   PO212974  20.006  -2.932  33.982 -0.0130 -0.0494 -0.2757
  541BOLB   GL312975  19.842  -2.557  33.826 -0.1640 -0.0966  0.2406
  541BOLB   GL412976  19.874  -2.398  34.131 -0.0287 -0.1623 -0.0807
  541BOLB   C1C12977  20.136  -2.162  33.580  0.1680  0.0389 -0.4692
  541BOLB   C2C12978  20.203  -1.863  33.267  0.0572  0.0547  0.0217
  541BOLB   C3C12979  20.274  -1.480  32.902  0.0601 -0.0655 -0.2535
  541BOLB   C4C12980  20.573  -1.316  32.543  0.3851 -0.1971  0.3453
  541BOLB   C1D12981  19.597  -2.113  34.275 -0.0899  0.2226 -0.3139
  541BOLB   C2D12982  19.157  -2.056  34.164  0.2015  0.0598 -0.1985
  541BOLB   C3D12983  18.993  -2.050  33.670  0.0285  0.0080 -0.0180
  541BOLB   C4D12984  19.020  -2.412  33.402 -0.2125  0.0591  0.1618
  542BOLB   NC112985  10.822   2.749  18.130  0.2436  0.1779  0.0861
  542BOLB   PO112986  10.964   2.337  17.949 -0.1012 -0.0697 -0.1081
  542BOLB   GL112987  10.597   2.403  17.783 -0.1837  0.1761 -0.2195
  542BOLB   GL212988  10.323   2.201  17.861  0.1477 -0.0800  0.1542
  542BOLB   C1A12989  10.275   2.595  17.566  0.1796 -0.0814  0.1922
  542BOLB   C2A12990   9.942   2.312  17.429  0.0827 -0.0180  0.0337
  542BOLB   C3A12991   9.492   2.302  17.272  0.1768  0.1596 -0.1320
  542BOLB   C4A12992   9.121   2.501  17.165  0.0359 -0.0555 -0.0579
  542BOLB   C1B12993   9.952   1.970  17.734 -0.1554  0.1210 -0.0090
  542BOLB   C2B12994   9.702   1.879  17.436  0.0738 -0.1277 -0.1843
  542BOLB   C3B12995   9.690   1.820  16.935  0.0764 -0.3199  0.2402
  542BOLB   C4B12996   9.784   2.223  16.709 -0.0010 -0.0176 -0.0328
  542BOLB   NC212997   7.286   2.327  15.539  0.1561 -0.2227  0.1115
  542BOLB   PO212998   7.452   2.660  15.299 -0.0293  0.2049  0.2390
  542BOLB   GL312999   7.815   2.495  15.549  0.0552  0.0854 -0.2527
  542BOLB   GL413000   7.722   2.299  15.810  0.1067 -0.1316 -0.2080
  542BOLB   C1C13001   8.130   2.624  15.850  0.1144 -0.3184 -0.3368
  542BOLB   C2C13002   8.195   2.565  16.260 -0.2296  0.0671  0.2424
  542BOLB   C3C13003   8.507   2.586  16.469 -0.1211 -0.0439  0.2425
  542BOLB   C4C13004   8.823   2.643  16.862 -0.1354 -0.1142  0.0413
  542BOLB   C1D13005   7.945   2.102  16.207 -0.0305  0.0195  0.1661
  542BOLB   C2D13006   8.343   2.136  16.427  0.2223  0.1895 -0.0041
  542BOLB   C3D13007   8.637   1.863  16.700  0.0711 -0.0241  0.0543
  542BOLB   C4D13008   8.786   1.448  16.944  0.1608 -0.4262 -0.2370
  543BOLB   NC113009  26.796  -3.874  25.578 -0.1685  0.0838  0.1063
  543BOLB   PO113010  26.437  -3.766  25.755  0.2312 -0.2700 -0.0833
  543BOLB   GL113011  26.127  -3.460  25.760 -0.1444  0.2174  0.0042
  543BOLB   GL213012  26.209  -3.254  25.564 -0.0529 -0.1962  0.0279
  543BOLB   C1A13013  25.699  -3.429  25.727  0.0667 -0.1382  0.1067
  543BOLB   C2A13014  25.237  -3.367  25.704 -0.0595 -0.2501  0.1632
  543BOLB   C3A13015  24.984  -3.748  25.461  0.0391  0.0388 -0.2124
  543BOLB   C4A13016  24.633  -3.507  25.302 -0.0589 -0.0008  0.0018
  543BOLB   C1B13017  25.858  -3.037  25.310 -0.3368 -0.1945 -0.2614
  543BOLB   C2B13018  25.598  -2.806  25.046 -0.1907 -0.0267  0.3231
  543BOLB   C3B13019  25.348  -2.548  24.978  0.2275 -0.0548  0.0302
  543BOLB   C4B13020  25.296  -2.160  25.027 -0.2975 -0.0774  0.1427
  543BOLB   NC213021  26.075  -4.025  24.045 -0.1098 -0.1761 -0.0765
  543BOLB   PO213022  26.011  -4.323  24.324  0.0644  0.3121 -0.1261
  543BOLB   GL313023  25.620  -4.286  24.042  0.1568 -0.2777 -0.1599
  543BOLB   GL413024  25.544  -4.148  23.731  0.0135  0.1359 -0.1064
  543BOLB   C1C13025  25.167  -4.383  23.988 -0.0333  0.2218  0.0447
  543BOLB   C2C13026  24.791  -4.239  24.291 -0.1613  0.1038  0.2839
  543BOLB   C3C13027  24.701  -4.053  24.620  0.1296  0.0707 -0.0949
  543BOLB   C4C13028  24.561  -3.732  24.836 -0.0629  0.0507  0.0872
  543BOLB   C1D13029  25.441  -3.700  23.790 -0.0872  0.0344 -0.2004
  543BOLB   C2D13030  25.190  -3.366  23.654 -0.0136 -0.1910  0.0696
  543BOLB   C3D13031  24.878  -3.059  23.710  0.1274 -0.0609  0.4195
  543BOLB   C4D13032  24.442  -2.987  23.767  0.0947  0.0547  0.0814
  544BOLB   NC113033  10.909  10.085  29.640 -0.0264  0.1682  0.0278
  544BOLB   PO113034  10.992  10.219  30.123  0.1375  0.1298 -0.0497
  544BOLB   GL113035  10.722  10.650  30.365 -0.0707 -0.1769 -0.2615
  544BOLB   GL213036  10.931  10.948  30.415  0.1715 -0.1253  0.0744
  544BOLB   C1A13037  10.311  10.838  30.435  0.1857  0.1134 -0.2618
  544BOLB   C2A13038  10.059  10.931  30.748 -0.2778  0.0800 -0.2858
  544BOLB   C3A13039   9.905  11.303  31.043  0.0482  0.3096  0.1604
  544BOLB   C4A13040   9.766  11.722  31.072 -0.2666 -0.1692  0.0781
  544BOLB   C1B13041  10.925  11.150  30.701  0.2667 -0.0529 -0.1146
  544BOLB   C2B13042  11.013  11.148  31.149  0.1063  0.0165  0.1276
  544BOLB   C3B13043  10.958  10.960  31.518  0.1252 -0.2338  0.2849
  544BOLB   C4B13044  10.741  11.064  31.870 -0.1571  0.1948  0.0386
  544BOLB   NC213045   8.831  13.848  31.599  0.1945  0.1375 -0.4339
  544BOLB   PO213046   8.691  13.565  31.886 -0.0428  0.1250  0.2251
  544BOLB   GL313047   9.025  13.300  32.059 -0.2033  0.2330 -0.0032
  544BOLB   GL413048   9.067  13.148  32.297 -0.0431  0.1181  0.0892
  544BOLB   C1C13049   9.427  13.208  31.944 -0.0676  0.0886  0.1659
  544BOLB   C2C13050   9.573  12.873  31.794 -0.3854  0.3385  0.1049
  544BOLB   C3C13051   9.825  12.421  31.719 -0.1404 -0.0263 -0.1318
  544BOLB   C4C13052   9.884  12.133  31.374 -0.2810  0.1457 -0.0770
  544BOLB   C1D13053   8.999  12.781  32.128 -0.1379 -0.1277  0.0962
  544BOLB   C2D13054   8.997  12.471  32.266 -0.1876 -0.0278 -0.3692
  544BOLB   C3D13055   9.301  12.268  32.425 -0.2024  0.1606 -0.0232
  544BOLB   C4D13056   9.641  12.258  32.685  0.2367  0.1494 -0.2396
  545BOLB   NC113057  16.959   2.312  33.253 -0.4798 -0.2431 -0.0684
  545BOLB   PO113058  17.490   2.357  33.179  0.0841  0.0707 -0.0190
  545BOLB   GL113059  17.393   2.156  33.530  0.0186  0.3997 -0.1023
  545BOLB   GL213060  17.121   2.395  33.786 -0.0936  0.0088  0.1675
  545BOLB   C1A13061  17.615   2.275  33.920 -0.0713 -0.1034 -0.2365
  545BOLB   C2A13062  17.624   1.926  34.164 -0.0663 -0.0154  0.0511
  545BOLB   C3A13063  17.567   1.690  34.539  0.4896  0.2251  0.3224
  545BOLB   C4A13064  17.504   1.624  34.940  0.0919  0.3355 -0.3793
  545BOLB   C1B13065  17.473   2.696  33.992 -0.2079 -0.3170  0.2097
  545BOLB   C2B13066  17.581   2.597  34.429  0.0282  0.0615  0.1825
  545BOLB   C3B13067  17.588   2.571  34.858 -0.0569  0.0975  0.1099
  545BOLB   C4B13068  17.460   2.695  35.228 -0.1360 -0.1982  0.0597
  545BOLB   NC213069  17.479   0.997  37.242 -0.0747  0.1800  0.2832
  545BOLB   PO213070  17.549   0.512  37.203 -0.3499 -0.1126 -0.2538
  545BOLB   GL313071  17.615   0.696  36.780 -0.4754 -0.1608  0.0227
  545BOLB   GL413072  17.502   0.476  36.627 -0.0954 -0.0744 -0.3596
  545BOLB   C1C13073  17.618   1.053  36.442  0.0288 -0.2650  0.3641
  545BOLB   C2C13074  17.643   1.429  36.191 -0.0408 -0.1968 -0.0522
  545BOLB   C3C13075  17.803   1.703  35.811 -0.0134  0.1629 -0.0073
  545BOLB   C4C13076  17.722   1.793  35.323  0.0896  0.0897 -0.0536
  545BOLB   C1D13077  17.422   0.584  36.214  0.1714 -0.3323 -0.0134
  545BOLB   C2D13078  17.346   0.911  36.018 -0.1294  0.1591 -0.2382
  545BOLB   C3D13079  17.251   0.954  35.616  0.2044  0.0109 -0.2820
  545BOLB   C4D13080  17.280   1.022  35.266  0.1587 -0.2510  0.1102
  546BOLB   NC113081  12.400   4.737  32.954 -0.1270  0.3377  0.3884
  546BOLB   PO113082  12.125   4.438  32.766 -0.1033  0.3661 -0.1113
  546BOLB   GL113083  11.782   4.296  32.991 -0.0017 -0.0561  0.1708
  546BOLB   GL213084  11.920   4.079  33.227 -0.3096  0.0310 -0.2225
  546BOLB   C1A13085  11.510   4.301  33.270  0.0066 -0.1455 -0.0625
  546BOLB   C2A13086  11.303   4.427  33.719 -0.3744 -0.0365  0.0014
  546BOLB   C3A13087  11.264   4.337  34.088 -0.2860 -0.5767 -0.2020
  546BOLB   C4A13088  11.073   4.377  34.502 -0.2158 -0.1557 -0.0152
  546BOLB   C1B13089  11.857   4.183  33.676 -0.4042 -0.0651 -0.2181
  546BOLB   C2B13090  11.803   4.150  34.123 -0.1765 -0.0432 -0.0658
  546BOLB   C3B13091  11.606   4.213  34.452  0.1188  0.3032 -0.1423
  546BOLB   C4B13092  11.469   4.262  34.832  0.1096  0.0607  0.0602
  546BOLB   NC213093   9.990   5.141  36.356 -0.0279 -0.2607  0.0971
  546BOLB   PO213094   9.782   5.459  36.121 -0.1620 -0.3876 -0.1693
  546BOLB   GL313095   9.984   5.475  35.769  0.0223 -0.1916 -0.0732
  546BOLB   GL413096  10.090   5.829  35.649 -0.5705  0.0939  0.3251
  546BOLB   C1C13097  10.129   5.453  35.363  0.0174  0.1257  0.1450
  546BOLB   C2C13098  10.492   5.242  35.283  0.4034 -0.0053  0.0124
  546BOLB   C3C13099  10.651   4.860  35.121 -0.3102 -0.1738  0.2033
  546BOLB   C4C13100  10.860   4.498  34.958  0.0482  0.0024 -0.2035
  546BOLB   C1D13101  10.462   5.784  35.722 -0.1925  0.0631  0.2344
  546BOLB   C2D13102  10.893   5.620  35.455  0.5681  0.4044  0.2112
  546BOLB   C3D13103  11.151   5.519  35.111 -0.0724 -0.1049 -0.1329
  546BOLB   C4D13104  11.164   5.272  34.749  0.0497  0.1372 -0.0586
  547BOLB   NC113105  17.428  -4.105  26.778 -0.0206 -0.1181  0.0223
  547BOLB   PO113106  17.243  -4.279  26.416  0.2023  0.1309 -0.2647
  547BOLB   GL113107  17.320  -4.693  26.632 -0.0894 -0.1533 -0.0573
  547BOLB   GL213108  17.537  -4.565  26.862  0.0822 -0.1010 -0.1347
  547BOLB   C1A13109  17.163  -5.091  26.626  0.2518  0.0598 -0.4233
  547BOLB   C2A13110  17.119  -5.449  26.762  0.2039 -0.1381 -0.0863
  547BOLB   C3A13111  16.998  -5.869  26.684  0.0850 -0.1744 -0.2200
  547BOLB   C4A13112  16.590  -6.117  26.703 -0.0194 -0.0258 -0.1285
  547BOLB   C1B13113  17.610  -4.815  27.186 -0.1337 -0.3588  0.0432
  547BOLB   C2B13114  17.743  -5.255  27.350  0.2703 -0.1951  0.0131
  547BOLB   C3B13115  17.917  -5.578  27.706 -0.0547  0.1622 -0.2604
  547BOLB   C4B13116  17.956  -6.057  27.794 -0.0236  0.3995 -0.3063
  547BOLB   NC213117  16.637  -8.890  27.307 -0.2684 -0.0840  0.1630
  547BOLB   PO213118  16.466  -8.538  27.304  0.0876 -0.2084  0.1502
  547BOLB   GL313119  16.296  -8.131  27.399  0.0649  0.0272 -0.1736
  547BOLB   GL413120  16.408  -7.827  27.501 -0.1341  0.0192  0.1128
  547BOLB   C1C13121  16.130  -7.698  27.141  0.0012 -0.0464 -0.0378
  547BOLB   C2C13122  16.191  -7.323  26.838 -0.0001 -0.0740  0.4680
  547BOLB   C3C13123  16.377  -6.974  26.700  0.0659  0.1135 -0.2095
  547BOLB   C4C13124  16.458  -6.519  26.560 -0.1766 -0.0500 -0.4035
  547BOLB   C1D13125  16.366  -7.496  27.674  0.3691  0.0366 -0.0506
  547BOLB   C2D13126  16.432  -7.076  27.875 -0.0912 -0.0522 -0.3631
  547BOLB   C3D13127  16.438  -6.700  28.109 -0.1837  0.3376  0.3250
  547BOLB   C4D13128  16.766  -6.576  28.445 -0.2548  0.5275  0.0140
  548BOLB   NC113129   9.704  -0.484  29.521  0.1609 -0.2162  0.0286
  548BOLB   PO113130   9.839  -0.186  29.335  0.3850 -0.2726 -0.4016
  548BOLB   GL113131   9.404  -0.113  29.434 -0.1329  0.0381  0.0935
  548BOLB   GL213132   9.478   0.004  29.629  0.0173  0.0488 -0.0917
  548BOLB   C1A13133   8.986  -0.176  29.668  0.0914 -0.1896 -0.3762
  548BOLB   C2A13134   8.716  -0.215  30.011  0.0859  0.2007  0.3348
  548BOLB   C3A13135   8.566  -0.447  30.295 -0.0081  0.0650 -0.3297
  548BOLB   C4A13136   8.469  -0.769  30.594  0.1439  0.1670 -0.2198
  548BOLB   C1B13137   9.265  -0.145  30.114 -0.3315 -0.1135  0.1203
  548BOLB   C2B13138   8.953  -0.206  30.493  0.0001 -0.0723  0.0920
  548BOLB   C3B13139   8.900  -0.545  30.655 -0.0012 -0.1583  0.1994
  548BOLB   C4B13140   8.801  -0.924  30.903 -0.2682 -0.0403  0.2597
  548BOLB   NC213141   6.561  -1.565  31.657  0.2745  0.1046 -0.3234
  548BOLB   PO213142   6.369  -1.120  31.691 -0.0637 -0.0150  0.1075
  548BOLB   GL313143   6.765  -0.951  31.511 -0.0701 -0.1553 -0.0285
  548BOLB   GL413144   6.954  -0.858  31.810  0.2329  0.3196 -0.2353
  548BOLB   C1C13145   6.995  -0.924  31.198  0.0299  0.0886  0.0618
  548BOLB   C2C13146   7.479  -1.061  31.175 -0.3086  0.0920 -0.0342
  548BOLB   C3C13147   7.881  -1.199  31.063  0.0690  0.0726 -0.0091
  548BOLB   C4C13148   8.230  -1.111  30.834  0.1454 -0.1549 -0.3633
  548BOLB   C1D13149   7.335  -0.762  31.535  0.1651 -0.1335  0.1518
  548BOLB   C2D13150   7.732  -0.621  31.390 -0.2378 -0.0466  0.2761
  548BOLB   C3D13151   8.150  -0.812  31.286 -0.1182  0.2356  0.0631
  548BOLB   C4D13152   8.537  -0.624  31.221 -0.1570  0.2358  0.0370
  549BOLB   NC113153  18.653  15.035  31.443  0.0015  0.1062  0.3416
  549BOLB   PO113154  18.837  14.870  31.057  0.1739  0.2417 -0.2394
  549BOLB   GL113155  18.813  14.731  30.582  0.0592 -0.0482 -0.0657
  549BOLB   GL213156  18.874  14.862  30.260  0.0323  0.2320  0.2006
  549BOLB   C1A13157  18.519  14.463  30.465 -0.1695 -0.0677  0.1087
  549BOLB   C2A13158  18.636  14.043  30.224  0.3511 -0.0929  0.3582
  549BOLB   C3A13159  18.926  13.762  30.101 -0.0697  0.0131  0.1654
  549BOLB   C4A13160  19.298  13.696  30.326 -0.2509 -0.0463 -0.0661
  549BOLB   C1B13161  19.015  14.402  30.130 -0.0449 -0.1879 -0.5001
  549BOLB   C2B13162  19.031  14.111  30.445  0.2939  0.3151 -0.2943
  549BOLB   C3B13163  19.185  13.962  30.768  0.0031  0.2321 -0.2751
  549BOLB   C4B13164  19.548  13.733  31.020  0.2526 -0.3898 -0.0880
  549BOLB   NC213165  20.436  14.042  32.381  0.0893 -0.1461  0.2472
  549BOLB   PO213166  20.733  14.037  31.963 -0.0449 -0.0662  0.0494
  549BOLB   GL313167  20.293  13.792  31.947  0.1594 -0.2318 -0.1726
  549BOLB   GL413168  20.305  13.555  32.212  0.0850 -0.1559 -0.3703
  549BOLB   C1C13169  20.003  13.580  31.602  0.3152  0.3334  0.0771
  549BOLB   C2C13170  19.827  13.243  31.357  0.1385  0.1173 -0.0775
  549BOLB   C3C13171  19.464  13.233  31.041 -0.0838  0.1617 -0.0509
  549BOLB   C4C13172  19.325  13.380  30.679 -0.2299 -0.1086 -0.1148
  549BOLB   C1D13173  20.147  13.237  31.897  0.1173  0.0697 -0.0498
  549BOLB   C2D13174  20.258  13.048  31.639  0.2640  0.1284  0.1122
  549BOLB   C3D13175  20.507  12.683  31.508 -0.2477 -0.1057 -0.0909
  549BOLB   C4D13176  20.327  12.340  31.271 -0.0966  0.1632 -0.0313
  550BOLB   NC113177  14.021   6.660  17.094 -0.0540  0.3069 -0.0200
  550BOLB   PO113178  13.785   6.895  17.400  0.2215 -0.0190 -0.1477
  550BOLB   GL113179  13.465   7.005  17.246 -0.1547  0.3488  0.1431
  550BOLB   GL213180  13.276   7.158  17.430 -0.0863  0.0140 -0.1467
  550BOLB   C1A13181  13.278   6.848  16.960  0.0309  0.2738  0.0655
  550BOLB   C2A13182  13.192   6.725  16.538 -0.1118  0.0275  0.1383
  550BOLB   C3A13183  13.162   6.663  16.064  0.0369 -0.1534 -0.4279
  550BOLB   C4A13184  13.187   6.556  15.635  0.2452  0.2757  0.1929
  550BOLB   C1B13185  13.109   7.447  17.109  0.2815 -0.1723  0.0113
  550BOLB   C2B13186  13.083   7.267  16.588 -0.0320 -0.1827 -0.2208
  550BOLB   C3B13187  13.343   7.167  16.259  0.2261  0.0199 -0.0604
  550BOLB   C4B13188  13.304   7.231  15.908  0.0463  0.1903  0.0597
  550BOLB   NC213189  12.127   7.630  13.830  0.1051 -0.1682  0.3499
  550BOLB   PO213190  12.383   7.413  13.540  0.1250  0.0483  0.0537
  550BOLB   GL313191  12.714   7.428  13.884  0.2348  0.2394 -0.2823
  550BOLB   GL413192  12.910   7.698  14.013  0.1231 -0.2206  0.2503
  550BOLB   C1C13193  12.985   7.014  13.991 -0.1452  0.1220 -0.2189
  550BOLB   C2C13194  13.171   6.908  14.385  0.2664  0.0695  0.1123
  550BOLB   C3C13195  13.286   6.870  14.750 -0.2391 -0.1204 -0.2184
  550BOLB   C4C13196  13.234   6.700  15.177 -0.1134 -0.1345 -0.2241
  550BOLB   C1D13197  12.893   7.464  14.359 -0.3891 -0.0978  0.1648
  550BOLB   C2D13198  12.907   7.366  14.852  0.0099  0.0060  0.4254
  550BOLB   C3D13199  13.163   7.292  15.158  0.0052  0.0125  0.2440
  550BOLB   C4D13200  13.436   7.087  15.408 -0.0266  0.0679  0.0965
  551BOLB   NC113201   7.077   5.750  26.187 -0.0583  0.0505 -0.0169
  551BOLB   PO113202   7.032   5.486  25.932  0.0192 -0.2459  0.0351
  551BOLB   GL113203   6.650   5.421  25.700  0.1501  0.1098  0.1110
  551BOLB   GL213204   6.676   5.776  25.616  0.5863 -0.0835  0.4270
  551BOLB   C1A13205   6.212   5.650  25.626 -0.3473 -0.0131  0.0744
  551BOLB   C2A13206   5.775   5.746  25.621  0.0567  0.2520 -0.0148
  551BOLB   C3A13207   5.323   5.795  25.647 -0.1340 -0.0657 -0.0401
  551BOLB   C4A13208   5.031   5.861  25.879 -0.0023  0.0849 -0.0286
  551BOLB   C1B13209   6.316   6.123  25.572  0.2811  0.0773 -0.1973
  551BOLB   C2B13210   5.958   6.166  25.852  0.0965 -0.3106  0.0222
  551BOLB   C3B13211   5.576   5.994  26.108  0.2243  0.0828  0.4685
  551BOLB   C4B13212   5.244   5.850  26.324  0.0872 -0.0895 -0.2059
  551BOLB   NC213213   3.094   6.189  27.128  0.1012  0.0758 -0.0895
  551BOLB   PO213214   2.973   6.262  26.710  0.1198 -0.2246  0.0106
  551BOLB   GL313215   3.194   5.815  26.769 -0.0785 -0.4535 -0.3166
  551BOLB   GL413216   3.495   6.000  26.898 -0.3227  0.0267 -0.3692
  551BOLB   C1C13217   3.466   5.738  26.456 -0.0066 -0.0205 -0.0456
  551BOLB   C2C13218   3.846   5.637  26.117  0.1554 -0.1162 -0.0383
  551BOLB   C3C13219   4.261   5.688  26.070 -0.2206 -0.1758 -0.2894
  551BOLB   C4C13220   4.601   5.839  26.133 -0.0097  0.0655  0.0060
  551BOLB   C1D13221   3.729   5.780  27.054 -0.0563  0.0373  0.2041
  551BOLB   C2D13222   3.997   5.330  27.055  0.3214 -0.1362  0.0750
  551BOLB   C3D13223   4.287   5.096  27.231  0.1534  0.1455 -0.0361
  551BOLB   C4D13224   4.566   4.905  27.008 -0.1676 -0.0041 -0.2454
  552BOLB   NC113225  19.828  10.006  21.434  0.2357  0.0120 -0.3626
  552BOLB   PO113226  19.646  10.093  21.099 -0.0031 -0.3699 -0.1638
  552BOLB   GL113227  19.758  10.337  20.704  0.2928  0.1764  0.1174
  552BOLB   GL213228  19.944  10.245  20.395 -0.1975 -0.3255 -0.1532
  552BOLB   C1A13229  19.735  10.799  20.743 -0.0905 -0.0938  0.1675
  552BOLB   C2A13230  19.838  11.198  20.673  0.1807  0.0159  0.1530
  552BOLB   C3A13231  20.167  11.406  20.617 -0.0281  0.1455  0.2854
  552BOLB   C4A13232  20.472  11.835  20.591 -0.0340 -0.3556 -0.2174
  552BOLB   C1B13233  19.941  10.614  20.208 -0.1860  0.1774  0.0029
  552BOLB   C2B13234  20.040  11.027  20.064 -0.0625  0.1931 -0.1490
  552BOLB   C3B13235  20.305  11.312  20.008 -0.2821 -0.0251 -0.0150
  552BOLB   C4B13236  20.642  11.188  20.024 -0.0890  0.1199  0.2285
  552BOLB   NC213237  19.951  13.921  19.037  0.1801 -0.0361 -0.1154
  552BOLB   PO213238  20.355  14.076  19.159 -0.1648 -0.1849  0.2135
  552BOLB   GL313239  20.441  13.704  19.445 -0.1350  0.2021  0.2384
  552BOLB   GL413240  20.420  13.766  19.725  0.1502 -0.2047  0.1435
  552BOLB   C1C13241  20.306  13.312  19.510  0.1618  0.0002  0.1632
  552BOLB   C2C13242  20.233  12.906  19.770  0.3060 -0.0772 -0.2273
  552BOLB   C3C13243  20.293  12.497  19.977  0.1028  0.2559  0.0009
  552BOLB   C4C13244  20.383  12.121  20.258  0.1399 -0.0146  0.1094
  552BOLB   C1D13245  20.138  13.572  20.046  0.2007  0.0933  0.0375
  552BOLB   C2D13246  20.228  13.113  20.324 -0.1111  0.3696 -0.0923
  552BOLB   C3D13247  20.033  12.956  20.680 -0.1895  0.0241  0.1671
  552BOLB   C4D13248  19.944  12.654  21.072  0.1795 -0.1083  0.1401
  553BOLB   NC113249  13.186   8.180  32.827  0.2014  0.0049 -0.0646
  553BOLB   PO113250  13.479   8.101  33.151 -0.0487 -0.2289  0.0547
  553BOLB   GL113251  13.364   8.234  33.476 -0.3681 -0.1431  0.0799
  553BOLB   GL213252  13.395   8.538  33.347 -0.0691  0.2825  0.0902
  553BOLB   C1A13253  13.402   7.898  33.785 -0.0563  0.2513  0.5357
  553BOLB   C2A13254  13.042   7.777  33.991 -0.0514  0.0554 -0.1649
  553BOLB   C3A13255  13.006   7.438  34.337 -0.2852  0.0658 -0.1050
  553BOLB   C4A13256  12.721   7.301  34.595  0.4432 -0.1575 -0.0130
  553BOLB   C1B13257  13.064   8.893  33.311 -0.0201  0.0908 -0.4096
  553BOLB   C2B13258  12.717   9.164  33.075  0.2269  0.0554 -0.1352
  553BOLB   C3B13259  12.206   9.272  33.148 -0.1090 -0.1273  0.0089
  553BOLB   C4B13260  11.841   9.425  33.091 -0.0582 -0.0144  0.1992
  553BOLB   NC213261  11.789   7.343  36.919 -0.3190  0.0845 -0.0890
  553BOLB   PO213262  12.069   7.600  37.115  0.1169  0.1994  0.1220
  553BOLB   GL313263  12.236   7.342  36.705 -0.2209  0.1109 -0.1496
  553BOLB   GL413264  12.008   7.259  36.455  0.0809 -0.1421 -0.2176
  553BOLB   C1C13265  12.454   7.180  36.337  0.1380 -0.1480  0.0204
  553BOLB   C2C13266  12.600   7.186  35.856 -0.0425  0.1232  0.1580
  553BOLB   C3C13267  12.640   7.023  35.385  0.3792  0.0138 -0.0588
  553BOLB   C4C13268  12.517   7.069  34.971 -0.4313 -0.0935 -0.2898
  553BOLB   C1D13269  11.978   7.122  36.043  0.0392  0.0859 -0.2560
  553BOLB   C2D13270  11.996   7.281  35.691  0.1295  0.1327  0.0059
  553BOLB   C3D13271  12.035   7.537  35.410  0.1067  0.0254 -0.0338
  553BOLB   C4D13272  12.121   7.462  34.912 -0.0647  0.0986 -0.0201
  554BOLB   NC113273  21.734   7.677  21.386 -0.3957 -0.0507  0.1716
  554BOLB   PO113274  22.080   7.790  21.447 -0.0878 -0.0911 -0.3423
  554BOLB   GL113275  22.477   7.988  21.379 -0.0974 -0.2965  0.1456
  554BOLB   GL213276  22.517   8.251  21.231 -0.2671  0.2662  0.1765
  554BOLB   C1A13277  22.944   8.073  21.110  0.1367 -0.2728  0.0350
  554BOLB   C2A13278  23.347   7.957  20.923  0.0148 -0.0531 -0.1229
  554BOLB   C3A13279  23.640   7.768  20.514 -0.0637 -0.0034  0.3656
  554BOLB   C4A13280  23.982   7.888  20.282  0.1400 -0.4509  0.1577
  554BOLB   C1B13281  22.711   8.608  20.986  0.0133  0.3527 -0.0518
  554BOLB   C2B13282  22.581   8.961  20.707 -0.0716  0.0728  0.3261
  554BOLB   C3B13283  22.507   9.272  20.354  0.1391  0.2675 -0.0606
  554BOLB   C4B13284  22.819   9.566  20.185 -0.4413  0.0492 -0.4636
  554BOLB   NC213285  25.167   8.568  18.435 -0.1048 -0.1341 -0.0695
  554BOLB   PO213286  25.358   8.257  18.722  0.0323  0.4663 -0.4117
  554BOLB   GL313287  25.197   8.025  18.925 -0.0466  0.2305 -0.4875
  554BOLB   GL413288  24.976   7.882  18.746  0.0742  0.0665  0.2059
  554BOLB   C1C13289  24.969   7.823  19.323  0.4800 -0.0690 -0.2412
  554BOLB   C2C13290  24.870   7.549  19.734 -0.0591 -0.0200  0.1676
  554BOLB   C3C13291  24.595   7.595  19.997 -0.0009  0.2052  0.1501
  554BOLB   C4C13292  24.288   7.811  20.078 -0.1828  0.1316  0.1909
  554BOLB   C1D13293  24.627   7.798  18.889  0.1794 -0.1383 -0.3030
  554BOLB   C2D13294  24.318   7.725  19.106 -0.1514 -0.0246  0.1319
  554BOLB   C3D13295  24.126   7.328  19.335  0.2144  0.0381  0.0596
  554BOLB   C4D13296  23.704   7.213  19.344  0.4569 -0.2091 -0.3335
  555BOLB   NC113297  15.440   9.496  19.091 -0.2622 -0.4367 -0.1892
  555BOLB   PO113298  15.810   9.259  18.964  0.0441  0.0648 -0.2144
  555BOLB   GL113299  15.883   9.651  18.801  0.0127 -0.1229  0.0195
  555BOLB   GL213300  15.573   9.903  18.742  0.0840  0.1464 -0.0405
  555BOLB   C1A13301  16.205   9.872  18.580  0.0504 -0.0409 -0.1903
  555BOLB   C2A13302  16.497  10.010  18.321 -0.1999  0.2158 -0.0373
  555BOLB   C3A13303  16.782  10.277  18.027  0.1376  0.1618 -0.3201
  555BOLB   C4A13304  17.128  10.466  17.864 -0.0757  0.0332  0.2373
  555BOLB   C1B13305  15.890  10.245  18.564  0.2770 -0.2696  0.1873
  555BOLB   C2B13306  16.183  10.377  18.194 -0.1686 -0.0422 -0.3725
  555BOLB   C3B13307  16.316  10.781  18.088 -0.1509 -0.0305  0.2961
  555BOLB   C4B13308  16.364  11.162  18.306 -0.1927 -0.0034  0.1155
  555BOLB   NC213309  18.249  11.794  16.464  0.5066  0.1602  0.2527
  555BOLB   PO213310  18.594  11.751  16.736 -0.2246 -0.0502 -0.1086
  555BOLB   GL313311  18.318  11.415  16.892  0.1706  0.2039 -0.0791
  555BOLB   GL413312  18.069  11.393  16.709 -0.1625  0.0465 -0.1438
  555BOLB   C1C13313  18.197  11.104  17.197 -0.2962  0.3640  0.2271
  555BOLB   C2C13314  18.172  10.948  17.616 -0.3178  0.0080 -0.3234
  555BOLB   C3C13315  17.909  10.751  17.914 -0.3933  0.0132 -0.4717
  555BOLB   C4C13316  17.566  10.501  17.957  0.1082 -0.2791 -0.1538
  555BOLB   C1D13317  18.295  10.979  16.708  0.2848  0.1121 -0.1804
  555BOLB   C2D13318  18.641  10.606  16.867 -0.2146  0.0405  0.1077
  555BOLB   C3D13319  18.835  10.313  17.074  0.2018 -0.2109  0.0408
  555BOLB   C4D13320  19.101  10.007  17.169  0.0291 -0.0985 -0.2350
  556BOLB   NC113321  24.481   0.632  26.528 -0.0088  0.0381  0.2764
  556BOLB   PO113322  24.257   1.005  26.766 -0.0091  0.1012 -0.2085
  556BOLB   GL113323  24.575   1.157  27.076 -0.2912 -0.0355  0.0383
  556BOLB   GL213324  24.750   0.877  27.226 -0.0639  0.1094  0.0270
  556BOLB   C1A13325  25.031   1.130  26.955  0.0938 -0.0458 -0.2422
  556BOLB   C2A13326  25.281   0.939  27.084  0.3298 -0.1593 -0.1707
  556BOLB   C3A13327  25.439   0.561  27.219  0.0536  0.0018 -0.2125
  556BOLB   C4A13328  25.661   0.266  27.399  0.1372  0.1553 -0.0306
  556BOLB   C1B13329  25.101   0.729  27.504 -0.1337 -0.0538 -0.3737
  556BOLB   C2B13330  25.389   0.516  27.723  0.3278 -0.0614  0.0038
  556BOLB   C3B13331  25.578   0.224  27.956  0.2664 -0.1552  0.3288
  556BOLB   C4B13332  25.490  -0.167  28.129 -0.1836  0.0179  0.1633
  556BOLB   NC213333  27.556  -1.147  28.335 -0.0257  0.0743 -0.2322
  556BOLB   PO213334  27.661  -0.909  28.075 -0.0225 -0.0206  0.1159
  556BOLB   GL313335  27.441  -0.587  27.903 -0.0050  0.1238  0.2909
  556BOLB   GL413336  27.431  -0.717  27.537 -0.2527 -0.2674  0.2156
  556BOLB   C1C13337  26.994  -0.649  27.754  0.1181 -0.1684  0.0380
  556BOLB   C2C13338  26.589  -0.494  27.612  0.0678  0.2594  0.1653
  556BOLB   C3C13339  26.182  -0.274  27.595  0.0677 -0.1116 -0.1251
  556BOLB   C4C13340  25.845  -0.020  27.672 -0.2111  0.2783  0.0225
  556BOLB   C1D13341  27.412  -0.269  27.428 -0.3488 -0.0807 -0.0686
  556BOLB   C2D13342  27.383   0.173  27.554 -0.2959  0.1875 -0.1336
  556BOLB   C3D13343  27.146   0.536  27.598  0.0591 -0.0818  0.2306
  556BOLB   C4D13344  26.891   0.811  27.882 -0.2221  0.1499  0.3078
  557BOLB   NC113345   9.702  -1.911  23.930  0.0337  0.1871  0.0088
  557BOLB   PO113346   9.705  -2.284  23.625 -0.1119  0.0853  0.0330
  557BOLB   GL113347   9.460  -2.595  23.453 -0.0142  0.3024 -0.2705
  557BOLB   GL213348   9.234  -2.478  23.770 -0.1672 -0.3857  0.0704
  557BOLB   C1A13349   9.205  -2.716  23.151 -0.0789 -0.0990 -0.0378
  557BOLB   C2A13350   9.028  -3.099  23.065 -0.0433  0.2422 -0.1446
  557BOLB   C3A13351   8.766  -3.266  22.802  0.1046  0.3169 -0.1276
  557BOLB   C4A13352   8.409  -3.405  22.666  0.0504  0.1684  0.0569
  557BOLB   C1B13353   8.899  -2.640  23.561  0.0828 -0.0564 -0.1405
  557BOLB   C2B13354   8.613  -2.898  23.446 -0.0433 -0.2355 -0.0585
  557BOLB   C3B13355   8.391  -3.319  23.572  0.1308  0.1677  0.3141
  557BOLB   C4B13356   8.564  -3.571  23.820 -0.1566  0.1460  0.1020
  557BOLB   NC213357   6.337  -5.453  23.611 -0.0661 -0.0938 -0.5087
  557BOLB   PO213358   6.728  -5.204  23.602  0.0021 -0.0637  0.1311
  557BOLB   GL313359   7.027  -4.865  23.625  0.0319  0.1038  0.0576
  557BOLB   GL413360   7.086  -4.673  23.870  0.0991 -0.0998  0.2648
  557BOLB   C1C13361   7.319  -4.698  23.376 -0.0282 -0.0958  0.0872
  557BOLB   C2C13362   7.468  -4.337  23.073 -0.0532 -0.0803  0.2106
  557BOLB   C3C13363   7.878  -4.229  22.892  0.0596 -0.0995 -0.3670
  557BOLB   C4C13364   8.233  -3.840  22.858 -0.2947  0.0383  0.2171
  557BOLB   C1D13365   7.513  -4.489  23.827  0.1251 -0.0542 -0.1526
  557BOLB   C2D13366   7.984  -4.310  23.859 -0.1427  0.0916 -0.0021
  557BOLB   C3D13367   8.503  -4.332  23.914 -0.3995 -0.1933 -0.1161
  557BOLB   C4D13368   8.830  -4.131  24.086 -0.4671 -0.4238  0.1456
  558BOLB   NC113369  23.844   4.826  24.857 -0.3052 -0.1326  0.3193
  558BOLB   PO113370  24.139   4.819  24.614  0.3531 -0.0277 -0.1529
  558BOLB   GL113371  24.578   5.028  24.614  0.1066 -0.4109  0.2056
  558BOLB   GL213372  24.756   4.927  24.329 -0.2461  0.0441 -0.3479
  558BOLB   C1A13373  24.855   5.217  24.898 -0.0943 -0.4833 -0.0515
  558BOLB   C2A13374  25.247   5.149  24.919  0.1579 -0.1861  0.0621
  558BOLB   C3A13375  25.694   5.184  24.788  0.1025 -0.3428 -0.0198
  558BOLB   C4A13376  26.087   5.145  24.625 -0.3702  0.0750 -0.3320
  558BOLB   C1B13377  25.201   4.954  24.488 -0.0468 -0.0947  0.2103
  558BOLB   C2B13378  25.652   4.822  24.437 -0.0151  0.0198  0.2882
  558BOLB   C3B13379  26.001   4.639  24.567 -0.4666 -0.2827 -0.0571
  558BOLB   C4B13380  26.227   4.442  24.325 -0.0479  0.0125 -0.0988
  558BOLB   NC213381  28.479   5.699  23.059 -0.0996 -0.2346 -0.3181
  558BOLB   PO213382  28.260   6.057  23.316  0.0681  0.1782 -0.1140
  558BOLB   GL313383  28.070   5.932  23.800  0.1517  0.0001  0.1488
  558BOLB   GL413384  28.011   5.863  24.101 -0.0202 -0.6472 -0.0584
  558BOLB   C1C13385  27.546   5.916  23.888  0.0116 -0.0599  0.0253
  558BOLB   C2C13386  27.147   5.763  24.080  0.0309  0.0204  0.0945
  558BOLB   C3C13387  26.734   5.590  24.238  0.0099  0.3753  0.1430
  558BOLB   C4C13388  26.415   5.358  24.370  0.1194  0.1031  0.2810
  558BOLB   C1D13389  27.804   5.628  24.454  0.0772 -0.0426  0.1796
  558BOLB   C2D13390  27.614   5.180  24.496  0.3516 -0.2825 -0.0015
  558BOLB   C3D13391  27.472   4.925  24.646 -0.0038  0.0105 -0.0313
  558BOLB   C4D13392  27.186   4.775  24.814  0.2874  0.0818  0.0751
  559BOLB   NC113393  18.220   7.694  18.368 -0.1781  0.1972  0.0552
  559BOLB   PO113394  18.612   7.620  18.325  0.2155  0.0276  0.1027
  559BOLB   GL113395  18.513   7.658  17.937  0.0798 -0.1241  0.0408
  559BOLB   GL213396  18.213   7.483  17.865  0.1960  0.0456  0.0063
  559BOLB   C1A13397  18.672   7.664  17.523 -0.0442  0.2959 -0.2161
  559BOLB   C2A13398  18.934   7.828  17.118 -0.0427 -0.3409 -0.3022
  559BOLB   C3A13399  19.186   7.958  16.775  0.0942 -0.2189  0.0840
  559BOLB   C4A13400  19.197   8.001  16.369  0.4146 -0.3106  0.0890
  559BOLB   C1B13401  18.196   7.787  17.498  0.0808  0.0002 -0.0437
  559BOLB   C2B13402  18.313   7.959  17.203 -0.1800 -0.3313  0.1264
  559BOLB   C3B13403  18.534   8.265  17.136 -0.1620 -0.0724 -0.0117
  559BOLB   C4B13404  18.579   8.567  16.829 -0.0576 -0.0210  0.2780
  559BOLB   NC213405  20.261   9.175  14.324  0.2057 -0.1685 -0.1591
  559BOLB   PO213406  19.959   8.813  14.235  0.0073 -0.0895 -0.0166
  559BOLB   GL313407  19.665   8.569  14.530 -0.0789  0.0166 -0.0315
  559BOLB   GL413408  19.449   8.827  14.541  0.0340  0.0383 -0.1518
  559BOLB   C1C13409  19.613   8.615  14.959  0.0916 -0.0219 -0.0486
  559BOLB   C2C13410  19.375   8.492  15.247 -0.2235  0.1743 -0.2204
  559BOLB   C3C13411  19.204   8.180  15.483  0.2819  0.1370 -0.3623
  559BOLB   C4C13412  19.125   8.110  15.919  0.1976  0.0976 -0.3137
  559BOLB   C1D13413  19.023   8.629  14.409  0.0736 -0.0941  0.2574
  559BOLB   C2D13414  18.667   8.515  14.589 -0.1135 -0.2455 -0.2692
  559BOLB   C3D13415  18.379   8.614  14.970 -0.3258 -0.1429 -0.0406
  559BOLB   C4D13416  18.237   8.393  15.341  0.3995  0.0797 -0.0735
  560BOLB   NC113417  21.968  -0.716   9.959  0.1953  0.0041 -0.0388
  560BOLB   PO113418  21.786  -0.612  10.209  0.1344 -0.2584  0.0270
  560BOLB   GL113419  21.769  -0.570  10.634  0.2860  0.2269  0.3182
  560BOLB   GL213420  21.844  -0.220  10.649  0.1016  0.1334  0.2776
  560BOLB   C1A13421  21.428  -0.676  10.944  0.0624 -0.0789  0.0038
  560BOLB   C2A13422  21.146  -0.713  11.290 -0.1317 -0.2306 -0.1755
  560BOLB   C3A13423  20.636  -0.722  11.511  0.0266  0.0130  0.1461
  560BOLB   C4A13424  20.253  -0.615  11.655  0.6058  0.1685 -0.1196
  560BOLB   C1B13425  21.689  -0.243  11.051 -0.1263 -0.1069  0.0960
  560BOLB   C2B13426  21.404  -0.276  11.443  0.0929 -0.2504  0.3006
  560BOLB   C3B13427  21.310  -0.057  11.754  0.0220  0.0301 -0.0473
  560BOLB   C4B13428  21.297  -0.102  12.145 -0.0478 -0.0559 -0.2463
  560BOLB   NC213429  21.210  -0.641   9.505  0.2411  0.1247  0.0025
  560BOLB   PO213430  21.285  -0.720   9.975  0.0607  0.1592 -0.3420
  560BOLB   GL313431  20.974  -0.645  10.198 -0.0706 -0.1790  0.4161
  560BOLB   GL413432  20.895  -0.299  10.183  0.1076 -0.1770 -0.1414
  560BOLB   C1C13433  20.675  -0.763  10.279 -0.0767  0.3236 -0.0584
  560BOLB   C2C13434  20.434  -0.673  10.629  0.4645 -0.3969  0.2252
  560BOLB   C3C13435  19.997  -0.508  10.809  0.2179  0.1022  0.0219
  560BOLB   C4C13436  19.977  -0.416  11.250  0.0986 -0.3079 -0.0291
  560BOLB   C1D13437  20.906  -0.384  10.616  0.2724 -0.0902  0.0692
  560BOLB   C2D13438  21.079  -0.307  11.067  0.0641  0.3315  0.2788
  560BOLB   C3D13439  20.878  -0.359  11.390  0.2686 -0.0664 -0.3372
  560BOLB   C4D13440  21.094  -0.536  11.851  0.2584  0.3119 -0.0130
  561BOLB   NC113441  17.089   5.055  16.914 -0.0467  0.0804  0.1963
  561BOLB   PO113442  16.964   5.145  16.488  0.1100 -0.1951 -0.0838
  561BOLB   GL113443  16.895   4.769  16.098  0.2724 -0.1043 -0.2657
  561BOLB   GL213444  16.793   5.049  15.873  0.1075 -0.1906  0.0461
  561BOLB   C1A13445  17.135   4.661  15.706 -0.1671  0.0292 -0.2648
  561BOLB   C2A13446  17.084   4.628  15.247 -0.2227  0.1784 -0.1536
  561BOLB   C3A13447  17.217   4.759  14.873 -0.4067 -0.2074  0.0523
  561BOLB   C4A13448  17.436   4.861  14.596  0.0131  0.0139  0.0088
  561BOLB   C1B13449  16.945   5.069  15.495  0.1894 -0.0410 -0.1539
  561BOLB   C2B13450  16.906   5.136  15.153 -0.1676  0.2426 -0.1385
  561BOLB   C3B13451  16.864   5.091  14.712 -0.0517 -0.2278 -0.1744
  561BOLB   C4B13452  16.881   4.975  14.270  0.0020 -0.0124 -0.0622
  561BOLB   NC213453  17.552   5.493  12.445  0.0978 -0.0488 -0.2532
  561BOLB   PO213454  17.979   5.396  12.361  0.1663  0.0110  0.3135
  561BOLB   GL313455  17.938   5.545  12.842  0.2805  0.1461 -0.1963
  561BOLB   GL413456  18.014   5.886  12.872 -0.0615  0.4690  0.2171
  561BOLB   C1C13457  17.990   5.369  13.231  0.2446  0.2192 -0.0533
  561BOLB   C2C13458  17.826   5.464  13.636 -0.1710  0.0679  0.1407
  561BOLB   C3C13459  17.567   5.345  14.070  0.3330 -0.0715  0.0378
  561BOLB   C4C13460  17.717   5.190  14.488  0.1726 -0.0406  0.1241
  561BOLB   C1D13461  18.381   5.895  13.173  0.1046 -0.0148 -0.1862
  561BOLB   C2D13462  18.168   5.878  13.550  0.3231  0.1277 -0.3641
  561BOLB   C3D13463  17.978   5.783  14.097 -0.1686  0.1714  0.1589
  561BOLB   C4D13464  17.758   6.087  14.245 -0.0434  0.0562  0.0492
  562BOLB   NC113465   4.095   8.371  26.500  0.1870 -0.0575 -0.2590
  562BOLB   PO113466   3.981   8.126  26.871  0.1688  0.2177  0.0858
  562BOLB   GL113467   4.398   7.906  26.873  0.0533 -0.0684 -0.2006
  562BOLB   GL213468   4.443   7.900  26.437  0.0828 -0.1341 -0.1795
  562BOLB   C1A13469   4.685   7.910  27.143 -0.1881 -0.3571 -0.2191
  562BOLB   C2A13470   5.006   8.055  27.459  0.1060  0.1556  0.2124
  562BOLB   C3A13471   5.432   7.980  27.766 -0.2731  0.0063 -0.0066
  562BOLB   C4A13472   5.807   8.121  27.953  0.1804 -0.0118  0.1439
  562BOLB   C1B13473   4.717   8.240  26.285  0.0506 -0.2082 -0.1388
  562BOLB   C2B13474   5.022   8.595  26.486  0.0330 -0.0113  0.0034
  562BOLB   C3B13475   5.380   8.546  26.675 -0.1624  0.2065 -0.0606
  562BOLB   C4B13476   5.723   8.464  26.901 -0.1456  0.0846 -0.1135
  562BOLB   NC213477   4.364   9.042  29.228  0.1825 -0.4867  0.1121
  562BOLB   PO213478   4.260   8.835  28.868  0.0385 -0.0106 -0.3201
  562BOLB   GL313479   4.661   8.715  28.901  0.3020 -0.2991  0.1107
  562BOLB   GL413480   4.779   8.804  29.078 -0.0903 -0.1465 -0.1576
  562BOLB   C1C13481   5.184   8.675  28.842 -0.2260 -0.1163 -0.0064
  562BOLB   C2C13482   5.653   8.612  28.898 -0.4089  0.1150 -0.2611
  562BOLB   C3C13483   5.966   8.455  28.674 -0.1169  0.0724 -0.1971
  562BOLB   C4C13484   6.017   8.272  28.357  0.1354 -0.0997 -0.1937
  562BOLB   C1D13485   5.020   8.479  29.265 -0.3621 -0.0929 -0.0366
  562BOLB   C2D13486   5.520   8.387  29.271 -0.0318  0.0569 -0.1707
  562BOLB   C3D13487   5.828   8.183  29.211 -0.1504  0.0031 -0.0568
  562BOLB   C4D13488   6.032   7.842  29.120  0.3463  0.1303  0.0079
  563BOLB   NC113489  20.806  -4.719   9.913  0.0049 -0.3309  0.4519
  563BOLB   PO113490  20.658  -5.064  10.154  0.1326 -0.0875  0.0204
  563BOLB   GL113491  20.688  -4.679  10.483  0.0425  0.0091 -0.0044
  563BOLB   GL213492  20.813  -4.454  10.320 -0.0666 -0.2280  0.4924
  563BOLB   C1A13493  20.447  -4.422  10.721 -0.1673 -0.0076  0.1948
  563BOLB   C2A13494  20.262  -4.301  11.078 -0.0140  0.1711  0.0533
  563BOLB   C3A13495  20.185  -4.243  11.505  0.3380  0.0164  0.0176
  563BOLB   C4A13496  20.309  -4.571  11.831 -0.1190  0.0087  0.3306
  563BOLB   C1B13497  21.086  -4.369  10.670  0.2171  0.0912  0.2360
  563BOLB   C2B13498  21.159  -4.256  11.036 -0.1417 -0.0587  0.1851
  563BOLB   C3B13499  21.189  -4.231  11.397  0.1065 -0.2347 -0.2667
  563BOLB   C4B13500  21.247  -4.229  11.775 -0.3407 -0.0263 -0.1331
  563BOLB   NC213501  21.242  -6.541  10.859 -0.0267  0.1096 -0.2919
  563BOLB   PO213502  20.931  -6.283  10.742 -0.5613  0.0192 -0.3008
  563BOLB   GL313503  21.227  -6.121  11.092 -0.0821  0.0183  0.3230
  563BOLB   GL413504  21.501  -6.000  11.109  0.2009  0.3272  0.1786
  563BOLB   C1C13505  21.137  -5.942  11.527 -0.3967  0.0772 -0.0077
  563BOLB   C2C13506  20.710  -5.807  11.581  0.1234  0.2912 -0.2313
  563BOLB   C3C13507  20.489  -5.401  11.777  0.1890  0.1818 -0.1848
  563BOLB   C4C13508  20.353  -4.996  11.917  0.0755 -0.3429  0.0091
  563BOLB   C1D13509  21.443  -5.582  11.315  0.0738 -0.0964  0.0657
  563BOLB   C2D13510  21.375  -5.145  11.598  0.0550  0.2351 -0.1294
  563BOLB   C3D13511  21.222  -5.087  11.987  0.3410  0.0673  0.1144
  563BOLB   C4D13512  20.802  -5.080  12.243  0.4611  0.4439  0.1205
  564BOLB   NC113513  20.407  -2.679  23.225 -0.1028  0.2150 -0.0399
  564BOLB   PO113514  20.567  -2.984  23.066  0.4224 -0.0420  0.0703
  564BOLB   GL113515  20.528  -3.420  22.877 -0.0132  0.0690 -0.0078
  564BOLB   GL213516  20.762  -3.562  22.573 -0.1304 -0.1695  0.1182
  564BOLB   C1A13517  20.627  -3.853  23.053  0.1000  0.0142 -0.1805
  564BOLB   C2A13518  20.989  -4.034  23.280  0.1102  0.0201  0.2416
  564BOLB   C3A13519  21.202  -4.287  23.562 -0.3272 -0.1824  0.0609
  564BOLB   C4A13520  21.402  -4.668  23.577 -0.3901  0.1183 -0.0254
  564BOLB   C1B13521  20.921  -3.868  22.446  0.0221 -0.0061 -0.0774
  564BOLB   C2B13522  21.068  -4.089  22.121 -0.3659  0.1327  0.3039
  564BOLB   C3B13523  20.954  -4.274  21.787 -0.3536  0.1339  0.1837
  564BOLB   C4B13524  20.655  -4.531  21.726 -0.0254 -0.3552 -0.0796
  564BOLB   NC213525  21.353  -7.252  23.755 -0.2142  0.0408 -0.1200
  564BOLB   PO213526  21.705  -7.052  23.844 -0.0936  0.1178 -0.2608
  564BOLB   GL313527  21.467  -6.685  23.786 -0.1730  0.3370  0.1423
  564BOLB   GL413528  21.185  -6.788  23.766  0.0957 -0.0823  0.0529
  564BOLB   C1C13529  21.453  -6.288  23.560  0.1976  0.1565  0.3396
  564BOLB   C2C13530  21.429  -5.849  23.566 -0.0058  0.1240 -0.1328
  564BOLB   C3C13531  21.227  -5.481  23.570  0.0116 -0.1398  0.1868
  564BOLB   C4C13532  21.228  -5.127  23.537 -0.1189 -0.2876  0.0632
  564BOLB   C1D13533  20.941  -6.376  23.607  0.1561  0.2218  0.0171
  564BOLB   C2D13534  20.819  -5.930  23.639  0.0124  0.0702  0.2573
  564BOLB   C3D13535  20.432  -5.645  23.716 -0.2724  0.0573 -0.0681
  564BOLB   C4D13536  20.029  -5.395  23.907  0.0032 -0.0919  0.2019
  565BOLB   NC113537  24.736   4.593  26.570  0.1916  0.2222 -0.2458
  565BOLB   PO113538  24.826   4.651  27.042 -0.2963  0.0228  0.3089
  565BOLB   GL113539  25.248   4.684  27.064  0.1338  0.0576 -0.1057
  565BOLB   GL213540  25.214   4.734  26.754 -0.1293  0.0292 -0.1495
  565BOLB   C1A13541  25.721   4.697  27.432  0.1607  0.2999 -0.1048
  565BOLB   C2A13542  26.222   4.575  27.404 -0.0677  0.1851  0.1360
  565BOLB   C3A13543  26.471   4.357  27.019 -0.0598  0.3053 -0.2700
  565BOLB   C4A13544  26.705   3.961  27.075 -0.2013 -0.2904 -0.1026
  565BOLB   C1B13545  25.675   4.847  26.922 -0.1130 -0.1671  0.0375
  565BOLB   C2B13546  26.017   4.698  26.982  0.1787  0.1987 -0.0430
  565BOLB   C3B13547  26.336   4.769  26.811  0.0863  0.0472 -0.1951
  565BOLB   C4B13548  26.456   5.089  26.509 -0.0462 -0.0531 -0.2722
  565BOLB   NC213549  29.507   4.349  27.668  0.0936 -0.1543 -0.0687
  565BOLB   PO213550  29.150   4.124  27.662 -0.0814  0.0220  0.0113
  565BOLB   GL313551  28.781   3.864  27.465  0.0817  0.0362  0.0529
  565BOLB   GL413552  28.656   4.013  27.206  0.0322  0.2693  0.1273
  565BOLB   C1C13553  28.366   3.649  27.346  0.0656  0.1813  0.4092
  565BOLB   C2C13554  27.912   3.753  27.366 -0.1636  0.2241  0.0424
  565BOLB   C3C13555  27.438   3.717  27.380 -0.2321  0.0340  0.0636
  565BOLB   C4C13556  27.004   3.756  27.367 -0.0642  0.2206  0.2534
  565BOLB   C1D13557  28.224   4.112  27.397 -0.0322 -0.1788 -0.1387
  565BOLB   C2D13558  27.942   4.241  27.690 -0.0553 -0.1802 -0.0266
  565BOLB   C3D13559  27.631   4.363  27.844  0.0011  0.0783 -0.1071
  565BOLB   C4D13560  27.290   4.639  28.169  0.0747 -0.2965  0.1147
  566BOLB   NC113561  15.033  11.756  25.779 -0.0491 -0.0460  0.0503
  566BOLB   PO113562  14.903  12.042  25.642 -0.1484  0.1437  0.0176
  566BOLB   GL113563  14.966  12.470  25.446 -0.0427  0.0678 -0.1681
  566BOLB   GL213564  14.792  12.754  25.573  0.0742  0.3999 -0.1381
  566BOLB   C1A13565  15.128  12.850  25.194 -0.0596 -0.0867 -0.0112
  566BOLB   C2A13566  15.063  13.205  25.292  0.0791 -0.3726 -0.0003
  566BOLB   C3A13567  14.909  13.461  25.627 -0.2930 -0.0795  0.1476
  566BOLB   C4A13568  14.821  13.917  25.554 -0.1276 -0.2467 -0.0998
  566BOLB   C1B13569  14.601  13.060  25.581  0.0831 -0.0406 -0.1591
  566BOLB   C2B13570  14.545  13.337  25.332 -0.0868 -0.1880  0.1141
  566BOLB   C3B13571  14.664  13.626  25.116  0.2845 -0.1943 -0.1032
  566BOLB   C4B13572  14.602  14.080  24.961 -0.0433  0.0116 -0.0537
  566BOLB   NC213573  15.750  16.386  24.562 -0.2223  0.1270  0.2508
  566BOLB   PO213574  15.687  16.280  24.954  0.2285  0.3755 -0.1557
  566BOLB   GL313575  15.692  15.888  25.008  0.0665 -0.3573  0.1254
  566BOLB   GL413576  15.317  15.897  25.206  0.1063  0.1475 -0.0512
  566BOLB   C1C13577  15.587  15.479  25.091 -0.0558  0.2023  0.1244
  566BOLB   C2C13578  15.241  15.146  25.232  0.1276 -0.0121 -0.0301
  566BOLB   C3C13579  15.118  14.692  25.358 -0.1187  0.1486  0.3224
  566BOLB   C4C13580  15.069  14.237  25.310  0.2901 -0.0267  0.1425
  566BOLB   C1D13581  15.590  15.720  25.558  0.1354 -0.0452  0.0098
  566BOLB   C2D13582  15.635  15.288  25.658 -0.2779 -0.3899  0.2161
  566BOLB   C3D13583  15.714  15.008  25.227 -0.2790  0.4707  0.1912
  566BOLB   C4D13584  15.644  15.063  24.797  0.1746 -0.1208 -0.0035
  567BOLB   NC113585  20.088   8.310  31.408  0.0250  0.2111  0.0497
  567BOLB   PO113586  20.498   8.056  31.422 -0.0049 -0.0197 -0.0067
  567BOLB   GL113587  20.627   8.485  31.497 -0.1821  0.2586 -0.2426
  567BOLB   GL213588  20.819   8.709  31.320  0.1115 -0.0848 -0.2127
  567BOLB   C1A13589  20.627   8.676  31.862  0.0694  0.0692 -0.2918
  567BOLB   C2A13590  20.426   8.654  32.267  0.0229  0.3627 -0.5146
  567BOLB   C3A13591  20.625   8.707  32.576  0.0096  0.1781 -0.3139
  567BOLB   C4A13592  20.723   8.995  32.874  0.1055 -0.0818 -0.1283
  567BOLB   C1B13593  20.998   9.077  31.558  0.0436 -0.0590  0.0419
  567BOLB   C2B13594  21.164   9.414  31.846 -0.0171  0.0468  0.0345
  567BOLB   C3B13595  21.282   9.803  32.007  0.2207 -0.1946 -0.0830
  567BOLB   C4B13596  21.560   9.998  32.250  0.3356 -0.0987  0.1820
  567BOLB   NC213597  21.695  10.205  34.867 -0.0804 -0.1919 -0.1742
  567BOLB   PO213598  21.862  10.053  34.509  0.3594 -0.0275  0.0395
  567BOLB   GL313599  21.575  10.184  34.255  0.1799 -0.0492  0.2141
  567BOLB   GL413600  21.178  10.138  34.344 -0.0669  0.0063  0.0880
  567BOLB   C1C13601  21.464   9.865  34.022 -0.2268  0.0400 -0.0135
  567BOLB   C2C13602  21.341   9.444  33.838 -0.2666 -0.2774 -0.0567
  567BOLB   C3C13603  21.393   9.352  33.267  0.1243  0.1736 -0.0949
  567BOLB   C4C13604  21.174   9.194  32.885  0.0394 -0.1185  0.0379
  567BOLB   C1D13605  20.991   9.801  34.049  0.2535  0.0871  0.1643
  567BOLB   C2D13606  20.567   9.702  33.901  0.0520 -0.1905 -0.1607
  567BOLB   C3D13607  20.357   9.545  33.501  0.0875 -0.0656 -0.1096
  567BOLB   C4D13608  20.287   9.663  33.091 -0.0770 -0.2498 -0.4054
  568BOLB   NC113609  23.833   3.141  21.153  0.0349 -0.1667  0.0079
  568BOLB   PO113610  23.702   2.762  21.404  0.1656 -0.1059 -0.1116
  568BOLB   GL113611  24.065   2.724  21.045  0.1407 -0.0562 -0.1140
  568BOLB   GL213612  24.199   2.393  21.112  0.0544 -0.0636  0.2610
  568BOLB   C1A13613  24.479   2.629  20.775  0.1526  0.0540  0.1846
  568BOLB   C2A13614  24.734   2.481  20.512 -0.0770 -0.0399  0.0121
  568BOLB   C3A13615  24.872   2.417  20.142  0.1608 -0.0444  0.0116
  568BOLB   C4A13616  25.216   2.350  20.050  0.1395 -0.0096 -0.0052
  568BOLB   C1B13617  24.559   2.156  20.934  0.1858  0.1117 -0.1913
  568BOLB   C2B13618  24.886   1.863  20.877 -0.0117  0.1124 -0.1929
  568BOLB   C3B13619  25.394   1.815  20.875 -0.0443  0.0011  0.0752
  568BOLB   C4B13620  25.830   1.729  20.679 -0.2312 -0.2855  0.0809
  568BOLB   NC213621  27.309   2.887  18.948 -0.1013 -0.1692  0.0501
  568BOLB   PO213622  27.461   2.715  19.334  0.0013  0.0266 -0.0466
  568BOLB   GL313623  27.148   2.750  19.584 -0.0794 -0.4552  0.2323
  568BOLB   GL413624  27.145   2.971  19.753 -0.0505  0.0097 -0.0526
  568BOLB   C1C13625  26.893   2.622  19.951  0.1085  0.0765 -0.1316
  568BOLB   C2C13626  26.530   2.360  20.036  0.0423 -0.0487  0.3940
  568BOLB   C3C13627  26.081   2.502  20.153  0.0422 -0.2345 -0.2360
  568BOLB   C4C13628  25.546   2.569  20.178 -0.1380  0.0810 -0.1267
  568BOLB   C1D13629  26.701   3.044  19.700 -0.1725 -0.0307 -0.0432
  568BOLB   C2D13630  26.325   3.232  19.709  0.0590  0.2326  0.1409
  568BOLB   C3D13631  25.853   3.137  19.770  0.0587  0.1294  0.0498
  568BOLB   C4D13632  25.421   3.160  19.543  0.0395  0.0429 -0.1007
  569BOLB   NC113633  13.235   4.355  17.606 -0.0852 -0.1863 -0.2682
  569BOLB   PO113634  13.136   4.452  17.138  0.2626  0.2735  0.2001
  569BOLB   GL113635  13.076   4.268  16.806  0.1166 -0.0066  0.1249
  569BOLB   GL213636  13.397   4.047  16.661  0.3885  0.0916  0.1732
  569BOLB   C1A13637  12.917   3.878  16.413  0.1858 -0.0274  0.0193
  569BOLB   C2A13638  12.674   3.816  16.044  0.0715  0.2120 -0.2790
  569BOLB   C3A13639  12.671   3.549  15.605 -0.3624 -0.1160  0.1455
  569BOLB   C4A13640  12.673   3.732  15.195  0.2806  0.0815  0.3143
  569BOLB   C1B13641  13.308   4.153  16.295  0.0958  0.3048  0.0632
  569BOLB   C2B13642  13.162   4.065  15.934 -0.1938  0.0472  0.1566
  569BOLB   C3B13643  13.124   3.919  15.507 -0.2476 -0.0490 -0.0206
  569BOLB   C4B13644  13.032   4.061  15.156  0.2790 -0.2280 -0.0629
  569BOLB   NC213645  10.477   4.137  14.051  0.2454  0.0308  0.2110
  569BOLB   PO213646  10.848   4.078  13.761  0.0415 -0.2831  0.2456
  569BOLB   GL313647  10.920   3.790  14.156 -0.1021 -0.1765  0.2824
  569BOLB   GL413648  10.611   3.579  14.285 -0.0750  0.2629  0.2084
  569BOLB   C1C13649  11.208   3.572  14.461  0.2326 -0.0918  0.0600
  569BOLB   C2C13650  11.596   3.655  14.641  0.0632 -0.0732 -0.0691
  569BOLB   C3C13651  12.027   3.713  14.624  0.0053  0.1739 -0.0427
  569BOLB   C4C13652  12.366   3.888  14.825  0.1643  0.0708  0.1583
  569BOLB   C1D13653  10.779   3.685  14.719  0.0030  0.0120 -0.1403
  569BOLB   C2D13654  11.076   3.519  14.999  0.0505  0.0165 -0.0841
  569BOLB   C3D13655  11.482   3.613  15.226  0.2380 -0.0323 -0.0215
  569BOLB   C4D13656  11.750   3.639  15.542 -0.1908  0.0584  0.2305
  570BOLB   NC113657  13.390  10.744  22.496  0.0928  0.0288  0.0137
  570BOLB   PO113658  13.082  11.043  22.524  0.0503 -0.1119 -0.1708
  570BOLB   GL113659  12.969  11.341  22.494 -0.1406 -0.2690  0.3560
  570BOLB   GL213660  12.844  11.518  22.800  0.0113  0.3432 -0.2240
  570BOLB   C1A13661  12.949  11.599  22.232 -0.1601  0.1367  0.3534
  570BOLB   C2A13662  12.870  11.677  21.802  0.1141  0.5312  0.3113
  570BOLB   C3A13663  12.772  11.951  21.517 -0.0526 -0.1738 -0.1160
  570BOLB   C4A13664  12.800  12.410  21.368  0.2688 -0.0059  0.0719
  570BOLB   C1B13665  12.605  11.731  22.647  0.0901  0.3410  0.2457
  570BOLB   C2B13666  12.276  11.935  22.706 -0.0031  0.3233 -0.0896
  570BOLB   C3B13667  12.011  12.333  22.656 -0.2842 -0.1155  0.0468
  570BOLB   C4B13668  11.777  12.586  22.319  0.1011  0.2512  0.0064
  570BOLB   NC213669  12.087  14.420  20.213  0.3253 -0.1353  0.3857
  570BOLB   PO213670  11.855  14.095  19.942  0.2435  0.1235  0.2242
  570BOLB   GL313671  12.058  13.952  20.359 -0.3494 -0.0781  0.1354
  570BOLB   GL413672  12.052  13.574  20.343 -0.2704  0.2279  0.0912
  570BOLB   C1C13673  12.310  13.868  20.666 -0.1964 -0.0166  0.0829
  570BOLB   C2C13674  12.390  13.479  20.877  0.0967 -0.2086 -0.0318
  570BOLB   C3C13675  12.414  13.177  21.128 -0.0235  0.0004 -0.0595
  570BOLB   C4C13676  12.578  12.825  21.242  0.0291  0.0001  0.0665
  570BOLB   C1D13677  12.135  13.167  20.304 -0.0027 -0.0044  0.1753
  570BOLB   C2D13678  12.181  12.774  20.481  0.0572  0.0142  0.2124
  570BOLB   C3D13679  12.297  12.492  20.765  0.0698 -0.0649  0.0226
  570BOLB   C4D13680  12.188  12.462  21.206  0.0406  0.0753 -0.2482
  571BOLB   NC113681  23.283   7.320  22.831 -0.0264 -0.1755 -0.2216
  571BOLB   PO113682  23.330   7.344  23.297  0.1763  0.0107  0.2335
  571BOLB   GL113683  23.734   7.502  23.353  0.2559 -0.2512  0.1858
  571BOLB   GL213684  23.718   7.853  23.473 -0.2438 -0.2459  0.1846
  571BOLB   C1A13685  24.128   7.586  23.294  0.2308  0.2138 -0.0860
  571BOLB   C2A13686  24.340   7.894  23.160  0.2366  0.0187  0.3734
  571BOLB   C3A13687  24.610   8.084  23.115  0.4855  0.1202 -0.0380
  571BOLB   C4A13688  24.989   8.276  22.919 -0.0749 -0.1072 -0.2460
  571BOLB   C1B13689  23.856   8.108  23.142  0.2511  0.0251 -0.0040
  571BOLB   C2B13690  24.115   8.158  22.757 -0.1418  0.0588 -0.0757
  571BOLB   C3B13691  24.538   8.342  22.574  0.2156  0.2100 -0.3540
  571BOLB   C4B13692  24.835   8.451  22.376  0.0662 -0.0016  0.1762
  571BOLB   NC213693  26.198  10.219  21.910  0.0049  0.1639  0.0098
  571BOLB   PO213694  26.513  10.225  22.114  0.1435  0.1239 -0.0537
  571BOLB   GL313695  26.299  10.123  22.474  0.2444  0.2072  0.0748
  571BOLB   GL413696  26.488   9.968  22.716 -0.0421 -0.3431  0.2592
  571BOLB   C1C13697  25.890   9.818  22.669 -0.0905  0.0614  0.0100
  571BOLB   C2C13698  25.728   9.447  22.661  0.1716  0.0987  0.0650
  571BOLB   C3C13699  25.497   9.008  22.587  0.1694 -0.0551  0.3106
  571BOLB   C4C13700  25.149   8.681  22.678 -0.0978 -0.3558  0.0192
  571BOLB   C1D13701  26.374   9.784  22.994 -0.0871 -0.1159 -0.3368
  571BOLB   C2D13702  26.086   9.386  23.015  0.0714 -0.1064 -0.6042
  571BOLB   C3D13703  25.902   9.013  23.189  0.3173 -0.1276 -0.1687
  571BOLB   C4D13704  25.496   8.894  23.108  0.4141 -0.0778  0.0796
  572BOLB   NC113705  17.578   3.450  16.210 -0.0615  0.0025 -0.1362
  572BOLB   PO113706  17.737   3.087  16.447  0.1465  0.2106  0.3303
  572BOLB   GL113707  17.741   3.054  15.955  0.0575  0.0456  0.0555
  572BOLB   GL213708  17.645   3.236  15.773 -0.3719 -0.0954 -0.2860
  572BOLB   C1A13709  17.718   2.712  15.647 -0.2649  0.0663 -0.2609
  572BOLB   C2A13710  17.786   2.908  15.272 -0.1854 -0.2249 -0.1868
  572BOLB   C3A13711  18.053   3.128  14.925  0.0221  0.0010  0.0029
  572BOLB   C4A13712  18.438   3.462  14.717  0.1193 -0.2513 -0.2233
  572BOLB   C1B13713  17.424   3.274  15.421 -0.2677 -0.0108 -0.0914
  572BOLB   C2B13714  17.593   3.434  15.074 -0.1430  0.0011  0.2060
  572BOLB   C3B13715  17.636   3.408  14.638 -0.0176  0.4365 -0.1132
  572BOLB   C4B13716  17.489   3.152  14.328  0.1083  0.0537  0.1911
  572BOLB   NC213717  17.878   4.499  12.411 -0.1373  0.1186  0.1623
  572BOLB   PO213718  18.245   4.166  12.425 -0.2145 -0.1799  0.1808
  572BOLB   GL313719  18.249   4.164  12.849  0.0935  0.2505  0.1704
  572BOLB   GL413720  18.481   3.865  12.824  0.0175 -0.0802  0.1088
  572BOLB   C1C13721  18.107   3.867  13.108 -0.1886  0.1120 -0.2538
  572BOLB   C2C13722  18.185   3.645  13.469 -0.0414 -0.5248  0.3288
  572BOLB   C3C13723  18.238   3.612  13.897  0.2841  0.1179 -0.3393
  572BOLB   C4C13724  18.328   3.578  14.277  0.0018 -0.1978  0.1053
  572BOLB   C1D13725  18.553   4.031  13.250  0.0913  0.0245  0.0343
  572BOLB   C2D13726  18.302   4.308  13.436 -0.0743 -0.0442  0.0932
  572BOLB   C3D13727  17.995   4.454  13.240 -0.1312 -0.1778  0.1615
  572BOLB   C4D13728  17.774   4.698  12.949 -0.3105  0.3309 -0.0992
  573BOLB   NC113729  23.680   3.352  20.725  0.0334 -0.3086 -0.0114
  573BOLB   PO113730  24.008   3.474  20.872  0.1738 -0.1031  0.1958
  573BOLB   GL113731  24.299   3.567  20.578  0.0837  0.0905 -0.1520
  573BOLB   GL213732  23.931   3.681  20.376 -0.2538 -0.0103 -0.1293
  573BOLB   C1A13733  24.577   3.364  20.362 -0.0298  0.1820 -0.2735
  573BOLB   C2A13734  24.780   2.997  20.542  0.2483 -0.0805 -0.3396
  573BOLB   C3A13735  25.152   2.769  20.500  0.2195 -0.0089  0.0042
  573BOLB   C4A13736  25.595   2.778  20.622 -0.0675 -0.0133 -0.1776
  573BOLB   C1B13737  23.917   3.698  19.886 -0.2652 -0.0959  0.0231
  573BOLB   C2B13738  24.291   3.852  19.651 -0.4646 -0.0277 -0.1150
  573BOLB   C3B13739  24.417   4.122  19.381  0.0317  0.4042 -0.0499
  573BOLB   C4B13740  24.695   4.265  19.365 -0.0944  0.0369  0.2368
  573BOLB   NC213741  27.786   3.363  20.354  0.2058  0.0383  0.1478
  573BOLB   PO213742  27.822   3.664  20.729 -0.0801 -0.2127 -0.4635
  573BOLB   GL313743  27.469   3.577  20.680  0.2447  0.1834  0.0904
  573BOLB   GL413744  27.299   3.822  20.626 -0.0991 -0.0856  0.1696
  573BOLB   C1C13745  27.140   3.195  20.598  0.0296  0.1812 -0.0544
  573BOLB   C2C13746  26.734   3.164  20.726 -0.0319  0.1352  0.0221
  573BOLB   C3C13747  26.356   2.926  20.671 -0.0137  0.3879  0.0079
  573BOLB   C4C13748  25.967   2.703  20.579  0.1571  0.1047 -0.0228
  573BOLB   C1D13749  26.863   3.632  20.548  0.0113 -0.1560 -0.1682
  573BOLB   C2D13750  26.548   3.817  20.765 -0.3213  0.2604  0.3679
  573BOLB   C3D13751  26.344   3.483  20.965 -0.1903 -0.0495 -0.1341
  573BOLB   C4D13752  26.008   3.164  20.844  0.2008  0.1141  0.0386
  574BOLB   NC113753  21.125   6.559  19.569  0.1001 -0.1294 -0.0735
  574BOLB   PO113754  21.381   6.782  19.302 -0.1661 -0.2330 -0.1918
  574BOLB   GL113755  21.626   6.869  18.804  0.1941  0.0190 -0.0631
  574BOLB   GL213756  21.910   6.937  18.819 -0.0751 -0.2134  0.0790
  574BOLB   C1A13757  21.661   7.095  18.442  0.2390 -0.1997 -0.2798
  574BOLB   C2A13758  21.812   7.166  18.114  0.1210 -0.0491 -0.0335
  574BOLB   C3A13759  21.951   7.516  17.893  0.2537 -0.3294  0.0259
  574BOLB   C4A13760  21.818   7.750  17.499 -0.1992  0.0407  0.1038
  574BOLB   C1B13761  22.125   7.181  18.712 -0.0877 -0.3605  0.2831
  574BOLB   C2B13762  22.350   7.393  18.325 -0.0454  0.1618 -0.1746
  574BOLB   C3B13763  22.430   7.565  18.082 -0.3456 -0.2945  0.3818
  574BOLB   C4B13764  22.660   7.277  17.812  0.0438  0.2032  0.0439
  574BOLB   NC213765  22.671   9.794  15.662  0.1978  0.2149  0.1490
  574BOLB   PO213766  22.338   9.469  15.740  0.0418 -0.1510 -0.3334
  574BOLB   GL313767  22.117   9.160  16.008  0.2100 -0.0114 -0.0622
  574BOLB   GL413768  21.764   9.001  15.940  0.0794 -0.2603 -0.1087
  574BOLB   C1C13769  21.946   8.816  16.371 -0.0567  0.2408  0.2431
  574BOLB   C2C13770  21.826   8.528  16.724  0.0409 -0.2571  0.2492
  574BOLB   C3C13771  21.694   8.261  17.080 -0.2639 -0.2898 -0.0307
  574BOLB   C4C13772  21.822   7.839  17.087 -0.2956  0.0324  0.4197
  574BOLB   C1D13773  21.531   8.652  16.087  0.0126 -0.0876 -0.0632
  574BOLB   C2D13774  21.347   8.366  16.355  0.1273  0.0592 -0.4690
  574BOLB   C3D13775  21.062   8.201  16.490  0.1813  0.1135  0.3713
  574BOLB   C4D13776  20.903   7.927  16.832 -0.0732 -0.4424  0.3189
  575BOLB   NC113777  22.035   8.778  21.733 -0.2663 -0.1699 -0.2864
  575BOLB   PO113778  21.732   9.112  21.810  0.0795  0.0307  0.0352
  575BOLB   GL113779  21.959   9.420  21.925  0.0160 -0.0389 -0.3384
  575BOLB   GL213780  22.250   9.257  21.838 -0.0265 -0.1920  0.0115
  575BOLB   C1A13781  22.161   9.741  21.706  0.0460 -0.0773  0.1355
  575BOLB   C2A13782  22.406  10.037  21.569 -0.1709 -0.0525 -0.4054
  575BOLB   C3A13783  22.445  10.416  21.343 -0.0153 -0.3082 -0.1224
  575BOLB   C4A13784  22.410  10.862  21.226 -0.0768 -0.3591 -0.1195
  575BOLB   C1B13785  22.519   9.418  21.493 -0.0070 -0.1788  0.0557
  575BOLB   C2B13786  22.761   9.755  21.339 -0.0040  0.0816  0.1615
  575BOLB   C3B13787  23.088  10.041  21.245  0.1389  0.1926 -0.1330
  575BOLB   C4B13788  23.513   9.875  21.153  0.0547 -0.0279 -0.3737
  575BOLB   NC213789  23.398  12.719  19.913 -0.4398  0.1228 -0.2526
  575BOLB   PO213790  23.278  12.876  20.110 -0.2286 -0.1204  0.2334
  575BOLB   GL313791  23.207  12.596  20.450 -0.1705 -0.0059  0.1321
  575BOLB   GL413792  23.072  12.364  20.295  0.0080  0.2907  0.1125
  575BOLB   C1C13793  23.119  12.297  20.879  0.1467  0.1999 -0.1768
  575BOLB   C2C13794  23.020  11.882  20.986  0.0741  0.2007  0.0047
  575BOLB   C3C13795  22.609  11.705  21.008  0.1842  0.0708  0.0406
  575BOLB   C4C13796  22.519  11.248  21.174  0.1860 -0.3352  0.3152
  575BOLB   C1D13797  23.140  12.068  20.434 -0.0810  0.1309 -0.1475
  575BOLB   C2D13798  23.396  11.787  20.536  0.0820 -0.0635  0.4560
  575BOLB   C3D13799  23.381  11.373  20.371  0.0388 -0.2244  0.2548
  575BOLB   C4D13800  23.266  10.973  20.131  0.0946 -0.1724  0.2050
  576BOLB   NC113801   9.546  -0.988  22.325  0.3106  0.3527 -0.0157
  576BOLB   PO113802   9.382  -1.397  22.215  0.0116  0.0941 -0.2132
  576BOLB   GL113803   9.027  -1.500  22.116 -0.0284  0.0033  0.0940
  576BOLB   GL213804   8.687  -1.539  22.211 -0.0300 -0.1006 -0.0069
  576BOLB   C1A13805   8.765  -1.685  21.756 -0.0151 -0.0224  0.2476
  576BOLB   C2A13806   8.427  -1.914  21.618 -0.2266  0.1070 -0.2564
  576BOLB   C3A13807   8.072  -2.020  21.332 -0.0031 -0.0792 -0.1396
  576BOLB   C4A13808   7.594  -1.977  21.454 -0.6005 -0.1957 -0.0312
  576BOLB   C1B13809   8.220  -1.792  22.185  0.0739 -0.0453  0.0843
  576BOLB   C2B13810   7.922  -1.791  21.808 -0.0514 -0.0187  0.0889
  576BOLB   C3B13811   7.669  -1.463  21.747 -0.1025  0.0196  0.1110
  576BOLB   C4B13812   7.390  -1.662  21.757 -0.0341  0.1254 -0.1098
  576BOLB   NC213813   5.831  -3.768  20.468  0.2381 -0.0295  0.0451
  576BOLB   PO213814   5.844  -3.457  20.717 -0.3469 -0.1901 -0.2556
  576BOLB   GL313815   5.893  -3.080  20.599 -0.3111  0.0306  0.0068
  576BOLB   GL413816   6.211  -2.919  20.411 -0.0145 -0.2316 -0.4437
  576BOLB   C1C13817   6.077  -2.675  20.833 -0.2106 -0.1074  0.1917
  576BOLB   C2C13818   6.479  -2.420  20.885 -0.0732 -0.1648 -0.0073
  576BOLB   C3C13819   6.785  -2.112  21.028  0.0447  0.2236 -0.0594
  576BOLB   C4C13820   7.138  -1.993  21.340  0.1809 -0.0314 -0.1742
  576BOLB   C1D13821   6.557  -2.864  20.691 -0.1263 -0.3749  0.0944
  576BOLB   C2D13822   6.964  -2.782  20.830  0.1692 -0.2325 -0.1096
  576BOLB   C3D13823   7.227  -2.436  20.973 -0.2394 -0.1073  0.3156
  576BOLB   C4D13824   7.701  -2.437  21.059 -0.2970  0.1884  0.2099
  577BOLB   NC113825  24.046   2.660  12.910 -0.2094 -0.0751 -0.2171
  577BOLB   PO113826  23.687   2.747  12.835 -0.1745 -0.2449 -0.2347
  577BOLB   GL113827  23.570   2.430  12.951  0.0739  0.0931  0.0047
  577BOLB   GL213828  23.470   2.207  12.686 -0.3588  0.2135 -0.0880
  577BOLB   C1A13829  23.612   2.069  13.254 -0.1561  0.1702 -0.1344
  577BOLB   C2A13830  23.504   1.730  13.280  0.1638  0.3508  0.2041
  577BOLB   C3A13831  23.384   1.405  13.597 -0.2960 -0.2000 -0.0357
  577BOLB   C4A13832  23.550   1.072  13.754 -0.0058  0.0291  0.0683
  577BOLB   C1B13833  23.167   2.039  13.027  0.2170  0.0501 -0.0410
  577BOLB   C2B13834  22.826   1.850  13.330 -0.3511  0.1759  0.2083
  577BOLB   C3B13835  22.609   1.620  13.619 -0.0914  0.0544  0.3040
  577BOLB   C4B13836  22.607   1.560  13.990 -0.0731 -0.0389  0.0839
  577BOLB   NC213837  25.596   1.839  13.159 -0.1080 -0.2776 -0.1225
  577BOLB   PO213838  25.167   1.736  13.238 -0.0856  0.1690  0.1395
  577BOLB   GL313839  24.932   1.353  13.292 -0.2262  0.0806  0.0734
  577BOLB   GL413840  24.646   1.295  13.100 -0.1684 -0.2649 -0.1976
  577BOLB   C1C13841  24.723   1.124  13.589 -0.2117 -0.0660 -0.0034
  577BOLB   C2C13842  24.565   0.880  13.887 -0.3347 -0.4278 -0.0713
  577BOLB   C3C13843  24.245   0.828  14.216 -0.0722 -0.0335  0.4778
  577BOLB   C4C13844  23.768   0.963  14.158 -0.1468 -0.0688 -0.1344
  577BOLB   C1D13845  24.299   1.138  13.299 -0.0232  0.0342 -0.1392
  577BOLB   C2D13846  24.054   0.890  13.705  0.0679 -0.0158  0.0242
  577BOLB   C3D13847  23.928   0.593  13.863 -0.3500 -0.3280  0.1767
  577BOLB   C4D13848  23.749   0.468  14.289 -0.3089  0.2401 -0.0261
  578BOLB   NC113849   8.500   8.729  24.048 -0.1518  0.0693  0.0691
  578BOLB   PO113850   8.343   8.931  24.421  0.0994 -0.3305 -0.0424
  578BOLB   GL113851   7.892   8.878  24.413 -0.1585 -0.0753 -0.3158
  578BOLB   GL213852   7.859   8.652  24.188 -0.2284 -0.0391  0.0144
  578BOLB   C1A13853   7.527   9.050  24.586  0.2014 -0.4417  0.0350
  578BOLB   C2A13854   7.123   9.210  24.375 -0.0257  0.1461  0.2538
  578BOLB   C3A13855   6.929   9.232  23.924  0.1439 -0.0811 -0.0062
  578BOLB   C4A13856   6.570   9.242  23.663 -0.0078  0.1092 -0.1787
  578BOLB   C1B13857   7.535   8.849  24.073  0.1672 -0.0070 -0.0373
  578BOLB   C2B13858   7.367   8.910  23.766 -0.1283  0.0307 -0.3082
  578BOLB   C3B13859   7.216   8.717  23.435 -0.0299 -0.0568  0.1182
  578BOLB   C4B13860   7.119   8.612  23.023 -0.1471  0.0352 -0.1327
  578BOLB   NC213861   4.799  10.447  23.661 -0.3219  0.1408 -0.1684
  578BOLB   PO213862   4.855  10.772  23.362 -0.1232  0.2149  0.2574
  578BOLB   GL313863   5.199  10.564  23.428  0.0639 -0.4213 -0.0090
  578BOLB   GL413864   5.310  10.391  23.688  0.0514 -0.1918  0.4379
  578BOLB   C1C13865   5.555  10.283  23.248  0.2377 -0.2408  0.2550
  578BOLB   C2C13866   5.759   9.842  23.252  0.5414  0.0648 -0.0709
  578BOLB   C3C13867   5.937   9.486  23.433 -0.2602 -0.2737 -0.3024
  578BOLB   C4C13868   6.120   9.266  23.666  0.1729 -0.1573  0.2195
  578BOLB   C1D13869   5.460  10.228  24.108  0.0086 -0.1430  0.1493
  578BOLB   C2D13870   5.446   9.820  24.214 -0.1681 -0.0409 -0.0712
  578BOLB   C3D13871   5.151   9.417  24.343 -0.1518 -0.3188 -0.0170
  578BOLB   C4D13872   4.932   9.059  24.395  0.2643 -0.0129  0.2264
  579BOLB   NC113873   9.259   9.768  26.137 -0.1854 -0.2238 -0.0324
  579BOLB   PO113874   9.483  10.090  26.006 -0.1460 -0.2839 -0.3319
  579BOLB   GL113875   9.148  10.450  25.814 -0.0079 -0.0067 -0.3537
  579BOLB   GL213876   8.989  10.228  26.045  0.2079 -0.0553 -0.0507
  579BOLB   C1A13877   8.812  10.726  25.661 -0.2158  0.1661  0.2929
  579BOLB   C2A13878   8.537  11.092  25.596 -0.0499 -0.1319 -0.2531
  579BOLB   C3A13879   8.320  11.385  25.270 -0.0302  0.0403 -0.0325
  579BOLB   C4A13880   7.944  11.647  25.187 -0.2149  0.7291 -0.0362
  579BOLB   C1B13881   8.569  10.427  26.043  0.1140  0.1611  0.0603
  579BOLB   C2B13882   8.311  10.687  25.804  0.0513 -0.3467 -0.1412
  579BOLB   C3B13883   8.028  11.032  25.534  0.0493 -0.0304  0.0080
  579BOLB   C4B13884   7.758  11.391  25.576  0.0842 -0.0565 -0.0505
  579BOLB   NC213885   5.636  12.372  25.327  0.0212 -0.0712 -0.1037
  579BOLB   PO213886   5.761  11.933  25.207  0.1104 -0.1866 -0.2190
  579BOLB   GL313887   6.156  11.889  25.307 -0.1541  0.2953 -0.1196
  579BOLB   GL413888   6.291  11.714  25.088  0.1165 -0.0477  0.1625
  579BOLB   C1C13889   6.598  12.122  25.349  0.1672 -0.3388  0.2033
  579BOLB   C2C13890   6.910  12.456  25.422  0.1268 -0.3040 -0.1799
  579BOLB   C3C13891   7.371  12.415  25.139 -0.0483 -0.0956 -0.1691
  579BOLB   C4C13892   7.689  12.046  25.081  0.3722 -0.2674  0.0914
  579BOLB   C1D13893   6.689  11.638  25.197  0.0762  0.0238  0.0699
  579BOLB   C2D13894   7.071  11.289  25.137  0.1934  0.0696 -0.0472
  579BOLB   C3D13895   7.211  10.849  24.958 -0.2295  0.2771 -0.0646
  579BOLB   C4D13896   7.239  10.419  24.931  0.0658  0.0412  0.2193
  580BOLB   NC113897  13.325  11.549  24.339 -0.1917  0.0282 -0.2788
  580BOLB   PO113898  13.243  11.848  23.919 -0.1290  0.3564  0.1495
  580BOLB   GL113899  13.036  12.214  23.906  0.0556 -0.0282 -0.3035
  580BOLB   GL213900  13.036  12.352  24.230 -0.0893 -0.0351  0.0464
  580BOLB   C1A13901  13.134  12.608  23.831 -0.1535 -0.0159 -0.0952
  580BOLB   C2A13902  12.877  12.916  23.830 -0.1058 -0.1699  0.0063
  580BOLB   C3A13903  12.471  13.037  23.757 -0.0956 -0.2176 -0.1555
  580BOLB   C4A13904  12.442  13.468  23.966  0.1360 -0.2652 -0.2934
  580BOLB   C1B13905  13.144  12.795  24.352  0.0320 -0.1342 -0.2022
  580BOLB   C2B13906  13.332  13.182  24.451  0.1406 -0.0843  0.1873
  580BOLB   C3B13907  13.515  13.529  24.215  0.2665  0.2463  0.3032
  580BOLB   C4B13908  13.604  13.985  24.164 -0.0536 -0.1329  0.1035
  580BOLB   NC213909  13.045  15.849  23.159  0.2458  0.2023  0.0473
  580BOLB   PO213910  13.391  15.597  23.074  0.0217  0.2035 -0.1913
  580BOLB   GL313911  13.384  15.276  23.347 -0.1007 -0.2027 -0.0918
  580BOLB   GL413912  13.739  15.104  23.397  0.1496  0.0590  0.4457
  580BOLB   C1C13913  13.079  14.909  23.475 -0.1957 -0.1714 -0.1440
  580BOLB   C2C13914  12.856  14.552  23.658 -0.0237  0.0641  0.1079
  580BOLB   C3C13915  12.710  14.326  23.834 -0.2862  0.4319 -0.1230
  580BOLB   C4C13916  12.672  13.936  24.103  0.1070 -0.1166  0.0073
  580BOLB   C1D13917  14.047  14.921  23.723 -0.1135  0.3515 -0.0678
  580BOLB   C2D13918  14.379  14.563  23.676 -0.1404  0.0953 -0.0460
  580BOLB   C3D13919  14.672  14.172  23.725  0.2914 -0.2336 -0.0525
  580BOLB   C4D13920  14.829  13.766  23.909 -0.0837 -0.0201  0.4558
  581BOLB   NC113921  12.188  11.941  26.455 -0.1842 -0.0837  0.5889
  581BOLB   PO113922  11.763  11.843  26.716  0.2541 -0.3471  0.2150
  581BOLB   GL113923  11.625  12.202  26.516  0.1601  0.0631  0.1812
  581BOLB   GL213924  11.836  12.338  26.450  0.3261 -0.0361  0.0122
  581BOLB   C1A13925  11.265  12.556  26.398 -0.2941  0.2933  0.0402
  581BOLB   C2A13926  11.170  13.026  26.240 -0.1830 -0.0393 -0.4969
  581BOLB   C3A13927  11.350  13.456  26.415 -0.1390 -0.1376 -0.0164
  581BOLB   C4A13928  11.305  13.885  26.598  0.0646 -0.4259 -0.1393
  581BOLB   C1B13929  11.846  12.658  26.256  0.3825 -0.1069  0.2427
  581BOLB   C2B13930  11.760  13.085  26.296 -0.2177  0.0975  0.1450
  581BOLB   C3B13931  11.693  13.386  26.041  0.3070 -0.2028 -0.0731
  581BOLB   C4B13932  11.616  13.803  26.137  0.1437 -0.1588 -0.1402
  581BOLB   NC213933   9.779  16.020  26.091 -0.2698 -0.4234  0.2351
  581BOLB   PO213934  10.128  15.932  26.510  0.0778  0.1906  0.1430
  581BOLB   GL313935  10.300  15.513  26.601  0.0005 -0.2741  0.2741
  581BOLB   GL413936  10.389  15.669  26.913 -0.0556 -0.1929 -0.0184
  581BOLB   C1C13937  10.496  15.169  26.639  0.1724  0.2544 -0.2186
  581BOLB   C2C13938  10.774  14.936  26.387  0.0166 -0.0943  0.2711
  581BOLB   C3C13939  11.075  14.644  26.555  0.2530 -0.1222  0.2747
  581BOLB   C4C13940  11.233  14.289  26.705  0.1914 -0.0846  0.1290
  581BOLB   C1D13941  10.859  15.605  26.933  0.5054 -0.1079  0.2257
  581BOLB   C2D13942  11.150  15.325  26.698  0.1186  0.2180 -0.1072
  581BOLB   C3D13943  11.419  15.005  26.488 -0.1682  0.0750 -0.1400
  581BOLB   C4D13944  11.691  14.794  26.317 -0.2495  0.2778  0.2278
  582BOLB   NC113945   7.149   3.351  26.608 -0.1071 -0.1788 -0.0005
  582BOLB   PO113946   7.089   3.767  26.751  0.0386  0.1547 -0.0348
  582BOLB   GL113947   6.846   3.852  26.943 -0.1613 -0.0413 -0.0974
  582BOLB   GL213948   6.581   3.979  26.753 -0.0720 -0.0537  0.0777
  582BOLB   C1A13949   6.562   3.879  27.210  0.0710  0.2139 -0.1540
  582BOLB   C2A13950   6.059   3.767  27.222 -0.0587 -0.3476 -0.0425
  582BOLB   C3A13951   5.562   3.585  27.372 -0.1593  0.0517  0.0848
  582BOLB   C4A13952   5.103   3.629  27.335  0.0534 -0.0363  0.1557
  582BOLB   C1B13953   6.246   3.653  26.709 -0.0985 -0.0055  0.1241
  582BOLB   C2B13954   5.903   3.513  26.797  0.0440 -0.0156  0.0524
  582BOLB   C3B13955   5.588   3.475  26.548  0.0441 -0.3131 -0.4390
  582BOLB   C4B13956   5.321   3.509  26.263 -0.1659 -0.4151  0.0364
  582BOLB   NC213957   2.923   3.290  27.732  0.2232  0.0956 -0.0120
  582BOLB   PO213958   3.049   3.074  28.080 -0.0541  0.2155 -0.0276
  582BOLB   GL313959   3.395   3.177  27.950  0.2224 -0.0822  0.0395
  582BOLB   GL413960   3.396   3.469  27.872  0.1662 -0.0153  0.1702
  582BOLB   C1C13961   3.502   3.145  27.476  0.0492  0.0572  0.1602
  582BOLB   C2C13962   3.909   3.115  27.400 -0.0145  0.3531  0.2595
  582BOLB   C3C13963   4.351   3.167  27.122  0.0002 -0.1684  0.1238
  582BOLB   C4C13964   4.681   3.425  27.095 -0.1514 -0.0293  0.0799
  582BOLB   C1D13965   3.843   3.344  27.904  0.3396 -0.0156 -0.2050
  582BOLB   C2D13966   4.253   3.118  27.683 -0.2254 -0.3757  0.1426
  582BOLB   C3D13967   4.699   3.035  27.482  0.0133  0.2033  0.3100
  582BOLB   C4D13968   4.928   2.874  27.128 -0.0211 -0.0151  0.0806
  583BOLB   NC113969  17.667  -4.650  21.406 -0.0111 -0.2552 -0.1829
  583BOLB   PO113970  17.922  -4.422  21.180  0.4105 -0.0563 -0.0701
  583BOLB   GL113971  18.055  -4.784  21.085  0.1490 -0.1976 -0.1802
  583BOLB   GL213972  18.016  -5.030  21.320  0.0350 -0.2763  0.1958
  583BOLB   C1A13973  18.051  -5.040  20.719 -0.1790 -0.3449 -0.0231
  583BOLB   C2A13974  17.978  -5.490  20.510  0.2566  0.1273 -0.1772
  583BOLB   C3A13975  18.213  -5.894  20.347 -0.5736 -0.0766 -0.0263
  583BOLB   C4A13976  18.198  -6.203  20.122  0.0036 -0.0896  0.0101
  583BOLB   C1B13977  18.234  -5.429  21.114 -0.1709 -0.1720 -0.1443
  583BOLB   C2B13978  18.262  -5.778  20.836  0.2479 -0.1252 -0.1036
  583BOLB   C3B13979  18.578  -6.037  20.746 -0.0540 -0.0637  0.3355
  583BOLB   C4B13980  19.066  -6.266  20.716  0.0328 -0.0927  0.0892
  583BOLB   NC213981  16.857  -8.484  19.717  0.0371  0.0470 -0.1505
  583BOLB   PO213982  17.119  -8.354  19.477  0.0334  0.1413 -0.0059
  583BOLB   GL313983  17.208  -7.944  19.547  0.0623 -0.2138  0.2144
  583BOLB   GL413984  16.895  -7.732  19.698  0.2618  0.0702  0.1535
  583BOLB   C1C13985  17.530  -7.552  19.493  0.2691  0.0640  0.1536
  583BOLB   C2C13986  17.780  -7.240  19.555 -0.2042  0.0647 -0.1691
  583BOLB   C3C13987  17.943  -6.914  19.829 -0.0515 -0.3700  0.4688
  583BOLB   C4C13988  18.193  -6.643  20.141  0.1727  0.0819  0.2341
  583BOLB   C1D13989  16.938  -7.270  19.618  0.1191  0.0554  0.0261
  583BOLB   C2D13990  16.861  -6.897  19.411 -0.2185 -0.1538 -0.3083
  583BOLB   C3D13991  16.960  -6.533  19.384  0.1803 -0.1117 -0.1451
  583BOLB   C4D13992  17.338  -6.300  19.512 -0.2008  0.1283 -0.1386
  584BOLB   NC113993  16.838  -3.562  27.218  0.2791  0.1068  0.2550
  584BOLB   PO113994  16.893  -4.043  27.086 -0.1094 -0.2898 -0.3146
  584BOLB   GL113995  17.191  -4.304  27.192 -0.2641  0.4927  0.1670
  584BOLB   GL213996  17.098  -4.628  27.130 -0.0494  0.2659 -0.0032
  584BOLB   C1A13997  17.372  -4.600  27.554 -0.0589 -0.1100 -0.1851
  584BOLB   C2A13998  17.709  -4.888  27.701  0.0062 -0.0653  0.0109
  584BOLB   C3A13999  18.059  -5.050  27.967 -0.0478 -0.2356  0.4462
  584BOLB   C4A14000  18.286  -5.326  27.868 -0.3168 -0.0371  0.0635
  584BOLB   C1B14001  17.102  -5.120  27.170 -0.0300 -0.1388 -0.3653
  584BOLB   C2B14002  17.195  -5.592  27.250 -0.1943  0.0917  0.0360
  584BOLB   C3B14003  17.566  -5.918  27.394 -0.4031 -0.1364  0.0702
  584BOLB   C4B14004  17.978  -5.834  27.268 -0.0555  0.0545 -0.1158
  584BOLB   NC214005  19.033  -7.227  27.945  0.1005  0.2666  0.3574
  584BOLB   PO214006  18.957  -7.586  27.587 -0.1463 -0.0165  0.3152
  584BOLB   GL314007  19.019  -7.173  27.368 -0.3212  0.2162  0.2731
  584BOLB   GL414008  19.006  -7.253  27.059 -0.0316 -0.4881  0.0544
  584BOLB   C1C14009  18.848  -6.792  27.482 -0.0121  0.0720  0.0161
  584BOLB   C2C14010  18.969  -6.408  27.774  0.1941  0.0807 -0.1332
  584BOLB   C3C14011  18.996  -5.905  27.867 -0.0416  0.2056  0.3042
  584BOLB   C4C14012  18.747  -5.485  27.754 -0.3445 -0.1236  0.3661
  584BOLB   C1D14013  18.789  -7.171  26.618  0.1237  0.1159 -0.0715
  584BOLB   C2D14014  18.530  -6.804  26.565 -0.0706 -0.0479 -0.1679
  584BOLB   C3D14015  18.247  -6.511  26.433  0.1174 -0.0846 -0.3241
  584BOLB   C4D14016  17.955  -6.276  26.487 -0.1869  0.0943  0.1404
  585BOLB   NC114017  14.700  10.808  22.533  0.0934 -0.1839 -0.0278
  585BOLB   PO114018  14.578  10.831  22.032  0.3515  0.1365 -0.2224
  585BOLB   GL114019  14.415  11.186  21.848  0.0045 -0.0579  0.1846
  585BOLB   GL214020  14.697  11.323  21.790 -0.0741 -0.1060  0.0583
  585BOLB   C1A14021  14.172  11.433  21.558  0.0502  0.0900 -0.0075
  585BOLB   C2A14022  13.932  11.869  21.553 -0.0361  0.1014 -0.2605
  585BOLB   C3A14023  13.905  12.256  21.487  0.0364  0.0627 -0.2703
  585BOLB   C4A14024  13.978  12.545  21.235  0.0213  0.0811  0.1346
  585BOLB   C1B14025  14.602  11.716  21.587  0.0539 -0.2853 -0.1126
  585BOLB   C2B14026  14.827  12.102  21.382  0.0450  0.1678  0.0553
  585BOLB   C3B14027  14.824  12.463  21.099  0.1797 -0.3846  0.1255
  585BOLB   C4B14028  14.722  12.234  20.663 -0.2065  0.2836  0.1273
  585BOLB   NC214029  12.982  14.652  20.084 -0.1512 -0.1850 -0.1626
  585BOLB   PO214030  13.352  14.865  20.369  0.4995  0.3024 -0.0630
  585BOLB   GL314031  13.459  14.476  20.591 -0.0813  0.2289  0.1955
  585BOLB   GL414032  13.182  14.357  20.868  0.2481  0.0271 -0.2040
  585BOLB   C1C14033  13.614  14.061  20.790 -0.3194 -0.3797  0.0586
  585BOLB   C2C14034  13.642  13.740  21.055  0.2084 -0.2769 -0.4199
  585BOLB   C3C14035  13.839  13.318  21.109  0.1641  0.1052  0.0185
  585BOLB   C4C14036  13.937  12.970  21.222 -0.2271 -0.2450  0.1222
  585BOLB   C1D14037  13.158  13.970  20.965  0.3750 -0.1925  0.0224
  585BOLB   C2D14038  13.098  13.689  21.199 -0.1508  0.0652  0.3341
  585BOLB   C3D14039  13.085  13.440  21.629 -0.1233 -0.2400 -0.4835
  585BOLB   C4D14040  12.989  13.250  22.046  0.1271 -0.1233 -0.0706
  586BOLB   NC114041  22.792   9.302  26.899  0.1891 -0.3746 -0.3028
  586BOLB   PO114042  22.900   9.389  26.443 -0.3520 -0.1772 -0.0837
  586BOLB   GL114043  23.291   9.581  26.273 -0.0275 -0.2661  0.1693
  586BOLB   GL214044  23.185   9.679  25.960  0.0784  0.1133  0.5245
  586BOLB   C1A14045  23.658   9.697  26.508 -0.1020  0.2064 -0.2535
  586BOLB   C2A14046  24.013   9.590  26.795  0.2059 -0.0341  0.0982
  586BOLB   C3A14047  24.449   9.568  26.873 -0.0579 -0.1037 -0.1363
  586BOLB   C4A14048  24.871   9.554  26.615  0.2026  0.2588 -0.0285
  586BOLB   C1B14049  23.344  10.035  25.871  0.2962  0.1355  0.0106
  586BOLB   C2B14050  23.611  10.387  25.935 -0.0114  0.0674 -0.0252
  586BOLB   C3B14051  23.569  10.770  25.774  0.0506 -0.0420  0.2475
  586BOLB   C4B14052  23.942  11.112  25.616  0.0664  0.1240  0.0853
  586BOLB   NC214053  27.149  10.811  26.660  0.1317 -0.0545  0.1678
  586BOLB   PO214054  26.891  10.833  26.481  0.6159  0.1589 -0.0633
  586BOLB   GL314055  26.604  10.498  26.392 -0.1297 -0.1338  0.1329
  586BOLB   GL414056  26.487  10.296  26.640  0.1342 -0.1307 -0.0750
  586BOLB   C1C14057  26.351  10.184  26.184 -0.2012 -0.0775  0.0119
  586BOLB   C2C14058  25.934   9.982  26.152  0.3419  0.2244 -0.0447
  586BOLB   C3C14059  25.458   9.884  26.116 -0.0016 -0.1749  0.0982
  586BOLB   C4C14060  25.224   9.714  26.309  0.1387 -0.1945 -0.3013
  586BOLB   C1D14061  26.476   9.798  26.565 -0.1410 -0.1153 -0.0998
  586BOLB   C2D14062  26.354   9.349  26.456  0.2554 -0.0522 -0.0212
  586BOLB   C3D14063  26.008   9.259  26.228 -0.1384 -0.1261  0.2009
  586BOLB   C4D14064  25.802   9.516  26.097 -0.1182  0.0588 -0.2600
  587BOLB   NC114065  10.219  10.063  29.386  0.0149  0.1913  0.4563
  587BOLB   PO114066  10.053  10.048  29.897 -0.2500 -0.2103 -0.1307
  587BOLB   GL114067   9.984  10.073  30.301 -0.1347 -0.0939  0.1964
  587BOLB   GL214068   9.663  10.244  30.239 -0.0847  0.2685 -0.1884
  587BOLB   C1A14069  10.094  10.157  30.739 -0.3381 -0.0054  0.0957
  587BOLB   C2A14070  10.276  10.489  30.909  0.0025 -0.1383  0.0355
  587BOLB   C3A14071  10.094  10.759  31.295  0.1758 -0.1325  0.4393
  587BOLB   C4A14072  10.133  11.142  31.454 -0.0315 -0.0043  0.1099
  587BOLB   C1B14073   9.790  10.541  30.520  0.0743  0.1344 -0.0656
  587BOLB   C2B14074   9.698  10.669  30.946  0.1797 -0.2140 -0.2593
  587BOLB   C3B14075   9.427  10.963  31.125  0.1417  0.2111  0.2010
  587BOLB   C4B14076   9.594  11.285  31.437  0.0091  0.2846  0.1379
  587BOLB   NC214077   9.377  13.062  33.025 -0.2406  0.5048  0.1874
  587BOLB   PO214078   9.730  12.807  33.091 -0.0081 -0.0717 -0.0618
  587BOLB   GL314079  10.049  12.435  33.072 -0.2125 -0.1541  0.0352
  587BOLB   GL414080   9.885  12.164  33.146  0.0928 -0.0042 -0.0644
  587BOLB   C1C14081  10.122  12.155  32.624 -0.0206 -0.0974 -0.0160
  587BOLB   C2C14082  10.310  12.063  32.247  0.0377 -0.4204 -0.0218
  587BOLB   C3C14083  10.202  11.910  31.798  0.0979 -0.2094  0.2338
  587BOLB   C4C14084  10.182  11.615  31.474  0.1476 -0.0992  0.0465
  587BOLB   C1D14085   9.945  11.732  33.091  0.0926 -0.1413  0.1750
  587BOLB   C2D14086  10.144  11.601  32.718  0.0649  0.0732  0.0771
  587BOLB   C3D14087  10.102  11.579  32.251 -0.3905  0.0145  0.0837
  587BOLB   C4D14088  10.379  11.489  31.923  0.1071  0.0238 -0.0216
  588BOLB   NC114089   9.319  -2.041  23.470 -0.0841 -0.2346 -0.2184
  588BOLB   PO114090   8.885  -1.958  23.546  0.0157  0.0687 -0.0639
  588BOLB   GL114091   8.407  -1.958  23.475  0.0031  0.2126 -0.1089
  588BOLB   GL214092   8.345  -1.748  23.304 -0.4733  0.0293  0.3022
  588BOLB   C1A14093   7.908  -2.031  23.518 -0.1980 -0.1388  0.2079
  588BOLB   C2A14094   7.475  -2.175  23.438  0.0146 -0.1093  0.3190
  588BOLB   C3A14095   7.081  -2.089  23.727  0.2201  0.0090  0.1590
  588BOLB   C4A14096   6.664  -2.148  23.510 -0.0837  0.2360 -0.1010
  588BOLB   C1B14097   8.141  -1.909  22.993 -0.2846 -0.2293 -0.2305
  588BOLB   C2B14098   7.882  -2.251  23.067  0.0078 -0.1686 -0.0059
  588BOLB   C3B14099   7.920  -2.639  23.370  0.1064  0.1152 -0.2233
  588BOLB   C4B14100   8.160  -2.850  23.583 -0.0624 -0.0350  0.1110
  588BOLB   NC214101   4.404  -2.935  23.572 -0.0732 -0.1610  0.0384
  588BOLB   PO214102   4.554  -3.174  23.215  0.2757  0.1788  0.0235
  588BOLB   GL314103   4.910  -2.796  23.281 -0.2130 -0.1071 -0.1318
  588BOLB   GL414104   5.113  -2.779  23.607  0.1351 -0.2585 -0.0803
  588BOLB   C1C14105   5.303  -2.711  23.152  0.1196 -0.2369 -0.0603
  588BOLB   C2C14106   5.706  -2.720  23.256 -0.0928  0.0806  0.2058
  588BOLB   C3C14107   6.110  -2.685  23.400 -0.2110  0.2027  0.0575
  588BOLB   C4C14108   6.598  -2.573  23.476 -0.1366 -0.0891  0.1504
  588BOLB   C1D14109   5.373  -2.784  23.953  0.2820  0.2626  0.2452
  588BOLB   C2D14110   5.553  -2.530  24.172  0.4165 -0.0597  0.0714
  588BOLB   C3D14111   5.682  -2.200  24.035 -0.4721 -0.0297  0.0949
  588BOLB   C4D14112   5.958  -1.882  23.843  0.0290  0.3992  0.0563
  589BOLB   NC114113  18.679  -4.061  24.431 -0.1465 -0.2028  0.2690
  589BOLB   PO114114  18.573  -3.954  23.994  0.2360  0.1233 -0.0058
  589BOLB   GL114115  18.696  -4.362  23.981  0.0118  0.0760 -0.4994
  589BOLB   GL214116  18.531  -4.591  24.334  0.2495 -0.1700 -0.2796
  589BOLB   C1A14117  18.895  -4.828  24.025  0.3674  0.0749 -0.0747
  589BOLB   C2A14118  19.141  -5.199  24.213  0.0664  0.2272 -0.0082
  589BOLB   C3A14119  19.353  -5.367  24.664  0.1636  0.2018  0.0369
  589BOLB   C4A14120  19.696  -5.287  25.084 -0.2020  0.2097 -0.2293
  589BOLB   C1B14121  18.359  -4.832  24.785 -0.1418 -0.1730 -0.1283
  589BOLB   C2B14122  18.410  -5.195  25.021  0.1188 -0.1919  0.1301
  589BOLB   C3B14123  18.506  -5.521  25.200  0.0784 -0.4960 -0.2746
  589BOLB   C4B14124  18.690  -5.934  25.370  0.3572  0.1356 -0.0430
  589BOLB   NC214125  20.839  -6.978  26.722 -0.1486  0.0385 -0.2361
  589BOLB   PO214126  20.845  -7.034  26.386 -0.0150  0.0668  0.2778
  589BOLB   GL314127  20.629  -6.893  26.043 -0.1535 -0.2562 -0.3038
  589BOLB   GL414128  20.440  -7.087  25.987 -0.1670 -0.0639  0.2694
  589BOLB   C1C14129  20.449  -6.656  25.705 -0.3818 -0.1733  0.3185
  589BOLB   C2C14130  20.369  -6.237  25.504 -0.1024 -0.4514 -0.2051
  589BOLB   C3C14131  20.163  -5.844  25.419 -0.0356  0.2395  0.1491
  589BOLB   C4C14132  19.963  -5.493  25.417 -0.1673 -0.2082 -0.0504
  589BOLB   C1D14133  20.092  -6.912  26.008  0.1615  0.0186  0.0869
  589BOLB   C2D14134  19.805  -6.748  25.839  0.0274 -0.0978 -0.1298
  589BOLB   C3D14135  19.549  -6.753  25.454 -0.2911 -0.2283 -0.0125
  589BOLB   C4D14136  19.606  -6.711  25.013 -0.0019 -0.0513 -0.1197
  590BOLB   NC114137  20.190  11.346  26.047 -0.4356 -0.0651 -0.0146
  590BOLB   PO114138  20.643  11.133  26.256 -0.1965 -0.0876  0.0235
  590BOLB   GL114139  20.978  11.475  26.347 -0.1555 -0.0549 -0.0786
  590BOLB   GL214140  21.294  11.450  26.569  0.2616  0.3473  0.0999
  590BOLB   C1A14141  21.193  11.756  26.056  0.4493  0.1116 -0.1932
  590BOLB   C2A14142  21.281  12.192  26.045 -0.0577  0.1464  0.1333
  590BOLB   C3A14143  21.278  12.624  25.998  0.0455  0.0062 -0.1662
  590BOLB   C4A14144  21.191  12.957  25.983 -0.0605  0.1054 -0.0260
  590BOLB   C1B14145  21.496  11.841  26.631  0.0303  0.0167  0.3983
  590BOLB   C2B14146  21.616  12.110  26.414  0.3086 -0.2140 -0.0753
  590BOLB   C3B14147  21.921  12.328  26.084 -0.0144  0.1513 -0.0111
  590BOLB   C4B14148  22.259  12.558  25.964  0.2340  0.0744 -0.1295
  590BOLB   NC214149  22.258  14.775  23.983  0.0387  0.0325  0.0522
  590BOLB   PO214150  22.018  14.626  24.363  0.1223  0.0431 -0.0552
  590BOLB   GL314151  21.782  14.350  24.545  0.0302  0.2296  0.1006
  590BOLB   GL414152  21.999  14.338  24.760 -0.0857  0.1292 -0.2780
  590BOLB   C1C14153  21.622  13.897  24.786 -0.1956 -0.0145  0.2523
  590BOLB   C2C14154  21.588  13.648  25.000  0.2034  0.0781 -0.0008
  590BOLB   C3C14155  21.474  13.410  25.349  0.3054  0.1179 -0.1656
  590BOLB   C4C14156  21.409  13.075  25.657  0.0156  0.0988 -0.0333
  590BOLB   C1D14157  21.983  13.994  25.190  0.1136  0.1663  0.1599
  590BOLB   C2D14158  21.888  13.601  25.487  0.0584  0.2034 -0.0352
  590BOLB   C3D14159  21.905  13.242  25.870 -0.3615  0.0962  0.0091
  590BOLB   C4D14160  21.742  12.875  26.046 -0.1510 -0.0959  0.2479
  591BOLB   NC114161  15.574   5.691  12.547  0.0808 -0.0586 -0.1911
  591BOLB   PO114162  15.495   6.036  12.793 -0.2371 -0.1739  0.3400
  591BOLB   GL114163  15.579   5.756  13.136 -0.0685 -0.2108  0.3625
  591BOLB   GL214164  15.358   5.952  13.333  0.2578 -0.1918 -0.0219
  591BOLB   C1A14165  15.848   5.800  13.525  0.1301  0.0339  0.0337
  591BOLB   C2A14166  16.154   5.717  13.884 -0.4272  0.2914 -0.0154
  591BOLB   C3A14167  16.473   5.574  14.212 -0.2846 -0.3435  0.1665
  591BOLB   C4A14168  16.920   5.485  14.130 -0.1501 -0.2984 -0.2688
  591BOLB   C1B14169  15.421   5.624  13.715  0.1604 -0.0956  0.2460
  591BOLB   C2B14170  15.225   5.296  13.846  0.1604 -0.2412 -0.0762
  591BOLB   C3B14171  15.243   4.996  14.057  0.1848 -0.1110  0.1011
  591BOLB   C4B14172  14.921   4.666  14.162  0.1010  0.0959  0.0941
  591BOLB   NC214173  17.197   4.793  11.812  0.1771 -0.1179  0.0308
  591BOLB   PO214174  17.525   4.568  12.042  0.2403  0.4105  0.0233
  591BOLB   GL314175  17.325   4.645  12.464  0.2673  0.2966  0.2171
  591BOLB   GL414176  17.095   4.873  12.438  0.1995  0.0980 -0.2746
  591BOLB   C1C14177  17.276   4.549  12.864  0.0683  0.3265 -0.1593
  591BOLB   C2C14178  17.330   4.656  13.331 -0.0253 -0.0916  0.0965
  591BOLB   C3C14179  17.100   4.822  13.563 -0.1243 -0.3186 -0.1893
  591BOLB   C4C14180  17.103   5.228  13.865 -0.1538 -0.0804  0.3540
  591BOLB   C1D14181  17.096   5.064  12.782  0.0643 -0.2555  0.1279
  591BOLB   C2D14182  17.443   5.057  13.093 -0.4077 -0.1273  0.1940
  591BOLB   C3D14183  17.575   5.064  13.554  0.1443  0.2023  0.3637
  591BOLB   C4D14184  17.440   4.908  13.903 -0.0908 -0.1550 -0.0479
  592BOLB   NC114185   8.260   8.254  23.359 -0.0134 -0.0684  0.0436
  592BOLB   PO114186   8.027   8.449  23.804 -0.1998  0.0579 -0.1705
  592BOLB   GL114187   7.748   8.301  23.451  0.0270 -0.1314 -0.0145
  592BOLB   GL214188   7.779   8.311  23.124  0.0669 -0.1196  0.0148
  592BOLB   C1A14189   7.298   8.229  23.364 -0.1288 -0.1363 -0.1408
  592BOLB   C2A14190   6.928   8.149  23.067  0.2792  0.2416  0.2440
  592BOLB   C3A14191   6.740   8.079  22.691 -0.1097 -0.2481 -0.1426
  592BOLB   C4A14192   6.531   8.489  22.346  0.3635 -0.0346  0.3167
  592BOLB   C1B14193   7.745   8.408  22.671  0.2230 -0.1355  0.0818
  592BOLB   C2B14194   7.659   8.565  22.266  0.0188  0.1147  0.0356
  592BOLB   C3B14195   7.512   8.883  21.989  0.1704  0.2019  0.2667
  592BOLB   C4B14196   7.268   8.776  21.673 -0.1274  0.1530  0.0631
  592BOLB   NC214197   5.073  10.133  21.642  0.2295 -0.1196 -0.3938
  592BOLB   PO214198   4.889   9.797  21.792  0.1524  0.0261  0.0455
  592BOLB   GL314199   5.113   9.678  22.023 -0.0625 -0.1430 -0.4373
  592BOLB   GL414200   5.290   9.412  21.864 -0.1324 -0.1908  0.2196
  592BOLB   C1C14201   5.456   9.655  22.372 -0.1347 -0.0641 -0.0772
  592BOLB   C2C14202   5.891   9.544  22.456 -0.1319  0.0917 -0.2318
  592BOLB   C3C14203   6.154   9.231  22.163  0.0290 -0.1176 -0.1992
  592BOLB   C4C14204   6.255   8.822  22.187 -0.1566 -0.0968 -0.1646
  592BOLB   C1D14205   5.638   9.299  22.050  0.0530 -0.0177  0.4973
  592BOLB   C2D14206   5.877   8.957  21.873  0.1997 -0.2687 -0.1706
  592BOLB   C3D14207   6.155   8.820  21.521 -0.0161  0.1415  0.2660
  592BOLB   C4D14208   6.462   8.546  21.543 -0.4251  0.0489  0.0860
  593BOLB   NC114209  19.205  -1.154  20.679 -0.0508  0.0410 -0.1369
  593BOLB   PO114210  18.849  -1.437  20.724 -0.2014  0.1753 -0.3524
  593BOLB   GL114211  18.956  -1.726  20.534 -0.0226 -0.0301  0.0745
  593BOLB   GL214212  19.170  -1.566  20.273  0.1532  0.2561  0.3677
  593BOLB   C1A14213  18.738  -1.844  20.130 -0.0279  0.1642 -0.2032
  593BOLB   C2A14214  18.616  -1.881  19.806  0.1817 -0.2338  0.3403
  593BOLB   C3A14215  18.756  -2.149  19.492 -0.1833  0.1473  0.0625
  593BOLB   C4A14216  18.856  -2.398  19.166  0.2486  0.1027  0.1227
  593BOLB   C1B14217  19.270  -1.705  19.913 -0.0428  0.0220  0.0755
  593BOLB   C2B14218  19.334  -1.818  19.425 -0.1980 -0.0134 -0.1059
  593BOLB   C3B14219  19.448  -1.669  18.973  0.1682  0.1809  0.4888
  593BOLB   C4B14220  19.512  -1.529  18.528 -0.1628 -0.3330 -0.1265
  593BOLB   NC214221  17.215  -2.432  20.609  0.1143 -0.0085 -0.1234
  593BOLB   PO214222  17.205  -2.339  20.175  0.1966 -0.0567  0.0278
  593BOLB   GL314223  17.432  -2.359  19.765  0.0455  0.0595  0.1069
  593BOLB   GL414224  17.240  -2.179  19.618 -0.2005  0.0531  0.3194
  593BOLB   C1C14225  17.745  -2.497  19.592 -0.0686  0.0233 -0.2133
  593BOLB   C2C14226  18.048  -2.772  19.500 -0.0623  0.0214 -0.1450
  593BOLB   C3C14227  18.129  -2.681  18.995 -0.1053 -0.1913  0.1585
  593BOLB   C4C14228  18.544  -2.554  18.933 -0.0490 -0.5087  0.1417
  593BOLB   C1D14229  17.456  -2.133  19.259  0.0576 -0.1250  0.0918
  593BOLB   C2D14230  17.608  -1.939  18.846 -0.1104 -0.1523 -0.1773
  593BOLB   C3D14231  17.726  -1.907  18.444 -0.2279  0.0268  0.2928
  593BOLB   C4D14232  17.714  -1.731  18.022 -0.0377 -0.1272  0.2031
  594BOLB   NC114233  10.736  -2.393  27.691 -0.3276 -0.4326  0.1792
  594BOLB   PO114234  10.386  -2.619  27.619 -0.1001 -0.3034  0.0915
  594BOLB   GL114235  10.008  -2.626  27.599  0.1248 -0.1733  0.2421
  594BOLB   GL214236   9.969  -2.963  27.409 -0.1257 -0.2429 -0.0617
  594BOLB   C1A14237   9.766  -2.918  27.883 -0.0446  0.0630  0.0853
  594BOLB   C2A14238   9.552  -3.239  28.152  0.4345 -0.2868 -0.3020
  594BOLB   C3A14239   9.683  -3.215  28.699 -0.2375  0.1528 -0.1380
  594BOLB   C4A14240   9.545  -3.441  29.095  0.0083  0.0780 -0.2676
  594BOLB   C1B14241   9.563  -3.016  27.402 -0.1452  0.2271  0.0013
  594BOLB   C2B14242   9.346  -3.248  27.663 -0.1369  0.1766  0.0408
  594BOLB   C3B14243   9.121  -3.381  27.907  0.1401  0.2323  0.0299
  594BOLB   C4B14244   8.836  -3.632  28.024 -0.1066 -0.0694  0.0018
  594BOLB   NC214245   8.374  -5.516  30.160 -0.1052  0.0170 -0.0026
  594BOLB   PO214246   8.604  -5.185  30.198 -0.2121  0.2088  0.3769
  594BOLB   GL314247   8.842  -4.858  30.045 -0.0517 -0.0048 -0.0313
  594BOLB   GL414248   9.194  -4.940  30.109  0.0992 -0.0404 -0.0032
  594BOLB   C1C14249   9.057  -4.451  30.229  0.0435 -0.0969 -0.1051
  594BOLB   C2C14250   9.156  -3.924  30.106 -0.0673 -0.1818 -0.1280
  594BOLB   C3C14251   9.425  -3.715  29.865 -0.1967 -0.0435  0.1303
  594BOLB   C4C14252   9.551  -3.481  29.526  0.0221  0.3265  0.1598
  594BOLB   C1D14253   9.443  -4.663  29.897 -0.1251 -0.0304  0.2142
  594BOLB   C2D14254   9.450  -4.273  29.727  0.1506 -0.0161 -0.0859
  594BOLB   C3D14255   9.326  -3.914  29.374  0.1785 -0.0351  0.2702
  594BOLB   C4D14256   9.124  -3.832  28.952 -0.1441 -0.1457  0.1985
  595BOLB   NC114257  13.074  -0.789  17.373  0.1426 -0.3111 -0.0087
  595BOLB   PO114258  13.225  -1.214  17.599 -0.2111 -0.0029 -0.1479
  595BOLB   GL114259  12.908  -1.286  17.342  0.1205  0.0530  0.0983
  595BOLB   GL214260  12.889  -1.169  16.997 -0.1283  0.0432 -0.2366
  595BOLB   C1A14261  12.469  -1.496  17.095 -0.2146 -0.0050  0.2046
  595BOLB   C2A14262  12.313  -1.620  16.826  0.3736 -0.2549  0.0961
  595BOLB   C3A14263  12.274  -1.584  16.418 -0.1561  0.1545 -0.0691
  595BOLB   C4A14264  11.927  -1.415  16.277 -0.0035  0.0003  0.0177
  595BOLB   C1B14265  12.785  -1.213  16.541 -0.1662  0.0067  0.1242
  595BOLB   C2B14266  12.936  -1.165  16.098  0.0865  0.1255  0.1308
  595BOLB   C3B14267  13.323  -1.220  15.897  0.0207  0.1638  0.1600
  595BOLB   C4B14268  13.597  -1.203  15.742  0.0976 -0.2727  0.0612
  595BOLB   NC214269  10.836  -2.829  14.894 -0.0572  0.0474 -0.0326
  595BOLB   PO214270  10.835  -3.081  15.241  0.1990  0.0516 -0.2451
  595BOLB   GL314271  11.111  -2.807  15.471  0.1757 -0.0494 -0.2878
  595BOLB   GL414272  11.205  -2.859  15.792  0.0225  0.0143  0.1379
  595BOLB   C1C14273  11.360  -2.484  15.495  0.2200 -0.1460 -0.2854
  595BOLB   C2C14274  11.607  -2.186  15.614  0.2972 -0.1050 -0.3234
  595BOLB   C3C14275  11.595  -1.757  15.633  0.1470 -0.1095  0.0215
  595BOLB   C4C14276  11.625  -1.529  16.017 -0.1733  0.0818 -0.0953
  595BOLB   C1D14277  10.920  -2.650  15.942  0.2524 -0.1822  0.0457
  595BOLB   C2D14278  10.901  -2.185  16.125  0.0958  0.0377 -0.0558
  595BOLB   C3D14279  10.833  -1.779  16.247 -0.1598 -0.0815  0.1240
  595BOLB   C4D14280  10.543  -1.517  16.347  0.0656  0.1962  0.1514
  596BOLB   NC114281  23.946   5.443  28.920  0.0221 -0.3408 -0.0217
  596BOLB   PO114282  23.949   5.403  29.324 -0.0439 -0.4748  0.0528
  596BOLB   GL114283  24.371   5.583  29.221 -0.0235  0.0227 -0.0345
  596BOLB   GL214284  24.455   5.312  29.278  0.0850 -0.0983  0.0865
  596BOLB   C1A14285  24.740   5.748  29.319  0.1042  0.2566 -0.2068
  596BOLB   C2A14286  25.014   5.979  29.607  0.1442  0.0228  0.0807
  596BOLB   C3A14287  25.249   6.422  29.626  0.2552 -0.0269 -0.2047
  596BOLB   C4A14288  25.494   6.697  29.973  0.3275 -0.2055  0.1714
  596BOLB   C1B14289  24.872   5.149  29.215 -0.0331 -0.1036  0.4097
  596BOLB   C2B14290  25.201   4.833  29.051  0.2098  0.0455 -0.0540
  596BOLB   C3B14291  25.592   4.775  29.112 -0.2814 -0.0860 -0.0799
  596BOLB   C4B14292  25.899   4.785  29.389 -0.1223  0.2181 -0.0719
  596BOLB   NC214293  27.303   7.414  31.309  0.0128  0.4949 -0.1157
  596BOLB   PO214294  27.062   7.679  31.372 -0.3090  0.1495 -0.1912
  596BOLB   GL314295  26.759   7.287  31.204 -0.1361 -0.0143  0.0683
  596BOLB   GL414296  26.752   7.132  31.379  0.0565  0.1437  0.1328
  596BOLB   C1C14297  26.239   7.209  31.001  0.2218  0.1792  0.1628
  596BOLB   C2C14298  25.796   7.219  30.894 -0.2304 -0.0430  0.0294
  596BOLB   C3C14299  25.548   6.904  30.704 -0.2998  0.0732  0.0925
  596BOLB   C4C14300  25.617   6.739  30.286  0.0440  0.0384  0.0149
  596BOLB   C1D14301  26.373   7.011  31.580 -0.2368 -0.0858 -0.2474
  596BOLB   C2D14302  25.989   7.022  31.549  0.0768  0.1012 -0.0302
  596BOLB   C3D14303  25.732   7.121  31.360  0.2180  0.0228  0.1659
  596BOLB   C4D14304  25.401   6.957  31.182  0.2629  0.1746  0.1944
  597BOLB   NC114305  23.771   4.802  28.334  0.0148 -0.0088 -0.0778
  597BOLB   PO114306  24.248   4.870  28.375 -0.0646  0.1620 -0.3131
  597BOLB   GL114307  24.743   5.041  28.479  0.0377 -0.0218  0.1422
  597BOLB   GL214308  24.988   4.814  28.463 -0.0970  0.0927 -0.1842
  597BOLB   C1A14309  25.047   5.204  28.770  0.1236 -0.0590 -0.1501
  597BOLB   C2A14310  25.566   5.234  28.828 -0.2743  0.1855  0.1699
  597BOLB   C3A14311  25.943   5.133  29.054  0.0394 -0.2002 -0.2264
  597BOLB   C4A14312  26.346   4.983  29.285 -0.0797  0.0754  0.3689
  597BOLB   C1B14313  25.353   4.883  28.559  0.2188  0.0771 -0.0816
  597BOLB   C2B14314  25.763   4.838  28.616  0.3841  0.3241 -0.0561
  597BOLB   C3B14315  26.035   4.672  28.860 -0.3314  0.0128 -0.0080
  597BOLB   C4B14316  26.266   4.256  28.872  0.0238 -0.1045 -0.0840
  597BOLB   NC214317  28.566   6.182  30.496 -0.3731 -0.0649  0.2083
  597BOLB   PO214318  28.150   6.324  30.334 -0.1889 -0.0051  0.1585
  597BOLB   GL314319  27.806   6.173  30.328 -0.3713  0.0373  0.0329
  597BOLB   GL414320  27.534   6.265  30.566  0.0780  0.3257  0.1553
  597BOLB   C1C14321  27.582   5.895  30.115  0.0793  0.0618  0.2674
  597BOLB   C2C14322  27.176   5.728  30.052  0.2704  0.0080 -0.0260
  597BOLB   C3C14323  26.867   5.549  29.751  0.2367 -0.0562 -0.1377
  597BOLB   C4C14324  26.767   5.215  29.442  0.0636 -0.0001  0.4093
  597BOLB   C1D14325  27.166   5.970  30.552 -0.0493 -0.1705  0.0889
  597BOLB   C2D14326  26.816   5.856  30.346  0.3465 -0.0812  0.3514
  597BOLB   C3D14327  26.522   5.724  30.203 -0.1248  0.4371  0.3380
  597BOLB   C4D14328  26.173   5.564  29.914  0.1591 -0.1929  0.0348
  598BOLB   NC114329  18.720   7.037  18.609  0.0294  0.2302  0.2480
  598BOLB   PO114330  19.039   7.166  18.245  0.0920  0.1084  0.3303
  598BOLB   GL114331  19.052   7.580  18.157  0.0595 -0.2617  0.0408
  598BOLB   GL214332  19.394   7.676  18.049  0.1384 -0.2100 -0.1969
  598BOLB   C1A14333  19.002   8.003  17.897  0.2868  0.0481  0.1196
  598BOLB   C2A14334  18.859   8.179  17.512 -0.0169 -0.0701  0.1335
  598BOLB   C3A14335  19.054   8.334  17.088 -0.2919 -0.2231  0.1908
  598BOLB   C4A14336  19.177   8.427  16.702  0.2699 -0.3694  0.2285
  598BOLB   C1B14337  19.762   7.670  17.817  0.0553 -0.1758  0.0227
  598BOLB   C2B14338  19.775   7.644  17.352  0.3321 -0.0638 -0.0450
  598BOLB   C3B14339  20.028   7.502  16.998  0.0270 -0.0481 -0.2245
  598BOLB   C4B14340  20.281   7.384  16.865 -0.1274  0.0985  0.3816
  598BOLB   NC214341  21.061   8.971  14.626  0.0279 -0.1813 -0.1958
  598BOLB   PO214342  20.637   8.974  14.679 -0.3054 -0.1225 -0.0377
  598BOLB   GL314343  20.193   8.912  14.792  0.0515  0.0778 -0.0603
  598BOLB   GL414344  19.872   9.016  14.785 -0.0519 -0.0165 -0.0994
  598BOLB   C1C14345  20.016   8.792  15.195  0.0466 -0.2258  0.0991
  598BOLB   C2C14346  19.767   8.899  15.516  0.0600 -0.0214 -0.0733
  598BOLB   C3C14347  19.491   8.849  15.968  0.2135 -0.0856  0.2366
  598BOLB   C4C14348  19.443   8.536  16.250 -0.0298  0.0670 -0.0492
  598BOLB   C1D14349  19.732   9.305  15.134 -0.0781 -0.0147 -0.1120
  598BOLB   C2D14350  19.431   9.404  15.454 -0.1171 -0.0469  0.0757
  598BOLB   C3D14351  19.135   9.305  15.820 -0.0724  0.1470  0.1828
  598BOLB   C4D14352  18.998   9.170  16.214  0.2707  0.1034 -0.2400
  599BOLB   NC114353  22.671   8.172  29.900  0.0584  0.0184 -0.1135
  599BOLB   PO114354  22.169   8.172  30.038 -0.1836 -0.0354  0.0394
  599BOLB   GL114355  22.433   8.406  30.319 -0.4548  0.1099 -0.0661
  599BOLB   GL214356  22.193   8.529  30.500 -0.0285 -0.1268  0.1098
  599BOLB   C1A14357  22.712   8.494  30.691 -0.4770  0.1509  0.2203
  599BOLB   C2A14358  22.921   8.586  31.043 -0.1632 -0.0383  0.3955
  599BOLB   C3A14359  22.966   8.976  31.162 -0.2406 -0.2262 -0.2099
  599BOLB   C4A14360  23.341   9.160  31.119 -0.1037  0.2066 -0.1273
  599BOLB   C1B14361  22.426   8.796  30.900  0.1156 -0.1391 -0.2637
  599BOLB   C2B14362  22.420   8.987  31.115  0.0827 -0.1100  0.0711
  599BOLB   C3B14363  22.631   9.171  31.451  0.2345  0.1077  0.0383
  599BOLB   C4B14364  22.588   9.409  31.796 -0.1050 -0.2182 -0.1276
  599BOLB   NC214365  24.271  10.961  32.478 -0.0427  0.3435  0.1861
  599BOLB   PO214366  24.638  10.921  32.210  0.1717  0.1055  0.2905
  599BOLB   GL314367  24.356  10.727  31.958  0.0697 -0.3056  0.1095
  599BOLB   GL414368  23.925  10.750  31.973  0.1157 -0.2357  0.3630
  599BOLB   C1C14369  24.150  10.512  31.565 -0.2332 -0.1215 -0.1248
  599BOLB   C2C14370  24.101  10.165  31.318 -0.0579  0.0931 -0.0440
  599BOLB   C3C14371  24.072   9.787  31.218  0.0412 -0.0468 -0.0357
  599BOLB   C4C14372  23.811   9.376  31.167  0.3530 -0.1144 -0.3077
  599BOLB   C1D14373  23.946  10.280  31.932 -0.0860 -0.1948  0.0223
  599BOLB   C2D14374  23.622  10.143  31.600 -0.3897  0.0592 -0.0705
  599BOLB   C3D14375  23.161   9.918  31.572  0.2195  0.0311 -0.0703
  599BOLB   C4D14376  23.051   9.477  31.340  0.1961  0.1929 -0.3019
  600BOLB   NC114377   9.727  -2.317  26.964  0.0259  0.3098 -0.0140
  600BOLB   PO114378  10.088  -2.540  27.110  0.0586 -0.0553  0.2319
  600BOLB   GL114379   9.798  -2.821  26.880 -0.1254  0.3119  0.0119
  600BOLB   GL214380   9.758  -2.842  26.577  0.4571 -0.4326  0.0611
  600BOLB   C1A14381   9.792  -3.298  26.959  0.2594  0.0926  0.0718
  600BOLB   C2A14382   9.797  -3.696  27.252  0.1330  0.0079  0.2607
  600BOLB   C3A14383   9.914  -3.950  27.649  0.0721 -0.1394  0.1609
  600BOLB   C4A14384   9.638  -4.131  27.935  0.0242  0.2874 -0.0109
  600BOLB   C1B14385   9.299  -3.007  26.453  0.1794  0.1184 -0.0383
  600BOLB   C2B14386   9.123  -3.368  26.335 -0.2088  0.3061 -0.1610
  600BOLB   C3B14387   8.939  -3.841  26.451 -0.1013 -0.1406  0.1219
  600BOLB   C4B14388   8.467  -4.035  26.333  0.1483 -0.2662  0.1288
  600BOLB   NC214389   8.577  -5.913  29.430 -0.2850  0.1352 -0.1612
  600BOLB   PO214390   9.009  -5.900  29.325  0.2324 -0.0600  0.0339
  600BOLB   GL314391   9.193  -5.449  29.472  0.1410  0.1501 -0.3873
  600BOLB   GL414392   9.304  -5.285  29.699  0.0484  0.1745  0.1017
  600BOLB   C1C14393   9.158  -5.087  29.158  0.1122  0.0616 -0.1745
  600BOLB   C2C14394   9.237  -4.727  28.831 -0.0429  0.1824 -0.0424
  600BOLB   C3C14395   9.130  -4.577  28.519 -0.1895  0.1403  0.0262
  600BOLB   C4C14396   9.361  -4.309  28.173  0.2064 -0.0619 -0.0807
  600BOLB   C1D14397   9.073  -4.895  29.635  0.1725 -0.3526  0.3041
  600BOLB   C2D14398   9.220  -4.574  29.395  0.0814  0.0891 -0.1001
  600BOLB   C3D14399   9.374  -4.284  28.989  0.2603 -0.2271 -0.0361
  600BOLB   C4D14400   9.652  -3.919  28.870  0.0363  0.0661 -0.2174
  601BOLB   NC114401   9.055   3.597  20.562  0.0313 -0.4794  0.2625
  601BOLB   PO114402   8.677   3.814  20.491  0.2361  0.0251 -0.0061
  601BOLB   GL114403   8.422   3.869  20.057  0.0967  0.1747  0.2216
  601BOLB   GL214404   8.488   3.758  19.793  0.0996  0.1169  0.3733
  601BOLB   C1A14405   8.109   4.108  19.845 -0.1258  0.1393 -0.2286
  601BOLB   C2A14406   7.716   4.214  19.699 -0.0961 -0.1911  0.2414
  601BOLB   C3A14407   7.365   4.345  19.349 -0.0866  0.0782  0.2060
  601BOLB   C4A14408   7.002   4.607  19.267 -0.0598 -0.2598  0.0808
  601BOLB   C1B14409   8.130   3.685  19.582  0.3056 -0.1169 -0.0074
  601BOLB   C2B14410   7.968   3.589  19.175 -0.1872  0.0534 -0.5102
  601BOLB   C3B14411   7.580   3.390  19.059  0.3236 -0.0808  0.3874
  601BOLB   C4B14412   7.188   3.119  19.147  0.0630  0.1162  0.0957
  601BOLB   NC214413   5.318   6.058  18.133 -0.2864 -0.0015 -0.0666
  601BOLB   PO214414   5.412   5.828  18.650 -0.1537  0.1837  0.0472
  601BOLB   GL314415   5.736   5.957  18.968 -0.3932  0.1114 -0.0017
  601BOLB   GL414416   5.662   6.247  19.138 -0.2552 -0.0094 -0.0471
  601BOLB   C1C14417   5.849   5.789  19.375  0.0151  0.2678 -0.2415
  601BOLB   C2C14418   6.194   5.491  19.501  0.2480  0.1750 -0.1248
  601BOLB   C3C14419   6.514   5.252  19.345  0.0656 -0.2018 -0.2258
  601BOLB   C4C14420   6.910   5.028  19.375  0.3092 -0.0151  0.1931
  601BOLB   C1D14421   6.024   6.187  19.548  0.1975 -0.0723 -0.1981
  601BOLB   C2D14422   6.196   6.182  19.920 -0.0715  0.0052  0.1069
  601BOLB   C3D14423   6.361   6.095  20.342  0.2571 -0.0165  0.1463
  601BOLB   C4D14424   6.813   6.277  20.609  0.2645  0.4576 -0.1506
  602BOLB   NC114425  14.589  -0.635  31.918  0.1441  0.0057  0.1010
  602BOLB   PO114426  14.931  -0.936  31.876 -0.0759  0.1096  0.0384
  602BOLB   GL114427  14.927  -0.944  32.269 -0.2353 -0.1662 -0.4157
  602BOLB   GL214428  14.788  -1.269  32.345  0.0939 -0.1073  0.1400
  602BOLB   C1A14429  14.697  -0.749  32.597 -0.0237  0.2198 -0.1208
  602BOLB   C2A14430  14.586  -0.835  33.081 -0.0786 -0.1699 -0.1529
  602BOLB   C3A14431  14.565  -0.745  33.439  0.1655  0.0652 -0.1401
  602BOLB   C4A14432  14.750  -0.858  33.875 -0.3691  0.1796 -0.1313
  602BOLB   C1B14433  14.914  -1.621  32.462 -0.2589  0.1089  0.1313
  602BOLB   C2B14434  15.157  -1.910  32.648  0.0557 -0.4287  0.0644
  602BOLB   C3B14435  15.263  -2.025  33.051  0.2538 -0.2432  0.0751
  602BOLB   C4B14436  15.370  -1.998  33.465 -0.0091  0.2715  0.3175
  602BOLB   NC214437  14.233  -2.951  35.214  0.0512  0.2313  0.1104
  602BOLB   PO214438  14.445  -2.530  35.336 -0.0213 -0.0290 -0.0575
  602BOLB   GL314439  14.611  -2.341  35.050  0.0434 -0.5060  0.0013
  602BOLB   GL414440  14.769  -2.128  35.289  0.1125 -0.0319  0.0490
  602BOLB   C1C14441  14.970  -2.088  34.790 -0.4830  0.2007  0.2212
  602BOLB   C2C14442  15.178  -1.834  34.529  0.3107 -0.2376 -0.2018
  602BOLB   C3C14443  14.948  -1.357  34.415 -0.0075 -0.2158  0.3541
  602BOLB   C4C14444  14.800  -1.136  34.105  0.2088 -0.4127 -0.1820
  602BOLB   C1D14445  14.852  -1.678  35.269  0.3668  0.1092  0.1426
  602BOLB   C2D14446  14.953  -1.326  34.899 -0.0472 -0.2049 -0.0095
  602BOLB   C3D14447  15.119  -1.005  34.787  0.0041 -0.0537  0.1469
  602BOLB   C4D14448  14.998  -0.734  34.523  0.1399  0.1751 -0.0338
  603BOLB   NC114449   7.261   7.016  24.356  0.0065 -0.4129  0.0378
  603BOLB   PO114450   7.542   7.222  23.969  0.1084 -0.0521 -0.2220
  603BOLB   GL114451   7.198   7.455  24.007  0.0242 -0.0982  0.0338
  603BOLB   GL214452   6.974   7.384  24.151  0.2254 -0.1058  0.3195
  603BOLB   C1A14453   7.108   7.918  24.009 -0.3294 -0.2028  0.0467
  603BOLB   C2A14454   6.789   8.173  24.123  0.1358 -0.2539 -0.1309
  603BOLB   C3A14455   6.400   8.419  24.189 -0.3202 -0.1307  0.0022
  603BOLB   C4A14456   6.148   8.731  24.368  0.1241  0.0349 -0.3532
  603BOLB   C1B14457   6.555   7.140  24.103 -0.1152 -0.1660  0.0201
  603BOLB   C2B14458   6.232   6.820  23.964  0.0845 -0.4537 -0.0251
  603BOLB   C3B14459   5.921   6.588  23.955  0.1289 -0.0540 -0.1472
  603BOLB   C4B14460   5.648   6.493  23.782  0.1727 -0.2338  0.1869
  603BOLB   NC214461   4.225   9.740  23.460  0.2276 -0.3157  0.0626
  603BOLB   PO214462   4.451   9.769  23.080  0.0048 -0.3676 -0.0489
  603BOLB   GL314463   4.846   9.612  23.059  0.0979 -0.0942  0.2167
  603BOLB   GL414464   4.773   9.462  22.799  0.1445  0.1131  0.0318
  603BOLB   C1C14465   5.288   9.510  23.331 -0.1470  0.1855 -0.1793
  603BOLB   C2C14466   5.441   9.212  23.507 -0.0952  0.3793  0.2666
  603BOLB   C3C14467   5.700   9.071  23.767 -0.0299  0.2754 -0.1451
  603BOLB   C4C14468   5.973   9.075  24.086 -0.2149 -0.1907  0.2218
  603BOLB   C1D14469   5.198   9.254  22.910  0.1586 -0.1028  0.0084
  603BOLB   C2D14470   5.462   9.036  23.057  0.2162 -0.2860 -0.0110
  603BOLB   C3D14471   5.829   9.096  23.196  0.3905 -0.3402 -0.1653
  603BOLB   C4D14472   6.334   9.053  23.099  0.0741  0.0893 -0.5580
  604BOLB   NC114473  17.748   3.557  33.295  0.0694 -0.0229 -0.0776
  604BOLB   PO114474  17.467   3.856  33.409 -0.0656 -0.2701 -0.2645
  604BOLB   GL114475  17.580   3.767  33.771  0.1031 -0.4365  0.0714
  604BOLB   GL214476  17.800   3.644  33.858  0.3751  0.4778 -0.2100
  604BOLB   C1A14477  17.884   3.936  34.209 -0.0675 -0.0200  0.1619
  604BOLB   C2A14478  18.045   4.032  34.613 -0.0251  0.1862  0.0264
  604BOLB   C3A14479  18.237   4.026  35.026 -0.3502 -0.2925  0.1606
  604BOLB   C4A14480  18.418   3.804  35.432  0.1489 -0.0994 -0.1369
  604BOLB   C1B14481  18.052   3.287  33.980  0.3338 -0.1720 -0.4692
  604BOLB   C2B14482  17.987   2.938  34.391 -0.3790 -0.1947  0.2435
  604BOLB   C3B14483  17.877   3.040  34.773  0.2378  0.2291  0.1384
  604BOLB   C4B14484  17.927   3.257  35.136 -0.2269  0.0705 -0.2679
  604BOLB   NC214485  19.359   3.288  37.168  0.0841 -0.0881 -0.1558
  604BOLB   PO214486  19.408   2.839  37.070 -0.1555 -0.0542 -0.1778
  604BOLB   GL314487  19.549   2.860  36.599  0.1370 -0.0462 -0.1896
  604BOLB   GL414488  19.839   2.953  36.462  0.4571  0.0496  0.2917
  604BOLB   C1C14489  19.370   2.831  36.144 -0.0278  0.2224 -0.3122
  604BOLB   C2C14490  19.262   3.317  36.056  0.3032 -0.2388 -0.2817
  604BOLB   C3C14491  18.912   3.545  36.135  0.0351 -0.3031 -0.0745
  604BOLB   C4C14492  18.604   3.737  35.868 -0.2775 -0.1660  0.1767
  604BOLB   C1D14493  19.980   2.964  36.084  0.2162 -0.1830  0.0273
  604BOLB   C2D14494  20.131   3.079  35.709 -0.1156 -0.2774  0.4888
  604BOLB   C3D14495  20.136   3.166  35.346  0.0396 -0.0138 -0.0595
  604BOLB   C4D14496  19.760   3.309  35.181  0.1048 -0.0010  0.2649
  605BOLB   NC114497  10.939   7.834  20.237 -0.1431 -0.0041 -0.4238
  605BOLB   PO114498  11.024   8.228  20.218 -0.2388 -0.1214 -0.1615
  605BOLB   GL114499  10.750   8.237  20.006 -0.0533  0.1756 -0.3288
  605BOLB   GL214500  10.523   7.903  19.977  0.0205 -0.0148 -0.0388
  605BOLB   C1A14501  10.557   8.395  19.759 -0.0838  0.0919 -0.3948
  605BOLB   C2A14502  10.341   8.435  19.372 -0.0604  0.2985 -0.2348
  605BOLB   C3A14503  10.032   8.259  19.129 -0.2937 -0.0344  0.4412
  605BOLB   C4A14504   9.859   8.231  18.692  0.0571 -0.0585 -0.4687
  605BOLB   C1B14505  10.492   7.965  19.525  0.2973  0.0228 -0.0710
  605BOLB   C2B14506  10.505   8.033  19.044 -0.2398  0.1164 -0.3174
  605BOLB   C3B14507  10.404   8.226  18.792 -0.0272  0.0659 -0.2605
  605BOLB   C4B14508  10.276   8.203  18.367  0.0462 -0.1249 -0.1621
  605BOLB   NC214509   7.987   9.954  17.446  0.3296  0.4216  0.3137
  605BOLB   PO214510   8.023   9.624  17.739  0.1752 -0.0862  0.3566
  605BOLB   GL314511   8.425   9.717  18.061 -0.1252 -0.0874 -0.3018
  605BOLB   GL414512   8.350  10.048  18.109 -0.2007 -0.2198 -0.3413
  605BOLB   C1C14513   8.850   9.536  18.195 -0.0754 -0.2489  0.0756
  605BOLB   C2C14514   9.012   9.171  18.266 -0.0133  0.0236  0.1795
  605BOLB   C3C14515   9.186   8.872  18.606 -0.2144 -0.3535 -0.0575
  605BOLB   C4C14516   9.559   8.697  18.673 -0.0456 -0.0671 -0.0197
  605BOLB   C1D14517   8.745  10.113  18.388  0.0033  0.0561 -0.0797
  605BOLB   C2D14518   9.204   9.798  18.427  0.1936 -0.1987 -0.1771
  605BOLB   C3D14519   9.666   9.864  18.383  0.2335  0.2268 -0.0452
  605BOLB   C4D14520   9.979  10.040  18.100 -0.0878  0.2295  0.2262
  606BOLB   NC114521  18.370  -4.132  21.210 -0.3671 -0.1007  0.0733
  606BOLB   PO114522  18.114  -4.240  21.600 -0.0412  0.1735 -0.0901
  606BOLB   GL114523  18.286  -4.539  21.503 -0.1233  0.0324  0.0005
  606BOLB   GL214524  18.638  -4.373  21.546  0.0644  0.1047 -0.0015
  606BOLB   C1A14525  18.608  -4.751  21.148  0.0935  0.0718  0.1409
  606BOLB   C2A14526  18.597  -5.090  20.900 -0.3558 -0.3037 -0.0620
  606BOLB   C3A14527  18.640  -5.485  20.911 -0.2698 -0.2341  0.2635
  606BOLB   C4A14528  18.895  -5.831  21.059 -0.1629  0.2355  0.0180
  606BOLB   C1B14529  18.846  -4.757  21.545 -0.0191  0.0721 -0.2610
  606BOLB   C2B14530  19.098  -5.030  21.341  0.2107  0.2005 -0.1340
  606BOLB   C3B14531  19.418  -5.250  21.257  0.0104  0.1272  0.3953
  606BOLB   C4B14532  19.770  -5.251  21.387 -0.0537 -0.1838 -0.0355
  606BOLB   NC214533  20.591  -7.809  20.927 -0.1852  0.2109  0.3685
  606BOLB   PO214534  20.296  -7.735  20.654  0.2607 -0.0998  0.0958
  606BOLB   GL314535  20.011  -7.450  20.619  0.2598 -0.1476 -0.1723
  606BOLB   GL414536  19.794  -7.579  20.798 -0.2592  0.2214  0.3707
  606BOLB   C1C14537  19.566  -7.205  20.581 -0.1724  0.2097  0.0119
  606BOLB   C2C14538  19.371  -6.880  20.715 -0.2188 -0.1406  0.0162
  606BOLB   C3C14539  19.436  -6.487  20.997  0.0156 -0.2610 -0.0625
  606BOLB   C4C14540  19.272  -6.081  21.148  0.0792 -0.0413 -0.1855
  606BOLB   C1D14541  19.711  -7.285  21.053 -0.0833 -0.2057 -0.0794
  606BOLB   C2D14542  19.550  -6.909  21.184 -0.0883  0.0942 -0.4516
  606BOLB   C3D14543  19.452  -6.570  21.477 -0.1565 -0.1110  0.0891
  606BOLB   C4D14544  19.423  -6.112  21.620  0.0680 -0.0244 -0.1249
  607BOLB   NC114545  20.800   1.107  31.818 -0.2682  0.1226  0.4007
  607BOLB   PO114546  20.322   1.261  31.813 -0.0922  0.0022 -0.1527
  607BOLB   GL114547  20.302   1.057  32.231  0.2792  0.6076  0.3125
  607BOLB   GL214548  20.588   1.030  32.356  0.1336 -0.1284 -0.1490
  607BOLB   C1A14549  20.329   0.921  32.753 -0.0806  0.0812 -0.1708
  607BOLB   C2A14550  20.515   0.677  33.164  0.4250  0.0312  0.0428
  607BOLB   C3A14551  20.851   0.381  33.196  0.1695 -0.2671  0.2543
  607BOLB   C4A14552  21.065   0.146  33.486 -0.1238 -0.0350 -0.0340
  607BOLB   C1B14553  20.775   1.191  32.740 -0.0083  0.5204  0.3180
  607BOLB   C2B14554  20.961   0.993  33.005  0.1254 -0.1318 -0.1634
  607BOLB   C3B14555  20.977   0.883  33.412  0.0732 -0.0003 -0.1647
  607BOLB   C4B14556  20.845   1.089  33.785  0.3897  0.2020 -0.0797
  607BOLB   NC214557  22.694  -0.933  35.260 -0.2011  0.1859  0.0481
  607BOLB   PO214558  22.774  -0.854  34.788  0.2004 -0.2222  0.2640
  607BOLB   GL314559  22.387  -0.672  34.462 -0.2620 -0.1684  0.2300
  607BOLB   GL414560  22.116  -0.410  34.583  0.3071  0.0326  0.0160
  607BOLB   C1C14561  22.181  -0.618  34.162  0.0791 -0.0292  0.2318
  607BOLB   C2C14562  21.938  -0.322  34.078  0.2473  0.2372 -0.2498
  607BOLB   C3C14563  21.768  -0.103  33.729 -0.0753  0.0314  0.0690
  607BOLB   C4C14564  21.439   0.054  33.548 -0.0398  0.3051 -0.2579
  607BOLB   C1D14565  21.897  -0.029  34.471 -0.0519  0.0158  0.3998
  607BOLB   C2D14566  21.587   0.006  34.192  0.5650 -0.2834 -0.0221
  607BOLB   C3D14567  21.503   0.332  33.980  0.1686 -0.1520 -0.0467
  607BOLB   C4D14568  21.306   0.585  33.587  0.0154  0.0730  0.0728
  608BOLB   NC114569  21.280   6.672  31.146  0.0442  0.3242 -0.2202
  608BOLB   PO114570  21.384   6.836  31.629  0.0081 -0.0982 -0.0142
  608BOLB   GL114571  21.763   6.961  31.835  0.0982  0.0989  0.2521
  608BOLB   GL214572  21.792   7.163  31.573  0.1765  0.0387 -0.2231
  608BOLB   C1A14573  22.086   6.900  32.173 -0.1001 -0.0895  0.2159
  608BOLB   C2A14574  22.421   6.935  32.485 -0.1306 -0.0020  0.1743
  608BOLB   C3A14575  22.574   7.219  32.714 -0.3090  0.1362 -0.0442
  608BOLB   C4A14576  22.561   7.553  32.769 -0.0575  0.3363 -0.0631
  608BOLB   C1B14577  22.083   7.343  31.829  0.0038 -0.1016 -0.0351
  608BOLB   C2B14578  22.166   7.383  32.348 -0.1034 -0.2311 -0.2783
  608BOLB   C3B14579  22.097   7.286  32.653 -0.1930  0.2028  0.1624
  608BOLB   C4B14580  21.962   7.264  33.097 -0.3017 -0.0835  0.1488
  608BOLB   NC214581  22.813   7.808  35.414  0.1429  0.2205  0.0154
  608BOLB   PO214582  22.951   8.087  35.171 -0.4385  0.0091 -0.1405
  608BOLB   GL314583  22.872   7.834  34.800 -0.0798  0.0042 -0.1533
  608BOLB   GL414584  22.956   7.530  34.881 -0.1244 -0.0207 -0.1287
  608BOLB   C1C14585  22.797   7.633  34.333  0.3212  0.0640  0.1930
  608BOLB   C2C14586  22.509   7.596  33.932 -0.2225 -0.3156  0.1054
  608BOLB   C3C14587  22.324   7.523  33.509 -0.2665 -0.3899  0.3300
  608BOLB   C4C14588  22.335   7.704  33.133 -0.2963 -0.0516 -0.1096
  608BOLB   C1D14589  22.547   7.437  34.796 -0.1704  0.2330 -0.0104
  608BOLB   C2D14590  22.307   7.372  34.437  0.3218  0.0138  0.0538
  608BOLB   C3D14591  22.158   6.962  34.212  0.1147 -0.2621 -0.1173
  608BOLB   C4D14592  21.756   6.854  34.012  0.0323  0.1568  0.1965
  609BOLB   NC114593  11.930   1.122  36.700  0.1393  0.1653  0.0330
  609BOLB   PO114594  12.384   1.181  36.836  0.2064 -0.7594 -0.1625
  609BOLB   GL114595  12.317   1.339  36.413 -0.0689 -0.0142  0.2150
  609BOLB   GL214596  12.415   1.636  36.314  0.2172 -0.0642  0.0954
  609BOLB   C1A14597  12.495   1.352  35.928 -0.1620 -0.6770 -0.0798
  609BOLB   C2A14598  12.495   1.740  35.540  0.1784 -0.1039 -0.0867
  609BOLB   C3A14599  12.329   2.150  35.663 -0.0860  0.1483 -0.1339
  609BOLB   C4A14600  11.927   2.346  35.785  0.1520 -0.1787  0.0103
  609BOLB   C1B14601  12.645   1.865  35.975  0.1612  0.0072 -0.3518
  609BOLB   C2B14602  12.860   2.037  35.681 -0.0474  0.1733  0.1347
  609BOLB   C3B14603  12.807   2.127  35.269 -0.0322 -0.1277 -0.0326
  609BOLB   C4B14604  12.939   2.521  35.109  0.3223  0.0529  0.0169
  609BOLB   NC214605  10.324   2.927  36.428 -0.1033  0.2273  0.2933
  609BOLB   PO214606  10.051   2.720  36.161  0.0680 -0.1085 -0.1955
  609BOLB   GL314607  10.358   2.744  35.912  0.0620 -0.1169 -0.1287
  609BOLB   GL414608  10.486   2.427  35.996  0.2378  0.4692 -0.2420
  609BOLB   C1C14609  10.588   2.748  35.528 -0.0227 -0.3396  0.0230
  609BOLB   C2C14610  10.851   2.837  35.293  0.1548 -0.0441  0.0479
  609BOLB   C3C14611  11.265   2.706  35.274 -0.1651 -0.2828 -0.1477
  609BOLB   C4C14612  11.438   2.294  35.460  0.0705  0.0446 -0.1209
  609BOLB   C1D14613  10.345   2.344  35.608  0.0128  0.1374 -0.2371
  609BOLB   C2D14614  10.467   2.435  35.118 -0.1024 -0.1212 -0.3041
  609BOLB   C3D14615  10.543   2.618  34.751  0.3221  0.0235  0.1210
  609BOLB   C4D14616  10.549   2.637  34.359 -0.1346 -0.1785 -0.4505
  610BOLB   NC114617  23.799   4.422  21.254 -0.3037 -0.1393 -0.2576
  610BOLB   PO114618  23.687   4.379  20.783 -0.1332  0.3958 -0.0186
  610BOLB   GL114619  24.057   4.477  20.794  0.0925 -0.2893 -0.0201
  610BOLB   GL214620  24.146   4.157  20.728  0.0946  0.1872 -0.1266
  610BOLB   C1A14621  24.402   4.537  20.537  0.0739  0.0449  0.3712
  610BOLB   C2A14622  24.730   4.273  20.240 -0.0021 -0.0972  0.0430
  610BOLB   C3A14623  24.612   4.225  19.849  0.1405 -0.0992 -0.3326
  610BOLB   C4A14624  24.824   3.888  19.658  0.1981  0.1008 -0.1968
  610BOLB   C1B14625  24.594   3.943  20.589  0.2431 -0.1038  0.2999
  610BOLB   C2B14626  24.927   3.906  20.675  0.1501 -0.1562  0.1423
  610BOLB   C3B14627  25.230   3.700  20.987  0.0087 -0.2262 -0.2993
  610BOLB   C4B14628  25.329   3.607  21.399  0.3652  0.1014  0.1960
  610BOLB   NC214629  27.631   3.904  19.636 -0.0777  0.0373 -0.1059
  610BOLB   PO214630  27.339   3.735  19.314  0.2516  0.0702  0.1487
  610BOLB   GL314631  26.899   3.515  19.228 -0.0874 -0.2478 -0.0420
  610BOLB   GL414632  26.970   3.164  19.265 -0.0736  0.0601 -0.0923
  610BOLB   C1C14633  26.453   3.536  19.344 -0.3334 -0.0443  0.0504
  610BOLB   C2C14634  26.014   3.663  19.368 -0.0768 -0.2256 -0.0421
  610BOLB   C3C14635  25.600   3.624  19.429 -0.2248 -0.0715  0.4560
  610BOLB   C4C14636  25.146   3.817  19.440 -0.0539  0.2275  0.2387
  610BOLB   C1D14637  26.487   2.975  19.280  0.2424 -0.2750 -0.0833
  610BOLB   C2D14638  26.353   2.749  19.669  0.1301 -0.2968  0.1115
  610BOLB   C3D14639  25.938   2.647  19.737 -0.0652  0.0746  0.1393
  610BOLB   C4D14640  25.492   2.697  19.707 -0.3326 -0.3659 -0.1113
  611BOLB   NC114641  17.413   7.647  18.547  0.0836 -0.1867 -0.0188
  611BOLB   PO114642  17.680   7.887  18.193  0.0100  0.0767  0.0245
  611BOLB   GL114643  17.689   8.250  17.824 -0.0737  0.5712  0.1821
  611BOLB   GL214644  17.969   8.543  17.902 -0.1975 -0.3615 -0.1245
  611BOLB   C1A14645  17.612   8.561  17.458 -0.2380 -0.4902 -0.0463
  611BOLB   C2A14646  17.737   8.822  17.207  0.0452  0.0238 -0.2845
  611BOLB   C3A14647  17.959   9.136  16.913 -0.3453  0.1599  0.0715
  611BOLB   C4A14648  18.049   9.528  16.788  0.0434 -0.0960  0.0599
  611BOLB   C1B14649  18.316   8.842  17.808  0.1627  0.2187  0.2362
  611BOLB   C2B14650  18.575   9.277  17.671  0.2024  0.1643  0.0544
  611BOLB   C3B14651  18.862   9.465  17.233  0.0785  0.0045  0.0638
  611BOLB   C4B14652  18.711   9.715  16.888 -0.1411 -0.0084  0.2082
  611BOLB   NC214653  17.383  11.879  16.487  0.2836  0.2980  0.2737
  611BOLB   PO214654  17.721  11.707  16.262  0.2505 -0.3139 -0.1129
  611BOLB   GL314655  17.636  11.419  16.368  0.2607  0.0142  0.1347
  611BOLB   GL414656  17.524  11.454  16.709 -0.3496  0.1116  0.2499
  611BOLB   C1C14657  17.811  11.003  16.411 -0.1427 -0.0646  0.1069
  611BOLB   C2C14658  18.034  10.537  16.530  0.1474 -0.1722 -0.1251
  611BOLB   C3C14659  17.911  10.296  16.774 -0.2097 -0.3014  0.1346
  611BOLB   C4C14660  18.032   9.915  16.927  0.1940  0.3076 -0.2616
  611BOLB   C1D14661  17.630  11.058  16.881  0.0873 -0.1743 -0.0824
  611BOLB   C2D14662  17.832  10.814  16.992 -0.1872  0.2592  0.1234
  611BOLB   C3D14663  18.262  10.608  17.159  0.0088 -0.0561  0.0175
  611BOLB   C4D14664  18.545  10.575  17.503 -0.1991 -0.0827  0.0683
  612BOLB   NC114665  19.861  -3.382  22.064  0.0756  0.1471  0.0118
  612BOLB   PO114666  20.247  -3.400  22.013  0.2976 -0.1744  0.2551
  612BOLB   GL114667  20.250  -3.614  21.643 -0.1471  0.2286 -0.2275
  612BOLB   GL214668  20.236  -3.444  21.423  0.3299  0.0488 -0.0910
  612BOLB   C1A14669  20.548  -3.915  21.393 -0.0018 -0.0998  0.3105
  612BOLB   C2A14670  20.759  -4.204  21.301  0.0257  0.3169 -0.2001
  612BOLB   C3A14671  21.056  -4.565  21.378  0.3932 -0.2986  0.1592
  612BOLB   C4A14672  21.450  -4.807  21.407 -0.0426 -0.2199  0.2479
  612BOLB   C1B14673  20.366  -3.510  21.049  0.0251 -0.0606 -0.4437
  612BOLB   C2B14674  20.263  -3.624  20.562 -0.0584 -0.3622 -0.4236
  612BOLB   C3B14675  19.968  -3.817  20.408  0.1147  0.2096  0.0956
  612BOLB   C4B14676  19.450  -3.763  20.558 -0.3267 -0.2494  0.0818
  612BOLB   NC214677  23.480  -5.782  22.724  0.1434  0.3567 -0.2291
  612BOLB   PO214678  23.165  -6.094  22.689 -0.1172 -0.0722 -0.1246
  612BOLB   GL314679  22.856  -5.972  22.349 -0.0255  0.2171 -0.0698
  612BOLB   GL414680  22.769  -5.991  21.961  0.0918 -0.0853  0.1363
  612BOLB   C1C14681  22.654  -5.599  22.241  0.1264  0.0564  0.1016
  612BOLB   C2C14682  22.423  -5.416  21.883  0.0560  0.0535 -0.0791
  612BOLB   C3C14683  22.122  -5.364  21.791 -0.1230 -0.0987  0.0925
  612BOLB   C4C14684  21.851  -5.080  21.581  0.0590  0.1185  0.2207
  612BOLB   C1D14685  22.804  -5.618  21.782  0.0515  0.0857 -0.1681
  612BOLB   C2D14686  22.784  -5.215  21.617  0.1222  0.0974 -0.2846
  612BOLB   C3D14687  22.376  -4.985  21.488  0.2434  0.0934  0.0194
  612BOLB   C4D14688  22.065  -4.591  21.510  0.0591  0.3493  0.2944
  613BOLB   NC114689  12.584   2.575  36.943  0.2516  0.1557  0.1483
  613BOLB   PO114690  12.516   2.068  36.873  0.1832 -0.2367 -0.0993
  613BOLB   GL114691  12.627   2.274  36.512 -0.2855 -0.1411 -0.1536
  613BOLB   GL214692  12.812   2.549  36.493  0.2220  0.0624 -0.1640
  613BOLB   C1A14693  12.511   2.449  36.131  0.3329 -0.0368 -0.1083
  613BOLB   C2A14694  12.648   2.536  35.698  0.4244 -0.0959 -0.3847
  613BOLB   C3A14695  12.503   2.519  35.371  0.0820 -0.2503  0.3090
  613BOLB   C4A14696  12.412   2.891  35.110 -0.0636 -0.2217 -0.1185
  613BOLB   C1B14697  13.234   2.689  36.409 -0.3636 -0.3608 -0.0689
  613BOLB   C2B14698  13.534   2.723  36.814 -0.0934 -0.1820 -0.1256
  613BOLB   C3B14699  13.791   3.068  36.661  0.2844 -0.0251  0.0440
  613BOLB   C4B14700  14.161   2.987  36.564 -0.2665  0.2598 -0.0143
  613BOLB   NC214701  11.563   4.114  37.177 -0.0441 -0.2068  0.2452
  613BOLB   PO214702  11.805   3.719  37.117 -0.0444  0.1284  0.1939
  613BOLB   GL314703  11.680   3.552  36.717  0.0235 -0.0380 -0.0108
  613BOLB   GL414704  11.368   3.489  36.583 -0.0686 -0.1545  0.4358
  613BOLB   C1C14705  11.820   3.665  36.342 -0.2000 -0.1527 -0.0365
  613BOLB   C2C14706  11.918   3.420  36.161 -0.0547 -0.0254 -0.1596
  613BOLB   C3C14707  12.008   3.251  35.737 -0.0731 -0.0850 -0.3026
  613BOLB   C4C14708  12.149   3.096  35.312 -0.0910 -0.0870  0.1202
  613BOLB   C1D14709  11.391   3.488  36.173  0.2224 -0.1523  0.0588
  613BOLB   C2D14710  11.558   3.371  35.809 -0.1390  0.2670 -0.1998
  613BOLB   C3D14711  11.897   3.638  35.465  0.3124 -0.0930 -0.0476
  613BOLB   C4D14712  11.810   3.666  35.057  0.0367  0.3966  0.1549
  614BOLB   NC114713  14.443  12.455  27.659  0.1186 -0.0291 -0.0599
  614BOLB   PO114714  14.051  12.570  27.497 -0.2275 -0.4294  0.0279
  614BOLB   GL114715  14.222  12.917  27.710 -0.0645 -0.0617 -0.0089
  614BOLB   GL214716  14.452  13.125  27.400 -0.0707 -0.0909  0.1727
  614BOLB   C1A14717  14.081  13.338  27.710  0.3146  0.0873 -0.2451
  614BOLB   C2A14718  13.898  13.648  28.023 -0.1576  0.1821  0.2139
  614BOLB   C3A14719  13.885  14.115  28.098  0.1175  0.0614 -0.0709
  614BOLB   C4A14720  14.043  14.422  28.059 -0.0928  0.1891  0.0893
  614BOLB   C1B14721  14.413  13.609  27.531  0.4017 -0.2052 -0.3118
  614BOLB   C2B14722  14.210  13.925  27.749 -0.1143  0.1716 -0.4000
  614BOLB   C3B14723  14.449  13.993  28.077 -0.1549 -0.2297 -0.0668
  614BOLB   C4B14724  14.426  14.246  28.448  0.1885  0.1410  0.0256
  614BOLB   NC214725  15.583  16.878  28.708  0.3760 -0.2419 -0.1928
  614BOLB   PO214726  15.308  16.517  28.771  0.0606 -0.2937  0.1799
  614BOLB   GL314727  15.124  16.203  28.534  0.2258 -0.0007 -0.2361
  614BOLB   GL414728  15.230  16.204  28.188  0.0556 -0.0789 -0.0046
  614BOLB   C1C14729  15.010  15.773  28.569 -0.1648  0.0398 -0.2748
  614BOLB   C2C14730  14.854  15.320  28.322  0.2115 -0.4448  0.0026
  614BOLB   C3C14731  14.687  14.985  28.151  0.3100 -0.2180 -0.0901
  614BOLB   C4C14732  14.321  14.702  28.054 -0.1151  0.1378  0.1226
  614BOLB   C1D14733  15.346  15.805  27.851 -0.0779 -0.2268  0.5542
  614BOLB   C2D14734  15.161  15.538  27.523 -0.4780 -0.1396  0.2195
  614BOLB   C3D14735  14.995  15.211  27.349  0.1818 -0.1779  0.1372
  614BOLB   C4D14736  14.922  14.828  27.133 -0.0999 -0.0044 -0.0076
  615BOLB   NC114737  20.640  10.395  22.929 -0.2948 -0.1617  0.1394
  615BOLB   PO114738  20.973  10.083  22.822  0.0313 -0.3053  0.0108
  615BOLB   GL114739  21.149  10.459  22.692  0.1005 -0.0086 -0.3568
  615BOLB   GL214740  21.189  10.858  22.810 -0.0622  0.0717  0.0022
  615BOLB   C1A14741  21.244  10.613  22.289 -0.0468  0.1220 -0.1161
  615BOLB   C2A14742  21.107  10.858  21.945  0.1944 -0.1307  0.0092
  615BOLB   C3A14743  21.202  11.315  21.781 -0.0538 -0.2708  0.1299
  615BOLB   C4A14744  21.307  11.745  21.727 -0.0688 -0.3880  0.2015
  615BOLB   C1B14745  21.515  10.974  22.574  0.2436 -0.0580 -0.0071
  615BOLB   C2B14746  21.944  11.142  22.563  0.2789 -0.0460  0.1801
  615BOLB   C3B14747  22.108  11.340  22.896  0.1001  0.2358  0.0211
  615BOLB   C4B14748  22.237  11.361  23.365 -0.0181 -0.2587 -0.1550
  615BOLB   NC214749  21.814  13.929  21.934 -0.2258  0.2444  0.1115
  615BOLB   PO214750  22.181  13.891  21.731  0.1682 -0.0058 -0.0047
  615BOLB   GL314751  22.113  13.521  21.555 -0.0322  0.3028  0.6176
  615BOLB   GL414752  22.325  13.370  21.600  0.3216  0.2562 -0.1309
  615BOLB   C1C14753  21.859  13.180  21.393  0.1521 -0.0222 -0.0998
  615BOLB   C2C14754  21.886  12.727  21.398  0.1756 -0.2967 -0.2910
  615BOLB   C3C14755  21.981  12.316  21.439  0.0785 -0.1725  0.3586
  615BOLB   C4C14756  21.666  12.014  21.619 -0.0310  0.2875  0.2818
  615BOLB   C1D14757  22.158  12.931  21.766 -0.0326 -0.0458 -0.2104
  615BOLB   C2D14758  21.784  12.654  21.897 -0.0776 -0.1322  0.1862
  615BOLB   C3D14759  21.431  12.242  21.989  0.0697 -0.1448  0.3684
  615BOLB   C4D14760  21.126  12.232  22.337 -0.4358 -0.0573  0.0746
  616BOLB   NC114761  13.745   5.773  16.951 -0.1287  0.0413 -0.2800
  616BOLB   PO114762  13.485   5.637  17.305 -0.5075 -0.1069 -0.2455
  616BOLB   GL114763  13.239   5.618  16.944 -0.0653 -0.0872 -0.1634
  616BOLB   GL214764  12.830   5.641  17.045  0.0861  0.0929  0.0717
  616BOLB   C1A14765  13.293   5.646  16.483  0.2489  0.2183  0.1657
  616BOLB   C2A14766  12.838   5.722  16.223  0.2776  0.0825  0.3434
  616BOLB   C3A14767  12.570   5.723  15.906  0.0654 -0.3022  0.0175
  616BOLB   C4A14768  12.138   5.729  15.692  0.2095  0.1336  0.1172
  616BOLB   C1B14769  12.900   5.933  16.722  0.0964  0.0633 -0.0338
  616BOLB   C2B14770  12.903   6.240  16.487 -0.1552  0.0901  0.2666
  616BOLB   C3B14771  12.643   6.375  16.110 -0.0759  0.1335  0.0169
  616BOLB   C4B14772  12.613   6.501  15.662 -0.1306 -0.1351 -0.1106
  616BOLB   NC214773  11.533   6.142  13.499 -0.1146 -0.0841 -0.1525
  616BOLB   PO214774  11.537   6.527  13.444  0.2730  0.3469  0.1599
  616BOLB   GL314775  11.731   6.628  13.836  0.1701  0.0424  0.1663
  616BOLB   GL414776  11.980   6.605  13.646  0.0568  0.2169 -0.1121
  616BOLB   C1C14777  11.861   6.441  14.244  0.4030 -0.2688  0.0876
  616BOLB   C2C14778  11.979   6.180  14.609  0.0750 -0.2468  0.0151
  616BOLB   C3C14779  11.963   5.916  14.976  0.1067 -0.2158  0.0568
  616BOLB   C4C14780  11.954   5.963  15.368  0.2113 -0.2263  0.0757
  616BOLB   C1D14781  12.300   6.420  13.923 -0.0683  0.1334 -0.2025
  616BOLB   C2D14782  12.448   6.157  14.365  0.0978  0.1259 -0.1365
  616BOLB   C3D14783  12.446   6.216  14.794  0.0345  0.1091 -0.3939
  616BOLB   C4D14784  12.414   5.966  15.139  0.0523 -0.1814 -0.1181
  617BOLB   NC114785  22.066   9.844  27.418  0.0736  0.1800 -0.0559
  617BOLB   PO114786  21.797   9.882  27.118  0.2239  0.0533  0.0024
  617BOLB   GL114787  22.083  10.204  27.018  0.0033  0.1629  0.1702
  617BOLB   GL214788  22.399  10.087  27.098  0.3016  0.3440 -0.0471
  617BOLB   C1A14789  22.383  10.601  27.099 -0.2703 -0.1950  0.3021
  617BOLB   C2A14790  22.660  10.928  27.278  0.0725  0.2492 -0.0333
  617BOLB   C3A14791  23.017  11.202  27.435  0.2517 -0.1718 -0.1980
  617BOLB   C4A14792  23.389  11.533  27.220 -0.0283 -0.1117  0.1656
  617BOLB   C1B14793  22.755  10.242  27.316  0.0328  0.0507 -0.1768
  617BOLB   C2B14794  23.036  10.509  27.404 -0.0083 -0.0793  0.2119
  617BOLB   C3B14795  23.321  10.798  27.377 -0.2241 -0.0519 -0.1700
  617BOLB   C4B14796  23.495  11.137  27.644  0.1048  0.1739  0.3064
  617BOLB   NC214797  24.649  14.009  27.166 -0.1569 -0.0753 -0.1422
  617BOLB   PO214798  24.415  13.581  27.184 -0.3639 -0.1307  0.6673
  617BOLB   GL314799  24.188  13.250  27.239 -0.0674  0.2299  0.2143
  617BOLB   GL414800  23.881  13.275  27.157  0.0882  0.0348 -0.1676
  617BOLB   C1C14801  24.017  12.963  27.515 -0.2132  0.1293 -0.0544
  617BOLB   C2C14802  24.058  12.524  27.475  0.1315 -0.1123  0.0463
  617BOLB   C3C14803  23.904  12.209  27.434 -0.1408  0.0929 -0.0281
  617BOLB   C4C14804  23.687  11.875  27.346  0.0536  0.0721 -0.0591
  617BOLB   C1D14805  23.808  12.899  27.021 -0.1973 -0.0203 -0.0001
  617BOLB   C2D14806  23.981  12.512  26.935  0.3262 -0.0553  0.2237
  617BOLB   C3D14807  23.779  12.224  26.724 -0.0361  0.1882  0.1568
  617BOLB   C4D14808  23.341  12.198  26.503  0.0091  0.1901 -0.0291
  618BOLB   NC114809   8.238   4.146  28.044  0.2924  0.2108 -0.0872
  618BOLB   PO114810   7.931   4.300  27.885 -0.0280 -0.3908  0.1441
  618BOLB   GL114811   7.449   4.269  28.005 -0.2059 -0.4836  0.0201
  618BOLB   GL214812   7.218   4.116  27.754  0.1734 -0.0475 -0.0209
  618BOLB   C1A14813   7.112   4.480  28.238  0.0127 -0.0412 -0.5479
  618BOLB   C2A14814   6.895   4.843  28.194  0.0407 -0.3625 -0.2713
  618BOLB   C3A14815   6.540   4.883  28.113 -0.0575 -0.0945 -0.0448
  618BOLB   C4A14816   6.130   4.842  28.124 -0.2213 -0.1084  0.1433
  618BOLB   C1B14817   6.743   3.983  27.738  0.1389 -0.2192  0.0347
  618BOLB   C2B14818   6.290   3.886  27.657  0.1434  0.0948  0.1403
  618BOLB   C3B14819   5.726   4.028  27.692  0.1778 -0.5171 -0.0666
  618BOLB   C4B14820   5.271   4.111  27.583 -0.1164  0.0093  0.2247
  618BOLB   NC214821   3.302   4.635  28.400  0.0276  0.4282  0.1460
  618BOLB   PO214822   3.539   4.357  28.535  0.2540  0.1078 -0.0702
  618BOLB   GL314823   3.989   4.430  28.644 -0.3423 -0.2723 -0.1373
  618BOLB   GL414824   4.211   4.282  28.963  0.0032  0.0352 -0.3869
  618BOLB   C1C14825   4.357   4.566  28.446  0.4234 -0.0057 -0.1057
  618BOLB   C2C14826   4.759   4.438  28.317  0.4252 -0.2955 -0.0504
  618BOLB   C3C14827   5.287   4.546  28.131  0.3139  0.4147 -0.3938
  618BOLB   C4C14828   5.674   4.653  28.303 -0.1644  0.0619  0.3440
  618BOLB   C1D14829   4.469   4.141  28.848 -0.0430 -0.3366  0.0702
  618BOLB   C2D14830   4.820   3.986  28.689 -0.2152 -0.1454  0.0843
  618BOLB   C3D14831   5.199   4.106  28.650  0.0797 -0.4933 -0.0820
  618BOLB   C4D14832   5.541   4.286  28.549 -0.3103 -0.1804 -0.2321
  619BOLB   NC114833  21.123   3.774  17.003 -0.2670 -0.1346 -0.1895
  619BOLB   PO114834  21.366   3.512  17.254 -0.4038 -0.2150  0.1390
  619BOLB   GL114835  21.655   3.516  16.979  0.1868 -0.1154  0.0842
  619BOLB   GL214836  21.902   3.601  17.111  0.1022 -0.1477  0.1608
  619BOLB   C1A14837  21.634   3.617  16.491 -0.0731  0.0502  0.2132
  619BOLB   C2A14838  21.525   3.672  15.992 -0.3259 -0.1311 -0.3464
  619BOLB   C3A14839  21.191   3.738  15.696 -0.3003 -0.2708 -0.1243
  619BOLB   C4A14840  20.941   3.872  15.336 -0.1573  0.2691 -0.2110
  619BOLB   C1B14841  22.126   3.567  16.747 -0.0902 -0.2837 -0.1240
  619BOLB   C2B14842  22.541   3.317  16.634  0.0964 -0.0405  0.1600
  619BOLB   C3B14843  22.926   3.170  16.630  0.2177  0.0549 -0.1053
  619BOLB   C4B14844  23.256   3.134  16.427 -0.2213 -0.1060  0.0362
  619BOLB   NC214845  22.550   4.155  13.247 -0.1701 -0.0466  0.0822
  619BOLB   PO214846  22.135   4.332  13.341 -0.1338  0.0931  0.1319
  619BOLB   GL314847  22.042   4.358  13.736  0.0748 -0.1772  0.2118
  619BOLB   GL414848  22.248   4.264  13.832 -0.0996  0.0217  0.1941
  619BOLB   C1C14849  21.704   4.202  13.938  0.0477 -0.1373 -0.3082
  619BOLB   C2C14850  21.373   4.123  14.321 -0.1038 -0.1993 -0.0469
  619BOLB   C3C14851  21.092   4.139  14.588  0.3363 -0.2490 -0.1095
  619BOLB   C4C14852  20.941   4.125  15.024  0.1689 -0.0818  0.2050
  619BOLB   C1D14853  22.313   4.086  14.220 -0.1929 -0.3201 -0.2295
  619BOLB   C2D14854  21.923   3.852  14.351 -0.1199 -0.0758  0.1896
  619BOLB   C3D14855  21.483   3.807  14.618  0.1512  0.2011 -0.0366
  619BOLB   C4D14856  21.269   3.675  14.926  0.1667 -0.2766  0.1646
  620BOLB   NC114857   5.202   0.450  17.912  0.0374 -0.0083 -0.1579
  620BOLB   PO114858   5.617   0.384  17.674 -0.1542  0.1070  0.3146
  620BOLB   GL114859   5.766   0.534  18.158  0.0042  0.2400  0.1327
  620BOLB   GL214860   5.544   0.688  18.299  0.1450  0.0462 -0.1221
  620BOLB   C1A14861   6.093   0.510  18.467 -0.0268 -0.0374  0.0529
  620BOLB   C2A14862   6.350   0.855  18.672 -0.0203 -0.2948  0.1245
  620BOLB   C3A14863   6.710   1.072  18.882  0.2144 -0.0231 -0.1604
  620BOLB   C4A14864   6.898   1.305  19.245 -0.0446 -0.1066  0.0108
  620BOLB   C1B14865   5.885   1.011  18.456  0.2770 -0.0060 -0.0563
  620BOLB   C2B14866   6.259   1.210  18.299 -0.1936 -0.3398 -0.0150
  620BOLB   C3B14867   6.657   1.168  18.377  0.2419  0.0940 -0.2021
  620BOLB   C4B14868   7.093   1.025  18.243  0.0473  0.1396 -0.0810
  620BOLB   NC214869   8.799   2.680  20.266  0.0797  0.1346  0.3086
  620BOLB   PO214870   8.383   2.606  20.479  0.0549 -0.0880 -0.0987
  620BOLB   GL314871   8.041   2.562  20.142 -0.2521  0.0660 -0.1751
  620BOLB   GL414872   7.753   2.510  20.061  0.1244 -0.1580 -0.3330
  620BOLB   C1C14873   7.965   2.323  19.628 -0.0653  0.1921  0.1990
  620BOLB   C2C14874   7.739   2.286  19.271 -0.0741 -0.1998 -0.0187
  620BOLB   C3C14875   7.338   2.100  19.285  0.0219 -0.1568  0.0532
  620BOLB   C4C14876   7.038   1.769  19.363 -0.1493 -0.2262  0.0418
  620BOLB   C1D14877   7.376   2.363  19.703 -0.2359  0.0732  0.0705
  620BOLB   C2D14878   7.271   2.619  19.350  0.0441  0.0159 -0.0553
  620BOLB   C3D14879   7.266   2.528  18.920 -0.2956  0.0725  0.0852
  620BOLB   C4D14880   7.425   2.574  18.429 -0.0480 -0.0526  0.0234
  621BOLB   NC114881  20.526  15.213  28.233  0.3133  0.2832 -0.0387
  621BOLB   PO114882  20.939  15.087  28.176 -0.2981 -0.4796  0.2154
  621BOLB   GL114883  20.725  14.692  28.371 -0.0210 -0.0564  0.0834
  621BOLB   GL214884  20.538  14.616  28.683 -0.3230  0.1269 -0.2412
  621BOLB   C1A14885  20.668  14.321  28.172  0.2610  0.2166  0.1228
  621BOLB   C2A14886  20.552  13.929  27.940  0.0666 -0.1885 -0.1264
  621BOLB   C3A14887  20.552  13.405  28.025 -0.1793 -0.2628  0.0903
  621BOLB   C4A14888  20.964  13.177  28.034  0.3565 -0.0364 -0.0943
  621BOLB   C1B14889  20.185  14.669  28.604  0.0591 -0.1791  0.0623
  621BOLB   C2B14890  19.854  14.744  28.401 -0.1481 -0.1054 -0.0101
  621BOLB   C3B14891  19.749  14.489  28.029  0.1409 -0.4138  0.0344
  621BOLB   C4B14892  19.291  14.375  27.870 -0.2666 -0.1229 -0.3680
  621BOLB   NC214893  22.564  14.258  29.259  0.0426  0.0272 -0.1581
  621BOLB   PO214894  22.364  14.553  28.968 -0.0540  0.1546  0.1781
  621BOLB   GL314895  22.453  14.149  28.682 -0.1403 -0.1876  0.1918
  621BOLB   GL414896  22.679  14.158  28.425  0.2191  0.0316 -0.0315
  621BOLB   C1C14897  22.325  13.660  28.681 -0.1826  0.0246 -0.0973
  621BOLB   C2C14898  22.121  13.314  28.492  0.1503  0.0276  0.1139
  621BOLB   C3C14899  21.818  13.216  28.373  0.2028  0.0302 -0.0229
  621BOLB   C4C14900  21.442  13.272  27.982  0.0456  0.0173  0.0604
  621BOLB   C1D14901  22.411  13.876  28.225 -0.1314 -0.0785  0.1702
  621BOLB   C2D14902  22.212  13.650  28.047 -0.0845 -0.0241 -0.2501
  621BOLB   C3D14903  21.878  13.456  27.919 -0.3664  0.2806 -0.1631
  621BOLB   C4D14904  21.907  13.032  27.791 -0.0699  0.0927  0.1089
  622BOLB   NC114905  24.409   1.465  26.662 -0.0087  0.0714  0.0156
  622BOLB   PO114906  24.641   1.200  26.413  0.3666 -0.0723  0.3237
  622BOLB   GL114907  25.080   1.094  26.504 -0.0752 -0.2507  0.1304
  622BOLB   GL214908  25.292   1.244  26.228  0.1495  0.2611  0.1095
  622BOLB   C1A14909  25.493   1.108  26.681  0.2023  0.0248 -0.2376
  622BOLB   C2A14910  25.819   0.964  26.887 -0.1791 -0.5183  0.1237
  622BOLB   C3A14911  25.985   0.568  27.111  0.0721 -0.0862 -0.2089
  622BOLB   C4A14912  26.054   0.033  27.240  0.4453  0.3867 -0.1899
  622BOLB   C1B14913  25.773   1.219  26.282 -0.0873  0.0919  0.2538
  622BOLB   C2B14914  26.130   0.895  26.377  0.0503 -0.0093 -0.0911
  622BOLB   C3B14915  26.411   0.541  26.139 -0.0344 -0.2839 -0.0238
  622BOLB   C4B14916  26.565   0.224  26.327 -0.1036 -0.0239  0.0287
  622BOLB   NC214917  27.807  -1.062  27.628  0.4359  0.0802 -0.1942
  622BOLB   PO214918  27.926  -1.515  27.478  0.0842 -0.1835 -0.0339
  622BOLB   GL314919  27.513  -1.393  27.361  0.1431 -0.3190 -0.0847
  622BOLB   GL414920  27.504  -1.104  27.198 -0.3630  0.1243 -0.1156
  622BOLB   C1C14921  27.068  -1.304  27.441 -0.1415  0.0351 -0.3609
  622BOLB   C2C14922  26.791  -0.975  27.304  0.2295 -0.2242  0.0177
  622BOLB   C3C14923  26.629  -0.675  27.049 -0.1690  0.4420 -0.1469
  622BOLB   C4C14924  26.395  -0.320  27.163  0.0504 -0.0106 -0.1495
  622BOLB   C1D14925  27.212  -0.770  27.101 -0.2983 -0.1483  0.1164
  622BOLB   C2D14926  26.982  -0.381  27.264 -0.0240  0.0689  0.2881
  622BOLB   C3D14927  26.930   0.010  27.373  0.1268 -0.0087  0.0735
  622BOLB   C4D14928  26.519   0.149  27.274 -0.0708  0.2154 -0.0965
  623BOLB   NC114929   8.513   8.223  22.567  0.0767 -0.2636 -0.0415
  623BOLB   PO114930   8.882   8.336  22.442  0.0370  0.1044  0.0507
  623BOLB   GL114931   8.635   8.470  22.113  0.0468 -0.1192 -0.2333
  623BOLB   GL214932   8.242   8.446  22.206  0.1734 -0.1583  0.3318
  623BOLB   C1A14933   8.501   8.636  21.754  0.0230 -0.5821  0.1175
  623BOLB   C2A14934   8.228   8.878  21.419 -0.1649  0.1648  0.0052
  623BOLB   C3A14935   7.974   8.826  21.050  0.0464  0.1451 -0.0656
  623BOLB   C4A14936   7.735   8.626  20.764  0.1230  0.0038  0.1348
  623BOLB   C1B14937   8.034   8.742  21.915 -0.0066 -0.0900  0.0113
  623BOLB   C2B14938   8.031   9.164  21.870  0.0274 -0.0820  0.2564
  623BOLB   C3B14939   7.870   9.516  21.743 -0.3691 -0.0852 -0.1113
  623BOLB   C4B14940   7.665   9.852  21.871  0.1200  0.2438  0.2195
  623BOLB   NC214941   6.898   8.979  19.065 -0.2337  0.0492 -0.0653
  623BOLB   PO214942   6.472   8.775  18.920 -0.2634 -0.3173 -0.0820
  623BOLB   GL314943   6.758   8.383  19.046  0.1645  0.1713 -0.1639
  623BOLB   GL414944   6.798   8.078  18.913  0.0340 -0.3068 -0.1693
  623BOLB   C1C14945   6.966   8.522  19.521  0.1288  0.0854 -0.1331
  623BOLB   C2C14946   7.214   8.444  19.926 -0.2675 -0.0507 -0.3552
  623BOLB   C3C14947   7.139   8.150  20.376 -0.1924  0.1625 -0.1432
  623BOLB   C4C14948   7.363   8.228  20.711 -0.0486 -0.1171 -0.0993
  623BOLB   C1D14949   7.038   8.105  19.282  0.1042  0.0494 -0.1439
  623BOLB   C2D14950   7.386   8.144  19.526 -0.0611  0.2329 -0.4908
  623BOLB   C3D14951   7.794   8.103  19.596 -0.4995 -0.1417 -0.0472
  623BOLB   C4D14952   7.996   7.753  19.620 -0.1342 -0.1969  0.2079
  624BOLB   NC114953  12.291  -2.555  19.980  0.0616  0.1281 -0.2745
  624BOLB   PO114954  12.058  -2.939  20.173  0.1487  0.0398  0.0253
  624BOLB   GL114955  11.740  -3.120  19.958  0.1976  0.1781 -0.1841
  624BOLB   GL214956  11.515  -2.966  19.973  0.1313 -0.2061  0.0899
  624BOLB   C1A14957  11.838  -3.510  19.741  0.1743 -0.1737  0.4326
  624BOLB   C2A14958  11.530  -3.839  19.583  0.5705 -0.0095 -0.0905
  624BOLB   C3A14959  11.039  -3.801  19.665  0.1511  0.3457 -0.1091
  624BOLB   C4A14960  10.708  -4.096  19.467  0.0875 -0.1906  0.2885
  624BOLB   C1B14961  11.479  -3.246  19.603  0.0356  0.2066  0.7751
  624BOLB   C2B14962  11.250  -3.574  19.278  0.0076 -0.0024 -0.0420
  624BOLB   C3B14963  11.023  -3.692  19.015 -0.2044 -0.4402 -0.1323
  624BOLB   C4B14964  10.610  -3.949  18.951  0.0323 -0.2595  0.1407
  624BOLB   NC214965   9.409  -6.246  19.592  0.1103 -0.1887  0.3033
  624BOLB   PO214966   9.369  -5.981  19.201  0.1074  0.0988 -0.3035
  624BOLB   GL314967   9.615  -5.780  19.522  0.4179  0.1797  0.0690
  624BOLB   GL414968   9.734  -5.853  19.880  0.0005  0.0549 -0.0415
  624BOLB   C1C14969   9.699  -5.362  19.507 -0.2418  0.0593 -0.1052
  624BOLB   C2C14970   9.894  -4.948  19.543 -0.2104  0.2713 -0.0287
  624BOLB   C3C14971  10.263  -4.699  19.459 -0.1760  0.2618 -0.1781
  624BOLB   C4C14972  10.554  -4.454  19.443  0.2393 -0.2668  0.0160
  624BOLB   C1D14973  10.070  -5.546  19.999 -0.0301 -0.2432  0.3303
  624BOLB   C2D14974  10.300  -5.203  20.053 -0.2257 -0.1042  0.1057
  624BOLB   C3D14975  10.648  -5.012  20.083 -0.0477 -0.1425 -0.1678
  624BOLB   C4D14976  11.078  -5.136  20.173  0.1267 -0.1903  0.3238
  625BOLB   NC114977  14.550  -1.852  30.611 -0.2250 -0.1105 -0.0907
  625BOLB   PO114978  14.838  -1.679  30.748 -0.0401 -0.1200 -0.0261
  625BOLB   GL114979  14.889  -2.075  30.894  0.2959  0.2536  0.0840
  625BOLB   GL214980  15.077  -2.323  30.637 -0.0468 -0.1024 -0.1143
  625BOLB   C1A14981  14.912  -2.392  31.142  0.1250  0.2423 -0.0811
  625BOLB   C2A14982  15.068  -2.599  31.558  0.3218 -0.0400 -0.2169
  625BOLB   C3A14983  15.236  -2.782  31.861  0.0606 -0.0521 -0.0375
  625BOLB   C4A14984  15.264  -3.089  31.956  0.0347 -0.0291 -0.2536
  625BOLB   C1B14985  15.102  -2.692  30.770 -0.0025 -0.3350  0.2900
  625BOLB   C2B14986  14.979  -2.933  31.094 -0.2085  0.0402  0.1980
  625BOLB   C3B14987  14.818  -2.947  31.396 -0.4102 -0.1264  0.1695
  625BOLB   C4B14988  14.733  -3.028  31.793 -0.2183  0.1749  0.3600
  625BOLB   NC214989  16.110  -4.260  33.941  0.0827 -0.0549 -0.0946
  625BOLB   PO214990  15.683  -4.118  34.091 -0.0924 -0.3330  0.1164
  625BOLB   GL314991  15.823  -3.939  33.671  0.2491 -0.1326 -0.2078
  625BOLB   GL414992  16.125  -3.857  33.588 -0.3692 -0.1685 -0.1647
  625BOLB   C1C14993  15.769  -3.744  33.229  0.5342 -0.0531  0.1830
  625BOLB   C2C14994  15.968  -3.472  32.993  0.1512  0.2139  0.2762
  625BOLB   C3C14995  15.741  -3.347  32.645  0.0361 -0.1118  0.3706
  625BOLB   C4C14996  15.476  -3.377  32.267 -0.1555  0.1144 -0.1238
  625BOLB   C1D14997  15.933  -3.437  33.546  0.0632  0.0505  0.1115
  625BOLB   C2D14998  15.444  -3.261  33.596  0.2017  0.2412  0.0423
  625BOLB   C3D14999  15.225  -2.959  33.308 -0.0739  0.0900  0.1332
  625BOLB   C4D15000  14.881  -2.799  33.283  0.4659 -0.5501 -0.0629
  626BOLB   NC115001  12.379   4.158  33.087 -0.1430  0.1092  0.0761
  626BOLB   PO115002  12.690   4.391  33.173  0.0015  0.0123  0.2608
  626BOLB   GL115003  12.400   4.510  33.497  0.3724  0.2876 -0.1129
  626BOLB   GL215004  12.139   4.556  33.301 -0.1989 -0.1508  0.2015
  626BOLB   C1A15005  12.248   4.363  33.896 -0.2497 -0.2673 -0.4861
  626BOLB   C2A15006  12.147   4.417  34.304  0.2082 -0.1177 -0.1699
  626BOLB   C3A15007  12.083   4.247  34.670  0.0491  0.1695 -0.0438
  626BOLB   C4A15008  11.911   4.193  35.037 -0.0883 -0.4526  0.0271
  626BOLB   C1B15009  11.848   4.657  33.530 -0.2618 -0.0283 -0.1762
  626BOLB   C2B15010  11.756   4.683  33.983  0.3378  0.2338  0.1459
  626BOLB   C3B15011  11.670   4.678  34.381  0.0026  0.3960 -0.0893
  626BOLB   C4B15012  11.852   4.733  34.804  0.3806  0.0331  0.1027
  626BOLB   NC215013  11.702   4.692  37.162  0.2092  0.2068 -0.0745
  626BOLB   PO215014  11.339   4.546  37.095 -0.1414 -0.1945  0.3246
  626BOLB   GL315015  11.214   4.414  36.667 -0.4378  0.2400  0.1281
  626BOLB   GL415016  11.562   4.337  36.707  0.0601 -0.1992 -0.3954
  626BOLB   C1C15017  11.141   4.489  36.299 -0.0396  0.1350 -0.0440
  626BOLB   C2C15018  11.222   4.500  35.832 -0.1108  0.2084  0.0396
  626BOLB   C3C15019  11.385   4.267  35.506  0.2312  0.1820 -0.1025
  626BOLB   C4C15020  11.583   4.009  35.276  0.1019  0.1818  0.2931
  626BOLB   C1D15021  11.943   4.246  36.600  0.4155  0.0277 -0.2868
  626BOLB   C2D15022  12.178   4.356  36.170  0.0952 -0.1267  0.0017
  626BOLB   C3D15023  12.251   4.609  35.827  0.3090  0.0198 -0.0629
  626BOLB   C4D15024  12.466   4.688  35.588  0.0259 -0.0924 -0.1696
  627BOLB   NC115025  17.285  -4.629  23.183 -0.1926 -0.1746  0.0812
  627BOLB   PO115026  16.868  -4.588  23.121  0.3629 -0.0161  0.2300
  627BOLB   GL115027  16.785  -4.940  22.989  0.0993 -0.1409 -0.0885
  627BOLB   GL215028  16.782  -4.904  22.694  0.0422  0.1677  0.2467
  627BOLB   C1A15029  16.896  -5.315  23.086 -0.2374  0.1019 -0.1411
  627BOLB   C2A15030  16.947  -5.697  23.047 -0.1420  0.1035 -0.3262
  627BOLB   C3A15031  16.843  -6.000  22.738 -0.0299 -0.1119 -0.0234
  627BOLB   C4A15032  16.527  -6.252  22.820 -0.2061 -0.1979  0.1703
  627BOLB   C1B15033  16.889  -5.293  22.632 -0.3383 -0.0687  0.2955
  627BOLB   C2B15034  17.186  -5.607  22.496 -0.1239  0.1362 -0.0409
  627BOLB   C3B15035  17.265  -5.914  22.158  0.0541  0.1487  0.1108
  627BOLB   C4B15036  17.039  -5.808  21.769 -0.3418 -0.0811 -0.0529
  627BOLB   NC215037  17.585  -8.552  21.842 -0.0724 -0.2764 -0.0676
  627BOLB   PO215038  17.411  -8.567  22.293  0.1269 -0.0573  0.0631
  627BOLB   GL315039  17.338  -8.125  22.359 -0.1777 -0.0674  0.3049
  627BOLB   GL415040  17.494  -8.020  22.586  0.0072  0.1519 -0.0682
  627BOLB   C1C15041  17.154  -7.723  22.347  0.0329  0.1862 -0.1272
  627BOLB   C2C15042  16.895  -7.401  22.462 -0.1192  0.1510 -0.0704
  627BOLB   C3C15043  16.621  -7.025  22.388 -0.0363  0.2674 -0.0266
  627BOLB   C4C15044  16.543  -6.654  22.623  0.2178  0.2342  0.0708
  627BOLB   C1D15045  17.639  -7.682  22.368  0.0790 -0.2769 -0.3009
  627BOLB   C2D15046  17.748  -7.247  22.286  0.1174 -0.0155  0.2611
  627BOLB   C3D15047  17.675  -6.850  22.292  0.4058 -0.0644  0.0511
  627BOLB   C4D15048  17.454  -6.417  22.301 -0.1010 -0.0642  0.1621
  628BOLB   NC115049  24.063  -0.070  26.109  0.0141 -0.0300 -0.1761
  628BOLB   PO115050  23.819  -0.168  26.577 -0.1963 -0.0854  0.0235
  628BOLB   GL115051  24.127  -0.438  26.726 -0.0055  0.2848  0.1603
  628BOLB   GL215052  24.309  -0.416  26.996  0.1906 -0.0126 -0.2046
  628BOLB   C1A15053  24.366  -0.711  26.405 -0.0741 -0.0835  0.4068
  628BOLB   C2A15054  24.676  -0.764  26.091  0.0975 -0.2270  0.0209
  628BOLB   C3A15055  25.110  -0.921  25.969 -0.0797 -0.2849  0.0749
  628BOLB   C4A15056  25.222  -1.375  26.218 -0.0587 -0.2974 -0.0164
  628BOLB   C1B15057  24.577  -0.623  27.230  0.2182  0.1966 -0.0582
  628BOLB   C2B15058  24.829  -0.712  27.535 -0.0828  0.0830 -0.0820
  628BOLB   C3B15059  25.265  -0.861  27.708  0.0913  0.0646 -0.1294
  628BOLB   C4B15060  25.410  -1.186  27.720  0.2937  0.1550  0.0852
  628BOLB   NC215061  27.364  -2.975  25.514 -0.0305 -0.1378 -0.1027
  628BOLB   PO215062  27.109  -3.067  25.721  0.0989 -0.2163 -0.1846
  628BOLB   GL315063  26.648  -2.889  25.808 -0.0131 -0.2694  0.0501
  628BOLB   GL415064  26.568  -2.885  25.525 -0.1428  0.0675  0.4982
  628BOLB   C1C15065  26.369  -2.549  25.889 -0.2429 -0.1593 -0.1303
  628BOLB   C2C15066  25.938  -2.386  25.861 -0.1149  0.1447  0.4259
  628BOLB   C3C15067  25.648  -2.081  25.804 -0.1210 -0.1063 -0.2002
  628BOLB   C4C15068  25.280  -1.782  26.004 -0.1882 -0.3296 -0.2333
  628BOLB   C1D15069  26.168  -2.708  25.480  0.1563 -0.0210 -0.1744
  628BOLB   C2D15070  25.728  -2.469  25.385 -0.0040 -0.2017 -0.1394
  628BOLB   C3D15071  25.284  -2.322  25.462 -0.0096 -0.2410  0.0921
  628BOLB   C4D15072  25.150  -1.872  25.525  0.1070 -0.1269 -0.2050
  629BOLB   NC115073  16.185   6.814  16.962  0.2093 -0.2032  0.3061
  629BOLB   PO115074  16.435   7.065  17.006  0.0581  0.1181 -0.0158
  629BOLB   GL115075  16.460   7.133  16.550 -0.0699  0.1228 -0.1659
  629BOLB   GL215076  16.580   6.877  16.398  0.0358 -0.1930 -0.0323
  629BOLB   C1A15077  16.418   7.332  16.175 -0.0546 -0.0842 -0.3140
  629BOLB   C2A15078  16.526   7.416  15.784  0.0426 -0.5078  0.0974
  629BOLB   C3A15079  16.308   7.306  15.398 -0.2149 -0.1446 -0.1381
  629BOLB   C4A15080  16.325   7.437  15.036 -0.0158  0.1358  0.1076
  629BOLB   C1B15081  16.578   6.745  15.993  0.4585 -0.0251  0.1618
  629BOLB   C2B15082  16.597   6.678  15.523  0.2769 -0.0848 -0.0139
  629BOLB   C3B15083  16.359   6.821  15.074 -0.1571  0.2291 -0.1195
  629BOLB   C4B15084  16.335   6.602  14.631 -0.1796  0.3829  0.3910
  629BOLB   NC215085  15.596   8.001  13.179  0.2779 -0.1989  0.1882
  629BOLB   PO215086  15.664   8.354  13.444 -0.2020 -0.3663 -0.0082
  629BOLB   GL315087  15.417   8.359  13.799 -0.1285  0.2024  0.0206
  629BOLB   GL415088  15.448   8.626  14.028 -0.0566 -0.0912 -0.1030
  629BOLB   C1C15089  15.481   7.956  14.043 -0.0627  0.1766 -0.3501
  629BOLB   C2C15090  15.711   7.702  14.158 -0.0938  0.0765 -0.2880
  629BOLB   C3C15091  15.825   7.539  14.475 -0.3209  0.1016  0.1643
  629BOLB   C4C15092  16.177   7.615  14.696  0.1185  0.3307 -0.2342
  629BOLB   C1D15093  15.505   8.341  14.331  0.0311  0.0930  0.1643
  629BOLB   C2D15094  15.325   7.974  14.497 -0.1027  0.3819 -0.1477
  629BOLB   C3D15095  15.523   7.789  14.772  0.2453  0.0520  0.0868
  629BOLB   C4D15096  15.860   7.608  15.078  0.0580 -0.0296  0.2436
  630BOLB   NC115097  23.383   8.365  27.487  0.0293 -0.0704  0.3773
  630BOLB   PO115098  23.795   8.259  27.478 -0.0985 -0.0411  0.2939
  630BOLB   GL115099  23.897   8.546  27.476 -0.2570 -0.0923  0.0597
  630BOLB   GL215100  24.074   8.559  27.773  0.2959 -0.1364 -0.0372
  630BOLB   C1A15101  24.088   8.752  27.213 -0.3185  0.1166 -0.1504
  630BOLB   C2A15102  24.360   9.104  27.140 -0.1953  0.2085 -0.0377
  630BOLB   C3A15103  24.500   9.369  27.420 -0.1950 -0.0847  0.0661
  630BOLB   C4A15104  24.710   9.490  27.834 -0.0750 -0.3385 -0.2763
  630BOLB   C1B15105  24.437   8.706  27.599 -0.2971  0.0322  0.1084
  630BOLB   C2B15106  24.756   8.847  27.791 -0.3867 -0.0129  0.1289
  630BOLB   C3B15107  25.081   8.742  27.741  0.1411 -0.1311  0.1332
  630BOLB   C4B15108  25.410   8.545  27.688 -0.2172  0.1265 -0.0023
  630BOLB   NC215109  26.739  10.577  28.066 -0.0438  0.1308 -0.2040
  630BOLB   PO215110  26.661  10.951  27.884  0.0205  0.0231 -0.0450
  630BOLB   GL315111  26.216  10.941  27.859  0.1713  0.0673  0.0489
  630BOLB   GL415112  25.937  11.252  27.925  0.0292 -0.5842  0.0401
  630BOLB   C1C15113  25.821  10.705  27.863 -0.0162  0.2752  0.1347
  630BOLB   C2C15114  25.391  10.485  27.804 -0.0365  0.3245 -0.2881
  630BOLB   C3C15115  25.132  10.195  27.954 -0.0037 -0.3989 -0.2559
  630BOLB   C4C15116  24.769   9.945  27.984 -0.0402 -0.1105  0.1751
  630BOLB   C1D15117  25.672  11.184  27.812  0.2656  0.1737  0.4198
  630BOLB   C2D15118  25.321  10.929  27.646 -0.0897  0.0781  0.2040
  630BOLB   C3D15119  25.037  10.600  27.469 -0.1817  0.1479 -0.1473
  630BOLB   C4D15120  24.682  10.313  27.204 -0.1757  0.2887 -0.2164
  631BOLB   NC115121   9.035   3.756  30.933  0.2229  0.0829  0.1367
  631BOLB   PO115122   8.820   3.781  30.569 -0.1837 -0.0739 -0.2284
  631BOLB   GL115123   8.502   3.606  30.764  0.0627 -0.0513 -0.0677
  631BOLB   GL215124   8.605   3.600  31.077 -0.0216  0.4169 -0.2534
  631BOLB   C1A15125   8.182   3.372  30.971  0.0766  0.0562 -0.1267
  631BOLB   C2A15126   8.118   3.170  31.362  0.0321 -0.2215 -0.1444
  631BOLB   C3A15127   8.033   3.130  31.805 -0.2070  0.0095 -0.0591
  631BOLB   C4A15128   8.023   3.059  32.222  0.1873  0.1941 -0.1381
  631BOLB   C1B15129   8.338   3.758  31.330 -0.2435 -0.0733  0.1371
  631BOLB   C2B15130   7.941   3.938  31.449  0.0280  0.1518  0.1824
  631BOLB   C3B15131   7.718   4.157  31.811  0.1226  0.0268  0.0367
  631BOLB   C4B15132   7.853   4.269  32.318 -0.0255  0.0853 -0.0606
  631BOLB   NC215133   6.070   1.469  33.907  0.1385  0.0764  0.1814
  631BOLB   PO215134   6.248   1.728  33.455 -0.0542 -0.0402 -0.2181
  631BOLB   GL315135   6.563   1.691  33.166 -0.0296 -0.1603  0.0107
  631BOLB   GL415136   6.647   1.743  32.795  0.0406  0.2687  0.3812
  631BOLB   C1C15137   6.999   1.941  33.156 -0.0199  0.0751 -0.1502
  631BOLB   C2C15138   7.159   2.350  33.042  0.1790 -0.3020 -0.3056
  631BOLB   C3C15139   7.445   2.464  32.753  0.1365 -0.0854  0.0708
  631BOLB   C4C15140   7.680   2.861  32.375 -0.1833  0.2810  0.0846
  631BOLB   C1D15141   6.698   2.085  32.577 -0.1803  0.1677 -0.2548
  631BOLB   C2D15142   6.941   2.442  32.541 -0.2935  0.0392 -0.1923
  631BOLB   C3D15143   7.138   2.759  32.540 -0.1390  0.3011 -0.1198
  631BOLB   C4D15144   7.455   3.062  32.772 -0.2289  0.0218  0.2186
  632BOLB   NC115145  14.688   7.095  17.354  0.0639 -0.0897  0.0137
  632BOLB   PO115146  14.271   6.848  17.546 -0.0291 -0.2274  0.0994
  632BOLB   GL115147  14.143   7.190  17.167  0.0784  0.1163  0.0232
  632BOLB   GL215148  13.831   7.135  16.991 -0.1545 -0.2284  0.3462
  632BOLB   C1A15149  14.032   7.561  16.935  0.1673  0.0553  0.0152
  632BOLB   C2A15150  13.937   7.852  16.816  0.1154 -0.1000  0.0847
  632BOLB   C3A15151  14.073   8.211  16.477 -0.0721  0.0761 -0.1254
  632BOLB   C4A15152  14.177   8.330  16.078 -0.1666  0.1195 -0.1140
  632BOLB   C1B15153  13.558   7.345  16.767  0.0814 -0.0923  0.1999
  632BOLB   C2B15154  13.356   7.724  16.569 -0.0923 -0.3634 -0.3621
  632BOLB   C3B15155  13.147   7.709  16.250  0.1279  0.0297  0.0120
  632BOLB   C4B15156  12.866   7.423  16.165 -0.0603 -0.0088  0.2651
  632BOLB   NC215157  14.780   9.221  13.750  0.1788 -0.0386 -0.1320
  632BOLB   PO215158  14.531   9.127  14.134 -0.0525  0.3242  0.1998
  632BOLB   GL315159  14.757   9.109  14.498 -0.1590 -0.0855  0.2703
  632BOLB   GL415160  15.081   9.210  14.227  0.3847 -0.2823  0.0050
  632BOLB   C1C15161  14.554   9.041  14.858 -0.0657  0.2803 -0.0110
  632BOLB   C2C15162  14.259   8.829  15.134 -0.2083  0.3916  0.1476
  632BOLB   C3C15163  14.238   8.442  15.215 -0.2849  0.2873  0.0229
  632BOLB   C4C15164  14.227   8.258  15.615 -0.0822 -0.2935  0.1429
  632BOLB   C1D15165  15.320   8.930  14.553  0.1487  0.2684  0.1024
  632BOLB   C2D15166  15.581   8.721  14.732  0.1720  0.0953 -0.1749
  632BOLB   C3D15167  15.654   8.280  14.867  0.0686 -0.2826  0.2166
  632BOLB   C4D15168  15.962   8.043  14.981 -0.3118  0.0651 -0.0027
  633BOLB   NC115169  14.088   0.316  16.441  0.2312  0.0161 -0.3081
  633BOLB   PO115170  14.115   0.655  16.212  0.0508 -0.3746  0.1760
  633BOLB   GL115171  13.982   0.537  15.825  0.1695 -0.1584  0.0485
  633BOLB   GL215172  14.298   0.627  15.584 -0.0411 -0.2853 -0.3953
  633BOLB   C1A15173  13.855   0.297  15.446 -0.0839  0.2729  0.2689
  633BOLB   C2A15174  13.559  -0.052  15.189 -0.2251 -0.0908  0.0488
  633BOLB   C3A15175  13.421  -0.279  14.816 -0.0820 -0.0460 -0.1724
  633BOLB   C4A15176  13.349  -0.049  14.413  0.1006  0.1992 -0.0349
  633BOLB   C1B15177  14.223   0.734  15.171 -0.0816  0.0034 -0.3879
  633BOLB   C2B15178  13.937   0.632  14.814 -0.1376  0.2090  0.1600
  633BOLB   C3B15179  13.738   0.291  14.625  0.1703 -0.0649  0.3213
  633BOLB   C4B15180  13.785   0.113  14.283  0.0818 -0.1289 -0.1966
  633BOLB   NC215181  13.149   0.960  12.327  0.0008 -0.3014  0.1397
  633BOLB   PO215182  12.954   1.027  12.733  0.3504 -0.1832 -0.2854
  633BOLB   GL315183  13.034   1.271  13.124  0.0920 -0.2769  0.0030
  633BOLB   GL415184  13.391   1.336  13.114 -0.0199  0.2270  0.3340
  633BOLB   C1C15185  12.916   1.393  13.527  0.3258 -0.1309 -0.0483
  633BOLB   C2C15186  12.957   1.161  13.884  0.1712 -0.2626  0.1132
  633BOLB   C3C15187  13.042   0.641  14.008  0.2564 -0.1636 -0.0131
  633BOLB   C4C15188  13.203   0.377  14.332 -0.1592 -0.1441 -0.2584
  633BOLB   C1D15189  13.718   1.403  13.341 -0.0239  0.0756 -0.0870
  633BOLB   C2D15190  13.907   1.297  13.770  0.0474 -0.0997 -0.2438
  633BOLB   C3D15191  13.789   1.544  14.119 -0.4510  0.2335  0.2262
  633BOLB   C4D15192  13.538   1.790  14.330  0.1658  0.2112  0.1951
  634BOLB   NC115193  15.722   8.494  18.401 -0.2932  0.0091 -0.0478
  634BOLB   PO115194  15.893   8.741  18.066  0.2699  0.0461  0.0249
  634BOLB   GL115195  15.910   8.990  17.711  0.1888  0.3290 -0.1743
  634BOLB   GL215196  15.866   8.644  17.500 -0.2600  0.2064  0.0252
  634BOLB   C1A15197  15.757   9.341  17.392  0.0613 -0.0358 -0.3275
  634BOLB   C2A15198  16.037   9.651  17.296 -0.0308 -0.4035 -0.0352
  634BOLB   C3A15199  16.121   9.758  16.859  0.1648  0.3030 -0.2014
  634BOLB   C4A15200  15.928   9.761  16.421  0.0782  0.2110  0.4253
  634BOLB   C1B15201  15.945   8.891  17.170 -0.4507  0.0192 -0.0198
  634BOLB   C2B15202  15.841   9.251  16.901  0.3904  0.0403 -0.1511
  634BOLB   C3B15203  15.916   9.286  16.540 -0.0050 -0.0735  0.1114
  634BOLB   C4B15204  16.264   9.411  16.291 -0.1806  0.0154  0.3031
  634BOLB   NC215205  15.788  10.758  14.286 -0.1573  0.1982  0.4611
  634BOLB   PO215206  15.388  10.424  14.340  0.0053  0.2152 -0.1727
  634BOLB   GL315207  15.449  10.040  14.395 -0.0622 -0.3071  0.1341
  634BOLB   GL415208  15.114   9.789  14.528 -0.0365 -0.2122  0.1565
  634BOLB   C1C15209  15.564   9.861  14.697  0.5939 -0.1672  0.0075
  634BOLB   C2C15210  15.608   9.610  15.080  0.0421  0.3399  0.1530
  634BOLB   C3C15211  15.812   9.691  15.502  0.1112  0.3661  0.0704
  634BOLB   C4C15212  16.018   9.685  15.859  0.1732  0.2503 -0.3251
  634BOLB   C1D15213  15.168   9.438  14.736 -0.1761  0.1794  0.3170
  634BOLB   C2D15214  15.312   9.206  15.169 -0.0114  0.1671  0.1504
  634BOLB   C3D15215  15.632   9.131  15.432  0.1770 -0.0546  0.4460
  634BOLB   C4D15216  15.606   8.795  15.786 -0.2651  0.0152  0.0902
  635BOLB   NC115217  21.780  -0.814  27.369 -0.0318  0.0079 -0.2474
  635BOLB   PO115218  22.213  -0.788  27.436 -0.2076 -0.2355 -0.2564
  635BOLB   GL115219  22.429  -1.103  27.749  0.0067 -0.0940 -0.0217
  635BOLB   GL215220  22.340  -1.377  27.763  0.1961  0.0484 -0.1219
  635BOLB   C1A15221  22.807  -1.218  28.003 -0.1075  0.0902  0.0687
  635BOLB   C2A15222  23.065  -1.581  28.174 -0.0853  0.1766  0.0641
  635BOLB   C3A15223  23.050  -2.007  28.195  0.0627 -0.0681 -0.0996
  635BOLB   C4A15224  23.311  -2.239  28.114 -0.2689  0.0386 -0.2891
  635BOLB   C1B15225  22.634  -1.634  27.696 -0.0002  0.2550 -0.1046
  635BOLB   C2B15226  22.973  -1.869  27.743 -0.2293 -0.0817 -0.2822
  635BOLB   C3B15227  23.353  -2.095  27.668  0.3401 -0.2470  0.0159
  635BOLB   C4B15228  23.507  -2.554  27.722 -0.2619 -0.1080 -0.1377
  635BOLB   NC215229  24.994  -2.821  30.368 -0.3007 -0.1309  0.0395
  635BOLB   PO215230  24.743  -3.194  30.194  0.0034  0.0976  0.0787
  635BOLB   GL315231  24.574  -2.906  29.936  0.3338 -0.1982  0.2233
  635BOLB   GL415232  24.658  -2.558  30.058  0.1936  0.1729 -0.2585
  635BOLB   C1C15233  24.235  -2.823  29.548 -0.0320 -0.1042  0.3019
  635BOLB   C2C15234  23.994  -2.608  29.156  0.2695 -0.2800  0.2040
  635BOLB   C3C15235  23.564  -2.636  28.893  0.0560  0.0641  0.0565
  635BOLB   C4C15236  23.319  -2.576  28.548  0.1232  0.0511 -0.0353
  635BOLB   C1D15237  24.212  -2.406  30.044 -0.1982  0.0438  0.0520
  635BOLB   C2D15238  23.889  -2.499  29.688 -0.2818  0.0011  0.2273
  635BOLB   C3D15239  23.649  -2.017  29.558  0.2763  0.1905 -0.0797
  635BOLB   C4D15240  23.338  -1.634  29.645 -0.0097 -0.2124  0.0782
  636BOLB   NC115241  19.320   9.131  19.981  0.1303 -0.0289 -0.0514
  636BOLB   PO115242  19.218   9.165  19.507 -0.1605 -0.1405 -0.0508
  636BOLB   GL115243  19.031   9.534  19.277 -0.0556  0.2603 -0.3357
  636BOLB   GL215244  18.737   9.760  19.291 -0.1337 -0.3182 -0.2690
  636BOLB   C1A15245  19.339   9.806  19.093 -0.1251  0.0112 -0.0024
  636BOLB   C2A15246  19.379  10.247  18.919  0.1912 -0.0635  0.3166
  636BOLB   C3A15247  19.122  10.413  18.647  0.2103  0.2667 -0.0429
  636BOLB   C4A15248  19.075  10.444  18.216 -0.3541 -0.3726  0.3319
  636BOLB   C1B15249  18.907   9.989  19.030 -0.0264 -0.1638  0.3144
  636BOLB   C2B15250  19.044  10.395  19.250  0.3285 -0.1963 -0.0367
  636BOLB   C3B15251  19.065  10.848  19.444 -0.2064 -0.0880 -0.1836
  636BOLB   C4B15252  19.159  11.253  19.398  0.1373 -0.0230  0.1618
  636BOLB   NC215253  20.698  10.756  16.351 -0.0855 -0.1989 -0.1159
  636BOLB   PO215254  20.286  11.083  16.369  0.2425 -0.0722 -0.0446
  636BOLB   GL315255  20.337  10.870  16.800 -0.1324 -0.3122 -0.0542
  636BOLB   GL415256  20.683  10.850  16.886  0.2764  0.0427  0.2479
  636BOLB   C1C15257  20.268  10.904  17.081 -0.1508  0.0718  0.0025
  636BOLB   C2C15258  19.942  10.994  17.397 -0.0662 -0.1333  0.0977
  636BOLB   C3C15259  19.548  10.816  17.600  0.0014 -0.2700 -0.0956
  636BOLB   C4C15260  19.415  10.554  17.990 -0.0897 -0.1535  0.6329
  636BOLB   C1D15261  20.692  10.903  17.309  0.1951 -0.0380  0.1051
  636BOLB   C2D15262  20.516  11.080  17.628 -0.1088 -0.2713  0.0833
  636BOLB   C3D15263  20.397  10.768  17.948 -0.0187 -0.4217  0.1583
  636BOLB   C4D15264  20.514  10.708  18.358 -0.1645  0.0214 -0.1639
  637BOLB   NC115265  20.439  -1.953  27.984 -0.1458  0.1284 -0.0155
  637BOLB   PO115266  20.896  -1.951  27.777 -0.3752  0.2222 -0.1325
  637BOLB   GL115267  20.981  -2.165  28.089  0.0596  0.3110 -0.0043
  637BOLB   GL215268  21.153  -1.982  28.216 -0.2260  0.1509  0.0635
  637BOLB   C1A15269  21.138  -2.420  28.559  0.1279  0.1754 -0.2144
  637BOLB   C2A15270  21.132  -2.713  28.939 -0.4660  0.1015 -0.1017
  637BOLB   C3A15271  21.396  -2.987  29.190  0.0356  0.1274 -0.1038
  637BOLB   C4A15272  21.463  -3.068  29.643 -0.1728  0.2331 -0.1324
  637BOLB   C1B15273  21.511  -2.149  28.223 -0.3564  0.0667  0.1811
  637BOLB   C2B15274  21.724  -2.405  28.362 -0.2756 -0.0765 -0.0389
  637BOLB   C3B15275  21.557  -2.785  28.606 -0.1582  0.0753 -0.2273
  637BOLB   C4B15276  21.574  -3.261  28.624 -0.0875 -0.0056 -0.2195
  637BOLB   NC215277  23.450  -4.629  30.847  0.1969 -0.1309  0.3844
  637BOLB   PO215278  23.151  -4.254  30.737  0.0629  0.2092 -0.0266
  637BOLB   GL315279  22.821  -4.035  30.593 -0.2379  0.3855  0.5480
  637BOLB   GL415280  22.860  -3.683  30.590 -0.1385  0.1951  0.0644
  637BOLB   C1C15281  22.571  -3.993  30.217 -0.1785  0.0509 -0.0822
  637BOLB   C2C15282  22.221  -3.714  30.140  0.0443 -0.1978 -0.0288
  637BOLB   C3C15283  22.037  -3.619  29.872  0.0524 -0.0576 -0.2986
  637BOLB   C4C15284  21.788  -3.358  29.741  0.1822  0.1658  0.0730
  637BOLB   C1D15285  22.547  -3.452  30.375 -0.0971 -0.3764  0.1195
  637BOLB   C2D15286  22.396  -3.251  30.004  0.1993 -0.0808 -0.0769
  637BOLB   C3D15287  22.187  -3.162  29.559  0.0339  0.0388 -0.0624
  637BOLB   C4D15288  21.851  -3.248  29.274 -0.2606  0.0336  0.0473
  638BOLB   NC115289  14.964  -0.986  17.305  0.1038  0.0757  0.1259
  638BOLB   PO115290  14.797  -0.739  16.902 -0.0500  0.2826 -0.0640
  638BOLB   GL115291  14.628  -1.000  16.542  0.2608  0.0273  0.1169
  638BOLB   GL215292  14.371  -1.290  16.357  0.0627  0.1288  0.0025
  638BOLB   C1A15293  14.920  -1.287  16.271  0.0572  0.0634 -0.0022
  638BOLB   C2A15294  14.931  -1.502  15.839  0.0820  0.3542 -0.1589
  638BOLB   C3A15295  14.951  -1.804  15.483 -0.2137 -0.0167  0.0739
  638BOLB   C4A15296  14.834  -2.174  15.310 -0.2013 -0.0513 -0.1224
  638BOLB   C1B15297  14.007  -1.427  16.209  0.2447  0.2050 -0.0950
  638BOLB   C2B15298  13.602  -1.583  16.132  0.0702  0.1369 -0.0733
  638BOLB   C3B15299  13.398  -1.858  16.081 -0.3551 -0.0886 -0.0645
  638BOLB   C4B15300  13.275  -2.293  16.152 -0.0712 -0.1358  0.0118
  638BOLB   NC215301  13.123  -3.978  13.685  0.0652 -0.1232  0.0249
  638BOLB   PO215302  13.473  -3.781  13.987  0.1431 -0.0181  0.3617
  638BOLB   GL315303  13.745  -3.578  14.355  0.2831  0.0375  0.1274
  638BOLB   GL415304  13.807  -3.196  14.226  0.0897 -0.1802  0.1452
  638BOLB   C1C15305  13.936  -3.458  14.782  0.0458  0.2754  0.1084
  638BOLB   C2C15306  14.064  -3.227  15.177  0.1002  0.0054 -0.1557
  638BOLB   C3C15307  14.250  -2.924  15.287 -0.0998 -0.1415  0.2530
  638BOLB   C4C15308  14.481  -2.515  15.394 -0.1088  0.0552  0.0339
  638BOLB   C1D15309  14.025  -3.011  14.470 -0.2434 -0.0247 -0.0012
  638BOLB   C2D15310  14.335  -3.103  14.777 -0.2394 -0.0248 -0.3588
  638BOLB   C3D15311  14.740  -2.930  14.879  0.0662  0.2987 -0.1041
  638BOLB   C4D15312  15.146  -3.014  14.943  0.0034 -0.2247  0.2703
  639BOLB   NC115313  12.615   5.835  18.010 -0.2373  0.0041 -0.0729
  639BOLB   PO115314  12.644   6.132  17.718  0.2564  0.1461 -0.0329
  639BOLB   GL115315  12.418   6.407  17.503  0.1576 -0.0513  0.0665
  639BOLB   GL215316  12.030   6.388  17.517  0.0293 -0.3846  0.0726
  639BOLB   C1A15317  12.410   6.445  17.065  0.0205  0.1353 -0.1035
  639BOLB   C2A15318  12.427   6.221  16.624  0.2495 -0.0586  0.1351
  639BOLB   C3A15319  12.346   5.959  16.257  0.4067 -0.2879 -0.3298
  639BOLB   C4A15320  12.281   6.157  15.798 -0.3394  0.2613  0.3542
  639BOLB   C1B15321  12.001   6.596  17.277 -0.1878  0.2995 -0.3458
  639BOLB   C2B15322  12.010   6.661  16.805  0.1062  0.3294 -0.1294
  639BOLB   C3B15323  11.861   6.837  16.368 -0.2368 -0.0639  0.0535
  639BOLB   C4B15324  11.734   7.116  15.999  0.2433  0.1797  0.0224
  639BOLB   NC215325  11.372   6.971  13.868 -0.2985 -0.1566 -0.2419
  639BOLB   PO215326  11.167   7.367  13.942 -0.2691  0.1649 -0.0185
  639BOLB   GL315327  11.591   7.355  14.166 -0.4094 -0.1597 -0.1499
  639BOLB   GL415328  11.918   7.420  14.258 -0.1621  0.0065 -0.0160
  639BOLB   C1C15329  11.709   6.977  14.421  0.2179 -0.4062 -0.0460
  639BOLB   C2C15330  11.751   6.637  14.710 -0.1395 -0.1182 -0.2343
  639BOLB   C3C15331  11.885   6.446  15.118  0.0116  0.2252  0.4724
  639BOLB   C4C15332  12.223   6.449  15.406  0.2600 -0.2316 -0.2660
  639BOLB   C1D15333  12.100   7.121  14.664 -0.0692 -0.4204 -0.2591
  639BOLB   C2D15334  12.417   7.224  14.939  0.1492  0.1998 -0.0084
  639BOLB   C3D15335  12.530   7.407  15.417  0.0666  0.1268  0.0138
  639BOLB   C4D15336  12.445   7.449  15.829  0.0630  0.1459 -0.2244
  640BOLB   NC115337  10.324   0.610  29.733  0.0335 -0.2579  0.3319
  640BOLB   PO115338  10.077   0.411  30.177 -0.1198  0.1882  0.1077
  640BOLB   GL115339   9.972   0.048  30.392 -0.2286 -0.0072 -0.2120
  640BOLB   GL215340  10.047   0.011  30.680 -0.1979 -0.2578  0.3927
  640BOLB   C1A15341   9.740  -0.365  30.556  0.1328 -0.0672 -0.1333
  640BOLB   C2A15342   9.454  -0.478  30.797  0.0155 -0.0527 -0.1077
  640BOLB   C3A15343   9.114  -0.642  31.081  0.0470 -0.0313 -0.2605
  640BOLB   C4A15344   9.157  -0.949  31.254  0.2335  0.0595 -0.0017
  640BOLB   C1B15345   9.619  -0.044  31.067  0.0221  0.0067 -0.1249
  640BOLB   C2B15346   9.411  -0.363  31.298 -0.2191 -0.1432  0.0420
  640BOLB   C3B15347   9.237  -0.468  31.638  0.0372  0.0670  0.1271
  640BOLB   C4B15348   9.000  -0.639  31.910  0.4222 -0.1826  0.0902
  640BOLB   NC215349   7.900  -1.767  33.255 -0.1132  0.0955  0.2368
  640BOLB   PO215350   8.275  -1.634  33.383 -0.1283 -0.0043 -0.1232
  640BOLB   GL315351   8.473  -1.297  33.075 -0.1480 -0.1733 -0.0826
  640BOLB   GL415352   8.433  -0.874  33.103  0.1729  0.2860  0.0361
  640BOLB   C1C15353   8.750  -1.140  32.747 -0.0097 -0.0892  0.0185
  640BOLB   C2C15354   8.691  -1.168  32.310  0.0821 -0.1272 -0.2696
  640BOLB   C3C15355   8.784  -1.150  31.952 -0.0563 -0.1794  0.1659
  640BOLB   C4C15356   9.002  -1.103  31.639 -0.3277 -0.4900  0.2197
  640BOLB   C1D15357   8.705  -0.650  32.833  0.1038  0.0834 -0.0640
  640BOLB   C2D15358   8.580  -0.286  32.644 -0.3050 -0.0045 -0.3279
  640BOLB   C3D15359   8.618   0.045  32.435  0.0281 -0.1400  0.1587
  640BOLB   C4D15360   8.310   0.462  32.427 -0.2555  0.0721 -0.0750
  641BOLB   NC115361  19.606  -2.837  22.621 -0.0954  0.0281  0.2189
  641BOLB   PO115362  19.625  -3.291  22.560  0.1896 -0.2275 -0.5835
  641BOLB   GL115363  19.949  -3.706  22.423  0.0936  0.0104  0.1598
  641BOLB   GL215364  20.234  -3.570  22.487 -0.1960  0.0929  0.2208
  641BOLB   C1A15365  20.028  -4.171  22.380  0.2538 -0.0495 -0.0185
  641BOLB   C2A15366  20.034  -4.466  22.114  0.1008 -0.1374 -0.3148
  641BOLB   C3A15367  20.185  -4.779  21.834  0.1393  0.2273  0.0704
  641BOLB   C4A15368  20.457  -5.003  21.670  0.0388 -0.0051 -0.0596
  641BOLB   C1B15369  20.472  -3.960  22.618 -0.1149  0.0147  0.1647
  641BOLB   C2B15370  20.864  -4.318  22.551  0.0883  0.1481  0.0853
  641BOLB   C3B15371  21.053  -4.561  22.222 -0.1791  0.2129  0.2531
  641BOLB   C4B15372  20.992  -4.893  21.889  0.0591  0.0269 -0.0120
  641BOLB   NC215373  21.587  -7.336  22.094  0.0125  0.3262 -0.0039
  641BOLB   PO215374  21.441  -7.286  21.706 -0.1275  0.0410 -0.4135
  641BOLB   GL315375  21.316  -6.893  21.554  0.5269  0.1736 -0.3289
  641BOLB   GL415376  21.541  -6.870  21.175  0.1794  0.1359 -0.0818
  641BOLB   C1C15377  20.888  -6.765  21.555  0.0060 -0.1900 -0.1198
  641BOLB   C2C15378  20.901  -6.314  21.587  0.2374 -0.5025  0.0952
  641BOLB   C3C15379  20.867  -5.898  21.534 -0.3074  0.1948 -0.0721
  641BOLB   C4C15380  20.798  -5.358  21.626  0.1708 -0.4213 -0.1322
  641BOLB   C1D15381  21.238  -6.558  21.173  0.1993 -0.0509 -0.2965
  641BOLB   C2D15382  21.146  -6.247  20.884  0.3250 -0.1737  0.0281
  641BOLB   C3D15383  20.883  -5.891  20.618  0.0601  0.2411 -0.1051
  641BOLB   C4D15384  20.467  -6.002  20.395  0.0761 -0.1369 -0.2620
  642BOLB   NC115385   8.410   7.141  23.443  0.2369 -0.1005 -0.0744
  642BOLB   PO115386   8.439   6.971  23.051 -0.1583  0.0415 -0.1021
  642BOLB   GL115387   7.996   7.159  22.906 -0.1663 -0.0246  0.7301
  642BOLB   GL215388   7.761   6.910  22.920  0.0300  0.4434  0.1893
  642BOLB   C1A15389   7.664   7.370  22.842  0.2594 -0.2054  0.1589
  642BOLB   C2A15390   7.460   7.600  22.621 -0.0975 -0.0540  0.3057
  642BOLB   C3A15391   7.103   7.772  22.606 -0.0343  0.0504 -0.1827
  642BOLB   C4A15392   6.776   7.743  22.247  0.0940 -0.0920  0.0048
  642BOLB   C1B15393   7.261   6.940  22.867  0.1468  0.0562  0.1098
  642BOLB   C2B15394   6.880   6.779  22.814  0.1604 -0.1166 -0.0223
  642BOLB   C3B15395   6.576   6.873  22.642 -0.2422 -0.0680 -0.1867
  642BOLB   C4B15396   6.269   6.873  22.337 -0.1290 -0.0133 -0.3745
  642BOLB   NC215397   4.833   9.316  21.422  0.1147  0.3328 -0.1323
  642BOLB   PO215398   5.097   9.148  21.160 -0.2316  0.0632  0.3270
  642BOLB   GL315399   5.263   8.969  21.481 -0.2643 -0.0005  0.1822
  642BOLB   GL415400   5.086   8.828  21.660  0.1426  0.0322  0.2936
  642BOLB   C1C15401   5.536   8.690  21.483  0.3088 -0.1258 -0.2134
  642BOLB   C2C15402   5.871   8.473  21.721 -0.5561  0.5615 -0.0009
  642BOLB   C3C15403   6.159   8.296  22.020  0.4222  0.0990  0.0819
  642BOLB   C4C15404   6.464   7.999  22.150 -0.1774  0.2577 -0.1178
  642BOLB   C1D15405   5.387   8.796  21.987  0.3219 -0.2069 -0.0026
  642BOLB   C2D15406   5.659   8.642  22.182 -0.1027  0.1986  0.0518
  642BOLB   C3D15407   5.994   8.501  22.444  0.1278  0.2533 -0.1897
  642BOLB   C4D15408   6.246   8.277  22.661 -0.3746  0.0604  0.0439
  643BOLB   NC115409  18.299  11.595  29.507  0.0868 -0.2272 -0.2395
  643BOLB   PO115410  18.323  11.114  29.527 -0.1981  0.0899  0.2814
  643BOLB   GL115411  18.723  11.370  29.735 -0.2466  0.0824 -0.0201
  643BOLB   GL215412  18.962  11.520  29.523  0.0136 -0.2582 -0.1463
  643BOLB   C1A15413  18.748  11.655  29.957 -0.1406 -0.2083 -0.1373
  643BOLB   C2A15414  18.992  12.020  30.161 -0.1779 -0.0697 -0.1378
  643BOLB   C3A15415  19.198  12.238  30.496  0.1161  0.3235 -0.2969
  643BOLB   C4A15416  19.546  12.494  30.704  0.1445  0.0245  0.2525
  643BOLB   C1B15417  19.182  11.929  29.644 -0.1297  0.1937 -0.3109
  643BOLB   C2B15418  19.263  12.256  29.794  0.2400  0.0263 -0.0417
  643BOLB   C3B15419  19.184  12.591  29.945 -0.1903  0.0848 -0.3951
  643BOLB   C4B15420  18.922  12.885  30.101 -0.0823 -0.2254  0.0524
  643BOLB   NC215421  21.978  14.109  31.650 -0.0198  0.0792 -0.0126
  643BOLB   PO215422  21.582  13.993  31.303  0.2687 -0.3383 -0.1579
  643BOLB   GL315423  21.269  13.870  30.940 -0.0891 -0.0871 -0.2729
  643BOLB   GL415424  21.406  14.086  30.697  0.1442  0.0549  0.0644
  643BOLB   C1C15425  20.977  13.491  30.830 -0.2084 -0.1183 -0.1155
  643BOLB   C2C15426  20.645  13.171  30.649  0.0820  0.0596 -0.1915
  643BOLB   C3C15427  20.384  12.894  30.692 -0.2400  0.1013  0.0516
  643BOLB   C4C15428  19.991  12.611  30.746 -0.0900  0.4330  0.1831
  643BOLB   C1D15429  21.181  13.833  30.417 -0.3356  0.1896 -0.0063
  643BOLB   C2D15430  21.052  13.889  30.047  0.1127 -0.0657 -0.0322
  643BOLB   C3D15431  21.123  13.459  29.932 -0.0234  0.1557 -0.0764
  643BOLB   C4D15432  21.443  13.169  29.839 -0.4052  0.0369 -0.1222
  644BOLB   NC115433  16.449  12.174  26.307 -0.3174 -0.1504 -0.1929
  644BOLB   PO115434  16.422  12.634  26.410 -0.3304  0.0778 -0.0733
  644BOLB   GL115435  16.656  12.967  26.554 -0.3192  0.2416 -0.2409
  644BOLB   GL215436  16.880  12.933  26.430  0.4581 -0.0109 -0.0920
  644BOLB   C1A15437  16.739  13.400  26.350 -0.1177 -0.0536 -0.1642
  644BOLB   C2A15438  16.821  13.677  26.591 -0.0323 -0.4021  0.2600
  644BOLB   C3A15439  16.733  14.031  26.695 -0.1511  0.2152  0.1584
  644BOLB   C4A15440  16.881  14.548  26.721  0.3930  0.1906 -0.0280
  644BOLB   C1B15441  17.210  13.343  26.472  0.2271 -0.0762 -0.0568
  644BOLB   C2B15442  17.233  13.728  26.335  0.1395  0.4221 -0.2602
  644BOLB   C3B15443  17.510  14.095  26.317  0.2969 -0.0958  0.2538
  644BOLB   C4B15444  17.879  14.344  26.198  0.1049 -0.0785 -0.1418
  644BOLB   NC215445  15.921  16.960  26.821  0.2774 -0.3654 -0.2392
  644BOLB   PO215446  16.014  16.526  26.846 -0.1412 -0.1969 -0.1878
  644BOLB   GL315447  15.938  16.144  26.632 -0.0512  0.0355  0.0547
  644BOLB   GL415448  15.664  16.057  26.477  0.1015  0.1653 -0.0011
  644BOLB   C1C15449  15.827  15.838  26.967 -0.1392 -0.3014 -0.0016
  644BOLB   C2C15450  16.051  15.417  27.042  0.1298 -0.2146 -0.1604
  644BOLB   C3C15451  16.403  15.127  27.100  0.0589 -0.1050 -0.2851
  644BOLB   C4C15452  16.658  14.877  26.882 -0.3715  0.2597 -0.0641
  644BOLB   C1D15453  15.197  15.796  26.535 -0.1018  0.0506 -0.5811
  644BOLB   C2D15454  14.845  15.648  26.794  0.0333 -0.1309  0.1574
  644BOLB   C3D15455  14.713  15.554  27.198 -0.2824  0.2833  0.3993
  644BOLB   C4D15456  14.657  15.657  27.559  0.0418 -0.0358  0.2263
  645BOLB   NC115457   8.109   4.459  29.392  0.2348 -0.3624  0.1570
  645BOLB   PO115458   8.275   4.746  29.558  0.0181  0.0680 -0.0688
  645BOLB   GL115459   7.897   4.740  29.789 -0.3512  0.0930 -0.3265
  645BOLB   GL215460   7.667   4.676  29.654 -0.2378  0.1710  0.2989
  645BOLB   C1A15461   7.598   4.492  30.182  0.0012 -0.0051  0.1840
  645BOLB   C2A15462   7.311   4.393  30.469  0.2815  0.1989 -0.0958
  645BOLB   C3A15463   7.019   4.435  30.601  0.2694 -0.0042  0.0209
  645BOLB   C4A15464   6.625   4.544  30.560  0.0500  0.1093  0.0956
  645BOLB   C1B15465   7.235   4.599  29.709  0.0176  0.0378  0.1339
  645BOLB   C2B15466   6.861   4.370  29.585  0.1203  0.0197  0.1949
  645BOLB   C3B15467   6.455   4.357  29.467  0.0637 -0.0093 -0.1796
  645BOLB   C4B15468   6.045   4.117  29.324  0.1426 -0.1413 -0.4757
  645BOLB   NC215469   4.156   4.684  31.553 -0.3953  0.3620  0.2527
  645BOLB   PO215470   4.558   4.455  31.513 -0.1582  0.4495 -0.2922
  645BOLB   GL315471   4.838   4.373  31.258  0.0874  0.0559 -0.3444
  645BOLB   GL415472   4.705   4.624  30.983  0.1131 -0.0848 -0.0980
  645BOLB   C1C15473   5.268   4.492  31.232 -0.0683 -0.2284 -0.1311
  645BOLB   C2C15474   5.597   4.495  31.002  0.1162 -0.0053  0.0785
  645BOLB   C3C15475   5.991   4.640  30.870 -0.0641 -0.1145 -0.2855
  645BOLB   C4C15476   6.242   4.549  30.567 -0.5482  0.1392  0.0644
  645BOLB   C1D15477   4.926   4.632  30.648  0.0194 -0.3359 -0.0246
  645BOLB   C2D15478   5.349   4.519  30.520  0.1158 -0.0714  0.2119
  645BOLB   C3D15479   5.793   4.774  30.450 -0.0643  0.1074 -0.0116
  645BOLB   C4D15480   5.704   5.084  30.516 -0.2255  0.0240  0.0175
  646BOLB   NC115481  21.152   8.712  20.743  0.2440 -0.0802  0.2582
  646BOLB   PO115482  21.491   8.367  20.581  0.1630 -0.1088 -0.2210
  646BOLB   GL115483  21.442   8.554  20.139 -0.0984  0.3913 -0.0167
  646BOLB   GL215484  21.590   8.807  20.315 -0.0205 -0.1898 -0.3029
  646BOLB   C1A15485  21.619   8.786  19.827  0.0266  0.1443 -0.0101
  646BOLB   C2A15486  21.924   9.099  19.751 -0.1647  0.2073 -0.0115
  646BOLB   C3A15487  22.237   9.336  19.356 -0.0387 -0.2380  0.2583
  646BOLB   C4A15488  22.569   9.545  19.036  0.1457  0.0864  0.2055
  646BOLB   C1B15489  21.469   9.257  20.426  0.0317 -0.0301 -0.0005
  646BOLB   C2B15490  21.611   9.663  20.300 -0.3152  0.2661  0.0175
  646BOLB   C3B15491  21.636  10.064  20.436  0.0373 -0.3950  0.0968
  646BOLB   C4B15492  21.832  10.499  20.301 -0.0596  0.0453  0.1691
  646BOLB   NC215493  23.042  10.881  17.121  0.0768 -0.0479 -0.1499
  646BOLB   PO215494  23.375  10.502  17.063 -0.0532  0.1483 -0.3342
  646BOLB   GL315495  23.181  10.393  17.472 -0.0469  0.2069 -0.0846
  646BOLB   GL415496  23.383  10.127  17.592 -0.2643  0.0456 -0.0847
  646BOLB   C1C15497  22.870  10.049  17.670  0.3371 -0.1951  0.3138
  646BOLB   C2C15498  22.509   9.804  17.851 -0.0531  0.0054 -0.0066
  646BOLB   C3C15499  22.503   9.390  18.142 -0.0845 -0.2119 -0.0463
  646BOLB   C4C15500  22.613   9.448  18.579  0.3123  0.0771 -0.5059
  646BOLB   C1D15501  23.223  10.149  17.985  0.0337 -0.4275 -0.0187
  646BOLB   C2D15502  23.303   9.871  18.320  0.1373 -0.0418  0.0249
  646BOLB   C3D15503  23.398   9.484  18.309  0.0012 -0.2609 -0.2213
  646BOLB   C4D15504  23.708   9.186  18.335 -0.2110  0.1915  0.0431
  647BOLB   NC115505  16.897  -4.398  26.717  0.3335 -0.1034 -0.1615
  647BOLB   PO115506  16.463  -4.287  26.907 -0.2640 -0.0762 -0.0275
  647BOLB   GL115507  16.570  -4.706  26.929  0.3794  0.2270 -0.3756
  647BOLB   GL215508  16.754  -4.895  26.733 -0.2343 -0.3095 -0.2691
  647BOLB   C1A15509  16.661  -4.918  27.218  0.2419  0.1867  0.2118
  647BOLB   C2A15510  16.646  -5.171  27.605 -0.0777 -0.2203 -0.1105
  647BOLB   C3A15511  16.847  -5.360  27.931 -0.2029  0.1012 -0.1242
  647BOLB   C4A15512  17.144  -5.484  28.173  0.4036  0.0976 -0.3174
  647BOLB   C1B15513  16.633  -5.332  26.817  0.3048 -0.0506 -0.1608
  647BOLB   C2B15514  16.643  -5.611  27.085 -0.4157  0.1847 -0.2399
  647BOLB   C3B15515  16.861  -5.978  27.234  0.0345  0.3839  0.0736
  647BOLB   C4B15516  17.237  -6.201  27.211 -0.0913  0.0705  0.0863
  647BOLB   NC215517  17.883  -7.526  29.190  0.1227  0.0532  0.0673
  647BOLB   PO215518  17.843  -7.636  28.759 -0.1182 -0.3659  0.0813
  647BOLB   GL315519  17.774  -7.185  28.738 -0.4898  0.0730  0.0663
  647BOLB   GL415520  17.580  -7.217  28.968  0.0659 -0.1022 -0.0686
  647BOLB   C1C15521  17.643  -6.819  28.615  0.1409  0.2842 -0.0791
  647BOLB   C2C15522  17.697  -6.396  28.848  0.2899  0.0325  0.0483
  647BOLB   C3C15523  17.626  -5.973  28.710 -0.0427  0.0771  0.3871
  647BOLB   C4C15524  17.473  -5.621  28.437 -0.5287 -0.1398 -0.3042
  647BOLB   C1D15525  17.768  -6.860  29.189  0.1514  0.1517  0.2557
  647BOLB   C2D15526  17.592  -6.523  29.319 -0.0402  0.1787 -0.0605
  647BOLB   C3D15527  17.461  -6.105  29.372 -0.1881 -0.2153 -0.2897
  647BOLB   C4D15528  17.519  -5.799  29.553  0.2995 -0.1065  0.0530
  648BOLB   NC115529  19.983  -3.108  24.856  0.2601 -0.2210  0.0355
  648BOLB   PO115530  20.306  -3.380  24.730  0.0834 -0.0150 -0.1726
  648BOLB   GL115531  20.476  -3.609  25.049 -0.0348 -0.0379 -0.3451
  648BOLB   GL215532  20.248  -3.574  25.208 -0.2453 -0.0053  0.0818
  648BOLB   C1A15533  20.717  -3.785  25.426  0.0188 -0.2897 -0.0136
  648BOLB   C2A15534  21.082  -4.117  25.549 -0.1589 -0.0829 -0.3266
  648BOLB   C3A15535  21.346  -4.235  25.719 -0.0096  0.0926  0.0237
  648BOLB   C4A15536  21.626  -4.445  25.751  0.3498  0.2567  0.0559
  648BOLB   C1B15537  20.100  -3.946  25.200 -0.1468  0.2777 -0.0151
  648BOLB   C2B15538  19.856  -4.346  25.415 -0.2422 -0.0331  0.1524
  648BOLB   C3B15539  19.666  -4.805  25.232  0.1118 -0.0782  0.2824
  648BOLB   C4B15540  19.363  -4.978  25.008 -0.1491 -0.4556  0.3377
  648BOLB   NC215541  23.210  -5.766  26.895 -0.2466 -0.1017  0.2062
  648BOLB   PO215542  23.342  -5.786  26.489  0.0567  0.1129 -0.2208
  648BOLB   GL315543  23.288  -5.593  26.166 -0.0540  0.1292  0.0312
  648BOLB   GL415544  23.586  -5.357  26.204 -0.0062 -0.1387 -0.5055
  648BOLB   C1C15545  23.045  -5.423  25.764  0.0005  0.1463  0.4114
  648BOLB   C2C15546  22.622  -5.015  25.646  0.1908  0.0493  0.1488
  648BOLB   C3C15547  22.216  -4.911  25.626 -0.1554 -0.1721  0.0101
  648BOLB   C4C15548  21.951  -4.630  25.827 -0.0744 -0.0708  0.2927
  648BOLB   C1D15549  23.406  -5.112  25.909  0.1821  0.1023 -0.2277
  648BOLB   C2D15550  23.189  -4.890  25.689  0.0097 -0.0704  0.0606
  648BOLB   C3D15551  23.024  -4.530  25.574 -0.2054 -0.4552 -0.0177
  648BOLB   C4D15552  22.838  -4.147  25.738  0.0446  0.0983 -0.0029
  649BOLB   NC115553  10.432  -2.883  27.217 -0.3801 -0.0871  0.2945
  649BOLB   PO115554  10.838  -2.761  27.370  0.0924  0.6048 -0.0603
  649BOLB   GL115555  10.818  -3.192  27.491 -0.4053  0.0288  0.4493
  649BOLB   GL215556  10.547  -3.345  27.468  0.2164 -0.0041 -0.0493
  649BOLB   C1A15557  11.039  -3.669  27.631  0.1260 -0.0564  0.3520
  649BOLB   C2A15558  10.996  -4.107  27.683  0.0736 -0.0805  0.2177
  649BOLB   C3A15559  10.760  -4.427  27.686 -0.2224  0.0274  0.3125
  649BOLB   C4A15560  10.477  -4.789  27.575  0.1782 -0.1395 -0.2715
  649BOLB   C1B15561  10.187  -3.491  27.439 -0.1838  0.0744 -0.1834
  649BOLB   C2B15562   9.870  -3.389  27.709 -0.2143  0.0283  0.0563
  649BOLB   C3B15563   9.583  -3.630  27.876 -0.1196  0.0496  0.0154
  649BOLB   C4B15564   9.385  -3.806  28.226 -0.0959 -0.2769 -0.2061
  649BOLB   NC215565   8.606  -6.317  27.738 -0.0831 -0.0199  0.3330
  649BOLB   PO215566   8.385  -5.938  27.603 -0.1246  0.0054 -0.0769
  649BOLB   GL315567   8.807  -5.876  27.467 -0.3074 -0.1107  0.1420
  649BOLB   GL415568   8.914  -5.849  27.165  0.0226  0.1952 -0.2196
  649BOLB   C1C15569   9.318  -6.017  27.417  0.0470  0.0840  0.1894
  649BOLB   C2C15570   9.739  -5.799  27.514 -0.1625  0.0246 -0.2466
  649BOLB   C3C15571   9.966  -5.430  27.529  0.1148 -0.1318 -0.1891
  649BOLB   C4C15572  10.307  -5.194  27.517  0.3385  0.0293  0.0115
  649BOLB   C1D15573   8.869  -5.478  27.059 -0.1158 -0.2102  0.0778
  649BOLB   C2D15574   8.960  -5.051  27.189 -0.1882  0.0010 -0.2140
  649BOLB   C3D15575   9.088  -4.799  27.485 -0.0847  0.1464  0.0892
  649BOLB   C4D15576   8.920  -4.564  27.878  0.1072  0.1175  0.2441
  650BOLB   NC115577  23.785   6.603  22.791 -0.1368  0.0549  0.0340
  650BOLB   PO115578  23.386   6.812  22.963 -0.0667  0.1629 -0.0674
  650BOLB   GL115579  23.807   7.070  22.943  0.0021  0.1184  0.0903
  650BOLB   GL215580  23.983   7.014  22.582  0.4145  0.1949 -0.0499
  650BOLB   C1A15581  24.319   7.228  22.927  0.1482 -0.0526 -0.0297
  650BOLB   C2A15582  24.783   7.313  22.824  0.1615  0.0486 -0.2488
  650BOLB   C3A15583  24.966   7.416  22.495 -0.0471  0.3372 -0.0104
  650BOLB   C4A15584  25.004   7.480  22.053 -0.0011  0.3432  0.0294
  650BOLB   C1B15585  24.307   7.213  22.396 -0.1176 -0.1268 -0.2810
  650BOLB   C2B15586  24.415   7.618  22.257  0.1752  0.0291 -0.3101
  650BOLB   C3B15587  24.320   7.956  22.123  0.2564  0.0382 -0.0148
  650BOLB   C4B15588  24.397   8.260  21.799  0.0127 -0.3405 -0.1600
  650BOLB   NC215589  26.832   8.479  21.057 -0.2086  0.1218 -0.0415
  650BOLB   PO215590  26.940   8.137  20.938 -0.3643  0.4188 -0.1876
  650BOLB   GL315591  26.566   8.011  21.090  0.0030  0.1378  0.1695
  650BOLB   GL415592  26.536   7.699  21.071  0.5375  0.2482  0.0276
  650BOLB   C1C15593  26.076   8.067  21.326  0.2065  0.0318 -0.0375
  650BOLB   C2C15594  25.657   8.279  21.327 -0.0809 -0.3792 -0.4196
  650BOLB   C3C15595  25.207   8.108  21.399  0.1263  0.1048  0.2195
  650BOLB   C4C15596  25.013   7.687  21.659 -0.1387  0.0676  0.5336
  650BOLB   C1D15597  26.278   7.549  21.298  0.1610  0.0529 -0.0691
  650BOLB   C2D15598  25.947   7.573  21.540 -0.1960 -0.1897  0.0645
  650BOLB   C3D15599  25.917   7.631  22.000 -0.5707 -0.0652 -0.0255
  650BOLB   C4D15600  25.747   7.750  22.396 -0.1721 -0.1761 -0.0098
  651BOLB   NC115601  18.103  -3.273  25.903  0.0554 -0.2241  0.0788
  651BOLB   PO115602  18.294  -3.636  26.110 -0.1409  0.0930  0.2517
  651BOLB   GL115603  18.484  -4.037  26.240 -0.1472 -0.2776  0.0210
  651BOLB   GL215604  18.128  -4.231  26.188  0.3510  0.2009  0.3087
  651BOLB   C1A15605  18.693  -4.494  26.242  0.1723 -0.1200  0.1490
  651BOLB   C2A15606  18.999  -4.720  26.079 -0.0857 -0.1591  0.2610
  651BOLB   C3A15607  18.963  -5.068  25.969 -0.0153  0.4631  0.0007
  651BOLB   C4A15608  19.148  -5.492  25.821 -0.2835  0.1070 -0.4215
  651BOLB   C1B15609  18.237  -4.679  26.286 -0.0785 -0.0311  0.5170
  651BOLB   C2B15610  18.103  -5.003  26.535 -0.1277  0.1362 -0.3517
  651BOLB   C3B15611  17.980  -5.443  26.468  0.0543 -0.1110 -0.1992
  651BOLB   C4B15612  18.150  -5.805  26.683  0.0311  0.2976  0.0725
  651BOLB   NC215613  19.005  -8.092  25.127 -0.3306 -0.0697 -0.1967
  651BOLB   PO215614  18.902  -8.006  25.575 -0.0914 -0.1827 -0.0558
  651BOLB   GL315615  19.046  -7.626  25.418  0.1151 -0.1183  0.0519
  651BOLB   GL415616  19.349  -7.415  25.479 -0.0145 -0.1494  0.0001
  651BOLB   C1C15617  18.840  -7.187  25.571 -0.2288 -0.1903  0.0622
  651BOLB   C2C15618  18.926  -6.724  25.621  0.0020 -0.1828 -0.1994
  651BOLB   C3C15619  19.136  -6.348  25.499 -0.0775  0.0385  0.0046
  651BOLB   C4C15620  19.194  -5.901  25.573  0.1180 -0.0670 -0.4559
  651BOLB   C1D15621  19.457  -7.096  25.751  0.1696  0.0147  0.0074
  651BOLB   C2D15622  19.291  -6.697  25.926 -0.1017 -0.0530 -0.5176
  651BOLB   C3D15623  19.048  -6.227  25.993 -0.2613  0.0712 -0.0761
  651BOLB   C4D15624  18.857  -5.892  25.963  0.2199  0.2474 -0.1780
  652BOLB   NC115625  13.090  12.019  28.266 -0.1034 -0.0694  0.2164
  652BOLB   PO115626  13.385  12.049  28.556 -0.0002 -0.2009  0.1854
  652BOLB   GL115627  13.313  12.435  28.794  0.3041 -0.1265 -0.0419
  652BOLB   GL215628  12.978  12.451  28.909 -0.1629 -0.1550 -0.2646
  652BOLB   C1A15629  13.390  12.822  28.972 -0.2849 -0.1258 -0.0278
  652BOLB   C2A15630  13.459  13.213  29.092 -0.0595 -0.0296 -0.0533
  652BOLB   C3A15631  13.393  13.641  29.222  0.1502 -0.0124  0.3394
  652BOLB   C4A15632  13.524  14.052  29.342  0.0071  0.1688  0.0918
  652BOLB   C1B15633  12.853  12.622  29.374  0.0847  0.2252  0.1521
  652BOLB   C2B15634  13.205  12.957  29.474 -0.2168 -0.1216  0.1350
  652BOLB   C3B15635  13.111  13.381  29.520  0.1103 -0.2040  0.0413
  652BOLB   C4B15636  13.058  13.846  29.633 -0.0718 -0.2481 -0.0486
  652BOLB   NC215637  14.012  16.593  30.098 -0.0714  0.1378 -0.2850
  652BOLB   PO215638  14.150  16.261  29.738  0.1268 -0.0589  0.1403
  652BOLB   GL315639  14.261  15.870  29.739 -0.0015  0.0931  0.1292
  652BOLB   GL415640  13.886  15.711  29.887 -0.2282 -0.4678 -0.2987
  652BOLB   C1C15641  14.144  15.513  29.488 -0.0847 -0.2712  0.0082
  652BOLB   C2C15642  14.110  15.080  29.393 -0.0477 -0.5018 -0.1004
  652BOLB   C3C15643  13.976  14.783  29.311  0.1695 -0.3048  0.3477
  652BOLB   C4C15644  13.822  14.381  29.409  0.0311  0.1207  0.2337
  652BOLB   C1D15645  13.508  15.507  29.860 -0.0383  0.0222  0.3738
  652BOLB   C2D15646  13.395  15.122  29.976 -0.3271  0.1064 -0.0166
  652BOLB   C3D15647  13.279  14.647  30.020 -0.2106 -0.2536 -0.0584
  652BOLB   C4D15648  13.364  14.278  29.743 -0.0082 -0.2588  0.0667
  653BOLB   NC115649   8.134   7.535  28.436 -0.0091  0.1788  0.4708
  653BOLB   PO115650   8.001   7.606  28.038 -0.0022  0.0547 -0.0469
  653BOLB   GL115651   7.714   7.912  27.923 -0.0100 -0.2692  0.1528
  653BOLB   GL215652   7.736   8.147  28.023  0.2033  0.1918  0.3872
  653BOLB   C1A15653   7.301   8.060  28.007 -0.0470 -0.0330  0.3023
  653BOLB   C2A15654   7.104   8.164  28.411  0.0368 -0.2729  0.1731
  653BOLB   C3A15655   6.924   8.388  28.743  0.1343 -0.0980  0.0508
  653BOLB   C4A15656   6.826   8.766  28.996  0.0340  0.0165 -0.1450
  653BOLB   C1B15657   7.563   8.271  28.412 -0.1792  0.0435  0.0702
  653BOLB   C2B15658   7.428   8.696  28.590  0.1673  0.1462 -0.1532
  653BOLB   C3B15659   7.467   9.057  28.391  0.0671 -0.1476  0.1774
  653BOLB   C4B15660   7.419   9.412  28.124  0.2097  0.0387 -0.2203
  653BOLB   NC215661   4.899  10.358  28.502  0.0336 -0.0483  0.2550
  653BOLB   PO215662   4.929  10.037  28.674 -0.1654  0.1302 -0.1706
  653BOLB   GL315663   5.392  10.133  28.637 -0.2358 -0.2341 -0.2442
  653BOLB   GL415664   5.361   9.794  28.854 -0.0882  0.1768 -0.4326
  653BOLB   C1C15665   5.768  10.078  28.643  0.2099 -0.0764 -0.1315
  653BOLB   C2C15666   6.197   9.879  28.647  0.0432  0.1802  0.0191
  653BOLB   C3C15667   6.568   9.589  28.617 -0.0618 -0.1139  0.4480
  653BOLB   C4C15668   6.740   9.259  28.889 -0.0883  0.0122  0.1199
  653BOLB   C1D15669   5.552   9.655  29.068 -0.0585  0.0835  0.0302
  653BOLB   C2D15670   5.896   9.565  28.805  0.2893  0.0563  0.3287
  653BOLB   C3D15671   6.147   9.341  28.514  0.0330  0.1396  0.0045
  653BOLB   C4D15672   6.320   9.350  28.169 -0.5318 -0.0957  0.2470
  654BOLB   NC115673  19.578   6.868  32.743 -0.1625  0.0592  0.0358
  654BOLB   PO115674  19.763   6.507  32.649 -0.0152 -0.1818 -0.3267
  654BOLB   GL115675  19.913   6.514  33.009 -0.0285  0.0258  0.1304
  654BOLB   GL215676  19.846   6.744  33.149 -0.0953 -0.3582 -0.2795
  654BOLB   C1A15677  20.177   6.425  33.424  0.1813  0.0998  0.0445
  654BOLB   C2A15678  20.245   6.648  33.876  0.2258  0.3720  0.0632
  654BOLB   C3A15679  20.389   6.616  34.253  0.2599 -0.1294  0.0067
  654BOLB   C4A15680  20.554   6.896  34.667 -0.1018  0.0945 -0.0519
  654BOLB   C1B15681  20.093   6.919  33.420 -0.1973 -0.0020  0.2160
  654BOLB   C2B15682  20.297   7.252  33.640 -0.0213 -0.2607  0.1113
  654BOLB   C3B15683  20.641   7.273  33.759  0.0056 -0.2691 -0.2577
  654BOLB   C4B15684  21.003   7.320  33.990  0.0214  0.1572 -0.4219
  654BOLB   NC215685  20.492   7.286  36.771  0.2126  0.1647 -0.0544
  654BOLB   PO215686  20.656   7.643  36.583 -0.4134 -0.0929 -0.1791
  654BOLB   GL315687  20.443   7.528  36.301 -0.0328 -0.0160  0.1496
  654BOLB   GL415688  20.307   7.902  36.232 -0.3682 -0.0094 -0.0053
  654BOLB   C1C15689  20.088   7.457  35.946  0.1222 -0.1334  0.0518
  654BOLB   C2C15690  19.825   7.418  35.567 -0.5014  0.0213 -0.0957
  654BOLB   C3C15691  19.977   7.238  35.112  0.0464  0.1382 -0.1758
  654BOLB   C4C15692  20.441   7.018  35.065 -0.1372  0.2535 -0.1924
  654BOLB   C1D15693  20.080   7.959  35.909  0.2346  0.0502  0.0734
  654BOLB   C2D15694  20.091   8.189  35.567  0.4694  0.1584 -0.0408
  654BOLB   C3D15695  20.157   8.290  35.199  0.0968  0.0813 -0.3576
  654BOLB   C4D15696  20.518   8.492  34.898  0.3340  0.1345 -0.0806
  655BOLB   NC115697  24.197   4.156  22.741  0.1344  0.0445  0.2588
  655BOLB   PO115698  24.206   3.993  23.062  0.1697  0.2004  0.0125
  655BOLB   GL115699  24.593   3.879  22.860 -0.0126 -0.1137  0.0901
  655BOLB   GL215700  24.819   4.015  23.042 -0.0503  0.1044 -0.2319
  655BOLB   C1A15701  24.656   3.874  22.423  0.2822 -0.3236  0.0839
  655BOLB   C2A15702  25.015   3.859  22.154 -0.1265 -0.2051 -0.2342
  655BOLB   C3A15703  25.521   3.926  22.192 -0.1045 -0.0014  0.0223
  655BOLB   C4A15704  25.842   4.068  21.829 -0.3164 -0.0478  0.0174
  655BOLB   C1B15705  25.053   4.197  22.811 -0.0281  0.0145  0.2632
  655BOLB   C2B15706  25.433   4.233  22.597 -0.0467  0.0714  0.5004
  655BOLB   C3B15707  25.719   4.432  22.681 -0.1560 -0.2552  0.0550
  655BOLB   C4B15708  26.057   4.267  22.570 -0.2206 -0.0960 -0.1061
  655BOLB   NC215709  28.591   3.300  21.384 -0.0920 -0.0837  0.2001
  655BOLB   PO215710  28.365   3.390  21.813  0.1087 -0.0114  0.0959
  655BOLB   GL315711  27.937   3.252  21.981  0.0887 -0.1130 -0.2529
  655BOLB   GL415712  27.919   3.431  22.200 -0.3324  0.1275 -0.0518
  655BOLB   C1C15713  27.417   3.449  21.992 -0.0289 -0.0539 -0.1194
  655BOLB   C2C15714  27.055   3.660  21.970 -0.0754 -0.0686  0.4415
  655BOLB   C3C15715  26.747   3.899  21.833  0.2512  0.0801 -0.2393
  655BOLB   C4C15716  26.244   4.055  21.880 -0.2508  0.0565  0.0817
  655BOLB   C1D15717  27.653   3.369  22.458 -0.4901  0.0435  0.0391
  655BOLB   C2D15718  27.285   3.241  22.468 -0.1195  0.0593  0.1975
  655BOLB   C3D15719  26.791   3.372  22.404 -0.0356  0.3283  0.0343
  655BOLB   C4D15720  26.530   3.619  22.148  0.0292 -0.0071  0.0367
  656BOLB   NC115721  23.535   5.494  21.621 -0.2253  0.0135 -0.2164
  656BOLB   PO115722  23.300   5.814  21.398  0.3279 -0.2901 -0.2718
  656BOLB   GL115723  23.699   5.826  21.290  0.2426 -0.1227  0.3376
  656BOLB   GL215724  23.908   5.871  21.513 -0.2601  0.0715 -0.1594
  656BOLB   C1A15725  23.711   5.967  20.847  0.0137 -0.0214  0.2496
  656BOLB   C2A15726  23.969   6.274  20.657  0.3226 -0.0369  0.2390
  656BOLB   C3A15727  24.274   6.649  20.601 -0.1922  0.2029 -0.1398
  656BOLB   C4A15728  24.562   6.944  20.609  0.1557 -0.0789  0.1812
  656BOLB   C1B15729  24.233   5.946  21.725  0.0053 -0.6253  0.1750
  656BOLB   C2B15730  24.614   6.192  21.643 -0.0120 -0.1626 -0.3965
  656BOLB   C3B15731  24.977   6.248  21.469  0.0792  0.0426  0.0737
  656BOLB   C4B15732  25.206   6.624  21.519 -0.2937  0.1174 -0.3412
  656BOLB   NC215733  27.075   7.221  19.631  0.0516  0.1109  0.0669
  656BOLB   PO215734  26.882   6.830  19.517 -0.0087 -0.2124 -0.1647
  656BOLB   GL315735  26.390   6.721  19.624 -0.1473 -0.0169  0.2395
  656BOLB   GL415736  26.298   6.712  19.908  0.1487 -0.3095  0.0202
  656BOLB   C1C15737  25.922   6.737  19.580 -0.1738 -0.1596  0.0113
  656BOLB   C2C15738  25.626   7.030  19.701  0.3324  0.0618  0.3549
  656BOLB   C3C15739  25.420   7.130  20.064 -0.2819 -0.0731  0.3240
  656BOLB   C4C15740  25.062   7.052  20.428  0.0562  0.2763 -0.2722
  656BOLB   C1D15741  26.054   6.289  19.828  0.0818 -0.0309  0.1201
  656BOLB   C2D15742  26.007   5.949  20.163  0.0001  0.1757  0.4100
  656BOLB   C3D15743  26.038   5.495  20.235  0.1955 -0.0596  0.1439
  656BOLB   C4D15744  26.036   5.173  20.015 -0.0083 -0.0827 -0.3151
  657BOLB   NC115745  22.613   4.046  18.726  0.0994 -0.3868  0.0713
  657BOLB   PO115746  22.474   4.462  18.552  0.1366  0.2954 -0.0831
  657BOLB   GL115747  22.609   4.261  18.166 -0.2168  0.0245 -0.2664
  657BOLB   GL215748  22.725   3.968  18.197  0.1020 -0.0736  0.1073
  657BOLB   C1A15749  22.986   4.433  18.011  0.0879 -0.2201  0.0966
  657BOLB   C2A15750  23.347   4.608  17.882  0.0268 -0.0588  0.4236
  657BOLB   C3A15751  23.836   4.716  17.850  0.4278  0.1218  0.1063
  657BOLB   C4A15752  24.082   4.900  17.605  0.1970 -0.3571  0.4022
  657BOLB   C1B15753  23.144   3.975  18.141  0.1478 -0.0482 -0.0485
  657BOLB   C2B15754  23.405   4.041  17.817 -0.0761  0.0845 -0.2053
  657BOLB   C3B15755  23.551   4.323  17.486  0.0040 -0.0429  0.0924
  657BOLB   C4B15756  23.610   4.500  17.180  0.1505  0.2288 -0.0625
  657BOLB   NC215757  25.620   6.207  17.186  0.1129 -0.0822  0.2694
  657BOLB   PO215758  25.561   6.155  16.794  0.1300  0.1282 -0.2256
  657BOLB   GL315759  25.137   5.912  16.884 -0.1485 -0.2459 -0.0887
  657BOLB   GL415760  24.926   6.135  16.780  0.1066  0.3038  0.2362
  657BOLB   C1C15761  25.022   5.505  16.663  0.1413 -0.0620 -0.3280
  657BOLB   C2C15762  25.036   5.160  16.746  0.1809  0.0477  0.0764
  657BOLB   C3C15763  24.655   5.001  16.920 -0.2397  0.1178 -0.1501
  657BOLB   C4C15764  24.469   4.926  17.296  0.0547  0.0704 -0.1905
  657BOLB   C1D15765  24.586   6.185  16.977 -0.1153  0.1005 -0.0993
  657BOLB   C2D15766  24.218   6.317  16.950 -0.2415 -0.2032  0.0995
  657BOLB   C3D15767  23.967   6.176  17.381  0.2715  0.0686 -0.1521
  657BOLB   C4D15768  23.615   6.092  17.651  0.2829 -0.3454 -0.2029
  658BOLB   NC115769  24.093   6.304  28.291  0.3637 -0.2229  0.0397
  658BOLB   PO115770  24.522   6.320  28.306  0.0924 -0.0572  0.0918
  658BOLB   GL115771  24.771   6.369  28.670 -0.2804  0.2894 -0.1204
  658BOLB   GL215772  24.995   6.164  28.543  0.2462 -0.0608 -0.3232
  658BOLB   C1A15773  25.019   6.322  29.013  0.2167 -0.3377 -0.0254
  658BOLB   C2A15774  25.341   6.177  29.174  0.0965 -0.0526  0.0340
  658BOLB   C3A15775  25.660   6.227  29.420  0.3201  0.1672 -0.0693
  658BOLB   C4A15776  25.831   6.521  29.626  0.1145  0.1732 -0.1289
  658BOLB   C1B15777  25.432   6.057  28.598  0.1424 -0.0483  0.0715
  658BOLB   C2B15778  25.714   6.304  28.793 -0.2508 -0.0100  0.1014
  658BOLB   C3B15779  26.003   6.418  29.182  0.1479  0.1856 -0.1227
  658BOLB   C4B15780  26.427   6.120  29.147 -0.2079  0.0401 -0.4731
  658BOLB   NC215781  27.938   7.173  29.189 -0.1782  0.2642  0.2754
  658BOLB   PO215782  28.188   6.757  29.312  0.0081 -0.1034  0.4467
  658BOLB   GL315783  27.770   6.775  29.418  0.2749 -0.0576 -0.0205
  658BOLB   GL415784  27.705   6.510  29.492  0.1290 -0.2755 -0.1500
  658BOLB   C1C15785  27.315   6.784  29.539  0.5209 -0.1400  0.1530
  658BOLB   C2C15786  26.943   6.855  29.474  0.1674 -0.0716  0.0669
  658BOLB   C3C15787  26.530   6.888  29.379  0.0515 -0.0884 -0.0214
  658BOLB   C4C15788  26.112   6.858  29.616 -0.1428 -0.2960  0.0419
  658BOLB   C1D15789  27.641   6.100  29.496  0.3311  0.0227  0.2400
  658BOLB   C2D15790  27.327   5.837  29.449 -0.1507  0.1120  0.0462
  658BOLB   C3D15791  26.881   5.857  29.307 -0.2087 -0.4072  0.1461
  658BOLB   C4D15792  26.535   5.625  29.143 -0.1388 -0.1199 -0.1380
  659BOLB   NC115793  23.328   2.477  20.334  0.0389  0.0733 -0.4862
  659BOLB   PO115794  23.529   2.170  20.614  0.0397 -0.0030  0.1026
  659BOLB   GL115795  23.887   2.397  20.551  0.0475  0.2526  0.2767
  659BOLB   GL215796  23.781   2.650  20.311 -0.3620 -0.1711  0.2323
  659BOLB   C1A15797  24.283   2.332  20.429  0.4090  0.1886 -0.1182
  659BOLB   C2A15798  24.602   2.008  20.455  0.0101  0.3470 -0.2728
  659BOLB   C3A15799  24.940   1.833  20.270 -0.1290  0.2762  0.0322
  659BOLB   C4A15800  25.233   1.893  19.917  0.0312  0.1519 -0.1499
  659BOLB   C1B15801  23.900   2.974  20.137  0.0148 -0.0190  0.0814
  659BOLB   C2B15802  24.252   3.275  20.023  0.2929 -0.4292 -0.0209
  659BOLB   C3B15803  24.604   3.494  19.805 -0.0638  0.1436  0.1454
  659BOLB   C4B15804  24.899   3.335  19.545 -0.2749  0.3157  0.2170
  659BOLB   NC215805  27.223   2.575  18.521 -0.0016 -0.1071  0.0223
  659BOLB   PO215806  27.307   2.384  18.983 -0.0762 -0.0255 -0.1388
  659BOLB   GL315807  26.981   2.442  19.218 -0.1925  0.4591  0.4108
  659BOLB   GL415808  26.839   2.707  19.045  0.1397  0.0768  0.0450
  659BOLB   C1C15809  26.776   2.370  19.534 -0.2282  0.2272 -0.0086
  659BOLB   C2C15810  26.446   2.207  19.568 -0.2793 -0.0526  0.4453
  659BOLB   C3C15811  26.116   2.182  19.787 -0.0752 -0.0800 -0.3244
  659BOLB   C4C15812  25.644   2.181  19.802  0.4220 -0.0972  0.0558
  659BOLB   C1D15813  26.620   2.866  18.733  0.0014 -0.0235  0.2821
  659BOLB   C2D15814  26.301   2.890  18.824  0.1628  0.1582  0.2028
  659BOLB   C3D15815  25.824   2.798  18.824 -0.0847 -0.0100 -0.1361
  659BOLB   C4D15816  25.401   2.943  18.907 -0.1168  0.2591  0.1380
  660BOLB   NC115817  18.706   8.767  20.034 -0.0256  0.0839 -0.2124
  660BOLB   PO115818  18.747   8.979  19.529  0.3554 -0.1044  0.1672
  660BOLB   GL115819  18.771   9.167  19.106 -0.1623  0.1622 -0.0774
  660BOLB   GL215820  19.096   9.087  19.054 -0.1697 -0.0736  0.0505
  660BOLB   C1A15821  18.839   9.564  18.802 -0.3931 -0.2147 -0.0793
  660BOLB   C2A15822  19.000   9.879  18.451 -0.1385  0.1126  0.0272
  660BOLB   C3A15823  19.111   9.953  18.067  0.1609 -0.1676  0.4140
  660BOLB   C4A15824  19.280  10.089  17.743  0.0927 -0.4093  0.0849
  660BOLB   C1B15825  19.241   9.312  18.708 -0.0107  0.1326  0.1004
  660BOLB   C2B15826  19.090   9.431  18.279  0.0278  0.1252 -0.1410
  660BOLB   C3B15827  19.199   9.404  17.882  0.0653  0.0101 -0.1700
  660BOLB   C4B15828  19.256   9.650  17.513  0.1487 -0.2594 -0.0814
  660BOLB   NC215829  20.109  10.349  15.920 -0.0170 -0.1700 -0.0694
  660BOLB   PO215830  20.553  10.388  15.819 -0.1749 -0.0302 -0.1459
  660BOLB   GL315831  20.650  10.199  16.225 -0.1013  0.1960 -0.1121
  660BOLB   GL415832  20.800   9.878  16.265  0.4534  0.1143  0.1471
  660BOLB   C1C15833  20.421  10.261  16.657  0.0367  0.2329 -0.1971
  660BOLB   C2C15834  20.238  10.365  17.043 -0.2193  0.1291  0.1326
  660BOLB   C3C15835  19.897  10.415  17.281 -0.1011  0.0826 -0.1269
  660BOLB   C4C15836  19.613  10.220  17.556 -0.0964 -0.0469 -0.0915
  660BOLB   C1D15837  20.447   9.802  16.475  0.0095  0.4090  0.0684
  660BOLB   C2D15838  20.276   9.729  16.776  0.2360 -0.0422  0.0799
  660BOLB   C3D15839  20.281   9.343  17.020  0.3395  0.1067  0.0461
  660BOLB   C4D15840  20.423   8.911  17.050 -0.1694  0.0568 -0.3913
  661BOLB   NC115841   9.542  -1.255  21.434 -0.1735 -0.0020 -0.2073
  661BOLB   PO115842   9.229  -1.184  21.788 -0.0561  0.1100 -0.1035
  661BOLB   GL115843   9.051  -1.171  21.288  0.3308 -0.0248  0.3580
  661BOLB   GL215844   8.745  -1.069  21.250 -0.1650 -0.2844  0.1493
  661BOLB   C1A15845   8.891  -1.444  20.923 -0.1332  0.0247 -0.1109
  661BOLB   C2A15846   8.746  -1.813  20.702  0.1224  0.1290  0.1547
  661BOLB   C3A15847   8.453  -2.106  20.534 -0.3309 -0.0894 -0.1829
  661BOLB   C4A15848   8.043  -2.276  20.610 -0.0255  0.2397  0.0139
  661BOLB   C1B15849   8.593  -1.367  21.362  0.0995  0.0981 -0.1019
  661BOLB   C2B15850   8.536  -1.664  21.155  0.1101  0.1198  0.3403
  661BOLB   C3B15851   8.528  -2.033  21.052 -0.0913  0.2133 -0.2754
  661BOLB   C4B15852   8.218  -2.384  21.033  0.1547 -0.3941 -0.5885
  661BOLB   NC215853   5.219  -2.874  20.401 -0.0954  0.0567 -0.0714
  661BOLB   PO215854   5.640  -2.785  20.290 -0.3407 -0.3816 -0.2389
  661BOLB   GL315855   5.913  -2.529  20.397  0.0002 -0.1489 -0.2865
  661BOLB   GL415856   5.749  -2.228  20.438 -0.0790 -0.1756  0.0465
  661BOLB   C1C15857   6.318  -2.382  20.469  0.0087 -0.1370  0.1938
  661BOLB   C2C15858   6.743  -2.329  20.407  0.3391  0.0998  0.1857
  661BOLB   C3C15859   7.116  -2.488  20.493 -0.4217 -0.2606  0.0099
  661BOLB   C4C15860   7.543  -2.291  20.592 -0.0797 -0.2944 -0.0252
  661BOLB   C1D15861   6.058  -1.894  20.360  0.0315 -0.2428 -0.1303
  661BOLB   C2D15862   6.405  -1.554  20.197  0.1068 -0.0897  0.1288
  661BOLB   C3D15863   6.640  -1.191  20.178 -0.0092 -0.0312  0.0912
  661BOLB   C4D15864   6.733  -0.829  19.930  0.0037 -0.1515 -0.1332
  662BOLB   NC115865  14.930  -4.554  20.289 -0.2403  0.2478  0.1284
  662BOLB   PO115866  15.272  -4.381  20.497  0.0060 -0.3314 -0.2641
  662BOLB   GL115867  15.272  -4.755  20.651 -0.0233  0.2278 -0.3232
  662BOLB   GL215868  15.552  -4.947  20.686 -0.0259  0.1854 -0.2017
  662BOLB   C1A15869  15.133  -5.184  20.639  0.0204 -0.1425 -0.4419
  662BOLB   C2A15870  14.857  -5.441  20.569  0.3256 -0.0431  0.0093
  662BOLB   C3A15871  14.528  -5.645  20.429  0.1347 -0.0510 -0.3477
  662BOLB   C4A15872  14.381  -5.866  20.140 -0.0223 -0.2206  0.0534
  662BOLB   C1B15873  15.710  -5.251  20.382  0.0736 -0.0929 -0.1549
  662BOLB   C2B15874  15.655  -5.722  20.287  0.1197 -0.0095  0.0972
  662BOLB   C3B15875  15.511  -6.157  20.018 -0.2503 -0.0920 -0.0280
  662BOLB   C4B15876  15.240  -6.534  19.749  0.2692 -0.0725  0.1610
  662BOLB   NC215877  14.160  -7.623  18.424 -0.0278  0.4629 -0.1261
  662BOLB   PO215878  14.093  -7.896  18.686 -0.3177 -0.1488  0.1804
  662BOLB   GL315879  14.447  -7.583  18.851  0.2174 -0.0029 -0.0192
  662BOLB   GL415880  14.459  -7.216  18.632  0.3568  0.1507 -0.2201
  662BOLB   C1C15881  14.516  -7.261  19.156  0.1113  0.1640 -0.0461
  662BOLB   C2C15882  14.403  -7.001  19.536 -0.1132 -0.2963 -0.3075
  662BOLB   C3C15883  14.337  -6.657  19.695  0.1981 -0.2874  0.0210
  662BOLB   C4C15884  14.231  -6.352  19.949  0.3081 -0.0238 -0.1217
  662BOLB   C1D15885  14.884  -7.027  18.779 -0.1232  0.0360  0.0058
  662BOLB   C2D15886  15.058  -6.673  18.878  0.1421  0.0325  0.0800
  662BOLB   C3D15887  15.204  -6.433  19.236 -0.1852  0.1768  0.1742
  662BOLB   C4D15888  15.432  -6.099  19.526 -0.1484  0.2986 -0.3279
  663BOLB   NC115889  19.728  11.026  28.851  0.2213 -0.3480 -0.2997
  663BOLB   PO115890  20.164  10.674  28.788 -0.1650  0.0699  0.0805
  663BOLB   GL115891  20.396  11.018  29.044 -0.0210 -0.1564  0.0419
  663BOLB   GL215892  20.562  10.949  29.174  0.0597 -0.2156 -0.1979
  663BOLB   C1A15893  20.457  11.424  29.399 -0.0823  0.0184  0.2324
  663BOLB   C2A15894  20.879  11.552  29.518 -0.2156 -0.0371 -0.0047
  663BOLB   C3A15895  21.305  11.815  29.384  0.2309 -0.0207 -0.1625
  663BOLB   C4A15896  21.390  12.172  29.721  0.0419 -0.1465  0.4282
  663BOLB   C1B15897  20.658  11.419  28.990 -0.3273 -0.0939  0.1729
  663BOLB   C2B15898  20.843  11.751  29.051 -0.0849 -0.1514 -0.0270
  663BOLB   C3B15899  21.006  12.165  29.192 -0.0293 -0.2598  0.5783
  663BOLB   C4B15900  21.225  12.460  28.868  0.0687 -0.0616 -0.0436
  663BOLB   NC215901  21.347  13.531  31.355  0.0030  0.0462  0.2257
  663BOLB   PO215902  21.566  13.200  31.588  0.2863 -0.2039  0.3170
  663BOLB   GL315903  21.344  13.026  31.371  0.0650  0.0089 -0.2793
  663BOLB   GL415904  21.068  13.160  31.458  0.0780  0.2247  0.2869
  663BOLB   C1C15905  21.122  12.698  31.188  0.1958 -0.3445  0.5048
  663BOLB   C2C15906  21.251  12.290  30.924  0.0685 -0.0717  0.1849
  663BOLB   C3C15907  21.404  12.399  30.519 -0.2566  0.1299  0.0410
  663BOLB   C4C15908  21.414  12.143  30.160 -0.0026 -0.1784  0.1348
  663BOLB   C1D15909  20.840  13.123  31.110 -0.0107 -0.0729 -0.0826
  663BOLB   C2D15910  20.672  12.710  31.020 -0.0284  0.3268  0.0381
  663BOLB   C3D15911  20.422  12.413  30.779 -0.0369 -0.1448 -0.0775
  663BOLB   C4D15912  20.424  12.425  30.316  0.4760  0.0742  0.0346
  664BOLB   NC115913  15.706   8.891  33.265 -0.2370  0.1105  0.0869
  664BOLB   PO115914  15.571   9.008  32.771  0.2813 -0.1073 -0.0388
  664BOLB   GL115915  15.693   9.415  32.949  0.3168  0.3643  0.0316
  664BOLB   GL215916  15.936   9.628  32.766  0.0812  0.0956  0.0287
  664BOLB   C1A15917  15.883   9.843  33.255  0.0689 -0.0609  0.1081
  664BOLB   C2A15918  16.256  10.090  33.440 -0.0333 -0.3347 -0.2033
  664BOLB   C3A15919  16.550  10.347  33.736 -0.0450 -0.1431  0.0173
  664BOLB   C4A15920  16.757  10.573  33.970  0.1196 -0.0604 -0.0074
  664BOLB   C1B15921  16.216   9.957  32.890 -0.1596 -0.0044 -0.3163
  664BOLB   C2B15922  16.151  10.388  33.068  0.0687 -0.1992 -0.0956
  664BOLB   C3B15923  16.208  10.627  33.458  0.2136  0.2302 -0.1259
  664BOLB   C4B15924  16.086  10.553  33.933  0.2956 -0.1230 -0.3035
  664BOLB   NC215925  18.103  11.972  35.444  0.1045  0.0436  0.0962
  664BOLB   PO215926  18.155  11.625  35.488 -0.0775  0.0634 -0.1654
  664BOLB   GL315927  17.923  11.651  35.133 -0.0776 -0.1497  0.2309
  664BOLB   GL415928  18.101  11.789  34.948 -0.1538  0.2475 -0.2377
  664BOLB   C1C15929  17.753  11.582  34.673  0.0520 -0.0830 -0.3731
  664BOLB   C2C15930  17.538  11.386  34.370 -0.1545 -0.1777 -0.2733
  664BOLB   C3C15931  17.374  10.953  34.310  0.1841 -0.0990 -0.0355
  664BOLB   C4C15932  17.059  10.804  34.166 -0.0563  0.1422  0.2121
  664BOLB   C1D15933  18.262  11.465  34.643 -0.0900  0.1679 -0.0567
  664BOLB   C2D15934  18.104  11.273  34.307 -0.2444  0.2288  0.4079
  664BOLB   C3D15935  17.806  11.134  33.941 -0.3843  0.1316  0.3117
  664BOLB   C4D15936  17.580  10.845  33.725  0.0311  0.1082  0.1836
  665BOLB   NC115937  24.316  -3.931  11.557 -0.0317 -0.0884  0.1448
  665BOLB   PO115938  24.369  -4.062  12.009  0.3903 -0.1496 -0.0316
  665BOLB   GL115939  24.340  -3.809  12.416  0.2115 -0.1464 -0.0915
  665BOLB   GL215940  24.289  -3.987  12.772 -0.1270  0.1940 -0.0464
  665BOLB   C1A15941  24.183  -3.492  12.629 -0.1900 -0.0290  0.1406
  665BOLB   C2A15942  24.417  -3.073  12.922  0.4763  0.3221  0.2387
  665BOLB   C3A15943  24.183  -2.957  13.272 -0.4471 -0.2902  0.0840
  665BOLB   C4A15944  24.268  -3.125  13.605 -0.0305 -0.0173  0.1907
  665BOLB   C1B15945  24.085  -4.453  13.026 -0.1445  0.1559  0.1325
  665BOLB   C2B15946  23.946  -4.538  13.451 -0.5221 -0.0476  0.1031
  665BOLB   C3B15947  23.646  -4.873  13.694  0.0739  0.1229  0.1473
  665BOLB   C4B15948  23.293  -5.150  13.825  0.0612 -0.1859 -0.1306
  665BOLB   NC215949  26.175  -4.594  13.245 -0.1214 -0.0694 -0.2959
  665BOLB   PO215950  26.342  -4.369  13.562  0.1820 -0.0401 -0.3222
  665BOLB   GL315951  25.865  -4.401  13.680  0.2952 -0.1306 -0.2050
  665BOLB   GL415952  25.522  -4.377  13.343 -0.0616 -0.0456  0.0651
  665BOLB   C1C15953  25.612  -4.054  13.787 -0.0688  0.0229  0.0379
  665BOLB   C2C15954  25.368  -3.617  13.800  0.3741  0.0216  0.0092
  665BOLB   C3C15955  24.950  -3.379  13.849  0.4514 -0.1341 -0.1891
  665BOLB   C4C15956  24.662  -3.139  13.805 -0.3867 -0.1354 -0.2783
  665BOLB   C1D15957  25.074  -4.312  13.440 -0.1475  0.2342 -0.1849
  665BOLB   C2D15958  24.860  -4.444  13.765 -0.1547 -0.0059 -0.1686
  665BOLB   C3D15959  25.011  -4.610  14.139 -0.0700  0.2628  0.2025
  665BOLB   C4D15960  25.269  -4.575  14.467  0.0762 -0.0823  0.1176
  666BOLB   NC115961  24.362   6.439  27.103  0.0110 -0.0359  0.1026
  666BOLB   PO115962  24.380   6.724  27.557  0.0799 -0.0845 -0.0050
  666BOLB   GL115963  24.767   7.062  27.638  0.0890 -0.0167 -0.0632
  666BOLB   GL215964  24.919   6.951  27.792  0.0608 -0.0491 -0.0550
  666BOLB   C1A15965  25.155   7.235  27.412 -0.2091  0.1168 -0.0115
  666BOLB   C2A15966  25.407   7.524  27.513  0.0344 -0.0792 -0.0823
  666BOLB   C3A15967  25.768   7.596  27.580  0.0574 -0.1629 -0.2068
  666BOLB   C4A15968  26.104   7.323  27.339 -0.0912  0.1075  0.1442
  666BOLB   C1B15969  25.408   7.113  27.802 -0.0825  0.2917 -0.0365
  666BOLB   C2B15970  25.783   6.975  27.772  0.0195 -0.2126  0.0979
  666BOLB   C3B15971  26.030   6.793  27.469  0.1584  0.0900 -0.3049
  666BOLB   C4B15972  26.032   6.604  27.054 -0.5159 -0.2640  0.0899
  666BOLB   NC215973  28.694   7.460  27.067  0.2821  0.0407  0.0608
  666BOLB   PO215974  28.422   7.520  26.826  0.2731  0.7786 -0.2467
  666BOLB   GL315975  27.958   7.250  26.724 -0.1546  0.0218  0.2507
  666BOLB   GL415976  27.859   7.383  26.430  0.0230  0.2046  0.1490
  666BOLB   C1C15977  27.581   7.036  26.816  0.0445  0.6441  0.1900
  666BOLB   C2C15978  27.104   6.901  26.753  0.0809 -0.4267  0.0837
  666BOLB   C3C15979  26.677   6.881  26.895 -0.0408 -0.3284  0.0996
  666BOLB   C4C15980  26.335   7.060  26.939 -0.1442 -0.1641  0.3312
  666BOLB   C1D15981  27.537   7.119  26.302 -0.1379 -0.1650  0.0515
  666BOLB   C2D15982  27.337   6.771  26.313 -0.0370  0.1286  0.3102
  666BOLB   C3D15983  26.842   6.858  26.332  0.0146  0.0451 -0.1471
  666BOLB   C4D15984  26.355   6.818  26.474 -0.2990 -0.1783 -0.0419
  667BOLB   NC115985  23.987   1.229  23.153  0.2104 -0.1203  0.1024
  667BOLB   PO115986  24.126   1.009  23.508  0.0842 -0.1428  0.3382
  667BOLB   GL115987  24.552   0.929  23.355  0.0691 -0.1098  0.0700
  667BOLB   GL215988  24.611   1.267  23.282  0.1349  0.2358  0.3606
  667BOLB   C1A15989  24.912   0.813  23.175  0.3938 -0.1708  0.2166
  667BOLB   C2A15990  25.351   0.675  23.020  0.0183 -0.0572 -0.0255
  667BOLB   C3A15991  25.778   0.707  22.920  0.2739  0.4691  0.1630
  667BOLB   C4A15992  26.054   0.651  22.610  0.1983 -0.1342 -0.1238
  667BOLB   C1B15993  24.924   1.229  22.936 -0.1829 -0.0362  0.0320
  667BOLB   C2B15994  25.089   0.860  22.666 -0.1067 -0.1470 -0.1833
  667BOLB   C3B15995  25.478   0.556  22.546  0.4717 -0.3559  0.0843
  667BOLB   C4B15996  25.776   0.213  22.724 -0.0560  0.1249 -0.3361
  667BOLB   NC215997  28.374  -0.068  22.098  0.0503  0.1905  0.3521
  667BOLB   PO215998  28.303  -0.058  22.486  0.2107 -0.0450 -0.0102
  667BOLB   GL315999  27.854   0.086  22.632 -0.1296  0.0414  0.1924
  667BOLB   GL416000  27.767  -0.205  22.716  0.0404 -0.1861  0.2286
  667BOLB   C1C16001  27.530   0.261  22.601 -0.1106 -0.0095  0.2204
  667BOLB   C2C16002  27.214   0.460  22.390  0.3076  0.1693  0.1773
  667BOLB   C3C16003  26.755   0.533  22.262  0.2646  0.0225 -0.0054
  667BOLB   C4C16004  26.423   0.688  22.328 -0.2058  0.2043  0.0822
  667BOLB   C1D16005  27.392  -0.045  22.930 -0.0291  0.1129  0.0808
  667BOLB   C2D16006  27.066   0.108  22.712 -0.2561  0.1590  0.0831
  667BOLB   C3D16007  26.560   0.160  22.582  0.0133 -0.1032  0.0052
  667BOLB   C4D16008  26.172   0.253  22.343  0.0915 -0.0022  0.1573
  668BOLB   NC116009  19.204   4.294  33.007  0.2268  0.0107 -0.0029
  668BOLB   PO116010  19.140   3.966  33.434  0.0860  0.0493  0.1342
  668BOLB   GL116011  19.291   3.839  33.858  0.2085 -0.0143 -0.1380
  668BOLB   GL216012  19.310   3.974  34.140 -0.0785 -0.1889  0.2160
  668BOLB   C1A16013  19.666   3.686  33.933 -0.3584 -0.2631  0.2919
  668BOLB   C2A16014  19.866   3.986  34.216  0.5075 -0.2956 -0.2655
  668BOLB   C3A16015  19.882   4.407  34.457 -0.2240  0.3932 -0.0182
  668BOLB   C4A16016  20.186   4.545  34.772 -0.1493  0.0434  0.2008
  668BOLB   C1B16017  19.384   3.625  34.320 -0.3820 -0.1274 -0.0448
  668BOLB   C2B16018  19.312   3.400  34.528 -0.1630 -0.2029 -0.0570
  668BOLB   C3B16019  19.447   3.067  34.825  0.1220  0.0597  0.2026
  668BOLB   C4B16020  19.743   2.754  35.023 -0.1648  0.3042  0.2374
  668BOLB   NC216021  21.056   4.390  37.004 -0.0605 -0.0445  0.0931
  668BOLB   PO216022  21.405   4.188  36.655 -0.0943  0.0586  0.0075
  668BOLB   GL316023  21.262   4.203  36.318 -0.2558 -0.1023 -0.1453
  668BOLB   GL416024  21.204   3.838  36.189 -0.2048 -0.2108  0.0893
  668BOLB   C1C16025  20.997   4.494  36.128 -0.1954  0.2962 -0.0079
  668BOLB   C2C16026  20.756   4.528  35.712 -0.0073  0.0835 -0.0579
  668BOLB   C3C16027  20.577   4.342  35.391  0.0499 -0.1842 -0.3933
  668BOLB   C4C16028  20.589   4.538  35.021 -0.0538 -0.0131  0.4412
  668BOLB   C1D16029  21.296   4.221  35.823  0.0978  0.0113  0.0545
  668BOLB   C2D16030  21.644   4.228  35.492  0.1113 -0.5770  0.3502
  668BOLB   C3D16031  21.644   4.380  34.998  0.2322  0.1245  0.5151
  668BOLB   C4D16032  21.530   4.269  34.645  0.1837 -0.3618  0.1935
  669BOLB   NC116033  10.689   8.088  31.330  0.1200  0.2816  0.1009
  669BOLB   PO116034  10.930   7.781  31.581 -0.0317 -0.0084 -0.0699
  669BOLB   GL116035  10.888   8.134  31.880 -0.1783 -0.0912  0.1576
  669BOLB   GL216036  11.131   8.251  32.067 -0.4291 -0.2440  0.0508
  669BOLB   C1A16037  10.721   8.524  31.887  0.0615 -0.0457 -0.0799
  669BOLB   C2A16038  10.452   8.607  32.220  0.0748 -0.1783  0.4310
  669BOLB   C3A16039  10.300   8.867  32.528 -0.0457 -0.3604 -0.1402
  669BOLB   C4A16040  10.083   9.104  32.690 -0.2467 -0.1674  0.0033
  669BOLB   C1B16041  11.183   8.273  32.495 -0.1071 -0.1312 -0.0703
  669BOLB   C2B16042  10.981   8.352  32.905 -0.1021 -0.2017 -0.1279
  669BOLB   C3B16043  10.669   8.239  33.163 -0.1213  0.1311  0.0040
  669BOLB   C4B16044  10.477   7.962  33.177 -0.4128  0.0180 -0.0733
  669BOLB   NC216045   9.246  10.923  34.592 -0.1497 -0.2331 -0.5709
  669BOLB   PO216046   9.502  10.767  34.220  0.0874 -0.3696  0.0597
  669BOLB   GL316047   9.593  10.416  34.087 -0.3578 -0.1550  0.0198
  669BOLB   GL416048   9.957  10.523  34.214 -0.1110  0.0360 -0.2123
  669BOLB   C1C16049   9.521  10.031  33.809 -0.1393  0.0455  0.0614
  669BOLB   C2C16050   9.624   9.858  33.510  0.2002  0.1334  0.0952
  669BOLB   C3C16051   9.590   9.747  33.061  0.2010  0.0755  0.1140
  669BOLB   C4C16052   9.803   9.502  32.745 -0.2334 -0.1526  0.1864
  669BOLB   C1D16053  10.015  10.187  33.932  0.0426  0.0583 -0.2336
  669BOLB   C2D16054  10.066   9.807  33.836  0.3314  0.0937  0.2982
  669BOLB   C3D16055   9.883   9.497  33.695 -0.1373 -0.0533  0.2590
  669BOLB   C4D16056   9.623   9.201  33.883  0.0366  0.0672  0.2216
  670BOLB   NC116057   8.296   6.626  28.607 -0.0101 -0.0211 -0.0113
  670BOLB   PO116058   7.995   6.316  28.503  0.1556  0.0032  0.0781
  670BOLB   GL116059   7.618   6.249  28.559  0.1496 -0.3500 -0.1784
  670BOLB   GL216060   7.539   6.311  28.955 -0.0731  0.2829  0.2643
  670BOLB   C1A16061   7.264   6.320  28.420  0.3354  0.0921  0.3893
  670BOLB   C2A16062   6.785   6.357  28.409  0.1522 -0.0085 -0.1817
  670BOLB   C3A16063   6.373   6.337  28.192  0.3195  0.1984 -0.1462
  670BOLB   C4A16064   6.001   6.312  28.077  0.2311  0.3205  0.0740
  670BOLB   C1B16065   7.185   6.360  29.054  0.2484  0.3095  0.0754
  670BOLB   C2B16066   6.805   6.178  28.927  0.0609  0.1203 -0.1525
  670BOLB   C3B16067   6.409   6.146  28.718  0.0223 -0.3220 -0.1294
  670BOLB   C4B16068   6.060   6.134  28.524 -0.0705 -0.1278 -0.1569
  670BOLB   NC216069   3.957   6.638  29.090  0.2542 -0.0068  0.0724
  670BOLB   PO216070   3.724   6.767  28.747  0.1170  0.3308  0.2561
  670BOLB   GL316071   3.985   6.688  28.352  0.0537 -0.2653  0.1948
  670BOLB   GL416072   4.012   6.995  28.348  0.2680 -0.2283  0.1576
  670BOLB   C1C16073   4.410   6.556  28.192  0.0019  0.0143 -0.0559
  670BOLB   C2C16074   4.730   6.492  28.091  0.2024 -0.0265  0.0194
  670BOLB   C3C16075   5.149   6.437  28.224  0.2311 -0.0394  0.2963
  670BOLB   C4C16076   5.577   6.507  28.196  0.1205  0.1879  0.0847
  670BOLB   C1D16077   4.280   6.997  28.075 -0.2634 -0.1083 -0.0078
  670BOLB   C2D16078   4.599   7.172  28.033 -0.1368  0.0113  0.0748
  670BOLB   C3D16079   5.006   7.224  27.986 -0.2748 -0.0765 -0.0749
  670BOLB   C4D16080   5.265   6.919  27.929  0.1199  0.1499 -0.1738
  671BOLB   NC116081  20.359  -9.934  15.439  0.1567  0.0478 -0.1942
  671BOLB   PO116082  20.653  -9.549  15.249 -0.3831  0.0785  0.0825
  671BOLB   GL116083  20.618  -9.082  15.277 -0.0015 -0.0314  0.2309
  671BOLB   GL216084  20.858  -8.959  14.927 -0.0339 -0.1566 -0.6531
  671BOLB   C1A16085  20.705  -8.742  15.598 -0.1701 -0.1526 -0.3199
  671BOLB   C2A16086  20.939  -8.576  15.939 -0.0282 -0.1404  0.2844
  671BOLB   C3A16087  20.835  -8.216  16.141 -0.1826  0.2015  0.3440
  671BOLB   C4A16088  20.395  -8.125  16.280  0.2682 -0.1841  0.0573
  671BOLB   C1B16089  20.712  -8.550  15.148 -0.2192  0.0585  0.1321
  671BOLB   C2B16090  20.723  -8.035  15.195 -0.1123 -0.1474  0.1203
  671BOLB   C3B16091  20.653  -7.629  15.181  0.1928 -0.1393 -0.0126
  671BOLB   C4B16092  20.583  -7.437  15.547 -0.1018 -0.0546 -0.0355
  671BOLB   NC216093  20.229  -9.928  17.406  0.1352 -0.0464 -0.1141
  671BOLB   PO216094  20.331 -10.029  16.976  0.1550 -0.1384  0.0999
  671BOLB   GL316095  20.251  -9.626  16.864  0.0351  0.1737  0.0448
  671BOLB   GL416096  20.432  -9.424  16.831  0.1813  0.0617 -0.4684
  671BOLB   C1C16097  20.040  -9.225  16.663  0.1336  0.1622 -0.3447
  671BOLB   C2C16098  19.862  -8.816  16.469 -0.0602 -0.0485  0.0267
  671BOLB   C3C16099  19.762  -8.401  16.489 -0.1802  0.1239  0.0188
  671BOLB   C4C16100  20.016  -8.097  16.321  0.2542  0.1498  0.3118
  671BOLB   C1D16101  20.404  -8.914  16.656  0.1941 -0.3132  0.0853
  671BOLB   C2D16102  20.283  -8.588  16.250 -0.3118  0.2591  0.0114
  671BOLB   C3D16103  20.398  -8.408  15.892  0.2816 -0.1586  0.3857
  671BOLB   C4D16104  20.237  -8.223  15.386  0.2499  0.1268  0.1035
  672BOLB   NC116105  24.528  -6.072  20.416 -0.0278  0.1246 -0.3577
  672BOLB   PO116106  24.532  -5.886  20.818 -0.2291  0.0286  0.0423
  672BOLB   GL116107  24.310  -5.532  20.810 -0.0304  0.0130 -0.1262
  672BOLB   GL216108  24.162  -5.622  21.126  0.0508  0.0070  0.3361
  672BOLB   C1A16109  23.903  -5.438  20.563 -0.0989  0.1487  0.1008
  672BOLB   C2A16110  23.543  -5.576  20.377 -0.1711 -0.0737 -0.0172
  672BOLB   C3A16111  23.339  -5.644  19.980  0.2764  0.1106  0.2455
  672BOLB   C4A16112  23.009  -5.854  19.795 -0.1909  0.1488  0.0365
  672BOLB   C1B16113  23.781  -5.469  21.258  0.3002  0.1166  0.0016
  672BOLB   C2B16114  23.625  -5.063  21.208  0.0787 -0.1179 -0.1008
  672BOLB   C3B16115  23.463  -4.703  21.389 -0.2133  0.1429 -0.0845
  672BOLB   C4B16116  23.286  -4.281  21.195  0.0889  0.2071 -0.1220
  672BOLB   NC216117  22.273  -7.471  21.554 -0.0421 -0.0117 -0.3510
  672BOLB   PO216118  21.933  -7.622  21.342  0.1534  0.2458 -0.2178
  672BOLB   GL316119  21.902  -7.352  21.003 -0.0993  0.0003 -0.0545
  672BOLB   GL416120  21.825  -7.421  20.722  0.1277  0.0036  0.0636
  672BOLB   C1C16121  21.990  -6.910  20.857 -0.0668 -0.0014 -0.0576
  672BOLB   C2C16122  22.445  -6.703  20.644  0.0550 -0.0916  0.0896
  672BOLB   C3C16123  22.601  -6.431  20.283 -0.1481  0.1035 -0.1669
  672BOLB   C4C16124  22.677  -6.197  19.826  0.2093  0.0119  0.3351
  672BOLB   C1D16125  21.484  -7.068  20.703  0.0163 -0.0827 -0.1321
  672BOLB   C2D16126  21.350  -6.660  20.644 -0.2686 -0.1666 -0.0857
  672BOLB   C3D16127  21.203  -6.353  20.367  0.2074  0.0772  0.1693
  672BOLB   C4D16128  21.274  -5.870  20.300 -0.1571  0.4283 -0.1689
  673BOLB   NC116129  16.020  -1.040  29.854  0.1401 -0.2144  0.0717
  673BOLB   PO116130  16.025  -1.385  30.227 -0.0817 -0.0732  0.0388
  673BOLB   GL116131  15.826  -1.573  30.713  0.1271 -0.0609  0.1830
  673BOLB   GL216132  15.671  -1.370  30.955 -0.0054  0.2328 -0.3742
  673BOLB   C1A16133  15.813  -1.909  31.040 -0.0070  0.1005 -0.0577
  673BOLB   C2A16134  15.713  -2.187  31.481 -0.2984  0.0702  0.0773
  673BOLB   C3A16135  15.641  -2.613  31.623 -0.0780  0.2913 -0.3050
  673BOLB   C4A16136  15.752  -2.988  31.887 -0.1898  0.3284 -0.1587
  673BOLB   C1B16137  15.614  -1.523  31.411 -0.0949 -0.1531 -0.1866
  673BOLB   C2B16138  15.711  -1.816  31.728  0.0702 -0.1158 -0.1375
  673BOLB   C3B16139  15.838  -1.818  32.079 -0.0094  0.3171 -0.0808
  673BOLB   C4B16140  16.106  -2.182  32.421  0.2633 -0.3835 -0.0684
  673BOLB   NC216141  14.437  -4.638  33.361  0.0542 -0.2578 -0.0383
  673BOLB   PO216142  14.592  -4.777  32.931  0.1643  0.2001 -0.0294
  673BOLB   GL316143  14.769  -4.537  32.569 -0.1831 -0.3487  0.3038
  673BOLB   GL416144  14.602  -4.425  32.464  0.0346 -0.1233  0.1677
  673BOLB   C1C16145  14.933  -4.271  32.147 -0.0180 -0.1654 -0.3916
  673BOLB   C2C16146  15.209  -4.127  31.812 -0.0191  0.2258  0.2522
  673BOLB   C3C16147  15.497  -3.847  31.675 -0.3886 -0.0682 -0.2846
  673BOLB   C4C16148  15.579  -3.390  31.802  0.3945  0.1372 -0.0538
  673BOLB   C1D16149  14.423  -4.005  32.566 -0.3015  0.1702 -0.1844
  673BOLB   C2D16150  14.474  -3.594  32.252  0.0005 -0.1014 -0.1411
  673BOLB   C3D16151  14.438  -3.426  31.828  0.0882  0.0106  0.3026
  673BOLB   C4D16152  14.604  -3.471  31.526 -0.0783 -0.4965  0.0218
  674BOLB   NC116153   8.766   8.866  27.647  0.0204  0.1914  0.1294
  674BOLB   PO116154   8.553   9.082  27.856 -0.1062  0.0310 -0.0891
  674BOLB   GL116155   8.111   9.179  27.662 -0.1156 -0.2571 -0.2856
  674BOLB   GL216156   8.089   8.822  27.547 -0.0925 -0.0083  0.1097
  674BOLB   C1A16157   7.710   9.331  27.581 -0.1830 -0.2455  0.0716
  674BOLB   C2A16158   7.348   9.631  27.504  0.1016  0.3293 -0.1889
  674BOLB   C3A16159   6.992   9.790  27.765 -0.1927 -0.2631  0.0414
  674BOLB   C4A16160   6.659   9.890  27.692  0.0222  0.0050 -0.4265
  674BOLB   C1B16161   7.690   8.797  27.500  0.2478 -0.2524  0.2947
  674BOLB   C2B16162   7.283   8.674  27.414  0.0817 -0.0339 -0.1606
  674BOLB   C3B16163   6.969   8.511  27.153  0.0622 -0.0578  0.0895
  674BOLB   C4B16164   7.050   8.461  26.738  0.2735  0.2160 -0.3162
  674BOLB   NC216165   5.258  11.035  28.950 -0.1166 -0.0271 -0.2726
  674BOLB   PO216166   5.019  10.842  28.552  0.0004 -0.1630 -0.0812
  674BOLB   GL316167   5.353  10.678  28.532 -0.0553 -0.0763  0.0365
  674BOLB   GL416168   5.441  10.574  28.799  0.1393 -0.2242  0.6000
  674BOLB   C1C16169   5.518  10.398  28.242  0.2782 -0.0175  0.3298
  674BOLB   C2C16170   5.552  10.067  28.048  0.1949  0.1993  0.1401
  674BOLB   C3C16171   5.799   9.940  27.748 -0.1914 -0.0941  0.0945
  674BOLB   C4C16172   6.170   9.754  27.656 -0.0540 -0.1162 -0.0362
  674BOLB   C1D16173   5.836  10.558  28.700 -0.0200 -0.2164 -0.2872
  674BOLB   C2D16174   5.957  10.728  28.307  0.2523  0.4200  0.0473
  674BOLB   C3D16175   6.081  11.068  28.176 -0.0492 -0.0367 -0.2093
  674BOLB   C4D16176   5.935  11.481  28.172 -0.0925 -0.0040  0.0482
  675BOLB   NC116177   7.511   0.230  23.982  0.1546 -0.0859  0.0447
  675BOLB   PO116178   7.727   0.522  23.643 -0.1364  0.0129  0.0689
  675BOLB   GL116179   7.298   0.391  23.536  0.0128  0.0900 -0.0507
  675BOLB   GL216180   7.465   0.058  23.524 -0.0857  0.0261 -0.0275
  675BOLB   C1A16181   6.963   0.231  23.218 -0.0500 -0.2728 -0.0069
  675BOLB   C2A16182   6.654   0.112  22.963 -0.0793  0.3316  0.0303
  675BOLB   C3A16183   6.336  -0.079  22.753 -0.1453  0.0510 -0.1900
  675BOLB   C4A16184   6.006  -0.037  22.447  0.1838 -0.1201  0.0145
  675BOLB   C1B16185   7.100  -0.208  23.468  0.1134  0.0226  0.0682
  675BOLB   C2B16186   6.714  -0.153  23.414  0.0575 -0.0849  0.3031
  675BOLB   C3B16187   6.408  -0.049  23.781 -0.1613  0.1132  0.0976
  675BOLB   C4B16188   6.570   0.046  24.243  0.1874 -0.0100  0.0256
  675BOLB   NC216189   3.850   0.414  21.734  0.1823 -0.1308  0.1550
  675BOLB   PO216190   3.936  -0.002  21.689  0.2119 -0.0221 -0.1246
  675BOLB   GL316191   4.305   0.118  21.708 -0.2694  0.1891 -0.1974
  675BOLB   GL416192   4.315   0.529  21.672 -0.1315 -0.0131  0.1071
  675BOLB   C1C16193   4.627   0.288  22.008 -0.1132  0.1292  0.0041
  675BOLB   C2C16194   4.780   0.447  22.354 -0.0526  0.0815  0.1141
  675BOLB   C3C16195   5.185   0.398  22.361 -0.0648 -0.1414  0.0103
  675BOLB   C4C16196   5.767   0.306  22.316  0.0460  0.1236 -0.1673
  675BOLB   C1D16197   4.635   0.672  21.589  0.2795 -0.1037 -0.2251
  675BOLB   C2D16198   4.901   0.798  21.876 -0.4294 -0.1860  0.1736
  675BOLB   C3D16199   5.012   0.842  22.219 -0.2464 -0.1240  0.0892
  675BOLB   C4D16200   5.160   1.065  22.368 -0.0418 -0.3262  0.1180
  676BOLB   NC116201  15.619   1.942  33.207 -0.1148  0.1489  0.1111
  676BOLB   PO116202  16.046   1.665  33.217 -0.1562 -0.1475 -0.0476
  676BOLB   GL116203  15.948   1.645  33.594  0.1030 -0.0253 -0.0687
  676BOLB   GL216204  16.268   1.539  33.655 -0.4615 -0.1541  0.1301
  676BOLB   C1A16205  15.882   1.246  33.819  0.1482  0.1468  0.0038
  676BOLB   C2A16206  16.043   1.000  34.047 -0.2112  0.0680 -0.3607
  676BOLB   C3A16207  15.959   0.665  34.229  0.1963 -0.3493  0.3936
  676BOLB   C4A16208  15.774   0.349  34.522  0.0135 -0.2329 -0.0986
  676BOLB   C1B16209  16.192   1.520  34.105 -0.1127  0.4086 -0.4512
  676BOLB   C2B16210  16.019   1.379  34.564 -0.3609 -0.4871  0.0235
  676BOLB   C3B16211  15.758   1.421  34.836 -0.0722 -0.1154 -0.1722
  676BOLB   C4B16212  15.750   1.238  35.283 -0.1725 -0.0709  0.0305
  676BOLB   NC216213  15.395  -0.624  36.673 -0.0172 -0.0850  0.0777
  676BOLB   PO216214  15.620  -1.031  36.556  0.1821  0.0604  0.3418
  676BOLB   GL316215  15.612  -0.658  36.236  0.0497  0.0377 -0.1651
  676BOLB   GL416216  15.221  -0.629  36.035 -0.2191 -0.0060  0.3770
  676BOLB   C1C16217  15.774  -0.308  35.969  0.2866  0.3512 -0.2264
  676BOLB   C2C16218  15.607   0.001  35.602  0.0655  0.3441 -0.2452
  676BOLB   C3C16219  15.554   0.348  35.261 -0.0456  0.1623 -0.0904
  676BOLB   C4C16220  15.463   0.409  34.875 -0.0144 -0.3040 -0.4014
  676BOLB   C1D16221  15.262  -0.531  35.654  0.2171 -0.1409  0.1339
  676BOLB   C2D16222  15.146  -0.176  35.385  0.4130 -0.3182  0.2757
  676BOLB   C3D16223  15.178   0.086  35.077 -0.0228  0.0963  0.0394
  676BOLB   C4D16224  15.039   0.267  34.697  0.1863  0.0745 -0.2630
  677BOLB   NC116225   9.988  15.176  23.977  0.0461  0.0658  0.0438
  677BOLB   PO116226  10.409  15.127  23.953 -0.3339  0.3891  0.2636
  677BOLB   GL116227  10.673  14.734  23.816 -0.1042  0.1602  0.1799
  677BOLB   GL216228  10.622  14.610  23.519  0.0048 -0.3381 -0.2824
  677BOLB   C1A16229  10.863  14.325  23.895 -0.1724 -0.1803 -0.0404
  677BOLB   C2A16230  11.069  14.116  23.997 -0.2069 -0.0127  0.1029
  677BOLB   C3A16231  11.327  13.792  24.208  0.0853 -0.0313  0.4259
  677BOLB   C4A16232  11.624  13.773  24.476  0.4954 -0.1253  0.2246
  677BOLB   C1B16233  10.637  14.255  23.374  0.2208  0.0671  0.1753
  677BOLB   C2B16234  10.942  13.967  23.506  0.0300 -0.0808 -0.0713
  677BOLB   C3B16235  11.330  13.688  23.287 -0.1601 -0.0665  0.0815
  677BOLB   C4B16236  11.796  13.683  23.201  0.1042 -0.0082  0.2936
  677BOLB   NC216237  11.619  15.904  24.128 -0.0999 -0.1423 -0.1662
  677BOLB   PO216238  12.016  15.991  24.418 -0.0399 -0.0597 -0.2337
  677BOLB   GL316239  11.976  15.593  24.403 -0.0943  0.0424 -0.1251
  677BOLB   GL416240  11.852  15.420  24.183  0.1584 -0.2536  0.1068
  677BOLB   C1C16241  12.267  15.242  24.390 -0.1894 -0.1655  0.3127
  677BOLB   C2C16242  12.294  14.812  24.352 -0.2401 -0.1677 -0.4944
  677BOLB   C3C16243  12.356  14.335  24.650  0.1906 -0.3166  0.0238
  677BOLB   C4C16244  11.962  13.977  24.624  0.4365  0.1492  0.1006
  677BOLB   C1D16245  11.383  15.341  24.079 -0.0298  0.0430  0.0635
  677BOLB   C2D16246  11.117  14.870  24.066  0.1919 -0.2165 -0.0038
  677BOLB   C3D16247  10.815  14.632  24.294 -0.4150  0.1235 -0.2354
  677BOLB   C4D16248  10.489  14.579  24.679 -0.1253  0.0389 -0.4238
  678BOLB   NC116249  22.567   2.850  11.013  0.1715 -0.0535  0.0324
  678BOLB   PO116250  22.795   2.580  11.252 -0.3999 -0.0249  0.1066
  678BOLB   GL116251  22.546   2.505  11.568  0.2577 -0.1594  0.3168
  678BOLB   GL216252  22.684   2.167  11.541 -0.1338  0.0440 -0.0179
  678BOLB   C1A16253  22.319   2.303  11.834  0.0187  0.3218 -0.0072
  678BOLB   C2A16254  22.117   2.157  12.087  0.0221 -0.0887  0.0034
  678BOLB   C3A16255  21.831   2.023  12.250  0.0519  0.2187 -0.1838
  678BOLB   C4A16256  21.938   1.649  12.536  0.0649  0.3593  0.2859
  678BOLB   C1B16257  22.590   1.789  11.808  0.1497  0.0246 -0.0665
  678BOLB   C2B16258  22.492   1.664  12.165 -0.0984  0.0113  0.0828
  678BOLB   C3B16259  22.430   1.445  12.565  0.0348 -0.2931  0.2385
  678BOLB   C4B16260  22.499   1.038  12.664  0.1289 -0.0182  0.1828
  678BOLB   NC216261  22.898   1.495  10.347 -0.0034 -0.0530  0.3017
  678BOLB   PO216262  22.492   1.417  10.424 -0.1671  0.0749 -0.3332
  678BOLB   GL316263  22.681   1.152  10.668  0.0077 -0.0849  0.1853
  678BOLB   GL416264  22.708   0.861  10.587 -0.3951 -0.1236 -0.2668
  678BOLB   C1C16265  22.562   0.970  11.093 -0.2991 -0.1177 -0.0146
  678BOLB   C2C16266  22.357   0.887  11.543 -0.0945  0.2224 -0.0426
  678BOLB   C3C16267  22.108   0.975  11.893 -0.0573  0.0733 -0.0301
  678BOLB   C4C16268  22.136   1.168  12.329 -0.1484  0.1139 -0.3491
  678BOLB   C1D16269  22.725   0.523  10.989 -0.1078 -0.1094  0.1682
  678BOLB   C2D16270  22.584   0.417  11.439  0.2359  0.3257  0.0524
  678BOLB   C3D16271  22.668   0.265  11.898 -0.1168 -0.0583  0.0917
  678BOLB   C4D16272  22.415   0.049  12.198  0.0779 -0.2037  0.0807
  679BOLB   NC116273  13.409  -0.436  30.880 -0.1864 -0.4424  0.0108
  679BOLB   PO116274  13.658  -0.911  30.982  0.1662  0.1536  0.0943
  679BOLB   GL116275  13.350  -1.130  31.227 -0.0153  0.3877  0.1261
  679BOLB   GL216276  13.581  -1.400  31.168 -0.0951  0.2202  0.0585
  679BOLB   C1A16277  13.123  -1.313  31.498  0.0549  0.3496 -0.0722
  679BOLB   C2A16278  13.054  -1.558  31.942 -0.0418  0.0339  0.0323
  679BOLB   C3A16279  13.422  -1.695  32.218  0.3552 -0.1104  0.0688
  679BOLB   C4A16280  13.271  -1.655  32.614  0.0730 -0.1689 -0.1020
  679BOLB   C1B16281  13.362  -1.744  31.265  0.1513 -0.0911 -0.1656
  679BOLB   C2B16282  12.987  -1.911  31.485 -0.1718  0.3679 -0.2128
  679BOLB   C3B16283  12.848  -2.302  31.628  0.1785  0.0952  0.1125
  679BOLB   C4B16284  12.531  -2.586  31.725 -0.0515  0.0449 -0.0271
  679BOLB   NC216285  13.161  -3.532  34.527  0.1754 -0.1314  0.1077
  679BOLB   PO216286  13.593  -3.410  34.500 -0.0383 -0.1773 -0.2723
  679BOLB   GL316287  13.764  -3.108  34.268 -0.0264 -0.1318 -0.0552
  679BOLB   GL416288  14.087  -3.079  34.250 -0.2705  0.3649  0.0336
  679BOLB   C1C16289  13.674  -2.786  33.997  0.0040  0.1540 -0.1268
  679BOLB   C2C16290  13.643  -2.379  33.694 -0.1055  0.2790 -0.2090
  679BOLB   C3C16291  13.622  -2.108  33.253 -0.0601 -0.0396 -0.4166
  679BOLB   C4C16292  13.358  -1.750  33.077  0.0977 -0.4228 -0.1299
  679BOLB   C1D16293  14.310  -2.722  34.189  0.3085  0.0241  0.3024
  679BOLB   C2D16294  14.545  -2.640  33.856 -0.0117 -0.1628 -0.0316
  679BOLB   C3D16295  14.494  -2.558  33.407  0.0969  0.2951 -0.0826
  679BOLB   C4D16296  14.510  -2.536  32.994 -0.0053  0.3016  0.4446
  680BOLB   NC116297  20.816  -2.199  24.426 -0.1741 -0.2571 -0.2371
  680BOLB   PO116298  21.073  -2.252  24.724 -0.5130  0.2098 -0.1148
  680BOLB   GL116299  21.281  -2.711  24.717  0.1048  0.3573 -0.1540
  680BOLB   GL216300  21.095  -2.894  24.746  0.2347  0.2739 -0.1383
  680BOLB   C1A16301  21.457  -3.053  24.421 -0.1865 -0.0361  0.1843
  680BOLB   C2A16302  21.611  -3.558  24.373  0.1088  0.1054  0.2047
  680BOLB   C3A16303  21.838  -3.968  24.200 -0.0322  0.2709 -0.4673
  680BOLB   C4A16304  21.833  -4.443  24.172 -0.0217 -0.0729 -0.2329
  680BOLB   C1B16305  20.955  -3.296  25.015 -0.0898 -0.3868  0.1262
  680BOLB   C2B16306  20.974  -3.690  24.944  0.4358  0.3225  0.1700
  680BOLB   C3B16307  20.968  -4.040  25.031  0.1045 -0.1351 -0.3366
  680BOLB   C4B16308  21.187  -4.501  24.909 -0.0216  0.0821 -0.1211
  680BOLB   NC216309  22.976  -6.179  23.711  0.0864 -0.0961 -0.1201
  680BOLB   PO216310  23.002  -6.249  24.049  0.0510 -0.2164  0.1484
  680BOLB   GL316311  22.619  -5.999  24.213 -0.1477  0.0204 -0.2463
  680BOLB   GL416312  22.514  -5.976  24.487  0.2148 -0.2445 -0.2553
  680BOLB   C1C16313  22.149  -5.838  24.143  0.0985  0.2219  0.0540
  680BOLB   C2C16314  21.887  -5.540  23.955  0.0461  0.2085  0.1344
  680BOLB   C3C16315  21.835  -5.225  23.803  0.0052 -0.1218 -0.1643
  680BOLB   C4C16316  21.667  -4.877  24.027 -0.3862  0.3685 -0.1992
  680BOLB   C1D16317  22.408  -5.563  24.458 -0.1176 -0.0772 -0.0610
  680BOLB   C2D16318  22.032  -5.192  24.282 -0.2549 -0.1913  0.0251
  680BOLB   C3D16319  22.127  -4.860  23.971 -0.1190  0.0213 -0.2479
  680BOLB   C4D16320  22.444  -4.526  23.705  0.1423 -0.1603  0.0457
  681BOLB   NC116321  13.216  10.601  29.734 -0.1465  0.2506  0.3105
  681BOLB   PO116322  13.246  11.076  29.897 -0.0488 -0.0381 -0.2992
  681BOLB   GL116323  13.224  11.519  30.073  0.1378  0.2456 -0.1100
  681BOLB   GL216324  13.444  11.646  30.383  0.3801  0.4029  0.0951
  681BOLB   C1A16325  13.243  11.983  30.044 -0.0418 -0.1666 -0.2585
  681BOLB   C2A16326  13.288  12.343  30.149  0.1966 -0.1070  0.1328
  681BOLB   C3A16327  13.266  12.778  30.386  0.1782 -0.3119  0.0870
  681BOLB   C4A16328  13.306  13.136  30.549 -0.1168  0.2702 -0.4165
  681BOLB   C1B16329  13.519  12.054  30.603  0.0026  0.0419  0.2931
  681BOLB   C2B16330  13.418  12.406  30.628 -0.4038 -0.3226  0.1708
  681BOLB   C3B16331  13.328  12.628  30.911 -0.0011 -0.1646  0.0431
  681BOLB   C4B16332  13.032  12.771  31.283  0.0159 -0.0039  0.4933
  681BOLB   NC216333  12.911  15.476  31.509 -0.1518 -0.2547 -0.0785
  681BOLB   PO216334  12.517  15.184  31.375  0.0756 -0.2267 -0.0105
  681BOLB   GL316335  12.724  14.885  31.165 -0.0752 -0.0090  0.0623
  681BOLB   GL416336  12.810  14.711  31.412  0.0087  0.2501  0.1146
  681BOLB   C1C16337  13.052  14.579  30.994  0.2731  0.0489  0.2666
  681BOLB   C2C16338  12.808  14.254  30.797  0.0969 -0.0516  0.1920
  681BOLB   C3C16339  12.909  13.825  30.804  0.1873 -0.0853 -0.2871
  681BOLB   C4C16340  13.122  13.476  30.594  0.0633 -0.0083  0.2975
  681BOLB   C1D16341  12.821  14.251  31.346 -0.2051 -0.1560  0.1236
  681BOLB   C2D16342  12.878  13.746  31.367 -0.0375 -0.0745 -0.1117
  681BOLB   C3D16343  12.919  13.258  31.192 -0.0526  0.0031 -0.0733
  681BOLB   C4D16344  12.906  12.888  30.844  0.1852  0.0568  0.0275
  682BOLB   NC116345  11.871   2.558  17.196  0.0905  0.1685 -0.0498
  682BOLB   PO116346  11.458   2.658  17.394 -0.0263  0.0367  0.1346
  682BOLB   GL116347  11.402   2.817  17.004 -0.2185  0.1870  0.0939
  682BOLB   GL216348  11.716   2.781  16.748 -0.1351  0.0878  0.2728
  682BOLB   C1A16349  11.147   2.914  16.629 -0.2351  0.1356  0.0301
  682BOLB   C2A16350  11.207   2.752  16.231 -0.0141 -0.1266 -0.0844
  682BOLB   C3A16351  10.946   2.484  15.888 -0.2518 -0.0867 -0.3754
  682BOLB   C4A16352  10.552   2.300  15.774  0.2295 -0.1767 -0.4010
  682BOLB   C1B16353  11.754   2.670  16.361  0.0068 -0.0990  0.1367
  682BOLB   C2B16354  11.767   2.766  16.040 -0.1872  0.2847  0.1796
  682BOLB   C3B16355  11.710   2.882  15.606 -0.1957  0.0971  0.2399
  682BOLB   C4B16356  11.923   3.187  15.425 -0.4022  0.2812  0.1427
  682BOLB   NC216357   9.774   0.621  13.797 -0.2618 -0.1914 -0.3141
  682BOLB   PO216358   9.739   1.079  13.950 -0.1258  0.1675 -0.0093
  682BOLB   GL316359   9.552   1.528  14.345  0.2641  0.5890  0.0610
  682BOLB   GL416360   9.682   1.745  14.277  0.1785  0.1560  0.2354
  682BOLB   C1C16361   9.529   1.436  14.758  0.2024  0.2971 -0.1069
  682BOLB   C2C16362   9.793   1.593  14.998 -0.1383  0.0274 -0.2309
  682BOLB   C3C16363  10.103   1.757  15.203  0.1339  0.1701 -0.0293
  682BOLB   C4C16364  10.406   1.919  15.450  0.3908 -0.2543  0.0875
  682BOLB   C1D16365  10.081   1.907  14.553  0.0422  0.2405  0.0434
  682BOLB   C2D16366  10.323   2.046  14.882  0.3175 -0.1707 -0.1193
  682BOLB   C3D16367  10.770   2.162  15.137 -0.0900 -0.3792 -0.0336
  682BOLB   C4D16368  10.930   2.078  15.543  0.2556  0.2512  0.1669
  683BOLB   NC116369  23.261   7.554  25.600 -0.1666  0.2654  0.0206
  683BOLB   PO116370  23.661   7.820  25.768  0.0686  0.1021  0.2175
  683BOLB   GL116371  24.117   8.171  25.702  0.0957  0.0820  0.2627
  683BOLB   GL216372  24.404   8.108  25.797 -0.0824  0.4909 -0.0596
  683BOLB   C1A16373  24.146   8.522  25.834 -0.3889  0.2989 -0.2250
  683BOLB   C2A16374  24.290   8.936  25.556  0.2770  0.2169 -0.1378
  683BOLB   C3A16375  24.402   9.258  25.382 -0.0744  0.2754 -0.1009
  683BOLB   C4A16376  24.589   9.501  25.119 -0.1460  0.1710 -0.0292
  683BOLB   C1B16377  24.402   8.292  26.189  0.0998  0.1538  0.0254
  683BOLB   C2B16378  24.783   8.518  26.323  0.1543  0.1698 -0.2218
  683BOLB   C3B16379  25.195   8.790  26.330  0.1007  0.1013 -0.0710
  683BOLB   C4B16380  25.519   9.053  26.141 -0.0982  0.0442 -0.2208
  683BOLB   NC216381  26.968  10.226  24.950 -0.1825 -0.3472 -0.1703
  683BOLB   PO216382  26.753  10.330  24.661  0.0127  0.0902  0.3609
  683BOLB   GL316383  26.290  10.103  24.559 -0.0880  0.0581  0.1577
  683BOLB   GL416384  26.274  10.052  24.849 -0.2227  0.0901 -0.1812
  683BOLB   C1C16385  25.950   9.829  24.418  0.0304 -0.2130 -0.1568
  683BOLB   C2C16386  25.538   9.748  24.458  0.1636 -0.0047  0.0366
  683BOLB   C3C16387  25.203   9.548  24.632  0.2318  0.2408  0.1830
  683BOLB   C4C16388  24.932   9.527  24.948 -0.0511  0.0742  0.0487
  683BOLB   C1D16389  25.796  10.077  24.847  0.0626 -0.0510  0.2352
  683BOLB   C2D16390  25.432   9.855  24.877  0.0231 -0.1510  0.1145
  683BOLB   C3D16391  25.462   9.989  25.311  0.0187  0.0315 -0.1340
  683BOLB   C4D16392  25.278  10.014  25.692 -0.4103 -0.0330 -0.0282
  684BOLB   NC116393  10.009  10.727  25.382 -0.0932 -0.2132  0.0364
  684BOLB   PO116394  10.364  10.779  25.293  0.0716 -0.3038  0.0065
  684BOLB   GL116395  10.181  11.195  25.520 -0.0140  0.1264  0.1160
  684BOLB   GL216396  10.107  11.552  25.713  0.0960  0.0326  0.0559
  684BOLB   C1A16397   9.738  11.402  25.390 -0.0208  0.0774  0.0936
  684BOLB   C2A16398   9.528  11.763  25.266  0.1396  0.0162  0.0641
  684BOLB   C3A16399   9.362  12.117  25.073 -0.3097  0.3868 -0.0636
  684BOLB   C4A16400   9.334  12.486  25.089  0.2290  0.2537 -0.2362
  684BOLB   C1B16401   9.661  11.786  25.771 -0.2715 -0.1316  0.0797
  684BOLB   C2B16402   9.442  12.216  25.575 -0.0266 -0.1308 -0.0974
  684BOLB   C3B16403   9.168  12.546  25.647  0.2415 -0.4459  0.1570
  684BOLB   C4B16404   8.915  12.649  25.343  0.2510 -0.2458  0.0507
  684BOLB   NC216405   7.701  13.786  24.739  0.2548 -0.2127  0.0821
  684BOLB   PO216406   7.527  13.504  24.572 -0.1433 -0.2449 -0.0153
  684BOLB   GL316407   7.749  13.143  24.515  0.1634 -0.3779 -0.0666
  684BOLB   GL416408   7.568  12.985  24.224  0.1010 -0.0729 -0.3430
  684BOLB   C1C16409   8.126  12.968  24.648  0.1769 -0.0365 -0.4504
  684BOLB   C2C16410   8.514  12.828  24.453  0.2095 -0.3833  0.3065
  684BOLB   C3C16411   8.924  12.899  24.559  0.2497 -0.0275  0.2198
  684BOLB   C4C16412   9.154  12.864  24.943  0.1102 -0.0390  0.2844
  684BOLB   C1D16413   7.914  12.697  24.209 -0.3010 -0.2729  0.0348
  684BOLB   C2D16414   8.264  12.257  24.199 -0.0867  0.1086 -0.2418
  684BOLB   C3D16415   8.629  11.938  24.421 -0.0002  0.1548 -0.2583
  684BOLB   C4D16416   9.084  11.971  24.753  0.0526  0.1986 -0.1172
  685BOLB   NC116417  12.875   6.471  18.018 -0.0206  0.0434  0.3430
  685BOLB   PO116418  13.175   6.858  18.012 -0.1006 -0.3463 -0.0193
  685BOLB   GL116419  13.123   6.679  17.587 -0.0456 -0.1396 -0.1228
  685BOLB   GL216420  12.959   6.404  17.445 -0.1406  0.1608 -0.4462
  685BOLB   C1A16421  12.889   6.895  17.292 -0.0875 -0.1054 -0.2322
  685BOLB   C2A16422  12.697   7.129  16.924  0.1089 -0.1924 -0.3983
  685BOLB   C3A16423  12.717   7.595  16.775 -0.0689  0.2814 -0.0577
  685BOLB   C4A16424  12.623   7.909  16.473 -0.2017 -0.4984 -0.0370
  685BOLB   C1B16425  12.863   6.477  16.898  0.2344 -0.1740 -0.0467
  685BOLB   C2B16426  12.538   6.683  16.622  0.0756 -0.2687 -0.0658
  685BOLB   C3B16427  12.653   6.952  16.306  0.0590  0.2188  0.0809
  685BOLB   C4B16428  12.796   7.079  15.828  0.0720  0.1916  0.3256
  685BOLB   NC216429  11.555   9.277  14.234  0.1002  0.2102  0.2460
  685BOLB   PO216430  11.694   9.320  14.676  0.0159 -0.3981  0.0498
  685BOLB   GL316431  12.052   8.958  14.767  0.0054  0.0367  0.4179
  685BOLB   GL416432  12.278   9.133  14.633  0.2360  0.3679  0.2009
  685BOLB   C1C16433  12.233   8.639  14.952  0.2814 -0.3536  0.0657
  685BOLB   C2C16434  12.485   8.534  15.293 -0.0970 -0.0887  0.0950
  685BOLB   C3C16435  12.596   8.431  15.715 -0.2204  0.2553  0.0853
  685BOLB   C4C16436  12.776   8.185  16.134  0.4448 -0.0451  0.1492
  685BOLB   C1D16437  12.613   8.810  14.661  0.3438  0.1908 -0.0266
  685BOLB   C2D16438  12.936   8.559  14.827  0.1523 -0.1989 -0.0079
  685BOLB   C3D16439  13.390   8.728  15.126  0.2132 -0.0818  0.0501
  685BOLB   C4D16440  13.749   8.547  15.390 -0.1965 -0.2255  0.2154
  686BOLB   NC116441  14.475   5.628  16.932 -0.2001 -0.0564 -0.1140
  686BOLB   PO116442  14.115   5.498  16.848 -0.1573  0.3158  0.0208
  686BOLB   GL116443  13.973   5.504  16.490  0.0133  0.1731  0.0296
  686BOLB   GL216444  14.066   5.271  16.324 -0.0402  0.1645  0.0085
  686BOLB   C1A16445  13.679   5.894  16.234  0.1298  0.0291  0.2175
  686BOLB   C2A16446  13.457   5.754  15.883  0.0502 -0.1550 -0.2571
  686BOLB   C3A16447  13.183   5.799  15.569 -0.0526  0.2230 -0.2410
  686BOLB   C4A16448  12.774   5.512  15.511  0.1752  0.1842 -0.0954
  686BOLB   C1B16449  14.088   5.724  16.087 -0.3501  0.1330 -0.0017
  686BOLB   C2B16450  13.920   5.783  15.607 -0.2762 -0.1377  0.0600
  686BOLB   C3B16451  13.966   6.084  15.316  0.0891  0.0469 -0.1309
  686BOLB   C4B16452  14.330   6.420  15.128  0.0838 -0.3794 -0.0912
  686BOLB   NC216453  12.506   5.199  13.064 -0.0835 -0.1240 -0.1777
  686BOLB   PO216454  12.216   4.881  13.077  0.1362  0.1260 -0.1761
  686BOLB   GL316455  12.328   4.996  13.522  0.0626 -0.1086  0.1702
  686BOLB   GL416456  12.116   5.107  13.742  0.2516  0.0773 -0.0747
  686BOLB   C1C16457  12.552   5.213  13.908 -0.0503 -0.2567 -0.1460
  686BOLB   C2C16458  12.716   5.236  14.343 -0.1610 -0.1748  0.2128
  686BOLB   C3C16459  12.622   5.201  14.772 -0.0777  0.1239 -0.0395
  686BOLB   C4C16460  12.651   5.406  15.202 -0.1734  0.2182  0.1111
  686BOLB   C1D16461  12.309   4.860  14.175 -0.0469  0.0794  0.3169
  686BOLB   C2D16462  12.431   4.747  14.614  0.0308  0.2194  0.4152
  686BOLB   C3D16463  12.407   4.869  15.001  0.2633  0.0649 -0.0046
  686BOLB   C4D16464  12.572   4.828  15.412  0.0886  0.0941  0.1186
  687BOLB   NC116465  21.259   5.925  17.900  0.2978  0.0596 -0.0075
  687BOLB   PO116466  20.910   6.166  17.780  0.1209 -0.0667  0.0827
  687BOLB   GL116467  21.053   6.118  17.424 -0.1566  0.0203 -0.0105
  687BOLB   GL216468  21.001   5.871  17.265 -0.1337 -0.0888 -0.1917
  687BOLB   C1A16469  21.400   6.322  17.134 -0.0831 -0.1749  0.1581
  687BOLB   C2A16470  21.452   6.491  16.762 -0.2548 -0.1421  0.2363
  687BOLB   C3A16471  21.705   6.469  16.272 -0.0965 -0.3583  0.2051
  687BOLB   C4A16472  21.915   6.627  15.796 -0.1129 -0.0471  0.1164
  687BOLB   C1B16473  21.206   5.913  16.961 -0.1094  0.1062  0.0257
  687BOLB   C2B16474  21.471   5.838  16.520  0.1616 -0.2802  0.3942
  687BOLB   C3B16475  21.449   5.958  16.133 -0.1199  0.1586  0.0761
  687BOLB   C4B16476  21.290   5.874  15.686  0.0285 -0.1324 -0.3879
  687BOLB   NC216477  23.679   8.190  15.152 -0.0610  0.3776 -0.0014
  687BOLB   PO216478  23.683   8.240  15.531 -0.1040 -0.1113 -0.1218
  687BOLB   GL316479  23.380   8.078  15.863 -0.1322  0.1734 -0.2262
  687BOLB   GL416480  23.418   8.184  16.225  0.0184 -0.0833 -0.3018
  687BOLB   C1C16481  23.042   7.787  16.119 -0.1289 -0.0913 -0.0537
  687BOLB   C2C16482  22.761   7.567  15.927 -0.0913  0.2910  0.3084
  687BOLB   C3C16483  22.469   7.415  15.811  0.3381  0.1463 -0.0291
  687BOLB   C4C16484  22.227   6.952  15.767 -0.0954 -0.2106  0.1602
  687BOLB   C1D16485  23.060   8.250  16.481 -0.0522 -0.0816  0.2507
  687BOLB   C2D16486  22.704   8.104  16.684  0.0168 -0.2427 -0.1966
  687BOLB   C3D16487  22.569   7.780  16.956  0.1326  0.1138 -0.0301
  687BOLB   C4D16488  22.747   7.575  17.381  0.0153  0.0341 -0.3082
  688BOLB   NC116489  11.737   0.201  18.239 -0.0638 -0.2178 -0.2834
  688BOLB   PO116490  11.403   0.415  18.249 -0.0423 -0.3023  0.1536
  688BOLB   GL116491  10.984   0.228  18.138  0.1991 -0.1164  0.1774
  688BOLB   GL216492  10.724   0.328  18.400  0.2226  0.3071  0.3081
  688BOLB   C1A16493  10.801   0.279  17.697  0.0318  0.0271 -0.2147
  688BOLB   C2A16494  10.507   0.144  17.289  0.0125  0.1206  0.1131
  688BOLB   C3A16495  10.302  -0.085  16.986  0.0097 -0.1211  0.0510
  688BOLB   C4A16496  10.008  -0.263  16.875 -0.2543  0.2533  0.0067
  688BOLB   C1B16497  10.509   0.171  18.128  0.2004 -0.1165  0.1263
  688BOLB   C2B16498  10.180   0.143  17.765 -0.2443  0.0311  0.4409
  688BOLB   C3B16499   9.795   0.229  17.733  0.2184  0.0366  0.1922
  688BOLB   C4B16500   9.493   0.317  17.428 -0.2200 -0.3211  0.2427
  688BOLB   NC216501   8.395  -1.145  15.409 -0.2831  0.0197 -0.1190
  688BOLB   PO216502   8.379  -1.492  15.709  0.2390 -0.0022  0.1004
  688BOLB   GL316503   8.863  -1.432  15.783  0.1963 -0.1278 -0.0694
  688BOLB   GL416504   9.107  -1.554  15.773 -0.1977  0.1336  0.1476
  688BOLB   C1C16505   9.077  -1.475  16.238  0.1857 -0.2247  0.1879
  688BOLB   C2C16506   9.489  -1.390  16.437  0.1004  0.2202  0.3881
  688BOLB   C3C16507   9.597  -1.011  16.660 -0.3475  0.1360 -0.1253
  688BOLB   C4C16508   9.667  -0.606  16.904  0.0232  0.1095  0.1187
  688BOLB   C1D16509   9.368  -1.221  15.850 -0.0259 -0.0777 -0.2813
  688BOLB   C2D16510   9.292  -0.952  16.128  0.1876 -0.1139 -0.0268
  688BOLB   C3D16511   9.472  -0.602  16.404 -0.0684  0.1759  0.0371
  688BOLB   C4D16512   9.636  -0.224  16.577 -0.2026 -0.0016 -0.1352
  689BOLB   NC116513   8.975  -0.203  20.598 -0.4024 -0.1812 -0.0839
  689BOLB   PO116514   9.325  -0.405  20.481  0.1309 -0.0015  0.0822
  689BOLB   GL116515   9.102  -0.755  20.425  0.0387 -0.3828 -0.1851
  689BOLB   GL216516   8.983  -0.860  20.764 -0.2867 -0.0137  0.2793
  689BOLB   C1A16517   8.873  -1.013  20.321 -0.2449 -0.2455 -0.3182
  689BOLB   C2A16518   8.661  -1.377  20.421 -0.1019  0.0786  0.3950
  689BOLB   C3A16519   8.352  -1.631  20.334 -0.1235  0.1831 -0.1844
  689BOLB   C4A16520   8.017  -1.526  20.209 -0.0691  0.1009 -0.0995
  689BOLB   C1B16521   8.572  -1.032  20.769 -0.0877 -0.2382 -0.1658
  689BOLB   C2B16522   8.296  -1.367  20.847 -0.0505  0.0577  0.0956
  689BOLB   C3B16523   8.200  -1.708  20.794 -0.0888  0.3522 -0.0344
  689BOLB   C4B16524   7.751  -1.956  20.956  0.1643 -0.1175  0.1267
  689BOLB   NC216525   5.891  -2.882  19.915 -0.1762 -0.5071  0.0037
  689BOLB   PO216526   6.203  -2.856  19.501  0.0608 -0.2210 -0.3292
  689BOLB   GL316527   6.572  -2.626  19.445  0.0390 -0.0203  0.1108
  689BOLB   GL416528   6.912  -2.820  19.459  0.0438 -0.2626  0.0378
  689BOLB   C1C16529   6.798  -2.353  19.741 -0.3060  0.2519  0.0108
  689BOLB   C2C16530   7.180  -2.291  19.984 -0.0418  0.1938 -0.0307
  689BOLB   C3C16531   7.395  -1.976  20.185 -0.4296  0.2484 -0.0348
  689BOLB   C4C16532   7.752  -1.829  20.416 -0.2588  0.1101  0.1684
  689BOLB   C1D16533   6.997  -2.940  19.859  0.1531  0.1841  0.1826
  689BOLB   C2D16534   7.252  -2.978  20.299 -0.1997  0.1585  0.1104
  689BOLB   C3D16535   7.471  -2.840  20.632 -0.1688  0.4858  0.1579
  689BOLB   C4D16536   7.899  -2.729  20.616  0.0167  0.5046 -0.2301
  690BOLB   NC116537  13.816  11.831  28.380  0.0808  0.2056 -0.1102
  690BOLB   PO116538  13.572  12.057  28.069 -0.1705 -0.0594  0.0835
  690BOLB   GL116539  13.615  12.545  28.075  0.0468 -0.1769  0.0326
  690BOLB   GL216540  13.721  12.788  27.786  0.0494  0.2510 -0.1120
  690BOLB   C1A16541  13.494  12.825  28.446 -0.1189  0.1651  0.2023
  690BOLB   C2A16542  13.326  13.252  28.529 -0.3789  0.2720 -0.1589
  690BOLB   C3A16543  13.081  13.548  28.286  0.0495 -0.4101 -0.4079
  690BOLB   C4A16544  12.813  13.983  28.327 -0.0148 -0.2822 -0.2433
  690BOLB   C1B16545  13.646  13.092  27.535 -0.0964  0.0560  0.1375
  690BOLB   C2B16546  13.501  13.463  27.509  0.1470 -0.0475 -0.0804
  690BOLB   C3B16547  13.738  13.753  27.561  0.4372 -0.5294 -0.0614
  690BOLB   C4B16548  13.457  14.098  27.438 -0.1178 -0.0504  0.1100
  690BOLB   NC216549  12.884  16.530  28.704 -0.2374 -0.1175  0.3001
  690BOLB   PO216550  12.529  16.512  28.849 -0.1709 -0.0097  0.0083
  690BOLB   GL316551  12.629  16.079  28.670 -0.1187 -0.0066 -0.1923
  690BOLB   GL416552  12.964  16.012  28.800  0.2974 -0.1858  0.0136
  690BOLB   C1C16553  12.631  15.641  28.566 -0.0905 -0.1715 -0.1817
  690BOLB   C2C16554  12.550  15.189  28.498 -0.2856  0.0865  0.0397
  690BOLB   C3C16555  12.365  14.704  28.585 -0.1896 -0.3537  0.1748
  690BOLB   C4C16556  12.511  14.295  28.558  0.2453  0.0656  0.3831
  690BOLB   C1D16557  13.070  15.556  28.717 -0.0357 -0.1086 -0.1236
  690BOLB   C2D16558  13.045  15.152  28.692 -0.0161 -0.1137 -0.1780
  690BOLB   C3D16559  13.112  14.708  28.702  0.1564 -0.1009 -0.1597
  690BOLB   C4D16560  12.988  14.301  28.695  0.2305  0.1665  0.2695
  691BOLB   NC116561   6.662   2.815  26.916  0.0930  0.2448 -0.1188
  691BOLB   PO116562   6.626   3.079  26.510  0.0024 -0.0515 -0.0346
  691BOLB   GL116563   6.273   2.876  26.412  0.2284  0.0045  0.2859
  691BOLB   GL216564   5.999   3.059  26.554 -0.4006  0.1879  0.0662
  691BOLB   C1A16565   5.888   2.609  26.296 -0.0868  0.0257  0.1126
  691BOLB   C2A16566   5.651   2.253  26.231  0.1319 -0.2126 -0.4687
  691BOLB   C3A16567   5.371   2.216  25.882  0.2843 -0.0301 -0.0219
  691BOLB   C4A16568   4.977   2.301  25.630 -0.0026  0.1719 -0.1001
  691BOLB   C1B16569   5.693   3.007  26.765 -0.3209 -0.1331  0.3132
  691BOLB   C2B16570   5.442   2.833  27.160 -0.1761  0.2054 -0.0657
  691BOLB   C3B16571   5.363   3.087  27.537  0.0915 -0.1040  0.4116
  691BOLB   C4B16572   5.483   3.307  27.871 -0.2381  0.2749 -0.0743
  691BOLB   NC216573   2.642   2.472  25.793  0.2244 -0.2467 -0.1801
  691BOLB   PO216574   2.463   2.169  25.490  0.0647  0.2998 -0.0600
  691BOLB   GL316575   2.922   1.972  25.505 -0.0578 -0.1397 -0.0239
  691BOLB   GL416576   3.164   1.697  25.573 -0.1957 -0.0225 -0.0358
  691BOLB   C1C16577   3.227   2.298  25.523 -0.4245 -0.3876 -0.0016
  691BOLB   C2C16578   3.705   2.428  25.519 -0.0942  0.2920 -0.0988
  691BOLB   C3C16579   4.107   2.483  25.582  0.1589  0.2413 -0.2891
  691BOLB   C4C16580   4.539   2.330  25.643  0.2028 -0.0478 -0.1614
  691BOLB   C1D16581   3.632   1.740  25.653 -0.0005  0.0464  0.1726
  691BOLB   C2D16582   4.018   1.600  25.590 -0.2166  0.1890 -0.2008
  691BOLB   C3D16583   4.408   1.604  25.345 -0.1593 -0.0194 -0.0866
  691BOLB   C4D16584   4.664   1.461  24.915 -0.1670  0.1151  0.0530
  692BOLB   NC116585  24.461   2.743  22.964  0.1215 -0.0873  0.2630
  692BOLB   PO116586  24.764   2.967  23.287  0.3209 -0.1938 -0.2335
  692BOLB   GL116587  25.197   2.732  23.451  0.1651 -0.0810  0.0150
  692BOLB   GL216588  25.124   2.446  23.387 -0.1424 -0.0748  0.2423
  692BOLB   C1A16589  25.548   2.600  23.609 -0.1262  0.0473 -0.1563
  692BOLB   C2A16590  25.838   2.550  23.674  0.4433 -0.1591  0.1402
  692BOLB   C3A16591  26.073   2.753  23.406 -0.1136 -0.0107  0.2202
  692BOLB   C4A16592  26.280   2.832  22.963  0.0921  0.0123  0.1987
  692BOLB   C1B16593  25.447   2.296  23.182 -0.1431  0.2583 -0.2404
  692BOLB   C2B16594  25.775   2.130  23.280  0.2028  0.0793 -0.5945
  692BOLB   C3B16595  26.101   1.772  23.420 -0.2485  0.0680  0.2439
  692BOLB   C4B16596  26.155   1.379  23.688 -0.0267 -0.0681 -0.1300
  692BOLB   NC216597  28.705   3.932  22.474 -0.0924 -0.1066 -0.0620
  692BOLB   PO216598  28.611   3.539  22.560  0.0754 -0.0323 -0.0891
  692BOLB   GL316599  28.129   3.426  22.665 -0.0474 -0.0114  0.0369
  692BOLB   GL416600  27.845   3.713  22.793  0.0598 -0.0661 -0.1370
  692BOLB   C1C16601  27.858   3.192  22.913  0.1679 -0.2531  0.0304
  692BOLB   C2C16602  27.531   3.012  22.837 -0.1623  0.1931  0.0529
  692BOLB   C3C16603  27.144   2.939  22.959  0.0573  0.0367  0.1807
  692BOLB   C4C16604  26.660   2.955  22.883  0.2739  0.0364  0.0177
  692BOLB   C1D16605  27.476   3.517  22.898 -0.2137 -0.0917 -0.3156
  692BOLB   C2D16606  27.030   3.576  22.832 -0.2619 -0.2077  0.1291
  692BOLB   C3D16607  26.585   3.773  22.806 -0.0585  0.1366 -0.1407
  692BOLB   C4D16608  26.210   3.746  22.755 -0.3261  0.1616 -0.1981
  693BOLB   NC116609  18.286   5.412  33.354 -0.1621  0.0026  0.1056
  693BOLB   PO116610  18.649   5.307  33.601 -0.0020  0.1943  0.0707
  693BOLB   GL116611  18.631   5.284  33.950 -0.0133 -0.1609  0.0647
  693BOLB   GL216612  18.543   5.605  34.172 -0.3230 -0.0945 -0.2064
  693BOLB   C1A16613  18.749   5.209  34.328 -0.0175  0.1078  0.0213
  693BOLB   C2A16614  18.956   4.908  34.610 -0.1722 -0.0491  0.0598
  693BOLB   C3A16615  19.238   4.908  34.884 -0.3561  0.2303 -0.1793
  693BOLB   C4A16616  19.727   5.009  35.085 -0.0572  0.1692  0.0728
  693BOLB   C1B16617  18.783   5.627  34.569 -0.1097 -0.1333 -0.0222
  693BOLB   C2B16618  18.630   5.814  35.024 -0.0165  0.1869  0.5575
  693BOLB   C3B16619  18.925   6.108  35.298 -0.2169 -0.1128 -0.0601
  693BOLB   C4B16620  19.187   6.410  35.212 -0.1202  0.1434 -0.0186
  693BOLB   NC216621  19.719   5.104  37.609 -0.1820  0.2566  0.4788
  693BOLB   PO216622  19.852   4.769  37.483  0.1328  0.0016 -0.1793
  693BOLB   GL316623  19.995   4.770  37.006 -0.1969  0.0748  0.1955
  693BOLB   GL416624  19.748   4.642  36.772  0.0667  0.0097  0.0936
  693BOLB   C1C16625  20.207   4.856  36.667 -0.0214  0.1926 -0.1340
  693BOLB   C2C16626  20.088   5.097  36.360 -0.1856 -0.1682 -0.2440
  693BOLB   C3C16627  19.993   5.216  35.953  0.0002  0.3884  0.0193
  693BOLB   C4C16628  19.865   5.094  35.534  0.1492  0.0810  0.0360
  693BOLB   C1D16629  19.602   4.966  36.559  0.1256 -0.1062  0.1296
  693BOLB   C2D16630  19.610   5.322  36.245  0.0818  0.0160 -0.0158
  693BOLB   C3D16631  19.574   5.627  35.941 -0.0700 -0.2761 -0.2398
  693BOLB   C4D16632  19.503   6.045  36.048  0.1748 -0.1601 -0.3427
  694BOLB   NC116633  12.921  11.912  28.740  0.2266 -0.0936  0.0685
  694BOLB   PO116634  12.819  11.657  29.158  0.1248 -0.1853  0.3277
  694BOLB   GL116635  12.717  12.085  29.235 -0.1739 -0.3294  0.1068
  694BOLB   GL216636  12.658  12.120  29.488 -0.1032  0.1135 -0.0513
  694BOLB   C1A16637  12.395  12.437  29.179 -0.1142  0.0790 -0.0895
  694BOLB   C2A16638  12.249  12.802  29.026 -0.2114  0.0896  0.4286
  694BOLB   C3A16639  12.241  13.186  29.192 -0.3051 -0.0725 -0.0870
  694BOLB   C4A16640  12.263  13.570  29.053  0.0990  0.0500  0.3379
  694BOLB   C1B16641  12.590  12.402  29.765 -0.0687 -0.2487 -0.3141
  694BOLB   C2B16642  12.653  12.701  30.151 -0.1590 -0.0690 -0.2277
  694BOLB   C3B16643  12.669  13.089  30.394  0.1380 -0.1358  0.3334
  694BOLB   C4B16644  12.674  13.353  30.774 -0.2124  0.4133 -0.2694
  694BOLB   NC216645  12.721  15.689  30.758  0.4109 -0.1602 -0.0654
  694BOLB   PO216646  12.826  15.676  30.332 -0.1184 -0.2542  0.1507
  694BOLB   GL316647  12.801  15.558  29.973  0.2049  0.1044  0.0611
  694BOLB   GL416648  12.697  15.752  29.741  0.1661  0.2245 -0.4275
  694BOLB   C1C16649  12.669  15.190  29.791 -0.0783 -0.4193  0.2492
  694BOLB   C2C16650  12.528  14.785  29.501  0.0383 -0.1182 -0.4565
  694BOLB   C3C16651  12.521  14.271  29.545 -0.1005 -0.2141  0.2635
  694BOLB   C4C16652  12.496  13.977  29.219  0.0968  0.0887  0.0618
  694BOLB   C1D16653  12.771  15.549  29.318 -0.2927  0.0854 -0.1089
  694BOLB   C2D16654  12.711  15.258  29.019 -0.0212  0.2076  0.4846
  694BOLB   C3D16655  12.625  14.842  28.961  0.2936  0.0561  0.0449
  694BOLB   C4D16656  12.696  14.500  29.061 -0.0630  0.0258 -0.1884
  695BOLB   NC116657  20.793   6.022  32.083  0.0873 -0.2948 -0.0959
  695BOLB   PO116658  20.652   6.428  32.298 -0.0459  0.2641  0.3249
  695BOLB   GL116659  20.506   6.603  32.642  0.2249 -0.0382 -0.2281
  695BOLB   GL216660  20.386   6.413  32.826  0.0056 -0.1613 -0.2673
  695BOLB   C1A16661  20.874   6.871  32.738  0.2546 -0.0260  0.1370
  695BOLB   C2A16662  21.080   7.273  32.882 -0.2226 -0.2013 -0.0298
  695BOLB   C3A16663  21.473   7.431  33.201  0.1500 -0.1390 -0.2079
  695BOLB   C4A16664  21.818   7.662  33.500  0.2364  0.0109 -0.1843
  695BOLB   C1B16665  20.604   6.508  33.174 -0.0118  0.0290 -0.1723
  695BOLB   C2B16666  20.606   6.828  33.499  0.1743  0.2558 -0.1786
  695BOLB   C3B16667  20.876   6.661  33.931  0.1610 -0.1113  0.0465
  695BOLB   C4B16668  21.170   6.895  34.169  0.0083 -0.1483  0.0355
  695BOLB   NC216669  21.574   8.630  35.762 -0.2495 -0.0242 -0.2320
  695BOLB   PO216670  21.712   8.954  35.454  0.0993 -0.1038  0.0387
  695BOLB   GL316671  21.757   8.930  35.002  0.5461  0.2296  0.2206
  695BOLB   GL416672  21.686   9.185  34.776  0.0367  0.0186 -0.0866
  695BOLB   C1C16673  22.066   8.741  34.733  0.0196 -0.0443 -0.3184
  695BOLB   C2C16674  22.103   8.334  34.506  0.1410  0.2413 -0.0253
  695BOLB   C3C16675  22.121   8.208  34.057  0.0038 -0.4125 -0.3111
  695BOLB   C4C16676  22.102   7.896  33.787  0.2534 -0.0177 -0.0118
  695BOLB   C1D16677  22.011   9.138  34.442 -0.0631  0.0634  0.2823
  695BOLB   C2D16678  22.131   8.827  34.087 -0.0004 -0.0682 -0.1026
  695BOLB   C3D16679  22.132   8.922  33.742  0.0698 -0.1175  0.4677
  695BOLB   C4D16680  21.849   8.833  33.326  0.0915 -0.1567 -0.1370
  696BOLB   NC116681  17.886  -3.747  27.287  0.0151 -0.0374 -0.0624
  696BOLB   PO116682  18.140  -3.435  27.436 -0.1866  0.0456  0.2035
  696BOLB   GL116683  18.412  -3.803  27.551 -0.4319  0.0507 -0.0500
  696BOLB   GL216684  18.739  -3.795  27.425 -0.1192  0.0225  0.0132
  696BOLB   C1A16685  18.311  -4.199  27.585  0.0115  0.2298 -0.0093
  696BOLB   C2A16686  18.357  -4.673  27.630 -0.2697  0.1841 -0.0834
  696BOLB   C3A16687  18.554  -5.021  27.499 -0.2691  0.0749 -0.0136
  696BOLB   C4A16688  18.655  -5.362  27.163 -0.0347  0.0231  0.1491
  696BOLB   C1B16689  18.798  -4.199  27.508 -0.3339  0.1581 -0.2690
  696BOLB   C2B16690  18.710  -4.554  27.279  0.3389 -0.1949  0.1942
  696BOLB   C3B16691  18.332  -4.537  27.129 -0.0687 -0.0787 -0.2511
  696BOLB   C4B16692  18.050  -4.635  26.878 -0.0995  0.2818  0.1443
  696BOLB   NC216693  18.467  -8.181  26.642  0.0571 -0.3462  0.2749
  696BOLB   PO216694  18.440  -7.890  27.102 -0.0861  0.4504  0.0026
  696BOLB   GL316695  18.482  -7.528  27.256 -0.1452 -0.1256 -0.1629
  696BOLB   GL416696  18.253  -7.489  27.508  0.0182 -0.4676 -0.1879
  696BOLB   C1C16697  18.498  -7.033  27.188 -0.1109  0.2305 -0.0610
  696BOLB   C2C16698  18.349  -6.584  27.030 -0.3002  0.1672 -0.1698
  696BOLB   C3C16699  18.234  -6.176  26.998 -0.0708  0.2048 -0.1772
  696BOLB   C4C16700  18.450  -5.798  27.042  0.1574 -0.2705  0.3536
  696BOLB   C1D16701  18.095  -7.055  27.516  0.1868 -0.1136 -0.0794
  696BOLB   C2D16702  18.302  -6.738  27.589 -0.2276 -0.0166  0.0961
  696BOLB   C3D16703  18.464  -6.416  27.906 -0.1129  0.2605  0.1035
  696BOLB   C4D16704  18.731  -6.223  28.306 -0.2038 -0.0077 -0.2877
  697BOLB   NC116705  14.302  -2.543  18.071 -0.2582  0.0608  0.1883
  697BOLB   PO116706  13.933  -2.758  18.014 -0.1467  0.2156 -0.3626
  697BOLB   GL116707  13.871  -2.655  17.684  0.2239  0.1475 -0.0427
  697BOLB   GL216708  14.123  -2.445  17.626  0.2855 -0.1293 -0.1508
  697BOLB   C1A16709  13.749  -2.437  17.284  0.1119 -0.2279  0.5465
  697BOLB   C2A16710  13.791  -2.683  16.913 -0.0091 -0.0436  0.0638
  697BOLB   C3A16711  13.906  -2.898  16.560  0.0311  0.1046 -0.1341
  697BOLB   C4A16712  13.899  -2.752  16.176  0.1782 -0.2456  0.3520
  697BOLB   C1B16713  14.167  -2.862  17.401  0.1333  0.2948 -0.1762
  697BOLB   C2B16714  14.193  -3.150  17.050  0.2843  0.0832  0.1542
  697BOLB   C3B16715  14.110  -3.358  16.580 -0.0060 -0.5571  0.1918
  697BOLB   C4B16716  13.724  -3.469  16.392 -0.1768 -0.0120 -0.1540
  697BOLB   NC216717  12.345  -2.928  13.904 -0.0430  0.1611  0.0456
  697BOLB   PO216718  12.500  -3.162  14.256  0.0508 -0.4046 -0.0158
  697BOLB   GL316719  12.721  -3.259  14.636 -0.1358 -0.0968 -0.1183
  697BOLB   GL416720  12.697  -3.523  14.872  0.1425  0.2207 -0.0160
  697BOLB   C1C16721  12.994  -3.091  14.931  0.0804  0.0372  0.1923
  697BOLB   C2C16722  13.138  -2.940  15.311 -0.3873 -0.2945 -0.3223
  697BOLB   C3C16723  13.252  -2.792  15.737  0.0934  0.1701  0.2092
  697BOLB   C4C16724  13.645  -2.672  15.841 -0.0104 -0.1137 -0.0995
  697BOLB   C1D16725  13.056  -3.492  15.190  0.2501 -0.0945 -0.2569
  697BOLB   C2D16726  13.334  -3.302  15.624  0.1898 -0.1011 -0.1529
  697BOLB   C3D16727  13.726  -3.223  15.967 -0.2985 -0.0399  0.0536
  697BOLB   C4D16728  14.040  -2.931  15.739  0.0514  0.4232  0.0502
  698BOLB   NC116729   7.945   4.195  21.785 -0.0943 -0.2168  0.1962
  698BOLB   PO116730   7.774   4.502  21.728  0.0901 -0.4012 -0.1387
  698BOLB   GL116731   7.359   4.331  21.550 -0.0321  0.0508 -0.4470
  698BOLB   GL216732   7.440   4.141  21.719  0.0350  0.3170  0.1219
  698BOLB   C1A16733   7.150   4.645  21.516  0.0245 -0.2562 -0.2821
  698BOLB   C2A16734   6.787   4.587  21.431 -0.1487  0.0229  0.2911
  698BOLB   C3A16735   6.572   4.412  21.045  0.1735  0.3061 -0.0333
  698BOLB   C4A16736   6.175   4.272  20.843 -0.2218  0.0944 -0.2140
  698BOLB   C1B16737   7.098   4.230  21.948  0.0805  0.0626 -0.0126
  698BOLB   C2B16738   6.724   4.293  21.854 -0.0655 -0.0830 -0.0042
  698BOLB   C3B16739   6.364   4.290  21.757 -0.1747 -0.2503 -0.4129
  698BOLB   C4B16740   6.001   4.116  21.948  0.0684  0.0142 -0.1807
  698BOLB   NC216741   4.036   3.638  19.608  0.3285  0.0993 -0.0966
  698BOLB   PO216742   4.146   3.986  19.885  0.0948 -0.1508 -0.0545
  698BOLB   GL316743   4.537   4.286  19.899  0.2430 -0.1985  0.0408
  698BOLB   GL416744   4.447   4.598  19.802 -0.2803  0.0972  0.0004
  698BOLB   C1C16745   4.776   4.426  20.316 -0.2220  0.2283  0.0098
  698BOLB   C2C16746   4.950   4.365  20.657  0.1648  0.0841  0.0682
  698BOLB   C3C16747   5.312   4.446  20.841 -0.3457 -0.0940  0.0042
  698BOLB   C4C16748   5.767   4.408  21.070  0.1114 -0.2857 -0.0061
  698BOLB   C1D16749   4.952   4.614  19.852 -0.0671 -0.1999  0.2378
  698BOLB   C2D16750   5.284   4.465  19.952 -0.2359  0.0557  0.0437
  698BOLB   C3D16751   5.620   4.236  19.860 -0.0802 -0.1236 -0.3426
  698BOLB   C4D16752   5.790   4.202  19.525  0.2241  0.1982 -0.0015
  699BOLB   NC116753   9.775  10.212  24.620 -0.2174 -0.1556 -0.4933
  699BOLB   PO116754  10.184  10.233  24.464  0.0405 -0.0165 -0.0112
  699BOLB   GL116755  10.068  10.614  24.448  0.0273 -0.0138  0.0605
  699BOLB   GL216756   9.801  10.674  24.620 -0.0435 -0.4387 -0.0710
  699BOLB   C1A16757   9.943  11.134  24.439 -0.1745  0.2980 -0.1913
  699BOLB   C2A16758   9.880  11.542  24.425  0.0552  0.1729 -0.2177
  699BOLB   C3A16759   9.627  11.934  24.412  0.6161 -0.0320 -0.1409
  699BOLB   C4A16760   9.385  12.271  24.377  0.1200  0.0499 -0.2720
  699BOLB   C1B16761   9.465  11.092  24.727  0.1023 -0.0229  0.0606
  699BOLB   C2B16762   9.094  11.105  24.580 -0.3403 -0.0253  0.1201
  699BOLB   C3B16763   8.656  11.037  24.317  0.3166  0.4065  0.0884
  699BOLB   C4B16764   8.307  11.132  24.111 -0.0232  0.3445 -0.1373
  699BOLB   NC216765   7.797  13.126  23.693 -0.2608  0.0719 -0.1343
  699BOLB   PO216766   7.918  13.489  23.940 -0.1307  0.0771 -0.4255
  699BOLB   GL316767   8.250  13.191  23.919  0.0371  0.3656  0.0832
  699BOLB   GL416768   8.222  13.027  24.084 -0.0125 -0.1665  0.0249
  699BOLB   C1C16769   8.539  13.064  23.573 -0.1101 -0.0978 -0.0709
  699BOLB   C2C16770   8.999  12.819  23.520  0.1683 -0.1162 -0.0988
  699BOLB   C3C16771   9.114  12.526  23.784  0.2678 -0.3832 -0.1384
  699BOLB   C4C16772   9.382  12.658  24.222 -0.0292  0.2224 -0.0593
  699BOLB   C1D16773   8.341  12.587  23.814  0.0402 -0.1383 -0.1540
  699BOLB   C2D16774   8.694  12.324  23.922  0.1075  0.1600 -0.1315
  699BOLB   C3D16775   9.011  12.018  24.134 -0.1926  0.2557 -0.1205
  699BOLB   C4D16776   9.354  11.889  23.949 -0.2729 -0.1143  0.0374
  700BOLB   NC116777  17.736  -9.819  14.678  0.2285 -0.1794  0.3105
  700BOLB   PO116778  17.548  -9.421  14.525 -0.0387  0.1115 -0.0629
  700BOLB   GL116779  17.545  -8.992  14.568  0.0514  0.1891 -0.1571
  700BOLB   GL216780  17.594  -8.958  14.906 -0.1991  0.1171  0.0651
  700BOLB   C1A16781  17.651  -8.634  14.446 -0.0904  0.0432  0.2320
  700BOLB   C2A16782  17.872  -8.312  14.399  0.1175 -0.2481  0.0066
  700BOLB   C3A16783  18.124  -8.064  14.674 -0.0700  0.1805 -0.3442
  700BOLB   C4A16784  18.582  -8.056  14.685  0.1171  0.0348  0.0537
  700BOLB   C1B16785  17.942  -8.628  14.864  0.2483 -0.1221  0.1634
  700BOLB   C2B16786  18.085  -8.301  15.128  0.0622 -0.0140  0.0137
  700BOLB   C3B16787  18.101  -7.893  15.304 -0.3462  0.0300 -0.5778
  700BOLB   C4B16788  17.956  -7.705  15.645 -0.0917 -0.1947  0.0213
  700BOLB   NC216789  19.762 -10.208  15.359 -0.3011 -0.2395  0.1049
  700BOLB   PO216790  19.889  -9.861  15.577  0.2184 -0.1473  0.4173
  700BOLB   GL316791  19.857  -9.398  15.391  0.0252 -0.0933  0.2997
  700BOLB   GL416792  20.209  -9.376  15.388 -0.0709  0.0396  0.1352
  700BOLB   C1C16793  19.575  -8.986  15.285 -0.2020  0.1421  0.0994
  700BOLB   C2C16794  19.439  -8.588  14.985 -0.2783 -0.0064  0.0195
  700BOLB   C3C16795  19.355  -8.074  14.999 -0.3008 -0.1047  0.2587
  700BOLB   C4C16796  18.983  -8.117  15.017  0.1025 -0.1733 -0.0127
  700BOLB   C1D16797  20.262  -9.028  15.630  0.0380  0.0557 -0.1547
  700BOLB   C2D16798  19.997  -8.740  15.733  0.1474 -0.2157 -0.2032
  700BOLB   C3D16799  19.818  -8.671  16.009 -0.2442  0.2667 -0.1802
  700BOLB   C4D16800  19.430  -8.828  16.239 -0.1113  0.4159 -0.0227
  701BOLB   NC116801  13.110   6.904  33.086 -0.1401 -0.1062 -0.1971
  701BOLB   PO116802  13.139   6.401  33.290  0.0798  0.0560 -0.0898
  701BOLB   GL116803  12.878   6.355  33.579  0.1927  0.1230  0.1306
  701BOLB   GL216804  12.574   6.238  33.472 -0.2076  0.3345 -0.0520
  701BOLB   C1A16805  12.596   6.379  33.962  0.0460  0.0708  0.0911
  701BOLB   C2A16806  12.332   6.471  34.232 -0.0703 -0.0740 -0.0788
  701BOLB   C3A16807  12.055   6.290  34.582  0.4438  0.1495 -0.2239
  701BOLB   C4A16808  11.780   6.194  34.899 -0.2314  0.3752  0.1445
  701BOLB   C1B16809  12.503   5.903  33.865 -0.1252  0.1206  0.0864
  701BOLB   C2B16810  12.654   5.993  34.268  0.1533  0.2790 -0.0875
  701BOLB   C3B16811  12.663   5.773  34.675 -0.0053 -0.3059 -0.1203
  701BOLB   C4B16812  12.773   5.985  35.036  0.0089  0.0426  0.4294
  701BOLB   NC216813  10.158   6.317  37.067 -0.0108 -0.1830 -0.1763
  701BOLB   PO216814  10.469   5.952  36.963  0.0009  0.2472 -0.0260
  701BOLB   GL316815  10.625   6.003  36.561 -0.0167  0.1201 -0.1321
  701BOLB   GL416816  10.348   6.193  36.524  0.0500 -0.2497  0.3436
  701BOLB   C1C16817  10.936   6.134  36.334 -0.0190  0.1585 -0.0353
  701BOLB   C2C16818  11.115   6.280  36.031 -0.0445 -0.0234  0.2876
  701BOLB   C3C16819  11.468   6.259  35.821 -0.0868 -0.0417  0.0133
  701BOLB   C4C16820  11.588   6.199  35.374  0.3361  0.1866 -0.0042
  701BOLB   C1D16821  10.542   6.146  36.055  0.3386  0.0043  0.1105
  701BOLB   C2D16822  10.787   6.141  35.693 -0.3889  0.0650  0.1571
  701BOLB   C3D16823  10.996   6.121  35.308  0.0594  0.0658 -0.1324
  701BOLB   C4D16824  11.264   5.982  34.959 -0.0752 -0.0887  0.1893
  702BOLB   NC116825  18.301  12.231  25.998  0.3638  0.7095 -0.1268
  702BOLB   PO116826  18.102  12.211  26.386  0.0515  0.2853 -0.0218
  702BOLB   GL116827  18.070  12.665  26.228  0.2192  0.2413  0.0902
  702BOLB   GL216828  17.763  12.707  26.270  0.1438  0.1458 -0.3204
  702BOLB   C1A16829  18.322  12.979  26.246  0.3525  0.0516  0.1746
  702BOLB   C2A16830  18.259  13.370  26.304  0.2269 -0.1309 -0.1499
  702BOLB   C3A16831  18.123  13.837  26.404 -0.5617  0.1865 -0.3427
  702BOLB   C4A16832  18.210  14.274  26.561 -0.2015  0.3084 -0.1305
  702BOLB   C1B16833  17.778  13.201  26.411 -0.0511 -0.0928  0.0194
  702BOLB   C2B16834  17.684  13.597  26.589  0.1263  0.0060  0.0292
  702BOLB   C3B16835  17.779  14.111  26.785 -0.1639 -0.1612  0.1580
  702BOLB   C4B16836  17.793  14.432  27.147  0.1569 -0.1426  0.2271
  702BOLB   NC216837  18.116  16.335  27.080  0.1799 -0.1407 -0.1558
  702BOLB   PO216838  18.140  16.284  27.378  0.0749 -0.2301  0.1076
  702BOLB   GL316839  18.094  15.848  27.278 -0.0137  0.0788  0.0878
  702BOLB   GL416840  17.946  15.682  26.960  0.0421  0.0423  0.0879
  702BOLB   C1C16841  17.868  15.486  27.389 -0.0410  0.1745 -0.0567
  702BOLB   C2C16842  17.719  15.053  27.269  0.1831  0.0752  0.2758
  702BOLB   C3C16843  17.823  14.936  26.945 -0.2739  0.0678 -0.1435
  702BOLB   C4C16844  18.023  14.684  26.603 -0.1059 -0.0449 -0.0062
  702BOLB   C1D16845  18.096  15.360  26.702  0.0163 -0.0084 -0.1271
  702BOLB   C2D16846  18.070  15.137  26.380 -0.1907  0.0628 -0.2765
  702BOLB   C3D16847  17.995  15.131  25.970 -0.0549 -0.1270 -0.5568
  702BOLB   C4D16848  18.193  14.779  25.750  0.1151 -0.0694  0.1280
  703BOLB   NC116849   7.455   3.027  21.461 -0.0379  0.1311 -0.0537
  703BOLB   PO116850   7.205   3.252  21.800  0.1336  0.0766  0.0044
  703BOLB   GL116851   6.868   3.073  21.954  0.4395  0.2311  0.0717
  703BOLB   GL216852   6.654   3.209  21.729  0.3800 -0.0416  0.2226
  703BOLB   C1A16853   6.483   2.833  22.129 -0.1668 -0.0468  0.1901
  703BOLB   C2A16854   6.329   2.402  22.170  0.1946 -0.0320 -0.1116
  703BOLB   C3A16855   5.847   2.305  22.223  0.1032  0.0530  0.4427
  703BOLB   C4A16856   5.523   2.174  22.413 -0.1543  0.1738 -0.4469
  703BOLB   C1B16857   6.191   3.078  21.740 -0.0006 -0.0757 -0.0617
  703BOLB   C2B16858   5.766   3.076  21.763  0.2297 -0.2270 -0.1404
  703BOLB   C3B16859   5.555   2.931  21.426 -0.1579 -0.1290 -0.3029
  703BOLB   C4B16860   5.266   3.079  21.151 -0.2870 -0.0682 -0.0013
  703BOLB   NC216861   3.119   1.771  21.286 -0.0660  0.0575 -0.0099
  703BOLB   PO216862   3.270   1.697  21.688  0.2745  0.2998  0.1484
  703BOLB   GL316863   3.622   1.799  21.877  0.1710 -0.0270 -0.0174
  703BOLB   GL416864   3.766   1.675  22.134 -0.2172 -0.0174 -0.3524
  703BOLB   C1C16865   4.037   2.056  21.914  0.3184 -0.1488 -0.0876
  703BOLB   C2C16866   4.353   2.264  22.009 -0.0607 -0.3117  0.2101
  703BOLB   C3C16867   4.756   2.317  22.302  0.2830  0.0332 -0.0062
  703BOLB   C4C16868   5.075   2.095  22.427  0.1066  0.0745  0.1080
  703BOLB   C1D16869   4.141   1.742  22.375  0.2990  0.1032 -0.0342
  703BOLB   C2D16870   4.431   1.721  22.765 -0.1780 -0.0307 -0.1291
  703BOLB   C3D16871   4.586   1.586  23.200  0.0462 -0.2390 -0.0300
  703BOLB   C4D16872   4.925   1.473  23.492 -0.2152 -0.3119  0.3206
  704BOLB   NC116873  19.751   8.698  31.181 -0.1262 -0.2732  0.3854
  704BOLB   PO116874  19.831   9.126  31.435 -0.0986  0.2195  0.3403
  704BOLB   GL116875  19.858   9.145  31.868  0.0026  0.3077 -0.3573
  704BOLB   GL216876  19.635   9.098  32.071  0.0173  0.0919  0.1198
  704BOLB   C1A16877  20.197   9.054  32.137 -0.0008 -0.2864 -0.1027
  704BOLB   C2A16878  20.113   9.002  32.670 -0.1269 -0.1462  0.1409
  704BOLB   C3A16879  20.236   9.132  33.036 -0.3398 -0.0789  0.2733
  704BOLB   C4A16880  20.402   9.098  33.316  0.2135 -0.4165 -0.0118
  704BOLB   C1B16881  19.786   9.332  32.371  0.4634  0.0974  0.0373
  704BOLB   C2B16882  20.207   9.503  32.510 -0.0830  0.1895 -0.4822
  704BOLB   C3B16883  20.417   9.822  32.565  0.0457 -0.0236 -0.2014
  704BOLB   C4B16884  20.730  10.088  32.733  0.0892  0.1412 -0.1361
  704BOLB   NC216885  21.589  10.816  34.881  0.1894  0.0391  0.1047
  704BOLB   PO216886  21.419  10.533  34.555 -0.1276 -0.1356 -0.2780
  704BOLB   GL316887  21.386  10.690  34.165  0.0174  0.0363 -0.4527
  704BOLB   GL416888  21.067  10.687  34.078 -0.1149 -0.1842 -0.0544
  704BOLB   C1C16889  21.382  10.376  33.810 -0.1408  0.6052  0.2335
  704BOLB   C2C16890  21.214   9.967  33.584  0.3802 -0.0762  0.2768
  704BOLB   C3C16891  20.970   9.569  33.516  0.1652  0.1709  0.0327
  704BOLB   C4C16892  20.858   9.215  33.312  0.0078 -0.1150  0.0340
  704BOLB   C1D16893  20.893  10.293  33.854  0.0484 -0.1497 -0.2506
  704BOLB   C2D16894  20.497  10.237  33.663 -0.0240 -0.2728 -0.1918
  704BOLB   C3D16895  20.249   9.993  33.473 -0.0229 -0.0615 -0.1989
  704BOLB   C4D16896  19.894   9.747  33.541  0.3913  0.2604  0.2568
  705BOLB   NC116897  17.253   7.162  33.817 -0.1942 -0.1177  0.2585
  705BOLB   PO116898  17.070   7.396  33.480  0.0983  0.3176 -0.1006
  705BOLB   GL116899  17.117   7.699  33.795 -0.1061  0.3095 -0.3248
  705BOLB   GL216900  17.062   7.530  34.025  0.0483 -0.1763  0.0688
  705BOLB   C1A16901  17.210   8.020  34.099  0.0109  0.0640 -0.5415
  705BOLB   C2A16902  17.301   8.449  34.240 -0.0161  0.1088 -0.0635
  705BOLB   C3A16903  17.642   8.660  34.424  0.1051 -0.1485  0.1188
  705BOLB   C4A16904  17.998   8.957  34.657  0.1767 -0.2974 -0.2960
  705BOLB   C1B16905  17.239   7.379  34.491  0.0958 -0.0392  0.0948
  705BOLB   C2B16906  17.399   7.548  34.814  0.1498 -0.1099  0.0013
  705BOLB   C3B16907  17.624   7.784  34.999  0.0284 -0.1118  0.0330
  705BOLB   C4B16908  17.710   7.840  35.449 -0.0196  0.0887  0.0041
  705BOLB   NC216909  18.263   9.124  37.376 -0.0903 -0.1469 -0.0474
  705BOLB   PO216910  18.412   9.304  37.047  0.1094 -0.0706 -0.1826
  705BOLB   GL316911  18.357   9.364  36.576 -0.3881  0.2344  0.3479
  705BOLB   GL416912  18.266   9.121  36.553  0.1847 -0.1207  0.2077
  705BOLB   C1C16913  18.124   9.540  36.275 -0.1272 -0.0259  0.1097
  705BOLB   C2C16914  17.974   9.524  35.815 -0.0037  0.0626  0.0006
  705BOLB   C3C16915  17.841   9.326  35.417 -0.1403 -0.1019 -0.3216
  705BOLB   C4C16916  17.956   9.103  35.111 -0.1076  0.2690 -0.0487
  705BOLB   C1D16917  18.228   8.838  36.324 -0.2740 -0.1138 -0.1247
  705BOLB   C2D16918  18.367   8.627  36.073  0.1744 -0.1593 -0.4315
  705BOLB   C3D16919  18.480   8.360  35.817  0.2980  0.1100 -0.1379
  705BOLB   C4D16920  18.767   8.204  35.504 -0.1007  0.1746  0.0441
  706BOLB   NC116921  19.698  11.532  27.146  0.1182 -0.1332 -0.1071
  706BOLB   PO116922  19.983  11.152  27.144 -0.0834 -0.1569 -0.0126
  706BOLB   GL116923  20.214  11.569  27.037 -0.0622 -0.2907 -0.0290
  706BOLB   GL216924  19.982  11.889  26.950  0.4164  0.0116  0.0403
  706BOLB   C1A16925  20.476  11.969  27.015 -0.0481 -0.2152  0.1332
  706BOLB   C2A16926  20.816  12.317  26.881  0.0433  0.2585 -0.0322
  706BOLB   C3A16927  20.799  12.664  27.242 -0.6083  0.1504  0.0331
  706BOLB   C4A16928  21.057  12.999  27.256 -0.2707  0.0126  0.3094
  706BOLB   C1B16929  20.103  12.356  26.986  0.0346  0.1854 -0.0090
  706BOLB   C2B16930  20.419  12.676  26.891 -0.1058 -0.2164  0.0860
  706BOLB   C3B16931  20.468  12.983  26.602  0.0978 -0.0674 -0.0071
  706BOLB   C4B16932  20.639  13.030  26.207  0.0758 -0.0690  0.0803
  706BOLB   NC216933  22.717  15.204  27.311 -0.3674 -0.1979  0.0015
  706BOLB   PO216934  22.673  14.762  27.242  0.1492  0.0295  0.1414
  706BOLB   GL316935  22.710  14.315  27.362 -0.4871 -0.1533  0.0183
  706BOLB   GL416936  22.470  14.021  27.132  0.0165 -0.1484 -0.1724
  706BOLB   C1C16937  22.461  13.978  27.618 -0.2839  0.1670 -0.1455
  706BOLB   C2C16938  22.054  13.747  27.576  0.0464  0.3688 -0.0364
  706BOLB   C3C16939  21.777  13.413  27.390  0.0792 -0.0935 -0.0007
  706BOLB   C4C16940  21.396  13.159  27.499  0.3643  0.1533  0.0134
  706BOLB   C1D16941  22.496  13.601  27.253 -0.1897  0.0087 -0.0616
  706BOLB   C2D16942  22.242  13.222  27.400  0.3491 -0.2194 -0.0027
  706BOLB   C3D16943  21.893  12.970  27.239  0.0509 -0.1042 -0.1364
  706BOLB   C4D16944  21.477  12.688  27.371 -0.3401  0.3302  0.0106
  707BOLB   NC116945  23.766   6.859  24.835 -0.0896 -0.2491  0.0829
  707BOLB   PO116946  24.174   6.556  24.770  0.2863  0.2145 -0.3797
  707BOLB   GL116947  24.515   6.860  24.566  0.0905 -0.1982 -0.2604
  707BOLB   GL216948  24.793   6.726  24.797  0.1541 -0.0250  0.1033
  707BOLB   C1A16949  24.636   7.143  24.210  0.1083  0.0147  0.0548
  707BOLB   C2A16950  24.982   7.131  23.950 -0.0817  0.3157  0.0357
  707BOLB   C3A16951  25.326   7.117  23.683 -0.0273  0.0617  0.0606
  707BOLB   C4A16952  25.751   7.221  23.776 -0.2338 -0.1359  0.0100
  707BOLB   C1B16953  25.074   7.022  24.464  0.3060  0.0729 -0.0703
  707BOLB   C2B16954  25.386   7.228  24.370 -0.0060  0.0904 -0.1028
  707BOLB   C3B16955  25.802   7.292  24.295  0.2365  0.0544 -0.0428
  707BOLB   C4B16956  26.335   7.324  24.473  0.0985 -0.0709  0.1824
  707BOLB   NC216957  28.555   7.418  24.318  0.2182 -0.0741 -0.1041
  707BOLB   PO216958  28.354   7.679  24.149  0.1682 -0.2201 -0.0887
  707BOLB   GL316959  27.980   7.836  24.360 -0.0476  0.3312  0.0536
  707BOLB   GL416960  27.754   8.035  24.575  0.0129 -0.0270  0.0786
  707BOLB   C1C16961  27.540   7.682  24.193  0.1307  0.2119  0.0966
  707BOLB   C2C16962  27.061   7.488  24.294  0.0578 -0.1147 -0.0790
  707BOLB   C3C16963  26.669   7.516  24.147  0.2197 -0.2665 -0.0791
  707BOLB   C4C16964  26.211   7.492  23.967 -0.0353 -0.1938 -0.0711
  707BOLB   C1D16965  27.261   8.018  24.478 -0.0644 -0.5287  0.0968
  707BOLB   C2D16966  26.861   8.071  24.461 -0.0038  0.0106  0.0021
  707BOLB   C3D16967  26.490   7.955  24.474  0.0015  0.3516  0.1083
  707BOLB   C4D16968  26.025   7.778  24.354  0.2054 -0.2080  0.0389
  708BOLB   NC116969  17.428   9.050  32.000  0.0426 -0.2927 -0.5031
  708BOLB   PO116970  17.201   9.432  31.772 -0.0091 -0.0133 -0.0548
  708BOLB   GL116971  17.349   9.718  31.901 -0.1709  0.3323  0.1640
  708BOLB   GL216972  17.154   9.782  32.122 -0.2251 -0.0781  0.2016
  708BOLB   C1A16973  17.680   9.793  32.253 -0.0120  0.0059  0.0159
  708BOLB   C2A16974  18.050   9.972  32.524  0.1045 -0.0687  0.1002
  708BOLB   C3A16975  18.057  10.234  32.895  0.0021  0.0635 -0.1144
  708BOLB   C4A16976  18.130  10.507  33.225 -0.1776 -0.1625  0.0909
  708BOLB   C1B16977  17.232   9.844  32.522  0.1713 -0.1499 -0.1617
  708BOLB   C2B16978  17.212  10.002  32.947  0.3888  0.0003 -0.2368
  708BOLB   C3B16979  17.242  10.063  33.416 -0.0542  0.1549 -0.1062
  708BOLB   C4B16980  17.385  10.042  33.739 -0.0542  0.2663 -0.3278
  708BOLB   NC216981  18.340  13.017  34.537 -0.1989 -0.1387  0.2327
  708BOLB   PO216982  18.612  12.827  34.279 -0.2061  0.1480  0.2640
  708BOLB   GL316983  18.374  12.459  34.343 -0.1937  0.0906 -0.1987
  708BOLB   GL416984  18.714  12.224  34.340  0.2132 -0.2127  0.2677
  708BOLB   C1C16985  18.249  12.112  34.021 -0.2282 -0.0451  0.2679
  708BOLB   C2C16986  18.136  11.702  34.036 -0.1602  0.1306 -0.0900
  708BOLB   C3C16987  18.215  11.268  33.736 -0.0565  0.0848  0.1926
  708BOLB   C4C16988  18.060  10.933  33.436 -0.2619  0.2058 -0.2846
  708BOLB   C1D16989  18.755  12.070  33.921 -0.1254  0.2926 -0.1992
  708BOLB   C2D16990  18.769  11.687  33.613 -0.2326 -0.0447 -0.0605
  708BOLB   C3D16991  18.745  11.282  33.260  0.0435 -0.1406 -0.2862
  708BOLB   C4D16992  18.539  11.022  33.442  0.2117  0.0994  0.3070
  709BOLB   NC116993  18.816  -1.639  30.116  0.0129 -0.1405  0.0706
  709BOLB   PO116994  18.828  -1.397  29.763  0.1402 -0.2538  0.2761
  709BOLB   GL116995  19.035  -1.845  29.745  0.1038 -0.0695 -0.4375
  709BOLB   GL216996  19.309  -1.821  29.593  0.0392  0.1339  0.0065
  709BOLB   C1A16997  19.159  -2.290  29.862  0.3987  0.0505  0.1493
  709BOLB   C2A16998  19.319  -2.651  30.051  0.0355  0.2201 -0.1670
  709BOLB   C3A16999  19.444  -2.890  30.326 -0.0926 -0.1517  0.1127
  709BOLB   C4A17000  19.622  -3.091  30.586 -0.2833  0.0521 -0.0863
  709BOLB   C1B17001  19.659  -1.801  29.843 -0.1421  0.2029 -0.1550
  709BOLB   C2B17002  20.013  -2.042  30.013  0.0574  0.4698  0.1620
  709BOLB   C3B17003  20.341  -2.353  30.023  0.1287 -0.0585  0.0037
  709BOLB   C4B17004  20.320  -2.735  30.115  0.0682  0.3289 -0.2582
  709BOLB   NC217005  21.187  -4.279  31.887  0.1214  0.3172 -0.1672
  709BOLB   PO217006  21.269  -4.248  31.438  0.1624  0.0698 -0.3418
  709BOLB   GL317007  21.096  -4.196  31.105  0.2074 -0.0081 -0.0886
  709BOLB   GL417008  20.817  -4.354  31.188  0.0408 -0.0902  0.0875
  709BOLB   C1C17009  20.926  -3.926  30.854 -0.0254 -0.3158 -0.0948
  709BOLB   C2C17010  20.679  -3.685  30.605  0.1260 -0.2188 -0.2153
  709BOLB   C3C17011  20.248  -3.586  30.622  0.1412  0.4115  0.4293
  709BOLB   C4C17012  19.771  -3.499  30.652  0.3377  0.6793  0.2118
  709BOLB   C1D17013  20.806  -4.384  30.709  0.1016 -0.2826  0.1005
  709BOLB   C2D17014  20.775  -4.178  30.316 -0.5147  0.1466  0.1256
  709BOLB   C3D17015  20.333  -4.039  30.322  0.0848 -0.0736  0.0686
  709BOLB   C4D17016  19.954  -3.805  30.149 -0.2408  0.1918  0.1677
  710BOLB   NC117017  11.722  -2.756  26.050  0.2563 -0.2986 -0.0782
  710BOLB   PO117018  11.576  -2.976  26.384 -0.1076 -0.0406  0.1422
  710BOLB   GL117019  11.421  -3.237  26.576  0.0496 -0.0596 -0.2685
  710BOLB   GL217020  11.078  -3.267  26.456  0.1296 -0.0283  0.0431
  710BOLB   C1A17021  11.248  -3.637  26.769  0.0017  0.0862 -0.0340
  710BOLB   C2A17022  11.345  -4.056  26.754  0.3042 -0.1133  0.0851
  710BOLB   C3A17023  11.069  -4.286  26.952  0.0229  0.1449  0.0740
  710BOLB   C4A17024  10.889  -4.576  27.227  0.1777 -0.2586 -0.0093
  710BOLB   C1B17025  10.818  -3.673  26.506 -0.2954  0.0925 -0.2737
  710BOLB   C2B17026  10.725  -4.023  26.705  0.0486  0.2796 -0.0594
  710BOLB   C3B17027  10.350  -4.316  26.699  0.4194 -0.2078  0.1214
  710BOLB   C4B17028   9.828  -4.424  26.809  0.1854 -0.0115  0.2137
  710BOLB   NC217029  10.312  -7.073  27.130 -0.1498  0.1320  0.0421
  710BOLB   PO217030  10.589  -7.068  26.757  0.2880  0.0338  0.1172
  710BOLB   GL317031  10.726  -6.706  26.777  0.2872 -0.1085  0.2547
  710BOLB   GL417032  10.702  -6.647  27.109 -0.1384  0.2221  0.3931
  710BOLB   C1C17033  10.857  -6.282  26.781  0.0339 -0.2436  0.0101
  710BOLB   C2C17034  10.827  -5.785  26.780  0.0289  0.1961 -0.1512
  710BOLB   C3C17035  10.820  -5.339  27.058 -0.2606 -0.1041 -0.1789
  710BOLB   C4C17036  10.694  -4.931  27.088  0.2422  0.0106  0.1063
  710BOLB   C1D17037  10.740  -6.193  27.219 -0.1487 -0.1783  0.0816
  710BOLB   C2D17038  11.022  -5.727  27.267 -0.2937  0.0795  0.0431
  710BOLB   C3D17039  11.362  -5.547  27.020  0.4268 -0.0466 -0.4003
  710BOLB   C4D17040  11.690  -5.489  26.761  0.0837  0.2925 -0.1791
  711BOLB   NC117041  21.994   9.642  23.825  0.3233  0.0453 -0.0324
  711BOLB   PO117042  22.253   9.831  24.181  0.1745 -0.1179 -0.1519
  711BOLB   GL117043  22.232  10.259  24.244 -0.2351 -0.2138 -0.0929
  711BOLB   GL217044  22.511  10.434  24.018  0.1234 -0.3430 -0.0336
  711BOLB   C1A17045  22.367  10.519  24.554  0.2753 -0.0776  0.1519
  711BOLB   C2A17046  22.514  10.914  24.615 -0.0156  0.5179 -0.1964
  711BOLB   C3A17047  22.892  11.121  24.709  0.3320  0.0670  0.0812
  711BOLB   C4A17048  23.182  11.343  24.919  0.1178  0.4181 -0.0076
  711BOLB   C1B17049  22.916  10.626  23.867 -0.3116 -0.1868  0.0088
  711BOLB   C2B17050  23.124  11.028  23.780 -0.2549  0.1242 -0.1792
  711BOLB   C3B17051  23.236  11.526  23.782  0.0065 -0.0247  0.1704
  711BOLB   C4B17052  22.944  11.775  24.104 -0.2246  0.0002  0.0403
  711BOLB   NC217053  25.388  12.675  24.927  0.1496 -0.0485 -0.1305
  711BOLB   PO217054  25.474  12.433  25.309 -0.0347  0.1681  0.1117
  711BOLB   GL317055  25.181  12.146  25.495  0.0641 -0.3579  0.0313
  711BOLB   GL417056  25.183  12.263  25.725  0.0529  0.0125 -0.1998
  711BOLB   C1C17057  24.764  11.919  25.632  0.0924 -0.0733  0.4289
  711BOLB   C2C17058  24.409  11.704  25.489 -0.0143 -0.0999  0.1293
  711BOLB   C3C17059  23.918  11.570  25.383 -0.1193 -0.1641  0.0096
  711BOLB   C4C17060  23.556  11.470  25.120 -0.1046  0.2054 -0.1874
  711BOLB   C1D17061  24.719  12.394  25.712  0.0884  0.0551  0.0820
  711BOLB   C2D17062  24.301  12.256  25.862  0.0398 -0.2219  0.0889
  711BOLB   C3D17063  24.326  11.881  26.012 -0.0120 -0.1805 -0.3057
  711BOLB   C4D17064  24.342  11.417  25.894  0.1359  0.1821 -0.2217
  712BOLB   NC117065  11.039  10.567  22.896  0.3325  0.2828  0.1942
  712BOLB   PO117066  11.239  10.415  22.461  0.0583  0.0376 -0.0394
  712BOLB   GL117067  11.169  10.874  22.465  0.2771 -0.0405  0.0726
  712BOLB   GL217068  11.470  10.873  22.308  0.1822 -0.1392 -0.1006
  712BOLB   C1A17069  10.916  11.204  22.386 -0.1328  0.0694 -0.1266
  712BOLB   C2A17070  10.640  11.514  22.379 -0.4279 -0.0605 -0.1605
  712BOLB   C3A17071  10.510  11.846  22.339  0.0752  0.0709 -0.3143
  712BOLB   C4A17072  10.326  12.219  22.312  0.0655  0.2192  0.1013
  712BOLB   C1B17073  11.433  11.237  22.008  0.1772  0.1140 -0.0128
  712BOLB   C2B17074  11.434  11.672  21.780 -0.0204  0.1824  0.2420
  712BOLB   C3B17075  11.236  12.000  21.471  0.4110  0.2389  0.0083
  712BOLB   C4B17076  11.090  11.879  21.056 -0.1563  0.1634  0.0588
  712BOLB   NC217077   9.110  14.266  22.217 -0.0522  0.1276 -0.0688
  712BOLB   PO217078   8.720  14.221  22.053  0.2583  0.1106 -0.0876
  712BOLB   GL317079   9.096  13.799  22.125  0.2019 -0.0471  0.2689
  712BOLB   GL417080   9.135  13.565  21.866 -0.2399 -0.3751  0.0214
  712BOLB   C1C17081   9.341  13.404  22.296 -0.5093 -0.1497 -0.1429
  712BOLB   C2C17082   9.596  13.046  22.361 -0.0067 -0.1218  0.1277
  712BOLB   C3C17083   9.795  12.687  22.393  0.0253  0.4092  0.1985
  712BOLB   C4C17084   9.957  12.400  22.223 -0.0744  0.1527  0.2643
  712BOLB   C1D17085   9.284  13.173  21.881 -0.1893  0.2419  0.0833
  712BOLB   C2D17086   9.431  12.686  22.002 -0.1017 -0.1905  0.2931
  712BOLB   C3D17087   9.740  12.501  21.645  0.0397  0.0805 -0.0860
  712BOLB   C4D17088  10.000  12.607  21.347  0.0837  0.1000 -0.5118
  713BOLB   NC117089  12.730   6.337  32.918  0.0552 -0.1032 -0.0951
  713BOLB   PO117090  12.629   6.740  32.945 -0.1905  0.0499 -0.0559
  713BOLB   GL117091  12.600   6.746  33.373  0.0179 -0.3011  0.1535
  713BOLB   GL217092  12.828   6.918  33.526  0.1148  0.3580  0.1093
  713BOLB   C1A17093  12.292   6.703  33.709  0.2087 -0.3144  0.0790
  713BOLB   C2A17094  11.949   6.539  33.875 -0.2886  0.3327 -0.2682
  713BOLB   C3A17095  11.762   6.462  34.179  0.1096  0.0995  0.0153
  713BOLB   C4A17096  11.665   6.585  34.617 -0.0095 -0.3122  0.1239
  713BOLB   C1B17097  12.661   7.058  33.840 -0.3979 -0.3849 -0.2455
  713BOLB   C2B17098  12.638   6.875  34.238 -0.1268  0.3919  0.1525
  713BOLB   C3B17099  12.489   6.789  34.601 -0.2446  0.1340 -0.1595
  713BOLB   C4B17100  12.303   6.613  34.979  0.1902 -0.1896 -0.4729
  713BOLB   NC217101  11.384   6.580  36.954  0.0578  0.2247  0.0996
  713BOLB   PO217102  11.824   6.823  37.076 -0.4219  0.0967  0.0964
  713BOLB   GL317103  11.729   6.813  36.715  0.0891 -0.2729  0.2126
  713BOLB   GL417104  11.547   7.055  36.535 -0.1242 -0.0492 -0.0095
  713BOLB   C1C17105  11.923   6.769  36.398  0.1849  0.0590  0.1803
  713BOLB   C2C17106  11.799   6.590  35.972  0.0724  0.0716 -0.0305
  713BOLB   C3C17107  11.684   6.749  35.534 -0.2427 -0.3151  0.1174
  713BOLB   C4C17108  11.762   6.696  35.078  0.0787 -0.0838 -0.1505
  713BOLB   C1D17109  11.500   7.013  36.113 -0.1291  0.0224  0.0537
  713BOLB   C2D17110  11.426   7.210  35.726  0.4834  0.3474 -0.0380
  713BOLB   C3D17111  11.577   7.212  35.357  0.2218  0.1488  0.1145
  713BOLB   C4D17112  11.635   7.358  34.922 -0.1505  0.1886  0.2494
  714BOLB   NC117113  19.816   7.931  18.950 -0.3585  0.2817 -0.2225
  714BOLB   PO117114  19.548   8.316  18.923  0.0709  0.2468 -0.2876
  714BOLB   GL117115  19.634   8.307  18.551 -0.0184  0.3723 -0.0407
  714BOLB   GL217116  20.078   8.215  18.502 -0.3328 -0.0125 -0.0293
  714BOLB   C1A17117  19.507   8.240  18.151  0.0631 -0.0890  0.4090
  714BOLB   C2A17118  19.507   8.137  17.788  0.1717 -0.1426 -0.1497
  714BOLB   C3A17119  19.844   8.161  17.488 -0.2505 -0.2749 -0.2207
  714BOLB   C4A17120  20.020   8.159  17.047  0.0388  0.0183 -0.0846
  714BOLB   C1B17121  20.123   8.551  18.277  0.0466  0.1053  0.3932
  714BOLB   C2B17122  20.197   9.028  18.114 -0.1121  0.0526 -0.1141
  714BOLB   C3B17123  20.094   9.474  18.390 -0.0130  0.1153 -0.3133
  714BOLB   C4B17124  20.061   9.906  18.387  0.0588 -0.1064 -0.1825
  714BOLB   NC217125  21.691   8.868  15.120 -0.0608 -0.0193  0.2678
  714BOLB   PO217126  21.242   8.942  15.150  0.0747  0.1753 -0.1129
  714BOLB   GL317127  20.877   8.940  15.467 -0.1559  0.3629  0.0406
  714BOLB   GL417128  20.578   8.809  15.178  0.3845 -0.2318 -0.0113
  714BOLB   C1C17129  20.696   8.936  15.851 -0.1996  0.2566  0.0723
  714BOLB   C2C17130  20.466   8.724  16.113 -0.1277  0.0354 -0.3082
  714BOLB   C3C17131  20.396   8.300  16.492 -0.0696 -0.0343  0.1234
  714BOLB   C4C17132  20.346   8.289  16.870  0.0621 -0.2033  0.0739
  714BOLB   C1D17133  20.355   8.441  15.147  0.0837 -0.0653 -0.2385
  714BOLB   C2D17134  19.941   8.357  15.312 -0.0428 -0.2312 -0.0932
  714BOLB   C3D17135  19.685   8.435  15.627  0.3147  0.2295  0.1772
  714BOLB   C4D17136  19.778   8.277  16.033  0.2135 -0.2871 -0.1901
  715BOLB   NC117137  24.203   3.523  23.222 -0.0399 -0.4018  0.2319
  715BOLB   PO117138  24.225   3.180  22.920  0.2690  0.1680 -0.1018
  715BOLB   GL117139  24.476   3.353  22.610 -0.0767  0.0723 -0.3417
  715BOLB   GL217140  24.656   3.091  22.694 -0.1347  0.0322  0.0216
  715BOLB   C1A17141  24.959   3.499  22.627 -0.0836 -0.2876  0.1036
  715BOLB   C2A17142  25.384   3.715  22.736  0.4046  0.0431 -0.2827
  715BOLB   C3A17143  25.728   3.824  22.663 -0.3191 -0.2512 -0.1951
  715BOLB   C4A17144  26.026   3.851  22.253  0.1476  0.0989 -0.1589
  715BOLB   C1B17145  25.155   2.985  22.494  0.1023 -0.0790 -0.1998
  715BOLB   C2B17146  25.609   2.861  22.404 -0.1739  0.2521  0.0331
  715BOLB   C3B17147  26.057   2.662  22.391 -0.3132  0.1816 -0.0652
  715BOLB   C4B17148  26.502   2.492  22.419 -0.0954  0.0843  0.0906
  715BOLB   NC217149  28.051   3.958  21.197 -0.1614 -0.3565  0.2486
  715BOLB   PO217150  27.719   4.173  20.888 -0.3716  0.3958 -0.0270
  715BOLB   GL317151  27.527   3.949  21.076  0.1117 -0.0934 -0.1079
  715BOLB   GL417152  27.599   3.613  21.177 -0.2319 -0.3085  0.2458
  715BOLB   C1C17153  27.129   3.714  21.075  0.0897 -0.1009  0.1601
  715BOLB   C2C17154  26.784   3.785  21.352 -0.2690  0.2248  0.1900
  715BOLB   C3C17155  26.387   3.665  21.548 -0.3097 -0.3594  0.1122
  715BOLB   C4C17156  26.093   3.596  21.924  0.3330  0.1954 -0.0256
  715BOLB   C1D17157  27.412   3.204  21.168 -0.3278  0.1285 -0.0098
  715BOLB   C2D17158  27.047   3.013  21.092 -0.4097 -0.0934 -0.0723
  715BOLB   C3D17159  26.716   2.707  21.059  0.0785  0.0963  0.2258
  715BOLB   C4D17160  26.751   2.310  20.921  0.1909 -0.3703 -0.1366
  716BOLB   NC117161  22.534  -3.036   9.747 -0.0817  0.1088  0.2794
  716BOLB   PO117162  22.807  -2.715   9.877 -0.3481  0.0483  0.0253
  716BOLB   GL117163  22.515  -2.856  10.276 -0.0080  0.1041  0.2079
  716BOLB   GL217164  22.476  -3.188  10.474  0.1749  0.1052  0.1704
  716BOLB   C1A17165  22.451  -2.618  10.703  0.0291  0.0255 -0.1113
  716BOLB   C2A17166  22.760  -2.330  10.893 -0.0156 -0.2213  0.2230
  716BOLB   C3A17167  22.686  -2.176  11.291  0.0071 -0.0672 -0.0462
  716BOLB   C4A17168  22.477  -2.343  11.639  0.0666 -0.3705 -0.2544
  716BOLB   C1B17169  22.852  -3.117  10.686  0.2440 -0.0088  0.1375
  716BOLB   C2B17170  23.050  -2.824  10.897 -0.0069  0.0951  0.0207
  716BOLB   C3B17171  23.149  -2.726  11.221  0.2113  0.0765  0.0849
  716BOLB   C4B17172  23.625  -2.701  11.272 -0.0142  0.2886 -0.0724
  716BOLB   NC217173  22.923  -4.189  10.564 -0.0828 -0.0392 -0.0651
  716BOLB   PO217174  23.373  -3.851  10.677  0.1332  0.2593 -0.0918
  716BOLB   GL317175  23.066  -3.847  11.004 -0.0227  0.1500  0.5343
  716BOLB   GL417176  23.345  -3.846  11.171  0.0167  0.2833  0.2941
  716BOLB   C1C17177  22.786  -3.680  11.275 -0.2150 -0.1404 -0.2663
  716BOLB   C2C17178  22.426  -3.615  11.352  0.2443  0.0332  0.0283
  716BOLB   C3C17179  22.263  -3.204  11.498 -0.1475  0.1120  0.0998
  716BOLB   C4C17180  22.289  -2.806  11.806  0.1404  0.2142 -0.1652
  716BOLB   C1D17181  23.299  -3.671  11.489 -0.0410  0.4409  0.3512
  716BOLB   C2D17182  22.968  -3.572  11.747  0.1589 -0.3524 -0.2429
  716BOLB   C3D17183  22.818  -3.324  12.059  0.1333 -0.3919 -0.0879
  716BOLB   C4D17184  22.541  -3.088  12.287 -0.1856  0.0473  0.0928
  717BOLB   NC117185  20.626  -3.235  21.631  0.0837  0.0558 -0.1447
  717BOLB   PO117186  20.839  -3.141  22.010  0.1545 -0.1090 -0.0396
  717BOLB   GL117187  20.805  -3.546  21.985 -0.2289 -0.1273 -0.2931
  717BOLB   GL217188  20.568  -3.806  22.097  0.0863  0.0008 -0.0539
  717BOLB   C1A17189  21.019  -3.767  21.691  0.1076 -0.0394 -0.1450
  717BOLB   C2A17190  21.429  -4.002  21.690 -0.0865 -0.0817  0.0824
  717BOLB   C3A17191  21.504  -4.393  21.989 -0.2237 -0.3362 -0.1194
  717BOLB   C4A17192  21.535  -4.484  22.442  0.2672 -0.1283  0.2217
  717BOLB   C1B17193  20.557  -4.317  22.181  0.0309 -0.1059 -0.1091
  717BOLB   C2B17194  20.508  -4.761  22.192 -0.0203 -0.0355 -0.0205
  717BOLB   C3B17195  20.718  -5.185  22.481  0.0687  0.0392  0.0586
  717BOLB   C4B17196  20.785  -5.423  22.811  0.3244 -0.1147  0.1384
  717BOLB   NC217197  22.854  -7.001  23.047 -0.1307 -0.4371 -0.2216
  717BOLB   PO217198  22.938  -6.606  23.333  0.0002  0.1173 -0.0720
  717BOLB   GL317199  22.611  -6.266  23.261 -0.1566 -0.1602 -0.0021
  717BOLB   GL417200  22.258  -6.244  23.142 -0.2273  0.0138 -0.0564
  717BOLB   C1C17201  22.543  -5.761  23.156  0.3211 -0.5388 -0.3878
  717BOLB   C2C17202  22.231  -5.317  23.073  0.1484  0.0891  0.2938
  717BOLB   C3C17203  22.039  -4.969  22.946  0.1029 -0.0626 -0.0931
  717BOLB   C4C17204  21.894  -4.631  22.779 -0.1720 -0.1188 -0.0244
  717BOLB   C1D17205  22.080  -5.819  23.098  0.3827  0.1554  0.1714
  717BOLB   C2D17206  21.655  -5.571  23.207 -0.0698  0.1449  0.2566
  717BOLB   C3D17207  21.187  -5.560  23.051 -0.1311 -0.2557  0.0789
  717BOLB   C4D17208  20.714  -5.407  23.291  0.2747 -0.1280 -0.1745
  718BOLB   NC117209  18.109   1.756  32.654  0.1829 -0.1311 -0.2529
  718BOLB   PO117210  18.489   1.612  32.500 -0.1189 -0.1684  0.1180
  718BOLB   GL117211  18.851   1.465  32.652 -0.2689 -0.1223  0.2336
  718BOLB   GL217212  19.100   1.731  32.885 -0.1068  0.2304 -0.3705
  718BOLB   C1A17213  18.922   1.239  33.029  0.0370  0.1184 -0.0100
  718BOLB   C2A17214  19.034   1.124  33.472 -0.1587  0.0377 -0.1340
  718BOLB   C3A17215  19.319   0.846  33.778  0.1297 -0.1327 -0.0276
  718BOLB   C4A17216  19.489   0.696  34.143 -0.3059  0.4104  0.3323
  718BOLB   C1B17217  19.018   1.759  33.325 -0.2080 -0.2589  0.1388
  718BOLB   C2B17218  19.121   1.572  33.710  0.0794  0.0633 -0.1933
  718BOLB   C3B17219  18.968   1.371  34.017 -0.0275 -0.2310 -0.0082
  718BOLB   C4B17220  18.917   1.458  34.427  0.1128 -0.0676 -0.0907
  718BOLB   NC217221  20.932  -0.703  35.740  0.0627 -0.0192 -0.0661
  718BOLB   PO217222  20.950  -0.347  35.954 -0.0924 -0.0081  0.0708
  718BOLB   GL317223  20.711  -0.266  35.547  0.1217  0.1455 -0.1028
  718BOLB   GL417224  20.854  -0.276  35.379  0.0729 -0.0529 -0.1989
  718BOLB   C1C17225  20.360  -0.090  35.219 -0.1305 -0.0138 -0.4205
  718BOLB   C2C17226  20.198  -0.008  34.796 -0.0405 -0.1255 -0.1244
  718BOLB   C3C17227  19.757   0.185  34.700 -0.3126 -0.1268 -0.2996
  718BOLB   C4C17228  19.576   0.535  34.499 -0.1423  0.1123 -0.1427
  718BOLB   C1D17229  20.838  -0.194  34.875  0.2089  0.0665  0.1506
  718BOLB   C2D17230  20.628   0.036  34.612  0.1170  0.0794  0.4043
  718BOLB   C3D17231  20.623   0.313  34.234  0.3337 -0.0388  0.1973
  718BOLB   C4D17232  20.406   0.746  34.035 -0.0750  0.0591 -0.2025
  719BOLB   NC117233  15.012  -4.017  23.372  0.0858 -0.1676 -0.0663
  719BOLB   PO117234  15.428  -4.167  23.379  0.1621 -0.0638  0.1633
  719BOLB   GL117235  15.242  -4.606  23.334 -0.0961  0.0099  0.1549
  719BOLB   GL217236  14.897  -4.508  23.380 -0.2371  0.2797 -0.2137
  719BOLB   C1A17237  14.991  -5.021  23.208 -0.1797  0.1067  0.0966
  719BOLB   C2A17238  15.024  -5.267  23.390 -0.1822 -0.1323 -0.0455
  719BOLB   C3A17239  15.098  -5.576  23.529 -0.1875 -0.1090  0.0035
  719BOLB   C4A17240  15.102  -6.033  23.449  0.2001 -0.0395 -0.0369
  719BOLB   C1B17241  14.770  -4.911  23.679 -0.2463 -0.0726  0.2413
  719BOLB   C2B17242  14.657  -5.335  23.741 -0.3847  0.2775 -0.2513
  719BOLB   C3B17243  14.668  -5.790  23.848 -0.3019  0.1093  0.1687
  719BOLB   C4B17244  14.798  -6.129  23.813 -0.1717  0.0826 -0.0471
  719BOLB   NC217245  15.359  -8.381  23.229  0.1673 -0.2559  0.3078
  719BOLB   PO217246  15.382  -8.294  22.792  0.1042  0.1603 -0.2125
  719BOLB   GL317247  15.429  -8.029  22.586 -0.1004 -0.2720  0.2334
  719BOLB   GL417248  15.606  -7.927  22.224  0.0663 -0.1393  0.0175
  719BOLB   C1C17249  15.412  -7.649  22.747  0.1476  0.0867 -0.0121
  719BOLB   C2C17250  15.181  -7.149  22.886 -0.1165 -0.0038  0.2717
  719BOLB   C3C17251  15.174  -6.849  23.232 -0.2607 -0.3074 -0.1407
  719BOLB   C4C17252  15.215  -6.461  23.401  0.0649  0.2336 -0.0757
  719BOLB   C1D17253  15.510  -7.628  21.822  0.0236  0.1072  0.0387
  719BOLB   C2D17254  15.150  -7.477  21.871  0.0524  0.1954  0.2132
  719BOLB   C3D17255  15.125  -7.047  21.612 -0.4110  0.1414 -0.2635
  719BOLB   C4D17256  15.460  -6.924  21.343 -0.1768 -0.0209  0.0282
  720BOLB   NC117257   9.795  11.165  27.873 -0.1930  0.0208  0.1423
  720BOLB   PO117258   9.967  11.001  28.257 -0.2699  0.0652 -0.1806
  720BOLB   GL117259   9.537  11.234  28.295  0.2212 -0.0510 -0.0727
  720BOLB   GL217260   9.240  11.017  28.426  0.5075  0.3319  0.0392
  720BOLB   C1A17261   9.089  11.496  28.126 -0.2050 -0.1167 -0.1470
  720BOLB   C2A17262   8.688  11.681  28.218  0.0385 -0.0401  0.3680
  720BOLB   C3A17263   8.444  11.949  28.353  0.3437 -0.1515 -0.1448
  720BOLB   C4A17264   8.528  12.413  28.237 -0.2260 -0.0813  0.0171
  720BOLB   C1B17265   8.780  11.009  28.358  0.1797  0.0526  0.0035
  720BOLB   C2B17266   8.395  11.224  28.179 -0.2094 -0.4434 -0.1791
  720BOLB   C3B17267   8.090  11.139  27.978 -0.1332  0.0303 -0.1804
  720BOLB   C4B17268   7.951  10.906  27.697  0.1952 -0.0726  0.1111
  720BOLB   NC217269   8.097  14.317  29.408  0.0433 -0.2137 -0.3104
  720BOLB   PO217270   7.951  13.933  29.569  0.4180  0.0190 -0.2432
  720BOLB   GL317271   8.078  13.809  29.118 -0.2271  0.0011 -0.1072
  720BOLB   GL417272   8.039  13.568  29.067 -0.0446 -0.2061  0.0315
  720BOLB   C1C17273   8.136  13.888  28.587  0.5311  0.0902  0.1311
  720BOLB   C2C17274   8.231  13.596  28.226 -0.3097  0.0652  0.0676
  720BOLB   C3C17275   8.403  13.233  28.271 -0.4449  0.2325 -0.0126
  720BOLB   C4C17276   8.455  12.804  28.316 -0.1871  0.3260  0.0067
  720BOLB   C1D17277   8.218  13.200  29.229 -0.0011  0.0219 -0.2521
  720BOLB   C2D17278   8.573  12.819  29.116  0.0778 -0.1524 -0.0748
  720BOLB   C3D17279   8.914  12.564  29.079 -0.2185  0.2767  0.2552
  720BOLB   C4D17280   9.073  12.263  29.395  0.0896  0.4203  0.3238
  721BOLB   NC117281   8.747   8.544  28.526 -0.0599  0.0760  0.1011
  721BOLB   PO117282   8.407   8.915  28.275  0.0194  0.1014  0.4879
  721BOLB   GL117283   8.097   9.127  28.216 -0.2375  0.1517 -0.1172
  721BOLB   GL217284   7.864   9.402  28.392  0.2597 -0.0906  0.3827
  721BOLB   C1A17285   7.748   9.081  27.995 -0.0049  0.3419 -0.0817
  721BOLB   C2A17286   7.364   9.026  27.758  0.1129  0.1403 -0.2517
  721BOLB   C3A17287   6.986   9.171  27.722 -0.1191 -0.0614  0.3292
  721BOLB   C4A17288   6.514   9.292  27.660 -0.0069 -0.1152  0.1093
  721BOLB   C1B17289   7.614   9.805  28.512  0.0984  0.1249 -0.1305
  721BOLB   C2B17290   7.805  10.162  28.847  0.2437  0.0460  0.4093
  721BOLB   C3B17291   7.565  10.283  29.127  0.1053 -0.0793  0.2100
  721BOLB   C4B17292   7.146  10.583  28.970 -0.0323 -0.4617  0.0608
  721BOLB   NC217293   4.087  10.386  26.957 -0.0173  0.1293 -0.0969
  721BOLB   PO217294   4.481  10.318  27.202 -0.4173 -0.0754 -0.0071
  721BOLB   GL317295   4.829  10.124  26.962  0.1699 -0.0015  0.1751
  721BOLB   GL417296   5.095  10.481  27.049  0.2550  0.0655 -0.0007
  721BOLB   C1C17297   5.115   9.830  26.917  0.5002 -0.1973 -0.1543
  721BOLB   C2C17298   5.422   9.502  27.010  0.4037 -0.1741 -0.1516
  721BOLB   C3C17299   5.786   9.310  27.140 -0.2087 -0.1115 -0.0495
  721BOLB   C4C17300   6.119   9.305  27.317  0.1042 -0.0222  0.0467
  721BOLB   C1D17301   5.506  10.158  26.949 -0.1762  0.1061  0.0599
  721BOLB   C2D17302   5.768  10.203  26.545 -0.5466 -0.2894 -0.3044
  721BOLB   C3D17303   6.142  10.011  26.247  0.1193  0.2191 -0.1001
  721BOLB   C4D17304   6.358   9.642  26.074 -0.0100  0.0668  0.0604
  722BOLB   NC117305   9.786   9.377  29.997  0.3384  0.0400 -0.1087
  722BOLB   PO117306   9.945   9.067  30.237  0.1453 -0.3956 -0.1818
  722BOLB   GL117307   9.567   9.110  30.449 -0.2560  0.0195 -0.0142
  722BOLB   GL217308   9.448   8.809  30.623  0.0755  0.2231  0.2833
  722BOLB   C1A17309   9.387   9.407  30.666 -0.1730 -0.1260  0.0876
  722BOLB   C2A17310   9.403   9.485  31.100  0.2578 -0.4002 -0.0997
  722BOLB   C3A17311   9.169   9.680  31.538  0.0361  0.2107  0.1112
  722BOLB   C4A17312   9.393   9.815  31.911  0.0588  0.0563  0.0957
  722BOLB   C1B17313   9.344   9.026  31.018 -0.0182  0.0438  0.0547
  722BOLB   C2B17314   9.180   9.143  31.384  0.0536 -0.1094  0.1146
  722BOLB   C3B17315   9.018   9.248  31.831  0.1593  0.0973 -0.1819
  722BOLB   C4B17316   8.679   9.276  32.115 -0.0098  0.0750 -0.0111
  722BOLB   NC217317   7.488  10.266  34.002 -0.4184 -0.1323 -0.0660
  722BOLB   PO217318   7.486  10.454  33.622 -0.2297 -0.2370  0.1698
  722BOLB   GL317319   7.773  10.587  33.351 -0.0473 -0.1707  0.1966
  722BOLB   GL417320   7.574  10.663  33.102  0.2610 -0.3468 -0.2714
  722BOLB   C1C17321   8.177  10.600  32.926 -0.1560 -0.3316  0.2732
  722BOLB   C2C17322   8.457  10.178  32.632  0.3792  0.0398  0.1973
  722BOLB   C3C17323   8.809  10.236  32.484 -0.3195 -0.1042  0.0686
  722BOLB   C4C17324   9.137  10.103  32.209 -0.1468 -0.3286  0.1491
  722BOLB   C1D17325   7.752  10.267  32.933 -0.0010 -0.1372  0.0965
  722BOLB   C2D17326   8.017  10.045  32.834 -0.0760  0.2493 -0.0328
  722BOLB   C3D17327   8.178   9.562  32.524 -0.0160  0.1421  0.1815
  722BOLB   C4D17328   7.954   9.220  32.593 -0.1407 -0.2561 -0.0099
  723BOLB   NC117329  12.995   5.865  33.406  0.1709  0.1685  0.2478
  723BOLB   PO117330  13.335   5.553  33.365  0.2942  0.2095  0.4247
  723BOLB   GL117331  13.125   5.688  33.851 -0.1640  0.1969  0.0502
  723BOLB   GL217332  13.041   6.007  33.988 -0.2900  0.2090  0.2128
  723BOLB   C1A17333  12.807   5.520  33.958  0.1036 -0.1465  0.0279
  723BOLB   C2A17334  12.490   5.433  34.310  0.1424 -0.1801  0.1410
  723BOLB   C3A17335  12.158   5.693  34.620  0.0124  0.1556 -0.1133
  723BOLB   C4A17336  11.746   5.704  34.896 -0.3251 -0.3284 -0.0999
  723BOLB   C1B17337  13.069   5.731  34.397 -0.1664  0.3404 -0.1218
  723BOLB   C2B17338  13.180   5.468  34.765 -0.1248  0.3614  0.1561
  723BOLB   C3B17339  12.902   5.462  35.105 -0.0582  0.0793 -0.0321
  723BOLB   C4B17340  12.542   5.589  35.354  0.1718  0.0045  0.2169
  723BOLB   NC217341  10.154   5.683  36.620 -0.0329 -0.0713 -0.0301
  723BOLB   PO217342  10.527   5.440  36.781  0.3472  0.1676 -0.3889
  723BOLB   GL317343  10.504   5.445  36.354  0.0353  0.0757 -0.1944
  723BOLB   GL417344  10.331   5.442  36.085  0.4366  0.1868 -0.1228
  723BOLB   C1C17345  10.762   5.689  36.091 -0.0170  0.0742  0.0815
  723BOLB   C2C17346  11.087   5.705  35.880  0.0881 -0.0323 -0.1998
  723BOLB   C3C17347  11.284   5.854  35.551 -0.3483  0.3617 -0.2709
  723BOLB   C4C17348  11.599   5.719  35.255 -0.3295  0.0775  0.0641
  723BOLB   C1D17349  10.689   5.268  35.845 -0.0681  0.2821 -0.1754
  723BOLB   C2D17350  10.945   5.144  35.490  0.3360 -0.0619  0.2707
  723BOLB   C3D17351  11.147   5.008  35.185  0.0020  0.0050 -0.2122
  723BOLB   C4D17352  11.306   4.796  34.899 -0.2403 -0.0041  0.2584
  724BOLB   NC117353  15.019  12.190  27.852 -0.0705 -0.0411 -0.1093
  724BOLB   PO117354  15.257  12.483  27.923  0.0431  0.1347  0.0590
  724BOLB   GL117355  15.354  12.871  27.935  0.3901 -0.3616 -0.0729
  724BOLB   GL217356  15.075  13.168  28.051  0.1825  0.0335  0.1287
  724BOLB   C1A17357  15.724  13.134  28.182  0.1682  0.2437  0.1586
  724BOLB   C2A17358  15.870  13.422  28.393  0.0105 -0.2672  0.1620
  724BOLB   C3A17359  15.927  13.805  28.622 -0.1640  0.0491 -0.2769
  724BOLB   C4A17360  15.937  14.096  28.956 -0.1656  0.1534 -0.2386
  724BOLB   C1B17361  15.391  13.494  27.935 -0.1045 -0.1197  0.1576
  724BOLB   C2B17362  15.614  13.831  28.163  0.0224 -0.0724  0.2165
  724BOLB   C3B17363  15.467  14.109  28.468  0.3094 -0.2659  0.1122
  724BOLB   C4B17364  15.382  13.959  28.800  0.3424 -0.2018 -0.0801
  724BOLB   NC217365  16.086  16.226  29.339 -0.1496  0.1946  0.1279
  724BOLB   PO217366  16.523  16.189  29.351 -0.2640  0.0547  0.0873
  724BOLB   GL317367  16.694  15.925  29.128 -0.1748 -0.1755 -0.0563
  724BOLB   GL417368  16.892  15.831  28.782 -0.1658  0.0441 -0.1624
  724BOLB   C1C17369  16.676  15.454  29.219 -0.2224  0.1817  0.0044
  724BOLB   C2C17370  16.648  15.035  29.029  0.2022 -0.0544 -0.2465
  724BOLB   C3C17371  16.540  14.659  29.143 -0.1202 -0.0481 -0.1902
  724BOLB   C4C17372  16.137  14.479  28.935  0.0488 -0.1559 -0.5240
  724BOLB   C1D17373  16.973  15.601  28.483 -0.0049 -0.1604  0.0280
  724BOLB   C2D17374  16.858  15.260  28.267  0.0128  0.1528 -0.5434
  724BOLB   C3D17375  16.390  15.251  27.961  0.0547 -0.2367 -0.1081
  724BOLB   C4D17376  16.381  15.168  27.575 -0.0968  0.0032 -0.1442
  725BOLB   NC117377  21.509   5.920  31.663  0.1061  0.2213  0.2420
  725BOLB   PO117378  21.412   6.371  31.542 -0.2502 -0.0960  0.0229
  725BOLB   GL117379  21.780   6.462  31.918  0.3643  0.2845  0.0827
  725BOLB   GL217380  22.085   6.345  31.968 -0.0964  0.0555  0.1054
  725BOLB   C1A17381  21.653   6.641  32.281  0.1084  0.1258  0.0898
  725BOLB   C2A17382  21.957   6.710  32.580 -0.1517  0.1397 -0.0869
  725BOLB   C3A17383  22.273   6.806  32.932 -0.1383 -0.2265  0.1596
  725BOLB   C4A17384  22.641   6.763  33.113 -0.0309 -0.3945 -0.2140
  725BOLB   C1B17385  22.203   6.255  32.383 -0.3675  0.4044 -0.0303
  725BOLB   C2B17386  22.495   6.419  32.627  0.0755 -0.0170 -0.0969
  725BOLB   C3B17387  22.842   6.699  32.631  0.1648 -0.1123  0.1196
  725BOLB   C4B17388  23.028   7.098  32.524  0.0821  0.2138  0.1378
  725BOLB   NC217389  24.489   6.430  34.571 -0.3029  0.0037  0.1962
  725BOLB   PO217390  24.233   6.687  34.819  0.1558 -0.5512 -0.2622
  725BOLB   GL317391  23.931   6.568  34.533  0.0737 -0.2116  0.2886
  725BOLB   GL417392  24.095   6.275  34.256  0.2147  0.0186 -0.0397
  725BOLB   C1C17393  23.723   6.557  34.052  0.1294  0.0390  0.3402
  725BOLB   C2C17394  23.824   6.618  33.595 -0.1093  0.1165 -0.1593
  725BOLB   C3C17395  23.438   6.433  33.388  0.1123 -0.1632  0.1553
  725BOLB   C4C17396  23.059   6.765  33.283 -0.0200  0.2892 -0.0154
  725BOLB   C1D17397  24.001   6.135  33.782  0.0681 -0.4434  0.0612
  725BOLB   C2D17398  23.730   5.902  33.482 -0.2017 -0.3059 -0.0540
  725BOLB   C3D17399  23.217   5.913  33.395 -0.2051 -0.1774 -0.0338
  725BOLB   C4D17400  23.015   5.886  33.038  0.0780 -0.0904 -0.1690
  726BOLB   NC117401   8.835   9.550  25.434 -0.1068  0.3428  0.2327
  726BOLB   PO117402   8.889   9.497  25.906  0.0927  0.2254  0.2078
  726BOLB   GL117403   8.391   9.539  25.715  0.0883 -0.2189 -0.2177
  726BOLB   GL217404   8.372   9.729  25.396  0.0492 -0.1609  0.1009
  726BOLB   C1A17405   8.040   9.568  25.762  0.2474  0.1988  0.2319
  726BOLB   C2A17406   7.800   9.794  25.377 -0.1340  0.3454  0.0357
  726BOLB   C3A17407   7.527   9.964  25.033 -0.0160  0.1085  0.2506
  726BOLB   C4A17408   7.354   9.981  24.591 -0.1044 -0.0932 -0.2935
  726BOLB   C1B17409   8.248   9.918  25.085 -0.0300  0.1757  0.0450
  726BOLB   C2B17410   7.988   9.908  24.735 -0.0461  0.0364  0.1856
  726BOLB   C3B17411   7.748   9.963  24.287 -0.1288 -0.1706  0.0655
  726BOLB   C4B17412   7.425  10.159  24.074  0.3698 -0.0493  0.3410
  726BOLB   NC217413   5.687  11.588  23.362  0.2442 -0.5122 -0.0204
  726BOLB   PO217414   5.617  11.321  23.086  0.1645  0.0401 -0.1239
  726BOLB   GL317415   5.849  11.015  23.230  0.1207 -0.2228  0.3352
  726BOLB   GL417416   5.720  10.800  23.417  0.0494 -0.3181  0.0139
  726BOLB   C1C17417   6.102  10.925  23.748  0.0637  0.2236 -0.0956
  726BOLB   C2C17418   6.552  10.844  23.996  0.0716 -0.1812 -0.0885
  726BOLB   C3C17419   6.856  10.564  24.195  0.1311 -0.2635 -0.0787
  726BOLB   C4C17420   7.077  10.279  24.428 -0.1803  0.0497 -0.1128
  726BOLB   C1D17421   5.779  10.548  23.746  0.2770  0.2262 -0.2125
  726BOLB   C2D17422   6.120  10.345  23.901  0.0201  0.0502 -0.0489
  726BOLB   C3D17423   6.492  10.251  24.007  0.0238 -0.0117 -0.1812
  726BOLB   C4D17424   6.884  10.102  23.963  0.2403  0.2195  0.1701
  727BOLB   NC117425  21.002  10.152  23.304 -0.0760  0.0765  0.0827
  727BOLB   PO117426  21.438  10.088  23.160  0.0559  0.4641  0.2204
  727BOLB   GL117427  21.680  10.243  22.949  0.0077  0.1423  0.0472
  727BOLB   GL217428  21.920  10.476  23.117  0.3998  0.3221  0.1183
  727BOLB   C1A17429  21.663  10.554  22.683  0.0919 -0.2038 -0.1177
  727BOLB   C2A17430  21.872  10.635  22.256  0.0936 -0.3027 -0.2739
  727BOLB   C3A17431  22.266  10.845  22.215 -0.1881 -0.1719  0.0706
  727BOLB   C4A17432  22.604  11.122  22.114  0.3877 -0.3009 -0.0630
  727BOLB   C1B17433  22.327  10.315  23.111 -0.0829 -0.0331  0.1483
  727BOLB   C2B17434  22.704  10.453  22.899 -0.0745  0.1638 -0.0052
  727BOLB   C3B17435  22.825  10.538  22.437 -0.2741  0.0575  0.1153
  727BOLB   C4B17436  23.027  10.788  22.051  0.3871 -0.0132 -0.1194
  727BOLB   NC217437  24.137  11.878  20.404 -0.2365  0.1163 -0.3121
  727BOLB   PO217438  24.090  12.195  20.670 -0.0109  0.0208  0.0387
  727BOLB   GL317439  24.049  12.072  21.061  0.1751 -0.2121 -0.1743
  727BOLB   GL417440  24.017  11.827  21.031 -0.1163 -0.3709 -0.1129
  727BOLB   C1C17441  23.876  11.926  21.521 -0.0292  0.0557 -0.2086
  727BOLB   C2C17442  23.620  11.770  21.739  0.1417 -0.0831 -0.2167
  727BOLB   C3C17443  23.311  11.475  21.833 -0.0363 -0.2617  0.2466
  727BOLB   C4C17444  22.926  11.360  21.922 -0.0179 -0.0658 -0.0993
  727BOLB   C1D17445  23.847  11.430  21.010  0.1598  0.3678 -0.1378
  727BOLB   C2D17446  23.699  11.080  20.844  0.4410 -0.1194 -0.2155
  727BOLB   C3D17447  23.447  10.710  20.651 -0.0120 -0.0233 -0.1443
  727BOLB   C4D17448  23.124  10.396  20.726  0.1190  0.2307 -0.1921
  728BOLB   NC117449  17.756  -4.311  22.367  0.1771  0.2062  0.0833
  728BOLB   PO117450  17.628  -4.533  22.706 -0.0522  0.0120 -0.0538
  728BOLB   GL117451  18.030  -4.618  22.617 -0.1935  0.1292 -0.0194
  728BOLB   GL217452  18.230  -4.598  22.746  0.0870 -0.2727  0.2965
  728BOLB   C1A17453  18.311  -4.901  22.323  0.0566 -0.1475 -0.1295
  728BOLB   C2A17454  18.276  -5.392  22.106  0.0083 -0.1010 -0.2742
  728BOLB   C3A17455  18.364  -5.614  21.703 -0.5168  0.0943 -0.0612
  728BOLB   C4A17456  18.557  -5.869  21.382  0.2472  0.0213 -0.2258
  728BOLB   C1B17457  18.372  -4.955  22.909  0.1639 -0.1424 -0.0762
  728BOLB   C2B17458  18.661  -5.223  23.057  0.2672 -0.0146  0.0977
  728BOLB   C3B17459  18.980  -5.628  23.077  0.0329  0.3417  0.1485
  728BOLB   C4B17460  19.425  -5.496  22.842  0.0478  0.2942  0.0043
  728BOLB   NC217461  19.221  -8.403  21.131  0.2429 -0.2904 -0.0917
  728BOLB   PO217462  19.582  -8.186  21.435 -0.0152  0.0235  0.0778
  728BOLB   GL317463  19.305  -7.931  21.203 -0.0385 -0.0231 -0.2466
  728BOLB   GL417464  19.320  -7.844  20.814 -0.0862  0.2764 -0.1401
  728BOLB   C1C17465  19.231  -7.469  21.261 -0.3457  0.1224 -0.1345
  728BOLB   C2C17466  19.101  -7.134  21.228  0.1767  0.0439 -0.1986
  728BOLB   C3C17467  19.006  -6.715  21.164 -0.1792 -0.2718  0.1005
  728BOLB   C4C17468  18.855  -6.277  21.395  0.0270 -0.1394  0.1585
  728BOLB   C1D17469  19.083  -7.411  20.761  0.1316  0.3021  0.2606
  728BOLB   C2D17470  18.933  -7.069  20.605  0.1399 -0.2439  0.3817
  728BOLB   C3D17471  18.682  -6.619  20.526  0.1124  0.1181 -0.0143
  728BOLB   C4D17472  18.670  -6.232  20.256 -0.1014 -0.1730 -0.0711
  729BOLB   NC117473  24.417   0.232  11.239  0.0314 -0.2419  0.0931
  729BOLB   PO117474  24.817   0.229  11.498  0.0764  0.0240  0.3820
  729BOLB   GL117475  24.433   0.093  11.759 -0.3211  0.0738  0.2780
  729BOLB   GL217476  24.705   0.061  11.993  0.2972  0.0715 -0.0583
  729BOLB   C1A17477  23.995   0.028  11.943 -0.0549  0.2161 -0.2859
  729BOLB   C2A17478  23.599   0.042  12.183  0.1410  0.1514  0.1300
  729BOLB   C3A17479  23.309  -0.037  12.524 -0.1643 -0.1890  0.0519
  729BOLB   C4A17480  23.049   0.197  12.870  0.0403  0.0749 -0.1474
  729BOLB   C1B17481  24.335  -0.285  12.105 -0.1463 -0.0266 -0.0783
  729BOLB   C2B17482  23.862  -0.419  12.192  0.1978  0.2063 -0.2050
  729BOLB   C3B17483  23.441  -0.501  12.379 -0.3537 -0.1131  0.0734
  729BOLB   C4B17484  23.216  -0.791  12.563 -0.1343 -0.2332 -0.2489
  729BOLB   NC217485  24.960   1.500  12.724  0.2454 -0.1966 -0.2701
  729BOLB   PO217486  24.727   1.820  12.603 -0.0415  0.0841  0.1949
  729BOLB   GL317487  24.316   1.696  12.557  0.2375 -0.2215 -0.2212
  729BOLB   GL417488  24.247   1.589  12.808  0.0584  0.1916  0.1678
  729BOLB   C1C17489  23.915   1.435  12.439 -0.4296  0.0416 -0.1005
  729BOLB   C2C17490  23.695   1.093  12.683  0.1393  0.2809 -0.0608
  729BOLB   C3C17491  23.423   0.850  12.871  0.2155 -0.3122  0.0959
  729BOLB   C4C17492  23.248   0.449  13.073  0.3802 -0.4214  0.1452
  729BOLB   C1D17493  23.928   1.348  13.093 -0.1783  0.3772  0.1311
  729BOLB   C2D17494  23.617   1.130  13.289  0.0786  0.1754 -0.0994
  729BOLB   C3D17495  23.277   0.925  13.350 -0.3318 -0.3145  0.1453
  729BOLB   C4D17496  23.033   0.732  13.694 -0.0168  0.0784 -0.0911
  730BOLB   NC117497  24.498   3.911  23.940 -0.1832 -0.1670  0.0741
  730BOLB   PO117498  24.590   3.626  24.298  0.0811 -0.0346 -0.0982
  730BOLB   GL117499  25.059   3.664  24.121  0.2659  0.1980  0.0241
  730BOLB   GL217500  25.040   3.822  23.872  0.0384  0.0275  0.1367
  730BOLB   C1A17501  25.428   3.398  23.937  0.1000 -0.0185 -0.0944
  730BOLB   C2A17502  25.800   3.330  24.024 -0.5695  0.0978  0.0536
  730BOLB   C3A17503  26.211   3.460  24.016  0.1032 -0.2552 -0.3904
  730BOLB   C4A17504  26.578   3.448  24.362  0.0645 -0.1451  0.1266
  730BOLB   C1B17505  25.516   3.829  23.676 -0.1752 -0.1646  0.3685
  730BOLB   C2B17506  26.009   3.794  23.691  0.0568  0.3004 -0.0164
  730BOLB   C3B17507  26.450   3.694  23.586 -0.1714 -0.1976  0.1681
  730BOLB   C4B17508  26.817   3.754  23.278  0.0700 -0.0371 -0.4686
  730BOLB   NC217509  29.345   3.982  23.641 -0.0283 -0.1889 -0.0994
  730BOLB   PO217510  28.928   4.037  23.733  0.1036 -0.2918  0.0767
  730BOLB   GL317511  28.376   4.025  23.843  0.3529  0.0160 -0.0416
  730BOLB   GL417512  28.273   4.361  23.639 -0.2336 -0.0718  0.0956
  730BOLB   C1C17513  28.134   3.813  24.116 -0.2527 -0.4220  0.1288
  730BOLB   C2C17514  27.747   3.590  24.267 -0.1065 -0.2387 -0.1310
  730BOLB   C3C17515  27.304   3.456  24.460 -0.0929  0.1232  0.0193
  730BOLB   C4C17516  26.956   3.466  24.310 -0.0944 -0.1127  0.0172
  730BOLB   C1D17517  27.933   4.195  23.498  0.2933  0.2326 -0.4555
  730BOLB   C2D17518  27.763   4.319  23.109  0.1541  0.1815 -0.1432
  730BOLB   C3D17519  27.512   4.089  22.695 -0.3338 -0.1243 -0.1446
  730BOLB   C4D17520  27.376   4.216  22.396 -0.3978 -0.3282 -0.1154
  731BOLB   NC117521  15.790  11.495  36.128  0.3702 -0.0032 -0.1054
  731BOLB   PO117522  15.575  11.192  36.537 -0.0204  0.1101 -0.3949
  731BOLB   GL117523  15.908  10.913  36.149 -0.0724  0.1562 -0.0995
  731BOLB   GL217524  16.130  11.137  35.988 -0.2329  0.0127  0.0436
  731BOLB   C1A17525  15.985  10.518  35.877  0.0916  0.1112 -0.1551
  731BOLB   C2A17526  16.181  10.144  35.569 -0.2394 -0.0467 -0.0214
  731BOLB   C3A17527  16.296  10.134  35.173 -0.2249  0.4364  0.0699
  731BOLB   C4A17528  16.516  10.410  35.015 -0.0330 -0.0547 -0.0185
  731BOLB   C1B17529  16.357  10.880  35.824  0.0919  0.1037  0.1941
  731BOLB   C2B17530  16.791  10.866  35.866  0.3008  0.1453  0.2702
  731BOLB   C3B17531  17.095  10.778  35.557  0.1800 -0.1890  0.3445
  731BOLB   C4B17532  17.258  10.474  35.296 -0.0480  0.0098  0.0204
  731BOLB   NC217533  17.627  12.550  34.903 -0.1643 -0.0246  0.0215
  731BOLB   PO217534  17.820  12.219  35.033  0.2837 -0.3824 -0.2372
  731BOLB   GL317535  17.587  12.098  34.706  0.1464 -0.0854  0.1304
  731BOLB   GL417536  17.280  12.000  34.967 -0.3078 -0.3301 -0.1369
  731BOLB   C1C17537  17.244  11.656  34.651  0.1804 -0.0710  0.1860
  731BOLB   C2C17538  17.427  11.222  34.795  0.2094  0.4310 -0.3223
  731BOLB   C3C17539  17.295  10.905  35.062  0.1157  0.1642  0.0323
  731BOLB   C4C17540  16.875  10.649  35.021 -0.3107 -0.1121 -0.2919
  731BOLB   C1D17541  16.918  11.903  35.057  0.1584  0.0444  0.0894
  731BOLB   C2D17542  16.575  11.677  35.087  0.4282 -0.1383  0.0929
  731BOLB   C3D17543  16.463  11.279  34.995  0.0687  0.0022  0.3643
  731BOLB   C4D17544  16.352  10.882  34.896 -0.2134  0.2159  0.0001
  732BOLB   NC117545  24.485   2.911  27.073 -0.1667 -0.2975 -0.0091
  732BOLB   PO117546  24.817   2.992  27.385 -0.0364  0.2329  0.3824
  732BOLB   GL117547  25.137   2.787  27.314  0.0904 -0.0454 -0.0677
  732BOLB   GL217548  25.209   2.828  27.048  0.0420 -0.5279 -0.0929
  732BOLB   C1A17549  25.533   2.762  27.482  0.1324  0.0015  0.2056
  732BOLB   C2A17550  25.834   2.526  27.378  0.1698 -0.3621 -0.0771
  732BOLB   C3A17551  26.042   2.127  27.267  0.0265  0.0021  0.1829
  732BOLB   C4A17552  26.353   1.854  27.253  0.0067 -0.1918  0.1669
  732BOLB   C1B17553  25.581   2.901  26.972 -0.3197 -0.0822  0.0520
  732BOLB   C2B17554  26.044   2.883  26.948 -0.0973  0.1219 -0.0207
  732BOLB   C3B17555  26.492   2.908  27.098 -0.2328 -0.1093 -0.2718
  732BOLB   C4B17556  26.901   2.634  27.109  0.0903 -0.1339  0.1467
  732BOLB   NC217557  29.096   1.489  28.180  0.0813  0.2027  0.2396
  732BOLB   PO217558  28.737   1.315  27.869  0.1145 -0.1686 -0.0555
  732BOLB   GL317559  28.381   1.527  27.542  0.0248  0.1917 -0.0035
  732BOLB   GL417560  28.293   1.611  27.177 -0.4746  0.2300 -0.0312
  732BOLB   C1C17561  27.981   1.282  27.488 -0.1236  0.0951  0.3339
  732BOLB   C2C17562  27.536   1.321  27.346  0.2009  0.2652 -0.4558
  732BOLB   C3C17563  27.193   1.484  27.290  0.1012  0.2155 -0.1499
  732BOLB   C4C17564  26.727   1.614  27.315 -0.1666 -0.2106  0.1032
  732BOLB   C1D17565  27.925   1.574  26.946  0.1726  0.1786 -0.4317
  732BOLB   C2D17566  27.516   1.578  26.861 -0.0695 -0.1937  0.0769
  732BOLB   C3D17567  27.086   1.841  26.895  0.1740 -0.0831  0.0117
  732BOLB   C4D17568  26.675   2.112  26.849 -0.2506 -0.0615 -0.3102
  733BOLB   NC117569  19.889  -7.940  21.124  0.0949 -0.2300 -0.0016
  733BOLB   PO117570  20.268  -7.782  21.271 -0.0714 -0.2192  0.0291
  733BOLB   GL117571  20.208  -7.426  21.087  0.1608  0.0862 -0.0253
  733BOLB   GL217572  20.447  -7.333  20.874  0.0523  0.2067 -0.1435
  733BOLB   C1A17573  20.093  -6.990  21.036 -0.0246  0.0714  0.1219
  733BOLB   C2A17574  19.943  -6.716  20.873 -0.0299  0.2839 -0.1215
  733BOLB   C3A17575  19.830  -6.303  20.755 -0.1279  0.3168  0.0132
  733BOLB   C4A17576  19.633  -5.985  20.799 -0.1677 -0.0439 -0.0975
  733BOLB   C1B17577  20.515  -6.839  20.874 -0.2990  0.5728  0.0205
  733BOLB   C2B17578  20.721  -6.461  21.068 -0.3607  0.2512  0.1067
  733BOLB   C3B17579  20.692  -6.024  21.071 -0.0242  0.0082  0.2994
  733BOLB   C4B17580  20.690  -5.578  20.981  0.0633 -0.0203  0.1941
  733BOLB   NC217581  18.425  -4.190  20.369 -0.0806  0.1170  0.0739
  733BOLB   PO217582  18.529  -3.922  20.746 -0.2198 -0.0689  0.0903
  733BOLB   GL317583  18.722  -4.395  20.749  0.1618  0.1459  0.1829
  733BOLB   GL417584  18.536  -4.657  20.613 -0.0260  0.0329  0.1730
  733BOLB   C1C17585  19.042  -4.584  20.701  0.1975  0.0879  0.3557
  733BOLB   C2C17586  19.189  -4.965  20.887  0.1793  0.2313  0.1420
  733BOLB   C3C17587  19.372  -5.265  20.800  0.0035 -0.2145  0.4126
  733BOLB   C4C17588  19.352  -5.633  20.931 -0.2087 -0.0115  0.3754
  733BOLB   C1D17589  18.843  -4.946  20.433  0.3282 -0.1580 -0.0116
  733BOLB   C2D17590  18.947  -5.436  20.500  0.1107 -0.1338  0.1829
  733BOLB   C3D17591  18.893  -5.804  20.400 -0.2516 -0.1435  0.0936
  733BOLB   C4D17592  19.086  -6.101  20.029  0.2077  0.1457  0.0066
  734BOLB   NC117593  18.381   4.045  33.116  0.0276  0.2234 -0.4570
  734BOLB   PO117594  17.928   4.147  33.383 -0.0632  0.1922  0.1679
  734BOLB   GL117595  18.044   4.230  33.852  0.2607  0.2822 -0.2332
  734BOLB   GL217596  18.309   4.058  33.906  0.0030 -0.1827 -0.0793
  734BOLB   C1A17597  18.147   4.365  34.283 -0.1418  0.0930  0.0134
  734BOLB   C2A17598  18.411   4.376  34.683 -0.5530 -0.3100 -0.0015
  734BOLB   C3A17599  18.541   4.570  35.035  0.0776 -0.1616  0.0301
  734BOLB   C4A17600  18.794   4.732  35.081 -0.0786 -0.1575 -0.2119
  734BOLB   C1B17601  18.315   3.763  34.186 -0.1432 -0.5092  0.0080
  734BOLB   C2B17602  18.368   3.281  34.382 -0.4939  0.0712 -0.1735
  734BOLB   C3B17603  18.467   3.029  34.761 -0.2499  0.0624  0.1540
  734BOLB   C4B17604  18.918   2.944  34.880 -0.1869 -0.3026 -0.0233
  734BOLB   NC217605  19.504   4.804  37.875 -0.3016 -0.0433 -0.1525
  734BOLB   PO217606  19.327   4.768  37.464 -0.0134  0.1815 -0.0459
  734BOLB   GL317607  19.275   4.710  37.017  0.0965  0.0671 -0.1946
  734BOLB   GL417608  19.334   4.407  36.884 -0.2349  0.2329 -0.0731
  734BOLB   C1C17609  19.146   4.746  36.653  0.2127 -0.1066  0.2339
  734BOLB   C2C17610  19.223   4.927  36.216  0.4998  0.2880  0.0118
  734BOLB   C3C17611  19.014   5.053  35.837  0.1489 -0.0224 -0.1212
  734BOLB   C4C17612  19.056   5.049  35.392 -0.1642  0.1998 -0.1396
  734BOLB   C1D17613  19.080   4.250  36.590  0.3525  0.2321 -0.2134
  734BOLB   C2D17614  19.111   4.083  36.141 -0.1762 -0.1936  0.1184
  734BOLB   C3D17615  19.072   4.121  35.718 -0.1332  0.1735 -0.0527
  734BOLB   C4D17616  18.979   3.829  35.514  0.1451 -0.3026 -0.4773
  735BOLB   NC117617  21.817  -2.368  21.808  0.1649 -0.3746 -0.0371
  735BOLB   PO117618  21.787  -2.082  21.446  0.3734  0.0812  0.0186
  735BOLB   GL117619  21.981  -2.472  21.206 -0.0782  0.3552 -0.2996
  735BOLB   GL217620  22.095  -2.552  21.458 -0.1031 -0.1266 -0.1500
  735BOLB   C1A17621  22.120  -2.684  20.883 -0.1647  0.1617 -0.3524
  735BOLB   C2A17622  22.257  -3.068  20.787 -0.0291 -0.2804 -0.0419
  735BOLB   C3A17623  22.221  -3.509  20.952 -0.1342 -0.0283 -0.0978
  735BOLB   C4A17624  22.320  -3.943  21.125 -0.2727 -0.1671 -0.0263
  735BOLB   C1B17625  22.084  -2.939  21.312 -0.0574 -0.0355 -0.1854
  735BOLB   C2B17626  21.986  -3.361  21.487 -0.2262  0.3189 -0.1542
  735BOLB   C3B17627  21.968  -3.760  21.453 -0.3994  0.0103 -0.0643
  735BOLB   C4B17628  21.727  -4.171  21.333  0.1207 -0.2189  0.1964
  735BOLB   NC217629  23.394  -6.600  21.387  0.2903 -0.5384  0.0101
  735BOLB   PO217630  23.735  -6.210  21.441  0.1417 -0.1272 -0.0298
  735BOLB   GL317631  23.503  -5.812  21.393 -0.1058 -0.2282 -0.2365
  735BOLB   GL417632  23.327  -5.880  21.619 -0.0436 -0.2928  0.0721
  735BOLB   C1C17633  23.335  -5.395  21.492 -0.1147 -0.0340 -0.1588
  735BOLB   C2C17634  23.100  -5.086  21.312 -0.1315  0.0086  0.3688
  735BOLB   C3C17635  22.799  -4.770  21.322  0.0642  0.1182 -0.4179
  735BOLB   C4C17636  22.566  -4.381  21.229 -0.3032  0.1481 -0.0062
  735BOLB   C1D17637  22.995  -5.741  21.326 -0.1126  0.2139 -0.2017
  735BOLB   C2D17638  22.700  -5.760  20.969  0.0388  0.0946 -0.3142
  735BOLB   C3D17639  22.516  -5.466  20.616  0.0773  0.1595 -0.1273
  735BOLB   C4D17640  22.603  -5.164  20.301  0.4157 -0.1736  0.1381
  736BOLB   NC117641  14.952  -2.211  17.780  0.5728  0.1935 -0.2079
  736BOLB   PO117642  14.665  -2.618  17.724  0.0801  0.0406  0.0214
  736BOLB   GL117643  14.836  -2.696  17.425  0.2438 -0.0657 -0.4121
  736BOLB   GL217644  15.008  -2.454  17.298  0.2681 -0.0935 -0.0946
  736BOLB   C1A17645  15.100  -2.956  17.162  0.1016 -0.1577  0.0006
  736BOLB   C2A17646  15.163  -3.200  16.763  0.5598  0.1131 -0.3538
  736BOLB   C3A17647  15.022  -3.324  16.362 -0.0824  0.0686 -0.0155
  736BOLB   C4A17648  14.757  -3.020  16.118 -0.2152 -0.2472  0.1122
  736BOLB   C1B17649  14.884  -2.587  16.877  0.0483 -0.0178 -0.1221
  736BOLB   C2B17650  14.743  -2.961  16.852  0.3224 -0.7566  0.1403
  736BOLB   C3B17651  14.589  -3.318  16.585  0.1270  0.0867  0.0171
  736BOLB   C4B17652  14.857  -3.731  16.644 -0.0123 -0.1991  0.2883
  736BOLB   NC217653  12.695  -3.985  14.435  0.1807  0.1454  0.0926
  736BOLB   PO217654  13.029  -3.973  14.784  0.0545 -0.0382  0.3616
  736BOLB   GL317655  13.364  -4.050  14.981  0.0108 -0.0821  0.1299
  736BOLB   GL417656  13.627  -4.128  14.873 -0.0612 -0.0466 -0.0380
  736BOLB   C1C17657  13.614  -3.926  15.385  0.0598 -0.3102  0.3592
  736BOLB   C2C17658  13.814  -3.608  15.461 -0.2020 -0.0498 -0.2337
  736BOLB   C3C17659  14.189  -3.405  15.668 -0.0441  0.1581 -0.0787
  736BOLB   C4C17660  14.626  -3.155  15.781  0.0126 -0.0930  0.0254
  736BOLB   C1D17661  14.075  -3.980  15.154  0.0435  0.0256  0.0215
  736BOLB   C2D17662  14.320  -3.700  15.139 -0.1594 -0.0279  0.1111
  736BOLB   C3D17663  14.556  -3.342  15.295  0.3023 -0.0233  0.1311
  736BOLB   C4D17664  14.883  -3.242  15.360 -0.0583 -0.1146 -0.3499
  737BOLB   NC117665  15.532  -6.657  12.165  0.0942 -0.0950 -0.1019
  737BOLB   PO117666  15.724  -6.228  12.282  0.1025  0.1573  0.3687
  737BOLB   GL117667  15.760  -6.024  12.701  0.0049  0.3771  0.3365
  737BOLB   GL217668  15.576  -6.093  12.867  0.0838  0.0873  0.1497
  737BOLB   C1A17669  15.970  -5.694  12.771  0.0154 -0.2311  0.1268
  737BOLB   C2A17670  16.242  -5.616  13.172 -0.1193  0.0938 -0.2784
  737BOLB   C3A17671  16.626  -5.448  13.266 -0.1507  0.2579 -0.0223
  737BOLB   C4A17672  17.002  -5.319  13.196 -0.0713  0.1707  0.0326
  737BOLB   C1B17673  16.015  -6.122  13.148  0.0424 -0.3296  0.2801
  737BOLB   C2B17674  16.344  -6.141  13.389  0.3293 -0.0207  0.2889
  737BOLB   C3B17675  16.559  -5.764  13.615  0.0228  0.0694  0.0157
  737BOLB   C4B17676  16.502  -5.457  13.966  0.2706  0.0560 -0.0038
  737BOLB   NC217677  16.815  -5.768  11.109  0.2048 -0.0636  0.1860
  737BOLB   PO217678  17.163  -5.859  10.908  0.4321  0.1881 -0.2592
  737BOLB   GL317679  17.251  -5.808  11.399 -0.1236 -0.1537 -0.0644
  737BOLB   GL417680  17.626  -5.730  11.471  0.4114  0.0502 -0.0377
  737BOLB   C1C17681  17.443  -5.313  11.578  0.0306  0.1926  0.2471
  737BOLB   C2C17682  17.507  -5.088  11.932 -0.3745  0.1599 -0.1709
  737BOLB   C3C17683  17.378  -5.093  12.386  0.0339  0.0756 -0.1583
  737BOLB   C4C17684  17.208  -5.230  12.792  0.0252 -0.3050  0.2683
  737BOLB   C1D17685  17.632  -5.612  11.896 -0.2121  0.0236  0.2632
  737BOLB   C2D17686  17.617  -5.516  12.302 -0.0444 -0.0407 -0.1705
  737BOLB   C3D17687  17.791  -5.279  12.704 -0.1049 -0.2187  0.1411
  737BOLB   C4D17688  17.717  -5.437  13.131 -0.0734  0.0274 -0.3713
  738BOLB   NC117689  11.267   2.183  32.001  0.1837  0.0165  0.0124
  738BOLB   PO117690  11.578   1.873  32.276 -0.2000  0.2622  0.0453
  738BOLB   GL117691  11.619   1.433  32.549  0.2750  0.0101 -0.2549
  738BOLB   GL217692  11.361   1.272  32.460 -0.2307 -0.2760  0.0615
  738BOLB   C1A17693  11.701   1.236  32.948  0.1714  0.2699 -0.1541
  738BOLB   C2A17694  11.500   1.284  33.323  0.3375  0.3444  0.4476
  738BOLB   C3A17695  11.250   1.205  33.690  0.1534  0.2353 -0.1472
  738BOLB   C4A17696  11.007   1.334  34.088 -0.1847 -0.0386 -0.3327
  738BOLB   C1B17697  10.986   1.210  32.457 -0.1524  0.0377 -0.0756
  738BOLB   C2B17698  10.832   0.807  32.788 -0.1502 -0.1337  0.0766
  738BOLB   C3B17699  10.860   0.574  33.219 -0.0299  0.0611  0.0751
  738BOLB   C4B17700  10.918   0.206  33.467  0.1718  0.0307 -0.1321
  738BOLB   NC217701  10.638   1.547  36.605  0.1778  0.0490 -0.1576
  738BOLB   PO217702  10.240   1.698  36.354  0.0205 -0.0007  0.1667
  738BOLB   GL317703  10.186   1.378  35.944 -0.0096  0.0443  0.0568
  738BOLB   GL417704  10.487   1.291  36.077 -0.1327  0.1675 -0.2152
  738BOLB   C1C17705  10.376   1.288  35.573 -0.2471 -0.0041  0.1773
  738BOLB   C2C17706  10.742   1.335  35.298 -0.2079  0.1202  0.0605
  738BOLB   C3C17707  10.788   1.382  34.884  0.1838 -0.0868  0.1611
  738BOLB   C4C17708  11.051   1.200  34.540 -0.1345 -0.0559  0.0350
  738BOLB   C1D17709  10.856   1.407  35.791  0.0589 -0.0796  0.1880
  738BOLB   C2D17710  11.114   1.850  35.528  0.0378 -0.1780  0.4510
  738BOLB   C3D17711  11.234   2.026  35.069  0.0484  0.0704 -0.1444
  738BOLB   C4D17712  11.196   2.084  34.713 -0.2226  0.1689 -0.1986
  739BOLB   NC117713  12.437   9.477  20.635  0.1156 -0.0491  0.0975
  739BOLB   PO117714  12.388   9.794  20.918 -0.0362  0.0540  0.2541
  739BOLB   GL117715  12.348  10.142  20.773 -0.1080  0.1124 -0.1999
  739BOLB   GL217716  12.579  10.380  20.924 -0.0826  0.3547  0.5461
  739BOLB   C1A17717  12.208  10.482  20.515  0.0077 -0.2673  0.1819
  739BOLB   C2A17718  12.021  10.787  20.116 -0.0672  0.0985 -0.1531
  739BOLB   C3A17719  11.814  10.937  19.720  0.0231 -0.1832  0.2102
  739BOLB   C4A17720  11.338  11.139  19.465  0.0263 -0.0931 -0.1728
  739BOLB   C1B17721  12.606  10.663  20.791  0.1176 -0.4342  0.3105
  739BOLB   C2B17722  12.511  10.838  20.332  0.1631  0.1581 -0.3651
  739BOLB   C3B17723  12.477  10.927  19.854  0.0064  0.3515 -0.0861
  739BOLB   C4B17724  12.420  10.990  19.395 -0.4841  0.1548 -0.1051
  739BOLB   NC217725  10.158  12.309  17.597 -0.1365  0.1866 -0.3038
  739BOLB   PO217726  10.391  12.405  18.039  0.1183  0.2836  0.0812
  739BOLB   GL317727  10.652  12.353  18.305 -0.1861 -0.2883  0.4496
  739BOLB   GL417728  10.929  12.109  18.170 -0.3434 -0.1737  0.0417
  739BOLB   C1C17729  10.641  12.135  18.660 -0.1692  0.0202  0.0583
  739BOLB   C2C17730  10.380  11.811  18.944  0.1073  0.0283  0.0162
  739BOLB   C3C17731  10.444  11.493  19.290 -0.0116 -0.1548  0.1005
  739BOLB   C4C17732  10.885  11.306  19.433  0.3155  0.0808 -0.0389
  739BOLB   C1D17733  10.856  11.725  18.400 -0.0552  0.0904  0.4980
  739BOLB   C2D17734  10.874  11.741  18.860 -0.3387  0.1104 -0.1416
  739BOLB   C3D17735  11.218  11.399  18.968  0.1715 -0.1222 -0.0007
  739BOLB   C4D17736  11.367  11.038  18.940 -0.1509 -0.0262  0.0633
  740BOLB   NC117737  11.786  -3.858  24.665  0.0635 -0.0767 -0.0933
  740BOLB   PO117738  11.536  -3.516  24.871  0.2921 -0.0666  0.0072
  740BOLB   GL117739  11.297  -3.920  24.793  0.0066  0.1545 -0.3316
  740BOLB   GL217740  11.012  -3.894  24.631  0.0253  0.3081 -0.2694
  740BOLB   C1A17741  11.203  -4.245  24.939  0.0088 -0.3342  0.0644
  740BOLB   C2A17742  10.971  -4.472  24.736  0.3490  0.2068  0.1009
  740BOLB   C3A17743  10.886  -4.932  24.691  0.0848  0.0853  0.0638
  740BOLB   C4A17744  10.564  -5.331  24.854 -0.0710 -0.4764 -0.1112
  740BOLB   C1B17745  10.620  -4.049  24.586  0.2273 -0.2569 -0.2686
  740BOLB   C2B17746  10.447  -4.462  24.677 -0.3267  0.1161  0.0829
  740BOLB   C3B17747  10.479  -4.763  24.979  0.1440  0.0249 -0.1877
  740BOLB   C4B17748  10.370  -5.089  25.295  0.0629 -0.0672  0.0205
  740BOLB   NC217749   9.974  -7.688  25.375 -0.2445 -0.0071 -0.0441
  740BOLB   PO217750   9.603  -7.515  25.165 -0.0544 -0.0367 -0.1472
  740BOLB   GL317751   9.664  -7.141  24.981  0.2777  0.1073 -0.2475
  740BOLB   GL417752   9.381  -7.005  24.997  0.3607 -0.2454  0.0648
  740BOLB   C1C17753   9.911  -6.826  24.842 -0.3303  0.3011  0.1054
  740BOLB   C2C17754  10.169  -6.399  24.968 -0.0745  0.1783  0.0281
  740BOLB   C3C17755  10.371  -6.152  25.207  0.1219  0.1910 -0.0379
  740BOLB   C4C17756  10.383  -5.760  25.089 -0.3610 -0.1060  0.4433
  740BOLB   C1D17757   9.222  -6.515  24.975  0.1380 -0.1568 -0.0980
  740BOLB   C2D17758   9.249  -6.217  24.737  0.5122  0.0125  0.1795
  740BOLB   C3D17759   9.561  -5.873  24.621  0.0911  0.1151  0.1779
  740BOLB   C4D17760   9.787  -5.482  24.614 -0.2473 -0.4006  0.0260
  741BOLB   NC117761  20.255  10.471  22.556 -0.1215 -0.2564  0.0816
  741BOLB   PO117762  20.518  10.107  22.555  0.4021  0.3290 -0.1050
  741BOLB   GL117763  20.681  10.550  22.342  0.3449 -0.0328 -0.0347
  741BOLB   GL217764  20.569  10.770  21.974  0.0439  0.0059 -0.1454
  741BOLB   C1A17765  20.814  10.939  22.383 -0.1249 -0.0184 -0.0403
  741BOLB   C2A17766  21.172  11.232  22.381  0.1301  0.0296  0.1921
  741BOLB   C3A17767  21.531  11.427  22.245 -0.2314 -0.1212 -0.2318
  741BOLB   C4A17768  21.947  11.500  22.089  0.2488  0.5948  0.1178
  741BOLB   C1B17769  20.692  11.185  21.947  0.2554  0.0410  0.1011
  741BOLB   C2B17770  20.712  11.588  21.904 -0.1724 -0.2986 -0.3099
  741BOLB   C3B17771  20.964  11.998  21.968  0.1482  0.2487 -0.0880
  741BOLB   C4B17772  20.898  12.392  21.917 -0.1755 -0.1759 -0.0075
  741BOLB   NC217773  23.311  13.301  21.405 -0.0359 -0.1456  0.0677
  741BOLB   PO217774  23.294  13.278  21.899  0.1509 -0.1189 -0.0709
  741BOLB   GL317775  23.183  12.902  21.641 -0.0385  0.1656 -0.0038
  741BOLB   GL417776  22.898  12.940  21.291 -0.0486 -0.1871  0.5109
  741BOLB   C1C17777  22.942  12.539  21.622 -0.1176  0.3535  0.0268
  741BOLB   C2C17778  22.877  12.031  21.809 -0.2065  0.2458 -0.1934
  741BOLB   C3C17779  22.621  11.659  21.612 -0.2985  0.0695 -0.3491
  741BOLB   C4C17780  22.372  11.440  21.856  0.1124  0.2444 -0.2558
  741BOLB   C1D17781  22.760  12.631  21.008 -0.1256 -0.1360  0.2837
  741BOLB   C2D17782  22.641  12.220  21.105 -0.1257 -0.1817  0.1260
  741BOLB   C3D17783  22.382  12.016  21.429 -0.1359  0.2048  0.0357
  741BOLB   C4D17784  22.105  11.877  21.763  0.0636 -0.2224 -0.0991
  742BOLB   NC117785  21.803  10.151  24.374 -0.1170 -0.0773 -0.1599
  742BOLB   PO117786  21.470  10.356  24.461 -0.3410  0.0301 -0.1131
  742BOLB   GL117787  21.821  10.592  24.257 -0.0609 -0.0455 -0.1491
  742BOLB   GL217788  21.610  10.589  24.043  0.2445 -0.2885 -0.1433
  742BOLB   C1A17789  22.175  10.804  24.143 -0.0324  0.3559  0.1451
  742BOLB   C2A17790  22.502  11.026  24.083 -0.0300  0.0375 -0.1626
  742BOLB   C3A17791  22.904  11.218  24.179 -0.2175 -0.3307  0.0031
  742BOLB   C4A17792  23.191  11.457  24.350 -0.0136  0.0161  0.0624
  742BOLB   C1B17793  21.738  11.007  23.930 -0.0909 -0.1144 -0.5558
  742BOLB   C2B17794  21.794  11.261  23.532 -0.0680  0.0148  0.0258
  742BOLB   C3B17795  21.816  11.657  23.360 -0.2640  0.1352  0.0692
  742BOLB   C4B17796  22.070  11.804  23.023 -0.2146  0.3819  0.0872
  742BOLB   NC217797  25.185  13.369  24.907  0.2608 -0.1953  0.0824
  742BOLB   PO217798  24.990  12.968  24.851  0.0909 -0.0342  0.1754
  742BOLB   GL317799  24.851  12.779  24.499  0.0661  0.0916  0.2594
  742BOLB   GL417800  24.554  12.841  24.517  0.0283 -0.0353 -0.3742
  742BOLB   C1C17801  24.638  12.362  24.423  0.2343 -0.2567  0.0492
  742BOLB   C2C17802  24.251  12.077  24.479  0.0092 -0.4014  0.0906
  742BOLB   C3C17803  23.804  11.828  24.360 -0.1909 -0.1091  0.3198
  742BOLB   C4C17804  23.436  11.843  24.272  0.0332  0.3648  0.0223
  742BOLB   C1D17805  24.255  12.584  24.649  0.0518 -0.1779  0.1166
  742BOLB   C2D17806  23.977  12.357  24.975 -0.3658 -0.0158  0.1111
  742BOLB   C3D17807  23.766  12.412  25.164 -0.1135 -0.0229  0.1843
  742BOLB   C4D17808  23.507  12.413  25.467  0.1170  0.0263 -0.3028
  743BOLB   NC117809  14.607  -3.775  21.042 -0.1481 -0.2651  0.1147
  743BOLB   PO117810  14.386  -4.228  21.103  0.1260 -0.1240 -0.3201
  743BOLB   GL117811  14.168  -4.613  21.239  0.0415 -0.0906 -0.1342
  743BOLB   GL217812  14.322  -4.821  21.027 -0.0238 -0.0764  0.3446
  743BOLB   C1A17813  14.129  -4.978  21.570  0.2591 -0.4431 -0.1264
  743BOLB   C2A17814  13.911  -5.321  21.588  0.0381  0.2616 -0.1922
  743BOLB   C3A17815  13.767  -5.694  21.455 -0.0164  0.3918  0.0376
  743BOLB   C4A17816  13.845  -5.851  21.071 -0.3364 -0.0544  0.1788
  743BOLB   C1B17817  14.065  -5.200  21.102  0.0987  0.1652 -0.5423
  743BOLB   C2B17818  13.616  -5.365  21.156  0.1829  0.0264  0.0577
  743BOLB   C3B17819  13.306  -5.670  21.251  0.2650 -0.0468  0.1578
  743BOLB   C4B17820  13.004  -5.855  21.376 -0.0165  0.5085  0.2162
  743BOLB   NC217821  13.890  -8.088  20.284  0.2994 -0.0006 -0.0709
  743BOLB   PO217822  13.826  -8.002  19.825  0.3761 -0.3055  0.1721
  743BOLB   GL317823  13.839  -7.646  19.978  0.0837  0.1036  0.1753
  743BOLB   GL417824  14.107  -7.644  20.143  0.0844  0.2562 -0.2362
  743BOLB   C1C17825  13.589  -7.258  20.195  0.0933 -0.2304 -0.0877
  743BOLB   C2C17826  13.526  -6.887  20.338 -0.1442  0.0181  0.0582
  743BOLB   C3C17827  13.446  -6.411  20.676  0.2189  0.0719  0.3644
  743BOLB   C4C17828  13.749  -6.161  20.816 -0.0809  0.4752  0.4856
  743BOLB   C1D17829  14.281  -7.473  20.482 -0.3127 -0.2502 -0.0497
  743BOLB   C2D17830  14.658  -7.577  20.755  0.0240 -0.0901 -0.0182
  743BOLB   C3D17831  15.061  -7.576  21.028  0.1998 -0.0009  0.3774
  743BOLB   C4D17832  15.303  -7.438  21.338  0.1349  0.1092 -0.1955
  744BOLB   NC117833  13.957  11.240  22.570  0.1259 -0.4055 -0.0982
  744BOLB   PO117834  13.961  10.968  22.250 -0.2854  0.1062  0.1914
  744BOLB   GL117835  13.909  11.264  21.943 -0.0847  0.3079 -0.0761
  744BOLB   GL217836  13.923  11.611  22.006  0.0972  0.0144  0.3200
  744BOLB   C1A17837  13.532  11.312  21.627 -0.5114  0.0325 -0.1547
  744BOLB   C2A17838  13.480  11.721  21.677 -0.0476  0.4693 -0.2290
  744BOLB   C3A17839  13.373  12.143  21.583 -0.1880  0.1094 -0.1340
  744BOLB   C4A17840  13.175  12.464  21.730 -0.1447  0.1966 -0.2608
  744BOLB   C1B17841  13.757  11.991  22.049  0.0348 -0.0698 -0.1241
  744BOLB   C2B17842  13.466  12.349  22.190  0.2903  0.0544  0.1774
  744BOLB   C3B17843  13.291  12.803  22.163 -0.0300  0.3628 -0.0567
  744BOLB   C4B17844  13.389  13.113  21.881  0.1064  0.1725  0.3172
  744BOLB   NC217845  12.491  15.011  20.769  0.1045  0.0410 -0.1354
  744BOLB   PO217846  12.442  14.484  20.556 -0.2906 -0.4771  0.4755
  744BOLB   GL317847  12.531  14.226  20.901  0.3657 -0.1590  0.3226
  744BOLB   GL417848  12.592  14.405  21.062  0.2146  0.0906 -0.2410
  744BOLB   C1C17849  12.656  13.848  21.082  0.1524  0.1425 -0.2683
  744BOLB   C2C17850  12.638  13.555  21.334  0.0197 -0.0112 -0.1047
  744BOLB   C3C17851  12.723  13.124  21.563 -0.0601 -0.1055 -0.2184
  744BOLB   C4C17852  13.005  12.824  21.616 -0.1690 -0.0582  0.1214
  744BOLB   C1D17853  12.878  14.264  21.285  0.1714  0.1476  0.1645
  744BOLB   C2D17854  12.888  13.906  21.554  0.0513 -0.0184  0.2304
  744BOLB   C3D17855  12.859  13.760  22.035 -0.4985  0.0339 -0.1348
  744BOLB   C4D17856  12.914  13.575  22.420  0.0218 -0.0658 -0.1686
  745BOLB   NC117857  16.865  11.901  24.945  0.1581 -0.3061 -0.4346
  745BOLB   PO117858  16.952  12.031  24.599 -0.2181  0.0713  0.0642
  745BOLB   GL117859  16.933  12.376  24.261  0.0855 -0.3190  0.1683
  745BOLB   GL217860  16.559  12.418  24.291 -0.1012 -0.2103 -0.1339
  745BOLB   C1A17861  16.947  12.631  23.887  0.0699 -0.2250  0.2436
  745BOLB   C2A17862  16.986  12.906  23.624 -0.1550  0.0687 -0.0403
  745BOLB   C3A17863  16.918  13.286  23.354  0.4893  0.1405  0.0297
  745BOLB   C4A17864  17.070  13.646  23.314 -0.3417  0.0254 -0.1201
  745BOLB   C1B17865  16.258  12.830  24.334 -0.4038 -0.5171  0.0435
  745BOLB   C2B17866  16.292  13.176  24.377 -0.0185 -0.2883  0.1422
  745BOLB   C3B17867  16.001  13.486  24.426  0.4436  0.0578  0.3548
  745BOLB   C4B17868  15.656  13.634  24.727  0.1782  0.0917  0.1920
  745BOLB   NC217869  18.194  16.168  23.214 -0.1306 -0.1739  0.2900
  745BOLB   PO217870  18.579  15.731  23.138 -0.3388 -0.0793  0.2483
  745BOLB   GL317871  18.234  15.384  23.001  0.2555 -0.5423 -0.2126
  745BOLB   GL417872  18.041  15.175  22.708 -0.2362  0.0030 -0.2863
  745BOLB   C1C17873  17.960  15.126  23.247  0.3629  0.2384 -0.1714
  745BOLB   C2C17874  17.644  14.826  23.448  0.3070 -0.1528  0.0026
  745BOLB   C3C17875  17.517  14.452  23.418  0.0855 -0.1098  0.3275
  745BOLB   C4C17876  17.329  14.040  23.249  0.0454 -0.0198 -0.4441
  745BOLB   C1D17877  17.760  14.825  22.965 -0.0662  0.1007  0.0091
  745BOLB   C2D17878  17.293  14.715  23.020  0.2019  0.0941 -0.0129
  745BOLB   C3D17879  17.044  14.340  22.967 -0.0377 -0.0526 -0.5407
  745BOLB   C4D17880  17.105  13.961  22.876 -0.1341 -0.1994  0.1020
  746BOLB   NC117881  22.133   9.738  26.772 -0.2902  0.1986 -0.0077
  746BOLB   PO117882  22.617   9.732  26.779 -0.2116 -0.2571 -0.0103
  746BOLB   GL117883  22.851  10.108  26.868 -0.1195  0.0977  0.0546
  746BOLB   GL217884  23.290  10.148  26.756 -0.1526 -0.0015  0.1420
  746BOLB   C1A17885  22.868  10.584  26.950  0.0494  0.2101 -0.1018
  746BOLB   C2A17886  23.347  10.691  26.819 -0.1054 -0.3183 -0.1675
  746BOLB   C3A17887  23.667  10.761  26.827  0.1756  0.0462 -0.1550
  746BOLB   C4A17888  24.041  10.556  26.911 -0.0987 -0.1898  0.0214
  746BOLB   C1B17889  23.699  10.225  26.631  0.0355 -0.0775  0.2308
  746BOLB   C2B17890  24.204  10.149  26.535 -0.2952 -0.1677  0.0058
  746BOLB   C3B17891  24.505  10.182  26.156  0.0199  0.0227  0.1343
  746BOLB   C4B17892  24.929  10.006  26.063 -0.1465  0.0182 -0.0540
  746BOLB   NC217893  25.653  12.372  27.188  0.0655  0.1009  0.1504
  746BOLB   PO217894  25.476  12.339  27.574  0.1638  0.1223 -0.0951
  746BOLB   GL317895  25.427  11.863  27.413 -0.1741 -0.2597 -0.3649
  746BOLB   GL417896  25.641  11.665  27.855  0.0802  0.0408  0.0672
  746BOLB   C1C17897  25.420  11.408  27.421 -0.0204 -0.1883  0.0325
  746BOLB   C2C17898  25.199  10.992  27.187 -0.1014 -0.1108  0.1728
  746BOLB   C3C17899  24.957  10.660  26.874  0.3323  0.2027 -0.4498
  746BOLB   C4C17900  24.432  10.709  26.739  0.0812  0.1387  0.1883
  746BOLB   C1D17901  25.235  11.438  27.850 -0.1533  0.1333  0.0737
  746BOLB   C2D17902  24.822  11.268  27.797 -0.0951 -0.3333  0.2040
  746BOLB   C3D17903  24.429  11.446  27.647 -0.3308  0.2298  0.0797
  746BOLB   C4D17904  24.213  11.861  27.552 -0.0555  0.0842  0.2182
  747BOLB   NC117905  23.023   3.285  19.963 -0.1024 -0.2284  0.0195
  747BOLB   PO117906  23.236   2.828  20.012  0.1560  0.2352  0.1587
  747BOLB   GL117907  23.632   2.684  19.802 -0.1627 -0.3003  0.2852
  747BOLB   GL217908  23.733   2.387  19.616 -0.1318 -0.0521  0.0851
  747BOLB   C1A17909  24.063   2.769  19.702  0.1878  0.0175  0.0532
  747BOLB   C2A17910  24.383   3.046  19.542  0.0307  0.2524  0.0791
  747BOLB   C3A17911  24.541   3.069  19.116 -0.0267  0.2150  0.1778
  747BOLB   C4A17912  24.840   2.980  18.784 -0.1833  0.3262  0.0990
  747BOLB   C1B17913  23.824   2.499  19.217  0.2969  0.1929  0.3874
  747BOLB   C2B17914  23.998   2.294  18.887  0.1670 -0.0766 -0.1204
  747BOLB   C3B17915  24.426   2.220  18.752 -0.1150 -0.0853 -0.0237
  747BOLB   C4B17916  24.557   1.768  18.685 -0.0123  0.3684 -0.2771
  747BOLB   NC217917  27.425   2.272  17.765  0.2164 -0.0316  0.1253
  747BOLB   PO217918  26.926   2.218  18.092 -0.2074  0.1875  0.1881
  747BOLB   GL317919  26.501   2.159  18.278  0.0881  0.0717  0.1163
  747BOLB   GL417920  26.376   1.994  18.542 -0.1084 -0.0786  0.1560
  747BOLB   C1C17921  26.135   2.235  18.171 -0.1061  0.2960  0.1130
  747BOLB   C2C17922  25.729   2.277  18.260 -0.0432  0.1100  0.3228
  747BOLB   C3C17923  25.520   2.656  18.452  0.0872 -0.0015  0.1155
  747BOLB   C4C17924  25.096   2.826  18.437  0.0324 -0.0655 -0.2774
  747BOLB   C1D17925  25.931   1.933  18.550  0.2254 -0.4379 -0.0369
  747BOLB   C2D17926  25.642   1.832  18.797 -0.0805  0.1336 -0.1813
  747BOLB   C3D17927  25.311   1.959  19.138 -0.0187  0.0263 -0.3418
  747BOLB   C4D17928  25.005   2.313  19.397 -0.2257 -0.4644 -0.0794
  748BOLB   NC117929  24.159  -4.095  10.742 -0.0844 -0.1284  0.0552
  748BOLB   PO117930  24.188  -3.766  11.091  0.0011  0.2455  0.1110
  748BOLB   GL117931  23.812  -3.511  11.174  0.1952 -0.0125 -0.1167
  748BOLB   GL217932  23.603  -3.401  10.867 -0.1984  0.0975 -0.1090
  748BOLB   C1A17933  23.540  -3.184  11.292  0.1080 -0.2225 -0.2425
  748BOLB   C2A17934  23.374  -2.901  11.662  0.3088  0.1062  0.1402
  748BOLB   C3A17935  23.364  -2.599  11.935  0.2885  0.1724  0.0373
  748BOLB   C4A17936  23.213  -2.490  12.313  0.3706 -0.3520 -0.2659
  748BOLB   C1B17937  23.152  -3.371  11.021  0.1854 -0.0066  0.0479
  748BOLB   C2B17938  23.048  -3.178  11.381 -0.0652 -0.1908 -0.1103
  748BOLB   C3B17939  22.747  -2.962  11.617  0.0297  0.1487  0.1804
  748BOLB   C4B17940  22.793  -2.782  11.979  0.1181 -0.0569 -0.0808
  748BOLB   NC217941  24.968  -3.203  11.450 -0.5073 -0.0671  0.3059
  748BOLB   PO217942  24.614  -2.952  11.306 -0.0274 -0.2914  0.4325
  748BOLB   GL317943  24.767  -2.808  11.693  0.1402 -0.4683 -0.0644
  748BOLB   GL417944  24.977  -2.651  11.963 -0.2010 -0.1336  0.4700
  748BOLB   C1C17945  24.411  -2.620  11.989  0.1252  0.1228 -0.3719
  748BOLB   C2C17946  24.057  -2.521  12.278 -0.1316 -0.2174  0.0397
  748BOLB   C3C17947  23.848  -2.476  12.663  0.2248  0.0203 -0.0162
  748BOLB   C4C17948  23.502  -2.639  12.643 -0.3361  0.3184  0.0197
  748BOLB   C1D17949  24.830  -2.505  12.309  0.1219  0.1890  0.0998
  748BOLB   C2D17950  24.838  -2.101  12.561  0.1431 -0.2046 -0.0111
  748BOLB   C3D17951  24.982  -1.844  12.784 -0.1583  0.2745 -0.1727
  748BOLB   C4D17952  25.092  -1.528  12.564 -0.4015 -0.0474 -0.2463
  749BOLB   NC117953  18.121  14.005  19.460 -0.3589  0.2414 -0.0205
  749BOLB   PO117954  18.347  13.778  19.102  0.0331 -0.0483 -0.3052
  749BOLB   GL117955  18.117  13.507  19.471  0.0987 -0.0636 -0.0240
  749BOLB   GL217956  18.148  13.150  19.508  0.2931  0.1570 -0.0382
  749BOLB   C1A17957  17.736  13.257  19.655  0.0579 -0.2295 -0.3558
  749BOLB   C2A17958  17.678  13.279  20.166 -0.1882 -0.1202 -0.2531
  749BOLB   C3A17959  17.775  12.881  20.271 -0.1063  0.2237 -0.2170
  749BOLB   C4A17960  17.521  12.694  20.009 -0.0813 -0.0943 -0.3246
  749BOLB   C1B17961  18.063  13.069  19.944  0.1180  0.0602  0.0876
  749BOLB   C2B17962  18.304  12.850  20.162  0.0612  0.0146 -0.0164
  749BOLB   C3B17963  18.613  12.808  20.440  0.2821 -0.1702  0.0126
  749BOLB   C4B17964  18.993  12.652  20.725  0.2153 -0.0867  0.0606
  749BOLB   NC217965  16.741  13.619  17.827  0.1861 -0.1496 -0.1125
  749BOLB   PO217966  17.060  13.377  17.609  0.0178 -0.4443  0.1224
  749BOLB   GL317967  16.967  13.220  18.043  0.1241 -0.1281 -0.1194
  749BOLB   GL417968  16.799  13.094  17.952  0.0807 -0.1512 -0.0224
  749BOLB   C1C17969  16.942  13.086  18.429 -0.2621 -0.0317 -0.0908
  749BOLB   C2C17970  16.840  13.117  18.900 -0.1668 -0.1409 -0.0023
  749BOLB   C3C17971  16.949  13.003  19.383  0.0504  0.1549  0.2943
  749BOLB   C4C17972  17.212  12.751  19.632 -0.0221  0.1066 -0.1687
  749BOLB   C1D17973  16.572  12.753  17.922 -0.1111  0.0777 -0.0059
  749BOLB   C2D17974  16.499  12.415  18.126 -0.0978  0.1267  0.0529
  749BOLB   C3D17975  16.314  12.022  18.193  0.2638 -0.2838  0.0649
  749BOLB   C4D17976  16.543  11.624  18.161 -0.2135  0.6841  0.3392
  750BOLB   NC117977  12.532  -1.121  18.822  0.1315 -0.1817 -0.0822
  750BOLB   PO117978  12.027  -1.412  18.685 -0.2205 -0.0046 -0.2143
  750BOLB   GL117979  11.746  -1.742  18.668 -0.4348 -0.2416 -0.1169
  750BOLB   GL217980  11.853  -2.011  18.444  0.0767 -0.2369  0.1963
  750BOLB   C1A17981  11.414  -1.855  18.363 -0.0636  0.0630  0.2020
  750BOLB   C2A17982  11.030  -1.999  18.102 -0.0255  0.1391 -0.0466
  750BOLB   C3A17983  10.759  -2.168  18.083 -0.1406  0.0278 -0.1120
  750BOLB   C4A17984  10.920  -2.469  17.921 -0.0451 -0.0469  0.0143
  750BOLB   C1B17985  11.508  -2.313  18.218  0.0716 -0.2172  0.0004
  750BOLB   C2B17986  11.408  -2.429  17.791 -0.0590  0.3112 -0.6069
  750BOLB   C3B17987  11.740  -2.601  17.394 -0.1109 -0.1885  0.2030
  750BOLB   C4B17988  11.677  -2.963  17.101 -0.0622 -0.4377 -0.3213
  750BOLB   NC217989  10.373  -3.827  16.054 -0.0171  0.0610 -0.0126
  750BOLB   PO217990  10.490  -3.589  15.714 -0.0132 -0.1835  0.0865
  750BOLB   GL317991  10.735  -3.409  16.116  0.0454 -0.1253  0.0436
  750BOLB   GL417992  11.086  -3.285  16.082  0.3119 -0.3430  0.2523
  750BOLB   C1C17993  10.948  -3.330  16.595 -0.5468 -0.2072 -0.0937
  750BOLB   C2C17994  10.834  -3.272  17.031 -0.3844  0.1303  0.1287
  750BOLB   C3C17995  10.836  -3.133  17.428 -0.0594  0.2284 -0.1142
  750BOLB   C4C17996  10.684  -2.819  17.652 -0.0803  0.1863 -0.2360
  750BOLB   C1D17997  11.310  -3.577  16.396 -0.1524 -0.1121  0.4382
  750BOLB   C2D17998  11.792  -3.638  16.481 -0.0578 -0.1562  0.3457
  750BOLB   C3D17999  12.003  -3.841  16.764 -0.0910 -0.0393 -0.1618
  750BOLB   C4D18000  12.438  -3.735  17.055  0.1064 -0.1165  0.1394
  751BOLB   NC118001  18.520  -7.011  10.753  0.0163 -0.0097  0.2516
  751BOLB   PO118002  18.300  -6.797  11.026  0.3035 -0.0554 -0.0733
  751BOLB   GL118003  18.344  -6.366  11.216  0.1537  0.2638  0.1083
  751BOLB   GL218004  18.398  -6.473  11.506  0.0306 -0.1249 -0.0402
  751BOLB   C1A18005  18.817  -6.144  11.468 -0.1091  0.0912  0.0725
  751BOLB   C2A18006  19.129  -6.207  11.807  0.2507  0.2864  0.1426
  751BOLB   C3A18007  19.449  -6.121  11.943 -0.0006 -0.0693  0.1247
  751BOLB   C4A18008  19.794  -6.011  12.037 -0.0607 -0.0660 -0.1192
  751BOLB   C1B18009  18.145  -6.077  11.617  0.0053 -0.1544  0.2553
  751BOLB   C2B18010  18.200  -5.604  11.558  0.0917 -0.0306  0.0284
  751BOLB   C3B18011  18.431  -5.324  11.752  0.1786 -0.0531 -0.1182
  751BOLB   C4B18012  18.590  -5.079  12.117  0.2012 -0.2703  0.3408
  751BOLB   NC218013  22.489  -6.627  12.560 -0.2373 -0.1699  0.3080
  751BOLB   PO218014  22.173  -6.420  12.355  0.1459 -0.2972 -0.1998
  751BOLB   GL318015  21.778  -6.351  12.149 -0.1464 -0.1077 -0.0330
  751BOLB   GL418016  21.825  -6.075  12.082  0.1645  0.4803 -0.2468
  751BOLB   C1C18017  21.403  -6.333  12.457  0.1067  0.0728  0.1252
  751BOLB   C2C18018  21.045  -6.076  12.484  0.0891  0.1649  0.0555
  751BOLB   C3C18019  20.608  -6.062  12.185  0.1750  0.0549  0.1453
  751BOLB   C4C18020  20.267  -5.933  12.000 -0.0504 -0.1782 -0.0327
  751BOLB   C1D18021  21.621  -5.906  12.445  0.1031 -0.0398  0.3915
  751BOLB   C2D18022  21.407  -5.521  12.522  0.0647 -0.1340  0.2813
  751BOLB   C3D18023  21.332  -5.148  12.547 -0.2649  0.1201  0.0085
  751BOLB   C4D18024  21.211  -4.710  12.463 -0.1323  0.0559  0.0467
  752BOLB   NC118025  11.891   2.815  33.016  0.0839 -0.2523 -0.1970
  752BOLB   PO118026  11.747   2.852  32.579  0.0949  0.6471  0.0013
  752BOLB   GL118027  11.383   2.781  32.894 -0.0971  0.3381  0.1598
  752BOLB   GL218028  11.426   2.847  33.286  0.0325 -0.1527  0.2785
  752BOLB   C1A18029  10.981   2.619  33.032 -0.2453 -0.1062  0.1300
  752BOLB   C2A18030  10.664   2.412  33.296 -0.0766  0.3430  0.0491
  752BOLB   C3A18031  10.567   2.283  33.736 -0.1391 -0.1789 -0.0302
  752BOLB   C4A18032  10.172   2.195  33.986 -0.0132  0.0870 -0.5030
  752BOLB   C1B18033  11.205   2.551  33.506 -0.3895  0.0205 -0.1469
  752BOLB   C2B18034  11.085   2.230  33.579 -0.0414 -0.1786  0.1507
  752BOLB   C3B18035  10.936   1.876  33.781 -0.1915 -0.0093 -0.0008
  752BOLB   C4B18036  10.556   1.750  33.993 -0.0207 -0.3116 -0.3160
  752BOLB   NC218037   8.029   1.299  35.703 -0.0152 -0.3112 -0.2670
  752BOLB   PO218038   8.269   1.545  35.456  0.0788 -0.0780  0.0191
  752BOLB   GL318039   8.466   1.663  35.046  0.1501 -0.0546 -0.2402
  752BOLB   GL418040   8.280   1.596  34.696  0.2450 -0.0783  0.2139
  752BOLB   C1C18041   8.878   1.883  34.884  0.1221  0.0058  0.3035
  752BOLB   C2C18042   9.275   2.005  34.867 -0.1576 -0.2089  0.1383
  752BOLB   C3C18043   9.456   2.169  34.518  0.2817  0.1720 -0.1973
  752BOLB   C4C18044   9.734   2.179  34.146 -0.2019  0.1532  0.2301
  752BOLB   C1D18045   8.533   1.811  34.450 -0.0176  0.0737  0.2179
  752BOLB   C2D18046   8.967   1.830  34.433  0.1433 -0.1904 -0.0810
  752BOLB   C3D18047   9.238   1.958  34.087 -0.0137 -0.0166  0.0124
  752BOLB   C4D18048   9.347   2.053  33.688 -0.1320 -0.0855  0.2696
  753BOLB   NC118049   9.995   2.831  19.403 -0.0997 -0.1983 -0.0795
  753BOLB   PO118050  10.072   2.685  19.138  0.1831 -0.2277 -0.0162
  753BOLB   GL118051   9.728   2.807  18.874 -0.1288 -0.0880 -0.1087
  753BOLB   GL218052   9.383   2.549  18.985  0.0340  0.4899 -0.4112
  753BOLB   C1A18053   9.362   2.890  18.563 -0.0238  0.5787 -0.1629
  753BOLB   C2A18054   9.127   3.011  18.301 -0.0330 -0.1800  0.2868
  753BOLB   C3A18055   8.781   2.899  18.086 -0.0462  0.1025 -0.1670
  753BOLB   C4A18056   8.484   2.725  17.879 -0.4509 -0.2522  0.2182
  753BOLB   C1B18057   8.984   2.602  18.702  0.0671 -0.2281 -0.2645
  753BOLB   C2B18058   8.651   2.571  18.527  0.3394  0.2204  0.2293
  753BOLB   C3B18059   8.359   2.766  18.354  0.0176 -0.2072  0.1169
  753BOLB   C4B18060   7.966   2.905  18.407  0.2440 -0.2448 -0.0986
  753BOLB   NC218061   6.659   2.340  16.804  0.0555 -0.1757  0.0391
  753BOLB   PO218062   6.278   2.209  17.036 -0.0468 -0.0433 -0.3719
  753BOLB   GL318063   6.634   2.094  17.243  0.0303  0.3937  0.0216
  753BOLB   GL418064   6.616   1.788  17.296 -0.3263 -0.0278 -0.1394
  753BOLB   C1C18065   7.020   2.317  17.525  0.1576 -0.0546 -0.3219
  753BOLB   C2C18066   7.451   2.327  17.561  0.3848  0.1195 -0.1018
  753BOLB   C3C18067   7.836   2.386  17.639 -0.1878 -0.2326 -0.0513
  753BOLB   C4C18068   8.185   2.707  17.704 -0.1053  0.0730 -0.0087
  753BOLB   C1D18069   6.620   1.657  17.711 -0.0238  0.1177  0.0115
  753BOLB   C2D18070   6.923   1.835  18.006  0.1053 -0.1147 -0.2167
  753BOLB   C3D18071   7.078   2.216  18.240 -0.0718  0.0803 -0.3024
  753BOLB   C4D18072   7.024   2.581  18.053 -0.1470  0.1405  0.2626
  754BOLB   NC118073  18.250  -7.178  29.808 -0.0574 -0.3736 -0.2222
  754BOLB   PO118074  18.363  -7.327  29.405  0.0699  0.1108 -0.0162
  754BOLB   GL118075  18.308  -6.937  29.276 -0.0423  0.0966  0.3666
  754BOLB   GL218076  18.187  -6.782  29.507 -0.1084  0.2696 -0.2255
  754BOLB   C1A18077  18.152  -6.763  28.870 -0.1860 -0.3893 -0.1488
  754BOLB   C2A18078  18.138  -6.575  28.550 -0.2371  0.2402 -0.1589
  754BOLB   C3A18079  18.231  -6.115  28.334  0.0271 -0.0902 -0.0242
  754BOLB   C4A18080  18.470  -5.931  27.949  0.3526 -0.0080 -0.1921
  754BOLB   C1B18081  18.507  -6.433  29.633  0.2102 -0.1752 -0.0341
  754BOLB   C2B18082  18.600  -6.096  29.995  0.0888  0.0228  0.1484
  754BOLB   C3B18083  18.926  -5.731  30.097 -0.2868  0.0538 -0.2902
  754BOLB   C4B18084  18.724  -5.364  30.329 -0.0621  0.0073  0.2949
  754BOLB   NC218085  20.448  -7.149  27.167  0.2719 -0.2848 -0.1455
  754BOLB   PO218086  20.135  -6.990  27.411  0.0799 -0.4308  0.1082
  754BOLB   GL318087  19.882  -6.576  27.420 -0.2257  0.1039 -0.2051
  754BOLB   GL418088  20.058  -6.394  27.593 -0.1322  0.2246 -0.0169
  754BOLB   C1C18089  19.656  -6.242  27.361 -0.1218 -0.1033 -0.4488
  754BOLB   C2C18090  19.343  -5.898  27.432  0.1559 -0.0322 -0.0223
  754BOLB   C3C18091  18.941  -5.795  27.339  0.0721 -0.0926 -0.3310
  754BOLB   C4C18092  18.514  -5.819  27.539  0.0354 -0.4337  0.0283
  754BOLB   C1D18093  20.023  -6.022  27.710 -0.1565  0.1323 -0.1459
  754BOLB   C2D18094  19.737  -5.655  27.636  0.0166 -0.0498  0.3532
  754BOLB   C3D18095  19.287  -5.454  27.722  0.2757 -0.2768 -0.3857
  754BOLB   C4D18096  19.056  -5.090  27.887 -0.1887 -0.2071  0.3012
  755BOLB   NC118097  19.731   2.045  31.762 -0.2315 -0.2171  0.1539
  755BOLB   PO118098  20.036   2.015  32.053 -0.0522 -0.3111  0.0647
  755BOLB   GL118099  20.264   2.170  32.482  0.2656  0.4955 -0.0516
  755BOLB   GL218100  20.609   2.013  32.616  0.3558 -0.0881  0.0250
  755BOLB   C1A18101  20.260   2.106  33.012  0.0320 -0.1591 -0.0083
  755BOLB   C2A18102  20.424   1.837  33.256  0.1124 -0.2867  0.3082
  755BOLB   C3A18103  20.795   1.761  33.530  0.3680 -0.0241 -0.0160
  755BOLB   C4A18104  20.867   1.683  33.906 -0.1111  0.5056  0.3392
  755BOLB   C1B18105  20.776   1.719  32.931  0.3689 -0.0951 -0.0930
  755BOLB   C2B18106  21.172   1.476  32.921  0.1433  0.2214 -0.1808
  755BOLB   C3B18107  21.430   1.158  33.256  0.0981 -0.0214 -0.1101
  755BOLB   C4B18108  21.823   1.073  33.400  0.0848 -0.1654 -0.1832
  755BOLB   NC218109  22.074   0.302  35.322  0.1900 -0.1245 -0.0947
  755BOLB   PO218110  21.734   0.317  35.650  0.1105  0.3871  0.0799
  755BOLB   GL318111  21.529   0.257  35.305 -0.1393  0.0646 -0.0429
  755BOLB   GL418112  21.199   0.158  35.247 -0.0505 -0.1983 -0.2849
  755BOLB   C1C18113  21.473   0.463  35.000  0.1001 -0.1752 -0.0940
  755BOLB   C2C18114  21.276   0.907  34.752 -0.0139  0.0058  0.1050
  755BOLB   C3C18115  21.419   1.245  34.432  0.1192 -0.3840 -0.3114
  755BOLB   C4C18116  21.042   1.352  34.157 -0.1103  0.1706 -0.1808
  755BOLB   C1D18117  21.054   0.236  34.894 -0.1439  0.1334  0.2740
  755BOLB   C2D18118  20.902   0.553  34.694  0.1535 -0.0731 -0.0153
  755BOLB   C3D18119  20.826   0.846  34.329  0.0045  0.1468 -0.0411
  755BOLB   C4D18120  20.579   1.184  34.241 -0.1193  0.0037 -0.0958
  756BOLB   NC118121   9.071   9.121  26.712 -0.1197  0.1072  0.0478
  756BOLB   PO118122   8.842   9.360  26.910 -0.2883 -0.0311  0.0190
  756BOLB   GL118123   8.516   9.630  26.870 -0.1021  0.1299  0.1001
  756BOLB   GL218124   8.526   9.642  26.557  0.3371  0.2231 -0.1412
  756BOLB   C1A18125   8.223   9.883  26.887  0.1311 -0.2167  0.3010
  756BOLB   C2A18126   7.916  10.358  26.760 -0.1232  0.1018  0.0884
  756BOLB   C3A18127   7.469  10.574  26.602  0.2639 -0.0991 -0.0708
  756BOLB   C4A18128   7.281  10.899  26.414 -0.1155  0.3684  0.0621
  756BOLB   C1B18129   8.215   9.711  26.361  0.0152  0.0911 -0.0285
  756BOLB   C2B18130   7.757   9.994  26.445  0.0788  0.2529  0.2183
  756BOLB   C3B18131   7.416  10.255  26.112 -0.0673  0.3259  0.0183
  756BOLB   C4B18132   7.048  10.327  25.861 -0.1262 -0.0285 -0.2787
  756BOLB   NC218133   5.713  12.596  27.246 -0.0003 -0.1654  0.0584
  756BOLB   PO218134   5.991  12.582  26.850  0.0328 -0.0968  0.3231
  756BOLB   GL318135   6.371  12.452  26.879 -0.1634 -0.0735 -0.4668
  756BOLB   GL418136   6.654  12.582  27.153  0.0618 -0.0658  0.0677
  756BOLB   C1C18137   6.664  12.294  26.598 -0.0316  0.0096  0.0639
  756BOLB   C2C18138   6.578  11.775  26.649  0.0862 -0.1838  0.4460
  756BOLB   C3C18139   6.951  11.489  26.645 -0.0525 -0.1244 -0.1097
  756BOLB   C4C18140   6.954  11.067  26.477 -0.1858  0.1025 -0.0651
  756BOLB   C1D18141   7.043  12.376  27.017 -0.2491 -0.0818  0.0240
  756BOLB   C2D18142   7.062  12.033  26.695 -0.1845  0.0844  0.0156
  756BOLB   C3D18143   7.244  11.867  26.440 -0.1480 -0.0518  0.0405
  756BOLB   C4D18144   7.380  11.462  26.313  0.0605  0.2040  0.0059
  757BOLB   NC118145  19.472  -3.667  25.566  0.0170  0.0923  0.1127
  757BOLB   PO118146  19.282  -3.498  25.907  0.0929  0.1258  0.1778
  757BOLB   GL118147  19.319  -3.918  26.043  0.0705  0.3545 -0.0078
  757BOLB   GL218148  19.205  -4.154  26.168 -0.0100  0.1620  0.3759
  757BOLB   C1A18149  19.746  -4.147  26.052 -0.0786 -0.0953  0.0326
  757BOLB   C2A18150  19.948  -4.539  26.249  0.0044 -0.0828 -0.1353
  757BOLB   C3A18151  20.095  -4.952  26.253 -0.0480 -0.0154 -0.1617
  757BOLB   C4A18152  20.340  -5.291  26.458 -0.0376 -0.3142 -0.1749
  757BOLB   C1B18153  19.354  -4.406  26.305 -0.0649 -0.0258  0.5230
  757BOLB   C2B18154  19.586  -4.807  26.484  0.0320  0.0232 -0.1355
  757BOLB   C3B18155  19.436  -5.194  26.867 -0.1522 -0.1330  0.2374
  757BOLB   C4B18156  19.197  -5.357  27.188  0.1201 -0.1356  0.1820
  757BOLB   NC218157  21.037  -6.988  27.834 -0.1378  0.1567 -0.0915
  757BOLB   PO218158  21.392  -6.686  27.837 -0.1279  0.2836  0.1099
  757BOLB   GL318159  21.332  -6.222  27.811  0.0612  0.3082 -0.0133
  757BOLB   GL418160  21.289  -6.009  28.106 -0.0887  0.2902  0.1347
  757BOLB   C1C18161  20.996  -5.890  27.715 -0.2869 -0.1556  0.0110
  757BOLB   C2C18162  20.935  -5.684  27.364  0.1385  0.1411  0.0036
  757BOLB   C3C18163  20.652  -5.457  27.201  0.3373 -0.2306 -0.0628
  757BOLB   C4C18164  20.365  -5.454  26.802  0.2600 -0.0635  0.1152
  757BOLB   C1D18165  21.224  -5.630  28.081 -0.1896  0.0285 -0.2322
  757BOLB   C2D18166  21.287  -5.127  28.027  0.3032  0.2949  0.1777
  757BOLB   C3D18167  21.395  -4.749  27.743 -0.3416  0.1995  0.1148
  757BOLB   C4D18168  21.116  -4.438  27.983  0.1424 -0.1663 -0.1590
  758BOLB   NC118169  12.069   8.688  31.851  0.1467 -0.2945 -0.0096
  758BOLB   PO118170  12.344   8.732  32.246 -0.0941  0.1255  0.0805
  758BOLB   GL118171  12.088   9.003  32.387 -0.2547  0.2125 -0.2332
  758BOLB   GL218172  12.128   9.276  32.191 -0.2835 -0.1410 -0.0197
  758BOLB   C1A18173  11.904   8.998  32.812 -0.0956  0.3521  0.1425
  758BOLB   C2A18174  11.765   8.864  33.208 -0.0791 -0.4243  0.0631
  758BOLB   C3A18175  11.447   8.776  33.430  0.1075  0.0061  0.1408
  758BOLB   C4A18176  11.177   8.875  33.823  0.0008  0.3055  0.1000
  758BOLB   C1B18177  11.919   9.497  32.514  0.0492  0.1821  0.3543
  758BOLB   C2B18178  11.999   9.848  32.833  0.1018 -0.2139 -0.0447
  758BOLB   C3B18179  12.204  10.041  33.151 -0.0249  0.3512  0.0631
  758BOLB   C4B18180  12.209  10.154  33.617  0.1765  0.0149  0.0499
  758BOLB   NC218181  11.424   9.596  36.356  0.0606 -0.0635 -0.0722
  758BOLB   PO218182  11.592   9.933  36.036  0.1408 -0.1299  0.0109
  758BOLB   GL318183  11.378   9.679  35.735 -0.0320 -0.2332  0.0407
  758BOLB   GL418184  11.189   9.384  35.777  0.3336  0.0994 -0.1032
  758BOLB   C1C18185  11.069   9.575  35.277  0.2723 -0.1479 -0.1437
  758BOLB   C2C18186  11.212   9.553  34.840 -0.0127  0.2007  0.1960
  758BOLB   C3C18187  11.170   9.310  34.496  0.0542 -0.0399 -0.3858
  758BOLB   C4C18188  11.086   8.937  34.258 -0.1815 -0.1719  0.0300
  758BOLB   C1D18189  10.979   9.108  35.491 -0.1566 -0.0247  0.1673
  758BOLB   C2D18190  11.039   9.062  35.049 -0.1299 -0.0953 -0.0969
  758BOLB   C3D18191  11.167   8.672  34.897 -0.0956 -0.0462  0.2042
  758BOLB   C4D18192  10.993   8.363  34.729  0.1853 -0.1756  0.0018
  759BOLB   NC118193  20.678  -7.913  20.380 -0.3616  0.0752  0.0013
  759BOLB   PO118194  20.881  -7.533  20.649  0.5033  0.0350  0.1900
  759BOLB   GL118195  20.576  -7.313  20.381  0.1842  0.1558  0.0910
  759BOLB   GL218196  20.305  -7.442  20.178  0.0438 -0.0561  0.0635
  759BOLB   C1A18197  20.357  -6.982  20.394 -0.1153  0.1216 -0.1006
  759BOLB   C2A18198  19.931  -6.935  20.341  0.1226 -0.3020  0.4923
  759BOLB   C3A18199  19.608  -6.624  20.358 -0.2575 -0.0678 -0.1217
  759BOLB   C4A18200  19.177  -6.509  20.335 -0.0662 -0.0359 -0.1058
  759BOLB   C1B18201  19.976  -7.348  20.060  0.3815 -0.0052 -0.0287
  759BOLB   C2B18202  19.781  -6.903  19.867  0.0846 -0.0643 -0.2041
  759BOLB   C3B18203  19.936  -6.527  19.961  0.0344  0.0566 -0.0967
  759BOLB   C4B18204  19.568  -6.227  20.103 -0.1259 -0.2461 -0.0010
  759BOLB   NC218205  19.634  -7.874  20.388  0.0622  0.0069 -0.1846
  759BOLB   PO218206  19.429  -8.296  20.595 -0.0475 -0.1402  0.3258
  759BOLB   GL318207  19.135  -8.007  20.367 -0.3880  0.1175  0.0650
  759BOLB   GL418208  19.120  -7.675  20.400 -0.3146 -0.0656 -0.1051
  759BOLB   C1C18209  18.877  -7.907  19.961  0.0460  0.1140 -0.0124
  759BOLB   C2C18210  19.033  -7.500  19.771  0.1021 -0.0879 -0.2956
  759BOLB   C3C18211  18.891  -7.130  19.830  0.1074 -0.0540 -0.2445
  759BOLB   C4C18212  18.861  -6.642  20.033  0.0511  0.2975  0.0016
  759BOLB   C1D18213  18.839  -7.431  20.271 -0.2951  0.0121  0.0076
  759BOLB   C2D18214  18.536  -7.098  20.230 -0.4222 -0.3829 -0.2305
  759BOLB   C3D18215  18.103  -7.194  20.280 -0.2327  0.0719 -0.0846
  759BOLB   C4D18216  17.833  -7.347  20.036 -0.0962  0.1455  0.0304
  760BOLB   NC118217  12.151  -3.526  23.841  0.1780 -0.1896  0.3641
  760BOLB   PO118218  12.290  -3.866  24.117  0.0233  0.4185 -0.0156
  760BOLB   GL118219  12.168  -4.233  24.333  0.0341  0.1599 -0.3609
  760BOLB   GL218220  11.866  -4.174  24.257  0.2609  0.1017  0.1842
  760BOLB   C1A18221  12.200  -4.615  24.437 -0.2473  0.1328  0.0366
  760BOLB   C2A18222  12.032  -4.916  24.668 -0.0753  0.0368  0.2819
  760BOLB   C3A18223  11.786  -5.005  25.019 -0.1461  0.1488  0.1510
  760BOLB   C4A18224  11.529  -5.242  25.285 -0.3383  0.0021 -0.1554
  760BOLB   C1B18225  11.745  -4.570  24.229  0.1717 -0.0679  0.1528
  760BOLB   C2B18226  11.744  -5.012  24.243 -0.4147  0.4371  0.2259
  760BOLB   C3B18227  11.592  -5.427  24.309  0.1342  0.0628 -0.1419
  760BOLB   C4B18228  11.444  -5.815  24.518 -0.1951  0.2593 -0.2751
  760BOLB   NC218229   9.817  -6.902  26.373 -0.0840 -0.0125 -0.0487
  760BOLB   PO218230   9.740  -6.886  25.939 -0.0201 -0.0448 -0.2078
  760BOLB   GL318231  10.185  -6.646  26.064  0.1431 -0.2224  0.2608
  760BOLB   GL418232  10.335  -6.819  26.316 -0.0700  0.4633  0.1676
  760BOLB   C1C18233  10.578  -6.491  25.927  0.2863  0.1888 -0.0415
  760BOLB   C2C18234  10.768  -6.189  25.901 -0.1348  0.1940  0.1196
  760BOLB   C3C18235  11.043  -5.941  25.679  0.0418 -0.2281  0.1878
  760BOLB   C4C18236  11.296  -5.583  25.423  0.1069  0.1809  0.2162
  760BOLB   C1D18237  10.499  -6.446  26.423  0.1771  0.0938 -0.0399
  760BOLB   C2D18238  10.685  -6.068  26.367  0.2291 -0.0080  0.2183
  760BOLB   C3D18239  10.770  -5.545  26.292  0.1003 -0.0809  0.0246
  760BOLB   C4D18240  10.879  -5.197  26.587  0.1448 -0.2693 -0.1773
  761BOLB   NC118241  11.063  -3.120  21.276 -0.0114  0.4514 -0.0540
  761BOLB   PO118242  10.689  -2.888  21.262  0.0941  0.2477  0.0135
  761BOLB   GL118243  10.431  -3.156  21.126 -0.1255  0.0097 -0.1575
  761BOLB   GL218244  10.206  -2.859  21.048 -0.0808  0.1796 -0.1698
  761BOLB   C1A18245  10.024  -3.309  21.123 -0.0200  0.1261 -0.2000
  761BOLB   C2A18246   9.707  -3.654  21.198 -0.0210  0.1081 -0.0145
  761BOLB   C3A18247   9.620  -4.018  21.360 -0.0152  0.1160 -0.1844
  761BOLB   C4A18248   9.448  -4.392  21.435 -0.2515  0.3881 -0.0186
  761BOLB   C1B18249   9.750  -2.883  20.869  0.1208 -0.6920 -0.2538
  761BOLB   C2B18250   9.596  -2.842  20.364 -0.2457 -0.0181 -0.0088
  761BOLB   C3B18251   9.653  -3.085  19.930  0.0550 -0.4224 -0.0351
  761BOLB   C4B18252   9.629  -3.348  19.660  0.0685 -0.0163  0.2661
  761BOLB   NC218253   7.036  -4.387  20.848 -0.0557  0.1030  0.1773
  761BOLB   PO218254   7.032  -4.422  20.431 -0.3221 -0.2265  0.3049
  761BOLB   GL318255   7.415  -4.190  20.575 -0.1842 -0.0528 -0.1439
  761BOLB   GL418256   7.699  -3.993  20.301  0.0595 -0.2651  0.0262
  761BOLB   C1C18257   7.785  -4.254  20.804 -0.0317 -0.3096 -0.3369
  761BOLB   C2C18258   8.128  -4.195  21.163  0.1941 -0.0280 -0.0074
  761BOLB   C3C18259   8.563  -4.343  21.318  0.1251  0.0372 -0.2989
  761BOLB   C4C18260   9.037  -4.546  21.382  0.0595  0.0243  0.0158
  761BOLB   C1D18261   7.989  -3.764  20.402  0.1432 -0.1176  0.3813
  761BOLB   C2D18262   8.365  -3.733  20.573 -0.2024 -0.1087 -0.2450
  761BOLB   C3D18263   8.697  -3.461  20.685 -0.2628 -0.4714 -0.0271
  761BOLB   C4D18264   8.807  -3.098  20.730  0.0538  0.0240  0.1979
  762BOLB   NC118265  22.679  -6.812  25.876 -0.4781  0.0033  0.1247
  762BOLB   PO118266  22.997  -6.629  25.607 -0.2819 -0.2240  0.1271
  762BOLB   GL118267  22.703  -6.272  25.536 -0.2159  0.3370 -0.0673
  762BOLB   GL218268  22.849  -6.052  25.374 -0.0203  0.0879 -0.0336
  762BOLB   C1A18269  22.459  -5.826  25.570  0.1184  0.1507 -0.1936
  762BOLB   C2A18270  22.249  -5.516  25.391  0.2749  0.0101 -0.0764
  762BOLB   C3A18271  22.058  -5.119  25.202  0.1765 -0.0333 -0.0072
  762BOLB   C4A18272  22.141  -4.627  25.212 -0.0530 -0.0360  0.3277
  762BOLB   C1B18273  22.778  -5.500  25.314  0.0941  0.1386  0.0116
  762BOLB   C2B18274  22.578  -5.188  25.103  0.2469  0.2296  0.2050
  762BOLB   C3B18275  22.211  -4.974  24.750 -0.0174  0.1586  0.2013
  762BOLB   C4B18276  22.181  -4.705  24.417  0.0418 -0.0551 -0.1106
  762BOLB   NC218277  21.399  -2.383  25.156 -0.2738  0.2885  0.0309
  762BOLB   PO218278  21.200  -2.285  25.626 -0.2479  0.0914  0.1470
  762BOLB   GL318279  21.443  -2.547  25.706 -0.4680  0.0274  0.0183
  762BOLB   GL418280  21.343  -2.644  25.961 -0.0001  0.2610 -0.0686
  762BOLB   C1C18281  21.685  -2.986  25.463  0.2009 -0.2303 -0.0735
  762BOLB   C2C18282  21.906  -3.383  25.297  0.0532  0.2779  0.2598
  762BOLB   C3C18283  21.879  -3.864  25.187  0.1857  0.0539  0.3601
  762BOLB   C4C18284  22.016  -4.289  25.411  0.1056 -0.0582  0.4124
  762BOLB   C1D18285  21.474  -3.019  26.009  0.1197  0.0096 -0.0657
  762BOLB   C2D18286  21.802  -3.192  26.245 -0.0508 -0.0161  0.1812
  762BOLB   C3D18287  22.031  -3.332  26.529 -0.2349  0.0638  0.1517
  762BOLB   C4D18288  22.145  -3.735  26.744 -0.2204 -0.3507  0.1653
  763BOLB   NC118289  23.315   6.934  23.936  0.2376 -0.1051 -0.1721
  763BOLB   PO118290  23.568   7.377  23.827  0.2983  0.3777  0.0135
  763BOLB   GL118291  23.868   7.583  23.873 -0.1243  0.2314  0.0381
  763BOLB   GL218292  23.864   8.012  23.965  0.0596  0.0048 -0.0588
  763BOLB   C1A18293  24.281   7.708  23.804  0.2123 -0.0840  0.1125
  763BOLB   C2A18294  24.740   7.924  23.693  0.1012  0.0513 -0.3059
  763BOLB   C3A18295  25.143   8.036  23.523 -0.0437  0.2849 -0.2817
  763BOLB   C4A18296  25.631   8.026  23.477 -0.0234 -0.0793  0.0036
  763BOLB   C1B18297  24.156   8.124  23.605  0.2287 -0.0718 -0.0395
  763BOLB   C2B18298  24.570   8.458  23.638 -0.0351 -0.2361 -0.0746
  763BOLB   C3B18299  24.775   8.570  23.938 -0.1860 -0.2830 -0.2142
  763BOLB   C4B18300  24.633   9.077  24.084 -0.1677  0.3266 -0.0642
  763BOLB   NC218301  27.912   8.712  23.741  0.1694  0.3728  0.0772
  763BOLB   PO218302  27.587   8.938  23.987 -0.1089 -0.1949 -0.4769
  763BOLB   GL318303  27.107   9.044  24.209 -0.3126  0.0328  0.1497
  763BOLB   GL418304  27.103   8.786  23.983  0.0493  0.0110 -0.0134
  763BOLB   C1C18305  26.696   9.178  24.165  0.0319 -0.2277 -0.0154
  763BOLB   C2C18306  26.383   8.836  24.068 -0.0673 -0.2658  0.0317
  763BOLB   C3C18307  26.186   8.452  23.810  0.3512  0.0433  0.1051
  763BOLB   C4C18308  26.006   8.198  23.592 -0.1997  0.2173  0.1950
  763BOLB   C1D18309  26.782   8.657  23.699  0.0394 -0.2098  0.1637
  763BOLB   C2D18310  26.434   8.558  23.410  0.1043  0.1075 -0.1439
  763BOLB   C3D18311  26.009   8.557  23.265  0.1080  0.0313  0.3415
  763BOLB   C4D18312  25.977   8.107  23.122 -0.2260 -0.3560  0.3189
  764BOLB   NC118313  20.477  15.319  29.320  0.1683  0.1458 -0.2257
  764BOLB   PO118314  20.258  15.080  29.622  0.1290  0.0015  0.1039
  764BOLB   GL118315  19.927  14.740  29.780 -0.0382  0.1469 -0.2711
  764BOLB   GL218316  20.057  14.394  29.569  0.3310  0.0264 -0.0943
  764BOLB   C1A18317  19.432  14.473  29.814  0.0016 -0.0773 -0.0170
  764BOLB   C2A18318  19.250  14.050  29.791 -0.4147  0.1218 -0.0743
  764BOLB   C3A18319  19.350  13.795  29.689  0.1004  0.1091 -0.0272
  764BOLB   C4A18320  19.291  13.434  29.429  0.1407 -0.4328 -0.0987
  764BOLB   C1B18321  19.785  14.036  29.519  0.4678 -0.2371  0.0846
  764BOLB   C2B18322  19.633  13.801  29.249  0.0530  0.0972 -0.3117
  764BOLB   C3B18323  19.528  13.389  28.839 -0.0212 -0.0154 -0.3074
  764BOLB   C4B18324  19.732  13.490  28.378 -0.2425 -0.2589 -0.2634
  764BOLB   NC218325  18.990  10.986  27.510  0.1724  0.2874  0.2559
  764BOLB   PO218326  19.250  11.369  27.840 -0.0219 -0.0539  0.2635
  764BOLB   GL318327  19.387  11.717  28.079  0.0889 -0.1235  0.1466
  764BOLB   GL418328  19.578  11.512  28.306 -0.0452  0.3081 -0.1514
  764BOLB   C1C18329  19.433  12.163  28.271 -0.0171 -0.0464  0.2672
  764BOLB   C2C18330  19.191  12.600  28.280 -0.0217 -0.1843 -0.1347
  764BOLB   C3C18331  19.120  12.693  28.718 -0.0182  0.1842  0.0521
  764BOLB   C4C18332  19.296  12.992  29.117 -0.1236  0.0616 -0.1883
  764BOLB   C1D18333  19.970  11.674  28.397  0.1299 -0.0414 -0.0211
  764BOLB   C2D18334  20.212  12.003  28.323 -0.1719 -0.0439  0.4709
  764BOLB   C3D18335  20.533  12.182  28.269 -0.0223 -0.0495 -0.1957
  764BOLB   C4D18336  20.975  12.257  28.256  0.0574 -0.0986 -0.0101
  765BOLB   NC118337  22.325   4.652  12.442 -0.1992  0.2769  0.0182
  765BOLB   PO118338  21.922   4.468  12.603 -0.3016 -0.0353 -0.2193
  765BOLB   GL118339  21.594   4.281  12.993  0.0686  0.0038 -0.1521
  765BOLB   GL218340  21.659   3.967  13.244 -0.0160 -0.3011  0.1873
  765BOLB   C1A18341  21.167   3.999  12.961  0.1965 -0.0056 -0.1898
  765BOLB   C2A18342  20.910   3.659  12.954  0.2048  0.0815  0.0520
  765BOLB   C3A18343  20.770   3.204  13.009 -0.0391  0.0022  0.2289
  765BOLB   C4A18344  20.605   2.767  12.932 -0.2558  0.3227  0.0545
  765BOLB   C1B18345  21.731   3.562  13.022 -0.0417 -0.3621 -0.1365
  765BOLB   C2B18346  21.603   3.151  13.175 -0.0964 -0.1270 -0.1142
  765BOLB   C3B18347  21.447   2.971  13.604  0.2092 -0.1265 -0.2926
  765BOLB   C4B18348  21.189   2.990  13.901  0.1003  0.1325  0.0844
  765BOLB   NC218349  18.978   2.186  11.186  0.1079  0.1690  0.1528
  765BOLB   PO218350  19.332   1.982  10.996  0.2384  0.0164  0.0992
  765BOLB   GL318351  19.532   2.153  11.306  0.1781 -0.0372  0.0506
  765BOLB   GL418352  19.748   2.342  11.257 -0.2045  0.0734  0.0477
  765BOLB   C1C18353  19.734   2.186  11.731 -0.0777 -0.0359 -0.1238
  765BOLB   C2C18354  20.048   2.135  12.098 -0.0496 -0.3250 -0.2749
  765BOLB   C3C18355  20.056   2.336  12.494 -0.2853 -0.0379  0.3302
  765BOLB   C4C18356  20.204   2.595  12.833  0.1615 -0.0095 -0.0502
  765BOLB   C1D18357  20.138   2.202  11.439  0.1489  0.1917 -0.0798
  765BOLB   C2D18358  20.298   2.036  11.675  0.1340  0.3541 -0.0700
  765BOLB   C3D18359  20.268   1.678  11.828  0.1173  0.0708 -0.2923
  765BOLB   C4D18360  20.106   1.564  12.271  0.4167  0.1429 -0.1621
  766BOLB   NC118361  15.531  -4.183  23.900  0.1979 -0.0758 -0.1457
  766BOLB   PO118362  15.129  -4.278  23.824  0.1670 -0.0003  0.1063
  766BOLB   GL118363  15.303  -4.613  23.901 -0.0083  0.3191  0.1064
  766BOLB   GL218364  15.168  -4.867  24.017 -0.2022 -0.3748 -0.2863
  766BOLB   C1A18365  15.467  -5.004  23.628  0.1411  0.0464  0.1311
  766BOLB   C2A18366  15.646  -5.382  23.532 -0.3525  0.3143  0.0188
  766BOLB   C3A18367  15.619  -5.791  23.515 -0.0984 -0.1269 -0.0829
  766BOLB   C4A18368  15.637  -6.232  23.363  0.2219  0.2052  0.3174
  766BOLB   C1B18369  15.167  -5.277  23.981  0.3923  0.2991  0.0453
  766BOLB   C2B18370  15.154  -5.791  24.024 -0.1861  0.0863  0.0533
  766BOLB   C3B18371  15.316  -6.175  23.836  0.2195  0.0842 -0.0055
  766BOLB   C4B18372  15.203  -6.378  24.180 -0.0794  0.3432  0.0789
  766BOLB   NC218373  16.457  -8.319  22.528  0.1347  0.0084 -0.2591
  766BOLB   PO218374  16.205  -8.437  22.870  0.0480  0.3256  0.0677
  766BOLB   GL318375  16.283  -8.050  22.905  0.1735 -0.2454  0.3482
  766BOLB   GL418376  16.630  -7.931  22.846  0.2673 -0.0247 -0.0407
  766BOLB   C1C18377  16.159  -7.696  23.003  0.1002 -0.0207  0.1032
  766BOLB   C2C18378  15.901  -7.357  22.888  0.2562  0.1897  0.1476
  766BOLB   C3C18379  15.636  -7.001  22.976  0.2002 -0.0375 -0.0392
  766BOLB   C4C18380  15.660  -6.631  23.269  0.3329 -0.0715  0.0248
  766BOLB   C1D18381  16.701  -7.557  22.882  0.0338 -0.2773  0.1819
  766BOLB   C2D18382  16.365  -7.200  22.876  0.2470 -0.0703  0.1677
  766BOLB   C3D18383  16.107  -6.904  22.728  0.0208  0.1111 -0.2245
  766BOLB   C4D18384  16.025  -6.474  22.660  0.0325  0.1731 -0.3011
  767BOLB   NC118385  11.159  13.144  33.440  0.0366  0.1123 -0.1615
  767BOLB   PO118386  11.249  13.497  33.209 -0.1265 -0.2591 -0.0905
  767BOLB   GL118387  11.043  13.554  32.763 -0.2024  0.3060  0.0021
  767BOLB   GL218388  11.205  13.324  32.538  0.0069  0.0341 -0.3523
  767BOLB   C1A18389  11.053  13.727  32.234 -0.0548  0.1201 -0.0463
  767BOLB   C2A18390  10.772  13.704  31.875  0.1883 -0.0604  0.0131
  767BOLB   C3A18391  10.485  13.434  31.605 -0.2841 -0.4887  0.4373
  767BOLB   C4A18392  10.148  13.358  31.243 -0.0083  0.0413  0.0859
  767BOLB   C1B18393  11.360  13.030  32.271  0.1924 -0.1678 -0.0689
  767BOLB   C2B18394  11.145  12.857  31.932 -0.0558 -0.2161  0.0218
  767BOLB   C3B18395  11.245  12.817  31.428 -0.2927  0.1776 -0.4807
  767BOLB   C4B18396  11.295  12.860  31.031  0.1165 -0.0543  0.0490
  767BOLB   NC218397   9.594  14.096  31.457 -0.1215 -0.1026 -0.1118
  767BOLB   PO218398   9.434  14.165  30.970 -0.0793  0.2237 -0.1133
  767BOLB   GL318399   9.497  14.147  30.510 -0.1056 -0.0925 -0.2076
  767BOLB   GL418400   9.771  13.999  30.593 -0.5360  0.1517 -0.1462
  767BOLB   C1C18401   9.567  13.816  30.131 -0.2226 -0.0016 -0.1558
  767BOLB   C2C18402   9.616  13.397  30.220 -0.0846 -0.0694  0.0180
  767BOLB   C3C18403   9.806  13.209  30.556 -0.0972  0.0324 -0.5434
  767BOLB   C4C18404  10.024  13.406  30.894  0.2685  0.1406 -0.0799
  767BOLB   C1D18405   9.992  13.728  30.410  0.2254  0.0878 -0.1098
  767BOLB   C2D18406  10.180  13.432  30.135  0.0143 -0.2282  0.1240
  767BOLB   C3D18407  10.502  13.330  30.100 -0.0226 -0.0807 -0.5476
  767BOLB   C4D18408  10.847  13.197  29.879  0.0278  0.3052  0.0991
  768BOLB   NC118409  15.370  -3.286  34.626  0.2383 -0.1284 -0.2035
  768BOLB   PO118410  15.694  -3.147  34.522  0.2255 -0.0801 -0.3644
  768BOLB   GL118411  15.429  -2.803  34.590 -0.1320  0.2192  0.0287
  768BOLB   GL218412  15.298  -2.802  34.307  0.1945  0.0354 -0.2031
  768BOLB   C1A18413  15.028  -2.591  34.636  0.0151 -0.0450 -0.1033
  768BOLB   C2A18414  14.706  -2.302  34.419 -0.4423  0.0003  0.3823
  768BOLB   C3A18415  14.460  -2.178  34.080  0.0939  0.0799  0.1304
  768BOLB   C4A18416  14.604  -1.996  33.732 -0.0679  0.1602  0.2079
  768BOLB   C1B18417  15.104  -2.472  34.080 -0.1499 -0.0177  0.1451
  768BOLB   C2B18418  15.032  -2.437  33.690  0.2254  0.2757  0.0460
  768BOLB   C3B18419  14.898  -2.219  33.362  0.0978 -0.2568  0.0540
  768BOLB   C4B18420  14.791  -2.068  32.977  0.0474 -0.1623 -0.0523
  768BOLB   NC218421  15.340  -0.477  31.818  0.0684  0.2926 -0.1603
  768BOLB   PO218422  15.708  -0.655  31.725  0.0208  0.3104  0.0088
  768BOLB   GL318423  15.449  -0.933  32.101  0.1064 -0.2419  0.3052
  768BOLB   GL418424  15.454  -1.300  32.083 -0.1634  0.0761  0.1502
  768BOLB   C1C18425  15.277  -1.190  32.521 -0.0445  0.0469 -0.1436
  768BOLB   C2C18426  14.926  -1.200  32.821 -0.0282  0.5524 -0.3332
  768BOLB   C3C18427  14.687  -1.405  33.050  0.5351  0.1259 -0.0613
  768BOLB   C4C18428  14.455  -1.684  33.355 -0.1940  0.1459 -0.0254
  768BOLB   C1D18429  15.470  -1.626  32.322 -0.3554  0.3012 -0.1190
  768BOLB   C2D18430  15.659  -1.848  32.714 -0.3994  0.1004 -0.3805
  768BOLB   C3D18431  15.800  -2.103  32.871 -0.1561  0.1654  0.0569
  768BOLB   C4D18432  16.136  -2.148  33.170  0.0871 -0.1119 -0.1976
  769BOLB   NC118433  16.844  -4.318  20.356  0.0108  0.3078  0.0867
  769BOLB   PO118434  16.509  -4.618  20.503 -0.1147 -0.2259 -0.1195
  769BOLB   GL118435  16.780  -4.853  20.347 -0.0500  0.2969  0.0100
  769BOLB   GL218436  17.171  -4.877  20.463  0.1253  0.1573 -0.3094
  769BOLB   C1A18437  16.892  -5.259  20.247  0.2803 -0.0447 -0.3579
  769BOLB   C2A18438  17.338  -5.418  20.153  0.1243  0.3750  0.0472
  769BOLB   C3A18439  17.704  -5.806  20.137  0.0849 -0.1182 -0.0292
  769BOLB   C4A18440  17.572  -6.139  20.209  0.3613  0.0951 -0.0697
  769BOLB   C1B18441  17.484  -5.249  20.605  0.1400 -0.2679  0.0269
  769BOLB   C2B18442  17.611  -5.819  20.597 -0.3540 -0.3667 -0.0445
  769BOLB   C3B18443  17.956  -6.155  20.674  0.1614  0.1025 -0.1055
  769BOLB   C4B18444  18.195  -6.430  20.570  0.1006 -0.0836  0.0880
  769BOLB   NC218445  17.688  -8.442  21.060  0.2681 -0.0950 -0.0183
  769BOLB   PO218446  17.411  -8.353  20.754 -0.2353 -0.0299  0.1715
  769BOLB   GL318447  17.460  -7.980  20.621  0.1529 -0.3232 -0.0457
  769BOLB   GL418448  17.368  -7.933  20.298 -0.0256  0.1341  0.1311
  769BOLB   C1C18449  17.522  -7.592  20.691  0.1414  0.0153  0.0770
  769BOLB   C2C18450  17.359  -7.294  20.458  0.0903 -0.0083  0.2351
  769BOLB   C3C18451  17.645  -6.917  20.278 -0.0208 -0.1820 -0.0754
  769BOLB   C4C18452  17.628  -6.489  20.116  0.1910  0.0473 -0.4366
  769BOLB   C1D18453  17.367  -7.623  20.013 -0.3672 -0.0874  0.1733
  769BOLB   C2D18454  17.360  -7.209  19.826 -0.2244 -0.1077 -0.0097
  769BOLB   C3D18455  17.335  -6.808  19.826 -0.1888  0.1044 -0.0061
  769BOLB   C4D18456  17.092  -6.456  19.998  0.0017 -0.1713  0.1502
  770BOLB   NC118457   7.752  -4.119  19.198 -0.3234 -0.1752 -0.2857
  770BOLB   PO118458   7.852  -4.322  18.824  0.1417  0.1594 -0.1938
  770BOLB   GL118459   8.204  -4.103  18.958  0.2827  0.0855  0.1602
  770BOLB   GL218460   8.499  -4.240  18.886  0.0002  0.2448  0.1753
  770BOLB   C1A18461   8.383  -3.740  18.869  0.2525 -0.1022 -0.4682
  770BOLB   C2A18462   8.657  -3.260  18.908  0.2645 -0.1170 -0.3312
  770BOLB   C3A18463   8.807  -2.958  19.256  0.0002 -0.2135  0.2886
  770BOLB   C4A18464   8.828  -2.854  19.674 -0.1244  0.0232 -0.2781
  770BOLB   C1B18465   8.802  -4.066  19.030 -0.2606 -0.1726 -0.0733
  770BOLB   C2B18466   8.864  -3.659  19.094 -0.0569 -0.0083 -0.1995
  770BOLB   C3B18467   9.171  -3.335  19.142 -0.0390  0.1876  0.4884
  770BOLB   C4B18468   9.261  -3.143  19.408 -0.1140  0.2113  0.1985
  770BOLB   NC218469   6.991  -3.134  18.928  0.0493 -0.0668  0.1811
  770BOLB   PO218470   7.026  -3.346  19.338 -0.0785  0.0251 -0.0761
  770BOLB   GL318471   7.360  -3.061  19.464 -0.0819  0.0053  0.0387
  770BOLB   GL418472   7.404  -2.870  19.084  0.1003 -0.0464 -0.2963
  770BOLB   C1C18473   7.457  -3.083  19.884  0.2707  0.0742  0.3269
  770BOLB   C2C18474   7.790  -2.889  20.159  0.0852  0.1207  0.0534
  770BOLB   C3C18475   8.221  -2.811  20.185  0.0134 -0.2611  0.0863
  770BOLB   C4C18476   8.669  -2.773  19.993  0.1638  0.0822 -0.3951
  770BOLB   C1D18477   7.557  -2.560  19.372  0.3723 -0.0049 -0.2268
  770BOLB   C2D18478   7.665  -2.495  19.918  0.2202 -0.1447  0.0292
  770BOLB   C3D18479   7.828  -2.233  20.111  0.1368 -0.2867  0.2633
  770BOLB   C4D18480   8.091  -1.957  19.935 -0.1290  0.2399  0.2413
  771BOLB   NC118481  12.860   6.947  18.548  0.3702 -0.0057  0.0603
  771BOLB   PO118482  12.662   7.306  18.729 -0.1658  0.0163 -0.0289
  771BOLB   GL118483  12.288   7.576  18.772  0.0449 -0.0835 -0.1599
  771BOLB   GL218484  12.038   7.416  18.686  0.0865 -0.1167 -0.0012
  771BOLB   C1A18485  12.050   7.934  18.533 -0.0316 -0.0898  0.4021
  771BOLB   C2A18486  12.054   8.232  18.178 -0.1476  0.2892 -0.3065
  771BOLB   C3A18487  11.705   8.360  17.821 -0.1232  0.1768 -0.1225
  771BOLB   C4A18488  11.418   8.395  17.498  0.0535 -0.1104  0.2899
  771BOLB   C1B18489  11.752   7.599  18.325  0.0948  0.2355 -0.2472
  771BOLB   C2B18490  11.667   7.933  18.114 -0.2537 -0.0331  0.3347
  771BOLB   C3B18491  11.588   7.836  17.718 -0.0275 -0.0611  0.0416
  771BOLB   C4B18492  11.235   7.970  17.365 -0.0922 -0.2891  0.1562
  771BOLB   NC218493   9.815   8.799  16.064 -0.0143 -0.3925 -0.2146
  771BOLB   PO218494   9.662   9.072  16.383 -0.1993 -0.3898 -0.1698
  771BOLB   GL318495  10.089   8.985  16.610  0.0521 -0.1952 -0.0653
  771BOLB   GL418496  10.399   9.089  16.415 -0.2094 -0.1097 -0.4057
  771BOLB   C1C18497  10.216   8.580  16.690  0.1859 -0.2130 -0.1349
  771BOLB   C2C18498  10.443   8.270  16.892 -0.0186  0.1406 -0.2733
  771BOLB   C3C18499  10.806   8.183  17.015  0.0363 -0.1211 -0.2461
  771BOLB   C4C18500  11.056   8.425  17.252  0.0072 -0.0957  0.2100
  771BOLB   C1D18501  10.436   9.170  16.871 -0.0238  0.0320 -0.1076
  771BOLB   C2D18502  10.214   8.922  17.197 -0.2089  0.2203 -0.2733
  771BOLB   C3D18503  10.094   8.696  17.592  0.0599 -0.3562  0.0510
  771BOLB   C4D18504   9.926   8.378  17.828 -0.2738 -0.0870 -0.0654
  772BOLB   NC118505  10.115  -4.299  32.776  0.1977  0.2372  0.4128
  772BOLB   PO118506  10.593  -4.205  32.797  0.1076  0.0524  0.0684
  772BOLB   GL118507  10.576  -3.946  32.494  0.2586  0.1625 -0.0533
  772BOLB   GL218508  10.336  -3.896  32.387  0.0463  0.0501 -0.1722
  772BOLB   C1A18509  10.708  -3.778  32.042  0.2792 -0.0185 -0.0785
  772BOLB   C2A18510  10.940  -3.395  31.894  0.1449 -0.1227  0.1973
  772BOLB   C3A18511  11.195  -3.196  31.669  0.3285 -0.1044  0.3557
  772BOLB   C4A18512  11.575  -2.970  31.715 -0.2829 -0.1993  0.1865
  772BOLB   C1B18513  10.285  -3.508  32.162 -0.0754 -0.1242  0.1283
  772BOLB   C2B18514  10.425  -3.363  31.850 -0.0050 -0.0615 -0.1595
  772BOLB   C3B18515  10.517  -3.178  31.607 -0.0137  0.1588  0.1652
  772BOLB   C4B18516  10.672  -3.105  31.260  0.1163  0.0502  0.3287
  772BOLB   NC218517  11.111  -4.776  32.393 -0.1414  0.2885  0.3596
  772BOLB   PO218518  11.464  -4.914  32.163 -0.1056 -0.2683  0.1383
  772BOLB   GL318519  11.846  -4.682  31.970  0.1160 -0.1551  0.0676
  772BOLB   GL418520  12.209  -4.805  31.822 -0.4470 -0.1513 -0.1026
  772BOLB   C1C18521  12.094  -4.299  31.851 -0.0656  0.1592  0.3048
  772BOLB   C2C18522  12.172  -3.876  31.707  0.1704  0.2597  0.0699
  772BOLB   C3C18523  12.145  -3.499  31.606 -0.2586 -0.2515 -0.3268
  772BOLB   C4C18524  11.809  -3.224  31.699  0.0618  0.0637  0.1159
  772BOLB   C1D18525  12.133  -4.616  31.441  0.1755 -0.0641 -0.1016
  772BOLB   C2D18526  12.286  -4.431  31.091  0.0608 -0.1001 -0.2230
  772BOLB   C3D18527  12.457  -4.433  30.728  0.0307  0.1028  0.0285
  772BOLB   C4D18528  12.503  -4.025  30.444  0.0241  0.3555  0.0685
  773BOLB   NC118529   9.568   1.001  30.631 -0.2310  0.0559 -0.3062
  773BOLB   PO118530   9.360   1.376  30.376 -0.1274  0.1217 -0.0066
  773BOLB   GL118531   9.028   1.218  30.634  0.0092 -0.1964  0.2808
  773BOLB   GL218532   9.078   0.916  30.773 -0.1363  0.1459 -0.0646
  773BOLB   C1A18533   8.676   1.340  30.875 -0.1094 -0.0873  0.1180
  773BOLB   C2A18534   8.334   1.182  31.030  0.0582  0.2305 -0.1532
  773BOLB   C3A18535   8.049   0.981  31.246  0.1520 -0.1360 -0.0122
  773BOLB   C4A18536   7.643   0.949  31.315  0.2368  0.1124  0.1869
  773BOLB   C1B18537   8.993   0.491  30.881  0.0684 -0.0398  0.0270
  773BOLB   C2B18538   8.674   0.192  30.704  0.1927 -0.2574 -0.3945
  773BOLB   C3B18539   8.473  -0.188  30.785  0.2885  0.4788  0.0375
  773BOLB   C4B18540   8.174  -0.398  30.902  0.0655  0.0051 -0.0189
  773BOLB   NC218541   5.799   0.000  32.293 -0.0669  0.2980 -0.0070
  773BOLB   PO218542   5.987  -0.409  32.086  0.3644  0.0662 -0.1632
  773BOLB   GL318543   6.252  -0.268  32.148  0.2288 -0.0437  0.1854
  773BOLB   GL418544   6.431  -0.268  32.430 -0.1252  0.1709 -0.4868
  773BOLB   C1C18545   6.519   0.083  31.897  0.2638 -0.3056  0.2219
  773BOLB   C2C18546   6.682   0.497  31.636 -0.1728 -0.4672  0.0036
  773BOLB   C3C18547   7.087   0.659  31.598  0.0381  0.2272  0.1358
  773BOLB   C4C18548   7.251   0.982  31.463 -0.1403  0.2461 -0.1663
  773BOLB   C1D18549   6.716   0.026  32.302  0.0618 -0.2491  0.0294
  773BOLB   C2D18550   7.000   0.254  31.948  0.1696  0.2364 -0.0720
  773BOLB   C3D18551   7.272   0.231  31.641  0.0949  0.0001  0.3570
  773BOLB   C4D18552   7.603   0.465  31.436 -0.1483 -0.1219  0.2208
  774BOLB   NC118553   8.332  -5.912  27.145  0.0280  0.0085 -0.0117
  774BOLB   PO118554   8.607  -6.215  26.944 -0.1313  0.0251  0.1480
  774BOLB   GL118555   8.962  -6.004  26.698 -0.0617  0.2751  0.1514
  774BOLB   GL218556   8.884  -5.685  26.669  0.1532 -0.2689  0.0174
  774BOLB   C1A18557   9.390  -5.779  26.849  0.0774 -0.3711 -0.1778
  774BOLB   C2A18558   9.365  -5.558  27.266  0.1906 -0.4537 -0.3218
  774BOLB   C3A18559   9.456  -5.226  27.456  0.3306  0.0175  0.1503
  774BOLB   C4A18560   9.837  -4.952  27.647 -0.3873 -0.0166 -0.0095
  774BOLB   C1B18561   8.789  -5.205  26.610 -0.1059  0.1540 -0.0181
  774BOLB   C2B18562   8.973  -4.925  26.559 -0.3533  0.0108 -0.2946
  774BOLB   C3B18563   9.433  -4.702  26.365  0.2356  0.3131  0.0421
  774BOLB   C4B18564   9.956  -4.616  26.340  0.1342 -0.2066  0.2016
  774BOLB   NC218565   8.683  -5.810  28.552  0.2997  0.0232 -0.0100
  774BOLB   PO218566   8.585  -6.115  28.975 -0.1835  0.0416 -0.1494
  774BOLB   GL318567   8.848  -5.605  28.956  0.3713 -0.1204  0.0058
  774BOLB   GL418568   8.731  -5.434  29.237 -0.0216  0.5022 -0.0658
  774BOLB   C1C18569   9.156  -5.380  28.631  0.0120  0.2005  0.0814
  774BOLB   C2C18570   9.342  -5.048  28.371  0.3556 -0.1474 -0.2622
  774BOLB   C3C18571   9.707  -4.661  28.238 -0.0514 -0.2641 -0.2649
  774BOLB   C4C18572   9.975  -4.616  27.862  0.0152  0.1088 -0.0137
  774BOLB   C1D18573   8.672  -5.016  29.237 -0.1860  0.0349  0.1192
  774BOLB   C2D18574   8.810  -4.557  29.078  0.1879 -0.1377 -0.3513
  774BOLB   C3D18575   8.703  -4.218  29.167  0.0179  0.1069 -0.0885
  774BOLB   C4D18576   8.791  -3.916  29.320 -0.1958  0.1819 -0.1632
  775BOLB   NC118577   2.411   1.264  28.078 -0.0053 -0.2814  0.4229
  775BOLB   PO118578   2.796   1.452  27.990  0.1926  0.0790  0.0178
  775BOLB   GL118579   3.246   1.672  27.881 -0.0508 -0.1404 -0.2345
  775BOLB   GL218580   3.551   1.503  28.059  0.1504  0.1274  0.1454
  775BOLB   C1A18581   3.565   1.973  27.670 -0.0880  0.0335 -0.1148
  775BOLB   C2A18582   4.052   2.165  27.553  0.1877 -0.0263  0.1118
  775BOLB   C3A18583   4.326   2.116  27.373 -0.0251  0.0864  0.0251
  775BOLB   C4A18584   4.812   2.361  27.352 -0.5454 -0.1703  0.0673
  775BOLB   C1B18585   3.950   1.508  27.859 -0.1227  0.0467 -0.1484
  775BOLB   C2B18586   4.289   1.236  27.890  0.0926 -0.2979 -0.4277
  775BOLB   C3B18587   4.702   1.243  28.028 -0.4117  0.0732  0.0791
  775BOLB   C4B18588   5.093   1.425  28.100  0.0295  0.0142  0.1666
  775BOLB   NC218589   7.408   2.168  26.518  0.0701 -0.2839  0.1498
  775BOLB   PO218590   6.933   2.261  26.583  0.1674 -0.1114 -0.0328
  775BOLB   GL318591   6.572   1.985  26.562  0.1237 -0.2345  0.1198
  775BOLB   GL418592   6.432   1.727  26.657  0.0922  0.0054 -0.2221
  775BOLB   C1C18593   6.136   2.068  26.476  0.2870  0.1038  0.1424
  775BOLB   C2C18594   5.796   2.110  26.682  0.1934 -0.0588  0.0184
  775BOLB   C3C18595   5.524   2.217  27.073 -0.1385  0.1090  0.1740
  775BOLB   C4C18596   5.170   2.409  27.090  0.1760 -0.1296 -0.1475
  775BOLB   C1D18597   6.046   1.616  26.776  0.0827 -0.6064  0.1640
  775BOLB   C2D18598   5.617   1.620  26.709  0.2120  0.3212  0.1915
  775BOLB   C3D18599   5.384   1.877  26.580  0.3050  0.0845 -0.2163
  775BOLB   C4D18600   5.171   2.153  26.608  0.0626  0.0354  0.2348
  776BOLB   NC118601  23.287  -6.219  23.228  0.3250 -0.1419 -0.0816
  776BOLB   PO118602  23.521  -5.825  23.219  0.1557  0.2764 -0.0582
  776BOLB   GL118603  23.441  -5.389  23.244  0.1126  0.1447  0.4890
  776BOLB   GL218604  23.763  -5.172  23.239  0.2333  0.1403  0.1463
  776BOLB   C1A18605  23.058  -5.109  23.097 -0.0236 -0.1102 -0.1229
  776BOLB   C2A18606  22.786  -4.754  23.284  0.2134 -0.0606  0.1774
  776BOLB   C3A18607  22.400  -4.652  23.149 -0.1864 -0.4116  0.1324
  776BOLB   C4A18608  22.211  -4.382  23.249 -0.2109 -0.2402  0.1089
  776BOLB   C1B18609  23.434  -4.908  23.404 -0.2288 -0.3180  0.2431
  776BOLB   C2B18610  23.026  -4.826  23.750  0.1898 -0.5655 -0.0176
  776BOLB   C3B18611  22.908  -4.443  23.918  0.1748  0.4255 -0.2902
  776BOLB   C4B18612  22.877  -4.203  24.291  0.1298  0.0806  0.1888
  776BOLB   NC218613  20.878  -2.615  23.918 -0.3481  0.2588  0.1147
  776BOLB   PO218614  20.898  -2.693  24.327  0.4212 -0.0951 -0.0361
  776BOLB   GL318615  21.001  -3.043  24.253 -0.0108  0.1573  0.0838
  776BOLB   GL418616  21.073  -3.305  24.495 -0.2410 -0.1154  0.0700
  776BOLB   C1C18617  21.153  -3.433  24.035 -0.1727  0.3221  0.3992
  776BOLB   C2C18618  21.409  -3.838  24.035 -0.0392 -0.0138  0.0622
  776BOLB   C3C18619  21.697  -4.217  23.777 -0.1852  0.2199 -0.2138
  776BOLB   C4C18620  22.153  -4.141  23.657 -0.0305 -0.1457  0.0535
  776BOLB   C1D18621  21.125  -3.733  24.398  0.3649 -0.2060 -0.1058
  776BOLB   C2D18622  20.947  -4.220  24.483 -0.1424 -0.0162 -0.1460
  776BOLB   C3D18623  20.698  -4.556  24.736  0.1338 -0.1350 -0.0060
  776BOLB   C4D18624  20.688  -4.921  24.983 -0.0174 -0.0970 -0.3428
  777BOLB   NC118625  22.226  -2.167  22.651 -0.3599  0.0861 -0.2843
  777BOLB   PO118626  22.279  -2.166  22.114  0.0264  0.0340  0.0932
  777BOLB   GL118627  22.678  -2.207  22.310 -0.1440 -0.0445  0.2745
  777BOLB   GL218628  22.668  -2.506  22.414 -0.0940 -0.0728  0.2268
  777BOLB   C1A18629  23.158  -2.420  22.331  0.1563  0.3417  0.1756
  777BOLB   C2A18630  23.593  -2.556  22.307 -0.0818  0.0450 -0.1004
  777BOLB   C3A18631  24.104  -2.484  22.361  0.3882 -0.1184 -0.0656
  777BOLB   C4A18632  24.449  -2.198  22.246  0.1663  0.2829 -0.2943
  777BOLB   C1B18633  22.923  -2.777  22.112 -0.1876 -0.1479 -0.1627
  777BOLB   C2B18634  23.295  -2.738  21.977 -0.4499 -0.1529 -0.1343
  777BOLB   C3B18635  23.552  -3.020  21.733 -0.0794 -0.0015  0.0988
  777BOLB   C4B18636  23.525  -3.268  21.300 -0.0110  0.1675 -0.1217
  777BOLB   NC218637  26.456  -2.999  22.521  0.2502 -0.0509 -0.0458
  777BOLB   PO218638  26.819  -2.812  22.426 -0.1109  0.0416 -0.1178
  777BOLB   GL318639  26.482  -2.517  22.533 -0.0977  0.1771 -0.2562
  777BOLB   GL418640  26.553  -2.318  22.816  0.1047 -0.3481  0.1630
  777BOLB   C1C18641  26.020  -2.426  22.585  0.2594  0.0173 -0.2639
  777BOLB   C2C18642  25.716  -2.594  22.721 -0.0139  0.1110  0.0719
  777BOLB   C3C18643  25.269  -2.691  22.609  0.2777 -0.2099  0.0407
  777BOLB   C4C18644  24.882  -2.582  22.414  0.0953 -0.3822  0.2421
  777BOLB   C1D18645  26.272  -1.946  22.833  0.0558 -0.1439 -0.0213
  777BOLB   C2D18646  26.032  -1.798  23.104 -0.0877 -0.1948  0.2569
  777BOLB   C3D18647  25.999  -1.431  23.353 -0.0997 -0.4278 -0.2373
  777BOLB   C4D18648  25.614  -1.248  23.522 -0.1326  0.0346 -0.0135
  778BOLB   NC118649  10.112  -1.861  21.846  0.0543 -0.1373 -0.0721
  778BOLB   PO118650  10.203  -2.265  21.919 -0.0446 -0.1530 -0.0267
  778BOLB   GL118651  10.055  -2.647  21.820 -0.3128 -0.0347 -0.1773
  778BOLB   GL218652  10.321  -2.801  21.594  0.0918  0.0122 -0.0332
  778BOLB   C1A18653   9.596  -2.781  21.866  0.2031  0.1398 -0.1217
  778BOLB   C2A18654   9.202  -2.929  21.627  0.2202  0.2313  0.1681
  778BOLB   C3A18655   8.765  -3.174  21.579  0.3311 -0.1595 -0.0004
  778BOLB   C4A18656   8.294  -3.357  21.621 -0.1713  0.0253  0.0755
  778BOLB   C1B18657  10.188  -3.180  21.728 -0.0246 -0.0173  0.0174
  778BOLB   C2B18658  10.004  -3.520  21.791 -0.0099  0.0795  0.0049
  778BOLB   C3B18659   9.706  -3.847  21.839 -0.2435 -0.1357 -0.0584
  778BOLB   C4B18660   9.605  -4.118  22.218  0.3007 -0.3825 -0.4205
  778BOLB   NC218661   6.804  -5.090  21.061  0.1540  0.0360  0.0432
  778BOLB   PO218662   6.476  -4.902  21.482 -0.0547  0.3794  0.2703
  778BOLB   GL318663   6.711  -4.474  21.586  0.2356 -0.2182  0.0140
  778BOLB   GL418664   6.582  -4.071  21.622 -0.0630 -0.0988  0.0666
  778BOLB   C1C18665   7.129  -4.295  21.639 -0.0366 -0.2655 -0.1153
  778BOLB   C2C18666   7.323  -4.062  21.370 -0.1226  0.3679  0.0447
  778BOLB   C3C18667   7.693  -3.829  21.292 -0.0745 -0.0280 -0.1257
  778BOLB   C4C18668   7.949  -3.586  21.498  0.0665 -0.2511  0.0749
  778BOLB   C1D18669   6.930  -3.840  21.726 -0.2065 -0.2654  0.0148
  778BOLB   C2D18670   7.434  -3.695  21.740 -0.0772 -0.0235 -0.0712
  778BOLB   C3D18671   7.735  -3.438  21.910  0.3369 -0.2738  0.1532
  778BOLB   C4D18672   7.982  -3.140  22.175  0.3483  0.1163  0.0802
  779BOLB   NC118673   6.662   4.148  24.723  0.1029  0.1723  0.0822
  779BOLB   PO118674   6.535   3.678  24.782  0.2293 -0.0004  0.4032
  779BOLB   GL118675   6.246   3.517  25.142  0.1009 -0.0283 -0.0660
  779BOLB   GL218676   6.291   3.203  25.157  0.0066  0.1696 -0.1772
  779BOLB   C1A18677   5.888   3.459  25.310  0.0662 -0.3519  0.1631
  779BOLB   C2A18678   5.465   3.241  25.519 -0.2997  0.0404 -0.0423
  779BOLB   C3A18679   5.028   3.087  25.337 -0.2224 -0.0616 -0.0596
  779BOLB   C4A18680   4.671   3.013  25.475  0.2276 -0.0641 -0.0483
  779BOLB   C1B18681   5.876   3.082  24.994 -0.1850  0.0803 -0.0858
  779BOLB   C2B18682   5.525   2.896  25.119  0.2266  0.1024 -0.1198
  779BOLB   C3B18683   5.251   2.570  25.145 -0.0889  0.0164 -0.2289
  779BOLB   C4B18684   4.831   2.409  25.124 -0.1044  0.2576  0.1441
  779BOLB   NC218685   2.596   2.231  24.208  0.0293  0.1324  0.0079
  779BOLB   PO218686   2.757   2.550  24.155 -0.2715  0.1309  0.1266
  779BOLB   GL318687   3.224   2.674  24.156  0.2328  0.1735 -0.0021
  779BOLB   GL418688   3.339   2.626  23.872  0.4052 -0.0092 -0.0590
  779BOLB   C1C18689   3.617   2.689  24.270  0.1234  0.0288 -0.0359
  779BOLB   C2C18690   3.868   2.794  24.506  0.4038  0.0824 -0.1910
  779BOLB   C3C18691   4.143   2.729  24.823 -0.0924 -0.0220  0.1732
  779BOLB   C4C18692   4.350   2.684  25.225  0.0454 -0.2325  0.0064
  779BOLB   C1D18693   3.583   2.261  23.995 -0.0795  0.1781 -0.0260
  779BOLB   C2D18694   3.750   2.088  24.267  0.0022  0.1082  0.2757
  779BOLB   C3D18695   4.076   2.211  24.593  0.2228 -0.1725  0.0140
  779BOLB   C4D18696   4.474   2.281  24.843  0.0225  0.0030 -0.0383
  780BOLB   NC118697   7.900   8.194  26.039 -0.1252 -0.2464 -0.2493
  780BOLB   PO118698   7.681   7.935  26.189  0.1268  0.0699  0.0871
  780BOLB   GL118699   7.476   8.290  26.311  0.0582  0.1243 -0.1607
  780BOLB   GL218700   7.594   8.560  26.519 -0.0407 -0.1544 -0.2770
  780BOLB   C1A18701   7.011   8.221  26.301  0.1711  0.0168 -0.0625
  780BOLB   C2A18702   6.644   8.483  26.413  0.2232  0.1088  0.0655
  780BOLB   C3A18703   6.467   8.707  26.078  0.3820  0.2958  0.3115
  780BOLB   C4A18704   6.142   9.027  25.935  0.0936  0.1872 -0.0896
  780BOLB   C1B18705   7.266   8.779  26.396 -0.2883  0.0602 -0.0719
  780BOLB   C2B18706   7.052   9.087  26.398  0.3096  0.0461 -0.1286
  780BOLB   C3B18707   6.919   9.478  26.342 -0.0297  0.1341 -0.0578
  780BOLB   C4B18708   7.098   9.915  26.174 -0.1549 -0.1965 -0.0950
  780BOLB   NC218709   3.973   9.083  26.865 -0.0183  0.1726 -0.1487
  780BOLB   PO218710   4.103   9.538  26.795  0.2081  0.1021  0.0316
  780BOLB   GL318711   4.320   9.395  26.513  0.1027  0.0273  0.3232
  780BOLB   GL418712   4.189   9.165  26.381 -0.0529  0.0423 -0.4041
  780BOLB   C1C18713   4.703   9.358  26.241  0.1937 -0.1230 -0.0320
  780BOLB   C2C18714   5.050   9.503  26.035  0.1420 -0.0485  0.1070
  780BOLB   C3C18715   5.441   9.416  26.143  0.0693 -0.1267  0.0633
  780BOLB   C4C18716   5.861   9.368  26.111  0.0103  0.0136 -0.1908
  780BOLB   C1D18717   4.709   9.058  26.618 -0.0870 -0.0091  0.0277
  780BOLB   C2D18718   5.168   9.068  26.344  0.0687 -0.2343 -0.2685
  780BOLB   C3D18719   5.435   8.769  26.188 -0.3884  0.2054  0.1583
  780BOLB   C4D18720   5.735   8.579  25.859 -0.2525 -0.0357  0.1189
  781BOLB   NC118721  10.871  -1.759  21.783  0.2274 -0.1271 -0.3601
  781BOLB   PO118722  10.541  -1.979  21.594 -0.0171 -0.0831  0.0646
  781BOLB   GL118723  10.249  -2.302  21.446  0.2107  0.1920 -0.1294
  781BOLB   GL218724  10.347  -2.391  21.195 -0.0602  0.1569  0.2356
  781BOLB   C1A18725   9.863  -2.543  21.260 -0.0816 -0.2930  0.4027
  781BOLB   C2A18726   9.638  -2.920  21.377 -0.1536  0.1736  0.3781
  781BOLB   C3A18727   9.469  -3.260  21.092 -0.2208  0.2074 -0.3944
  781BOLB   C4A18728   9.074  -3.450  21.108  0.0535 -0.0401  0.1195
  781BOLB   C1B18729  10.139  -2.397  20.896  0.0605 -0.5642 -0.0034
  781BOLB   C2B18730   9.693  -2.401  20.760 -0.0641 -0.2411  0.2777
  781BOLB   C3B18731   9.303  -2.412  20.501 -0.2178  0.1249  0.1381
  781BOLB   C4B18732   8.879  -2.318  20.313  0.1880  0.0429 -0.0774
  781BOLB   NC218733   7.105  -4.307  19.962  0.0284 -0.1220  0.2685
  781BOLB   PO218734   7.205  -3.890  20.106 -0.0293  0.3649  0.1769
  781BOLB   GL318735   7.346  -3.637  20.442 -0.1115 -0.2598  0.0355
  781BOLB   GL418736   7.502  -3.437  20.259  0.2427  0.2049 -0.1309
  781BOLB   C1C18737   7.603  -3.719  20.739 -0.0202 -0.3950 -0.1127
  781BOLB   C2C18738   8.000  -3.739  20.936 -0.0618  0.1920  0.3277
  781BOLB   C3C18739   8.308  -3.700  21.188  0.0132 -0.2871  0.2577
  781BOLB   C4C18740   8.717  -3.640  21.304  0.1813 -0.0405 -0.0898
  781BOLB   C1D18741   7.836  -3.310  20.472  0.1340 -0.1654  0.0841
  781BOLB   C2D18742   8.133  -3.231  20.599  0.0485  0.0007 -0.0182
  781BOLB   C3D18743   8.293  -2.897  20.965  0.2150  0.1749  0.1826
  781BOLB   C4D18744   8.534  -3.193  21.121 -0.0864 -0.1753  0.0774
  782BOLB   NC118745  27.191   5.531  32.026  0.3320  0.1197 -0.0458
  782BOLB   PO118746  26.869   5.311  32.252 -0.0430  0.0692 -0.1343
  782BOLB   GL118747  26.482   5.162  32.146  0.0418  0.0106 -0.1083
  782BOLB   GL218748  26.357   4.825  32.062  0.2936 -0.0580  0.1611
  782BOLB   C1A18749  26.089   5.314  32.032 -0.0633  0.0008 -0.2152
  782BOLB   C2A18750  25.670   5.485  31.851 -0.1413 -0.1417  0.0705
  782BOLB   C3A18751  25.446   5.705  31.497 -0.0447  0.2486 -0.1414
  782BOLB   C4A18752  25.417   5.901  31.127 -0.1929 -0.1202 -0.1206
  782BOLB   C1B18753  25.948   4.886  32.220  0.1570  0.0012 -0.1723
  782BOLB   C2B18754  25.590   5.111  32.111  0.0638 -0.0409 -0.0266
  782BOLB   C3B18755  25.189   5.262  31.752 -0.1370 -0.0609 -0.3965
  782BOLB   C4B18756  24.897   5.035  31.419  0.0133 -0.0837  0.0729
  782BOLB   NC218757  27.672   6.884  31.857 -0.5738  0.0757 -0.2230
  782BOLB   PO218758  27.242   7.027  31.683  0.3866 -0.2009  0.0822
  782BOLB   GL318759  27.003   6.734  31.520  0.0019 -0.0482  0.1318
  782BOLB   GL418760  27.040   6.350  31.592  0.1471 -0.5147  0.0251
  782BOLB   C1C18761  26.575   6.607  31.544 -0.0421  0.1542  0.1574
  782BOLB   C2C18762  26.216   6.655  31.318  0.0336  0.0714  0.1566
  782BOLB   C3C18763  25.807   6.690  31.111 -0.0635  0.1793 -0.1557
  782BOLB   C4C18764  25.515   6.340  31.046 -0.2814 -0.0210  0.4917
  782BOLB   C1D18765  26.766   6.214  31.236  0.0754 -0.2095 -0.2579
  782BOLB   C2D18766  26.357   6.300  30.974 -0.2402  0.0322 -0.1276
  782BOLB   C3D18767  25.997   6.145  30.951 -0.0215 -0.1574  0.0167
  782BOLB   C4D18768  25.943   6.006  31.364 -0.1876 -0.3748 -0.0156
  783BOLB   NC118769   7.428   2.279  27.521 -0.1162 -0.3766 -0.2267
  783BOLB   PO118770   7.263   2.343  27.843  0.0845  0.0143 -0.2958
  783BOLB   GL118771   6.971   2.279  28.118  0.0543 -0.6769 -0.0305
  783BOLB   GL218772   7.038   2.501  28.363 -0.0400  0.0868  0.1252
  783BOLB   C1A18773   6.619   1.894  28.155 -0.1538 -0.1393  0.1262
  783BOLB   C2A18774   6.545   1.579  27.964  0.0546 -0.0475  0.2796
  783BOLB   C3A18775   6.395   1.121  27.901  0.2533 -0.3751  0.2699
  783BOLB   C4A18776   6.172   0.967  28.016 -0.0727 -0.0453 -0.0670
  783BOLB   C1B18777   6.607   2.577  28.469 -0.0350  0.1652 -0.1946
  783BOLB   C2B18778   6.114   2.562  28.499  0.0573  0.2579 -0.0169
  783BOLB   C3B18779   5.733   2.317  28.385  0.2112 -0.2025  0.2606
  783BOLB   C4B18780   5.506   1.998  28.069  0.2258 -0.2491 -0.3007
  783BOLB   NC218781   3.283   0.843  29.003 -0.3550 -0.1709  0.2013
  783BOLB   PO218782   3.651   1.075  28.849  0.2210  0.0074  0.0258
  783BOLB   GL318783   4.093   1.119  28.838  0.0469 -0.0888 -0.0807
  783BOLB   GL418784   4.193   0.803  28.961 -0.0713  0.2738  0.0674
  783BOLB   C1C18785   4.487   1.056  28.584 -0.0169 -0.0207  0.0674
  783BOLB   C2C18786   4.915   1.025  28.420 -0.0113  0.2010  0.0225
  783BOLB   C3C18787   5.200   0.958  28.085  0.5554  0.0187 -0.0075
  783BOLB   C4C18788   5.634   0.966  27.985 -0.2556  0.0803  0.2964
  783BOLB   C1D18789   4.583   0.797  29.254  0.1850  0.0197  0.1579
  783BOLB   C2D18790   4.732   1.050  29.539 -0.0180 -0.0792  0.0445
  783BOLB   C3D18791   4.895   1.396  29.422 -0.2185 -0.2269 -0.0530
  783BOLB   C4D18792   4.767   1.739  29.544 -0.3022 -0.1809 -0.0705
  784BOLB   NC118793  20.968   3.568  32.009  0.0833 -0.0104 -0.1363
  784BOLB   PO118794  21.332   3.769  32.230  0.2612  0.5171  0.0110
  784BOLB   GL118795  21.484   3.791  32.622 -0.0189  0.2761  0.0872
  784BOLB   GL218796  21.743   3.940  32.626 -0.3598  0.0495  0.0076
  784BOLB   C1A18797  21.430   3.513  32.951 -0.0032  0.1303  0.1072
  784BOLB   C2A18798  21.567   3.072  32.987  0.0316  0.0169 -0.1168
  784BOLB   C3A18799  21.703   2.641  33.131  0.1026 -0.0642 -0.2741
  784BOLB   C4A18800  22.078   2.607  33.388 -0.2366  0.1299  0.1544
  784BOLB   C1B18801  21.974   3.627  32.783  0.1754  0.0937  0.1043
  784BOLB   C2B18802  22.008   3.222  32.958 -0.1203 -0.0053  0.2183
  784BOLB   C3B18803  22.252   2.898  32.978 -0.3218 -0.2927  0.3156
  784BOLB   C4B18804  22.670   2.557  33.114 -0.2344 -0.1001  0.1459
  784BOLB   NC218805  22.716   1.895  35.476  0.0926  0.3279 -0.0331
  784BOLB   PO218806  22.242   2.110  35.656  0.0933 -0.3356 -0.3250
  784BOLB   GL318807  22.221   2.477  35.414  0.0084 -0.0818 -0.1941
  784BOLB   GL418808  22.424   2.857  35.494  0.2921 -0.0204  0.0908
  784BOLB   C1C18809  22.251   2.530  35.025 -0.0456  0.0580 -0.1974
  784BOLB   C2C18810  22.112   2.793  34.639 -0.0935 -0.0207 -0.0849
  784BOLB   C3C18811  22.229   2.730  34.192  0.1433  0.3209  0.2938
  784BOLB   C4C18812  22.225   2.899  33.803  0.0384 -0.1934  0.0773
  784BOLB   C1D18813  22.268   3.241  35.326  0.1581 -0.0087  0.0628
  784BOLB   C2D18814  22.112   3.436  35.020 -0.0041  0.2982 -0.3009
  784BOLB   C3D18815  21.993   3.278  34.552 -0.0847  0.2732 -0.4939
  784BOLB   C4D18816  21.811   3.179  34.077  0.0390  0.0358 -0.1948
  785BOLB   NC118817  18.103  -2.464  35.003  0.0179  0.1549  0.1484
  785BOLB   PO118818  18.000  -2.885  34.823 -0.1276 -0.0592  0.2838
  785BOLB   GL118819  17.850  -2.610  34.471  0.3806 -0.0035 -0.1770
  785BOLB   GL218820  17.802  -2.343  34.581  0.0966  0.2906 -0.0949
  785BOLB   C1A18821  17.764  -2.518  34.098  0.1308 -0.1479 -0.1034
  785BOLB   C2A18822  17.793  -2.747  33.755  0.0045 -0.4165  0.3470
  785BOLB   C3A18823  17.436  -2.680  33.373  0.0930  0.3070  0.0499
  785BOLB   C4A18824  17.082  -2.693  33.138  0.3927 -0.2679 -0.0675
  785BOLB   C1B18825  17.528  -2.020  34.409 -0.2075 -0.0532  0.0166
  785BOLB   C2B18826  17.105  -1.835  34.232 -0.0792  0.0620 -0.1906
  785BOLB   C3B18827  17.065  -1.586  33.883  0.1623  0.0574 -0.0864
  785BOLB   C4B18828  16.847  -1.336  33.584  0.2767 -0.1623  0.1008
  785BOLB   NC218829  16.765  -1.491  31.053 -0.1055  0.1081 -0.2413
  785BOLB   PO218830  16.588  -1.018  31.233 -0.1215  0.3221 -0.1270
  785BOLB   GL318831  16.607  -1.259  31.550  0.1241 -0.0160  0.2115
  785BOLB   GL418832  16.540  -1.152  31.789  0.1307  0.0348 -0.0529
  785BOLB   C1C18833  16.653  -1.663  31.760  0.0382  0.1351  0.2093
  785BOLB   C2C18834  16.843  -1.773  32.145 -0.0173 -0.1696 -0.3137
  785BOLB   C3C18835  16.777  -2.114  32.459 -0.2110 -0.0030 -0.1498
  785BOLB   C4C18836  16.898  -2.372  32.933  0.0636 -0.1789  0.1427
  785BOLB   C1D18837  16.495  -1.132  32.267  0.1797  0.0710 -0.3251
  785BOLB   C2D18838  16.497  -1.284  32.654  0.2392  0.1371  0.1618
  785BOLB   C3D18839  16.629  -1.396  33.083  0.2413 -0.2689 -0.1525
  785BOLB   C4D18840  17.009  -1.506  33.077 -0.1818  0.0641  0.3275
  786BOLB   NC118841  15.528   9.039  18.240  0.1882 -0.0740 -0.2269
  786BOLB   PO118842  15.160   9.019  18.316 -0.2230  0.0929  0.0758
  786BOLB   GL118843  15.123   9.412  18.234  0.2957  0.0279  0.2562
  786BOLB   GL218844  14.992   9.425  17.972 -0.1966 -0.2151 -0.0218
  786BOLB   C1A18845  14.872   9.753  18.311 -0.1097 -0.0855 -0.0913
  786BOLB   C2A18846  14.788  10.111  18.604 -0.3950 -0.1691  0.1957
  786BOLB   C3A18847  14.702  10.528  18.737 -0.2097 -0.0891  0.3410
  786BOLB   C4A18848  14.618  10.912  18.475  0.0281 -0.0972  0.4531
  786BOLB   C1B18849  15.372   9.527  17.738 -0.2086 -0.2418  0.0138
  786BOLB   C2B18850  15.565   9.769  17.545  0.1691 -0.2204  0.3487
  786BOLB   C3B18851  15.611   9.763  16.953 -0.3365  0.2303 -0.0922
  786BOLB   C4B18852  15.411   9.566  16.566  0.0329 -0.1713  0.0814
  786BOLB   NC218853  13.662  12.636  17.014  0.3246  0.3028  0.0046
  786BOLB   PO218854  14.066  12.947  17.205  0.4589 -0.0075 -0.0265
  786BOLB   GL318855  14.353  12.749  17.453  0.2384 -0.2425 -0.1100
  786BOLB   GL418856  14.364  12.893  17.804 -0.1566 -0.0962  0.0887
  786BOLB   C1C18857  14.582  12.461  17.701 -0.4415  0.1457 -0.0484
  786BOLB   C2C18858  14.635  12.176  18.030  0.0655  0.2897 -0.0223
  786BOLB   C3C18859  14.720  11.673  18.039  0.3731  0.1578 -0.2108
  786BOLB   C4C18860  14.764  11.210  18.097 -0.1346  0.1183 -0.0745
  786BOLB   C1D18861  14.471  12.654  18.236 -0.2493  0.2358 -0.0368
  786BOLB   C2D18862  14.840  12.536  18.418  0.0333  0.0152  0.0743
  786BOLB   C3D18863  15.180  12.389  18.714 -0.1703  0.0878 -0.3550
  786BOLB   C4D18864  15.419  11.978  18.702 -0.0980 -0.0707 -0.1792
  787BOLB   NC118865  22.380   0.025  29.869  0.3645 -0.1057 -0.3701
  787BOLB   PO118866  22.427   0.423  29.849 -0.3094  0.0881  0.0762
  787BOLB   GL118867  22.882   0.463  29.962  0.2397 -0.0631 -0.2755
  787BOLB   GL218868  22.876   0.205  29.678 -0.2371 -0.0579  0.2343
  787BOLB   C1A18869  23.392   0.304  30.055  0.1906  0.1904 -0.1751
  787BOLB   C2A18870  23.639  -0.004  29.811  0.1385  0.0483  0.3426
  787BOLB   C3A18871  24.100  -0.275  29.848  0.0940  0.2011  0.1266
  787BOLB   C4A18872  24.386  -0.532  30.049 -0.0031  0.0797 -0.2820
  787BOLB   C1B18873  22.983  -0.057  30.019 -0.1839  0.0319 -0.2865
  787BOLB   C2B18874  23.320  -0.301  30.237  0.1427  0.0160  0.2089
  787BOLB   C3B18875  23.420  -0.647  30.344 -0.0115 -0.2879 -0.3600
  787BOLB   C4B18876  23.486  -0.993  30.316  0.1927  0.0205  0.1143
  787BOLB   NC218877  25.220  -1.572  31.733  0.1443  0.1213  0.0910
  787BOLB   PO218878  25.229  -2.011  31.659  0.0779  0.1078  0.0682
  787BOLB   GL318879  25.297  -1.787  31.251 -0.0956 -0.1584  0.0186
  787BOLB   GL418880  25.239  -1.956  31.050 -0.1106 -0.1906  0.2984
  787BOLB   C1C18881  25.439  -1.502  30.866  0.0087  0.0098 -0.0780
  787BOLB   C2C18882  25.173  -1.446  30.531 -0.0600 -0.0052  0.0053
  787BOLB   C3C18883  24.947  -1.181  30.106 -0.0767  0.0024  0.1729
  787BOLB   C4C18884  24.683  -0.812  30.011 -0.2549 -0.3187 -0.0856
  787BOLB   C1D18885  24.988  -1.525  30.975  0.0834 -0.2172  0.1887
  787BOLB   C2D18886  24.644  -1.338  30.762 -0.0126 -0.1762 -0.2044
  787BOLB   C3D18887  24.271  -1.113  30.619 -0.3636 -0.0763  0.0829
  787BOLB   C4D18888  23.988  -1.213  30.332 -0.0883 -0.2554 -0.0543
  788BOLB   NC118889   9.421  10.298  27.728 -0.0425 -0.1491 -0.0532
  788BOLB   PO118890   9.366   9.974  27.463  0.0394 -0.4268 -0.5049
  788BOLB   GL118891   9.105  10.251  27.366 -0.1893 -0.4404 -0.0413
  788BOLB   GL218892   9.047  10.204  27.065 -0.0794  0.1002  0.2353
  788BOLB   C1A18893   8.833  10.533  27.371  0.4307  0.1727 -0.0826
  788BOLB   C2A18894   8.360  10.702  27.224 -0.2830  0.2446 -0.1862
  788BOLB   C3A18895   8.141  11.038  27.197  0.2905 -0.3865 -0.1055
  788BOLB   C4A18896   7.985  11.419  27.444  0.0237 -0.1758 -0.1870
  788BOLB   C1B18897   8.663  10.139  27.119 -0.0622 -0.1493 -0.1550
  788BOLB   C2B18898   8.423  10.385  26.858  0.0031 -0.0266 -0.2498
  788BOLB   C3B18899   8.206  10.812  26.747 -0.2867  0.1526 -0.0325
  788BOLB   C4B18900   7.893  10.989  26.432  0.1100 -0.0815 -0.0108
  788BOLB   NC218901   6.536  13.088  28.522  0.1373  0.1747  0.0294
  788BOLB   PO218902   6.543  13.202  28.082 -0.3482 -0.0518 -0.0066
  788BOLB   GL318903   6.627  12.728  28.122 -0.1733 -0.0925  0.2585
  788BOLB   GL418904   6.703  12.591  28.502 -0.2259 -0.0498  0.1519
  788BOLB   C1C18905   6.800  12.347  28.046  0.1303 -0.0235  0.0504
  788BOLB   C2C18906   7.186  12.143  27.979  0.1620  0.1375 -0.1200
  788BOLB   C3C18907   7.550  11.802  27.979  0.0494  0.0567 -0.2822
  788BOLB   C4C18908   7.713  11.401  27.797 -0.0503  0.2738  0.0034
  788BOLB   C1D18909   7.221  12.473  28.426 -0.0007 -0.0610  0.5341
  788BOLB   C2D18910   7.690  12.293  28.279  0.0947 -0.0088  0.1190
  788BOLB   C3D18911   8.044  12.185  28.063 -0.2357  0.0350  0.2214
  788BOLB   C4D18912   8.045  11.932  27.722  0.2785 -0.2167  0.1199
  789BOLB   NC118913  20.447  10.501  28.355  0.0953 -0.1574 -0.2826
  789BOLB   PO118914  20.637  10.415  28.695 -0.4126  0.2648 -0.0760
  789BOLB   GL118915  20.837  10.721  28.752  0.1529 -0.0666 -0.0008
  789BOLB   GL218916  21.126  10.777  28.634  0.1393 -0.0839  0.1302
  789BOLB   C1A18917  21.102  10.697  29.110 -0.3209  0.2263 -0.1968
  789BOLB   C2A18918  21.375  10.881  29.322 -0.2202 -0.0961 -0.2079
  789BOLB   C3A18919  21.468  11.064  29.729 -0.0238 -0.3111 -0.0648
  789BOLB   C4A18920  21.575  11.094  30.117  0.0264 -0.0844 -0.2435
  789BOLB   C1B18921  21.433  11.103  28.639  0.2042 -0.1391  0.1212
  789BOLB   C2B18922  21.714  11.119  29.025  0.0431 -0.1088 -0.1878
  789BOLB   C3B18923  21.684  11.462  29.390 -0.3029 -0.0442 -0.0588
  789BOLB   C4B18924  21.754  11.866  29.598  0.0309 -0.3677  0.3096
  789BOLB   NC218925  23.166  12.885  31.002 -0.0538 -0.0230 -0.0110
  789BOLB   PO218926  22.906  12.530  31.212 -0.0472 -0.0003  0.2180
  789BOLB   GL318927  22.963  12.150  30.985  0.1716 -0.1717  0.3448
  789BOLB   GL418928  23.222  12.004  30.882  0.0194  0.2760 -0.0380
  789BOLB   C1C18929  22.931  11.643  31.062  0.2718  0.2553 -0.1435
  789BOLB   C2C18930  22.474  11.404  31.060 -0.0937 -0.1534 -0.1288
  789BOLB   C3C18931  22.050  11.352  30.777 -0.3329 -0.2545 -0.1615
  789BOLB   C4C18932  21.830  11.263  30.424  0.1544 -0.0887 -0.0392
  789BOLB   C1D18933  23.126  11.706  30.559  0.1693  0.0650 -0.1551
  789BOLB   C2D18934  22.976  11.299  30.389  0.1007 -0.0610  0.2428
  789BOLB   C3D18935  22.703  10.947  30.313  0.3803 -0.2444 -0.1038
  789BOLB   C4D18936  22.779  10.549  30.225 -0.1601  0.3742 -0.1696
  790BOLB   NC118937   7.784   2.451  22.088  0.2133  0.2055  0.2465
  790BOLB   PO118938   7.603   2.616  21.732  0.3885  0.0251 -0.0778
  790BOLB   GL118939   7.169   2.473  21.623 -0.0350  0.0246  0.0335
  790BOLB   GL218940   7.075   2.785  21.574  0.1059  0.1484  0.3005
  790BOLB   C1A18941   6.908   2.247  21.288  0.1095 -0.1398 -0.4181
  790BOLB   C2A18942   6.702   2.070  20.865 -0.0908  0.5214 -0.1222
  790BOLB   C3A18943   6.462   2.073  20.433  0.0966 -0.0522  0.0276
  790BOLB   C4A18944   6.216   1.899  20.143  0.0510 -0.1130  0.1191
  790BOLB   C1B18945   6.696   2.734  21.530 -0.2027  0.0864  0.1421
  790BOLB   C2B18946   6.373   2.735  21.390  0.2828 -0.1430  0.0157
  790BOLB   C3B18947   5.965   2.630  21.508  0.1419  0.5270 -0.0970
  790BOLB   C4B18948   5.711   2.554  21.823  0.2272 -0.0568 -0.1516
  790BOLB   NC218949   4.727   0.508  18.759  0.3459  0.0170  0.2640
  790BOLB   PO218950   4.904   0.811  18.237 -0.0780  0.4024 -0.3024
  790BOLB   GL318951   5.110   0.944  18.589 -0.1673  0.0359  0.2318
  790BOLB   GL418952   4.915   1.098  18.673 -0.0875 -0.2718 -0.0866
  790BOLB   C1C18953   5.517   1.145  18.858  0.0352 -0.1354  0.1452
  790BOLB   C2C18954   5.584   1.416  19.188 -0.0753  0.1217  0.1256
  790BOLB   C3C18955   5.881   1.806  19.467 -0.6969 -0.0464  0.0802
  790BOLB   C4C18956   6.191   1.809  19.789 -0.1101 -0.0950 -0.1050
  790BOLB   C1D18957   5.070   1.301  19.065  0.0569  0.3819 -0.1681
  790BOLB   C2D18958   4.965   1.596  19.421  0.1873 -0.2209  0.1723
  790BOLB   C3D18959   5.297   1.725  19.778 -0.1773 -0.2679 -0.1282
  790BOLB   C4D18960   5.639   1.868  19.862 -0.0441  0.1126 -0.1928
  791BOLB   NC118961  18.875  -9.769  17.097  0.1633  0.3232  0.0343
  791BOLB   PO118962  18.982  -9.733  17.543 -0.0184 -0.4186  0.1370
  791BOLB   GL118963  19.343  -9.491  17.519  0.1111  0.3206 -0.1941
  791BOLB   GL218964  19.423  -9.614  17.858 -0.1198  0.2509  0.1377
  791BOLB   C1A18965  19.634  -9.277  17.340 -0.1310 -0.1320 -0.0274
  791BOLB   C2A18966  19.618  -8.817  17.297 -0.0588 -0.0521  0.0887
  791BOLB   C3A18967  19.814  -8.498  17.544  0.1713  0.3940  0.0463
  791BOLB   C4A18968  20.149  -8.572  17.879  0.0600  0.0075  0.4263
  791BOLB   C1B18969  19.635  -9.256  17.908 -0.0996 -0.2917  0.4200
  791BOLB   C2B18970  19.723  -8.988  18.232  0.2274 -0.1425 -0.3249
  791BOLB   C3B18971  19.859  -8.541  18.294 -0.0045  0.1488  0.0456
  791BOLB   C4B18972  19.800  -8.248  18.668 -0.4460 -0.0859  0.0728
  791BOLB   NC218973  21.462  -8.630  19.472 -0.1675 -0.1808  0.2363
  791BOLB   PO218974  21.142  -8.803  19.533  0.2860  0.0669  0.2820
  791BOLB   GL318975  20.965  -8.567  19.221 -0.5641 -0.4963 -0.1041
  791BOLB   GL418976  21.221  -8.330  19.175  0.0448  0.3719 -0.2309
  791BOLB   C1C18977  20.708  -8.322  19.097 -0.0790 -0.1888  0.3792
  791BOLB   C2C18978  20.274  -8.195  18.797  0.0960  0.3516  0.0803
  791BOLB   C3C18979  20.225  -8.026  18.365  0.1368  0.0410 -0.0200
  791BOLB   C4C18980  20.341  -8.243  18.029 -0.4524  0.0396  0.3887
  791BOLB   C1D18981  21.153  -8.302  18.708  0.4187  0.4267 -0.2816
  791BOLB   C2D18982  21.244  -8.009  18.205  0.0203  0.3345  0.1104
  791BOLB   C3D18983  21.246  -7.668  17.826  0.1080 -0.0076  0.0542
  791BOLB   C4D18984  21.550  -7.369  17.735 -0.0548 -0.1170  0.1995
  792BOLB   NC118985  16.789  -8.994  26.484 -0.0797  0.0273 -0.0925
  792BOLB   PO118986  16.661  -8.504  26.380  0.1327 -0.0698 -0.0365
  792BOLB   GL118987  16.604  -8.122  26.206  0.0353 -0.1601 -0.0137
  792BOLB   GL218988  16.614  -7.895  26.474  0.1735 -0.1008  0.1951
  792BOLB   C1A18989  16.367  -7.726  26.014 -0.4509  0.0295 -0.3009
  792BOLB   C2A18990  16.183  -7.382  25.824 -0.1300  0.2688 -0.0248
  792BOLB   C3A18991  16.047  -7.043  25.720  0.0929  0.1329  0.0594
  792BOLB   C4A18992  15.742  -6.660  25.705 -0.2854  0.1802 -0.1134
  792BOLB   C1B18993  16.619  -7.464  26.321  0.0066  0.0436 -0.0505
  792BOLB   C2B18994  16.440  -7.108  26.230 -0.1843  0.0212 -0.1490
  792BOLB   C3B18995  16.425  -6.780  25.933 -0.2301  0.0875  0.1322
  792BOLB   C4B18996  16.198  -6.452  25.634 -0.2475  0.0288  0.1123
  792BOLB   NC218997  15.493  -4.320  24.823  0.0629  0.2544  0.2049
  792BOLB   PO218998  15.274  -4.510  25.067 -0.0390  0.1499 -0.1122
  792BOLB   GL318999  15.431  -4.703  25.325  0.3811  0.0744  0.0987
  792BOLB   GL419000  15.262  -4.709  25.663 -0.0069  0.2214  0.3072
  792BOLB   C1C19001  15.412  -5.142  25.235  0.3738 -0.1060 -0.0781
  792BOLB   C2C19002  15.353  -5.632  25.254  0.0977 -0.5809  0.2220
  792BOLB   C3C19003  15.315  -6.107  25.389  0.1199 -0.1393 -0.2072
  792BOLB   C4C19004  15.455  -6.477  25.541 -0.0431  0.3327 -0.1845
  792BOLB   C1D19005  14.975  -5.077  25.739 -0.1055  0.0319 -0.1726
  792BOLB   C2D19006  14.930  -5.312  26.067  0.1085  0.1269 -0.3892
  792BOLB   C3D19007  14.944  -5.688  26.272 -0.3493 -0.1292 -0.1379
  792BOLB   C4D19008  14.714  -6.065  26.227  0.1795  0.1176 -0.0222
  793BOLB   NC119009  21.674   1.937  31.365  0.4396 -0.2023  0.0032
  793BOLB   PO119010  21.649   2.350  31.474 -0.2244  0.0937  0.3050
  793BOLB   GL119011  21.959   2.375  31.777  0.2843 -0.0329  0.1103
  793BOLB   GL219012  22.190   2.303  31.628  0.1477 -0.1842  0.4457
  793BOLB   C1A19013  21.995   2.382  32.265  0.0096  0.3337 -0.0065
  793BOLB   C2A19014  21.964   2.101  32.566 -0.0367  0.0575  0.2729
  793BOLB   C3A19015  22.170   1.787  32.729 -0.1579  0.1155 -0.1541
  793BOLB   C4A19016  22.443   1.465  32.765 -0.0943  0.0928 -0.1072
  793BOLB   C1B19017  22.510   1.967  31.747  0.0714 -0.1000  0.3287
  793BOLB   C2B19018  22.804   1.771  31.811 -0.1082 -0.2385 -0.1566
  793BOLB   C3B19019  23.016   1.340  31.892  0.2370  0.0915 -0.2235
  793BOLB   C4B19020  23.260   0.933  32.015 -0.4701 -0.1262  0.2856
  793BOLB   NC219021  24.397  -0.295  33.749 -0.2120 -0.1201  0.0902
  793BOLB   PO219022  24.103  -0.016  33.768 -0.4529 -0.1222 -0.4619
  793BOLB   GL319023  23.908   0.341  33.766  0.1080  0.0904  0.0333
  793BOLB   GL419024  24.090   0.573  33.842  0.2750  0.2207 -0.2365
  793BOLB   C1C19025  23.487   0.424  33.455 -0.2330 -0.3213 -0.2144
  793BOLB   C2C19026  23.218   0.673  33.240 -0.1121  0.1343  0.0463
  793BOLB   C3C19027  23.011   0.855  32.948 -0.1226 -0.0047  0.1679
  793BOLB   C4C19028  22.719   1.116  32.833 -0.2549  0.0709  0.2200
  793BOLB   C1D19029  23.629   0.829  33.637 -0.2003 -0.1534  0.1268
  793BOLB   C2D19030  23.376   1.159  33.530  0.1076  0.4583 -0.3388
  793BOLB   C3D19031  23.135   1.359  33.094 -0.2081  0.0623 -0.0506
  793BOLB   C4D19032  22.938   1.601  32.810  0.2950  0.1825 -0.1365
  794BOLB   NC119033   9.359   4.595  20.578 -0.0488  0.1639  0.0346
  794BOLB   PO119034   9.252   4.858  20.214  0.2681 -0.0713 -0.1513
  794BOLB   GL119035   8.950   5.092  19.926  0.4595  0.1305 -0.4289
  794BOLB   GL219036   9.143   5.155  19.697  0.1029  0.0782  0.1604
  794BOLB   C1A19037   8.625   5.209  19.784 -0.0833 -0.3054 -0.0025
  794BOLB   C2A19038   8.289   5.147  19.513  0.2654 -0.0150 -0.0269
  794BOLB   C3A19039   7.986   4.865  19.187  0.1842 -0.0418 -0.0180
  794BOLB   C4A19040   7.683   4.532  19.012  0.1898 -0.3288  0.0563
  794BOLB   C1B19041   8.897   5.155  19.333  0.3163 -0.2429 -0.2032
  794BOLB   C2B19042   8.972   5.325  18.936  0.3359  0.1360 -0.0675
  794BOLB   C3B19043   8.760   5.374  18.544 -0.1419  0.0110  0.1392
  794BOLB   C4B19044   8.819   5.398  18.052 -0.0726  0.3816 -0.1488
  794BOLB   NC219045   5.521   5.241  17.638 -0.3333  0.1057 -0.1950
  794BOLB   PO219046   5.544   5.081  18.036 -0.0050  0.1767 -0.2572
  794BOLB   GL319047   5.901   4.819  18.275  0.1535 -0.2924  0.2253
  794BOLB   GL419048   5.898   4.406  18.178 -0.4056 -0.0125 -0.2246
  794BOLB   C1C19049   6.275   4.690  18.466 -0.3185 -0.1289  0.2835
  794BOLB   C2C19050   6.441   4.538  18.749 -0.1600 -0.0593 -0.0247
  794BOLB   C3C19051   6.859   4.544  18.718 -0.2178 -0.0417 -0.4725
  794BOLB   C4C19052   7.276   4.409  18.821  0.0770  0.0592  0.2752
  794BOLB   C1D19053   5.972   4.221  18.587  0.0300 -0.1362 -0.2789
  794BOLB   C2D19054   5.728   4.138  18.945 -0.0466 -0.0163  0.0496
  794BOLB   C3D19055   5.371   3.981  19.104  0.3032 -0.1130 -0.3023
  794BOLB   C4D19056   4.942   3.804  19.173  0.1734  0.2441 -0.5936
  795BOLB   NC119057  19.919  -8.400  20.179 -0.1740  0.1626  0.3464
  795BOLB   PO119058  19.849  -8.583  19.758 -0.1945  0.1335 -0.3842
  795BOLB   GL119059  19.580  -8.196  19.576 -0.0155  0.2111 -0.0098
  795BOLB   GL219060  19.145  -8.164  19.579  0.2384 -0.0927  0.0154
  795BOLB   C1A19061  19.439  -7.839  19.366 -0.1265 -0.1658 -0.1348
  795BOLB   C2A19062  19.374  -7.514  19.331  0.2137 -0.2300 -0.1888
  795BOLB   C3A19063  19.326  -7.043  19.482  0.0056  0.2109 -0.0215
  795BOLB   C4A19064  19.437  -6.607  19.314  0.4784  0.1851 -0.2620
  795BOLB   C1B19065  18.889  -7.882  19.445  0.3701 -0.1837  0.0092
  795BOLB   C2B19066  18.826  -7.474  19.346  0.0111  0.2258 -0.0794
  795BOLB   C3B19067  19.094  -7.268  18.970  0.0164 -0.0481 -0.2991
  795BOLB   C4B19068  19.507  -7.031  19.001  0.1369 -0.0971  0.3181
  795BOLB   NC219069  21.647  -7.722  20.348  0.0438  0.3934  0.0515
  795BOLB   PO219070  21.287  -7.800  20.370 -0.1350 -0.0611 -0.0446
  795BOLB   GL319071  21.000  -7.584  20.105 -0.0978 -0.0364 -0.0315
  795BOLB   GL419072  20.705  -7.694  19.940 -0.0313  0.0029  0.1002
  795BOLB   C1C19073  20.834  -7.211  19.933 -0.2045  0.1219  0.1711
  795BOLB   C2C19074  20.471  -7.082  19.836 -0.0336  0.1722 -0.1038
  795BOLB   C3C19075  20.210  -6.760  19.620 -0.2467  0.0164 -0.1441
  795BOLB   C4C19076  19.897  -6.449  19.453  0.0669 -0.0039 -0.1076
  795BOLB   C1D19077  20.637  -7.526  19.554  0.1449 -0.0113  0.1856
  795BOLB   C2D19078  20.923  -7.278  19.331 -0.2140 -0.2669  0.2009
  795BOLB   C3D19079  21.003  -6.842  19.004  0.1428 -0.2421  0.1534
  795BOLB   C4D19080  20.752  -6.422  18.789 -0.1524 -0.0329  0.1098
  796BOLB   NC119081  11.774  11.167  25.116 -0.0477  0.2710 -0.0428
  796BOLB   PO119082  11.313  11.439  25.146 -0.0893 -0.2074  0.0271
  796BOLB   GL119083  11.121  11.850  25.288 -0.1807  0.0020  0.0385
  796BOLB   GL219084  11.176  12.025  25.717 -0.1490  0.1626 -0.2933
  796BOLB   C1A19085  10.960  12.184  25.125  0.0299 -0.0983  0.1890
  796BOLB   C2A19086  10.726  12.531  25.006  0.0178 -0.5084 -0.2330
  796BOLB   C3A19087  10.765  12.943  24.781 -0.1866  0.2304  0.0744
  796BOLB   C4A19088  10.781  13.199  24.383  0.0117 -0.3044  0.2903
  796BOLB   C1B19089  11.006  12.379  25.551 -0.0876 -0.2672 -0.3907
  796BOLB   C2B19090  10.920  12.781  25.463 -0.1473 -0.1241  0.1435
  796BOLB   C3B19091  10.844  13.299  25.532 -0.1399  0.0963 -0.0533
  796BOLB   C4B19092  10.747  13.688  25.339  0.0059  0.0307 -0.1979
  796BOLB   NC219093   8.885  14.708  22.977  0.5734  0.3376  0.0484
  796BOLB   PO219094   9.209  14.622  23.173 -0.2829 -0.3832  0.0310
  796BOLB   GL319095   9.620  14.372  23.145  0.1062 -0.0399 -0.1528
  796BOLB   GL419096   9.449  14.198  23.309  0.2410 -0.0920  0.0509
  796BOLB   C1C19097  10.051  14.333  23.441 -0.0378  0.0035  0.3755
  796BOLB   C2C19098  10.193  14.052  23.791  0.1133  0.0410 -0.0890
  796BOLB   C3C19099  10.528  13.871  24.010 -0.3130  0.1510 -0.1667
  796BOLB   C4C19100  10.784  13.639  24.270  0.1630 -0.2619  0.0242
  796BOLB   C1D19101   9.743  13.948  23.481 -0.2078  0.4086  0.0285
  796BOLB   C2D19102   9.976  13.656  23.628  0.0764  0.0307 -0.1347
  796BOLB   C3D19103  10.425  13.478  23.547  0.2073  0.0709  0.0754
  796BOLB   C4D19104  10.681  13.293  23.840  0.0340  0.0582 -0.4707
  797BOLB   NC119105  23.559   0.431  21.124 -0.3200  0.0909 -0.1379
  797BOLB   PO119106  23.664   0.424  21.577 -0.1780 -0.1622  0.0131
  797BOLB   GL119107  24.010   0.316  21.378  0.2226  0.0913  0.1646
  797BOLB   GL219108  24.025   0.474  21.081  0.1999 -0.0185 -0.2161
  797BOLB   C1A19109  24.488   0.234  21.483 -0.2016  0.1013 -0.1570
  797BOLB   C2A19110  24.977   0.069  21.463 -0.2392  0.1200  0.1088
  797BOLB   C3A19111  25.297  -0.312  21.572  0.0963 -0.0563 -0.0125
  797BOLB   C4A19112  25.457  -0.730  21.603 -0.1657 -0.1856 -0.3503
  797BOLB   C1B19113  24.406   0.352  21.024  0.3839  0.0153  0.1687
  797BOLB   C2B19114  24.717   0.294  20.707 -0.0341  0.0201  0.0672
  797BOLB   C3B19115  25.013   0.088  20.509  0.1272 -0.0513  0.3736
  797BOLB   C4B19116  25.031  -0.328  20.626  0.1748  0.3516  0.0940
  797BOLB   NC219117  27.323  -2.212  21.992 -0.3096 -0.3657 -0.2040
  797BOLB   PO219118  26.979  -2.201  21.741  0.0463  0.1065  0.1024
  797BOLB   GL319119  26.712  -2.059  22.076 -0.1207 -0.2176 -0.2740
  797BOLB   GL419120  26.860  -2.228  22.352  0.1492  0.2981 -0.0136
  797BOLB   C1C19121  26.278  -2.057  22.208 -0.0561  0.2283  0.3392
  797BOLB   C2C19122  25.905  -1.812  21.968  0.2767 -0.1077  0.3306
  797BOLB   C3C19123  25.812  -1.411  22.029 -0.2913 -0.3601 -0.1742
  797BOLB   C4C19124  25.653  -1.030  22.002  0.5985  0.0225 -0.2094
  797BOLB   C1D19125  26.745  -1.899  22.552  0.0881 -0.1405 -0.0476
  797BOLB   C2D19126  26.765  -1.540  22.763  0.1344 -0.0941 -0.0869
  797BOLB   C3D19127  26.549  -1.113  22.640  0.0209 -0.2308  0.1518
  797BOLB   C4D19128  26.586  -0.938  22.287  0.2830  0.0845 -0.0693
  798BOLB   NC119129  13.896  -3.461  26.969  0.2997 -0.2054  0.1808
  798BOLB   PO119130  13.636  -3.468  27.328  0.0352  0.1936 -0.0182
  798BOLB   GL119131  13.616  -3.765  27.553  0.0267  0.0724  0.1514
  798BOLB   GL219132  13.477  -3.706  27.832  0.3041  0.3244  0.0882
  798BOLB   C1A19133  13.648  -4.182  27.612 -0.1098  0.0104 -0.0275
  798BOLB   C2A19134  13.565  -4.612  27.700 -0.1242  0.2825  0.2774
  798BOLB   C3A19135  13.505  -4.878  28.084  0.2067  0.2751 -0.0121
  798BOLB   C4A19136  13.171  -4.788  28.363 -0.1090  0.2058 -0.3741
  798BOLB   C1B19137  13.649  -4.045  28.163 -0.1403 -0.0583 -0.4804
  798BOLB   C2B19138  13.550  -4.343  28.321 -0.1992 -0.0006  0.0438
  798BOLB   C3B19139  13.201  -4.440  28.043 -0.5507 -0.2475  0.2910
  798BOLB   C4B19140  13.126  -4.153  27.787  0.1337  0.1055  0.2554
  798BOLB   NC219141  12.994  -6.755  29.835 -0.2641  0.1787 -0.2611
  798BOLB   PO219142  13.435  -6.668  30.016  0.0959  0.0319  0.3210
  798BOLB   GL319143  13.130  -6.234  29.855 -0.0405 -0.1658 -0.1161
  798BOLB   GL419144  12.818  -6.181  29.925  0.0007 -0.1431  0.4039
  798BOLB   C1C19145  13.049  -5.833  29.701 -0.0277  0.0082  0.0054
  798BOLB   C2C19146  13.154  -5.564  29.421 -0.1934 -0.1214 -0.0175
  798BOLB   C3C19147  13.105  -5.442  29.037 -0.3117  0.0641 -0.2017
  798BOLB   C4C19148  13.121  -4.951  28.822  0.2042 -0.2155 -0.0093
  798BOLB   C1D19149  12.630  -5.953  29.498  0.0718  0.0179 -0.3472
  798BOLB   C2D19150  12.416  -5.631  29.275 -0.1697  0.0089 -0.0316
  798BOLB   C3D19151  12.344  -5.152  29.360 -0.1282 -0.0004  0.0685
  798BOLB   C4D19152  12.383  -4.657  29.413 -0.1070  0.1663  0.0459
  799BOLB   NC119153  21.694   9.160  22.330  0.1840  0.3321 -0.1200
  799BOLB   PO119154  22.047   9.003  22.204 -0.0935 -0.3236 -0.0314
  799BOLB   GL119155  22.277   9.302  22.344  0.3668 -0.3494  0.0998
  799BOLB   GL219156  22.055   9.553  22.543 -0.1803 -0.1511 -0.0359
  799BOLB   C1A19157  22.552   9.539  22.047 -0.0962 -0.1920  0.0266
  799BOLB   C2A19158  22.794   9.736  21.876  0.5211  0.1135  0.0038
  799BOLB   C3A19159  23.125   9.897  21.748 -0.2534 -0.4737  0.1190
  799BOLB   C4A19160  23.454  10.154  21.639  0.4232  0.0102 -0.0234
  799BOLB   C1B19161  22.068   9.799  22.202  0.3425 -0.1221  0.2687
  799BOLB   C2B19162  22.156  10.285  21.955  0.0715  0.0426  0.0020
  799BOLB   C3B19163  22.113  10.563  21.689  0.3168  0.0597 -0.1684
  799BOLB   C4B19164  22.167  10.978  21.728 -0.2046 -0.0821 -0.0592
  799BOLB   NC219165  25.796  11.700  20.795 -0.1178  0.0021 -0.2355
  799BOLB   PO219166  25.517  11.296  20.637  0.2408 -0.2616 -0.0957
  799BOLB   GL319167  25.116  11.078  20.682 -0.3847 -0.1939 -0.0952
  799BOLB   GL419168  25.167  10.961  21.024  0.1162 -0.3678 -0.0611
  799BOLB   C1C19169  24.892  10.706  20.685 -0.1833 -0.0273  0.0931
  799BOLB   C2C19170  24.498  10.414  20.925 -0.3002  0.2129  0.1150
  799BOLB   C3C19171  24.256  10.125  21.146 -0.3705 -0.0130 -0.0405
  799BOLB   C4C19172  23.826  10.214  21.399 -0.2153 -0.3102  0.0755
  799BOLB   C1D19173  24.939  10.563  21.231  0.1888  0.1843  0.2107
  799BOLB   C2D19174  24.728  10.236  21.386 -0.0099  0.0251  0.0856
  799BOLB   C3D19175  24.654   9.895  21.786 -0.0071 -0.0408 -0.1096
  799BOLB   C4D19176  24.376  10.045  22.131  0.1369  0.0692  0.0720
  800BOLB   NC119177  12.241  11.794  16.995 -0.2114  0.3023  0.1146
  800BOLB   PO119178  12.509  12.072  17.318  0.0665 -0.2015 -0.0232
  800BOLB   GL119179  12.529  11.694  17.454 -0.0171  0.0798  0.1358
  800BOLB   GL219180  12.795  11.583  17.313 -0.1155 -0.1242  0.3781
  800BOLB   C1A19181  12.464  11.651  17.958  0.3131  0.0240  0.0100
  800BOLB   C2A19182  12.445  11.370  18.295  0.1731  0.0732  0.3973
  800BOLB   C3A19183  12.698  10.981  18.472  0.1010 -0.0179 -0.6520
  800BOLB   C4A19184  13.077  11.098  18.610 -0.3506  0.0422 -0.0406
  800BOLB   C1B19185  12.915  11.635  17.740  0.1785  0.1203 -0.2427
  800BOLB   C2B19186  13.031  11.397  18.173 -0.0422 -0.1344  0.1371
  800BOLB   C3B19187  13.464  11.325  18.294 -0.1390  0.1309  0.1504
  800BOLB   C4B19188  13.573  11.063  18.633  0.0643  0.0430  0.1368
  800BOLB   NC219189  13.303  13.303  17.742 -0.3871  0.3179 -0.1542
  800BOLB   PO219190  12.904  13.229  17.974 -0.1288 -0.0788 -0.2913
  800BOLB   GL319191  12.816  12.896  18.304 -0.5457  0.0977  0.1481
  800BOLB   GL419192  12.657  12.608  18.170  0.0593  0.2608  0.1165
  800BOLB   C1C19193  12.994  12.462  18.610 -0.1466 -0.2230  0.0518
  800BOLB   C2C19194  13.056  12.088  18.905  0.3565  0.4509  0.2326
  800BOLB   C3C19195  13.256  11.710  19.008  0.2724 -0.1018  0.1469
  800BOLB   C4C19196  13.306  11.354  18.964  0.1426 -0.0094 -0.4743
  800BOLB   C1D19197  12.561  12.281  18.437  0.4863  0.2236 -0.4514
  800BOLB   C2D19198  12.423  11.882  18.487  0.1333 -0.2996  0.2050
  800BOLB   C3D19199  12.270  11.429  18.780  0.0309  0.3486  0.1114
  800BOLB   C4D19200  12.387  11.021  18.891 -0.0861  0.0183  0.0107
  801BOLB   NC119201   6.711   0.683  34.190 -0.2413 -0.0239 -0.1438
  801BOLB   PO119202   7.014   0.909  33.989  0.0753 -0.0096 -0.0820
  801BOLB   GL119203   7.062   1.253  33.703 -0.2462 -0.1513 -0.1200
  801BOLB   GL219204   7.313   1.341  33.961  0.2537  0.0685  0.1151
  801BOLB   C1A19205   7.164   1.467  33.309 -0.1825 -0.1576  0.0562
  801BOLB   C2A19206   7.082   1.443  32.839  0.1338 -0.0473  0.1784
  801BOLB   C3A19207   7.240   1.349  32.408 -0.1269  0.3325 -0.0692
  801BOLB   C4A19208   7.241   1.080  31.987 -0.0476  0.1526 -0.1597
  801BOLB   C1B19209   7.605   1.381  33.574 -0.0695 -0.0406  0.0547
  801BOLB   C2B19210   7.678   1.418  33.172 -0.0806  0.1913 -0.0841
  801BOLB   C3B19211   7.606   1.552  32.705  0.3209 -0.0045  0.3357
  801BOLB   C4B19212   7.584   1.788  32.374 -0.2030 -0.1530 -0.0930
  801BOLB   NC219213   6.630   0.073  33.391 -0.4861  0.3311  0.0732
  801BOLB   PO219214   6.890  -0.152  33.188  0.0373 -0.0400  0.0292
  801BOLB   GL319215   7.082   0.097  32.936  0.4336  0.1756 -0.0928
  801BOLB   GL419216   7.343  -0.046  32.823 -0.1688 -0.1643  0.1461
  801BOLB   C1C19217   7.039   0.300  32.551 -0.0099 -0.0071 -0.0626
  801BOLB   C2C19218   7.331   0.363  32.308  0.3451  0.2026 -0.4225
  801BOLB   C3C19219   7.429   0.497  31.973  0.1380 -0.2124  0.1369
  801BOLB   C4C19220   7.599   0.856  31.798 -0.0358  0.2075 -0.0815
  801BOLB   C1D19221   7.653  -0.153  32.626  0.1530  0.2606 -0.0290
  801BOLB   C2D19222   8.071  -0.357  32.552  0.1330 -0.0245 -0.1283
  801BOLB   C3D19223   8.138  -0.698  32.704 -0.1090  0.4106  0.0476
  801BOLB   C4D19224   8.197  -1.115  32.657  0.0530  0.0902  0.1865
  802BOLB   NC119225   8.343   7.004  16.099  0.1348  0.4249 -0.1045
  802BOLB   PO119226   8.689   7.181  16.228 -0.2333 -0.0961 -0.1208
  802BOLB   GL119227   8.792   6.858  16.438  0.0743  0.0839 -0.2131
  802BOLB   GL219228   8.574   6.732  16.555  0.0292  0.2306  0.0074
  802BOLB   C1A19229   9.077   6.968  16.826 -0.1474  0.0825 -0.0611
  802BOLB   C2A19230   9.381   6.935  17.129  0.0277 -0.1866  0.2258
  802BOLB   C3A19231   9.631   6.540  17.256  0.0986 -0.2070 -0.0280
  802BOLB   C4A19232   9.595   6.128  17.182 -0.2633  0.1875 -0.1108
  802BOLB   C1B19233   8.658   6.745  16.955  0.2505  0.3044  0.1625
  802BOLB   C2B19234   8.905   6.834  17.316  0.0456  0.1818  0.0642
  802BOLB   C3B19235   8.799   7.075  17.670 -0.2109  0.0464 -0.0657
  802BOLB   C4B19236   9.045   6.964  18.019  0.2126 -0.1471  0.0157
  802BOLB   NC219237   7.833   5.182  15.931  0.0913  0.2645  0.0990
  802BOLB   PO219238   7.939   5.521  15.971  0.4523 -0.1901 -0.0732
  802BOLB   GL319239   7.892   5.249  16.409  0.2109  0.0292  0.2456
  802BOLB   GL419240   8.149   5.015  16.350  0.2426 -0.0066 -0.3640
  802BOLB   C1C19241   8.164   5.226  16.817 -0.0690  0.3052  0.0390
  802BOLB   C2C19242   8.562   5.213  16.909  0.1509 -0.2073  0.2263
  802BOLB   C3C19243   8.790   5.605  17.058 -0.2732  0.1525  0.4396
  802BOLB   C4C19244   9.179   5.823  17.143  0.0757  0.1200  0.1614
  802BOLB   C1D19245   8.301   5.510  16.494  0.0695 -0.3121  0.1768
  802BOLB   C2D19246   8.717   5.716  16.592  0.3055  0.0762  0.0894
  802BOLB   C3D19247   9.096   5.912  16.671 -0.3398 -0.3954  0.1848
  802BOLB   C4D19248   9.240   6.331  16.801 -0.3070 -0.2477  0.4399
  803BOLB   NC119249  15.993   1.684  16.135  0.0752  0.1836 -0.3633
  803BOLB   PO119250  15.750   1.852  15.806  0.2424  0.0136 -0.0170
  803BOLB   GL119251  15.841   1.994  15.377 -0.0634  0.0710 -0.0576
  803BOLB   GL219252  16.098   2.107  15.382 -0.0921  0.1451  0.5086
  803BOLB   C1A19253  15.794   1.819  15.123 -0.1113  0.0139  0.0679
  803BOLB   C2A19254  15.709   1.834  14.679  0.1255  0.0157  0.1236
  803BOLB   C3A19255  15.397   1.763  14.379  0.0347 -0.0415  0.1905
  803BOLB   C4A19256  15.069   1.610  14.335 -0.1480 -0.3959  0.3288
  803BOLB   C1B19257  16.118   2.108  14.939  0.4093  0.0014  0.1132
  803BOLB   C2B19258  16.180   2.109  14.545 -0.0067 -0.0796  0.2890
  803BOLB   C3B19259  15.788   2.096  14.138  0.0278 -0.1594 -0.2389
  803BOLB   C4B19260  15.579   2.253  13.704  0.0432  0.2413  0.0606
  803BOLB   NC219261  13.932   0.604  12.893  0.0249 -0.1260  0.0939
  803BOLB   PO219262  13.979   0.230  12.855 -0.1651 -0.1382  0.0039
  803BOLB   GL319263  14.033   0.201  13.281 -0.1363 -0.1909  0.0331
  803BOLB   GL419264  13.813   0.380  13.533 -0.1026  0.1822 -0.0163
  803BOLB   C1C19265  14.361   0.241  13.542 -0.1446 -0.0676  0.1838
  803BOLB   C2C19266  14.486   0.557  13.842 -0.0147  0.1151 -0.0258
  803BOLB   C3C19267  14.593   0.967  14.025 -0.0548  0.1957  0.1221
  803BOLB   C4C19268  14.881   1.237  14.244 -0.0398  0.1249 -0.2912
  803BOLB   C1D19269  14.042   0.294  13.916  0.1703  0.1506 -0.0836
  803BOLB   C2D19270  14.238   0.458  14.260 -0.0289 -0.0980 -0.1243
  803BOLB   C3D19271  14.428   0.730  14.419  0.1364 -0.2557  0.1055
  803BOLB   C4D19272  14.379   1.093  14.717  0.2837 -0.2117  0.3838
  804BOLB   NC119273   7.550   6.073  24.222  0.1567 -0.0414 -0.2459
  804BOLB   PO119274   7.787   6.257  23.916  0.1992  0.0493 -0.2062
  804BOLB   GL119275   7.311   6.348  23.894 -0.0028 -0.1461 -0.2698
  804BOLB   GL219276   7.259   6.695  23.978  0.2160 -0.1244  0.3654
  804BOLB   C1A19277   6.979   6.415  23.572 -0.1893 -0.2012  0.0316
  804BOLB   C2A19278   6.661   6.585  23.361 -0.0362 -0.1698  0.1701
  804BOLB   C3A19279   6.350   6.689  23.005  0.1962  0.2020 -0.1192
  804BOLB   C4A19280   5.982   6.719  22.716  0.0465 -0.3502 -0.0216
  804BOLB   C1B19281   6.927   6.878  23.813  0.0685  0.0780  0.0940
  804BOLB   C2B19282   6.558   6.963  23.678  0.1699  0.0455  0.0625
  804BOLB   C3B19283   6.341   7.207  23.436  0.2317  0.0446 -0.4009
  804BOLB   C4B19284   5.963   7.436  23.365 -0.2830  0.1635  0.1222
  804BOLB   NC219285   4.369   7.510  21.144  0.2633 -0.1265  0.1295
  804BOLB   PO219286   4.469   7.109  21.438  0.2110  0.2520  0.0487
  804BOLB   GL319287   4.796   7.072  21.750  0.0399 -0.0291  0.2659
  804BOLB   GL419288   4.897   7.238  21.959  0.3331 -0.2881 -0.2134
  804BOLB   C1C19289   5.060   6.706  21.705  0.2300  0.0156 -0.0266
  804BOLB   C2C19290   5.334   6.465  21.801 -0.0894  0.3729 -0.1854
  804BOLB   C3C19291   5.581   6.247  22.101 -0.3964 -0.0315  0.1284
  804BOLB   C4C19292   5.715   6.368  22.503  0.0345  0.2245  0.0575
  804BOLB   C1D19293   5.319   7.170  21.878 -0.0410  0.0150  0.3350
  804BOLB   C2D19294   5.597   7.331  21.597  0.2249 -0.1165 -0.0048
  804BOLB   C3D19295   5.908   7.245  21.405 -0.0195  0.0211 -0.0721
  804BOLB   C4D19296   6.393   7.164  21.327 -0.0643 -0.3104  0.3311
  805BOLB   NC119297  20.908  -2.756  22.843  0.0469  0.1535  0.0255
  805BOLB   PO119298  20.958  -2.704  23.345 -0.0971 -0.0463  0.0105
  805BOLB   GL119299  21.162  -3.105  23.446  0.1596  0.1443  0.1109
  805BOLB   GL219300  21.150  -3.086  23.708 -0.1560 -0.2218 -0.1932
  805BOLB   C1A19301  21.378  -3.499  23.218 -0.0335 -0.2064  0.1542
  805BOLB   C2A19302  21.662  -3.785  22.898 -0.3709 -0.1186  0.1345
  805BOLB   C3A19303  22.079  -4.084  22.719 -0.0923  0.1044 -0.2563
  805BOLB   C4A19304  22.471  -3.910  22.698 -0.2323 -0.2363 -0.1466
  805BOLB   C1B19305  21.520  -3.359  23.636  0.0219  0.0095 -0.2901
  805BOLB   C2B19306  21.848  -3.640  23.683 -0.0503 -0.0535 -0.2115
  805BOLB   C3B19307  22.197  -3.703  23.911 -0.1661  0.2430 -0.2636
  805BOLB   C4B19308  22.614  -4.043  23.844  0.2180  0.0051 -0.0256
  805BOLB   NC219309  24.853  -5.577  23.112  0.0814  0.1892  0.1696
  805BOLB   PO219310  24.699  -5.195  22.773 -0.1776  0.0590  0.0465
  805BOLB   GL319311  24.370  -4.976  22.616 -0.1291 -0.2184 -0.3341
  805BOLB   GL419312  24.207  -5.008  22.958  0.2732 -0.1945 -0.1023
  805BOLB   C1C19313  23.986  -4.712  22.521 -0.0592  0.0560  0.0560
  805BOLB   C2C19314  23.667  -4.308  22.435 -0.2157 -0.0715  0.4093
  805BOLB   C3C19315  23.285  -4.045  22.607  0.0002 -0.0214  0.2806
  805BOLB   C4C19316  22.818  -3.952  22.585  0.1072 -0.0104  0.2177
  805BOLB   C1D19317  24.073  -4.694  23.238  0.1890  0.2517 -0.0570
  805BOLB   C2D19318  23.783  -4.493  23.384  0.1540  0.3160 -0.0950
  805BOLB   C3D19319  23.285  -4.465  23.469 -0.1778 -0.4153  0.3607
  805BOLB   C4D19320  22.839  -4.288  23.443  0.0058 -0.1269  0.0212
  806BOLB   NC119321  12.471  -1.455  17.803 -0.0665  0.0906 -0.3514
  806BOLB   PO119322  12.194  -1.051  17.905 -0.2088 -0.0333 -0.0648
  806BOLB   GL119323  11.975  -1.342  17.721 -0.2475  0.0918 -0.1601
  806BOLB   GL219324  12.172  -1.667  17.532  0.0022 -0.0995 -0.2185
  806BOLB   C1A19325  11.649  -1.686  17.699 -0.0644 -0.0177 -0.0170
  806BOLB   C2A19326  11.344  -1.904  17.670  0.1087 -0.1245 -0.3102
  806BOLB   C3A19327  11.001  -2.137  17.521  0.1824  0.0913  0.3280
  806BOLB   C4A19328  10.566  -2.388  17.307 -0.1343 -0.1815 -0.2857
  806BOLB   C1B19329  12.311  -2.009  17.178  0.3199 -0.1632 -0.0182
  806BOLB   C2B19330  12.210  -2.450  17.043  0.0174  0.1931 -0.0284
  806BOLB   C3B19331  12.092  -2.828  16.891 -0.1392  0.1422 -0.2461
  806BOLB   C4B19332  12.067  -3.066  16.461  0.1523  0.0112 -0.1438
  806BOLB   NC219333   9.409  -2.912  15.776  0.2498 -0.0928  0.1147
  806BOLB   PO219334   8.868  -3.026  15.672 -0.1609  0.2588 -0.1320
  806BOLB   GL319335   8.980  -2.662  16.004  0.1688 -0.3613 -0.0802
  806BOLB   GL419336   9.049  -2.365  15.920  0.1588 -0.3659  0.1059
  806BOLB   C1C19337   9.259  -2.553  16.338 -0.1927  0.2653 -0.0634
  806BOLB   C2C19338   9.450  -2.484  16.751  0.0442  0.0950 -0.0369
  806BOLB   C3C19339   9.799  -2.522  16.936  0.1078  0.1626 -0.0443
  806BOLB   C4C19340  10.219  -2.405  16.967 -0.2728 -0.0084  0.3930
  806BOLB   C1D19341   9.243  -1.999  15.966 -0.0284  0.2602 -0.1281
  806BOLB   C2D19342   9.427  -1.816  16.229 -0.0744 -0.3641 -0.0083
  806BOLB   C3D19343   9.533  -1.850  16.685  0.0039  0.1333  0.1211
  806BOLB   C4D19344   9.671  -1.836  16.986 -0.1842 -0.1305 -0.2320
  807BOLB   NC119345  22.208   4.809  31.819  0.4148 -0.0026  0.1933
  807BOLB   PO119346  21.887   4.575  32.026  0.2775 -0.2471  0.0524
  807BOLB   GL119347  22.172   4.343  32.208 -0.0072  0.0622  0.2169
  807BOLB   GL219348  22.041   4.283  32.423  0.2025 -0.2424 -0.0351
  807BOLB   C1A19349  22.554   4.346  32.548 -0.2333 -0.1336 -0.0764
  807BOLB   C2A19350  22.599   4.512  32.890  0.1149  0.2168 -0.1347
  807BOLB   C3A19351  22.921   4.737  33.289  0.0732  0.1434 -0.0044
  807BOLB   C4A19352  23.111   5.052  33.395  0.3377  0.2757 -0.0639
  807BOLB   C1B19353  22.092   4.345  32.725 -0.1297 -0.0264  0.1540
  807BOLB   C2B19354  22.218   4.356  33.187  0.1799 -0.1589  0.1499
  807BOLB   C3B19355  22.385   4.704  33.358 -0.0254  0.1556  0.5147
  807BOLB   C4B19356  22.612   4.660  33.642  0.3296 -0.0416 -0.0303
  807BOLB   NC219357  24.402   5.956  35.100  0.1443 -0.1055  0.1856
  807BOLB   PO219358  24.599   6.008  34.762  0.2097 -0.2492 -0.1884
  807BOLB   GL319359  24.557   5.964  34.331 -0.2757 -0.0941 -0.1432
  807BOLB   GL419360  24.847   6.208  34.167  0.2312 -0.1791 -0.4484
  807BOLB   C1C19361  24.427   5.736  33.938  0.0123 -0.0949 -0.0758
  807BOLB   C2C19362  24.152   5.658  33.642  0.0059 -0.3309  0.2115
  807BOLB   C3C19363  23.814   5.330  33.552  0.1591 -0.2593  0.1492
  807BOLB   C4C19364  23.392   5.277  33.618  0.3256 -0.0378 -0.0210
  807BOLB   C1D19365  24.519   6.234  33.802  0.1168 -0.2517 -0.0363
  807BOLB   C2D19366  24.329   6.076  33.383  0.0723  0.2649 -0.0120
  807BOLB   C3D19367  24.127   5.785  33.021  0.1846 -0.1144  0.1924
  807BOLB   C4D19368  23.929   5.609  32.885  0.1242 -0.1757 -0.1876
  808BOLB   NC119369   8.468   2.167  28.394  0.0825  0.0709 -0.0829
  808BOLB   PO119370   8.113   2.069  28.710  0.1106 -0.0588  0.1328
  808BOLB   GL119371   7.729   1.982  28.924  0.1327  0.3482  0.2450
  808BOLB   GL219372   7.521   1.748  28.678 -0.1552 -0.2396 -0.0814
  808BOLB   C1A19373   7.453   1.750  29.195 -0.0850  0.1218  0.2459
  808BOLB   C2A19374   6.981   1.525  29.332  0.0505  0.0534 -0.0556
  808BOLB   C3A19375   6.713   1.367  29.678 -0.4080  0.1560  0.0809
  808BOLB   C4A19376   6.649   1.483  30.201 -0.0099 -0.0545 -0.1382
  808BOLB   C1B19377   7.208   1.567  28.709 -0.5337  0.0896 -0.2481
  808BOLB   C2B19378   7.044   1.231  28.844  0.1786 -0.2510 -0.2271
  808BOLB   C3B19379   7.270   0.871  28.732 -0.0749 -0.0527 -0.0396
  808BOLB   C4B19380   7.565   0.675  28.562 -0.1798 -0.1373  0.0916
  808BOLB   NC219381   5.438   1.834  32.171 -0.3062 -0.3829  0.2351
  808BOLB   PO219382   5.760   1.954  32.557  0.1931  0.0734  0.1255
  808BOLB   GL319383   5.964   1.880  32.135  0.0184  0.1993  0.2551
  808BOLB   GL419384   5.843   1.643  31.901 -0.2460  0.2654  0.2004
  808BOLB   C1C19385   6.264   1.770  31.776 -0.3772 -0.0520 -0.0073
  808BOLB   C2C19386   6.351   1.970  31.343 -0.0547  0.1471  0.0705
  808BOLB   C3C19387   6.371   1.916  30.892  0.0571  0.0663 -0.1984
  808BOLB   C4C19388   6.450   1.636  30.521 -0.0527 -0.0960  0.1133
  808BOLB   C1D19389   5.901   1.782  31.455  0.0145 -0.1701 -0.1210
  808BOLB   C2D19390   6.056   1.600  31.080 -0.1444 -0.1227 -0.3684
  808BOLB   C3D19391   6.376   1.433  30.976  0.2615 -0.0942  0.0195
  808BOLB   C4D19392   6.824   1.606  30.854 -0.3008  0.1117 -0.1610
  809BOLB   NC119393   7.894  -0.252  24.429  0.1508  0.3816 -0.1408
  809BOLB   PO119394   7.974   0.101  24.320 -0.1221  0.3872  0.1038
  809BOLB   GL119395   7.471   0.014  24.418 -0.1337  0.3072  0.3804
  809BOLB   GL219396   7.333  -0.203  24.128  0.0483 -0.2230 -0.1816
  809BOLB   C1A19397   6.983  -0.154  24.619  0.1421  0.0436 -0.2683
  809BOLB   C2A19398   6.655  -0.287  24.914 -0.5350  0.0851 -0.0151
  809BOLB   C3A19399   6.473  -0.603  25.105  0.1075  0.2315 -0.1471
  809BOLB   C4A19400   6.313  -1.098  25.030  0.1899 -0.2624  0.0716
  809BOLB   C1B19401   6.928  -0.345  23.920 -0.2206 -0.1291 -0.1408
  809BOLB   C2B19402   6.502  -0.528  23.643  0.0408 -0.2598  0.0760
  809BOLB   C3B19403   6.076  -0.500  23.707  0.3109 -0.1408 -0.2473
  809BOLB   C4B19404   5.851  -0.670  24.021  0.2772 -0.2136 -0.1606
  809BOLB   NC219405   4.292  -2.659  25.742  0.0702  0.0069 -0.0665
  809BOLB   PO219406   4.633  -2.814  25.460  0.1611 -0.1164  0.0268
  809BOLB   GL319407   5.073  -2.734  25.223  0.1084 -0.0263  0.1196
  809BOLB   GL419408   5.242  -2.580  25.533 -0.2943 -0.2890 -0.1535
  809BOLB   C1C19409   5.317  -2.538  24.975 -0.3028 -0.0435  0.0444
  809BOLB   C2C19410   5.407  -2.089  24.891 -0.1664 -0.2703 -0.0166
  809BOLB   C3C19411   5.764  -1.782  24.904  0.3326  0.0960  0.3188
  809BOLB   C4C19412   6.146  -1.516  25.065 -0.1188 -0.1472  0.0325
  809BOLB   C1D19413   5.611  -2.536  25.565  0.1053 -0.0069  0.1822
  809BOLB   C2D19414   6.045  -2.317  25.764  0.0602  0.0461  0.0319
  809BOLB   C3D19415   6.270  -1.949  25.771 -0.0944  0.3390  0.0748
  809BOLB   C4D19416   6.196  -1.569  25.939  0.0527  0.1577 -0.3581
  810BOLB   NC119417  21.860   8.387  20.938 -0.3388 -0.0558  0.1277
  810BOLB   PO119418  22.131   8.053  20.917 -0.1161 -0.1037  0.3559
  810BOLB   GL119419  22.380   8.383  20.730 -0.1214 -0.1896  0.0744
  810BOLB   GL219420  22.227   8.716  20.848 -0.1726  0.0859  0.1663
  810BOLB   C1A19421  22.496   8.586  20.331  0.0579  0.0951 -0.2825
  810BOLB   C2A19422  22.834   8.712  20.100  0.1302 -0.1239  0.0658
  810BOLB   C3A19423  22.861   9.064  19.943 -0.1192 -0.1267  0.2647
  810BOLB   C4A19424  23.199   9.368  19.889 -0.1193 -0.0063  0.0427
  810BOLB   C1B19425  22.108   9.003  20.537 -0.0960  0.1611  0.1028
  810BOLB   C2B19426  21.991   9.314  20.212 -0.0008 -0.0930  0.1122
  810BOLB   C3B19427  22.261   9.675  20.128  0.3046 -0.1047  0.1955
  810BOLB   C4B19428  22.500   9.970  20.085 -0.0565  0.1179 -0.3384
  810BOLB   NC219429  25.417  10.584  18.886 -0.2366  0.1655  0.0720
  810BOLB   PO219430  25.054  10.683  19.234  0.1605  0.4085 -0.1619
  810BOLB   GL319431  24.753  10.335  19.311 -0.2138 -0.0897  0.0984
  810BOLB   GL419432  24.685  10.325  19.014 -0.1238 -0.2552  0.1609
  810BOLB   C1C19433  24.391  10.343  19.567 -0.0058 -0.2298 -0.1788
  810BOLB   C2C19434  23.973  10.286  19.540 -0.2449  0.3062 -0.2219
  810BOLB   C3C19435  23.592  10.025  19.600  0.0900  0.1509 -0.2060
  810BOLB   C4C19436  23.382   9.682  19.638  0.0903  0.0743  0.0850
  810BOLB   C1D19437  24.330  10.024  18.978  0.1786 -0.2238 -0.2381
  810BOLB   C2D19438  23.969   9.938  18.686 -0.2913  0.0120  0.1606
  810BOLB   C3D19439  23.915   9.854  18.298 -0.2095  0.1052 -0.2401
  810BOLB   C4D19440  23.982   9.515  18.090 -0.1628 -0.0548  0.0101
  811BOLB   NC119441  24.286   1.283  22.099 -0.0909  0.1280 -0.0444
  811BOLB   PO119442  24.417   1.578  22.361  0.1692 -0.1480 -0.2763
  811BOLB   GL119443  24.765   1.430  22.197  0.1460  0.0683 -0.1948
  811BOLB   GL219444  24.902   1.308  22.393  0.0501  0.1877 -0.0514
  811BOLB   C1A19445  25.208   1.527  22.088  0.1480  0.1072 -0.1243
  811BOLB   C2A19446  25.509   1.517  21.791  0.0471 -0.1773 -0.0631
  811BOLB   C3A19447  25.926   1.570  21.838 -0.2704 -0.0172  0.1030
  811BOLB   C4A19448  26.231   1.432  22.092 -0.1878 -0.0298  0.0378
  811BOLB   C1B19449  25.307   1.384  22.619 -0.1370 -0.0356  0.2016
  811BOLB   C2B19450  25.702   1.670  22.682  0.0303  0.4996  0.2901
  811BOLB   C3B19451  26.087   1.633  22.556 -0.0860  0.2546  0.4022
  811BOLB   C4B19452  26.463   1.645  22.475  0.1583  0.0914 -0.1214
  811BOLB   NC219453  28.146   0.517  20.804  0.0207  0.1944 -0.0540
  811BOLB   PO219454  28.175   0.509  21.254  0.0071 -0.1358 -0.2912
  811BOLB   GL319455  27.763   0.618  21.425  0.1591 -0.2343  0.1094
  811BOLB   GL419456  27.814   1.000  21.446  0.0963  0.1459  0.3468
  811BOLB   C1C19457  27.355   0.736  21.498 -0.1055  0.0512  0.0257
  811BOLB   C2C19458  26.994   0.828  21.426 -0.3314 -0.2243 -0.2857
  811BOLB   C3C19459  26.737   1.061  21.498  0.0855 -0.3407 -0.3078
  811BOLB   C4C19460  26.571   1.383  21.816 -0.0284 -0.0250  0.1179
  811BOLB   C1D19461  27.801   1.110  21.918  0.0984 -0.2690  0.0706
  811BOLB   C2D19462  27.572   0.833  22.316  0.0690  0.3138 -0.0388
  811BOLB   C3D19463  27.117   0.941  22.490  0.2626  0.2781  0.1340
  811BOLB   C4D19464  27.039   1.142  22.774  0.2604 -0.0205  0.1448
  812BOLB   NC119465  17.737  -4.382  23.696 -0.0913  0.0206 -0.1522
  812BOLB   PO119466  17.314  -4.413  23.598  0.0650  0.2333 -0.1271
  812BOLB   GL119467  16.948  -4.814  23.561 -0.2504  0.1716 -0.0910
  812BOLB   GL219468  16.689  -4.887  23.768 -0.0269 -0.3055  0.0634
  812BOLB   C1A19469  17.069  -5.197  23.644 -0.2104  0.0435  0.0167
  812BOLB   C2A19470  17.384  -5.546  23.632 -0.0083 -0.0458 -0.0254
  812BOLB   C3A19471  17.429  -5.936  23.748 -0.0816 -0.1063  0.0838
  812BOLB   C4A19472  17.791  -6.094  23.748  0.1454  0.1079 -0.0485
  812BOLB   C1B19473  16.720  -5.266  23.971 -0.0228  0.4539  0.0564
  812BOLB   C2B19474  17.019  -5.658  24.018 -0.1458  0.1215  0.4498
  812BOLB   C3B19475  17.481  -5.665  24.179 -0.4930 -0.0306  0.2599
  812BOLB   C4B19476  17.867  -5.872  24.328  0.0282 -0.0566  0.1474
  812BOLB   NC219477  19.621  -7.838  23.071  0.2097 -0.1177  0.1156
  812BOLB   PO219478  19.533  -7.659  23.515 -0.0343  0.0240  0.2689
  812BOLB   GL319479  19.363  -7.338  23.631 -0.0094  0.0271 -0.0808
  812BOLB   GL419480  19.099  -7.366  23.838  0.2032 -0.1454 -0.0244
  812BOLB   C1C19481  19.025  -6.946  23.612  0.0895 -0.2548 -0.2673
  812BOLB   C2C19482  18.763  -6.577  23.663 -0.0831  0.0617 -0.0992
  812BOLB   C3C19483  18.575  -6.243  23.449 -0.0466 -0.2519 -0.0225
  812BOLB   C4C19484  18.151  -6.182  23.486  0.1196 -0.1642 -0.0164
  812BOLB   C1D19485  18.823  -7.181  24.082  0.2749  0.1805  0.1676
  812BOLB   C2D19486  18.563  -6.832  24.102  0.0723  0.2783  0.3943
  812BOLB   C3D19487  18.602  -6.341  24.212 -0.0627 -0.1936  0.0005
  812BOLB   C4D19488  18.482  -5.893  24.273  0.2043 -0.2037 -0.1971
  813BOLB   NC119489  23.785   0.643  23.682 -0.3950 -0.0338  0.1009
  813BOLB   PO119490  23.678   0.373  23.372  0.0853 -0.1784 -0.3108
  813BOLB   GL119491  24.042   0.075  23.433  0.1265  0.1052  0.6341
  813BOLB   GL219492  24.032  -0.321  23.484 -0.1018  0.0066 -0.3700
  813BOLB   C1A19493  24.467   0.007  23.283  0.1267  0.0258 -0.2269
  813BOLB   C2A19494  24.894  -0.005  23.345 -0.3148  0.4076  0.0488
  813BOLB   C3A19495  25.236  -0.298  23.183  0.1418  0.1390 -0.0725
  813BOLB   C4A19496  25.605  -0.586  23.287  0.1551  0.1848  0.1555
  813BOLB   C1B19497  24.405  -0.468  23.500 -0.0224  0.2659 -0.1397
  813BOLB   C2B19498  24.667  -0.442  23.068  0.1924 -0.0790  0.0522
  813BOLB   C3B19499  25.030  -0.472  22.772 -0.0587  0.1039  0.0164
  813BOLB   C4B19500  25.346  -0.646  22.809 -0.2300  0.0279 -0.0676
  813BOLB   NC219501  27.993  -2.278  22.835 -0.3093 -0.0813  0.0165
  813BOLB   PO219502  27.621  -2.113  23.090  0.1372 -0.0010 -0.1565
  813BOLB   GL319503  27.357  -1.773  23.295  0.2302 -0.2159  0.3856
  813BOLB   GL419504  27.160  -1.961  23.451 -0.3857  0.1697 -0.1320
  813BOLB   C1C19505  27.275  -1.324  23.144  0.1580 -0.0219  0.1036
  813BOLB   C2C19506  26.982  -1.161  22.946 -0.3594  0.0324  0.0029
  813BOLB   C3C19507  26.537  -1.068  23.122  0.1243 -0.2163  0.1679
  813BOLB   C4C19508  26.058  -0.915  23.148 -0.1965 -0.1681 -0.1872
  813BOLB   C1D19509  26.789  -1.773  23.247 -0.0908  0.1894 -0.0728
  813BOLB   C2D19510  26.420  -1.525  23.152 -0.2095 -0.2267  0.0293
  813BOLB   C3D19511  26.155  -1.383  22.847 -0.0505 -0.0338 -0.0104
  813BOLB   C4D19512  25.668  -1.502  22.794 -0.0370 -0.0386  0.1889
  814BOLB   NC119513  14.811  16.533  23.650 -0.0374 -0.0803  0.1399
  814BOLB   PO119514  14.443  16.356  23.324  0.1309 -0.2174 -0.0529
  814BOLB   GL119515  14.530  16.079  23.677 -0.1109  0.0373 -0.1617
  814BOLB   GL219516  14.766  15.985  23.494  0.0737  0.3398 -0.0472
  814BOLB   C1A19517  14.295  15.622  23.816  0.2092 -0.1373  0.1499
  814BOLB   C2A19518  14.406  15.307  24.082 -0.3009 -0.1054  0.2878
  814BOLB   C3A19519  14.412  14.869  24.066 -0.3420 -0.0822 -0.3063
  814BOLB   C4A19520  14.576  14.461  24.194  0.0309  0.2020  0.1183
  814BOLB   C1B19521  14.745  15.445  23.590 -0.2114 -0.1453  0.0560
  814BOLB   C2B19522  14.633  14.997  23.504 -0.0449  0.1184 -0.1451
  814BOLB   C3B19523  14.999  14.574  23.455  0.6699 -0.0306 -0.0578
  814BOLB   C4B19524  15.131  14.124  23.531  0.0721 -0.3394 -0.0183
  814BOLB   NC219525  14.800  15.623  22.907 -0.0348 -0.1476  0.3256
  814BOLB   PO219526  14.326  15.489  22.834  0.0208 -0.1313  0.1285
  814BOLB   GL319527  14.468  15.085  22.945 -0.0566  0.1884 -0.4167
  814BOLB   GL419528  14.629  15.068  22.726 -0.2514  0.2713 -0.3802
  814BOLB   C1C19529  14.206  14.917  23.216 -0.1227  0.0254 -0.1056
  814BOLB   C2C19530  13.937  14.549  23.352  0.3017  0.0069 -0.0355
  814BOLB   C3C19531  13.940  14.211  23.637  0.3444  0.1184 -0.2180
  814BOLB   C4C19532  14.147  14.216  24.046  0.2475 -0.0471 -0.0596
  814BOLB   C1D19533  14.570  14.723  22.581  0.0182  0.1198  0.1494
  814BOLB   C2D19534  14.765  14.349  22.646  0.1913  0.0066  0.3168
  814BOLB   C3D19535  14.802  14.145  23.078  0.2408 -0.2919  0.1603
  814BOLB   C4D19536  14.827  13.714  23.396 -0.2961  0.1982 -0.0113
  815BOLB   NC119537   9.850  -1.272  20.957  0.0809  0.3071 -0.3338
  815BOLB   PO119538   9.897  -1.559  21.416  0.1841  0.1629 -0.0247
  815BOLB   GL119539   9.809  -2.023  21.455  0.0359 -0.1313  0.2804
  815BOLB   GL219540   9.757  -2.222  21.716 -0.1337  0.1826 -0.0615
  815BOLB   C1A19541   9.456  -2.188  21.133 -0.1925 -0.0079  0.0360
  815BOLB   C2A19542   9.271  -2.584  21.138  0.1089  0.1805 -0.5803
  815BOLB   C3A19543   9.235  -2.949  20.814  0.0074  0.1525 -0.0058
  815BOLB   C4A19544   9.133  -3.349  20.477 -0.0332  0.0981  0.3225
  815BOLB   C1B19545   9.374  -2.439  21.613  0.1145  0.0808  0.2430
  815BOLB   C2B19546   8.965  -2.483  21.691 -0.0625  0.1151  0.2238
  815BOLB   C3B19547   8.529  -2.661  21.624 -0.3503  0.1123 -0.4057
  815BOLB   C4B19548   8.206  -2.746  21.391  0.1479  0.0645  0.1427
  815BOLB   NC219549   8.017  -5.267  19.687 -0.1379  0.2189 -0.2643
  815BOLB   PO219550   7.753  -5.030  19.516  0.2191 -0.0821  0.0448
  815BOLB   GL319551   8.002  -4.713  19.683 -0.1507  0.3334  0.1108
  815BOLB   GL419552   7.866  -4.349  19.635  0.1687  0.1274  0.2349
  815BOLB   C1C19553   8.364  -4.507  19.824  0.0940  0.1106 -0.5149
  815BOLB   C2C19554   8.644  -4.254  20.072 -0.1347  0.0870 -0.5321
  815BOLB   C3C19555   8.716  -4.120  20.400 -0.0009  0.0372 -0.2303
  815BOLB   C4C19556   9.032  -3.828  20.591 -0.4003 -0.0694 -0.0941
  815BOLB   C1D19557   7.797  -4.498  20.080  0.3556 -0.0607 -0.3201
  815BOLB   C2D19558   7.657  -4.645  20.520  0.0699 -0.1755  0.2345
  815BOLB   C3D19559   7.663  -4.783  21.001 -0.0230 -0.1519  0.0856
  815BOLB   C4D19560   7.585  -4.490  21.326  0.1037  0.0772 -0.1008
  816BOLB   NC119561  15.141  -3.754  23.775  0.0047  0.0854  0.2151
  816BOLB   PO119562  14.725  -3.926  23.824 -0.1036  0.1202  0.0634
  816BOLB   GL119563  14.653  -4.389  23.889  0.0669  0.0659 -0.3161
  816BOLB   GL219564  14.731  -4.604  24.171  0.0235  0.1038 -0.0360
  816BOLB   C1A19565  14.329  -4.759  23.816  0.0639  0.2955 -0.4228
  816BOLB   C2A19566  14.183  -5.231  23.758  0.4264 -0.1394 -0.0841
  816BOLB   C3A19567  14.015  -5.640  23.792 -0.1824 -0.3244 -0.1045
  816BOLB   C4A19568  13.717  -6.034  23.751  0.0158 -0.1495 -0.2475
  816BOLB   C1B19569  14.615  -5.025  24.186  0.0430 -0.0196 -0.2015
  816BOLB   C2B19570  14.406  -5.475  24.156 -0.0152  0.1503 -0.0438
  816BOLB   C3B19571  14.346  -5.931  24.189 -0.0270 -0.0421  0.0783
  816BOLB   C4B19572  14.242  -6.245  24.276 -0.0017  0.0136  0.1441
  816BOLB   NC219573  13.529  -8.456  24.224 -0.1320  0.0613 -0.0164
  816BOLB   PO219574  13.906  -8.495  23.954 -0.0678  0.2406 -0.3289
  816BOLB   GL319575  13.737  -8.069  23.933 -0.0676  0.1620  0.1266
  816BOLB   GL419576  13.546  -7.968  23.596  0.0293 -0.1385  0.0046
  816BOLB   C1C19577  13.716  -7.750  24.190 -0.1358  0.1862 -0.1194
  816BOLB   C2C19578  13.544  -7.268  24.138 -0.0612  0.0307  0.1397
  816BOLB   C3C19579  13.603  -6.859  23.999  0.0322  0.0940 -0.2185
  816BOLB   C4C19580  13.483  -6.501  23.811  0.1101  0.2898 -0.2630
  816BOLB   C1D19581  13.770  -7.589  23.752  0.0396  0.1929  0.2097
  816BOLB   C2D19582  14.054  -7.208  23.942  0.0687 -0.0803  0.2730
  816BOLB   C3D19583  14.124  -6.774  24.093 -0.0434 -0.2046  0.0782
  816BOLB   C4D19584  14.403  -6.522  23.911 -0.3012 -0.0298 -0.0115
  817BOLB   NC119585  15.481  11.867  23.056 -0.0721 -0.0329  0.0830
  817BOLB   PO119586  15.460  11.974  23.573 -0.0649 -0.1264  0.0311
  817BOLB   GL119587  15.265  12.235  23.290 -0.3665  0.0428 -0.0999
  817BOLB   GL219588  15.356  12.386  23.087 -0.1489  0.0738 -0.2690
  817BOLB   C1A19589  14.818  12.342  23.136 -0.1314  0.0950  0.0985
  817BOLB   C2A19590  14.482  12.604  23.314 -0.1894 -0.0211 -0.0877
  817BOLB   C3A19591  14.270  13.001  23.382 -0.1785  0.0088  0.2692
  817BOLB   C4A19592  13.909  13.263  23.443  0.0626 -0.2381  0.0234
  817BOLB   C1B19593  15.555  12.487  22.749 -0.2061 -0.3397  0.1785
  817BOLB   C2B19594  15.589  12.805  22.462  0.0847 -0.0326 -0.0543
  817BOLB   C3B19595  15.402  13.163  22.225 -0.1237  0.0029 -0.0719
  817BOLB   C4B19596  14.991  13.326  22.107  0.0204 -0.0366  0.0039
  817BOLB   NC219597  13.037  15.497  22.766  0.1490 -0.3096  0.1133
  817BOLB   PO219598  12.804  15.529  22.467 -0.1502  0.0380 -0.2676
  817BOLB   GL319599  12.899  15.051  22.472 -0.0289 -0.2201  0.2001
  817BOLB   GL419600  13.207  14.911  22.299  0.0021  0.1245 -0.0539
  817BOLB   C1C19601  13.098  14.615  22.637  0.1278 -0.0438  0.0024
  817BOLB   C2C19602  13.108  14.319  23.114 -0.0765 -0.0813 -0.1421
  817BOLB   C3C19603  13.210  13.878  23.393  0.3008  0.0829  0.0163
  817BOLB   C4C19604  13.463  13.524  23.446 -0.3130 -0.0292 -0.2916
  817BOLB   C1D19605  12.899  14.557  22.194  0.0672  0.1583 -0.1040
  817BOLB   C2D19606  12.844  14.139  22.324 -0.0123  0.1696  0.3673
  817BOLB   C3D19607  13.144  14.012  22.661  0.0519  0.1262  0.0329
  817BOLB   C4D19608  13.395  13.798  22.970 -0.4249  0.1115  0.0689
  818BOLB   NC119609  16.238   8.816  33.133 -0.0833  0.2577 -0.1966
  818BOLB   PO119610  16.114   9.167  32.904  0.1651  0.0142  0.0485
  818BOLB   GL119611  16.189   9.458  33.210  0.3581 -0.0878  0.1337
  818BOLB   GL219612  15.905   9.330  33.450 -0.1807 -0.3696  0.0312
  818BOLB   C1A19613  16.303   9.647  33.629  0.2236  0.1969  0.0318
  818BOLB   C2A19614  16.302   9.813  33.901  0.2538  0.0927  0.0831
  818BOLB   C3A19615  16.209  10.107  34.253  0.0651 -0.1103  0.0636
  818BOLB   C4A19616  16.253  10.558  34.376 -0.0482 -0.0568 -0.0992
  818BOLB   C1B19617  15.685   9.253  33.821  0.1123  0.1353 -0.0845
  818BOLB   C2B19618  15.786   9.586  34.175 -0.0836  0.0970  0.2007
  818BOLB   C3B19619  15.763   9.727  34.500  0.1448  0.1821  0.0734
  818BOLB   C4B19620  15.625  10.130  34.848 -0.2538 -0.1053  0.1476
  818BOLB   NC219621  17.395  12.408  35.321  0.1297  0.0915 -0.1080
  818BOLB   PO219622  17.183  12.720  35.138  0.1817 -0.1756 -0.1489
  818BOLB   GL319623  17.004  12.390  34.923 -0.2097  0.2108  0.1486
  818BOLB   GL419624  17.135  12.436  34.673  0.0451 -0.1515  0.0394
  818BOLB   C1C19625  16.818  12.003  34.600  0.1946 -0.0663 -0.0970
  818BOLB   C2C19626  16.762  11.583  34.635 -0.3900 -0.0523  0.0652
  818BOLB   C3C19627  16.357  11.264  34.529 -0.2498  0.0883 -0.3068
  818BOLB   C4C19628  16.217  10.913  34.310 -0.2363  0.1103 -0.2868
  818BOLB   C1D19629  17.147  12.147  34.308  0.0252  0.0931 -0.1510
  818BOLB   C2D19630  17.104  11.710  34.200 -0.3157  0.2344 -0.1520
  818BOLB   C3D19631  17.002  11.280  34.273 -0.3000 -0.1190 -0.1278
  818BOLB   C4D19632  16.665  11.050  34.191  0.0825 -0.0449  0.2792
  819BOLB   NC119633  23.013   9.155  25.988 -0.1934  0.2742 -0.2260
  819BOLB   PO119634  23.260   9.076  26.337  0.2279 -0.0940 -0.0387
  819BOLB   GL119635  23.552   9.235  25.993 -0.0363  0.0954  0.2229
  819BOLB   GL219636  23.748   9.299  26.218  0.0865  0.1324 -0.0980
  819BOLB   C1A19637  23.727   9.731  26.039  0.1106  0.0007  0.2019
  819BOLB   C2A19638  23.962  10.096  26.131 -0.1035  0.0023  0.1751
  819BOLB   C3A19639  24.067  10.557  26.306  0.1907 -0.1083  0.0519
  819BOLB   C4A19640  24.073  11.020  26.571  0.1215  0.1308 -0.2809
  819BOLB   C1B19641  24.132   9.542  26.303  0.2092  0.2358  0.0080
  819BOLB   C2B19642  24.578   9.691  26.255 -0.1185 -0.0324  0.2148
  819BOLB   C3B19643  24.841  10.097  26.546  0.5101  0.1215 -0.0288
  819BOLB   C4B19644  25.087  10.199  26.721  0.4781 -0.0443  0.2384
  819BOLB   NC219645  25.020  13.091  27.690 -0.0751  0.0125 -0.1187
  819BOLB   PO219646  25.050  12.935  27.299  0.2518 -0.2488 -0.0487
  819BOLB   GL319647  25.086  12.509  27.294 -0.2002  0.0060  0.0664
  819BOLB   GL419648  25.029  12.182  27.449  0.0567  0.0259 -0.2269
  819BOLB   C1C19649  24.934  12.272  26.962  0.2677 -0.4005  0.0358
  819BOLB   C2C19650  24.856  11.923  26.680 -0.0423 -0.1726 -0.3588
  819BOLB   C3C19651  24.538  11.713  26.737  0.0173 -0.3553  0.0702
  819BOLB   C4C19652  24.321  11.281  26.582  0.1143 -0.2416 -0.0616
  819BOLB   C1D19653  24.791  12.297  27.752  0.1765  0.0178  0.1124
  819BOLB   C2D19654  24.481  12.166  27.887  0.0460 -0.0834  0.3349
  819BOLB   C3D19655  24.229  12.265  28.323 -0.0758 -0.0814 -0.1194
  819BOLB   C4D19656  24.143  12.449  28.750 -0.0464  0.1474 -0.5597
  820BOLB   NC119657  20.610   6.021  17.473  0.3672  0.0299 -0.1472
  820BOLB   PO119658  20.284   5.721  17.382  0.0712  0.0777  0.1684
  820BOLB   GL119659  20.503   5.934  17.020  0.2087  0.0484 -0.2455
  820BOLB   GL219660  20.776   6.180  16.967  0.4154 -0.0051  0.0746
  820BOLB   C1A19661  20.800   5.636  16.808 -0.0415  0.2728  0.0174
  820BOLB   C2A19662  20.974   5.663  16.490  0.0068 -0.0184  0.0941
  820BOLB   C3A19663  21.038   5.616  16.158 -0.0384 -0.0873 -0.2985
  820BOLB   C4A19664  21.168   5.269  15.892  0.0220  0.0394  0.1705
  820BOLB   C1B19665  21.028   6.208  16.563 -0.2510  0.0544  0.3157
  820BOLB   C2B19666  21.004   6.131  16.054 -0.0836 -0.2289 -0.1509
  820BOLB   C3B19667  21.234   6.433  15.816  0.1644 -0.1652 -0.0902
  820BOLB   C4B19668  21.409   6.769  15.607  0.2268  0.1788  0.0734
  820BOLB   NC219669  21.916   5.687  13.780  0.0939  0.0307 -0.0144
  820BOLB   PO219670  22.177   6.008  13.731  0.0631  0.2011 -0.1867
  820BOLB   GL319671  22.211   5.829  14.182 -0.5250  0.0275  0.3722
  820BOLB   GL419672  22.425   6.065  14.335  0.5628 -0.1202  0.0146
  820BOLB   C1C19673  22.101   5.569  14.558  0.1029  0.0430  0.0823
  820BOLB   C2C19674  21.775   5.615  14.910 -0.3910 -0.2279  0.0394
  820BOLB   C3C19675  21.412   5.453  15.146 -0.1803 -0.1128  0.2864
  820BOLB   C4C19676  21.272   5.366  15.455  0.0534 -0.0058 -0.1881
  820BOLB   C1D19677  22.515   5.820  14.670 -0.0552  0.2007 -0.1892
  820BOLB   C2D19678  22.472   5.504  14.903 -0.0617  0.0777 -0.2611
  820BOLB   C3D19679  22.142   5.227  14.894 -0.0770  0.0179 -0.0679
  820BOLB   C4D19680  21.713   5.089  14.787  0.0316  0.0341  0.1972
  821BOLB   NC119681   7.936   0.054  23.700 -0.0369  0.0165  0.1758
  821BOLB   PO119682   7.797  -0.271  23.977 -0.1015 -0.0500  0.0330
  821BOLB   GL119683   7.584  -0.433  23.671  0.1700  0.0922 -0.2369
  821BOLB   GL219684   7.550  -0.700  23.470  0.1044  0.4235  0.0626
  821BOLB   C1A19685   7.192  -0.755  23.770  0.5206 -0.1003  0.1328
  821BOLB   C2A19686   6.938  -0.973  23.739 -0.1994  0.0089  0.0868
  821BOLB   C3A19687   6.716  -1.287  23.547  0.0510 -0.0534  0.0660
  821BOLB   C4A19688   6.345  -1.367  23.615 -0.1916  0.0508  0.3272
  821BOLB   C1B19689   7.261  -1.037  23.338  0.2476 -0.1242  0.0350
  821BOLB   C2B19690   7.020  -1.273  23.171 -0.1276  0.1263  0.0531
  821BOLB   C3B19691   6.769  -1.657  23.241  0.0278  0.1136  0.2208
  821BOLB   C4B19692   6.356  -1.824  23.333  0.1191  0.0130 -0.2520
  821BOLB   NC219693   4.842  -3.185  24.235 -0.1314  0.1141  0.1204
  821BOLB   PO219694   4.895  -2.879  24.515  0.1131 -0.1570  0.2484
  821BOLB   GL319695   5.077  -2.646  24.312 -0.0499 -0.0304 -0.0808
  821BOLB   GL419696   5.119  -2.323  24.506  0.0192 -0.1921  0.2156
  821BOLB   C1C19697   5.098  -2.339  23.965  0.1242  0.2364  0.0137
  821BOLB   C2C19698   5.244  -1.938  23.864 -0.0674  0.0637  0.0198
  821BOLB   C3C19699   5.552  -1.737  23.613 -0.3195 -0.0649  0.0274
  821BOLB   C4C19700   5.960  -1.606  23.450 -0.0038 -0.0222 -0.0014
  821BOLB   C1D19701   5.427  -1.973  24.361  0.0649  0.1167 -0.1596
  821BOLB   C2D19702   5.433  -1.524  24.202  0.1227 -0.2341 -0.0705
  821BOLB   C3D19703   5.832  -1.422  23.984 -0.2407  0.1235  0.0419
  821BOLB   C4D19704   6.215  -0.979  23.871 -0.1107  0.1998  0.1290
  822BOLB   NC119705  16.742  -2.292  29.751  0.1219  0.1019  0.1946
  822BOLB   PO119706  16.839  -2.570  29.486 -0.1835 -0.2478  0.0795
  822BOLB   GL119707  16.821  -3.001  29.361  0.0501 -0.1059 -0.2524
  822BOLB   GL219708  17.020  -3.148  29.094 -0.1944 -0.0276 -0.1897
  822BOLB   C1A19709  16.890  -3.450  29.463  0.1876 -0.1762  0.0256
  822BOLB   C2A19710  16.947  -3.790  29.677  0.0357  0.3082  0.0254
  822BOLB   C3A19711  16.832  -4.151  29.919 -0.1922 -0.4331 -0.1680
  822BOLB   C4A19712  17.003  -4.528  30.085  0.0280  0.0121  0.1092
  822BOLB   C1B19713  17.309  -3.453  29.099  0.0679  0.1687  0.1230
  822BOLB   C2B19714  17.542  -3.909  29.239  0.4186  0.0054  0.0616
  822BOLB   C3B19715  17.891  -4.207  29.449  0.3492 -0.2985  0.1740
  822BOLB   C4B19716  18.407  -4.029  29.510 -0.1525 -0.0125 -0.1651
  822BOLB   NC219717  16.899  -7.528  30.678  0.2547  0.2805 -0.0350
  822BOLB   PO219718  17.134  -7.106  30.618 -0.5229  0.0326  0.0873
  822BOLB   GL319719  16.987  -6.670  30.492  0.0571 -0.1931 -0.0138
  822BOLB   GL419720  16.977  -6.654  30.127 -0.1288  0.0742  0.2123
  822BOLB   C1C19721  17.180  -6.196  30.282  0.1162  0.0061  0.2400
  822BOLB   C2C19722  17.036  -5.773  30.341 -0.0939  0.2801 -0.1813
  822BOLB   C3C19723  16.947  -5.356  30.399  0.0305  0.1584  0.1186
  822BOLB   C4C19724  17.148  -4.956  30.225  0.0860  0.0928 -0.0373
  822BOLB   C1D19725  16.720  -6.318  29.981 -0.0095  0.1747  0.3109
  822BOLB   C2D19726  16.599  -5.864  29.835 -0.1416 -0.1664  0.0682
  822BOLB   C3D19727  16.776  -5.426  29.934 -0.2533 -0.3937 -0.1667
  822BOLB   C4D19728  16.815  -5.091  29.873 -0.1772  0.0397  0.1138
  823BOLB   NC119729  21.747   5.084  31.968  0.2415  0.0984 -0.1252
  823BOLB   PO119730  22.232   5.290  31.851 -0.2625  0.0917  0.3808
  823BOLB   GL119731  22.365   5.237  32.210  0.2040 -0.0303  0.0634
  823BOLB   GL219732  22.294   4.886  32.269  0.1400  0.2792 -0.1233
  823BOLB   C1A19733  22.319   5.503  32.617  0.4181 -0.1129  0.3439
  823BOLB   C2A19734  22.524   5.869  32.841 -0.0520 -0.0130  0.3580
  823BOLB   C3A19735  22.639   6.227  33.067 -0.1611 -0.1916 -0.1584
  823BOLB   C4A19736  22.881   6.297  33.401  0.1773 -0.1250  0.1490
  823BOLB   C1B19737  22.269   4.754  32.555  0.1129  0.0536 -0.2631
  823BOLB   C2B19738  22.033   4.841  32.884  0.2222  0.1070  0.2982
  823BOLB   C3B19739  22.007   4.991  33.265 -0.1108  0.2877 -0.1155
  823BOLB   C4B19740  21.892   5.345  33.462 -0.1188  0.3047 -0.0391
  823BOLB   NC219741  24.569   5.671  35.537  0.1268 -0.0101 -0.1655
  823BOLB   PO219742  24.198   5.628  35.413  0.0241  0.1134 -0.0139
  823BOLB   GL319743  23.716   5.542  35.273 -0.1051  0.2423 -0.2024
  823BOLB   GL419744  23.632   5.249  35.026 -0.1824  0.1960  0.2486
  823BOLB   C1C19745  23.369   5.736  34.995 -0.4359  0.4686  0.1595
  823BOLB   C2C19746  23.078   5.998  34.674 -0.1227  0.0183  0.0729
  823BOLB   C3C19747  22.883   6.021  34.219 -0.1854 -0.0608 -0.2219
  823BOLB   C4C19748  22.982   6.124  33.778 -0.0902 -0.1311  0.0315
  823BOLB   C1D19749  23.397   5.166  34.600 -0.1774 -0.4720  0.1147
  823BOLB   C2D19750  23.266   5.576  34.375 -0.1688 -0.1650  0.0805
  823BOLB   C3D19751  23.435   5.963  34.201  0.0805 -0.1424  0.0532
  823BOLB   C4D19752  23.460   6.201  33.836 -0.1004  0.2381  0.2772
  824BOLB   NC119753  11.241  16.385  27.817 -0.1831 -0.1537 -0.1773
  824BOLB   PO119754  11.280  16.221  28.167  0.1773  0.0120 -0.1382
  824BOLB   GL119755  11.466  15.879  28.247  0.1332 -0.0117  0.2479
  824BOLB   GL219756  11.179  15.574  28.399  0.0241  0.1709 -0.0779
  824BOLB   C1A19757  11.601  15.493  28.121 -0.1405 -0.0950  0.1358
  824BOLB   C2A19758  11.721  15.064  27.883 -0.0212  0.0195 -0.1768
  824BOLB   C3A19759  11.698  14.653  27.652 -0.0958 -0.2269 -0.1899
  824BOLB   C4A19760  11.757  14.580  27.306  0.1199  0.0163  0.0373
  824BOLB   C1B19761  11.350  15.177  28.453  0.0706 -0.1886 -0.0258
  824BOLB   C2B19762  11.571  14.768  28.556  0.1618  0.0061 -0.2649
  824BOLB   C3B19763  11.924  14.541  28.524  0.0916 -0.1157  0.0297
  824BOLB   C4B19764  12.050  14.035  28.451  0.0304 -0.0375  0.3116
  824BOLB   NC219765  10.458  16.578  28.139  0.0026 -0.4538  0.3477
  824BOLB   PO219766  10.756  16.411  27.738  0.1231 -0.1374 -0.0737
  824BOLB   GL319767  10.868  16.007  27.786  0.0902  0.0069 -0.0423
  824BOLB   GL419768  10.977  15.886  27.975 -0.0567  0.3517 -0.2093
  824BOLB   C1C19769  11.029  15.732  27.495  0.1569 -0.0476 -0.0174
  824BOLB   C2C19770  11.153  15.334  27.199  0.3828  0.0186 -0.0014
  824BOLB   C3C19771  11.317  15.003  27.066  0.0045  0.1272  0.2403
  824BOLB   C4C19772  11.486  14.640  26.973 -0.0309  0.1759 -0.2222
  824BOLB   C1D19773  11.217  15.568  27.906 -0.4139 -0.0985  0.0136
  824BOLB   C2D19774  11.233  15.111  27.963  0.1364  0.0895 -0.1081
  824BOLB   C3D19775  11.447  14.722  28.107  0.1822  0.1156 -0.1797
  824BOLB   C4D19776  11.705  14.316  28.082  0.0486 -0.1903  0.1788
  825BOLB   NC119777  28.859   2.173  23.414 -0.1259  0.2482 -0.0752
  825BOLB   PO119778  28.959   1.708  23.685 -0.0301 -0.2609  0.0285
  825BOLB   GL119779  28.506   1.808  23.520  0.0227  0.2648 -0.1012
  825BOLB   GL219780  28.415   2.055  23.684  0.0566  0.1016 -0.0426
  825BOLB   C1A19781  28.029   1.875  23.517 -0.1377  0.1003 -0.0115
  825BOLB   C2A19782  27.706   1.791  23.558  0.1513  0.0274  0.1472
  825BOLB   C3A19783  27.280   1.687  23.641  0.1480 -0.4721  0.1359
  825BOLB   C4A19784  26.899   1.744  23.753 -0.1144 -0.1017  0.3326
  825BOLB   C1B19785  28.094   2.236  23.861 -0.3760 -0.0233  0.0635
  825BOLB   C2B19786  27.691   2.222  23.790  0.3067 -0.0957  0.0723
  825BOLB   C3B19787  27.343   2.505  23.451 -0.0782  0.0310 -0.0018
  825BOLB   C4B19788  26.861   2.545  23.375 -0.0308  0.1756 -0.0166
  825BOLB   NC219789  28.249   0.728  24.033  0.3028 -0.0757  0.1484
  825BOLB   PO219790  27.909   0.463  24.078  0.0259 -0.2662 -0.1865
  825BOLB   GL319791  27.451   0.461  24.023  0.1483 -0.1336 -0.2803
  825BOLB   GL419792  27.369   0.176  24.097  0.1329  0.0703  0.2016
  825BOLB   C1C19793  27.123   0.669  24.049  0.2578 -0.3024  0.1575
  825BOLB   C2C19794  26.693   0.704  23.932  0.2226 -0.0573  0.2137
  825BOLB   C3C19795  26.601   1.070  24.178 -0.0404 -0.1776  0.1528
  825BOLB   C4C19796  26.542   1.434  23.899 -0.1752 -0.2595  0.1721
  825BOLB   C1D19797  27.374  -0.308  23.993 -0.0219  0.0095 -0.1206
  825BOLB   C2D19798  27.531  -0.830  24.076 -0.2504 -0.0762  0.0583
  825BOLB   C3D19799  27.395  -1.159  24.267  0.0986 -0.0277  0.1906
  825BOLB   C4D19800  26.933  -1.255  24.107 -0.2334  0.1843 -0.0724
  826BOLB   NC119801   9.635  -2.337  24.789 -0.0276  0.0873 -0.1046
  826BOLB   PO119802   9.968  -2.664  24.622 -0.2067  0.3220 -0.2231
  826BOLB   GL119803   9.717  -2.860  24.908 -0.0277  0.0739 -0.0987
  826BOLB   GL219804   9.433  -2.726  25.092 -0.2409 -0.1645  0.0006
  826BOLB   C1A19805   9.575  -3.200  24.917 -0.1235  0.0485 -0.0071
  826BOLB   C2A19806   9.374  -3.661  24.807 -0.1811  0.0766 -0.1826
  826BOLB   C3A19807   9.199  -4.076  25.137 -0.1387  0.4224 -0.0905
  826BOLB   C4A19808   9.051  -4.474  25.020  0.1144  0.0199 -0.1750
  826BOLB   C1B19809   9.250  -3.131  25.344 -0.0325  0.1291 -0.0828
  826BOLB   C2B19810   9.289  -3.543  25.368  0.2494 -0.0144  0.2203
  826BOLB   C3B19811   9.225  -3.898  25.590 -0.0377 -0.0817  0.2996
  826BOLB   C4B19812   8.908  -4.330  25.589  0.0834 -0.1223 -0.2171
  826BOLB   NC219813   7.637  -5.685  22.992 -0.1756 -0.0367 -0.1129
  826BOLB   PO219814   7.809  -5.466  23.366  0.1021 -0.1346  0.6219
  826BOLB   GL319815   8.039  -5.254  23.111  0.1886 -0.0795  0.0477
  826BOLB   GL419816   8.092  -5.410  22.809  0.1864  0.1475  0.1215
  826BOLB   C1C19817   8.420  -5.015  23.260  0.4055  0.0398 -0.1338
  826BOLB   C2C19818   8.686  -4.818  23.646 -0.1793  0.0688 -0.1883
  826BOLB   C3C19819   8.834  -4.706  24.062  0.0442  0.0629 -0.0672
  826BOLB   C4C19820   8.754  -4.442  24.479 -0.3608 -0.1264 -0.1958
  826BOLB   C1D19821   7.869  -5.084  22.673 -0.0866 -0.2564  0.3359
  826BOLB   C2D19822   7.595  -4.679  22.608 -0.2638  0.2238  0.2175
  826BOLB   C3D19823   7.656  -4.397  22.398  0.0025 -0.2207  0.1140
  826BOLB   C4D19824   7.785  -4.041  22.141  0.0372 -0.1007  0.3243
  827BOLB   NC119825   9.154   8.767  22.521  0.2011 -0.2528  0.1764
  827BOLB   PO119826   9.152   8.748  22.136  0.1531  0.3271  0.0448
  827BOLB   GL119827   9.029   9.080  21.820 -0.2637 -0.2339 -0.2368
  827BOLB   GL219828   9.311   9.225  21.696 -0.1513 -0.0656  0.0067
  827BOLB   C1A19829   8.618   9.160  21.657 -0.0371  0.1662 -0.2736
  827BOLB   C2A19830   8.313   9.374  21.520 -0.1405 -0.1027 -0.0114
  827BOLB   C3A19831   8.184   9.486  21.165  0.1822 -0.3006 -0.0070
  827BOLB   C4A19832   8.174   9.760  20.683  0.1174 -0.0011 -0.1075
  827BOLB   C1B19833   9.074   9.605  21.687  0.0439 -0.1805 -0.0148
  827BOLB   C2B19834   8.962  10.057  21.580  0.0474  0.4248  0.2229
  827BOLB   C3B19835   8.784  10.472  21.842 -0.0615 -0.0150 -0.1668
  827BOLB   C4B19836   8.467  10.763  21.716 -0.2103  0.3113  0.1756
  827BOLB   NC219837   8.021  10.875  18.429 -0.0589  0.3073  0.1114
  827BOLB   PO219838   7.821  10.642  18.719  0.1558  0.2928  0.0008
  827BOLB   GL319839   7.820  10.288  18.888 -0.0510 -0.2852  0.4424
  827BOLB   GL419840   7.896   9.954  18.870 -0.1639 -0.0105  0.0614
  827BOLB   C1C19841   7.878  10.268  19.305  0.0262 -0.2240  0.0709
  827BOLB   C2C19842   8.058  10.236  19.740 -0.1798  0.1508  0.0800
  827BOLB   C3C19843   8.256  10.135  19.979  0.2185  0.0508 -0.0805
  827BOLB   C4C19844   8.061  10.049  20.392 -0.1415  0.0864 -0.2192
  827BOLB   C1D19845   8.286   9.900  19.062  0.0031  0.3197 -0.0296
  827BOLB   C2D19846   8.646   9.782  19.153 -0.0762  0.0766  0.1705
  827BOLB   C3D19847   9.065   9.845  19.463  0.3634 -0.1575 -0.0164
  827BOLB   C4D19848   9.219  10.117  19.808  0.1255 -0.1427  0.1654
  828BOLB   NC119849  24.923   3.044  25.579  0.1128 -0.0964 -0.0129
  828BOLB   PO119850  25.169   2.783  25.346 -0.1102  0.0132 -0.1704
  828BOLB   GL119851  25.587   2.949  25.488 -0.0461 -0.0227 -0.1755
  828BOLB   GL219852  25.645   3.128  25.260  0.1836  0.0992 -0.2068
  828BOLB   C1A19853  25.942   2.906  25.643  0.0474  0.2599 -0.1809
  828BOLB   C2A19854  26.256   2.732  25.874 -0.0719  0.5070 -0.0479
  828BOLB   C3A19855  26.424   2.636  26.106  0.1169 -0.0455  0.0198
  828BOLB   C4A19856  26.563   2.313  26.304  0.0382 -0.1841 -0.1337
  828BOLB   C1B19857  25.981   3.500  25.047  0.0204  0.1158  0.1768
  828BOLB   C2B19858  26.207   3.651  24.655 -0.1328 -0.0723 -0.0763
  828BOLB   C3B19859  26.043   3.833  24.308  0.0726 -0.0643  0.3257
  828BOLB   C4B19860  25.807   4.236  24.315  0.0703 -0.2926  0.1004
  828BOLB   NC219861  29.094   2.340  25.218  0.1602 -0.1314 -0.3418
  828BOLB   PO219862  29.020   2.029  25.465 -0.2266  0.0187 -0.1123
  828BOLB   GL319863  28.732   1.831  25.743 -0.0532  0.0562  0.0877
  828BOLB   GL419864  28.610   1.553  25.811  0.1025  0.0634  0.3623
  828BOLB   C1C19865  28.303   1.827  25.979 -0.0936 -0.2450 -0.0535
  828BOLB   C2C19866  27.897   2.038  26.207 -0.1217 -0.0124 -0.2772
  828BOLB   C3C19867  27.429   2.020  26.324  0.1987  0.1526 -0.1485
  828BOLB   C4C19868  26.936   2.077  26.375  0.0200 -0.1290  0.1141
  828BOLB   C1D19869  28.184   1.482  25.510 -0.0566 -0.3013 -0.1463
  828BOLB   C2D19870  27.710   1.431  25.455  0.0331 -0.3212  0.1682
  828BOLB   C3D19871  27.294   1.302  25.557 -0.4674  0.2202  0.0195
  828BOLB   C4D19872  26.943   1.312  25.943  0.2284  0.0822 -0.0508
  829BOLB   NC119873  28.521  -0.834  26.308  0.2269  0.0388  0.2490
  829BOLB   PO119874  28.062  -0.986  26.226 -0.1891  0.0476 -0.2806
  829BOLB   GL119875  27.808  -0.650  26.037 -0.3418  0.2075  0.0722
  829BOLB   GL219876  27.770  -0.286  26.017 -0.2310  0.1355 -0.1228
  829BOLB   C1A19877  27.425  -0.780  25.963 -0.0561  0.2627 -0.3660
  829BOLB   C2A19878  27.240  -0.691  25.555  0.1475  0.2228  0.0165
  829BOLB   C3A19879  27.156  -0.530  25.148  0.2660 -0.0525  0.0105
  829BOLB   C4A19880  27.028  -0.347  24.704 -0.0594  0.2836  0.1152
  829BOLB   C1B19881  27.378  -0.197  26.051 -0.0907 -0.2850 -0.1365
  829BOLB   C2B19882  26.992  -0.392  25.878 -0.2875  0.1905 -0.0848
  829BOLB   C3B19883  26.692  -0.684  25.568 -0.1972  0.1705 -0.4137
  829BOLB   C4B19884  26.551  -0.622  25.231 -0.1340  0.1127  0.0581
  829BOLB   NC219885  28.254  -0.439  22.921 -0.1088  0.0393 -0.1098
  829BOLB   PO219886  28.402  -0.261  23.351  0.0852 -0.1220 -0.1113
  829BOLB   GL319887  27.901  -0.283  23.325  0.3326  0.1937  0.1662
  829BOLB   GL419888  27.857  -0.104  23.206 -0.0107  0.0246 -0.0457
  829BOLB   C1C19889  27.441  -0.352  23.326 -0.0764 -0.0814  0.0118
  829BOLB   C2C19890  27.098  -0.313  23.531 -0.0151  0.0845  0.1203
  829BOLB   C3C19891  26.829  -0.250  23.949  0.1861  0.0615 -0.1480
  829BOLB   C4C19892  26.866  -0.197  24.381  0.1785 -0.1001  0.1496
  829BOLB   C1D19893  27.741   0.363  23.038 -0.3636  0.1694  0.1457
  829BOLB   C2D19894  27.508   0.779  22.836 -0.2575 -0.1734 -0.1393
  829BOLB   C3D19895  27.513   1.154  22.746 -0.1792  0.0178  0.1544
  829BOLB   C4D19896  27.463   1.540  22.632 -0.3835 -0.3217  0.0179
  830BOLB   NC119897  14.078   9.398  18.958 -0.0354  0.1482 -0.3979
  830BOLB   PO119898  14.046   8.886  18.989  0.2258 -0.0260  0.0499
  830BOLB   GL119899  13.844   9.155  18.586  0.0932  0.0244  0.1284
  830BOLB   GL219900  14.179   9.334  18.451 -0.3553 -0.1384 -0.1330
  830BOLB   C1A19901  13.701   9.586  18.376 -0.0881 -0.0470 -0.1764
  830BOLB   C2A19902  13.757   9.917  18.646  0.1678 -0.2520 -0.0606
  830BOLB   C3A19903  13.877  10.299  18.563 -0.0276 -0.0146 -0.4143
  830BOLB   C4A19904  13.693  10.594  18.340  0.0361  0.1890 -0.0705
  830BOLB   C1B19905  13.975   9.334  18.059 -0.2477 -0.3888 -0.2941
  830BOLB   C2B19906  13.647   9.497  17.835 -0.2025  0.0483  0.1001
  830BOLB   C3B19907  13.583   9.539  17.501 -0.3368 -0.0070  0.0721
  830BOLB   C4B19908  13.686   9.672  17.152 -0.1673 -0.0689  0.0521
  830BOLB   NC219909  12.832  12.025  16.901  0.0236 -0.1854 -0.1998
  830BOLB   PO219910  13.224  12.257  16.914 -0.0787 -0.0592 -0.1411
  830BOLB   GL319911  13.587  12.070  16.877 -0.3426 -0.1302  0.0179
  830BOLB   GL419912  13.561  12.118  17.200 -0.1760 -0.2279  0.0015
  830BOLB   C1C19913  13.820  11.669  17.024 -0.1751 -0.1515 -0.1590
  830BOLB   C2C19914  13.885  11.293  17.301 -0.2872 -0.0431  0.1861
  830BOLB   C3C19915  13.790  11.021  17.665  0.2027 -0.2133 -0.0993
  830BOLB   C4C19916  13.748  10.964  18.055 -0.0030 -0.0403  0.0758
  830BOLB   C1D19917  13.563  11.713  17.461  0.0022  0.1006  0.2089
  830BOLB   C2D19918  13.907  11.566  17.707  0.1389 -0.0186 -0.0785
  830BOLB   C3D19919  13.900  11.449  18.116 -0.3394 -0.1756 -0.1485
  830BOLB   C4D19920  14.099  11.173  18.517 -0.3551 -0.0140 -0.2289
  831BOLB   NC119921  20.570   9.130  30.107  0.0192  0.4348  0.0141
  831BOLB   PO119922  20.456   9.013  30.540 -0.1158  0.2136  0.2076
  831BOLB   GL119923  20.825   9.195  30.592 -0.0805  0.0077 -0.1168
  831BOLB   GL219924  20.761   9.047  30.950 -0.3587  0.0929  0.0911
  831BOLB   C1A19925  21.320   9.288  30.675 -0.0771 -0.3428 -0.1196
  831BOLB   C2A19926  21.710   9.398  30.919 -0.1626 -0.1431 -0.2663
  831BOLB   C3A19927  21.826   9.767  31.147 -0.2105  0.3303 -0.0686
  831BOLB   C4A19928  21.982  10.149  31.328 -0.1400  0.1229 -0.2316
  831BOLB   C1B19929  21.124   9.325  31.110 -0.2230  0.4564 -0.2215
  831BOLB   C2B19930  21.324   9.645  31.307  0.1222  0.0371  0.0733
  831BOLB   C3B19931  21.714   9.634  31.680  0.0249 -0.0097  0.0211
  831BOLB   C4B19932  22.168   9.695  31.641 -0.1502  0.0491  0.3567
  831BOLB   NC219933  22.351  11.690  32.988 -0.1180  0.0695 -0.2502
  831BOLB   PO219934  22.591  12.102  32.750 -0.1069  0.0323  0.0471
  831BOLB   GL319935  22.424  11.787  32.518  0.0412 -0.0906 -0.0294
  831BOLB   GL419936  22.240  11.891  32.305 -0.0316  0.4512  0.0250
  831BOLB   C1C19937  22.313  11.290  32.527 -0.0910  0.4232 -0.0238
  831BOLB   C2C19938  22.139  11.087  32.172  0.2893 -0.5674 -0.3154
  831BOLB   C3C19939  22.183  10.778  31.866 -0.0252  0.2466 -0.1986
  831BOLB   C4C19940  22.270  10.426  31.677 -0.0611 -0.1710 -0.1226
  831BOLB   C1D19941  21.943  11.571  32.186 -0.1779 -0.0315  0.0427
  831BOLB   C2D19942  21.754  11.260  31.900  0.0270  0.0199 -0.3381
  831BOLB   C3D19943  21.520  11.025  31.563  0.2002  0.1255  0.2080
  831BOLB   C4D19944  21.439  11.130  31.141 -0.1048  0.2110  0.2673
  832BOLB   NC119945  12.865   3.320  17.247  0.2719  0.0447 -0.1026
  832BOLB   PO119946  13.297   3.301  17.082 -0.0697  0.1403 -0.2644
  832BOLB   GL119947  13.137   3.380  16.679 -0.1289 -0.0498  0.2033
  832BOLB   GL219948  13.350   3.548  16.529  0.0095  0.4693 -0.2110
  832BOLB   C1A19949  12.925   3.396  16.310  0.0758 -0.1017  0.5893
  832BOLB   C2A19950  12.530   3.294  16.034 -0.3167 -0.0537 -0.0504
  832BOLB   C3A19951  12.382   3.132  15.689 -0.2243  0.1010  0.1469
  832BOLB   C4A19952  12.487   3.239  15.227  0.0268  0.1452  0.0870
  832BOLB   C1B19953  13.379   3.654  16.147 -0.2489  0.0204 -0.1297
  832BOLB   C2B19954  13.367   3.506  15.655 -0.1644 -0.0837  0.0162
  832BOLB   C3B19955  13.184   3.488  15.213 -0.1715  0.1223  0.0393
  832BOLB   C4B19956  12.974   3.292  14.927 -0.0981  0.1250 -0.2887
  832BOLB   NC219957  12.491   3.465  12.555 -0.5505  0.0595  0.1352
  832BOLB   PO219958  12.202   3.215  12.643  0.0114 -0.1376  0.0464
  832BOLB   GL319959  12.380   3.219  13.115  0.0024  0.2215  0.1784
  832BOLB   GL419960  12.503   2.895  13.221  0.0225 -0.2439 -0.1267
  832BOLB   C1C19961  12.532   3.350  13.498  0.1223  0.2845  0.2404
  832BOLB   C2C19962  12.379   3.364  13.940  0.0165  0.0578 -0.0809
  832BOLB   C3C19963  12.429   3.232  14.416 -0.0489  0.0281  0.0846
  832BOLB   C4C19964  12.402   3.163  14.800  0.1110 -0.2850 -0.0210
  832BOLB   C1D19965  12.485   2.816  13.646 -0.0348 -0.0711  0.1579
  832BOLB   C2D19966  12.614   2.921  14.022 -0.1240  0.0554  0.1480
  832BOLB   C3D19967  12.554   2.714  14.383 -0.2283 -0.2129 -0.0243
  832BOLB   C4D19968  12.835   2.364  14.577 -0.1668 -0.2755 -0.0528
  833BOLB   NC119969  24.823   2.373  26.577 -0.2230 -0.1250 -0.1592
  833BOLB   PO119970  24.601   2.744  26.595 -0.1123  0.2088 -0.0804
  833BOLB   GL119971  24.938   2.898  26.535 -0.1404  0.0639 -0.0713
  833BOLB   GL219972  25.008   3.182  26.720  0.4385  0.3861 -0.1988
  833BOLB   C1A19973  25.340   2.974  26.455 -0.0407  0.1709  0.0827
  833BOLB   C2A19974  25.747   3.050  26.480  0.1211  0.2111 -0.1645
  833BOLB   C3A19975  26.225   2.943  26.457 -0.3032 -0.1344  0.1529
  833BOLB   C4A19976  26.603   2.753  26.675 -0.1879  0.0536  0.2882
  833BOLB   C1B19977  25.266   3.479  26.377  0.0837 -0.1912 -0.1476
  833BOLB   C2B19978  25.776   3.576  26.383 -0.0723 -0.3281  0.0550
  833BOLB   C3B19979  26.274   3.531  26.404  0.0420 -0.0959  0.1233
  833BOLB   C4B19980  26.615   3.380  26.297 -0.3114  0.2801  0.2123
  833BOLB   NC219981  28.892   2.251  27.784  0.2861  0.2633  0.2126
  833BOLB   PO219982  28.953   2.345  27.279 -0.1394 -0.1314 -0.0972
  833BOLB   GL319983  28.521   2.293  26.926 -0.0089 -0.2138 -0.1228
  833BOLB   GL419984  28.437   2.493  26.862 -0.0321 -0.1235 -0.4107
  833BOLB   C1C19985  28.169   2.020  26.898 -0.1092 -0.6803  0.3663
  833BOLB   C2C19986  27.713   2.137  26.780  0.1887  0.3812  0.0108
  833BOLB   C3C19987  27.331   2.349  26.688 -0.1721  0.3730 -0.1567
  833BOLB   C4C19988  26.948   2.484  26.629  0.1869 -0.0056 -0.2747
  833BOLB   C1D19989  28.144   2.656  27.009 -0.2520  0.0820  0.0115
  833BOLB   C2D19990  27.742   2.625  26.847  0.2290 -0.0193 -0.1096
  833BOLB   C3D19991  27.359   2.785  26.914 -0.0196  0.2148 -0.0243
  833BOLB   C4D19992  27.081   3.028  26.830 -0.0011 -0.2308  0.1865
  834BOLB   NC119993  13.010   3.440  33.171 -0.0325 -0.3177  0.0376
  834BOLB   PO119994  12.842   3.184  33.453  0.1766 -0.0871  0.2912
  834BOLB   GL119995  13.086   3.116  33.846  0.0243  0.0880  0.0200
  834BOLB   GL219996  12.812   3.286  33.986 -0.1318  0.1499  0.1127
  834BOLB   C1A19997  13.049   2.880  34.201  0.1668 -0.0900  0.1925
  834BOLB   C2A19998  13.240   2.793  34.667  0.0424 -0.0542 -0.1368
  834BOLB   C3A19999  13.539   2.712  34.924 -0.0783  0.0874 -0.1248
  834BOLB   C4A20000  13.698   2.457  35.270 -0.0083  0.3594 -0.4564
  834BOLB   C1B20001  12.833   3.514  34.391 -0.2766  0.1505  0.2214
  834BOLB   C2B20002  12.821   3.719  34.839 -0.0220  0.0670  0.2271
  834BOLB   C3B20003  12.763   3.903  35.270  0.0674 -0.1121 -0.0254
  834BOLB   C4B20004  12.728   4.214  35.648 -0.2418 -0.2632  0.0532
  834BOLB   NC220005  14.248   1.858  37.559 -0.2607 -0.0918 -0.0327
  834BOLB   PO220006  14.091   1.457  37.540 -0.0393  0.0008 -0.3356
  834BOLB   GL320007  13.972   1.637  37.145 -0.1729  0.0946 -0.0177
  834BOLB   GL420008  13.827   1.483  36.869 -0.0775 -0.0434  0.2047
  834BOLB   C1C20009  13.859   1.984  36.821  0.2919  0.3021  0.0036
  834BOLB   C2C20010  13.970   2.061  36.382 -0.2599 -0.0706  0.0108
  834BOLB   C3C20011  14.094   2.203  36.041 -0.1834  0.1285  0.2151
  834BOLB   C4C20012  13.909   2.402  35.687 -0.1815  0.1288 -0.1285
  834BOLB   C1D20013  13.871   1.525  36.422  0.2657 -0.0941  0.3488
  834BOLB   C2D20014  13.989   1.708  36.054 -0.1509  0.3789 -0.0849
  834BOLB   C3D20015  14.106   1.629  35.584 -0.0041  0.0536  0.1192
  834BOLB   C4D20016  14.416   1.680  35.205 -0.0426  0.0777 -0.2056
  835BOLB   NC120017  10.177   2.930  18.744 -0.1348  0.1249  0.0800
  835BOLB   PO120018  10.009   2.571  18.576  0.1802  0.2156  0.2991
  835BOLB   GL120019   9.812   2.607  18.340  0.1352 -0.0490  0.2321
  835BOLB   GL220020   9.961   2.468  17.999  0.5265 -0.1434 -0.1438
  835BOLB   C1A20021   9.535   2.770  18.068 -0.1549 -0.0578  0.0071
  835BOLB   C2A20022   9.187   2.948  17.800 -0.0037  0.0295 -0.0792
  835BOLB   C3A20023   8.867   2.798  17.623 -0.0402 -0.0375 -0.2419
  835BOLB   C4A20024   8.537   2.581  17.323  0.0998 -0.1065 -0.2049
  835BOLB   C1B20025   9.632   2.336  17.844  0.1819  0.0913  0.1927
  835BOLB   C2B20026   9.304   2.420  17.724  0.2040 -0.1413  0.0847
  835BOLB   C3B20027   8.926   2.281  17.604  0.2215 -0.2222 -0.3203
  835BOLB   C4B20028   8.723   1.800  17.780  0.1557  0.3309 -0.0022
  835BOLB   NC220029   6.480   3.730  16.399  0.1485  0.1915  0.1400
  835BOLB   PO220030   6.369   3.725  16.774  0.0866 -0.1518  0.0089
  835BOLB   GL320031   6.782   3.548  16.818  0.1941  0.2070  0.0363
  835BOLB   GL420032   6.897   3.746  17.006 -0.2838 -0.2300 -0.2644
  835BOLB   C1C20033   7.057   3.253  16.777 -0.1927  0.1889 -0.0754
  835BOLB   C2C20034   7.366   2.982  16.756  0.1526  0.2884  0.1257
  835BOLB   C3C20035   7.691   2.640  16.884  0.1942  0.1725  0.0570
  835BOLB   C4C20036   8.083   2.622  17.213 -0.2210 -0.0419  0.1208
  835BOLB   C1D20037   6.951   3.908  17.373 -0.0326 -0.0660 -0.1045
  835BOLB   C2D20038   7.072   3.876  17.807  0.3145 -0.0440  0.0767
  835BOLB   C3D20039   7.464   3.841  18.056  0.2653 -0.1376 -0.1095
  835BOLB   C4D20040   7.829   4.049  18.175 -0.0117  0.0508  0.1885
  836BOLB   NC120041  24.281   4.706  24.116  0.3607  0.3555 -0.0542
  836BOLB   PO120042  24.481   5.009  23.830 -0.0978  0.0637 -0.0103
  836BOLB   GL120043  24.861   5.177  23.900  0.2082  0.0079  0.0129
  836BOLB   GL220044  25.024   5.113  23.596  0.0596  0.1395 -0.1050
  836BOLB   C1A20045  25.224   5.206  24.053 -0.1138 -0.1112 -0.0683
  836BOLB   C2A20046  25.506   5.355  24.378  0.0308  0.3003 -0.1543
  836BOLB   C3A20047  25.911   5.641  24.424 -0.0546 -0.1856  0.0825
  836BOLB   C4A20048  26.294   5.878  24.287  0.0218  0.1721 -0.1298
  836BOLB   C1B20049  25.193   4.673  23.481  0.1817 -0.2033 -0.0562
  836BOLB   C2B20050  25.721   4.613  23.491 -0.2057 -0.3057 -0.3252
  836BOLB   C3B20051  25.798   4.281  23.710 -0.0139 -0.3427  0.1428
  836BOLB   C4B20052  26.276   4.215  23.772  0.2267  0.1539  0.1393
  836BOLB   NC220053  28.151   6.401  23.652  0.0873  0.3548  0.0349
  836BOLB   PO220054  28.116   6.396  24.115  0.0464  0.2602 -0.0452
  836BOLB   GL320055  27.754   6.340  24.048 -0.1377 -0.4552  0.1259
  836BOLB   GL420056  27.630   6.145  24.299  0.0258 -0.3564 -0.0313
  836BOLB   C1C20057  27.488   6.387  23.694 -0.0238  0.0606  0.1472
  836BOLB   C2C20058  27.198   6.228  23.513 -0.2324  0.0175 -0.0054
  836BOLB   C3C20059  26.849   6.090  23.599  0.0356 -0.1061  0.3629
  836BOLB   C4C20060  26.452   6.086  23.895 -0.1034  0.0432  0.2319
  836BOLB   C1D20061  27.254   6.456  24.541  0.1543  0.0171  0.1472
  836BOLB   C2D20062  26.735   6.591  24.559  0.3918 -0.0256 -0.4211
  836BOLB   C3D20063  26.365   6.639  24.644 -0.2300  0.0521 -0.3261
  836BOLB   C4D20064  26.061   6.978  24.752  0.0467 -0.2873  0.2091
  837BOLB   NC120065  22.849   4.635  18.754  0.1390 -0.1214 -0.0292
  837BOLB   PO120066  22.704   5.004  18.751  0.0381  0.1165  0.1653
  837BOLB   GL120067  23.066   5.142  18.559  0.2799 -0.1480  0.0401
  837BOLB   GL220068  23.256   5.077  18.728 -0.0939  0.0360  0.0972
  837BOLB   C1A20069  23.240   5.009  18.165 -0.0673  0.2619  0.0859
  837BOLB   C2A20070  23.668   5.218  18.071  0.0840  0.0801 -0.2662
  837BOLB   C3A20071  24.093   5.342  18.174 -0.2513 -0.0913 -0.1612
  837BOLB   C4A20072  24.295   5.562  17.945  0.0434  0.3445 -0.1699
  837BOLB   C1B20073  23.660   4.926  18.595 -0.0607  0.0944  0.0093
  837BOLB   C2B20074  23.885   4.729  18.360  0.0881 -0.0485  0.1558
  837BOLB   C3B20075  24.237   4.834  18.101  0.0857  0.1128 -0.3199
  837BOLB   C4B20076  24.470   5.058  17.804  0.0510 -0.2326  0.1213
  837BOLB   NC220077  26.680   5.987  17.743 -0.1832 -0.1140  0.2216
  837BOLB   PO220078  26.707   5.872  18.143 -0.1106  0.0290 -0.1153
  837BOLB   GL320079  26.368   5.657  18.025  0.1908  0.1944  0.0122
  837BOLB   GL420080  26.238   5.357  18.247  0.0751  0.0922 -0.0513
  837BOLB   C1C20081  26.005   5.530  17.718  0.2213  0.2303  0.0325
  837BOLB   C2C20082  25.546   5.689  17.717 -0.0350 -0.1731  0.1929
  837BOLB   C3C20083  25.087   5.741  17.769 -0.0850 -0.0893 -0.0477
  837BOLB   C4C20084  24.740   5.544  17.865 -0.0093 -0.3779  0.1448
  837BOLB   C1D20085  25.803   5.404  18.184 -0.0262  0.1137 -0.1012
  837BOLB   C2D20086  25.464   5.366  18.229  0.2547  0.0898  0.2261
  837BOLB   C3D20087  25.001   5.277  18.352  0.0716  0.2125  0.2714
  837BOLB   C4D20088  24.684   4.966  18.242 -0.0589  0.0202 -0.1235
  838BOLB   NC120089  24.270   0.528  34.727  0.2237 -0.5285  0.2594
  838BOLB   PO120090  24.188   0.814  34.374 -0.1136 -0.3958  0.2211
  838BOLB   GL120091  24.164   1.088  34.028  0.0949 -0.1114 -0.0439
  838BOLB   GL220092  24.312   1.114  33.837 -0.1271 -0.0198  0.1645
  838BOLB   C1A20093  23.855   1.248  33.779  0.1260  0.2192 -0.1341
  838BOLB   C2A20094  23.541   1.569  33.869 -0.0565 -0.0944  0.0174
  838BOLB   C3A20095  23.402   2.014  33.731  0.0152  0.0871 -0.2598
  838BOLB   C4A20096  22.952   2.110  33.462 -0.1343  0.0127  0.0003
  838BOLB   C1B20097  24.132   0.924  33.450 -0.0260  0.0086  0.3365
  838BOLB   C2B20098  24.095   0.528  33.346  0.2871 -0.0162 -0.1324
  838BOLB   C3B20099  23.759   0.468  33.022  0.1585  0.1449  0.3610
  838BOLB   C4B20100  23.485   0.575  32.762 -0.1106 -0.0337 -0.2259
  838BOLB   NC220101  24.048   0.251  34.202  0.1310 -0.0283 -0.4472
  838BOLB   PO220102  23.625   0.107  34.190  0.3263 -0.2315 -0.1974
  838BOLB   GL320103  23.413   0.395  33.959 -0.4456  0.2482 -0.1640
  838BOLB   GL420104  23.271   0.475  34.193  0.0101  0.0126  0.0558
  838BOLB   C1C20105  23.134   0.724  33.710  0.1009 -0.2225 -0.3776
  838BOLB   C2C20106  22.852   1.017  33.412 -0.0208  0.1567  0.1896
  838BOLB   C3C20107  22.638   1.365  33.297 -0.1105  0.0537  0.0222
  838BOLB   C4C20108  22.686   1.800  33.335  0.1183 -0.1489 -0.1697
  838BOLB   C1D20109  22.964   0.824  34.173 -0.1273  0.3416  0.1127
  838BOLB   C2D20110  22.589   0.844  34.007  0.0203  0.2049 -0.0733
  838BOLB   C3D20111  22.253   0.729  34.095  0.1059  0.2068  0.1361
  838BOLB   C4D20112  21.941   0.423  34.237 -0.3934 -0.1925 -0.4369
  839BOLB   NC120113  18.522   6.160  33.335  0.0676  0.1886 -0.1205
  839BOLB   PO120114  18.047   6.260  33.609  0.0233 -0.1950  0.1795
  839BOLB   GL120115  18.252   6.271  33.934  0.1640  0.0437  0.2697
  839BOLB   GL220116  18.418   6.606  34.090  0.3969  0.2220 -0.2089
  839BOLB   C1A20117  18.342   6.076  34.292  0.0583  0.3710 -0.1318
  839BOLB   C2A20118  18.322   5.818  34.626  0.0371  0.1715  0.0416
  839BOLB   C3A20119  18.126   5.517  34.979  0.4032 -0.1033 -0.0837
  839BOLB   C4A20120  18.411   5.275  35.243 -0.2325 -0.0129 -0.3323
  839BOLB   C1B20121  18.420   6.851  34.386  0.3398  0.0411 -0.2061
  839BOLB   C2B20122  18.408   7.293  34.492 -0.1208  0.2228 -0.1204
  839BOLB   C3B20123  18.462   7.638  34.741  0.0040  0.1845 -0.1890
  839BOLB   C4B20124  18.572   8.094  34.705 -0.1715 -0.1925  0.1877
  839BOLB   NC220125  18.888   5.038  37.533 -0.1582 -0.0048  0.2087
  839BOLB   PO220126  18.826   4.654  37.293  0.0997  0.2980  0.0111
  839BOLB   GL320127  18.741   4.521  36.925 -0.2475  0.3597  0.2712
  839BOLB   GL420128  18.674   4.194  36.944  0.1035 -0.3246 -0.0531
  839BOLB   C1C20129  18.761   4.584  36.478 -0.0621  0.2350  0.2582
  839BOLB   C2C20130  18.779   4.752  36.184 -0.1117 -0.1523 -0.1356
  839BOLB   C3C20131  18.561   4.865  35.787  0.1110  0.0480 -0.1131
  839BOLB   C4C20132  18.451   4.872  35.429  0.0934  0.0855  0.0217
  839BOLB   C1D20133  18.351   3.981  36.662  0.0151 -0.2278  0.2121
  839BOLB   C2D20134  18.249   3.762  36.281 -0.1691 -0.3067 -0.1459
  839BOLB   C3D20135  18.032   3.406  36.122  0.1361 -0.3826  0.0647
  839BOLB   C4D20136  17.957   2.982  35.937 -0.1432 -0.2119 -0.1260
  840BOLB   NC120137  11.053  -2.354  27.227  0.0601  0.3263  0.0121
  840BOLB   PO120138  11.263  -2.762  27.013  0.1018  0.2073  0.1111
  840BOLB   GL120139  11.264  -3.167  27.110  0.1977  0.0576  0.1549
  840BOLB   GL220140  11.371  -3.360  27.404 -0.2128 -0.0969 -0.3342
  840BOLB   C1A20141  10.953  -3.529  27.121 -0.2271 -0.5229 -0.0227
  840BOLB   C2A20142  10.903  -3.950  27.226  0.2282  0.3146 -0.3061
  840BOLB   C3A20143  10.591  -4.195  27.174 -0.2404 -0.2331  0.0478
  840BOLB   C4A20144  10.313  -4.614  27.139  0.0807  0.0720 -0.3130
  840BOLB   C1B20145  11.382  -3.823  27.232 -0.1716  0.0819 -0.4245
  840BOLB   C2B20146  11.338  -4.275  27.325  0.1793  0.3093  0.1934
  840BOLB   C3B20147  11.268  -4.595  27.639 -0.1499 -0.1128  0.3308
  840BOLB   C4B20148  11.216  -4.795  28.015  0.2227  0.1336 -0.0563
  840BOLB   NC220149  10.091  -7.043  27.922 -0.1015 -0.0810  0.2983
  840BOLB   PO220150   9.773  -6.642  27.865 -0.1791 -0.1645 -0.1136
  840BOLB   GL320151  10.076  -6.381  27.611 -0.1988 -0.1832  0.0556
  840BOLB   GL420152  10.239  -6.553  27.327  0.1509 -0.2052 -0.2629
  840BOLB   C1C20153  10.229  -6.029  27.484  0.0040  0.1511  0.1830
  840BOLB   C2C20154  10.425  -5.778  27.171 -0.0693  0.0816 -0.0184
  840BOLB   C3C20155  10.228  -5.342  26.968 -0.1077 -0.1141  0.0445
  840BOLB   C4C20156  10.145  -5.000  27.129 -0.1657  0.1131  0.2990
  840BOLB   C1D20157   9.946  -6.197  27.092  0.3185  0.0685 -0.5352
  840BOLB   C2D20158   9.869  -5.734  27.028  0.0799  0.0612  0.3138
  840BOLB   C3D20159   9.728  -5.309  27.026 -0.0146 -0.2364  0.0520
  840BOLB   C4D20160   9.504  -4.890  26.981 -0.4685  0.1219  0.3537
  841BOLB   NC120161  12.152   9.912  30.924  0.0727  0.2254  0.2777
  841BOLB   PO120162  12.349  10.234  30.849 -0.0869 -0.0086  0.0794
  841BOLB   GL120163  12.192  10.252  31.286 -0.3095  0.1690 -0.2221
  841BOLB   GL220164  12.556  10.386  31.521  0.1844  0.0369  0.1315
  841BOLB   C1A20165  11.966  10.444  31.648  0.3410  0.0289 -0.0980
  841BOLB   C2A20166  11.449  10.571  31.710 -0.0388 -0.1314  0.2407
  841BOLB   C3A20167  11.040  10.551  31.787 -0.1700  0.0747  0.0770
  841BOLB   C4A20168  10.867  10.592  32.168 -0.2195  0.3724  0.1789
  841BOLB   C1B20169  12.378  10.735  31.688 -0.2217  0.3188 -0.1298
  841BOLB   C2B20170  12.272  11.060  32.084 -0.0837 -0.0768  0.2410
  841BOLB   C3B20171  12.501  11.133  32.541 -0.0006 -0.1371 -0.0079
  841BOLB   C4B20172  12.519  11.550  32.582 -0.0889 -0.0025  0.3797
  841BOLB   NC220173  10.082  12.280  33.815  0.0843  0.2001  0.0563
  841BOLB   PO220174  10.558  12.311  33.914 -0.2019 -0.1554 -0.2073
  841BOLB   GL320175  10.741  11.952  33.835 -0.1164  0.1035  0.0332
  841BOLB   GL420176  10.712  11.616  33.921 -0.0270  0.0980  0.1752
  841BOLB   C1C20177  10.899  11.948  33.351 -0.1003 -0.1636  0.0656
  841BOLB   C2C20178  10.886  11.591  33.031  0.4403 -0.0929 -0.1867
  841BOLB   C3C20179  10.815  11.280  32.795  0.2429 -0.2017 -0.1974
  841BOLB   C4C20180  10.860  10.975  32.444 -0.2342 -0.2549  0.1470
  841BOLB   C1D20181  10.689  11.523  33.519 -0.0974  0.0587  0.0987
  841BOLB   C2D20182  10.419  11.481  33.176  0.0064 -0.1569  0.0129
  841BOLB   C3D20183  10.286  11.161  32.935  0.1534  0.1087 -0.1317
  841BOLB   C4D20184  10.105  10.915  32.662  0.3039 -0.2402  0.1706
  842BOLB   NC120185  23.222   8.442  29.333 -0.4068  0.1478  0.1970
  842BOLB   PO120186  23.072   8.383  29.772 -0.2351  0.0910 -0.0509
  842BOLB   GL120187  23.334   8.695  29.858  0.2128  0.0975  0.1229
  842BOLB   GL220188  23.337   8.606  30.149 -0.2028  0.1244  0.0540
  842BOLB   C1A20189  23.625   9.019  29.734  0.1300  0.0038 -0.2714
  842BOLB   C2A20190  23.849   9.390  29.707 -0.2173  0.0683 -0.2136
  842BOLB   C3A20191  24.304   9.586  29.824  0.2084  0.2317 -0.2633
  842BOLB   C4A20192  24.782   9.577  29.820  0.3166  0.0270  0.0621
  842BOLB   C1B20193  23.651   8.653  30.499  0.0679 -0.3771 -0.0679
  842BOLB   C2B20194  23.728   8.959  30.763 -0.2192  0.1189 -0.2457
  842BOLB   C3B20195  24.095   9.252  30.784 -0.4453 -0.1309  0.0849
  842BOLB   C4B20196  24.391   9.548  30.939  0.3040 -0.4162  0.2217
  842BOLB   NC220197  27.200  10.807  28.937  0.1178 -0.1574  0.2132
  842BOLB   PO220198  26.907  10.709  29.115  0.0658 -0.0649 -0.2285
  842BOLB   GL320199  26.810  10.330  29.302 -0.6403 -0.1123  0.0687
  842BOLB   GL420200  26.990  10.190  29.387 -0.1328  0.1910 -0.3147
  842BOLB   C1C20201  26.475  10.212  29.673 -0.0186 -0.1387  0.1013
  842BOLB   C2C20202  26.072   9.936  29.824 -0.1599 -0.1177  0.0534
  842BOLB   C3C20203  25.736   9.768  29.757  0.1838 -0.5004 -0.3481
  842BOLB   C4C20204  25.267   9.612  29.750  0.1238 -0.2456 -0.0037
  842BOLB   C1D20205  27.200   9.742  29.440  0.0788 -0.2050  0.1894
  842BOLB   C2D20206  27.102   9.327  29.535  0.3100  0.0882  0.0946
  842BOLB   C3D20207  26.815   9.139  29.343  0.1079 -0.0651 -0.2006
  842BOLB   C4D20208  26.471   8.924  29.098  0.1403 -0.0824 -0.1835
  843BOLB   NC120209  12.730   8.376  32.331  0.0783  0.1384 -0.1078
  843BOLB   PO120210  12.784   8.014  32.681  0.1235 -0.2375  0.0660
  843BOLB   GL120211  12.677   8.279  32.971 -0.2243  0.2402 -0.1978
  843BOLB   GL220212  12.969   8.394  33.184  0.3062 -0.2556 -0.0594
  843BOLB   C1A20213  12.430   8.239  33.355  0.1390 -0.1321  0.1082
  843BOLB   C2A20214  12.266   8.420  33.738 -0.2190  0.0569  0.0108
  843BOLB   C3A20215  12.148   8.463  34.143  0.0476 -0.0520 -0.0864
  843BOLB   C4A20216  11.963   8.865  34.286  0.0847 -0.2347 -0.1005
  843BOLB   C1B20217  12.879   8.516  33.537  0.3874 -0.0947  0.0000
  843BOLB   C2B20218  13.089   8.378  33.859  0.1461 -0.0336 -0.2853
  843BOLB   C3B20219  13.246   8.215  34.145 -0.2225 -0.2437  0.2011
  843BOLB   C4B20220  13.425   7.813  34.295  0.0741 -0.2830  0.0159
  843BOLB   NC220221  10.232  10.571  35.004 -0.3613 -0.1304 -0.1237
  843BOLB   PO220222  10.644  10.434  35.209 -0.0812  0.0031 -0.0470
  843BOLB   GL320223  10.827  10.295  34.826 -0.0681 -0.0884  0.0581
  843BOLB   GL420224  10.602  10.389  34.617 -0.3218  0.2210 -0.0714
  843BOLB   C1C20225  11.183  10.200  34.573  0.2535  0.1409  0.2138
  843BOLB   C2C20226  11.495   9.857  34.577  0.3120  0.0420 -0.2171
  843BOLB   C3C20227  11.610   9.616  34.426 -0.2104  0.1692  0.2378
  843BOLB   C4C20228  11.914   9.333  34.297 -0.1542 -0.0632 -0.0150
  843BOLB   C1D20229  10.700  10.316  34.187 -0.0435  0.0871  0.0509
  843BOLB   C2D20230  11.007  10.064  33.734 -0.2892 -0.0905 -0.5121
  843BOLB   C3D20231  11.004  10.099  33.352  0.2219  0.2101 -0.0140
  843BOLB   C4D20232  11.301   9.812  33.078 -0.1335 -0.1409  0.0362
  844BOLB   NC120233  19.633  -2.892  25.467 -0.2976 -0.1230 -0.1510
  844BOLB   PO120234  19.684  -3.212  25.754  0.1010 -0.1901  0.0515
  844BOLB   GL120235  19.896  -3.604  25.951 -0.0279  0.2960  0.1487
  844BOLB   GL220236  19.974  -3.740  25.645  0.2634  0.0302  0.0257
  844BOLB   C1A20237  20.415  -3.653  25.841 -0.1034  0.3534 -0.0612
  844BOLB   C2A20238  20.703  -4.038  25.903 -0.3805  0.1764 -0.0040
  844BOLB   C3A20239  20.762  -4.442  26.128 -0.0299  0.1546 -0.1756
  844BOLB   C4A20240  21.146  -4.653  26.082 -0.1686  0.0370  0.0521
  844BOLB   C1B20241  20.312  -4.053  25.636  0.0845  0.4928 -0.0868
  844BOLB   C2B20242  20.489  -4.367  25.498  0.0658  0.2697  0.0638
  844BOLB   C3B20243  20.810  -4.471  25.285  0.3140 -0.0203  0.1164
  844BOLB   C4B20244  21.177  -4.604  25.508 -0.2497 -0.2054  0.0946
  844BOLB   NC220245  22.579  -6.686  25.335  0.0049  0.0755 -0.1128
  844BOLB   PO220246  22.279  -6.822  25.565  0.4149  0.0608  0.1769
  844BOLB   GL320247  22.148  -6.419  25.791  0.1282 -0.0770 -0.2294
  844BOLB   GL420248  22.201  -6.261  25.496 -0.0297  0.2328  0.0522
  844BOLB   C1C20249  22.074  -5.889  25.845  0.2242  0.3573  0.0849
  844BOLB   C2C20250  22.132  -5.389  25.863 -0.2447  0.1950  0.2366
  844BOLB   C3C20251  21.770  -5.128  25.661  0.0568 -0.0579  0.1139
  844BOLB   C4C20252  21.339  -4.998  25.773 -0.1135 -0.0404 -0.1026
  844BOLB   C1D20253  21.998  -5.957  25.291 -0.3666  0.1393 -0.0721
  844BOLB   C2D20254  21.762  -5.544  25.275 -0.1039 -0.0238  0.0250
  844BOLB   C3D20255  21.478  -5.255  25.334 -0.0366  0.1332  0.1570
  844BOLB   C4D20256  21.151  -4.956  25.099 -0.2293  0.0195  0.1184
  845BOLB   NC120257  20.648   9.250  20.675  0.1318  0.1048  0.0290
  845BOLB   PO120258  20.499   9.577  20.913 -0.0797  0.0568  0.3761
  845BOLB   GL120259  20.774   9.763  20.664  0.1268 -0.1290 -0.0821
  845BOLB   GL220260  20.921   9.535  20.409  0.0546  0.0142  0.0813
  845BOLB   C1A20261  20.754  10.058  20.327 -0.1491  0.2475  0.2473
  845BOLB   C2A20262  20.971  10.307  19.984  0.2320 -0.2595  0.0450
  845BOLB   C3A20263  20.750  10.341  19.666 -0.4488  0.1821 -0.1385
  845BOLB   C4A20264  20.753  10.665  19.421  0.1027 -0.0335  0.1565
  845BOLB   C1B20265  21.181   9.879  20.146 -0.0399 -0.2028  0.0632
  845BOLB   C2B20266  21.448  10.135  19.949  0.0575 -0.0910 -0.1193
  845BOLB   C3B20267  21.717  10.338  19.634  0.2289  0.1505 -0.0559
  845BOLB   C4B20268  22.047  10.326  19.430  0.3311  0.0176  0.0911
  845BOLB   NC220269  20.687  12.693  17.531 -0.0045  0.0104 -0.0509
  845BOLB   PO220270  20.361  12.355  17.815  0.0171  0.1254 -0.3446
  845BOLB   GL320271  20.074  12.074  18.056  0.1194 -0.1148  0.1115
  845BOLB   GL420272  19.754  12.205  18.023 -0.2505 -0.2086  0.1464
  845BOLB   C1C20273  20.252  11.754  18.261  0.0940 -0.1683 -0.2986
  845BOLB   C2C20274  20.474  11.552  18.528 -0.0506  0.0598  0.2922
  845BOLB   C3C20275  20.503  11.115  18.767  0.2268 -0.0633  0.1800
  845BOLB   C4C20276  20.711  10.985  19.102  0.2389  0.1080 -0.1375
  845BOLB   C1D20277  19.769  12.047  18.426  0.0185 -0.1072  0.3276
  845BOLB   C2D20278  19.653  12.177  18.780 -0.0038 -0.0480  0.3853
  845BOLB   C3D20279  19.320  11.813  18.972  0.0044 -0.1238 -0.1773
  845BOLB   C4D20280  18.981  11.518  18.959  0.0656 -0.1468 -0.0000
  846BOLB   NC120281   9.251  13.845  32.494  0.0640 -0.0138 -0.4103
  846BOLB   PO120282   9.346  13.502  32.628  0.0128 -0.0705  0.0102
  846BOLB   GL120283   9.755  13.247  32.404 -0.2553  0.1054 -0.0525
  846BOLB   GL220284   9.558  13.025  32.425  0.0800 -0.0382 -0.1235
  846BOLB   C1A20285   9.940  12.983  32.181  0.2655 -0.0108 -0.0618
  846BOLB   C2A20286  10.150  12.795  31.800  0.0203  0.2671 -0.1438
  846BOLB   C3A20287  10.465  12.903  31.452  0.0676 -0.3243 -0.0106
  846BOLB   C4A20288  10.472  12.977  31.012 -0.1739  0.3139 -0.1673
  846BOLB   C1B20289   9.555  12.629  32.277 -0.0091 -0.1041  0.1314
  846BOLB   C2B20290   9.382  12.387  31.927  0.1806 -0.3211  0.6291
  846BOLB   C3B20291   9.448  12.092  31.643  0.3760 -0.0788 -0.1072
  846BOLB   C4B20292   9.675  11.813  31.649 -0.1515 -0.1994  0.6118
  846BOLB   NC220293  10.560  15.383  29.441  0.2769 -0.0597 -0.1295
  846BOLB   PO220294  10.499  15.202  29.890 -0.0222  0.0786 -0.0537
  846BOLB   GL320295  10.198  14.784  29.850 -0.2068  0.0463  0.0321
  846BOLB   GL420296  10.479  14.799  29.612  0.2350  0.0593 -0.0109
  846BOLB   C1C20297  10.293  14.409  30.025 -0.1454 -0.2485  0.0225
  846BOLB   C2C20298  10.393  13.927  30.182 -0.0322 -0.0905  0.1894
  846BOLB   C3C20299  10.478  13.599  30.632  0.0701 -0.2571  0.1821
  846BOLB   C4C20300  10.434  13.132  30.619 -0.1025 -0.0607 -0.2166
  846BOLB   C1D20301  10.475  14.413  29.505  0.2802  0.1692  0.0207
  846BOLB   C2D20302  10.694  14.055  29.296  0.0996  0.2435  0.0597
  846BOLB   C3D20303  10.812  13.654  29.047  0.2058 -0.0376 -0.2399
  846BOLB   C4D20304  10.860  13.180  28.939  0.0409 -0.0001 -0.1088
  847BOLB   NC120305   7.332   1.202  24.816  0.1458  0.4008 -0.0957
  847BOLB   PO120306   7.181   0.967  24.431 -0.1171  0.1003 -0.2871
  847BOLB   GL120307   6.915   0.697  24.524 -0.1120  0.0446 -0.1557
  847BOLB   GL220308   6.747   0.630  24.214 -0.2195  0.4706  0.0573
  847BOLB   C1A20309   6.369   0.646  24.555  0.3831 -0.3741 -0.0615
  847BOLB   C2A20310   5.912   0.560  24.647  0.1600  0.0932 -0.2719
  847BOLB   C3A20311   5.580   0.534  24.960  0.2402 -0.1795  0.1589
  847BOLB   C4A20312   5.215   0.698  24.991  0.0158  0.0274  0.1654
  847BOLB   C1B20313   6.374   0.445  23.928 -0.0067  0.1578 -0.0481
  847BOLB   C2B20314   6.120   0.509  23.556  0.0318  0.0222 -0.1531
  847BOLB   C3B20315   5.803   0.317  23.336  0.1022  0.0673 -0.0497
  847BOLB   C4B20316   5.337   0.221  23.224  0.0852 -0.1855 -0.4509
  847BOLB   NC220317   2.793   1.032  25.588  0.1102 -0.0855  0.2564
  847BOLB   PO220318   2.890   0.637  25.747  0.1147 -0.1207  0.3458
  847BOLB   GL320319   3.250   0.735  25.571 -0.2191 -0.2474 -0.1789
  847BOLB   GL420320   3.399   1.009  25.569  0.2315 -0.1049  0.0509
  847BOLB   C1C20321   3.795   0.758  25.483 -0.2986 -0.0630 -0.0174
  847BOLB   C2C20322   4.256   0.748  25.335  0.0058 -0.0679 -0.1688
  847BOLB   C3C20323   4.617   1.089  25.272 -0.0014 -0.1862 -0.1420
  847BOLB   C4C20324   4.962   1.062  25.104  0.0549 -0.4159 -0.0309
  847BOLB   C1D20325   3.701   1.251  25.313 -0.1182  0.1856  0.1313
  847BOLB   C2D20326   4.091   1.214  25.291 -0.1003  0.1341 -0.1561
  847BOLB   C3D20327   4.345   1.037  24.907 -0.1872 -0.0094  0.0158
  847BOLB   C4D20328   4.644   0.866  24.671  0.2838 -0.2810 -0.1719
  848BOLB   NC120329  20.993  -2.677  21.306 -0.0225  0.2428 -0.1759
  848BOLB   PO120330  20.515  -2.898  21.275  0.0141 -0.0741  0.0730
  848BOLB   GL120331  20.899  -3.215  21.147  0.1441 -0.3552  0.0380
  848BOLB   GL220332  21.238  -3.066  21.078  0.1535  0.1789 -0.1848
  848BOLB   C1A20333  21.076  -3.646  21.206  0.1236  0.0852  0.1175
  848BOLB   C2A20334  21.246  -4.047  21.159 -0.1669  0.3010  0.0885
  848BOLB   C3A20335  21.424  -4.418  21.036  0.0551  0.0370 -0.0567
  848BOLB   C4A20336  21.724  -4.690  20.911 -0.0571  0.0468  0.1165
  848BOLB   C1B20337  21.475  -3.183  20.705  0.0638  0.0649  0.1762
  848BOLB   C2B20338  21.798  -3.407  20.505  0.2942 -0.0004 -0.1560
  848BOLB   C3B20339  22.070  -3.416  20.214 -0.2983  0.1504  0.2091
  848BOLB   C4B20340  22.300  -3.783  19.964  0.0862 -0.2506  0.2100
  848BOLB   NC220341  22.917  -6.465  22.067 -0.2594 -0.2446 -0.4019
  848BOLB   PO220342  23.164  -6.343  21.761 -0.0152 -0.0576 -0.0570
  848BOLB   GL320343  22.971  -6.230  21.346  0.1568  0.0853  0.0759
  848BOLB   GL420344  23.135  -6.129  21.082 -0.0712 -0.1123  0.6791
  848BOLB   C1C20345  22.601  -6.093  21.305 -0.1192  0.0374  0.3158
  848BOLB   C2C20346  22.164  -5.992  21.090  0.2674 -0.1030 -0.1243
  848BOLB   C3C20347  22.053  -5.567  20.945  0.0345 -0.3145 -0.0565
  848BOLB   C4C20348  21.967  -5.106  21.047  0.1402  0.1813  0.0097
  848BOLB   C1D20349  22.884  -6.246  20.738  0.1628  0.2237  0.2485
  848BOLB   C2D20350  22.694  -5.931  20.395 -0.0164 -0.0050 -0.2073
  848BOLB   C3D20351  22.877  -5.568  20.188  0.2401  0.2885 -0.0114
  848BOLB   C4D20352  23.161  -5.211  20.075 -0.0323  0.0346  0.3121
  849BOLB   NC120353  13.906   6.817  33.113  0.1831 -0.2024 -0.1907
  849BOLB   PO120354  14.222   6.704  33.284 -0.0800  0.5064 -0.0067
  849BOLB   GL120355  13.911   6.791  33.632 -0.0219 -0.0858 -0.2290
  849BOLB   GL220356  13.789   7.145  33.651  0.1461 -0.1535  0.1982
  849BOLB   C1A20357  13.880   6.546  34.086  0.1565 -0.3394  0.0291
  849BOLB   C2A20358  13.865   6.415  34.507  0.0520 -0.0585 -0.0454
  849BOLB   C3A20359  13.556   6.293  34.856  0.0460 -0.0218 -0.1065
  849BOLB   C4A20360  13.180   6.326  35.169  0.3737  0.3454 -0.2321
  849BOLB   C1B20361  13.663   7.434  33.932 -0.1349 -0.0941 -0.2602
  849BOLB   C2B20362  13.578   7.365  34.332 -0.3503 -0.0662  0.1156
  849BOLB   C3B20363  13.321   7.528  34.730 -0.2242 -0.3658  0.0858
  849BOLB   C4B20364  13.001   7.734  34.911 -0.1893 -0.0513  0.0430
  849BOLB   NC220365  13.500   7.041  37.895  0.0671  0.2401 -0.0328
  849BOLB   PO220366  13.525   6.770  37.644 -0.2439 -0.2748 -0.1479
  849BOLB   GL320367  13.592   6.626  37.277 -0.1525 -0.2386 -0.3076
  849BOLB   GL420368  13.309   6.436  37.225  0.0615 -0.2967  0.0698
  849BOLB   C1C20369  13.510   6.700  36.775  0.3214  0.0842  0.2277
  849BOLB   C2C20370  13.270   6.664  36.339 -0.1881 -0.2687  0.2448
  849BOLB   C3C20371  13.193   6.451  36.047 -0.0611 -0.0870  0.0399
  849BOLB   C4C20372  13.073   6.401  35.600 -0.0159  0.3392  0.1118
  849BOLB   C1D20373  13.438   6.191  36.923 -0.1755 -0.0785 -0.4685
  849BOLB   C2D20374  13.818   5.780  36.972 -0.2956 -0.2603 -0.0015
  849BOLB   C3D20375  14.158   5.592  36.761  0.1699  0.0336 -0.0860
  849BOLB   C4D20376  14.309   5.609  36.354 -0.0011 -0.0495 -0.1607
  850BOLB   NC120377  12.050  12.012  25.425  0.1676 -0.0449  0.1660
  850BOLB   PO120378  12.518  11.889  25.206 -0.1745  0.2908  0.0856
  850BOLB   GL120379  12.422  12.420  25.243 -0.3528  0.0491 -0.1275
  850BOLB   GL220380  12.242  12.424  25.422  0.1274 -0.1079  0.1195
  850BOLB   C1A20381  12.609  12.828  25.110  0.0616 -0.0185  0.0849
  850BOLB   C2A20382  12.664  13.325  25.140 -0.2411  0.4911 -0.1696
  850BOLB   C3A20383  12.469  13.648  25.384 -0.1858  0.2015 -0.0941
  850BOLB   C4A20384  12.197  13.946  25.557  0.0274 -0.1937 -0.0278
  850BOLB   C1B20385  12.073  12.785  25.334  0.0620  0.1000  0.2079
  850BOLB   C2B20386  12.166  13.109  24.974  0.0029  0.1170 -0.3131
  850BOLB   C3B20387  12.160  13.564  24.897  0.1662  0.1696 -0.3881
  850BOLB   C4B20388  12.200  13.971  25.036 -0.1826 -0.0415  0.1830
  850BOLB   NC220389  12.145  16.053  25.251 -0.2173 -0.2612 -0.0240
  850BOLB   PO220390  12.446  16.086  24.925  0.0442  0.0333 -0.1860
  850BOLB   GL320391  12.302  15.644  24.892 -0.2608 -0.1600 -0.0714
  850BOLB   GL420392  11.956  15.723  24.906 -0.3046  0.1007  0.2404
  850BOLB   C1C20393  12.222  15.216  24.946 -0.1700 -0.0375 -0.3287
  850BOLB   C2C20394  12.069  14.833  24.849 -0.1982  0.0351  0.3440
  850BOLB   C3C20395  11.914  14.427  24.916 -0.0675 -0.1163 -0.1557
  850BOLB   C4C20396  11.860  14.235  25.330 -0.3436 -0.0590 -0.1515
  850BOLB   C1D20397  11.726  15.408  24.785  0.3796 -0.0806 -0.0533
  850BOLB   C2D20398  11.609  15.014  24.917 -0.0181  0.1597 -0.0718
  850BOLB   C3D20399  11.430  14.563  24.900  0.1204  0.2354 -0.2878
  850BOLB   C4D20400  11.463  14.170  24.837 -0.2781  0.0592 -0.1048
  851BOLB   NC120401  17.525   7.754  33.116  0.0389 -0.0808  0.1639
  851BOLB   PO120402  17.486   7.954  33.562  0.1873 -0.0235 -0.3124
  851BOLB   GL120403  17.716   7.913  33.861  0.1197  0.1535 -0.1327
  851BOLB   GL220404  17.804   8.231  33.925  0.1751 -0.0811  0.0996
  851BOLB   C1A20405  17.982   7.913  34.221  0.0938 -0.0275  0.0734
  851BOLB   C2A20406  18.214   8.158  34.436 -0.1615  0.1823 -0.1066
  851BOLB   C3A20407  18.199   8.497  34.650 -0.0703  0.2285 -0.2483
  851BOLB   C4A20408  18.055   8.635  35.127 -0.1826  0.1650 -0.2377
  851BOLB   C1B20409  18.255   8.173  33.890 -0.3853 -0.3656  0.0245
  851BOLB   C2B20410  18.668   8.247  34.136  0.0561  0.0568 -0.5310
  851BOLB   C3B20411  18.897   8.403  34.530 -0.0911 -0.0732  0.1395
  851BOLB   C4B20412  19.073   8.372  34.989  0.2595 -0.2264  0.0225
  851BOLB   NC220413  18.775  10.151  37.027  0.0084  0.1562  0.0972
  851BOLB   PO220414  18.888  10.334  36.685  0.1668  0.3459  0.2167
  851BOLB   GL320415  18.873   9.944  36.456  0.0561 -0.0057 -0.1275
  851BOLB   GL420416  19.132   9.868  36.325 -0.0247  0.1125 -0.2549
  851BOLB   C1C20417  18.630   9.583  36.252 -0.0930  0.2035  0.0034
  851BOLB   C2C20418  18.467   9.202  36.059  0.1610  0.1731  0.3642
  851BOLB   C3C20419  18.179   9.019  35.831  0.1826 -0.0707 -0.3214
  851BOLB   C4C20420  18.004   8.687  35.651 -0.3591 -0.1943  0.2035
  851BOLB   C1D20421  19.152   9.532  36.011  0.2141  0.0811 -0.0991
  851BOLB   C2D20422  18.957   9.329  35.762  0.1314 -0.1759 -0.0324
  851BOLB   C3D20423  18.799   9.125  35.344 -0.0382 -0.0139  0.1020
  851BOLB   C4D20424  18.367   9.139  35.389  0.0519  0.0384  0.2418
  852BOLB   NC120425  14.204   8.021  18.197  0.0936 -0.0899  0.0896
  852BOLB   PO120426  13.862   7.688  18.332  0.2225 -0.4323 -0.1349
  852BOLB   GL120427  13.642   8.014  18.093 -0.2654 -0.3436  0.1397
  852BOLB   GL220428  13.765   8.295  18.097 -0.1520  0.2188 -0.0601
  852BOLB   C1A20429  13.380   8.492  17.986  0.1612 -0.1427  0.4375
  852BOLB   C2A20430  13.124   8.815  17.998  0.2000 -0.1025  0.0867
  852BOLB   C3A20431  12.847   9.093  18.121  0.2937  0.2056  0.2077
  852BOLB   C4A20432  12.335   9.309  17.894  0.3275 -0.3242  0.0826
  852BOLB   C1B20433  13.854   8.456  17.720 -0.1706  0.0231  0.0601
  852BOLB   C2B20434  14.166   8.462  17.443 -0.0931  0.2749  0.1684
  852BOLB   C3B20435  14.252   8.808  17.306 -0.3291 -0.3486  0.0846
  852BOLB   C4B20436  14.360   8.978  16.844  0.0511 -0.0642 -0.2537
  852BOLB   NC220437  12.243  11.429  16.560 -0.2334  0.0933 -0.0951
  852BOLB   PO220438  12.016  11.208  16.350  0.0452 -0.1388  0.2418
  852BOLB   GL320439  12.223  10.898  16.491 -0.1780  0.0979 -0.2840
  852BOLB   GL420440  12.514  10.920  16.469  0.3343  0.0816 -0.2348
  852BOLB   C1C20441  12.064  10.764  16.923  0.0417 -0.1304  0.0082
  852BOLB   C2C20442  11.850  10.534  17.303  0.0178 -0.0115  0.0170
  852BOLB   C3C20443  11.889  10.095  17.556  0.0496 -0.0637 -0.3542
  852BOLB   C4C20444  12.085   9.711  17.779 -0.0563 -0.0248  0.2056
  852BOLB   C1D20445  12.477  10.505  16.709  0.4490  0.0702  0.0501
  852BOLB   C2D20446  12.689  10.269  17.094 -0.0276  0.1306  0.0747
  852BOLB   C3D20447  12.942  10.165  17.519  0.2372  0.5626  0.0987
  852BOLB   C4D20448  12.966  10.050  18.019  0.0082 -0.3564 -0.0831
  853BOLB   NC120449  14.387   4.861  33.255 -0.0390 -0.2516  0.1207
  853BOLB   PO120450  14.237   4.611  33.573 -0.0787 -0.2459 -0.0852
  853BOLB   GL120451  14.024   4.599  33.925  0.0921  0.1095  0.1938
  853BOLB   GL220452  13.782   4.373  34.018  0.1637 -0.1405  0.3871
  853BOLB   C1A20453  13.973   4.662  34.336 -0.0513  0.2069 -0.1374
  853BOLB   C2A20454  13.871   4.681  34.718 -0.0342  0.3076 -0.0638
  853BOLB   C3A20455  13.797   4.536  35.146 -0.4267 -0.1818 -0.1488
  853BOLB   C4A20456  13.851   4.727  35.536 -0.0082 -0.1595  0.0633
  853BOLB   C1B20457  13.628   4.335  34.463  0.3687 -0.0423 -0.1214
  853BOLB   C2B20458  13.375   4.544  34.839 -0.1844  0.2070 -0.1030
  853BOLB   C3B20459  12.881   4.521  34.926  0.1019 -0.1666 -0.1565
  853BOLB   C4B20460  12.406   4.700  34.798  0.1105 -0.0913  0.2100
  853BOLB   NC220461  13.684   4.025  38.070 -0.0501  0.2704  0.6448
  853BOLB   PO220462  13.895   3.654  37.782 -0.0771 -0.0827  0.0970
  853BOLB   GL320463  13.842   3.651  37.367  0.1719 -0.1732 -0.2744
  853BOLB   GL420464  13.576   3.753  37.343 -0.1662  0.1303 -0.3807
  853BOLB   C1C20465  14.099   3.881  37.038  0.0720  0.0386 -0.0184
  853BOLB   C2C20466  14.093   4.174  36.657  0.1713 -0.0549  0.2213
  853BOLB   C3C20467  14.161   4.206  36.226  0.1561 -0.1660  0.2132
  853BOLB   C4C20468  14.073   4.574  35.970  0.1150 -0.1177  0.0601
  853BOLB   C1D20469  13.618   4.029  36.870 -0.1028  0.2241  0.1890
  853BOLB   C2D20470  13.616   3.952  36.398  0.1712  0.0178  0.1969
  853BOLB   C3D20471  13.742   3.906  35.955  0.4622  0.1688 -0.1085
  853BOLB   C4D20472  13.882   4.151  35.592 -0.0234  0.3032  0.1959
  854BOLB   NC120473  24.822   6.407  26.907  0.1617 -0.1815 -0.0779
  854BOLB   PO120474  24.534   6.465  26.613  0.0212  0.0204  0.0861
  854BOLB   GL120475  24.953   6.548  26.423 -0.0007  0.0736  0.1940
  854BOLB   GL220476  25.002   6.334  26.179 -0.0585 -0.0808 -0.2893
  854BOLB   C1A20477  25.343   6.634  26.457 -0.0356  0.2210 -0.4306
  854BOLB   C2A20478  25.779   6.483  26.586 -0.2705 -0.1622 -0.0285
  854BOLB   C3A20479  26.044   6.214  26.581  0.1688 -0.2973 -0.1717
  854BOLB   C4A20480  26.181   5.956  26.829 -0.2071 -0.2388  0.3405
  854BOLB   C1B20481  25.349   6.619  25.903  0.1256 -0.0685  0.0366
  854BOLB   C2B20482  25.647   6.864  26.159  0.0838  0.0705  0.2502
  854BOLB   C3B20483  26.001   7.143  26.035 -0.4420 -0.0672 -0.1202
  854BOLB   C4B20484  26.238   7.344  25.769  0.1362  0.3092  0.1194
  854BOLB   NC220485  28.413   6.875  27.814  0.1827  0.0060 -0.2442
  854BOLB   PO220486  28.479   6.663  27.449 -0.0115  0.0921  0.1053
  854BOLB   GL320487  28.050   6.504  27.472 -0.0751 -0.6016  0.3258
  854BOLB   GL420488  27.905   6.641  27.688  0.0976 -0.3528 -0.1809
  854BOLB   C1C20489  27.760   6.399  27.134 -0.4790 -0.0963 -0.4247
  854BOLB   C2C20490  27.373   6.263  27.174 -0.0688  0.2851  0.1990
  854BOLB   C3C20491  26.953   6.039  27.133  0.1583  0.0462  0.2006
  854BOLB   C4C20492  26.654   5.872  26.925  0.0570  0.0945  0.2384
  854BOLB   C1D20493  27.642   6.863  27.393  0.2787  0.1556 -0.1639
  854BOLB   C2D20494  27.288   6.722  27.202  0.1136  0.0769  0.2560
  854BOLB   C3D20495  26.886   6.525  27.167  0.3281 -0.2054 -0.3221
  854BOLB   C4D20496  26.493   6.280  27.198  0.0606 -0.1380  0.2140
  855BOLB   NC120497  14.340   5.059  16.704  0.1167  0.0589  0.0030
  855BOLB   PO120498  14.711   5.245  16.716  0.0345  0.1949 -0.2080
  855BOLB   GL120499  14.513   5.404  16.402 -0.1392 -0.0217  0.0226
  855BOLB   GL220500  14.504   5.653  16.424 -0.2611  0.2297  0.1369
  855BOLB   C1A20501  14.490   5.465  15.938 -0.0553 -0.1422  0.1313
  855BOLB   C2A20502  14.713   5.632  15.682 -0.1248 -0.3466  0.2347
  855BOLB   C3A20503  14.862   6.061  15.531  0.0705  0.3265 -0.1343
  855BOLB   C4A20504  14.930   6.388  15.190  0.2122 -0.3005 -0.1572
  855BOLB   C1B20505  14.665   5.932  16.094  0.2246 -0.5399  0.1587
  855BOLB   C2B20506  14.390   6.081  15.769 -0.0541  0.2369 -0.0894
  855BOLB   C3B20507  14.430   5.882  15.351  0.2430 -0.2680  0.2208
  855BOLB   C4B20508  14.388   5.487  15.250 -0.2794 -0.0752 -0.0591
  855BOLB   NC220509  14.816   7.905  13.170  0.0546 -0.0509  0.0531
  855BOLB   PO220510  14.458   8.026  13.420 -0.1866  0.0011 -0.0913
  855BOLB   GL320511  14.418   7.871  13.864 -0.2377  0.0508 -0.2068
  855BOLB   GL420512  14.181   7.631  13.717  0.1027 -0.0695  0.3700
  855BOLB   C1C20513  14.722   7.680  14.219  0.0549  0.1731  0.1369
  855BOLB   C2C20514  14.919   7.562  14.616 -0.2834 -0.3481  0.0567
  855BOLB   C3C20515  14.918   7.244  14.931 -0.3179 -0.2046 -0.2355
  855BOLB   C4C20516  14.810   6.745  15.034 -0.0896 -0.1219  0.0447
  855BOLB   C1D20517  14.225   7.529  14.145  0.0545 -0.2611  0.0380
  855BOLB   C2D20518  14.383   7.653  14.606 -0.2910  0.3181 -0.0522
  855BOLB   C3D20519  14.568   7.547  15.007 -0.0041 -0.0510 -0.1734
  855BOLB   C4D20520  14.868   7.651  15.427 -0.2696  0.2414  0.2009
  856BOLB   NC120521  23.208   2.486  19.617 -0.1642  0.2494 -0.0712
  856BOLB   PO120522  23.300   2.081  19.377  0.0991 -0.0301 -0.4412
  856BOLB   GL120523  23.471   1.824  19.000 -0.0327  0.2011 -0.1110
  856BOLB   GL220524  23.721   1.688  19.152  0.3034 -0.0417  0.0055
  856BOLB   C1A20525  23.657   1.799  18.543  0.0930 -0.0658 -0.0295
  856BOLB   C2A20526  23.746   1.657  18.208  0.1175  0.0806 -0.2454
  856BOLB   C3A20527  24.059   1.450  17.899  0.0297  0.3127  0.0031
  856BOLB   C4A20528  24.263   1.624  17.637 -0.2543 -0.0084  0.1597
  856BOLB   C1B20529  24.107   1.767  18.920 -0.0108  0.0841 -0.1414
  856BOLB   C2B20530  24.113   1.959  18.514  0.0043  0.0495 -0.0713
  856BOLB   C3B20531  24.076   1.991  18.085  0.0645 -0.0071 -0.3067
  856BOLB   C4B20532  24.324   2.099  17.821 -0.2369  0.2644  0.0489
  856BOLB   NC220533  26.410   2.244  17.067  0.2345 -0.0598  0.2218
  856BOLB   PO220534  26.236   1.826  17.073  0.1942  0.0111 -0.1636
  856BOLB   GL320535  25.940   1.538  16.966 -0.2501  0.2969  0.0588
  856BOLB   GL420536  25.833   1.440  17.215  0.2151  0.2015  0.1018
  856BOLB   C1C20537  25.652   1.633  16.562 -0.1796 -0.0867 -0.0118
  856BOLB   C2C20538  25.342   1.963  16.646 -0.2015  0.0766  0.2124
  856BOLB   C3C20539  24.918   1.851  16.934 -0.1855 -0.2010 -0.2132
  856BOLB   C4C20540  24.641   1.625  17.276  0.0155  0.0338 -0.2086
  856BOLB   C1D20541  25.347   1.532  17.031  0.2175 -0.0505  0.2194
  856BOLB   C2D20542  25.144   1.586  17.411  0.1072  0.0076 -0.0960
  856BOLB   C3D20543  24.895   1.355  17.616 -0.1229  0.1001  0.1703
  856BOLB   C4D20544  24.597   1.154  17.724  0.2507  0.0564 -0.1979
  857BOLB   NC120545  11.714  11.685  24.979  0.0677 -0.2441 -0.1498
  857BOLB   PO120546  12.163  11.745  24.817 -0.0106  0.3493  0.2400
  857BOLB   GL120547  12.051  12.148  24.846  0.1930  0.2009 -0.1951
  857BOLB   GL220548  11.824  12.120  24.634  0.0330 -0.0815  0.1787
  857BOLB   C1A20549  12.202  12.600  24.819 -0.2589  0.1957  0.0651
  857BOLB   C2A20550  12.093  12.930  24.496 -0.0569  0.2627  0.2012
  857BOLB   C3A20551  12.113  13.095  24.157 -0.2345 -0.2012 -0.0103
  857BOLB   C4A20552  12.040  13.322  23.767  0.0729 -0.4649  0.0113
  857BOLB   C1B20553  11.713  12.514  24.461  0.0737  0.1056  0.2638
  857BOLB   C2B20554  11.617  12.949  24.300 -0.4200 -0.1856 -0.3215
  857BOLB   C3B20555  11.699  13.325  24.196 -0.0065  0.0810  0.0698
  857BOLB   C4B20556  12.052  13.638  24.209  0.3676  0.2334 -0.3270
  857BOLB   NC220557  12.376  15.328  22.538  0.0347 -0.0777 -0.0377
  857BOLB   PO220558  12.116  15.311  22.969  0.0809 -0.0132 -0.0954
  857BOLB   GL320559  12.212  14.921  22.862  0.1510  0.3919 -0.1403
  857BOLB   GL420560  11.970  14.795  22.599 -0.0671 -0.1593 -0.1021
  857BOLB   C1C20561  12.188  14.507  22.993  0.0220 -0.2123 -0.0776
  857BOLB   C2C20562  12.307  14.041  23.080  0.5341  0.0891 -0.2676
  857BOLB   C3C20563  12.263  13.541  23.040  0.2322  0.3199 -0.2774
  857BOLB   C4C20564  12.301  13.381  23.409 -0.0633 -0.5206 -0.3130
  857BOLB   C1D20565  12.075  14.412  22.491 -0.0091  0.1929  0.0080
  857BOLB   C2D20566  12.372  14.060  22.454  0.0470 -0.0550  0.1968
  857BOLB   C3D20567  12.456  13.782  22.532  0.1617  0.1202  0.1240
  857BOLB   C4D20568  12.444  13.420  22.567  0.3245  0.2413 -0.0025
  858BOLB   NC120569  12.047   4.983  17.981  0.0048 -0.2181 -0.1351
  858BOLB   PO120570  11.828   4.610  18.117  0.0195 -0.2271  0.0211
  858BOLB   GL120571  11.581   4.721  17.783  0.0586  0.0979 -0.3544
  858BOLB   GL220572  11.334   4.845  17.862  0.1377  0.0970  0.0971
  858BOLB   C1A20573  11.659   4.855  17.341 -0.0336 -0.0144  0.2313
  858BOLB   C2A20574  11.432   5.056  16.941  0.1556 -0.1514 -0.2555
  858BOLB   C3A20575  11.191   5.101  16.557  0.2662 -0.3277  0.0784
  858BOLB   C4A20576  11.042   5.286  16.226  0.0358 -0.1382  0.0185
  858BOLB   C1B20577  11.153   5.075  17.474 -0.1293  0.0173 -0.1214
  858BOLB   C2B20578  10.960   5.222  17.050  0.0106  0.1324  0.0043
  858BOLB   C3B20579  10.520   5.267  16.756 -0.3728 -0.2841 -0.1869
  858BOLB   C4B20580  10.102   5.381  16.698 -0.0897 -0.2473 -0.2622
  858BOLB   NC220581   9.699   6.194  14.520 -0.0822 -0.1727 -0.0539
  858BOLB   PO220582   9.622   6.445  14.967  0.0337  0.0459 -0.2466
  858BOLB   GL320583   9.830   6.366  15.242 -0.1136 -0.0319 -0.0354
  858BOLB   GL420584   9.974   6.614  15.499 -0.0051  0.0808 -0.1789
  858BOLB   C1C20585  10.024   5.976  15.393  0.0966  0.0605 -0.4017
  858BOLB   C2C20586  10.342   5.889  15.647 -0.2299 -0.1153 -0.1129
  858BOLB   C3C20587  10.574   5.803  15.880 -0.1082  0.2313 -0.4638
  858BOLB   C4C20588  10.855   5.589  16.038  0.0216  0.2106  0.3105
  858BOLB   C1D20589  10.312   6.345  15.679 -0.2315  0.1580  0.2291
  858BOLB   C2D20590  10.754   6.352  15.741 -0.1630 -0.2070  0.2894
  858BOLB   C3D20591  11.174   6.278  15.789  0.2879 -0.0058 -0.1341
  858BOLB   C4D20592  11.293   5.913  15.946  0.1540  0.2031  0.3007
  859BOLB   NC120593  19.147  11.851  16.722 -0.2125  0.3684 -0.1533
  859BOLB   PO120594  19.143  11.975  17.121  0.2307 -0.2761 -0.0526
  859BOLB   GL120595  18.924  11.579  17.123  0.1141 -0.0362 -0.3866
  859BOLB   GL220596  18.641  11.808  17.235  0.2315  0.1361 -0.0646
  859BOLB   C1A20597  19.083  11.265  17.413  0.2869 -0.0652  0.1614
  859BOLB   C2A20598  19.151  11.041  17.708  0.2326 -0.2285 -0.2331
  859BOLB   C3A20599  19.169  11.002  18.146 -0.0657 -0.0785 -0.2005
  859BOLB   C4A20600  19.157  11.238  18.603 -0.4106 -0.0322  0.1196
  859BOLB   C1B20601  18.317  11.519  17.469  0.0848 -0.1333  0.2849
  859BOLB   C2B20602  18.000  11.408  17.744  0.4442  0.3909  0.0918
  859BOLB   C3B20603  17.751  11.272  18.081  0.4348 -0.0122 -0.2250
  859BOLB   C4B20604  17.646  11.140  18.482  0.0137  0.4206 -0.2034
  859BOLB   NC220605  21.696  12.349  18.195 -0.2764  0.2490  0.0412
  859BOLB   PO220606  21.260  12.437  18.291  0.1006 -0.0969 -0.0447
  859BOLB   GL320607  20.984  12.118  18.481 -0.6190  0.2897  0.0524
  859BOLB   GL420608  20.948  12.201  18.893 -0.0417  0.0535  0.1051
  859BOLB   C1C20609  20.591  12.021  18.510  0.1516  0.1330 -0.0001
  859BOLB   C2C20610  20.197  11.864  18.772  0.1456  0.2967  0.1790
  859BOLB   C3C20611  19.877  11.637  18.886  0.3685 -0.2925  0.1751
  859BOLB   C4C20612  19.485  11.309  18.892 -0.0709 -0.0220 -0.0178
  859BOLB   C1D20613  21.027  11.860  19.227  0.2003  0.0107  0.3674
  859BOLB   C2D20614  21.020  11.490  19.345 -0.2707  0.0397 -0.2369
  859BOLB   C3D20615  20.934  11.087  19.545 -0.1717 -0.0664  0.0751
  859BOLB   C4D20616  20.939  10.789  19.854 -0.1009  0.3469  0.3343
  860BOLB   NC120617  12.706  10.947  22.869  0.2236 -0.0296  0.3638
  860BOLB   PO120618  12.617  11.200  23.141 -0.0196  0.2607 -0.0949
  860BOLB   GL120619  12.606  11.726  23.219  0.1007  0.1945  0.0585
  860BOLB   GL220620  12.251  11.915  23.210  0.1235 -0.1736  0.1770
  860BOLB   C1A20621  12.763  12.071  22.954 -0.3414 -0.2252 -0.0706
  860BOLB   C2A20622  12.506  12.520  22.888 -0.2105 -0.1730  0.1411
  860BOLB   C3A20623  12.350  12.751  22.511 -0.0179 -0.4431  0.2077
  860BOLB   C4A20624  12.096  13.019  22.251  0.1879  0.0112 -0.0371
  860BOLB   C1B20625  11.999  12.023  23.547 -0.3349  0.0172  0.0751
  860BOLB   C2B20626  11.829  12.227  23.812  0.2690  0.2423  0.1143
  860BOLB   C3B20627  11.755  12.730  23.917 -0.0996 -0.0433 -0.0238
  860BOLB   C4B20628  11.647  13.081  23.746  0.1106  0.0015 -0.2881
  860BOLB   NC220629  12.171  15.017  21.577  0.1918  0.2284  0.0083
  860BOLB   PO220630  12.483  14.899  21.268  0.3479  0.2876 -0.0482
  860BOLB   GL320631  12.300  14.472  21.472  0.0884 -0.0790 -0.0008
  860BOLB   GL420632  12.018  14.550  21.537 -0.1150 -0.1248  0.0091
  860BOLB   C1C20633  12.385  14.101  21.478  0.0048 -0.2036 -0.3915
  860BOLB   C2C20634  12.429  13.660  21.775  0.1089  0.0351 -0.3804
  860BOLB   C3C20635  12.217  13.289  21.644  0.2425  0.1993  0.0253
  860BOLB   C4C20636  12.210  12.950  21.903  0.0068 -0.3127 -0.1379
  860BOLB   C1D20637  11.891  14.172  21.665  0.1768 -0.3543 -0.2519
  860BOLB   C2D20638  11.949  13.670  21.761  0.1158 -0.1578  0.0972
  860BOLB   C3D20639  11.817  13.300  21.902  0.0902  0.4124 -0.2598
  860BOLB   C4D20640  11.609  12.850  21.952 -0.1240 -0.1524  0.0436
  861BOLB   NC120641  11.104  -2.148  20.784 -0.0587 -0.1536  0.0058
  861BOLB   PO120642  10.863  -2.179  20.406  0.0863  0.0503  0.2851
  861BOLB   GL120643  10.351  -2.305  20.410  0.0084  0.0982 -0.0633
  861BOLB   GL220644  10.004  -2.041  20.496  0.1377  0.0858 -0.1237
  861BOLB   C1A20645  10.025  -2.612  20.443  0.1421  0.3128  0.2893
  861BOLB   C2A20646   9.999  -3.062  20.505  0.1699 -0.2392  0.0780
  861BOLB   C3A20647   9.585  -3.256  20.641 -0.2246  0.0135  0.1757
  861BOLB   C4A20648   9.619  -3.629  20.686  0.3476  0.1378 -0.0800
  861BOLB   C1B20649   9.913  -2.238  20.104  0.1431  0.0417  0.0141
  861BOLB   C2B20650   9.761  -2.609  19.873  0.1504 -0.1075 -0.1616
  861BOLB   C3B20651   9.338  -2.658  19.915 -0.0424 -0.1465 -0.2562
  861BOLB   C4B20652   8.996  -2.386  19.820  0.0461  0.3535  0.1688
  861BOLB   NC220653   8.087  -5.759  20.246 -0.1783  0.3201  0.3021
  861BOLB   PO220654   8.318  -5.608  19.904 -0.0988 -0.0339 -0.0783
  861BOLB   GL320655   8.499  -5.219  20.094 -0.1311 -0.0804 -0.0066
  861BOLB   GL420656   8.510  -4.982  19.832 -0.1947  0.2446 -0.0908
  861BOLB   C1C20657   8.616  -4.903  20.457 -0.1832 -0.0774 -0.0868
  861BOLB   C2C20658   8.751  -4.558  20.749 -0.1099 -0.0952  0.2410
  861BOLB   C3C20659   9.040  -4.329  20.881 -0.3333 -0.1287 -0.1425
  861BOLB   C4C20660   9.384  -4.022  20.932 -0.0246 -0.0759 -0.2031
  861BOLB   C1D20661   8.830  -4.913  19.920 -0.2601  0.1058  0.3592
  861BOLB   C2D20662   8.986  -4.629  20.270 -0.0173  0.0618 -0.0900
  861BOLB   C3D20663   9.206  -4.304  20.342 -0.1742  0.0024 -0.1004
  861BOLB   C4D20664   9.486  -4.009  20.349  0.0554 -0.0033  0.0291
  862BOLB   NC120665  17.554   9.042  19.773  0.1139  0.0206  0.1677
  862BOLB   PO120666  17.482   9.498  19.724 -0.2328 -0.0662 -0.1205
  862BOLB   GL120667  17.737   9.768  19.462  0.3043 -0.0388 -0.1256
  862BOLB   GL220668  17.949   9.799  19.718 -0.0343 -0.0031  0.3393
  862BOLB   C1A20669  18.057   9.635  19.163 -0.2529  0.0917  0.0149
  862BOLB   C2A20670  18.395   9.667  18.965 -0.0374 -0.1391 -0.1953
  862BOLB   C3A20671  18.474   9.972  18.724 -0.1894  0.0975  0.1354
  862BOLB   C4A20672  18.621  10.224  18.432 -0.2999 -0.1741  0.1348
  862BOLB   C1B20673  18.297   9.969  19.500 -0.0681 -0.1086 -0.0136
  862BOLB   C2B20674  18.471  10.192  19.236  0.1774  0.2097 -0.4799
  862BOLB   C3B20675  18.676  10.485  18.965 -0.0928 -0.1195 -0.1982
  862BOLB   C4B20676  18.900  10.924  18.982  0.1195  0.0430  0.1555
  862BOLB   NC220677  19.971  12.313  17.568  0.1501 -0.0935  0.1305
  862BOLB   PO220678  19.594  12.160  17.435 -0.0898 -0.2914 -0.0657
  862BOLB   GL320679  19.286  11.854  17.626  0.0536 -0.0574 -0.0172
  862BOLB   GL420680  18.916  11.965  17.617 -0.1216 -0.0749  0.1438
  862BOLB   C1C20681  19.208  11.499  17.994 -0.0735  0.3016 -0.0448
  862BOLB   C2C20682  18.817  11.479  18.321  0.1105 -0.4483 -0.2650
  862BOLB   C3C20683  18.577  11.071  18.464 -0.1019  0.0057  0.3075
  862BOLB   C4C20684  18.715  10.671  18.488  0.0141 -0.0677  0.1353
  862BOLB   C1D20685  18.766  11.550  17.767  0.3102 -0.0796 -0.0495
  862BOLB   C2D20686  18.527  11.367  17.916 -0.0266  0.1453 -0.0782
  862BOLB   C3D20687  18.210  11.060  18.201 -0.1882  0.0938 -0.2551
  862BOLB   C4D20688  17.891  10.716  18.403  0.2433  0.1023  0.3311
  863BOLB   NC120689  14.117   5.737  17.791  0.3755 -0.1865 -0.2583
  863BOLB   PO120690  14.136   5.899  17.306 -0.0894 -0.0131  0.2033
  863BOLB   GL120691  14.168   6.090  16.948  0.2895 -0.2368  0.3416
  863BOLB   GL220692  14.257   6.037  16.644 -0.2529  0.2904 -0.1570
  863BOLB   C1A20693  13.858   6.332  16.490  0.3298 -0.0528 -0.0188
  863BOLB   C2A20694  13.545   6.481  16.301 -0.0859 -0.2132 -0.0088
  863BOLB   C3A20695  13.609   6.732  15.927 -0.0278 -0.0529 -0.0095
  863BOLB   C4A20696  13.874   6.930  15.658 -0.2464 -0.1677  0.0599
  863BOLB   C1B20697  14.274   6.179  16.256  0.3616 -0.1079  0.0227
  863BOLB   C2B20698  13.935   6.314  16.004  0.1307 -0.0746  0.3668
  863BOLB   C3B20699  13.614   6.168  15.618 -0.0030  0.1422 -0.3513
  863BOLB   C4B20700  13.335   6.206  15.286 -0.1214  0.1498 -0.3146
  863BOLB   NC220701  13.533   8.755  13.669  0.1712  0.1945 -0.2258
  863BOLB   PO220702  13.197   8.536  13.774  0.0558 -0.0251  0.1149
  863BOLB   GL320703  13.187   8.154  14.153  0.0011  0.0317 -0.0880
  863BOLB   GL420704  13.197   8.236  14.473  0.1506 -0.2770 -0.1572
  863BOLB   C1C20705  13.324   7.780  14.383  0.1319 -0.2416  0.3568
  863BOLB   C2C20706  13.406   7.462  14.721 -0.2526  0.2846  0.0037
  863BOLB   C3C20707  13.668   7.211  15.015 -0.6305 -0.0776 -0.2137
  863BOLB   C4C20708  13.959   7.039  15.364 -0.1466  0.1895 -0.1651
  863BOLB   C1D20709  13.602   8.209  14.556  0.0137 -0.0432 -0.2146
  863BOLB   C2D20710  13.865   8.282  14.962 -0.0653  0.0409 -0.1903
  863BOLB   C3D20711  14.058   7.952  15.243  0.4943 -0.0748  0.0309
  863BOLB   C4D20712  14.060   7.569  15.094  0.3164  0.1294  0.1798
  864BOLB   NC120713  23.198   8.923  26.849 -0.1358  0.1553 -0.3013
  864BOLB   PO120714  23.202   9.335  27.165  0.1018  0.1166  0.0544
  864BOLB   GL120715  23.543   9.622  27.154  0.3568 -0.2231 -0.2129
  864BOLB   GL220716  23.657   9.878  26.947  0.3303 -0.0989 -0.0226
  864BOLB   C1A20717  23.755   9.917  27.504 -0.1985  0.2694  0.4893
  864BOLB   C2A20718  24.029  10.176  27.765 -0.0040  0.2922 -0.1934
  864BOLB   C3A20719  24.061  10.479  27.919 -0.1015  0.0811  0.1131
  864BOLB   C4A20720  23.851  10.906  28.085 -0.0822  0.3040  0.1433
  864BOLB   C1B20721  24.066  10.025  27.037  0.2895 -0.0494 -0.0105
  864BOLB   C2B20722  24.356   9.922  27.230  0.0151  0.0922  0.1580
  864BOLB   C3B20723  24.695   9.872  27.452  0.2017 -0.1054 -0.3956
  864BOLB   C4B20724  25.006   9.969  27.482  0.0665 -0.2616 -0.5067
  864BOLB   NC220725  25.034  12.186  29.278  0.0814 -0.1355 -0.1793
  864BOLB   PO220726  24.849  12.337  29.746 -0.2286 -0.1266  0.2524
  864BOLB   GL320727  24.450  11.966  29.705 -0.0037 -0.1118  0.1660
  864BOLB   GL420728  24.538  11.732  29.638  0.0992  0.3112 -0.4635
  864BOLB   C1C20729  24.104  11.856  29.415  0.1149 -0.0040  0.0537
  864BOLB   C2C20730  23.974  11.815  28.955 -0.0231  0.0075 -0.1950
  864BOLB   C3C20731  23.923  11.390  28.770 -0.1263  0.0657  0.2093
  864BOLB   C4C20732  23.977  11.150  28.358  0.1541  0.4540  0.4378
  864BOLB   C1D20733  24.081  11.446  29.619  0.0312  0.1710  0.2173
  864BOLB   C2D20734  23.785  11.349  29.211 -0.2021 -0.2655  0.1348
  864BOLB   C3D20735  23.504  11.590  28.996 -0.3984  0.0331 -0.0103
  864BOLB   C4D20736  23.234  11.482  28.694  0.3246  0.2959  0.0389
  865BOLB   NC120737  15.890  12.179  27.508  0.3003 -0.0236  0.0619
  865BOLB   PO120738  16.074  12.589  27.677 -0.0588 -0.0344 -0.1931
  865BOLB   GL120739  15.916  12.905  27.745 -0.1735  0.0236 -0.1650
  865BOLB   GL220740  15.642  13.051  27.588 -0.0623  0.1286  0.1455
  865BOLB   C1A20741  16.052  13.334  27.847  0.1044  0.1606  0.0341
  865BOLB   C2A20742  15.945  13.722  27.822 -0.4032  0.1605  0.1109
  865BOLB   C3A20743  15.939  14.145  27.930  0.1409 -0.0928 -0.2408
  865BOLB   C4A20744  16.267  14.399  27.976  0.0408  0.3533  0.0957
  865BOLB   C1B20745  15.627  13.436  27.506 -0.0469  0.1340  0.0565
  865BOLB   C2B20746  15.545  13.852  27.509  0.1937  0.0924  0.3486
  865BOLB   C3B20747  15.566  14.284  27.601  0.1100 -0.6448  0.5679
  865BOLB   C4B20748  15.579  14.679  27.831  0.3884 -0.0948 -0.1307
  865BOLB   NC220749  17.759  16.535  27.599 -0.0837  0.0492 -0.1100
  865BOLB   PO220750  17.373  16.395  27.841 -0.0504  0.0032 -0.1273
  865BOLB   GL320751  17.293  15.990  27.962  0.2422 -0.0029 -0.2368
  865BOLB   GL420752  17.324  15.881  28.351  0.0248 -0.2077  0.0537
  865BOLB   C1C20753  17.158  15.639  27.773 -0.2137 -0.1454  0.0534
  865BOLB   C2C20754  16.839  15.290  27.759  0.4811  0.2987 -0.0329
  865BOLB   C3C20755  16.661  14.869  27.919 -0.1836 -0.1380 -0.4133
  865BOLB   C4C20756  16.472  14.636  27.871  0.2258 -0.0685 -0.2619
  865BOLB   C1D20757  17.420  15.434  28.222 -0.2944 -0.0069 -0.2352
  865BOLB   C2D20758  17.300  14.958  28.256 -0.2288 -0.1159  0.1584
  865BOLB   C3D20759  17.002  14.584  28.223 -0.0452 -0.1740  0.1402
  865BOLB   C4D20760  16.767  14.308  28.113 -0.1708 -0.4227  0.1073
  866BOLB   NC120761   8.971  -0.984  28.240 -0.0407 -0.0826 -0.1221
  866BOLB   PO120762   9.052  -0.785  27.819 -0.3506  0.1706  0.1181
  866BOLB   GL120763   8.593  -0.815  27.836 -0.2625  0.1630  0.2332
  866BOLB   GL220764   8.543  -0.736  28.200  0.0152 -0.2991  0.1172
  866BOLB   C1A20765   8.146  -0.991  27.980 -0.1422  0.0038  0.1764
  866BOLB   C2A20766   7.796  -1.064  28.092 -0.2460  0.1700  0.3473
  866BOLB   C3A20767   7.590  -1.029  28.442 -0.2333 -0.3537  0.1792
  866BOLB   C4A20768   7.262  -1.331  28.586 -0.0388  0.4507 -0.0467
  866BOLB   C1B20769   8.419  -1.118  28.411  0.0535 -0.1526  0.0904
  866BOLB   C2B20770   8.087  -1.348  28.472  0.2963 -0.1250 -0.1235
  866BOLB   C3B20771   7.729  -1.640  28.640 -0.1401 -0.0782 -0.0162
  866BOLB   C4B20772   7.451  -1.715  29.016  0.2457 -0.1216 -0.0799
  866BOLB   NC220773   6.599  -2.901  30.541 -0.0162 -0.0381 -0.0416
  866BOLB   PO220774   6.462  -3.112  30.316 -0.0096  0.1982 -0.0372
  866BOLB   GL320775   6.599  -2.715  30.087 -0.0297 -0.1284 -0.0762
  866BOLB   GL420776   6.548  -2.449  30.221 -0.2545  0.1876  0.1172
  866BOLB   C1C20777   6.704  -2.601  29.663  0.1051  0.0374  0.1945
  866BOLB   C2C20778   6.724  -2.139  29.481  0.0140  0.0743  0.2064
  866BOLB   C3C20779   6.642  -1.834  29.120  0.4944 -0.3336 -0.2834
  866BOLB   C4C20780   6.903  -1.496  28.896 -0.1930  0.3461  0.2878
  866BOLB   C1D20781   6.919  -2.356  30.078 -0.0028  0.1215  0.0115
  866BOLB   C2D20782   7.128  -2.222  29.822 -0.1010  0.4442  0.0051
  866BOLB   C3D20783   7.188  -2.098  29.297 -0.3803  0.0071  0.0889
  866BOLB   C4D20784   7.022  -2.154  28.924  0.2019 -0.0978  0.1923
  867BOLB   NC120785  23.974   4.468  29.914 -0.0834  0.0647  0.2625
  867BOLB   PO120786  24.107   4.045  30.052 -0.0641  0.3398 -0.0307
  867BOLB   GL120787  24.499   3.935  30.103  0.1828  0.0900 -0.2095
  867BOLB   GL220788  24.638   3.771  29.889  0.0109  0.2290 -0.0859
  867BOLB   C1A20789  24.879   3.972  30.369 -0.0094 -0.0901  0.3360
  867BOLB   C2A20790  25.165   3.797  30.622  0.2652  0.0988  0.1011
  867BOLB   C3A20791  25.254   3.453  30.838 -0.0664  0.1008 -0.0201
  867BOLB   C4A20792  25.124   3.198  31.173 -0.0881 -0.0279 -0.0178
  867BOLB   C1B20793  24.947   3.576  30.063 -0.0362  0.0032 -0.0428
  867BOLB   C2B20794  25.290   3.232  30.351 -0.1969 -0.3233 -0.0895
  867BOLB   C3B20795  25.456   2.844  30.616 -0.0375 -0.2180 -0.0736
  867BOLB   C4B20796  25.651   2.842  31.059  0.2665  0.1673 -0.4189
  867BOLB   NC220797  27.487   2.169  31.461 -0.0743 -0.0851 -0.2543
  867BOLB   PO220798  27.253   2.413  31.689  0.0621 -0.1104 -0.2927
  867BOLB   GL320799  26.916   2.534  31.682 -0.2093  0.3637 -0.0843
  867BOLB   GL420800  26.957   2.662  31.364 -0.1113  0.0237 -0.3960
  867BOLB   C1C20801  26.714   2.830  31.919 -0.1468 -0.0172 -0.1000
  867BOLB   C2C20802  26.165   2.841  31.835  0.2715 -0.1049 -0.1101
  867BOLB   C3C20803  25.733   2.963  31.617 -0.2564 -0.0123 -0.0753
  867BOLB   C4C20804  25.389   3.107  31.524  0.6115 -0.4382  0.2377
  867BOLB   C1D20805  26.605   2.784  31.324 -0.0323 -0.3494  0.1746
  867BOLB   C2D20806  26.469   3.074  31.518  0.2147 -0.1334  0.0944
  867BOLB   C3D20807  26.094   3.196  31.409  0.0451 -0.4644 -0.5042
  867BOLB   C4D20808  25.765   3.323  31.107  0.0780 -0.0926 -0.1151
  868BOLB   NC120809  13.203  -3.598  27.313  0.3614  0.0172 -0.1584
  868BOLB   PO120810  12.833  -3.457  27.490  0.1279 -0.3492 -0.0385
  868BOLB   GL120811  12.790  -3.684  27.866  0.0860 -0.1646 -0.1221
  868BOLB   GL220812  12.993  -3.646  28.022  0.1254  0.0254  0.2706
  868BOLB   C1A20813  12.652  -4.121  27.943 -0.1681  0.1614 -0.1645
  868BOLB   C2A20814  12.657  -4.436  28.063 -0.3225  0.1555  0.1124
  868BOLB   C3A20815  12.674  -4.858  28.022  0.1436 -0.2337 -0.0014
  868BOLB   C4A20816  13.011  -5.014  27.895  0.0160 -0.1831 -0.0314
  868BOLB   C1B20817  13.179  -3.944  28.220  0.4126 -0.0670  0.3363
  868BOLB   C2B20818  13.114  -4.268  28.531  0.0710  0.0853  0.1172
  868BOLB   C3B20819  12.733  -4.678  28.531  0.2467 -0.0556  0.3858
  868BOLB   C4B20820  12.447  -4.974  28.493 -0.3319 -0.3378  0.0694
  868BOLB   NC220821  12.681  -7.033  28.454  0.1194  0.1685  0.1278
  868BOLB   PO220822  13.076  -7.308  28.589 -0.0946 -0.3391  0.2376
  868BOLB   GL320823  13.290  -6.948  28.612  0.2290  0.1660  0.0407
  868BOLB   GL420824  13.042  -6.765  28.679 -0.0722 -0.0477 -0.1222
  868BOLB   C1C20825  13.453  -6.596  28.401 -0.0762 -0.3713 -0.0472
  868BOLB   C2C20826  13.442  -6.177  28.217  0.4665 -0.2601 -0.0203
  868BOLB   C3C20827  13.261  -5.725  28.145 -0.2752 -0.0543 -0.2049
  868BOLB   C4C20828  13.297  -5.310  28.040  0.0017 -0.0871 -0.0721
  868BOLB   C1D20829  13.204  -6.374  28.821  0.0694 -0.2194 -0.0511
  868BOLB   C2D20830  13.113  -6.002  28.584  0.0684  0.4213 -0.1119
  868BOLB   C3D20831  13.080  -5.513  28.549  0.1522 -0.1195  0.0371
  868BOLB   C4D20832  12.856  -5.234  28.336  0.0633  0.4172  0.0405
  869BOLB   NC120833  15.673  -4.475  20.810 -0.0525 -0.2072 -0.4500
  869BOLB   PO120834  15.937  -4.256  21.143  0.1770  0.1674 -0.4478
  869BOLB   GL120835  16.156  -4.729  21.121  0.2230 -0.0720  0.1725
  869BOLB   GL220836  16.078  -4.783  20.788 -0.0421  0.3018 -0.0625
  869BOLB   C1A20837  16.214  -5.184  21.351  0.2453  0.2048 -0.3217
  869BOLB   C2A20838  16.311  -5.528  21.478 -0.0357 -0.0133  0.2369
  869BOLB   C3A20839  16.693  -5.815  21.395  0.0518  0.0549 -0.0052
  869BOLB   C4A20840  16.931  -6.105  21.305  0.3022 -0.0254  0.1334
  869BOLB   C1B20841  16.106  -5.170  20.870 -0.0886 -0.6506 -0.1566
  869BOLB   C2B20842  15.991  -5.593  20.638 -0.1543 -0.1865 -0.0718
  869BOLB   C3B20843  16.150  -5.742  20.307 -0.0325  0.0550  0.1062
  869BOLB   C4B20844  16.391  -6.051  20.113 -0.3773  0.2394  0.3012
  869BOLB   NC220845  16.743  -8.478  21.190  0.0549  0.1947  0.3450
  869BOLB   PO220846  16.912  -8.156  20.980  0.1271 -0.1433  0.1481
  869BOLB   GL320847  17.004  -7.790  20.756  0.1893 -0.1387 -0.1172
  869BOLB   GL420848  17.109  -7.629  20.944  0.1389  0.0810 -0.2049
  869BOLB   C1C20849  16.823  -7.429  20.620  0.2149  0.2693  0.5400
  869BOLB   C2C20850  16.748  -7.003  20.508  0.0861  0.2528  0.0306
  869BOLB   C3C20851  16.811  -6.573  20.728  0.0496  0.0867 -0.1022
  869BOLB   C4C20852  16.949  -6.480  21.088 -0.1558 -0.3790 -0.2285
  869BOLB   C1D20853  17.210  -7.155  20.925 -0.2058  0.3022  0.2689
  869BOLB   C2D20854  17.228  -6.842  20.656  0.0218 -0.0665  0.2776
  869BOLB   C3D20855  17.276  -6.384  20.599  0.0184  0.0439  0.0587
  869BOLB   C4D20856  17.313  -6.029  20.953  0.2881 -0.0312 -0.0942
  870BOLB   NC120857  18.780  10.923  23.743  0.3427 -0.0629 -0.2373
  870BOLB   PO120858  18.964  11.317  24.051 -0.2894 -0.2815 -0.1367
  870BOLB   GL120859  19.133  11.783  23.859  0.2232 -0.2285 -0.2354
  870BOLB   GL220860  19.025  11.875  23.407  0.1067  0.3750 -0.0571
  870BOLB   C1A20861  19.089  12.232  23.729  0.4326 -0.0455 -0.0463
  870BOLB   C2A20862  19.066  12.671  23.625 -0.4463 -0.2917  0.0287
  870BOLB   C3A20863  19.276  13.022  23.638 -0.0875  0.0683 -0.1912
  870BOLB   C4A20864  19.543  13.023  23.436  0.1416 -0.3968  0.3216
  870BOLB   C1B20865  18.852  12.275  23.267 -0.0462  0.1399 -0.4082
  870BOLB   C2B20866  18.776  12.620  23.222  0.1108 -0.2481 -0.2826
  870BOLB   C3B20867  18.854  13.108  23.294 -0.0225 -0.0485  0.0982
  870BOLB   C4B20868  18.655  13.447  23.166 -0.0005  0.2670 -0.2187
  870BOLB   NC220869  21.094  14.919  22.976  0.0278  0.1173 -0.1037
  870BOLB   PO220870  21.365  14.624  22.704 -0.0517  0.1393  0.2804
  870BOLB   GL320871  21.066  14.407  22.980 -0.5878  0.0348  0.0543
  870BOLB   GL420872  21.114  14.526  23.334 -0.1440  0.0389 -0.1084
  870BOLB   C1C20873  20.773  14.173  23.157 -0.0128 -0.3029 -0.0137
  870BOLB   C2C20874  20.499  13.886  23.256 -0.0139  0.0869 -0.0339
  870BOLB   C3C20875  20.269  13.410  23.277 -0.2592  0.0411  0.1579
  870BOLB   C4C20876  19.915  13.220  23.408 -0.0363 -0.1823  0.0628
  870BOLB   C1D20877  20.936  14.221  23.640 -0.0007  0.3084 -0.2302
  870BOLB   C2D20878  20.647  13.868  23.691 -0.0966 -0.2687  0.1667
  870BOLB   C3D20879  20.370  13.545  23.879 -0.2775 -0.2122 -0.0262
  870BOLB   C4D20880  20.031  13.405  23.972 -0.0919  0.0552  0.0224
  871BOLB   NC120881   8.573   6.064  30.075  0.0019  0.2552 -0.0828
  871BOLB   PO120882   8.486   6.484  29.924  0.2799  0.3249  0.2335
  871BOLB   GL120883   8.230   6.567  30.179  0.0522  0.2419 -0.1909
  871BOLB   GL220884   8.474   6.855  30.426 -0.2515  0.0788 -0.2668
  871BOLB   C1A20885   7.808   6.547  30.231  0.0666  0.0017  0.0124
  871BOLB   C2A20886   7.455   6.594  30.364  0.1207  0.0917  0.0992
  871BOLB   C3A20887   6.979   6.558  30.349  0.4033  0.4731 -0.3215
  871BOLB   C4A20888   6.786   6.341  30.750 -0.0213  0.0220  0.0733
  871BOLB   C1B20889   8.032   6.829  30.601 -0.2798 -0.0675 -0.0581
  871BOLB   C2B20890   7.666   6.901  30.738  0.2450 -0.1689 -0.4774
  871BOLB   C3B20891   7.230   6.755  30.923  0.2375  0.0301  0.3758
  871BOLB   C4B20892   7.040   6.466  31.248 -0.2050  0.2879 -0.0982
  871BOLB   NC220893   4.568   7.069  32.211  0.2992 -0.2531  0.0319
  871BOLB   PO220894   5.012   7.314  32.211 -0.3687 -0.0826 -0.1664
  871BOLB   GL320895   5.081   7.048  31.953 -0.3615  0.2012  0.3056
  871BOLB   GL420896   5.042   7.021  31.593 -0.0899 -0.0945 -0.0816
  871BOLB   C1C20897   5.465   6.783  31.786  0.1386  0.3501 -0.0810
  871BOLB   C2C20898   5.867   6.444  31.579 -0.2425  0.2605  0.4600
  871BOLB   C3C20899   6.107   6.290  31.257 -0.1038  0.0559  0.0521
  871BOLB   C4C20900   6.478   6.389  31.105 -0.2416  0.0636 -0.0220
  871BOLB   C1D20901   5.357   7.171  31.384 -0.1581 -0.0242 -0.2255
  871BOLB   C2D20902   5.587   7.598  31.302 -0.2658  0.1502  0.1201
  871BOLB   C3D20903   5.674   8.008  31.299 -0.0440  0.2970  0.0964
  871BOLB   C4D20904   5.538   8.426  31.119 -0.1478 -0.0275  0.1232
  872BOLB   NC120905  18.477  10.654  21.696 -0.2032  0.2032 -0.0531
  872BOLB   PO120906  18.410  11.016  21.805  0.2087  0.1233 -0.1853
  872BOLB   GL120907  18.594  11.141  21.528  0.0082  0.2677 -0.3551
  872BOLB   GL220908  18.402  11.115  21.283 -0.1071 -0.2757  0.1744
  872BOLB   C1A20909  19.074  11.245  21.534  0.0330 -0.0701  0.0128
  872BOLB   C2A20910  19.384  11.423  21.219 -0.1178  0.1121  0.2986
  872BOLB   C3A20911  19.485  11.620  20.806 -0.0278 -0.2427 -0.1825
  872BOLB   C4A20912  19.424  11.971  20.617  0.0778 -0.0109 -0.0731
  872BOLB   C1B20913  18.533  11.594  21.126 -0.0729  0.0815 -0.1761
  872BOLB   C2B20914  18.705  11.953  21.022 -0.0409  0.1101  0.1083
  872BOLB   C3B20915  18.920  12.394  21.147 -0.0912  0.0620  0.0758
  872BOLB   C4B20916  19.128  12.753  21.306  0.0685  0.1075  0.1604
  872BOLB   NC220917  19.912  14.491  20.220  0.0241 -0.0130  0.1333
  872BOLB   PO220918  19.616  14.507  19.975 -0.3960 -0.2559  0.3935
  872BOLB   GL320919  19.540  14.134  20.058 -0.2720  0.0305 -0.4356
  872BOLB   GL420920  19.426  14.281  20.375 -0.1120 -0.0585 -0.1412
  872BOLB   C1C20921  19.671  13.786  20.311 -0.0617 -0.1387  0.1372
  872BOLB   C2C20922  19.684  13.315  20.260  0.0735 -0.5993 -0.0408
  872BOLB   C3C20923  19.598  12.896  20.349 -0.3873 -0.2144 -0.1643
  872BOLB   C4C20924  19.521  12.494  20.501  0.0242 -0.0231 -0.1493
  872BOLB   C1D20925  19.430  14.034  20.711  0.0814 -0.2370  0.0199
  872BOLB   C2D20926  19.621  13.575  20.744  0.0449  0.0985 -0.0583
  872BOLB   C3D20927  19.419  13.188  20.736 -0.0380  0.0089  0.0729
  872BOLB   C4D20928  19.466  12.755  20.895 -0.3429  0.2281  0.1775
  873BOLB   NC120929  22.618   0.007  20.932 -0.1084  0.2559  0.0902
  873BOLB   PO120930  22.919  -0.201  21.301 -0.1137 -0.0285  0.0365
  873BOLB   GL120931  23.395  -0.241  21.115 -0.0843  0.1441 -0.1026
  873BOLB   GL220932  23.356  -0.596  21.031 -0.2483  0.0198  0.0997
  873BOLB   C1A20933  23.787  -0.475  21.212  0.0496  0.2099 -0.0432
  873BOLB   C2A20934  24.159  -0.604  21.091 -0.2796 -0.0029 -0.0509
  873BOLB   C3A20935  24.449  -0.540  20.821 -0.2416 -0.1579  0.2369
  873BOLB   C4A20936  24.673  -0.812  20.579 -0.1215 -0.0762  0.0087
  873BOLB   C1B20937  23.655  -0.863  20.754  0.1114 -0.3149 -0.1675
  873BOLB   C2B20938  24.057  -0.761  20.494  0.1185  0.4589  0.3109
  873BOLB   C3B20939  24.377  -0.540  20.244 -0.1592 -0.2829 -0.0151
  873BOLB   C4B20940  24.736  -0.227  20.230  0.1948 -0.2283 -0.1179
  873BOLB   NC220941  26.399  -2.036  19.611 -0.0483 -0.1001  0.2020
  873BOLB   PO220942  26.415  -1.722  19.378 -0.3928  0.1009  0.1126
  873BOLB   GL320943  26.144  -1.604  19.480 -0.0975 -0.0340 -0.0179
  873BOLB   GL420944  26.134  -1.304  19.750 -0.0510  0.2760 -0.3093
  873BOLB   C1C20945  25.734  -1.676  19.565  0.0086  0.3066 -0.1181
  873BOLB   C2C20946  25.295  -1.464  19.633 -0.0965 -0.3748 -0.0202
  873BOLB   C3C20947  25.161  -1.041  19.919 -0.0129 -0.2504  0.0163
  873BOLB   C4C20948  25.052  -0.830  20.260 -0.1441 -0.0546 -0.1346
  873BOLB   C1D20949  25.672  -1.071  19.738  0.2202  0.1299 -0.0771
  873BOLB   C2D20950  25.521  -0.687  19.623 -0.1288  0.0965 -0.0923
  873BOLB   C3D20951  25.176  -0.378  19.705  0.4016  0.1206 -0.2328
  873BOLB   C4D20952  25.062   0.053  19.580  0.0165 -0.3633 -0.0440
  874BOLB   NC120953  26.516  11.143  25.269 -0.0870 -0.2081 -0.0729
  874BOLB   PO120954  26.394  11.131  25.732 -0.0192 -0.3071 -0.1055
  874BOLB   GL120955  26.349  10.834  25.981 -0.1148 -0.1283 -0.1856
  874BOLB   GL220956  26.383  10.930  26.303  0.1003 -0.0246  0.0654
  874BOLB   C1A20957  26.070  10.489  25.883  0.1760 -0.0226  0.3371
  874BOLB   C2A20958  25.676  10.324  25.902 -0.0477 -0.0703 -0.2126
  874BOLB   C3A20959  25.244  10.331  26.199 -0.1197  0.0689  0.0784
  874BOLB   C4A20960  24.949  10.573  26.343  0.1356  0.1859  0.0900
  874BOLB   C1B20961  26.055  10.651  26.333  0.0196  0.0146 -0.0531
  874BOLB   C2B20962  25.732  10.372  26.388  0.0548  0.0326 -0.3653
  874BOLB   C3B20963  25.499   9.966  26.630  0.1916 -0.1272 -0.1146
  874BOLB   C4B20964  25.550   9.770  26.926 -0.0810 -0.0109  0.2098
  874BOLB   NC220965  25.465  13.130  26.287 -0.1538 -0.1133 -0.2241
  874BOLB   PO220966  25.107  13.261  26.206  0.1151  0.1475 -0.2404
  874BOLB   GL320967  24.804  12.900  26.392 -0.2304  0.1982  0.2666
  874BOLB   GL420968  24.652  12.865  26.532 -0.1657 -0.1558 -0.1221
  874BOLB   C1C20969  24.663  12.370  26.232 -0.1577  0.3630 -0.3335
  874BOLB   C2C20970  24.794  11.842  26.171  0.0269 -0.2699  0.0063
  874BOLB   C3C20971  24.886  11.391  26.299 -0.0484 -0.0688  0.3503
  874BOLB   C4C20972  24.870  11.018  26.460 -0.1875 -0.0823 -0.2284
  874BOLB   C1D20973  24.451  12.519  26.754 -0.1567 -0.0252  0.0684
  874BOLB   C2D20974  24.270  12.126  26.859 -0.2915 -0.0934 -0.0119
  874BOLB   C3D20975  24.002  11.894  27.051 -0.4246  0.0942  0.0262
  874BOLB   C4D20976  23.786  11.557  26.887 -0.1199 -0.1261  0.0409
  875BOLB   NC120977  14.435   6.395  17.252 -0.0043  0.0102 -0.0663
  875BOLB   PO120978  14.559   6.732  17.032  0.0811 -0.2784 -0.1002
  875BOLB   GL120979  14.457   7.122  16.792  0.1629 -0.0542  0.1008
  875BOLB   GL220980  14.721   7.340  16.768  0.0120 -0.2481  0.4035
  875BOLB   C1A20981  14.076   7.215  16.547 -0.3544 -0.5231 -0.0419
  875BOLB   C2A20982  13.800   7.600  16.399  0.0903 -0.0137  0.1239
  875BOLB   C3A20983  13.714   8.020  16.222 -0.1312  0.0547 -0.1057
  875BOLB   C4A20984  13.359   8.238  16.121  0.1460 -0.3553 -0.3630
  875BOLB   C1B20985  14.851   7.523  16.384 -0.2624 -0.0847 -0.0428
  875BOLB   C2B20986  14.753   7.369  15.911 -0.0269  0.1265 -0.1615
  875BOLB   C3B20987  14.659   6.897  15.884  0.1721 -0.1219  0.0299
  875BOLB   C4B20988  14.545   6.650  15.499  0.5019 -0.1435  0.1941
  875BOLB   NC220989  12.337   8.670  14.066  0.0118  0.0758 -0.0638
  875BOLB   PO220990  11.924   8.547  14.160 -0.0380 -0.0270 -0.3617
  875BOLB   GL320991  12.111   8.367  14.520 -0.1611 -0.1906 -0.0711
  875BOLB   GL420992  12.097   8.068  14.457  0.1214 -0.1384  0.1220
  875BOLB   C1C20993  12.461   8.241  14.827 -0.0740  0.0198 -0.0424
  875BOLB   C2C20994  12.801   8.141  15.112  0.2682  0.1569 -0.2635
  875BOLB   C3C20995  13.048   8.401  15.360 -0.0228  0.2298 -0.2056
  875BOLB   C4C20996  13.350   8.518  15.702  0.1525  0.1177  0.0991
  875BOLB   C1D20997  12.304   7.711  14.734  0.2646 -0.0344 -0.0785
  875BOLB   C2D20998  12.616   7.701  15.030 -0.0626  0.0084  0.2021
  875BOLB   C3D20999  13.009   7.722  15.289 -0.0678 -0.2512  0.1825
  875BOLB   C4D21000  12.956   7.509  15.682 -0.1660  0.0796  0.2340
  876BOLB   NC121001  21.200  -0.823  28.979 -0.0805 -0.1171 -0.1312
  876BOLB   PO121002  21.621  -0.687  29.209 -0.0004  0.0432 -0.2205
  876BOLB   GL121003  21.899  -1.037  29.280 -0.0910 -0.0263  0.1634
  876BOLB   GL221004  22.228  -1.020  29.229 -0.0704 -0.1391 -0.1937
  876BOLB   C1A21005  21.922  -1.222  29.647 -0.0313 -0.3499 -0.3000
  876BOLB   C2A21006  21.984  -1.476  30.053 -0.2534 -0.1011  0.0833
  876BOLB   C3A21007  22.002  -1.581  30.461  0.0199  0.3940  0.2195
  876BOLB   C4A21008  21.938  -1.793  30.878 -0.0453  0.0608 -0.0181
  876BOLB   C1B21009  22.438  -1.409  29.289  0.1605  0.0458 -0.1870
  876BOLB   C2B21010  22.358  -1.820  29.376 -0.0030 -0.1570  0.2339
  876BOLB   C3B21011  22.650  -2.196  29.235 -0.1402 -0.0747 -0.0267
  876BOLB   C4B21012  22.923  -2.516  29.328 -0.1615  0.0024  0.2073
  876BOLB   NC221013  22.952  -2.564  33.031 -0.5283 -0.0543 -0.0187
  876BOLB   PO221014  23.336  -2.415  32.880 -0.1846  0.1850 -0.2585
  876BOLB   GL321015  23.080  -2.397  32.508  0.0319  0.1739 -0.0344
  876BOLB   GL421016  23.019  -1.988  32.379  0.0938  0.0546 -0.0615
  876BOLB   C1C21017  22.717  -2.387  32.209 -0.1670  0.0567  0.0426
  876BOLB   C2C21018  22.292  -2.201  32.153 -0.0333  0.0504  0.2206
  876BOLB   C3C21019  22.191  -2.061  31.774  0.3532  0.1213  0.0049
  876BOLB   C4C21020  21.877  -1.934  31.391 -0.0230 -0.1265  0.0674
  876BOLB   C1D21021  22.847  -1.962  32.039  0.1406 -0.0855  0.3714
  876BOLB   C2D21022  22.577  -1.690  31.913 -0.1537  0.1922 -0.2772
  876BOLB   C3D21023  22.183  -1.560  31.882 -0.0560 -0.2912 -0.3020
  876BOLB   C4D21024  21.817  -1.565  31.723  0.1995  0.0069 -0.0807
  877BOLB   NC121025  11.118   4.125  18.182  0.2942  0.0945  0.0985
  877BOLB   PO121026  11.364   4.306  17.912 -0.4332 -0.2245 -0.3472
  877BOLB   GL121027  11.409   4.393  17.431 -0.3698  0.2570  0.1410
  877BOLB   GL221028  11.298   4.142  17.188 -0.0615 -0.0489 -0.0781
  877BOLB   C1A21029  11.122   4.649  17.159 -0.0828  0.0424 -0.0753
  877BOLB   C2A21030  10.833   4.556  16.846 -0.0345 -0.0663 -0.0020
  877BOLB   C3A21031  10.597   4.530  16.580 -0.0256 -0.0215  0.0527
  877BOLB   C4A21032  10.635   4.438  16.125  0.0377 -0.3263 -0.2690
  877BOLB   C1B21033  11.170   4.162  16.786  0.1943 -0.2768  0.0528
  877BOLB   C2B21034  10.927   4.131  16.409 -0.0440 -0.2219  0.1730
  877BOLB   C3B21035  10.525   4.003  16.275 -0.2330  0.0666 -0.0613
  877BOLB   C4B21036  10.134   4.244  16.132  0.1115  0.2976  0.4069
  877BOLB   NC221037   9.141   5.277  14.127  0.1045  0.1111 -0.0682
  877BOLB   PO221038   9.378   4.993  14.378  0.5547  0.1313 -0.1983
  877BOLB   GL321039   9.864   5.038  14.541 -0.0049  0.3332 -0.1188
  877BOLB   GL421040  10.159   5.132  14.326 -0.2256 -0.0619  0.3495
  877BOLB   C1C21041  10.031   4.860  14.816  0.1362 -0.1237  0.2623
  877BOLB   C2C21042  10.302   4.629  15.027  0.0367  0.0570 -0.2661
  877BOLB   C3C21043  10.609   4.592  15.387 -0.3029 -0.0596 -0.0627
  877BOLB   C4C21044  10.689   4.647  15.823  0.1615  0.0539 -0.1502
  877BOLB   C1D21045  10.316   5.319  14.640  0.0414 -0.1529  0.1270
  877BOLB   C2D21046  10.384   5.150  15.061  0.1655  0.0327  0.0043
  877BOLB   C3D21047  10.531   5.273  15.524  0.4020 -0.1049  0.1728
  877BOLB   C4D21048  10.718   5.114  15.842 -0.0463  0.1637  0.1712
  878BOLB   NC121049  14.125  12.334  26.488 -0.0234 -0.2544  0.0215
  878BOLB   PO121050  14.208  12.774  26.231  0.3821  0.1359  0.2536
  878BOLB   GL121051  14.022  13.109  26.170 -0.3639  0.0907  0.0433
  878BOLB   GL221052  13.914  13.270  26.455 -0.1958  0.2578  0.1642
  878BOLB   C1A21053  13.710  13.499  26.040 -0.0196 -0.0907 -0.1723
  878BOLB   C2A21054  13.819  13.725  25.714  0.0143 -0.0408 -0.0709
  878BOLB   C3A21055  13.636  13.918  25.349 -0.0689  0.3305 -0.0811
  878BOLB   C4A21056  13.576  14.163  24.953  0.2127  0.0801 -0.0600
  878BOLB   C1B21057  13.936  13.690  26.612  0.0561 -0.1476  0.0706
  878BOLB   C2B21058  13.849  14.055  26.717  0.1121 -0.1641  0.0153
  878BOLB   C3B21059  13.802  14.279  27.125 -0.1016  0.0678 -0.1095
  878BOLB   C4B21060  13.733  14.491  27.650 -0.0078 -0.1547  0.1364
  878BOLB   NC221061  12.809  15.909  24.027 -0.1205  0.1061 -0.1549
  878BOLB   PO221062  12.764  15.918  23.649  0.2165 -0.3682  0.1277
  878BOLB   GL321063  12.644  15.516  23.843  0.1597 -0.2252 -0.0319
  878BOLB   GL421064  12.330  15.398  23.752  0.0775  0.0295  0.0881
  878BOLB   C1C21065  12.734  15.251  24.054 -0.2344 -0.3620 -0.1852
  878BOLB   C2C21066  12.823  15.031  24.337  0.1152 -0.0042 -0.1658
  878BOLB   C3C21067  13.077  14.798  24.512 -0.1548 -0.0437 -0.0549
  878BOLB   C4C21068  13.204  14.513  24.924 -0.0733 -0.1167  0.1415
  878BOLB   C1D21069  12.116  15.034  23.934 -0.1025 -0.0282  0.1596
  878BOLB   C2D21070  11.824  14.956  24.274 -0.0207 -0.0375 -0.0013
  878BOLB   C3D21071  11.584  14.753  24.460 -0.3880  0.0602  0.1178
  878BOLB   C4D21072  11.300  14.474  24.385 -0.0658 -0.1085 -0.0917
  879BOLB   NC121073   4.312   6.188  30.752 -0.2546  0.1188  0.0247
  879BOLB   PO121074   4.233   6.128  30.344 -0.2555 -0.1112  0.0205
  879BOLB   GL121075   4.694   5.965  30.454 -0.3507 -0.0652  0.2346
  879BOLB   GL221076   4.789   6.226  30.203  0.1453  0.0052  0.0808
  879BOLB   C1A21077   5.080   5.967  30.712  0.0817 -0.1067 -0.0176
  879BOLB   C2A21078   5.426   6.356  30.472 -0.0388  0.0038  0.1179
  879BOLB   C3A21079   5.711   6.728  30.429  0.1082 -0.1449 -0.3020
  879BOLB   C4A21080   6.115   7.076  30.458  0.2369  0.1868 -0.1063
  879BOLB   C1B21081   4.970   6.593  30.187 -0.0475 -0.1789 -0.0034
  879BOLB   C2B21082   5.230   6.765  29.865 -0.2792 -0.0476  0.0178
  879BOLB   C3B21083   5.707   6.720  29.781  0.2850 -0.0423  0.0753
  879BOLB   C4B21084   6.098   6.850  30.033  0.1701  0.2336  0.1124
  879BOLB   NC221085   4.935   7.830  32.114 -0.1082  0.1404  0.5930
  879BOLB   PO221086   4.936   7.949  31.610  0.3400 -0.1720  0.2963
  879BOLB   GL321087   5.237   7.736  31.760 -0.1910 -0.1545 -0.1088
  879BOLB   GL421088   5.339   7.471  31.845  0.0221  0.1904  0.1602
  879BOLB   C1C21089   5.657   7.836  31.774  0.2057 -0.3064  0.0253
  879BOLB   C2C21090   6.042   7.657  31.586  0.0777  0.0933  0.2365
  879BOLB   C3C21091   6.076   7.367  31.254 -0.0252  0.1154  0.0264
  879BOLB   C4C21092   6.248   7.285  30.831  0.0890 -0.1287  0.2457
  879BOLB   C1D21093   5.700   7.354  31.793  0.2273  0.0470 -0.1538
  879BOLB   C2D21094   5.975   6.938  31.672 -0.1205 -0.1272 -0.3690
  879BOLB   C3D21095   6.327   6.704  31.700 -0.0308  0.2086  0.1137
  879BOLB   C4D21096   6.588   6.676  32.036 -0.1895  0.0673 -0.1846
  880BOLB   NC121097  19.723  -1.839  28.116 -0.1206  0.0510 -0.0759
  880BOLB   PO121098  19.924  -2.198  27.839 -0.0233  0.0043  0.0515
  880BOLB   GL121099  20.351  -2.459  27.902  0.4722  0.1604  0.2147
  880BOLB   GL221100  20.579  -2.450  27.885  0.2515  0.3995  0.3469
  880BOLB   C1A21101  20.397  -2.832  28.179  0.2813 -0.1952  0.2943
  880BOLB   C2A21102  20.617  -3.280  28.305 -0.0516 -0.3880  0.0743
  880BOLB   C3A21103  20.597  -3.620  28.653 -0.0284 -0.2869  0.1467
  880BOLB   C4A21104  20.578  -4.078  28.767 -0.3663  0.3046 -0.1777
  880BOLB   C1B21105  20.915  -2.623  28.101  0.3039  0.0365  0.0686
  880BOLB   C2B21106  21.329  -2.618  28.153  0.0176  0.0272  0.2866
  880BOLB   C3B21107  21.438  -3.153  28.126 -0.1246  0.1701 -0.0559
  880BOLB   C4B21108  21.389  -3.518  27.946  0.0636 -0.0127  0.2058
  880BOLB   NC221109  21.884  -5.964  29.366  0.2688 -0.1660  0.1221
  880BOLB   PO221110  21.434  -6.018  29.517 -0.2293  0.0233  0.0498
  880BOLB   GL321111  21.324  -5.500  29.409  0.0091  0.1039 -0.0673
  880BOLB   GL421112  21.117  -5.406  29.685 -0.1229  0.0025  0.2179
  880BOLB   C1C21113  21.111  -5.430  29.040  0.2615 -0.0991  0.2923
  880BOLB   C2C21114  20.783  -5.189  29.087 -0.0074  0.0892  0.1513
  880BOLB   C3C21115  20.595  -4.815  29.125  0.0166  0.0148  0.0253
  880BOLB   C4C21116  20.586  -4.487  28.815  0.1537  0.0552 -0.0979
  880BOLB   C1D21117  20.745  -5.169  29.567 -0.1025 -0.0408 -0.0293
  880BOLB   C2D21118  20.343  -5.110  29.473 -0.1597 -0.4591 -0.1298
  880BOLB   C3D21119  19.902  -5.135  29.355 -0.0782 -0.0497 -0.2147
  880BOLB   C4D21120  19.646  -4.747  29.111 -0.0558  0.0421  0.3360
  881BOLB   NC121121  20.418   7.183  31.645 -0.0986 -0.0044 -0.1010
  881BOLB   PO121122  20.526   7.539  31.572  0.0641  0.0766 -0.1268
  881BOLB   GL121123  20.663   7.809  31.820  0.2803 -0.0545  0.1728
  881BOLB   GL221124  20.917   7.664  31.892 -0.1250  0.1924  0.2498
  881BOLB   C1A21125  20.871   7.949  32.236  0.2317  0.0479 -0.2168
  881BOLB   C2A21126  21.205   8.039  32.469 -0.0092 -0.2543 -0.0199
  881BOLB   C3A21127  21.430   8.224  32.739 -0.1531  0.0785  0.1298
  881BOLB   C4A21128  21.722   8.469  32.902 -0.2614  0.1751  0.2811
  881BOLB   C1B21129  21.284   7.910  31.944  0.2672 -0.0765 -0.1124
  881BOLB   C2B21130  21.594   8.016  32.159  0.1793 -0.2006 -0.1485
  881BOLB   C3B21131  21.949   7.798  32.376 -0.0321  0.1705 -0.1663
  881BOLB   C4B21132  22.305   7.978  32.616 -0.0558 -0.1895  0.1104
  881BOLB   NC221133  23.139   9.317  34.337 -0.0434 -0.2267  0.0596
  881BOLB   PO221134  23.341   9.500  33.941 -0.1343 -0.3193 -0.0776
  881BOLB   GL321135  23.237   9.128  33.893  0.0367  0.3182 -0.2876
  881BOLB   GL421136  23.444   8.861  33.888  0.0707 -0.1786 -0.2155
  881BOLB   C1C21137  22.990   8.854  33.685 -0.0191  0.3346  0.1793
  881BOLB   C2C21138  22.708   8.562  33.454  0.0289 -0.0740 -0.2841
  881BOLB   C3C21139  22.417   8.268  33.144  0.0212  0.0607  0.1228
  881BOLB   C4C21140  22.102   8.336  32.931  0.2400  0.0152 -0.1444
  881BOLB   C1D21141  23.458   8.709  33.539  0.1320 -0.0886 -0.1278
  881BOLB   C2D21142  23.483   8.366  33.209 -0.1166  0.0062  0.1049
  881BOLB   C3D21143  23.299   8.301  32.750 -0.0706  0.1148 -0.0009
  881BOLB   C4D21144  23.371   8.072  32.359 -0.1038 -0.2083 -0.0443
  882BOLB   NC121145  20.302  -2.939  26.475 -0.3843  0.1470 -0.0408
  882BOLB   PO121146  20.569  -2.984  25.977 -0.1489 -0.0759  0.1029
  882BOLB   GL121147  20.650  -3.396  26.218  0.0078 -0.0887 -0.0582
  882BOLB   GL221148  20.696  -3.317  26.577 -0.4773  0.2530 -0.0224
  882BOLB   C1A21149  20.769  -3.717  26.236  0.0493  0.0972 -0.0910
  882BOLB   C2A21150  20.670  -4.098  26.463  0.2005 -0.3299  0.1180
  882BOLB   C3A21151  20.892  -4.326  26.654 -0.4003  0.1230  0.1420
  882BOLB   C4A21152  20.960  -4.667  26.698  0.1284  0.2462  0.1514
  882BOLB   C1B21153  20.570  -3.656  26.721 -0.1422  0.0593  0.1557
  882BOLB   C2B21154  20.575  -3.869  26.980 -0.2984 -0.2105 -0.2305
  882BOLB   C3B21155  20.976  -4.124  27.117 -0.0012 -0.1986  0.0948
  882BOLB   C4B21156  21.382  -4.129  26.846 -0.2188  0.0642  0.2559
  882BOLB   NC221157  21.199  -6.454  27.370  0.5552 -0.0207 -0.0098
  882BOLB   PO221158  21.201  -6.797  27.009 -0.1641  0.0403  0.0913
  882BOLB   GL321159  20.860  -6.507  26.939 -0.2785 -0.2653  0.1964
  882BOLB   GL421160  20.592  -6.526  26.853 -0.1309 -0.0230 -0.2468
  882BOLB   C1C21161  20.839  -6.186  26.526  0.1636 -0.0432 -0.2201
  882BOLB   C2C21162  21.140  -5.851  26.471  0.1429 -0.0152  0.0335
  882BOLB   C3C21163  21.250  -5.365  26.577  0.0306 -0.1729 -0.1550
  882BOLB   C4C21164  21.238  -4.940  26.730 -0.1231  0.0325  0.0605
  882BOLB   C1D21165  20.391  -6.508  26.376 -0.1694 -0.2738  0.0880
  882BOLB   C2D21166  20.232  -6.387  26.110 -0.1221  0.1519 -0.1320
  882BOLB   C3D21167  19.930  -6.236  25.820  0.0940  0.1439  0.3269
  882BOLB   C4D21168  19.579  -6.352  25.811  0.0400  0.0771 -0.1283
  883BOLB   NC121169  24.464   2.588  28.461 -0.0398  0.1753  0.1956
  883BOLB   PO121170  24.456   2.132  28.310  0.0665 -0.4923 -0.0732
  883BOLB   GL121171  24.926   2.165  28.496  0.0669  0.0647 -0.0209
  883BOLB   GL221172  25.012   2.384  28.798  0.1400 -0.2854 -0.0014
  883BOLB   C1A21173  25.366   2.204  28.395  0.2376  0.2723  0.0039
  883BOLB   C2A21174  25.687   2.020  28.212 -0.3530  0.0690  0.0794
  883BOLB   C3A21175  26.008   1.645  28.261  0.3028  0.2817 -0.1146
  883BOLB   C4A21176  26.407   1.679  28.188 -0.2376 -0.1332 -0.2754
  883BOLB   C1B21177  25.437   2.309  28.963 -0.0048 -0.0638 -0.0619
  883BOLB   C2B21178  25.649   2.465  29.303  0.1362 -0.0616 -0.3497
  883BOLB   C3B21179  25.821   2.618  29.736 -0.0204 -0.1715 -0.0637
  883BOLB   C4B21180  25.659   2.493  30.184  0.0841 -0.3520 -0.1008
  883BOLB   NC221181  28.396   1.658  28.786 -0.0252  0.2612 -0.0440
  883BOLB   PO221182  28.505   1.282  28.894  0.0583  0.2731 -0.2701
  883BOLB   GL321183  28.166   1.123  28.643  0.4474  0.1230 -0.2096
  883BOLB   GL421184  28.133   1.383  28.497  0.0502 -0.1581  0.0998
  883BOLB   C1C21185  27.829   1.024  28.432 -0.0115 -0.0129  0.0686
  883BOLB   C2C21186  27.465   1.012  28.200  0.0031  0.0839  0.1075
  883BOLB   C3C21187  27.113   1.320  28.281 -0.0619 -0.0405 -0.1590
  883BOLB   C4C21188  26.748   1.561  28.310 -0.3424  0.0136 -0.3670
  883BOLB   C1D21189  27.794   1.569  28.682 -0.0029  0.0424 -0.0430
  883BOLB   C2D21190  27.586   1.366  28.805  0.0528  0.1419 -0.3026
  883BOLB   C3D21191  27.342   1.388  29.145  0.1155  0.0399  0.1250
  883BOLB   C4D21192  26.990   1.707  29.224 -0.3457  0.0088  0.3273
  884BOLB   NC121193  14.934   7.636  32.804  0.0128 -0.2660 -0.1774
  884BOLB   PO121194  15.066   8.160  33.028 -0.2875  0.2298  0.1672
  884BOLB   GL121195  15.091   8.486  33.348 -0.0018 -0.2036 -0.0425
  884BOLB   GL221196  15.348   8.560  33.479  0.0709 -0.2781 -0.0590
  884BOLB   C1A21197  14.817   8.681  33.710 -0.0123  0.0941  0.2196
  884BOLB   C2A21198  14.800   8.940  34.019  0.0204 -0.2762 -0.4841
  884BOLB   C3A21199  14.871   9.366  34.295  0.4044 -0.0981 -0.0832
  884BOLB   C4A21200  14.741   9.687  34.556  0.1952  0.0744 -0.1928
  884BOLB   C1B21201  15.240   8.714  33.909 -0.2334 -0.6130  0.0342
  884BOLB   C2B21202  15.255   9.053  34.230  0.0110 -0.0583 -0.0104
  884BOLB   C3B21203  15.415   9.353  34.475 -0.1571 -0.2159 -0.2931
  884BOLB   C4B21204  15.234   9.761  34.641 -0.1646  0.1102  0.1207
  884BOLB   NC221205  15.237  11.526  36.340 -0.1243 -0.2225 -0.0938
  884BOLB   PO221206  15.095  11.379  35.998 -0.0082 -0.0023  0.0387
  884BOLB   GL321207  15.206  11.222  35.582 -0.1443 -0.2493  0.0756
  884BOLB   GL421208  15.239  11.419  35.358 -0.0698  0.2379 -0.2143
  884BOLB   C1C21209  15.143  10.890  35.415 -0.2212  0.1474 -0.1229
  884BOLB   C2C21210  14.834  10.565  35.346  0.1531 -0.0418 -0.0251
  884BOLB   C3C21211  14.852  10.137  35.247 -0.0399 -0.0336 -0.0916
  884BOLB   C4C21212  14.773   9.827  34.943  0.2578  0.2402 -0.0633
  884BOLB   C1D21213  15.594  11.259  35.263  0.2406 -0.0450 -0.3584
  884BOLB   C2D21214  15.672  10.824  35.013 -0.1680  0.0678 -0.0412
  884BOLB   C3D21215  15.908  10.530  34.752  0.2094 -0.1712  0.0905
  884BOLB   C4D21216  16.099  10.132  34.683  0.2913  0.0979 -0.0715
  885BOLB   NC121217  10.444   6.302  20.213 -0.1810  0.0167 -0.1666
  885BOLB   PO121218  10.140   6.132  19.866  0.0377 -0.0966  0.0364
  885BOLB   GL121219  10.215   6.094  19.419 -0.0951 -0.0253  0.3740
  885BOLB   GL221220  10.365   5.976  19.097  0.2553 -0.4334  0.1239
  885BOLB   C1A21221  10.167   6.549  19.101  0.0298  0.3469 -0.1432
  885BOLB   C2A21222   9.821   6.934  18.971 -0.0507  0.0450 -0.1861
  885BOLB   C3A21223   9.603   7.240  18.632 -0.1591  0.4429  0.0640
  885BOLB   C4A21224   9.344   7.619  18.560 -0.0448 -0.1248  0.0092
  885BOLB   C1B21225   9.972   6.091  18.991  0.1696  0.0005  0.3228
  885BOLB   C2B21226   9.737   5.933  18.611  0.1086  0.0856 -0.1422
  885BOLB   C3B21227   9.569   6.024  18.182  0.2091  0.1141  0.0273
  885BOLB   C4B21228   9.667   6.347  17.824 -0.3029  0.3055 -0.0232
  885BOLB   NC221229   7.480   8.845  17.667 -0.1288  0.0884  0.0168
  885BOLB   PO221230   7.367   8.418  17.497  0.2146 -0.0034  0.1833
  885BOLB   GL321231   7.783   8.428  17.674  0.0286  0.0052  0.4497
  885BOLB   GL421232   7.658   8.510  18.017  0.2523  0.0996 -0.2523
  885BOLB   C1C21233   8.147   8.362  17.959 -0.1446 -0.0941 -0.1994
  885BOLB   C2C21234   8.499   8.206  18.147 -0.0414  0.0426 -0.3633
  885BOLB   C3C21235   8.618   7.850  18.290  0.0672 -0.0787 -0.1282
  885BOLB   C4C21236   8.934   7.645  18.443  0.0997  0.0300 -0.0188
  885BOLB   C1D21237   7.793   8.010  18.159 -0.1142 -0.0840  0.2480
  885BOLB   C2D21238   7.922   7.497  18.210 -0.0473  0.0117 -0.1637
  885BOLB   C3D21239   8.139   7.198  18.412 -0.2533  0.1453  0.1292
  885BOLB   C4D21240   8.086   7.006  18.826 -0.1346  0.1460  0.0515
  886BOLB   NC121241  14.876  -3.122  28.539 -0.2572  0.3720  0.1601
  886BOLB   PO121242  15.084  -3.249  28.929  0.2767 -0.0849  0.1035
  886BOLB   GL121243  15.027  -3.604  28.926 -0.1109  0.2760 -0.0492
  886BOLB   GL221244  14.846  -3.667  28.595  0.0926 -0.0882  0.0220
  886BOLB   C1A21245  14.960  -4.089  29.090 -0.2335 -0.0542 -0.1773
  886BOLB   C2A21246  14.944  -4.482  29.258 -0.2983  0.0623 -0.0600
  886BOLB   C3A21247  14.998  -4.851  28.998  0.0609 -0.0204 -0.0229
  886BOLB   C4A21248  15.226  -5.244  28.911  0.6159 -0.0293  0.2175
  886BOLB   C1B21249  14.554  -3.991  28.736 -0.0264 -0.0185  0.1431
  886BOLB   C2B21250  14.403  -4.308  28.953 -0.0233 -0.3271  0.1610
  886BOLB   C3B21251  14.548  -4.766  29.226  0.2859 -0.0075  0.6700
  886BOLB   C4B21252  14.797  -5.163  29.358  0.4690 -0.6168  0.0808
  886BOLB   NC221253  15.872  -7.194  29.311  0.1389 -0.4577  0.2030
  886BOLB   PO221254  15.520  -7.119  29.560 -0.3219 -0.0032 -0.0048
  886BOLB   GL321255  15.790  -6.706  29.721 -0.4367 -0.1529 -0.1431
  886BOLB   GL421256  15.752  -6.472  29.977 -0.0199  0.1486 -0.0376
  886BOLB   C1C21257  15.982  -6.392  29.518 -0.2039  0.1050 -0.2226
  886BOLB   C2C21258  15.775  -6.135  29.143 -0.1891 -0.0924 -0.1271
  886BOLB   C3C21259  15.945  -5.867  28.904  0.5514 -0.0829  0.0392
  886BOLB   C4C21260  15.592  -5.427  28.812 -0.3633 -0.1339 -0.1966
  886BOLB   C1D21261  15.568  -6.134  29.718 -0.2603 -0.0367  0.1881
  886BOLB   C2D21262  15.434  -5.662  29.785  0.3081  0.1330  0.2542
  886BOLB   C3D21263  15.626  -5.202  29.703 -0.0267 -0.1102  0.2573
  886BOLB   C4D21264  15.832  -4.915  29.858  0.2976  0.0035 -0.2452
  887BOLB   NC121265   3.900  -1.680  22.815  0.0250  0.0582  0.2683
  887BOLB   PO121266   4.193  -2.055  22.658  0.1038  0.0666 -0.0150
  887BOLB   GL121267   4.662  -2.168  22.787 -0.0526  0.0373  0.3226
  887BOLB   GL221268   4.698  -2.315  23.020  0.2788  0.3722  0.1523
  887BOLB   C1A21269   4.989  -1.924  23.020 -0.2027  0.2201  0.1003
  887BOLB   C2A21270   5.408  -1.741  23.040 -0.0322  0.1554  0.0354
  887BOLB   C3A21271   5.765  -1.402  23.057 -0.1232 -0.0768 -0.0646
  887BOLB   C4A21272   5.760  -1.090  23.439 -0.5193 -0.3717 -0.1131
  887BOLB   C1B21273   4.626  -2.007  23.344  0.1081 -0.0646  0.1843
  887BOLB   C2B21274   4.571  -1.585  23.620 -0.1056  0.1773  0.2614
  887BOLB   C3B21275   4.711  -1.115  23.546  0.1153  0.0894  0.0352
  887BOLB   C4B21276   5.017  -0.807  23.486  0.0624 -0.3268 -0.1410
  887BOLB   NC221277   3.625  -1.319  23.736 -0.1672 -0.1120 -0.1451
  887BOLB   PO221278   3.852  -1.248  24.144 -0.3257  0.1361  0.0578
  887BOLB   GL321279   4.224  -1.062  24.292 -0.0637  0.0276 -0.2862
  887BOLB   GL421280   4.163  -1.176  24.623 -0.2081  0.1550  0.2432
  887BOLB   C1C21281   4.631  -0.912  24.402 -0.2102  0.0492  0.1259
  887BOLB   C2C21282   4.867  -0.584  24.259  0.1361 -0.0017 -0.2046
  887BOLB   C3C21283   5.258  -0.681  24.021  0.0224  0.3860  0.1901
  887BOLB   C4C21284   5.554  -0.784  23.662  0.0769 -0.3877  0.1692
  887BOLB   C1D21285   4.303  -0.725  24.690 -0.1849 -0.1434  0.1347
  887BOLB   C2D21286   4.548  -0.427  24.578 -0.0314  0.0693 -0.1715
  887BOLB   C3D21287   4.917  -0.048  24.510 -0.1972  0.2492  0.1143
  887BOLB   C4D21288   5.062   0.422  24.463 -0.1369  0.0044  0.0035
  888BOLB   NC121289  15.816   8.143  32.825 -0.3800 -0.1838 -0.2208
  888BOLB   PO121290  15.857   8.389  33.256  0.2574 -0.0402 -0.0083
  888BOLB   GL121291  15.948   8.591  33.703 -0.2142  0.1272  0.2708
  888BOLB   GL221292  16.028   8.925  33.700 -0.3223 -0.1262 -0.2427
  888BOLB   C1A21293  15.708   8.604  34.070  0.0524  0.0290 -0.1999
  888BOLB   C2A21294  15.513   8.670  34.426  0.0005  0.2002 -0.1373
  888BOLB   C3A21295  15.136   8.865  34.755 -0.2588 -0.0207  0.1756
  888BOLB   C4A21296  15.030   9.326  34.808  0.0564  0.0324  0.4005
  888BOLB   C1B21297  16.029   8.988  34.153  0.4845  0.0226  0.1132
  888BOLB   C2B21298  15.878   9.202  34.533  0.0444  0.0598 -0.0265
  888BOLB   C3B21299  15.628   9.084  34.895  0.1125 -0.0876 -0.2731
  888BOLB   C4B21300  15.326   9.050  35.180 -0.1254  0.1824 -0.3609
  888BOLB   NC221301  13.973  10.784  35.883 -0.1906  0.0647 -0.2098
  888BOLB   PO221302  14.285  10.587  36.195 -0.1756  0.1399 -0.0652
  888BOLB   GL321303  14.567  10.315  36.174 -0.0146 -0.1756 -0.0678
  888BOLB   GL421304  14.623  10.345  35.776  0.1187 -0.3749 -0.3828
  888BOLB   C1C21305  14.742   9.947  36.193  0.0007  0.2461  0.1098
  888BOLB   C2C21306  14.975   9.770  35.963 -0.1787  0.0818  0.1832
  888BOLB   C3C21307  15.139   9.538  35.518  0.2549  0.2295 -0.1318
  888BOLB   C4C21308  15.106   9.494  35.092  0.0245  0.0354  0.1867
  888BOLB   C1D21309  14.567   9.902  35.632  0.2326  0.1350 -0.0052
  888BOLB   C2D21310  14.665   9.544  35.353  0.0722 -0.1640  0.2822
  888BOLB   C3D21311  14.524   9.386  35.016 -0.1819  0.0419 -0.2123
  888BOLB   C4D21312  14.415   9.342  34.585 -0.1662  0.4016  0.0541
  889BOLB   NC121313  15.242   4.768  16.514 -0.0083  0.0569 -0.0917
  889BOLB   PO121314  15.589   5.015  16.430  0.0098 -0.1245 -0.1859
  889BOLB   GL121315  15.488   5.007  15.934 -0.2135  0.1362 -0.3159
  889BOLB   GL221316  15.313   4.765  15.760  0.1337  0.2687 -0.1461
  889BOLB   C1A21317  15.295   5.316  15.800  0.3494 -0.3892 -0.0346
  889BOLB   C2A21318  15.236   5.556  15.478  0.0727  0.0198  0.0828
  889BOLB   C3A21319  14.901   5.618  15.201 -0.1892  0.1473  0.2494
  889BOLB   C4A21320  14.858   5.822  14.854  0.0561 -0.5503 -0.1593
  889BOLB   C1B21321  15.218   4.949  15.381 -0.0835  0.0262 -0.0798
  889BOLB   C2B21322  15.122   5.079  14.951 -0.2926  0.3203  0.1982
  889BOLB   C3B21323  15.156   5.461  14.758 -0.0663  0.0977 -0.3756
  889BOLB   C4B21324  15.504   5.761  14.697 -0.0126 -0.1979 -0.1368
  889BOLB   NC221325  15.320   7.387  12.681 -0.1299  0.1380  0.0450
  889BOLB   PO221326  15.217   7.691  13.022  0.1371  0.1244  0.0423
  889BOLB   GL321327  15.069   7.529  13.407  0.2663  0.0828 -0.2618
  889BOLB   GL421328  14.765   7.601  13.544  0.1370  0.0545  0.0076
  889BOLB   C1C21329  15.051   7.264  13.817 -0.1112  0.0622  0.2049
  889BOLB   C2C21330  15.087   7.068  14.219  0.3471 -0.1128 -0.1607
  889BOLB   C3C21331  14.933   6.698  14.543 -0.0626 -0.0694  0.0494
  889BOLB   C4C21332  14.781   6.286  14.742 -0.2327  0.2613 -0.1062
  889BOLB   C1D21333  14.589   7.373  13.882  0.4396  0.0989 -0.2180
  889BOLB   C2D21334  14.664   7.217  14.303 -0.0600 -0.3120  0.2795
  889BOLB   C3D21335  14.534   7.149  14.642 -0.1546 -0.1041  0.2062
  889BOLB   C4D21336  14.391   7.048  15.007 -0.0146 -0.0898  0.0129
  890BOLB   NC121337  19.094  10.341  21.071 -0.3481  0.0989 -0.0989
  890BOLB   PO121338  19.218  10.019  20.801  0.1807 -0.3499  0.0139
  890BOLB   GL121339  19.421  10.131  20.372 -0.0056 -0.5970 -0.0870
  890BOLB   GL221340  19.116  10.135  20.125  0.0101 -0.3853  0.2142
  890BOLB   C1A21341  19.472  10.465  20.269 -0.1188 -0.2534 -0.2407
  890BOLB   C2A21342  19.537  10.962  20.208  0.0744 -0.2121 -0.2106
  890BOLB   C3A21343  19.736  11.376  20.238 -0.0392  0.0277  0.1197
  890BOLB   C4A21344  19.791  11.692  20.442 -0.1198  0.0440 -0.2256
  890BOLB   C1B21345  19.197  10.469  19.856 -0.1065 -0.2535 -0.2710
  890BOLB   C2B21346  19.539  10.661  19.738  0.0539  0.0614 -0.1712
  890BOLB   C3B21347  19.774  10.917  19.527 -0.2018  0.0638 -0.2504
  890BOLB   C4B21348  20.012  11.384  19.633  0.2638  0.1792  0.2021
  890BOLB   NC221349  19.889  13.161  18.474 -0.0780 -0.0415 -0.0469
  890BOLB   PO221350  19.760  13.499  18.806  0.2305  0.0391 -0.4799
  890BOLB   GL321351  19.415  13.246  18.977  0.0515 -0.4397 -0.2499
  890BOLB   GL421352  19.133  13.508  19.115 -0.2351  0.2991  0.1393
  890BOLB   C1C21353  19.403  12.943  19.327 -0.0801  0.1031 -0.0894
  890BOLB   C2C21354  19.372  12.479  19.519 -0.1252 -0.1482  0.0854
  890BOLB   C3C21355  19.796  12.339  19.848 -0.0370 -0.0648  0.2346
  890BOLB   C4C21356  19.877  12.110  20.214 -0.1576 -0.3847  0.0264
  890BOLB   C1D21357  19.189  13.362  19.614  0.0524  0.1846 -0.0651
  890BOLB   C2D21358  19.178  13.206  20.016  0.0634  0.0637  0.0386
  890BOLB   C3D21359  19.103  12.920  20.281  0.1567  0.3941 -0.1667
  890BOLB   C4D21360  18.931  12.480  20.233 -0.3113 -0.0423  0.1130
  891BOLB   NC121361  24.120   4.436  23.228 -0.2022  0.0528 -0.0075
  891BOLB   PO121362  24.501   4.409  23.159 -0.0576 -0.2508 -0.0947
  891BOLB   GL121363  24.909   4.638  23.074  0.1775 -0.0816 -0.1293
  891BOLB   GL221364  24.906   4.947  23.130 -0.3013  0.0302 -0.1409
  891BOLB   C1A21365  25.274   4.646  22.832 -0.0357 -0.2111  0.1679
  891BOLB   C2A21366  25.723   4.844  23.022  0.1794 -0.0761  0.0332
  891BOLB   C3A21367  26.048   5.108  23.190 -0.1103 -0.1377 -0.1600
  891BOLB   C4A21368  26.354   5.420  23.352 -0.2496  0.0075 -0.0093
  891BOLB   C1B21369  25.277   5.084  23.130  0.0329 -0.0574  0.0218
  891BOLB   C2B21370  25.546   5.215  23.390  0.0394  0.0420  0.0919
  891BOLB   C3B21371  25.822   5.241  23.666  0.2583 -0.3028 -0.0477
  891BOLB   C4B21372  25.951   5.186  24.082 -0.0198 -0.0998  0.0887
  891BOLB   NC221373  27.525   6.140  21.567 -0.1256 -0.1743  0.0376
  891BOLB   PO221374  27.880   6.112  21.877 -0.1067 -0.1469 -0.0095
  891BOLB   GL321375  27.405   5.892  22.014  0.2457 -0.0252  0.2577
  891BOLB   GL421376  27.382   5.679  21.727 -0.1112  0.1820  0.1669
  891BOLB   C1C21377  27.404   5.856  22.422  0.5298  0.3458  0.1311
  891BOLB   C2C21378  27.350   5.689  22.800 -0.0329  0.1766 -0.5398
  891BOLB   C3C21379  27.168   5.526  23.071 -0.1609  0.0796 -0.1092
  891BOLB   C4C21380  26.838   5.355  23.307  0.3744  0.3183  0.2125
  891BOLB   C1D21381  26.970   5.748  21.568 -0.3821  0.0533 -0.0649
  891BOLB   C2D21382  26.573   5.620  21.699  0.2136 -0.0154  0.0990
  891BOLB   C3D21383  26.332   5.141  21.887 -0.1127 -0.1268 -0.1455
  891BOLB   C4D21384  26.078   4.989  22.237  0.1060 -0.2804  0.0446
  892BOLB   NC121385   3.665   3.208  22.104  0.2609  0.0641  0.1288
  892BOLB   PO121386   3.676   3.158  21.599  0.1117 -0.1708  0.2033
  892BOLB   GL121387   4.104   3.162  21.455 -0.0764 -0.0749 -0.0828
  892BOLB   GL221388   4.110   3.026  21.069 -0.0345  0.1691  0.1497
  892BOLB   C1A21389   4.313   3.539  21.531  0.2458 -0.1806  0.0988
  892BOLB   C2A21390   4.637   3.639  21.734  0.0652  0.1472 -0.1717
  892BOLB   C3A21391   5.058   3.427  21.858  0.2086  0.0419  0.0611
  892BOLB   C4A21392   5.303   2.931  21.821  0.6021  0.0861  0.1403
  892BOLB   C1B21393   4.479   3.255  21.143 -0.2330 -0.1549 -0.0653
  892BOLB   C2B21394   4.618   3.571  21.105 -0.2317 -0.1550  0.3200
  892BOLB   C3B21395   4.599   3.882  20.791 -0.0657 -0.3271  0.1339
  892BOLB   C4B21396   4.745   3.952  20.409  0.0169 -0.2006 -0.1820
  892BOLB   NC221397   3.591   1.229  21.965 -0.2707 -0.4914  0.1291
  892BOLB   PO221398   3.844   0.940  21.619  0.0055  0.0654 -0.0113
  892BOLB   GL321399   4.305   1.091  21.582 -0.0083  0.0271 -0.3319
  892BOLB   GL421400   4.339   1.070  21.271 -0.1013  0.0701 -0.1848
  892BOLB   C1C21401   4.541   1.519  21.492  0.0501  0.3273 -0.0258
  892BOLB   C2C21402   4.781   1.882  21.529  0.1121 -0.2638  0.0909
  892BOLB   C3C21403   4.841   2.290  21.695  0.0376 -0.2685 -0.1456
  892BOLB   C4C21404   5.163   2.572  21.882 -0.0460  0.2512 -0.1147
  892BOLB   C1D21405   4.729   0.839  21.124 -0.0037  0.1346 -0.0010
  892BOLB   C2D21406   5.180   0.664  21.326 -0.0857  0.1745  0.0101
  892BOLB   C3D21407   5.593   0.654  21.491  0.1150  0.0879 -0.0893
  892BOLB   C4D21408   5.899   0.608  21.903  0.0588 -0.0829  0.0396
  893BOLB   NC121409   9.300   4.073  19.277 -0.0312 -0.1390 -0.1507
  893BOLB   PO121410   9.437   4.492  19.499 -0.2765 -0.3025 -0.1407
  893BOLB   GL121411   9.049   4.622  19.193  0.0859 -0.1485 -0.1802
  893BOLB   GL221412   8.829   4.422  19.201 -0.0434  0.1463  0.0038
  893BOLB   C1A21413   8.960   4.823  18.843 -0.0703  0.2439  0.0346
  893BOLB   C2A21414   8.663   4.803  18.514  0.1747 -0.2045  0.2231
  893BOLB   C3A21415   8.451   5.002  18.119 -0.1854 -0.0609 -0.1730
  893BOLB   C4A21416   8.223   5.398  17.885  0.2445 -0.1343  0.0973
  893BOLB   C1B21417   8.549   4.381  18.949 -0.0521  0.1289  0.3080
  893BOLB   C2B21418   8.139   4.593  18.630 -0.0617 -0.1740  0.0514
  893BOLB   C3B21419   7.960   4.864  18.363 -0.1852 -0.1204  0.2981
  893BOLB   C4B21420   7.983   4.982  17.842 -0.1389 -0.0160  0.1098
  893BOLB   NC221421   6.175   6.128  17.039 -0.1051 -0.4265  0.3087
  893BOLB   PO221422   6.433   6.423  17.354  0.2903  0.2868 -0.1845
  893BOLB   GL321423   6.752   6.281  17.531  0.0334  0.2781  0.0702
  893BOLB   GL421424   6.718   6.122  17.828 -0.0731  0.2012 -0.1089
  893BOLB   C1C21425   7.140   6.417  17.611  0.1343 -0.3364  0.5137
  893BOLB   C2C21426   7.533   6.339  17.443 -0.1530 -0.3528  0.3744
  893BOLB   C3C21427   8.054   6.250  17.541 -0.3967 -0.0854 -0.0485
  893BOLB   C4C21428   8.149   5.870  17.667  0.2469 -0.4411  0.0532
  893BOLB   C1D21429   6.893   5.980  18.216  0.1897 -0.1861 -0.2208
  893BOLB   C2D21430   7.059   5.861  18.641  0.1104  0.3007  0.0177
  893BOLB   C3D21431   7.253   5.940  19.035  0.3386 -0.0318  0.2664
  893BOLB   C4D21432   7.490   6.348  19.071  0.1797  0.0287  0.0415
  894BOLB   NC121433  16.277   3.637  33.548 -0.0621 -0.2733 -0.2776
  894BOLB   PO121434  16.212   3.940  33.866 -0.1171 -0.1604  0.0831
  894BOLB   GL121435  16.041   3.847  34.304 -0.0088  0.1456 -0.0064
  894BOLB   GL221436  16.105   4.257  34.301  0.1225  0.0451 -0.2635
  894BOLB   C1A21437  16.049   3.476  34.657 -0.1732  0.1746  0.3244
  894BOLB   C2A21438  15.774   3.387  35.023 -0.3405 -0.2622  0.4650
  894BOLB   C3A21439  15.659   3.422  35.407  0.1130  0.0805  0.0941
  894BOLB   C4A21440  15.240   3.560  35.584 -0.2303  0.0937  0.0693
  894BOLB   C1B21441  16.057   4.104  34.706  0.0611  0.0832  0.0460
  894BOLB   C2B21442  16.131   3.789  35.077  0.1504  0.4254 -0.2218
  894BOLB   C3B21443  16.163   3.367  35.414 -0.0483  0.0310 -0.1185
  894BOLB   C4B21444  16.195   3.041  35.819 -0.2345  0.0099  0.1130
  894BOLB   NC221445  15.836   2.518  38.141 -0.1255  0.1108 -0.0455
  894BOLB   PO221446  15.487   2.752  37.795  0.2111  0.0419  0.1734
  894BOLB   GL321447  15.345   2.760  37.372 -0.1321 -0.1067 -0.1403
  894BOLB   GL421448  15.698   2.710  37.144  0.1621  0.1668  0.5400
  894BOLB   C1C21449  15.361   3.118  37.133  0.1618  0.0258 -0.0846
  894BOLB   C2C21450  15.190   3.423  36.841  0.1077  0.1656  0.1256
  894BOLB   C3C21451  14.925   3.513  36.416 -0.0499 -0.2673 -0.3282
  894BOLB   C4C21452  14.874   3.406  35.991  0.1883 -0.3678 -0.2828
  894BOLB   C1D21453  15.751   2.921  36.712  0.1613 -0.0917 -0.4395
  894BOLB   C2D21454  15.686   2.851  36.277 -0.0371  0.0082 -0.2549
  894BOLB   C3D21455  15.674   2.902  35.807 -0.2653 -0.4634  0.4093
  894BOLB   C4D21456  15.870   2.959  35.421 -0.0108  0.2187  0.2638
  895BOLB   NC121457  17.213   3.555  33.134 -0.1747 -0.2023  0.3597
  895BOLB   PO121458  17.117   3.152  33.292  0.0295  0.2561 -0.0115
  895BOLB   GL121459  17.454   3.226  33.672 -0.0182 -0.1436  0.0725
  895BOLB   GL221460  17.756   3.032  33.608  0.2765 -0.1372  0.0728
  895BOLB   C1A21461  17.547   3.208  34.038  0.1794 -0.0614 -0.1035
  895BOLB   C2A21462  17.474   3.141  34.446 -0.1324 -0.0666  0.0282
  895BOLB   C3A21463  17.375   3.089  34.887 -0.0476 -0.0570 -0.0610
  895BOLB   C4A21464  17.490   3.294  35.269  0.0908  0.1390  0.1285
  895BOLB   C1B21465  17.998   2.745  33.904  0.0025 -0.1383 -0.2027
  895BOLB   C2B21466  18.098   2.395  34.173 -0.2888  0.0496  0.1604
  895BOLB   C3B21467  17.938   2.200  34.627 -0.1908  0.3278  0.1061
  895BOLB   C4B21468  17.931   1.912  34.878  0.1079  0.4194  0.1247
  895BOLB   NC221469  18.327   2.552  37.566 -0.3391  0.0557 -0.0524
  895BOLB   PO221470  18.507   2.931  37.224 -0.0809  0.0864  0.1858
  895BOLB   GL321471  18.621   3.218  36.885 -0.0065  0.0428  0.2031
  895BOLB   GL421472  18.481   3.570  36.984  0.1173  0.0330  0.0775
  895BOLB   C1C21473  18.595   3.413  36.472  0.0105 -0.1385 -0.2698
  895BOLB   C2C21474  18.501   3.236  36.069 -0.0013  0.1891 -0.2875
  895BOLB   C3C21475  18.251   3.296  35.715  0.1371 -0.1408  0.1481
  895BOLB   C4C21476  17.836   3.338  35.589 -0.0222 -0.2319 -0.2708
  895BOLB   C1D21477  17.971   3.608  36.943 -0.0894 -0.1804  0.2452
  895BOLB   C2D21478  17.625   3.638  36.576  0.3261  0.1621 -0.0002
  895BOLB   C3D21479  17.501   3.901  36.243  0.0703  0.0158  0.1417
  895BOLB   C4D21480  17.283   4.052  35.928 -0.1304  0.0790  0.0683
  896BOLB   NC121481  12.362   9.165  21.002 -0.0210  0.0130 -0.0018
  896BOLB   PO121482  12.001   9.458  20.847 -0.1113  0.0838  0.1837
  896BOLB   GL121483  11.739   9.708  20.684  0.3235  0.0844 -0.0594
  896BOLB   GL221484  11.358   9.803  20.583 -0.0829  0.1316  0.0333
  896BOLB   C1A21485  11.818  10.149  20.489 -0.0545 -0.0145 -0.1854
  896BOLB   C2A21486  11.707  10.596  20.483 -0.0034  0.2052 -0.2993
  896BOLB   C3A21487  11.353  10.806  20.454 -0.3695  0.0290  0.1164
  896BOLB   C4A21488  11.171  11.144  20.283  0.1305  0.1578 -0.1500
  896BOLB   C1B21489  11.300  10.239  20.564  0.0105  0.0271 -0.0171
  896BOLB   C2B21490  11.030  10.344  20.326  0.0758  0.0729 -0.2652
  896BOLB   C3B21491  10.776  10.426  20.011 -0.1865  0.4102 -0.0892
  896BOLB   C4B21492  10.681  10.890  20.183  0.0652 -0.3506 -0.2169
  896BOLB   NC221493   9.842  13.022  19.793  0.1905  0.0262 -0.2167
  896BOLB   PO221494  10.128  13.010  19.461 -0.1870 -0.0499  0.1212
  896BOLB   GL321495  10.522  12.718  19.539  0.1748  0.0130  0.1397
  896BOLB   GL421496  10.326  12.689  19.873  0.0848 -0.0478 -0.1339
  896BOLB   C1C21497  10.778  12.463  19.597  0.0635 -0.1996  0.0095
  896BOLB   C2C21498  10.904  12.132  19.779 -0.0312 -0.4403 -0.0473
  896BOLB   C3C21499  11.075  11.694  19.742  0.0475 -0.0360  0.0949
  896BOLB   C4C21500  11.114  11.293  19.928 -0.0635 -0.4142 -0.1159
  896BOLB   C1D21501  10.500  12.269  19.933  0.1173  0.1442  0.0622
  896BOLB   C2D21502  10.387  12.006  20.211  0.0668  0.2705  0.2246
  896BOLB   C3D21503  10.314  11.777  20.425  0.2374 -0.2386  0.0592
  896BOLB   C4D21504   9.860  11.552  20.593 -0.6846  0.3187  0.4721
  897BOLB   NC121505  28.240   2.840  31.494 -0.0385 -0.0250  0.1047
  897BOLB   PO121506  28.189   2.749  31.075  0.0092  0.1002  0.1767
  897BOLB   GL121507  27.724   2.674  31.039  0.0894  0.2286 -0.0883
  897BOLB   GL221508  27.662   2.554  30.854  0.2861 -0.1068 -0.0366
  897BOLB   C1A21509  27.264   2.760  31.033 -0.2091  0.0081  0.1588
  897BOLB   C2A21510  26.993   2.569  30.903 -0.0208  0.1097  0.1932
  897BOLB   C3A21511  26.448   2.553  30.885 -0.0078  0.1493 -0.1302
  897BOLB   C4A21512  26.017   2.449  31.019  0.0054 -0.0667 -0.2055
  897BOLB   C1B21513  27.304   2.650  30.494  0.0771  0.2076 -0.1449
  897BOLB   C2B21514  27.134   2.476  30.047 -0.3834  0.0074  0.0060
  897BOLB   C3B21515  26.810   2.691  29.842 -0.1137 -0.2460 -0.1976
  897BOLB   C4B21516  26.733   2.835  29.490 -0.2101  0.1964  0.0573
  897BOLB   NC221517  27.251   1.302  32.412 -0.0290  0.0719 -0.0893
  897BOLB   PO221518  27.217   1.317  32.014  0.0622 -0.0168  0.1551
  897BOLB   GL321519  26.747   1.385  31.882 -0.0843 -0.2706 -0.0217
  897BOLB   GL421520  26.737   1.396  31.560 -0.0159 -0.0558 -0.0079
  897BOLB   C1C21521  26.470   1.729  31.855  0.1264 -0.1369  0.1595
  897BOLB   C2C21522  26.135   1.842  31.684 -0.1035  0.0554  0.0049
  897BOLB   C3C21523  25.870   1.994  31.499 -0.1797 -0.0669 -0.1334
  897BOLB   C4C21524  25.672   2.274  31.269 -0.2000 -0.0533  0.1129
  897BOLB   C1D21525  26.654   1.771  31.340  0.1156 -0.2920  0.1392
  897BOLB   C2D21526  26.292   1.925  31.189  0.0834  0.0455 -0.0787
  897BOLB   C3D21527  25.992   1.947  30.913 -0.1404 -0.0194  0.0521
  897BOLB   C4D21528  25.533   1.927  30.864  0.2587 -0.2119 -0.0434
  898BOLB   NC121529  25.066   2.703  24.582 -0.3089 -0.1740 -0.1481
  898BOLB   PO121530  24.967   3.051  24.924  0.1674 -0.0435  0.1299
  898BOLB   GL121531  25.390   2.963  24.871  0.2229  0.0341  0.0084
  898BOLB   GL221532  25.379   2.580  24.980  0.1605  0.0983  0.0825
  898BOLB   C1A21533  25.770   2.950  24.767  0.1577 -0.0257  0.1653
  898BOLB   C2A21534  25.887   2.468  24.555  0.1136 -0.3196 -0.1742
  898BOLB   C3A21535  26.223   2.165  24.760  0.0664  0.0059 -0.0859
  898BOLB   C4A21536  26.686   2.234  24.688  0.2836  0.1761  0.0896
  898BOLB   C1B21537  25.449   2.139  25.052 -0.1636  0.2555  0.2209
  898BOLB   C2B21538  25.796   1.985  25.022  0.0511 -0.3280 -0.2611
  898BOLB   C3B21539  26.066   1.792  25.035  0.1179  0.4320  0.4318
  898BOLB   C4B21540  26.445   1.592  24.941  0.2916 -0.3716  0.1023
  898BOLB   NC221541  28.867   1.191  24.810  0.2595 -0.0866 -0.0034
  898BOLB   PO221542  28.972   1.528  24.505 -0.0805  0.0668 -0.2982
  898BOLB   GL321543  28.707   1.706  24.666 -0.0739 -0.1964 -0.0516
  898BOLB   GL421544  28.419   1.603  24.607  0.3023 -0.0702 -0.0268
  898BOLB   C1C21545  28.408   1.959  24.967  0.2187 -0.1990 -0.1531
  898BOLB   C2C21546  27.946   2.247  24.872 -0.3327  0.0009 -0.0184
  898BOLB   C3C21547  27.630   2.310  24.676 -0.2862  0.2108  0.0338
  898BOLB   C4C21548  27.141   2.395  24.574 -0.2803  0.1520 -0.2333
  898BOLB   C1D21549  28.042   1.538  24.978 -0.0998  0.0434  0.1232
  898BOLB   C2D21550  27.630   1.548  24.959  0.0036  0.0577  0.0216
  898BOLB   C3D21551  27.294   1.375  24.643 -0.2119  0.0332  0.2066
  898BOLB   C4D21552  26.944   1.143  24.668 -0.1387  0.0440  0.1291
  899BOLB   NC121553  16.750   6.693  17.039 -0.2497  0.2389 -0.0040
  899BOLB   PO121554  17.119   6.775  17.368  0.1613 -0.0174 -0.1220
  899BOLB   GL121555  17.240   7.128  17.034 -0.0047  0.0430  0.1188
  899BOLB   GL221556  16.907   7.176  16.839 -0.1451  0.0670 -0.1692
  899BOLB   C1A21557  17.303   7.564  16.925 -0.1995  0.4060 -0.0942
  899BOLB   C2A21558  17.489   8.015  16.748 -0.2717 -0.1674  0.2875
  899BOLB   C3A21559  17.706   8.288  16.426  0.3847 -0.1336  0.1140
  899BOLB   C4A21560  17.924   8.169  16.060 -0.1926  0.1878  0.0996
  899BOLB   C1B21561  16.812   7.367  16.428  0.0950 -0.2663  0.4709
  899BOLB   C2B21562  16.956   7.520  15.979 -0.0118 -0.0526 -0.0025
  899BOLB   C3B21563  17.091   7.826  15.689 -0.1694 -0.1248  0.2854
  899BOLB   C4B21564  17.316   8.046  15.408  0.1380  0.2485  0.0068
  899BOLB   NC221565  17.874   9.264  13.830 -0.1983  0.1217 -0.0164
  899BOLB   PO221566  17.889   8.884  13.638  0.1067 -0.1959 -0.0291
  899BOLB   GL321567  17.747   8.845  14.119  0.0493  0.0423  0.1549
  899BOLB   GL421568  17.486   8.703  14.094 -0.0592  0.0096 -0.1648
  899BOLB   C1C21569  17.520   8.987  14.533  0.0718  0.0797 -0.0321
  899BOLB   C2C21570  17.554   8.890  15.038 -0.1390  0.1774  0.1177
  899BOLB   C3C21571  17.854   8.742  15.397  0.0034 -0.1477 -0.2668
  899BOLB   C4C21572  17.846   8.428  15.722 -0.5081 -0.2125  0.0742
  899BOLB   C1D21573  17.522   8.373  14.491 -0.0990 -0.2824  0.2708
  899BOLB   C2D21574  17.359   8.425  14.896  0.2264  0.1081  0.0864
  899BOLB   C3D21575  17.361   8.506  15.317  0.4094  0.1516  0.1033
  899BOLB   C4D21576  17.401   8.396  15.795 -0.3542  0.3625 -0.0064
  900BOLB   NC121577  23.616   7.093  29.468  0.1159 -0.0058 -0.2016
  900BOLB   PO121578  23.711   7.254  29.013 -0.0780  0.0084 -0.2958
  900BOLB   GL121579  24.030   7.432  29.311 -0.0745 -0.0373 -0.0707
  900BOLB   GL221580  24.215   7.201  29.519  0.0359 -0.1466  0.0977
  900BOLB   C1A21581  24.429   7.645  29.443  0.3140  0.1294  0.0704
  900BOLB   C2A21582  24.812   7.954  29.394  0.1158  0.1260  0.2082
  900BOLB   C3A21583  25.236   7.806  29.511 -0.3944  0.1578 -0.1969
  900BOLB   C4A21584  25.596   7.950  29.452  0.1517  0.1775 -0.1887
  900BOLB   C1B21585  24.451   7.241  29.853 -0.0267  0.3484 -0.1338
  900BOLB   C2B21586  24.719   7.369  30.132  0.0177  0.0197 -0.1867
  900BOLB   C3B21587  25.009   7.362  30.476  0.1047  0.2240 -0.2075
  900BOLB   C4B21588  24.996   7.035  30.893  0.2847 -0.0155 -0.2244
  900BOLB   NC221589  28.410   7.960  29.548  0.2081 -0.1141 -0.0759
  900BOLB   PO221590  27.975   7.766  29.630  0.0959  0.0017 -0.1005
  900BOLB   GL321591  27.634   8.037  29.538 -0.3785  0.0129  0.0289
  900BOLB   GL421592  27.534   7.755  29.210 -0.0654  0.2382  0.0549
  900BOLB   C1C21593  27.235   7.974  29.497  0.0041  0.0739 -0.0318
  900BOLB   C2C21594  26.837   7.849  29.304 -0.1732  0.2493  0.0795
  900BOLB   C3C21595  26.442   7.698  29.376 -0.1010 -0.1844 -0.0967
  900BOLB   C4C21596  26.038   7.759  29.451 -0.0520  0.0843 -0.1373
  900BOLB   C1D21597  27.147   7.534  28.932 -0.1186 -0.3808  0.1079
  900BOLB   C2D21598  26.736   7.601  28.729  0.0033  0.0571  0.0019
  900BOLB   C3D21599  26.275   7.625  28.868  0.0807  0.0705 -0.0736
  900BOLB   C4D21600  25.925   7.247  28.753  0.2838  0.4481 -0.1351
  901BOLB   NC121601   7.850   5.184  29.617  0.0970 -0.0151  0.2438
  901BOLB   PO121602   7.888   5.616  29.640 -0.2353 -0.0503  0.2080
  901BOLB   GL121603   7.587   5.517  29.893  0.2156 -0.1379  0.3155
  901BOLB   GL221604   7.616   5.796  30.052  0.1088  0.0452  0.0670
  901BOLB   C1A21605   7.196   5.635  29.968  0.0101 -0.3083  0.4378
  901BOLB   C2A21606   6.873   5.759  29.750  0.2628  0.1579  0.0850
  901BOLB   C3A21607   6.609   5.625  30.089 -0.0425 -0.3888  0.1165
  901BOLB   C4A21608   6.250   5.879  30.201  0.2390  0.1143 -0.0323
  901BOLB   C1B21609   7.251   6.045  30.497  0.1702  0.2443 -0.1544
  901BOLB   C2B21610   7.274   6.228  30.896 -0.3522 -0.2134  0.1795
  901BOLB   C3B21611   7.392   6.091  31.291  0.0036 -0.1990 -0.0053
  901BOLB   C4B21612   7.867   6.113  31.289  0.0138 -0.4889 -0.2052
  901BOLB   NC221613   3.812   5.533  29.942 -0.1517  0.2569  0.1075
  901BOLB   PO221614   3.920   5.892  30.041  0.0329  0.0736 -0.0898
  901BOLB   GL321615   4.366   5.826  29.903 -0.1751 -0.1504 -0.3294
  901BOLB   GL421616   4.446   6.061  29.637  0.0845 -0.0751 -0.1355
  901BOLB   C1C21617   4.774   5.793  29.920 -0.1374  0.2075 -0.0077
  901BOLB   C2C21618   5.134   5.853  30.252  0.1970 -0.4344 -0.0338
  901BOLB   C3C21619   5.588   5.922  30.398 -0.2807  0.1222 -0.0171
  901BOLB   C4C21620   5.920   5.900  30.257  0.0167  0.1930  0.1326
  901BOLB   C1D21621   4.784   5.998  29.447  0.1008 -0.1325 -0.1537
  901BOLB   C2D21622   5.144   5.725  29.608 -0.1519  0.6401 -0.0091
  901BOLB   C3D21623   5.591   5.751  29.679  0.0628  0.0745  0.0531
  901BOLB   C4D21624   6.036   5.923  29.695 -0.2096 -0.3113 -0.0003
  902BOLB   NC121625  10.504  10.200  25.152  0.2103  0.0471 -0.4799
  902BOLB   PO121626  10.289  10.468  24.889 -0.2049 -0.0317 -0.2397
  902BOLB   GL121627  10.305  10.955  24.766 -0.1921  0.2684  0.1461
  902BOLB   GL221628  10.051  11.051  24.960 -0.3244 -0.1847 -0.1161
  902BOLB   C1A21629  10.338  11.404  24.597 -0.0132 -0.1031  0.1956
  902BOLB   C2A21630  10.215  11.702  24.760  0.2620 -0.0824  0.1788
  902BOLB   C3A21631   9.920  11.852  24.855 -0.0860 -0.1953 -0.0857
  902BOLB   C4A21632   9.710  12.286  24.807  0.0050 -0.1840  0.3542
  902BOLB   C1B21633   9.871  11.315  24.937 -0.1611  0.1423 -0.1922
  902BOLB   C2B21634   9.446  11.557  24.758 -0.0962 -0.0458 -0.3083
  902BOLB   C3B21635   9.370  11.536  24.430  0.1840  0.2335 -0.2254
  902BOLB   C4B21636   9.659  11.408  24.019 -0.0901 -0.0544  0.0777
  902BOLB   NC221637   8.515  14.279  24.664 -0.2418 -0.1580 -0.1539
  902BOLB   PO221638   8.170  14.022  24.538 -0.0878  0.1117 -0.3326
  902BOLB   GL321639   8.592  13.751  24.580  0.0672 -0.3468 -0.1006
  902BOLB   GL421640   8.588  13.468  24.398 -0.0564  0.0403  0.0985
  902BOLB   C1C21641   8.949  13.523  24.681  0.3996  0.1529  0.0263
  902BOLB   C2C21642   9.282  13.327  24.888 -0.1520 -0.0105 -0.1487
  902BOLB   C3C21643   9.660  13.113  25.027  0.1540 -0.0883 -0.0479
  902BOLB   C4C21644   9.742  12.700  25.017 -0.0037  0.1437 -0.0750
  902BOLB   C1D21645   8.741  13.295  24.040  0.0328  0.1421  0.0243
  902BOLB   C2D21646   8.759  12.794  24.003 -0.1139  0.3084 -0.1560
  902BOLB   C3D21647   8.865  12.475  24.311 -0.3143 -0.2231  0.0283
  902BOLB   C4D21648   8.976  12.411  24.761 -0.0856 -0.0200 -0.1684
  903BOLB   NC121649  21.928  -1.388  27.425 -0.0481 -0.0366 -0.1487
  903BOLB   PO121650  22.138  -1.268  27.344  0.3207 -0.0229 -0.2284
  903BOLB   GL121651  22.352  -1.698  27.247 -0.0852  0.0418  0.1923
  903BOLB   GL221652  22.667  -1.672  27.060  0.1161 -0.4224 -0.0164
  903BOLB   C1A21653  22.303  -2.215  27.278  0.1008  0.1376 -0.0527
  903BOLB   C2A21654  22.496  -2.383  27.616  0.2672 -0.0491 -0.1345
  903BOLB   C3A21655  22.915  -2.362  27.827 -0.0903 -0.0288  0.1603
  903BOLB   C4A21656  23.121  -2.719  28.059  0.1039  0.0085 -0.3095
  903BOLB   C1B21657  22.754  -2.013  27.331 -0.0265  0.1509 -0.1138
  903BOLB   C2B21658  22.945  -2.390  27.352  0.0578 -0.2135  0.0806
  903BOLB   C3B21659  23.121  -2.719  27.494 -0.2358 -0.2240  0.1182
  903BOLB   C4B21660  22.959  -3.099  27.532  0.1113  0.0269  0.1304
  903BOLB   NC221661  25.444  -4.027  27.818 -0.3511 -0.3328 -0.1476
  903BOLB   PO221662  25.106  -4.117  28.213 -0.2894  0.2235  0.3011
  903BOLB   GL321663  24.960  -3.845  27.924 -0.0335  0.0869  0.1083
  903BOLB   GL421664  25.073  -3.547  27.772  0.2438 -0.1361  0.0914
  903BOLB   C1C21665  24.527  -3.620  27.879  0.1399  0.2379  0.0969
  903BOLB   C2C21666  24.290  -3.179  28.019  0.0557  0.0371  0.3034
  903BOLB   C3C21667  23.938  -2.920  28.177  0.4938 -0.2615 -0.0903
  903BOLB   C4C21668  23.559  -2.731  28.169  0.2680  0.1125  0.2468
  903BOLB   C1D21669  24.749  -3.217  27.752 -0.2519 -0.0313  0.2930
  903BOLB   C2D21670  24.441  -3.115  27.543 -0.1165 -0.1391  0.0752
  903BOLB   C3D21671  24.325  -2.672  27.691 -0.0781 -0.0114  0.4776
  903BOLB   C4D21672  23.998  -2.465  27.919 -0.0317  0.0229  0.1668
  904BOLB   NC121673  14.911   8.624  17.960 -0.0035  0.1147  0.1411
  904BOLB   PO121674  15.361   8.617  18.107  0.2237 -0.0494  0.1562
  904BOLB   GL121675  15.352   8.904  17.757 -0.0826 -0.1311 -0.3650
  904BOLB   GL221676  15.175   8.672  17.507  0.0879 -0.0580  0.0397
  904BOLB   C1A21677  15.090   9.201  17.529 -0.1346  0.0939  0.0165
  904BOLB   C2A21678  14.788   9.534  17.572  0.1032  0.0100  0.2015
  904BOLB   C3A21679  14.522  10.000  17.385 -0.1584  0.4202  0.0515
  904BOLB   C4A21680  14.161   9.827  17.075  0.2475  0.0182 -0.1750
  904BOLB   C1B21681  15.344   8.940  17.162 -0.2304  0.0731 -0.0727
  904BOLB   C2B21682  15.356   9.303  17.010  0.3172  0.1600  0.0035
  904BOLB   C3B21683  15.074   9.615  17.077 -0.1672 -0.1855  0.0417
  904BOLB   C4B21684  15.058   9.956  17.392 -0.1426  0.0446  0.0082
  904BOLB   NC221685  12.808  11.932  16.139 -0.0388 -0.0101 -0.2077
  904BOLB   PO221686  13.046  11.575  16.037  0.0970  0.0400 -0.0530
  904BOLB   GL321687  12.958  11.081  16.280  0.1194  0.0502 -0.0051
  904BOLB   GL421688  13.293  10.885  16.294 -0.0231  0.0064  0.1570
  904BOLB   C1C21689  12.987  10.876  16.762  0.0341  0.0549 -0.2399
  904BOLB   C2C21690  13.132  10.543  17.060  0.0158  0.1005  0.2646
  904BOLB   C3C21691  13.594  10.423  16.998 -0.3010  0.0513  0.0678
  904BOLB   C4C21692  13.827  10.089  16.875  0.1750 -0.0831  0.1087
  904BOLB   C1D21693  13.619  10.794  16.537  0.1878  0.1035  0.1984
  904BOLB   C2D21694  13.985  10.574  16.610  0.1190 -0.0807  0.2866
  904BOLB   C3D21695  14.304  10.251  16.744 -0.2749 -0.2909 -0.2633
  904BOLB   C4D21696  14.300   9.855  16.586  0.2030 -0.0342  0.0819
  905BOLB   NC121697   7.340   8.127  34.641  0.1297  0.2410 -0.0663
  905BOLB   PO121698   7.885   8.121  34.760 -0.0065  0.3626 -0.2277
  905BOLB   GL121699   8.088   8.154  34.357 -0.2307  0.2442  0.0511
  905BOLB   GL221700   8.465   8.090  34.233 -0.1097  0.0177 -0.2700
  905BOLB   C1A21701   8.135   8.186  33.939  0.2410 -0.5689 -0.1405
  905BOLB   C2A21702   8.113   8.107  33.474 -0.1749  0.0811 -0.1212
  905BOLB   C3A21703   8.377   7.972  33.159 -0.1400  0.1904  0.1139
  905BOLB   C4A21704   8.817   7.956  33.166  0.1066  0.4417 -0.0224
  905BOLB   C1B21705   8.618   8.239  33.935  0.1440 -0.0045 -0.0242
  905BOLB   C2B21706   8.709   8.646  33.825 -0.1507 -0.1568  0.3744
  905BOLB   C3B21707   8.537   9.202  33.797 -0.2905  0.1820  0.0207
  905BOLB   C4B21708   8.162   9.238  33.457 -0.0017 -0.1958 -0.2476
  905BOLB   NC221709   9.665   7.260  30.917 -0.0650 -0.0539 -0.3368
  905BOLB   PO221710  10.012   7.115  31.037  0.2524  0.2901 -0.2705
  905BOLB   GL321711   9.895   7.452  31.391 -0.2592 -0.0958 -0.0541
  905BOLB   GL421712   9.884   7.788  31.426 -0.1000  0.0643  0.3943
  905BOLB   C1C21713   9.604   7.601  31.703 -0.3311 -0.1585 -0.3940
  905BOLB   C2C21714   9.317   7.777  31.998 -0.0779 -0.0669 -0.1076
  905BOLB   C3C21715   9.166   7.885  32.430 -0.0082  0.0328  0.1038
  905BOLB   C4C21716   8.979   7.786  32.790 -0.3573  0.0420  0.3078
  905BOLB   C1D21717   9.824   7.993  31.831 -0.0390  0.2604 -0.1697
  905BOLB   C2D21718   9.507   8.177  32.223 -0.1631 -0.0343 -0.1615
  905BOLB   C3D21719   9.584   8.115  32.603  0.2074  0.0145 -0.0954
  905BOLB   C4D21720   9.826   7.746  32.859 -0.0141  0.0010 -0.0380
  906BOLB   NC121721  11.188  10.089  22.068  0.1969  0.0054 -0.0588
  906BOLB   PO121722  10.707   9.855  22.073 -0.3819  0.0357 -0.0909
  906BOLB   GL121723  10.797  10.175  21.723 -0.2438  0.0613 -0.0177
  906BOLB   GL221724  10.507  10.080  21.657  0.0872  0.4453 -0.1501
  906BOLB   C1A21725  10.801  10.646  21.558 -0.2082 -0.2166  0.3807
  906BOLB   C2A21726  10.608  11.021  21.470 -0.2270  0.2452 -0.0251
  906BOLB   C3A21727  10.522  11.383  21.228  0.1723  0.0196  0.0566
  906BOLB   C4A21728  10.271  11.721  20.979 -0.0603  0.0140  0.0040
  906BOLB   C1B21729  10.289  10.472  21.702 -0.1384  0.0267 -0.2549
  906BOLB   C2B21730  10.182  10.755  21.501 -0.0171 -0.0555  0.2402
  906BOLB   C3B21731  10.093  11.235  21.451 -0.3028 -0.0972  0.1386
  906BOLB   C4B21732  10.102  11.675  21.419 -0.4690  0.2031 -0.2258
  906BOLB   NC221733   8.005  12.914  20.828  0.1907  0.3019 -0.1942
  906BOLB   PO221734   8.177  12.762  20.448  0.1984  0.0088  0.2079
  906BOLB   GL321735   8.406  12.539  20.716 -0.1427 -0.0863 -0.0781
  906BOLB   GL421736   8.144  12.510  21.075  0.3122 -0.0538  0.2058
  906BOLB   C1C21737   8.791  12.489  20.888 -0.2957  0.0233 -0.1334
  906BOLB   C2C21738   9.168  12.466  20.745  0.0757 -0.2119 -0.1575
  906BOLB   C3C21739   9.588  12.314  20.773 -0.1273  0.1932  0.1612
  906BOLB   C4C21740  10.009  12.043  20.757 -0.1519 -0.0260 -0.3921
  906BOLB   C1D21741   8.438  12.325  21.288 -0.1775  0.0280  0.2517
  906BOLB   C2D21742   8.887  12.176  21.267  0.0383 -0.2381 -0.1294
  906BOLB   C3D21743   9.355  12.200  21.228  0.0406 -0.0504 -0.1482
  906BOLB   C4D21744   9.848  12.145  21.309  0.0423  0.0569 -0.3648
  907BOLB   NC121745  12.656  -2.154  28.890  0.1365  0.1402 -0.0004
  907BOLB   PO121746  12.310  -2.233  28.701  0.2127  0.1526  0.2337
  907BOLB   GL121747  12.405  -2.589  28.925 -0.2543  0.1976  0.0141
  907BOLB   GL221748  12.309  -2.828  28.707  0.2005 -0.1178 -0.2743
  907BOLB   C1A21749  12.131  -2.763  29.238  0.1011  0.3079 -0.0506
  907BOLB   C2A21750  11.765  -2.819  29.604  0.3268 -0.4246  0.1964
  907BOLB   C3A21751  11.563  -2.958  29.922 -0.2780  0.1434 -0.1226
  907BOLB   C4A21752  11.279  -3.258  30.100 -0.0925  0.1217  0.1845
  907BOLB   C1B21753  12.018  -3.092  28.822 -0.2443 -0.0771  0.0716
  907BOLB   C2B21754  11.994  -3.294  29.197  0.1066 -0.0735 -0.0967
  907BOLB   C3B21755  12.124  -3.215  29.592  0.0612 -0.1566 -0.1909
  907BOLB   C4B21756  11.914  -3.321  30.017 -0.0313  0.1126  0.3740
  907BOLB   NC221757   9.876  -5.210  30.605 -0.0080 -0.0504  0.5316
  907BOLB   PO221758   9.599  -5.252  30.217  0.4210 -0.0973 -0.0095
  907BOLB   GL321759   9.751  -4.822  30.260  0.1146 -0.3011 -0.0345
  907BOLB   GL421760   9.519  -4.652  30.413 -0.1535  0.1701 -0.2528
  907BOLB   C1C21761  10.115  -4.491  30.156 -0.4363 -0.1035 -0.0213
  907BOLB   C2C21762  10.489  -4.247  30.428  0.0115  0.1850  0.2285
  907BOLB   C3C21763  10.731  -3.891  30.356 -0.1339  0.0510  0.1022
  907BOLB   C4C21764  11.151  -3.696  30.320 -0.0589 -0.4529 -0.0496
  907BOLB   C1D21765   9.619  -4.288  30.211  0.1844  0.1786 -0.0744
  907BOLB   C2D21766   9.804  -3.968  30.165  0.0391 -0.2473 -0.0289
  907BOLB   C3D21767  10.206  -3.973  30.084 -0.0998  0.1051  0.2353
  907BOLB   C4D21768  10.565  -3.824  29.883  0.1829  0.0799  0.0392
  908BOLB   NC121769  15.143  10.052  19.209  0.0504  0.0033 -0.2660
  908BOLB   PO121770  15.362  10.327  19.449 -0.2553  0.1502 -0.1762
  908BOLB   GL121771  15.285  10.662  19.271 -0.3264  0.1176 -0.0030
  908BOLB   GL221772  15.101  10.542  19.007 -0.1223  0.3430  0.0859
  908BOLB   C1A21773  15.165  11.101  19.120 -0.2361 -0.1739 -0.6445
  908BOLB   C2A21774  15.212  11.509  19.047  0.1831  0.0069  0.0112
  908BOLB   C3A21775  14.922  11.675  18.959  0.0901  0.0388 -0.2037
  908BOLB   C4A21776  14.539  11.887  19.035  0.1487 -0.2825  0.3473
  908BOLB   C1B21777  15.055  10.876  18.696 -0.0450 -0.1124 -0.3456
  908BOLB   C2B21778  15.057  11.215  18.565  0.3743  0.2615 -0.0877
  908BOLB   C3B21779  15.021  11.637  18.449 -0.1847  0.2212 -0.0673
  908BOLB   C4B21780  15.126  12.152  18.313  0.0673  0.0824  0.2002
  908BOLB   NC221781  13.931  13.684  18.312 -0.1338  0.0345 -0.4307
  908BOLB   PO221782  13.714  13.515  17.931  0.3485  0.0015  0.0330
  908BOLB   GL321783  13.583  13.306  18.181 -0.0243  0.1226 -0.0928
  908BOLB   GL421784  13.291  13.092  18.280 -0.1544 -0.3167 -0.3489
  908BOLB   C1C21785  13.754  13.096  18.537  0.3680 -0.0950  0.0529
  908BOLB   C2C21786  13.942  12.807  18.929 -0.0932  0.2230  0.1794
  908BOLB   C3C21787  14.051  12.367  19.015  0.1088 -0.0316 -0.1689
  908BOLB   C4C21788  14.180  12.028  18.855 -0.0787  0.1654 -0.1586
  908BOLB   C1D21789  13.285  12.885  18.722  0.0762  0.2378 -0.1188
  908BOLB   C2D21790  13.360  12.692  18.992 -0.1826 -0.0256 -0.3590
  908BOLB   C3D21791  13.462  12.286  19.213 -0.1296  0.1351  0.1146
  908BOLB   C4D21792  13.371  11.886  19.525 -0.0894  0.0729 -0.3355
  909BOLB   NC121793   9.805  -2.063  28.149  0.2070  0.2266 -0.0491
  909BOLB   PO121794   9.823  -1.973  28.611  0.0067 -0.0496 -0.0191
  909BOLB   GL121795   9.479  -2.228  28.603 -0.2214  0.2353 -0.2651
  909BOLB   GL221796   9.401  -2.410  28.311 -0.0519  0.1896 -0.1072
  909BOLB   C1A21797   9.355  -2.396  28.946 -0.0149 -0.2128 -0.2055
  909BOLB   C2A21798   9.326  -2.895  29.068  0.1652  0.2475  0.0186
  909BOLB   C3A21799   9.106  -3.189  29.210 -0.2966 -0.3757  0.3305
  909BOLB   C4A21800   8.886  -3.460  29.066 -0.3231  0.0014  0.2201
  909BOLB   C1B21801   9.086  -2.096  28.211 -0.0375  0.0070 -0.0611
  909BOLB   C2B21802   8.658  -2.144  28.142 -0.2298 -0.0243  0.0491
  909BOLB   C3B21803   8.578  -2.455  28.046  0.3994  0.2756 -0.2802
  909BOLB   C4B21804   8.475  -2.943  28.112 -0.1058  0.0769 -0.0645
  909BOLB   NC221805   8.352  -4.467  31.106  0.3172  0.1517  0.0284
  909BOLB   PO221806   8.298  -4.681  30.733  0.0370 -0.0119 -0.1779
  909BOLB   GL321807   8.422  -4.678  30.277 -0.0423 -0.0808 -0.0971
  909BOLB   GL421808   8.095  -4.825  30.136 -0.0336 -0.1100 -0.0892
  909BOLB   C1C21809   8.429  -4.457  30.008  0.2992 -0.1456 -0.1625
  909BOLB   C2C21810   8.371  -4.176  29.710  0.0984  0.0037 -0.5515
  909BOLB   C3C21811   8.316  -3.973  29.382 -0.1340  0.1427 -0.3096
  909BOLB   C4C21812   8.448  -3.710  29.089  0.0967  0.2573 -0.0286
  909BOLB   C1D21813   7.989  -4.572  29.781 -0.0973  0.1051  0.1894
  909BOLB   C2D21814   7.896  -4.328  29.379  0.0503 -0.0132  0.4935
  909BOLB   C3D21815   7.753  -4.013  29.105 -0.0375 -0.0432 -0.0830
  909BOLB   C4D21816   7.493  -3.635  29.005  0.3092 -0.0853  0.0131
  910BOLB   NC121817   7.910   1.169  27.682 -0.0692 -0.0569  0.2725
  910BOLB   PO121818   7.503   1.351  27.642 -0.1351 -0.1453 -0.0932
  910BOLB   GL121819   7.065   1.218  27.721 -0.2289 -0.2212 -0.1880
  910BOLB   GL221820   6.902   1.336  27.572 -0.0462 -0.1211  0.0418
  910BOLB   C1A21821   6.861   1.131  28.010 -0.0931 -0.1536 -0.2651
  910BOLB   C2A21822   6.766   1.038  28.499 -0.1071  0.0242 -0.4443
  910BOLB   C3A21823   6.443   0.966  28.582  0.2465 -0.2159 -0.2500
  910BOLB   C4A21824   6.310   0.583  28.851 -0.0601 -0.2297  0.2083
  910BOLB   C1B21825   6.615   1.029  27.510 -0.3935 -0.0409 -0.0926
  910BOLB   C2B21826   6.207   0.761  27.492  0.1629  0.0603  0.1677
  910BOLB   C3B21827   5.981   0.622  27.066  0.0781  0.0967  0.0999
  910BOLB   C4B21828   5.839   0.303  26.915  0.1126  0.0444 -0.1042
  910BOLB   NC221829   4.850  -0.379  30.063  0.0434  0.0147 -0.2223
  910BOLB   PO221830   4.816  -0.843  30.008  0.0955 -0.1755  0.1454
  910BOLB   GL321831   5.197  -1.025  29.679  0.1438  0.2156  0.1975
  910BOLB   GL421832   5.374  -1.263  29.635  0.0687 -0.1190 -0.0748
  910BOLB   C1C21833   5.521  -0.681  29.550  0.2210 -0.2842  0.2498
  910BOLB   C2C21834   5.868  -0.398  29.309  0.2534 -0.0332 -0.3098
  910BOLB   C3C21835   5.786  -0.068  29.126  0.1607 -0.2621 -0.0303
  910BOLB   C4C21836   6.086   0.187  28.929 -0.2637  0.0889 -0.1237
  910BOLB   C1D21837   5.752  -1.326  29.439  0.1872 -0.0757 -0.0731
  910BOLB   C2D21838   6.150  -1.104  29.355 -0.0988  0.1018  0.0578
  910BOLB   C3D21839   6.411  -0.985  29.649  0.1203  0.2036  0.3658
  910BOLB   C4D21840   6.648  -0.654  29.861 -0.2834  0.1889 -0.2394
  911BOLB   NC121841  11.166  -2.032  28.289  0.2798 -0.0493 -0.0803
  911BOLB   PO121842  10.761  -2.157  28.462  0.2200  0.2897  0.0756
  911BOLB   GL121843  10.339  -2.456  28.601 -0.2061 -0.0843  0.0413
  911BOLB   GL221844  10.064  -2.392  28.659 -0.2703  0.1105 -0.2963
  911BOLB   C1A21845  10.240  -2.900  28.547 -0.0036  0.1882 -0.0521
  911BOLB   C2A21846  10.116  -3.346  28.457 -0.0503 -0.0803 -0.2046
  911BOLB   C3A21847   9.839  -3.642  28.509  0.1186 -0.0685 -0.0966
  911BOLB   C4A21848   9.744  -4.099  28.432  0.3665  0.0292 -0.3545
  911BOLB   C1B21849   9.733  -2.699  28.897 -0.0810  0.0481 -0.0277
  911BOLB   C2B21850   9.769  -2.985  29.218 -0.1269 -0.1839  0.2944
  911BOLB   C3B21851  10.019  -3.330  29.479  0.0386 -0.0136 -0.0286
  911BOLB   C4B21852  10.010  -3.599  29.843  0.0099  0.0305  0.0839
  911BOLB   NC221853  10.016  -5.932  29.847 -0.1213 -0.1824  0.0185
  911BOLB   PO221854   9.952  -6.185  29.590 -0.2631 -0.1025 -0.2089
  911BOLB   GL321855   9.941  -5.931  29.120 -0.0248 -0.2166  0.0770
  911BOLB   GL421856  10.232  -6.023  28.879  0.2808 -0.2033  0.0854
  911BOLB   C1C21857   9.832  -5.686  28.876 -0.1622  0.1886  0.0886
  911BOLB   C2C21858   9.718  -5.242  28.708  0.1970  0.0220 -0.1408
  911BOLB   C3C21859   9.756  -4.846  28.708  0.1337 -0.0343 -0.1250
  911BOLB   C4C21860   9.769  -4.401  28.700 -0.0247 -0.1820  0.2143
  911BOLB   C1D21861  10.379  -5.675  28.954  0.1074 -0.0920  0.2682
  911BOLB   C2D21862  10.716  -5.256  29.025 -0.1654  0.1134 -0.2111
  911BOLB   C3D21863  10.622  -4.856  29.095 -0.0978  0.3152 -0.0383
  911BOLB   C4D21864  10.210  -4.623  28.851  0.1683 -0.5339 -0.1479
  912BOLB   NC121865   8.458   9.030  24.878 -0.0544  0.3416  0.1907
  912BOLB   PO121866   8.261   9.256  25.237 -0.0007 -0.1649 -0.1693
  912BOLB   GL121867   8.083   9.447  24.948 -0.0297 -0.0036 -0.1367
  912BOLB   GL221868   8.282   9.446  24.684 -0.1728 -0.0834 -0.3442
  912BOLB   C1A21869   7.659   9.372  24.982  0.3017 -0.0039 -0.0498
  912BOLB   C2A21870   7.204   9.561  24.755 -0.1160  0.2630 -0.1236
  912BOLB   C3A21871   7.091   9.663  24.275  0.0090  0.1466  0.0407
  912BOLB   C4A21872   6.678   9.620  24.126  0.0699 -0.0558 -0.1562
  912BOLB   C1B21873   7.851   9.455  24.462  0.0642  0.1029 -0.1182
  912BOLB   C2B21874   7.508   9.430  24.054  0.1170  0.2111 -0.3659
  912BOLB   C3B21875   7.333   9.401  23.646 -0.1177 -0.0552 -0.0973
  912BOLB   C4B21876   6.866   9.570  23.511 -0.3665  0.0692 -0.0066
  912BOLB   NC221877   4.590  10.292  24.400  0.1271 -0.3445  0.0046
  912BOLB   PO221878   4.388   9.864  24.348  0.0626 -0.2589  0.0113
  912BOLB   GL321879   4.587   9.753  23.998  0.3577  0.0125 -0.0818
  912BOLB   GL421880   4.487   9.516  23.871 -0.1017  0.2306  0.0792
  912BOLB   C1C21881   5.030   9.595  23.726  0.2562 -0.1002 -0.1813
  912BOLB   C2C21882   5.430   9.915  23.697  0.1741 -0.0322 -0.3765
  912BOLB   C3C21883   5.857   9.982  23.694 -0.1063  0.0108  0.1868
  912BOLB   C4C21884   6.337   9.714  23.751 -0.0306 -0.2998 -0.1180
  912BOLB   C1D21885   4.736   9.271  23.967  0.0225 -0.0938  0.0044
  912BOLB   C2D21886   5.123   9.155  23.893 -0.1164 -0.2998 -0.1720
  912BOLB   C3D21887   5.412   9.423  23.945 -0.3316  0.0750  0.1329
  912BOLB   C4D21888   5.806   9.560  23.913 -0.0907  0.2839 -0.1321
  913BOLB   NC121889  13.675  -1.397  17.592 -0.0186 -0.1914 -0.2448
  913BOLB   PO121890  14.163  -1.236  17.476  0.5871  0.0530  0.0136
  913BOLB   GL121891  14.078  -1.394  17.072 -0.1357 -0.2230  0.0258
  913BOLB   GL221892  14.184  -1.458  16.774 -0.0250  0.1654  0.1160
  913BOLB   C1A21893  13.729  -1.663  16.919  0.1816 -0.0977  0.0172
  913BOLB   C2A21894  13.644  -1.993  16.532  0.2616 -0.0448  0.0227
  913BOLB   C3A21895  13.483  -2.392  16.596 -0.0966  0.2755  0.0757
  913BOLB   C4A21896  13.051  -2.573  16.682  0.3625 -0.1715 -0.3454
  913BOLB   C1B21897  13.784  -1.190  16.632 -0.1913 -0.2933 -0.4845
  913BOLB   C2B21898  13.699  -1.006  16.187  0.0196  0.2266 -0.0099
  913BOLB   C3B21899  13.756  -0.647  15.956  0.1072 -0.0008 -0.1744
  913BOLB   C4B21900  13.754  -0.328  15.538 -0.3381 -0.0298 -0.1198
  913BOLB   NC221901  11.724  -3.549  14.355 -0.0394  0.1966 -0.1324
  913BOLB   PO221902  11.578  -3.582  14.867  0.0045 -0.2902  0.1089
  913BOLB   GL321903  11.856  -3.185  15.122 -0.2538  0.0143  0.0066
  913BOLB   GL421904  11.861  -3.221  15.568 -0.1465  0.2954 -0.0634
  913BOLB   C1C21905  12.254  -2.972  15.431 -0.1245 -0.0458 -0.4879
  913BOLB   C2C21906  12.657  -2.731  15.475  0.5045  0.2699  0.0474
  913BOLB   C3C21907  12.739  -2.576  15.887 -0.4735  0.3351  0.1891
  913BOLB   C4C21908  12.903  -2.723  16.232 -0.0935  0.1564  0.0182
  913BOLB   C1D21909  11.842  -2.884  15.817  0.0784 -0.0945 -0.2544
  913BOLB   C2D21910  11.927  -2.633  16.050  0.1504  0.0045 -0.0751
  913BOLB   C3D21911  11.957  -2.326  16.371 -0.3072 -0.1915  0.4605
  913BOLB   C4D21912  12.183  -2.150  16.638 -0.0233  0.2866  0.0591
  914BOLB   NC121913  15.584  -4.214  27.303  0.0377  0.2928 -0.3236
  914BOLB   PO121914  15.405  -3.940  27.445 -0.1444 -0.1441 -0.3327
  914BOLB   GL121915  15.499  -4.271  27.772 -0.1570 -0.2094  0.0553
  914BOLB   GL221916  15.742  -4.580  27.574 -0.0898  0.1479  0.1122
  914BOLB   C1A21917  15.382  -4.502  28.005  0.0068 -0.1321 -0.1832
  914BOLB   C2A21918  15.700  -4.757  28.352  0.0990  0.0836  0.1691
  914BOLB   C3A21919  15.949  -5.183  28.461  0.1737  0.3665  0.2055
  914BOLB   C4A21920  16.101  -5.636  28.466 -0.0162 -0.0338  0.3099
  914BOLB   C1B21921  15.658  -4.938  27.896  0.4345 -0.3478  0.0576
  914BOLB   C2B21922  15.508  -5.334  27.942  0.3214  0.0991 -0.0984
  914BOLB   C3B21923  15.911  -5.472  28.081 -0.0458 -0.0438 -0.1486
  914BOLB   C4B21924  16.389  -5.668  28.010 -0.1020 -0.3095  0.1838
  914BOLB   NC221925  16.966  -8.230  29.987 -0.1961 -0.0101  0.1709
  914BOLB   PO221926  16.930  -7.883  29.778  0.2202 -0.1543 -0.0234
  914BOLB   GL321927  16.750  -7.569  29.458 -0.1732  0.0898 -0.1276
  914BOLB   GL421928  17.032  -7.582  29.335 -0.1309 -0.0475 -0.0714
  914BOLB   C1C21929  16.613  -7.160  29.296 -0.1706 -0.0507 -0.1054
  914BOLB   C2C21930  16.360  -6.683  29.358  0.2304 -0.0292 -0.0047
  914BOLB   C3C21931  16.229  -6.343  29.096 -0.1159 -0.0021  0.2251
  914BOLB   C4C21932  16.295  -6.102  28.635 -0.1217 -0.0681 -0.3183
  914BOLB   C1D21933  17.101  -7.265  29.040  0.2169 -0.1403  0.0892
  914BOLB   C2D21934  17.019  -7.087  28.786  0.0607  0.2642 -0.1357
  914BOLB   C3D21935  17.137  -6.722  28.766  0.4450  0.3123 -0.0423
  914BOLB   C4D21936  17.188  -6.365  28.947 -0.1364  0.0332  0.2576
  915BOLB   NC121937  15.561   5.732  33.970 -0.2555  0.2738 -0.0370
  915BOLB   PO121938  15.314   5.624  33.896 -0.0484  0.0858 -0.0662
  915BOLB   GL121939  15.079   5.477  34.171 -0.2270 -0.0662  0.0807
  915BOLB   GL221940  14.860   5.214  34.248 -0.2392  0.0104  0.3438
  915BOLB   C1A21941  15.053   5.545  34.613  0.0639  0.0022 -0.3093
  915BOLB   C2A21942  15.207   5.313  34.957 -0.1021  0.0505 -0.1941
  915BOLB   C3A21943  15.394   5.233  35.270  0.1985  0.3480  0.0033
  915BOLB   C4A21944  15.735   4.954  35.459 -0.0517 -0.0758  0.0952
  915BOLB   C1B21945  14.750   5.139  34.626 -0.1152  0.0026  0.2229
  915BOLB   C2B21946  14.641   5.389  34.902 -0.1085  0.0355  0.1829
  915BOLB   C3B21947  14.735   5.282  35.375  0.0216  0.2234 -0.2486
  915BOLB   C4B21948  15.031   5.227  35.739  0.1568  0.0595  0.3450
  915BOLB   NC221949  15.763   5.480  37.713 -0.1112 -0.1295  0.3074
  915BOLB   PO221950  16.047   5.234  37.530  0.0554 -0.0636  0.1263
  915BOLB   GL321951  15.969   5.084  37.129 -0.3342 -0.2485  0.2275
  915BOLB   GL421952  15.689   5.123  37.179 -0.1467 -0.1005  0.2017
  915BOLB   C1C21953  16.038   5.007  36.709  0.2138  0.0721  0.0349
  915BOLB   C2C21954  16.106   4.836  36.374  0.0871 -0.0802  0.0762
  915BOLB   C3C21955  16.241   4.824  36.019 -0.4780 -0.1859  0.0942
  915BOLB   C4C21956  16.029   4.867  35.652 -0.1475 -0.2678 -0.0497
  915BOLB   C1D21957  15.660   5.300  36.821 -0.3077 -0.0510  0.0576
  915BOLB   C2D21958  15.709   5.521  36.524  0.1803 -0.0600  0.1592
  915BOLB   C3D21959  15.701   5.704  36.203 -0.2183 -0.1078 -0.0902
  915BOLB   C4D21960  15.562   5.955  35.850 -0.1671  0.0157  0.1837
  916BOLB   NC121961  16.482   9.309  32.553  0.1889  0.0574  0.1644
  916BOLB   PO121962  16.859   9.398  32.270  0.2448 -0.0129  0.1821
  916BOLB   GL121963  17.039   9.421  32.763 -0.1351 -0.0459 -0.3542
  916BOLB   GL221964  16.716   9.649  32.842  0.0700  0.0581 -0.0658
  916BOLB   C1A21965  17.125   9.502  33.191  0.0461  0.1010  0.1775
  916BOLB   C2A21966  17.178   9.609  33.587 -0.4395 -0.1598 -0.4177
  916BOLB   C3A21967  17.427   9.440  34.027 -0.0549 -0.0159  0.1904
  916BOLB   C4A21968  17.571   9.268  34.357  0.2968 -0.3146 -0.2776
  916BOLB   C1B21969  16.689  10.013  32.777 -0.1600 -0.0628 -0.0577
  916BOLB   C2B21970  16.626  10.293  33.216 -0.0813  0.1103 -0.1099
  916BOLB   C3B21971  16.687  10.658  33.422  0.2086 -0.0260  0.1052
  916BOLB   C4B21972  16.787  10.986  33.720  0.1507  0.0200  0.1167
  916BOLB   NC221973  16.762  10.560  36.656  0.0883  0.4925  0.0645
  916BOLB   PO221974  17.133  10.259  36.722 -0.0853  0.2135  0.4050
  916BOLB   GL321975  17.355   9.986  36.401 -0.0599 -0.1973  0.0752
  916BOLB   GL421976  17.091   9.891  36.160 -0.1537 -0.0457  0.1341
  916BOLB   C1C21977  17.525   9.656  36.050 -0.4655  0.0248 -0.1652
  916BOLB   C2C21978  17.397   9.493  35.566 -0.1063  0.0252  0.1535
  916BOLB   C3C21979  17.494   9.586  35.092 -0.1222 -0.1413 -0.3169
  916BOLB   C4C21980  17.565   9.429  34.836 -0.2274  0.0259  0.0216
  916BOLB   C1D21981  16.958   9.750  35.811 -0.1438 -0.0920  0.1711
  916BOLB   C2D21982  16.916   9.593  35.443 -0.0937  0.1681 -0.2110
  916BOLB   C3D21983  17.003   9.551  35.002 -0.1711 -0.2398 -0.0193
  916BOLB   C4D21984  17.167   9.437  34.589 -0.0730  0.0969  0.2187
  917BOLB   NC121985  15.124   5.173  33.796  0.3211 -0.0637  0.1255
  917BOLB   PO121986  14.817   4.940  33.557 -0.3063 -0.0567  0.1433
  917BOLB   GL121987  14.602   4.781  33.918  0.1610  0.1543  0.1183
  917BOLB   GL221988  14.482   4.433  33.983 -0.0224 -0.2778 -0.0314
  917BOLB   C1A21989  14.415   4.779  34.357  0.2437  0.3993 -0.0269
  917BOLB   C2A21990  14.368   4.848  34.761  0.3224  0.1238  0.0585
  917BOLB   C3A21991  14.343   4.989  35.181 -0.2614  0.0376 -0.1388
  917BOLB   C4A21992  14.312   5.078  35.609  0.1784  0.0868 -0.2395
  917BOLB   C1B21993  14.327   4.162  34.128  0.0118  0.2684  0.0279
  917BOLB   C2B21994  14.003   4.010  34.328 -0.0698 -0.0177 -0.2145
  917BOLB   C3B21995  13.878   3.980  34.770  0.0818  0.1433  0.2975
  917BOLB   C4B21996  13.822   3.981  35.125  0.2885 -0.1133 -0.2845
  917BOLB   NC221997  14.532   5.392  38.072 -0.0893 -0.0124 -0.1370
  917BOLB   PO221998  14.926   5.267  37.971 -0.0283 -0.2932 -0.0629
  917BOLB   GL321999  14.869   5.243  37.483 -0.4397  0.1583 -0.3695
  917BOLB   GL422000  14.818   4.863  37.469  0.0691  0.1687  0.1114
  917BOLB   C1C22001  14.649   5.174  37.090 -0.2420 -0.0421 -0.0367
  917BOLB   C2C22002  14.318   5.083  36.833 -0.0579 -0.1674 -0.4698
  917BOLB   C3C22003  14.287   5.114  36.419 -0.0111  0.3502 -0.0045
  917BOLB   C4C22004  14.218   5.064  36.017  0.0037  0.2249  0.2124
  917BOLB   C1D22005  15.067   4.897  37.127 -0.0589  0.1660  0.0036
  917BOLB   C2D22006  15.480   4.886  36.844 -0.0038  0.0365 -0.0570
  917BOLB   C3D22007  15.616   5.061  36.382  0.0261  0.0380 -0.1764
  917BOLB   C4D22008  15.508   5.229  35.985  0.0607  0.0344  0.1593
  918BOLB   NC122009  28.025   4.435  30.098  0.0766  0.2507 -0.1220
  918BOLB   PO122010  28.181   4.297  30.426  0.1790 -0.1781  0.0060
  918BOLB   GL122011  27.760   4.266  30.591 -0.2544  0.0557  0.0369
  918BOLB   GL222012  27.662   4.519  30.698 -0.1558  0.1966 -0.0218
  918BOLB   C1A22013  27.274   4.089  30.526 -0.0051  0.1592 -0.0519
  918BOLB   C2A22014  26.820   3.917  30.409 -0.1677 -0.2297  0.1211
  918BOLB   C3A22015  26.553   3.962  30.054 -0.3368 -0.0251  0.3425
  918BOLB   C4A22016  26.483   4.352  29.753 -0.2476 -0.1172 -0.1245
  918BOLB   C1B22017  27.424   4.526  30.240  0.0043 -0.0200 -0.2688
  918BOLB   C2B22018  27.376   4.555  29.829  0.1764 -0.1939 -0.1009
  918BOLB   C3B22019  26.933   4.369  29.665 -0.3590  0.1085 -0.0895
  918BOLB   C4B22020  26.828   3.965  29.645  0.2503 -0.1058  0.2068
  918BOLB   NC222021  28.616   5.277  30.809 -0.1444 -0.0171  0.0386
  918BOLB   PO222022  28.249   5.234  30.681 -0.0081  0.0053 -0.0561
  918BOLB   GL322023  28.008   5.403  30.367 -0.3274 -0.1572  0.1402
  918BOLB   GL422024  28.011   5.602  30.053 -0.1433  0.1304  0.0859
  918BOLB   C1C22025  27.585   5.396  30.192  0.0592 -0.1771  0.1318
  918BOLB   C2C22026  27.265   5.158  30.083 -0.1314 -0.1739 -0.2478
  918BOLB   C3C22027  27.021   4.888  29.921 -0.0756  0.1164 -0.0843
  918BOLB   C4C22028  26.612   4.733  29.648 -0.1420 -0.0563  0.1610
  918BOLB   C1D22029  27.698   5.557  29.675  0.0957  0.0926 -0.1928
  918BOLB   C2D22030  27.377   5.381  29.568  0.0116  0.3370  0.0426
  918BOLB   C3D22031  27.160   5.303  29.155 -0.0278 -0.1310 -0.0336
  918BOLB   C4D22032  26.740   5.201  28.955 -0.4455 -0.2859  0.2486
  919BOLB   NC122033  14.493  -2.677  11.775  0.1868  0.1874 -0.3281
  919BOLB   PO122034  14.760  -2.756  12.181  0.3511  0.4849  0.0267
  919BOLB   GL122035  15.038  -2.670  12.438  0.0778 -0.2956 -0.1929
  919BOLB   GL222036  14.955  -3.042  12.531  0.0349 -0.0053  0.1515
  919BOLB   C1A22037  15.054  -2.391  12.826  0.0724 -0.0897  0.0057
  919BOLB   C2A22038  15.072  -2.017  12.839 -0.0407  0.0544  0.1156
  919BOLB   C3A22039  15.293  -1.690  12.862 -0.3300 -0.1627  0.2381
  919BOLB   C4A22040  15.489  -1.432  13.126  0.0596  0.4064 -0.0359
  919BOLB   C1B22041  15.164  -2.954  12.895  0.0809  0.3238  0.1282
  919BOLB   C2B22042  15.132  -3.179  13.328 -0.1613  0.1058 -0.1326
  919BOLB   C3B22043  15.204  -3.222  13.775  0.3838  0.2906 -0.2859
  919BOLB   C4B22044  15.374  -3.715  13.999  0.0913 -0.3424 -0.2407
  919BOLB   NC222045  16.016  -0.043  11.664 -0.1267 -0.0236 -0.1317
  919BOLB   PO222046  15.672   0.274  11.914  0.2740 -0.0230  0.2107
  919BOLB   GL322047  16.024   0.131  12.150 -0.1245  0.0602  0.0724
  919BOLB   GL422048  16.131   0.543  12.182 -0.0781 -0.2130  0.0760
  919BOLB   C1C22049  16.069  -0.072  12.531 -0.4250 -0.1445 -0.4194
  919BOLB   C2C22050  15.943  -0.319  12.838 -0.3010  0.0249  0.0777
  919BOLB   C3C22051  15.692  -0.689  13.031  0.0194 -0.2746  0.0820
  919BOLB   C4C22052  15.478  -1.022  13.217 -0.1270  0.2046  0.2475
  919BOLB   C1D22053  16.219   0.487  12.608  0.1335  0.2059 -0.1943
  919BOLB   C2D22054  16.446   0.265  12.825  0.2232 -0.1516 -0.1442
  919BOLB   C3D22055  16.843   0.057  12.718  0.1175 -0.3183 -0.1281
  919BOLB   C4D22056  17.113  -0.132  12.447  0.0842 -0.0240 -0.1576
  920BOLB   NC122057  20.967  11.072  26.577 -0.2670 -0.0811  0.0196
  920BOLB   PO122058  21.094  10.816  26.305 -0.2242 -0.2120  0.1410
  920BOLB   GL122059  21.299  11.249  26.011 -0.5258 -0.0759 -0.2508
  920BOLB   GL222060  21.397  11.292  25.705 -0.1770  0.1955 -0.0077
  920BOLB   C1A22061  21.606  11.526  26.101 -0.0449  0.1186  0.3002
  920BOLB   C2A22062  21.648  11.882  25.933 -0.1826 -0.0697 -0.0013
  920BOLB   C3A22063  21.759  12.171  25.674 -0.1113  0.1100  0.0542
  920BOLB   C4A22064  22.011  12.433  25.547 -0.2260  0.1145  0.0770
  920BOLB   C1B22065  21.779  11.530  25.609 -0.0767 -0.1895  0.1615
  920BOLB   C2B22066  22.205  11.794  25.603 -0.0068 -0.0041 -0.0997
  920BOLB   C3B22067  22.578  11.469  25.652  0.1756  0.1839 -0.2542
  920BOLB   C4B22068  23.002  11.482  25.842 -0.2856  0.4056  0.0208
  920BOLB   NC222069  24.262  13.435  24.656 -0.0569 -0.0278 -0.1370
  920BOLB   PO222070  23.845  13.602  24.587 -0.5113 -0.0040  0.2709
  920BOLB   GL322071  23.692  13.218  24.709  0.1559 -0.1193  0.0405
  920BOLB   GL422072  24.048  13.010  24.760  0.1716 -0.1520 -0.1207
  920BOLB   C1C22073  23.332  12.915  24.731 -0.0012 -0.0747 -0.0658
  920BOLB   C2C22074  22.946  12.848  24.874 -0.1311  0.1229  0.0946
  920BOLB   C3C22075  22.774  12.625  25.133 -0.1636  0.0155 -0.2266
  920BOLB   C4C22076  22.406  12.514  25.372 -0.0936  0.1310  0.1734
  920BOLB   C1D22077  23.799  12.765  24.588  0.1657 -0.2262 -0.1437
  920BOLB   C2D22078  23.358  12.529  24.455 -0.0238  0.1963 -0.1125
  920BOLB   C3D22079  23.030  12.312  24.607 -0.1745 -0.0568  0.0546
  920BOLB   C4D22080  23.001  11.923  24.539 -0.0929 -0.1652  0.1572
  921BOLB   NC122081  13.573  10.037  30.389 -0.3312  0.3117 -0.1572
  921BOLB   PO122082  13.836  10.434  30.569 -0.1929  0.1954 -0.1153
  921BOLB   GL122083  14.040  10.527  31.092 -0.1391 -0.0759  0.0703
  921BOLB   GL222084  14.004  10.849  31.245  0.1034  0.0103  0.2346
  921BOLB   C1A22085  14.007  10.584  31.574  0.0350  0.2322 -0.1084
  921BOLB   C2A22086  13.696  10.653  31.876  0.0042 -0.2652  0.1142
  921BOLB   C3A22087  13.622  10.930  32.243  0.2040  0.3799 -0.0417
  921BOLB   C4A22088  13.622  11.086  32.667 -0.1721 -0.1327 -0.1531
  921BOLB   C1B22089  13.590  10.880  31.377  0.3317  0.1207 -0.0901
  921BOLB   C2B22090  13.398  11.226  31.596 -0.2886 -0.0811 -0.3378
  921BOLB   C3B22091  13.287  11.383  32.054 -0.2074 -0.1815  0.1894
  921BOLB   C4B22092  13.532  11.559  32.462  0.1929 -0.0110 -0.1132
  921BOLB   NC222093  13.294  13.147  34.385  0.1019  0.2707  0.0248
  921BOLB   PO222094  12.846  12.832  34.261 -0.1244 -0.1009 -0.3519
  921BOLB   GL322095  12.680  12.470  33.984  0.0101 -0.2026 -0.0051
  921BOLB   GL422096  12.891  12.443  33.742  0.1222  0.1357 -0.2456
  921BOLB   C1C22097  12.845  11.927  33.925 -0.1816 -0.0144 -0.1507
  921BOLB   C2C22098  13.185  11.693  33.565 -0.3242 -0.3059  0.1042
  921BOLB   C3C22099  13.241  11.494  33.168 -0.0077 -0.2807  0.2228
  921BOLB   C4C22100  13.504  11.322  32.972  0.3234 -0.0218  0.2109
  921BOLB   C1D22101  12.986  12.172  33.410  0.0601  0.2986  0.0136
  921BOLB   C2D22102  13.269  12.049  33.089  0.1352  0.3480  0.1462
  921BOLB   C3D22103  13.197  11.792  32.758 -0.1698 -0.0537  0.1667
  921BOLB   C4D22104  13.086  11.728  32.376 -0.2079  0.0110  0.1279
  922BOLB   NC122105   8.520  14.392  30.401  0.2080 -0.0067 -0.1778
  922BOLB   PO122106   8.467  13.984  30.618  0.2041  0.0668 -0.1615
  922BOLB   GL122107   8.561  13.513  30.615  0.0990  0.1035 -0.0351
  922BOLB   GL222108   8.305  13.321  30.734  0.0810 -0.5887  0.0913
  922BOLB   C1A22109   8.764  13.214  30.356  0.0814  0.0015 -0.0424
  922BOLB   C2A22110   9.051  12.956  30.157 -0.1021  0.4819  0.0755
  922BOLB   C3A22111   9.480  12.914  30.263  0.2383 -0.1208 -0.1111
  922BOLB   C4A22112   9.778  12.970  29.961 -0.0703  0.1402 -0.2390
  922BOLB   C1B22113   8.591  12.930  30.836 -0.1588  0.0861  0.3199
  922BOLB   C2B22114   8.786  12.623  30.519 -0.1634 -0.1724  0.2333
  922BOLB   C3B22115   8.937  12.199  30.310  0.2460 -0.0437  0.1361
  922BOLB   C4B22116   9.091  12.099  29.890 -0.0693  0.1948  0.2441
  922BOLB   NC222117   9.180  15.064  29.528  0.0477  0.0200 -0.1019
  922BOLB   PO222118   9.289  15.050  29.152 -0.0109 -0.1673 -0.0954
  922BOLB   GL322119   9.410  14.569  29.074  0.0963  0.0001  0.1118
  922BOLB   GL422120   9.696  14.682  29.112 -0.2266 -0.0065 -0.2076
  922BOLB   C1C22121   9.272  14.192  29.293  0.0294  0.1686  0.0428
  922BOLB   C2C22122   9.378  13.878  29.602  0.0227 -0.0651  0.0777
  922BOLB   C3C22123   9.709  13.697  29.418  0.0362 -0.1235 -0.0161
  922BOLB   C4C22124   9.767  13.339  29.733 -0.2166  0.1257  0.0140
  922BOLB   C1D22125   9.790  14.314  28.671 -0.2347 -0.1729  0.1094
  922BOLB   C2D22126   9.989  14.130  28.256  0.1980 -0.2226  0.2167
  922BOLB   C3D22127  10.441  13.937  28.188 -0.2435  0.0306 -0.1246
  922BOLB   C4D22128  10.603  13.666  27.876 -0.4285  0.1278 -0.5556
  923BOLB   NC122129  10.180   9.945  24.033  0.1774 -0.2166 -0.1550
  923BOLB   PO122130   9.760   9.846  23.884  0.0862  0.3555 -0.4023
  923BOLB   GL122131   9.418  10.029  23.552 -0.0203  0.0015 -0.0256
  923BOLB   GL222132   9.328   9.761  23.287  0.2777  0.2069  0.1890
  923BOLB   C1A22133   9.065  10.204  23.343  0.1568 -0.1604  0.1199
  923BOLB   C2A22134   8.775  10.575  23.370 -0.1133 -0.0535  0.0311
  923BOLB   C3A22135   8.669  10.954  23.186 -0.1203 -0.0329  0.1417
  923BOLB   C4A22136   8.658  10.991  22.717 -0.1056 -0.2487 -0.3542
  923BOLB   C1B22137   8.877   9.791  23.173 -0.1029 -0.1863 -0.2021
  923BOLB   C2B22138   8.496   9.945  23.039  0.1460 -0.1282  0.3919
  923BOLB   C3B22139   8.153  10.047  22.710 -0.1815 -0.3928 -0.1282
  923BOLB   C4B22140   7.981  10.443  22.500 -0.0749  0.1525  0.1006
  923BOLB   NC222141   7.976  12.226  20.345  0.0488 -0.2439  0.1144
  923BOLB   PO222142   7.801  12.281  20.768  0.0574 -0.1894  0.0299
  923BOLB   GL322143   8.107  12.023  21.014 -0.1530  0.0161 -0.0002
  923BOLB   GL422144   8.377  12.057  20.871  0.3890 -0.0534  0.1276
  923BOLB   C1C22145   8.075  11.791  21.329  0.1445  0.2803 -0.0697
  923BOLB   C2C22146   8.267  11.476  21.633 -0.3314 -0.0161  0.1483
  923BOLB   C3C22147   8.357  11.240  21.917 -0.0247 -0.2486  0.1711
  923BOLB   C4C22148   8.376  11.279  22.391  0.0122 -0.1234  0.0262
  923BOLB   C1D22149   8.586  11.782  21.069 -0.1122 -0.0833  0.1031
  923BOLB   C2D22150   8.720  11.619  21.480  0.3918 -0.1767  0.0598
  923BOLB   C3D22151   8.721  11.223  21.540  0.0381 -0.1342 -0.3790
  923BOLB   C4D22152   9.050  10.877  21.687 -0.0545  0.2923 -0.0921
  924BOLB   NC122153   7.913   4.531  22.900 -0.0756 -0.0276 -0.1600
  924BOLB   PO122154   7.849   4.120  23.137  0.3124  0.0503  0.0712
  924BOLB   GL122155   7.506   4.408  23.235  0.1333 -0.0347 -0.1086
  924BOLB   GL222156   7.511   4.608  23.559 -0.0298  0.0652  0.1861
  924BOLB   C1A22157   7.269   4.513  22.896  0.0355  0.1388 -0.1513
  924BOLB   C2A22158   6.812   4.665  22.852 -0.0333 -0.1750 -0.1159
  924BOLB   C3A22159   6.378   4.920  22.726  0.4006  0.2280 -0.3074
  924BOLB   C4A22160   5.914   4.916  22.532  0.2294  0.2076 -0.0945
  924BOLB   C1B22161   7.047   4.600  23.395 -0.1451 -0.0390  0.0772
  924BOLB   C2B22162   6.658   4.870  23.243  0.2353 -0.1534 -0.1757
  924BOLB   C3B22163   6.298   4.600  23.092 -0.2135  0.2182 -0.0246
  924BOLB   C4B22164   5.876   4.449  23.044  0.1020  0.0032 -0.4635
  924BOLB   NC222165   3.822   5.224  20.845  0.0630  0.3587 -0.0538
  924BOLB   PO222166   4.037   5.594  21.081  0.1959 -0.0445  0.2399
  924BOLB   GL322167   4.378   5.278  21.213  0.0331  0.2140  0.1227
  924BOLB   GL422168   4.330   4.969  21.041  0.0158  0.5419 -0.6005
  924BOLB   C1C22169   4.706   5.057  21.382  0.2655 -0.1192 -0.1831
  924BOLB   C2C22170   5.034   5.018  21.553 -0.1352 -0.0108  0.0910
  924BOLB   C3C22171   5.470   4.921  21.787  0.1131  0.0725 -0.2562
  924BOLB   C4C22172   5.649   4.945  22.156  0.1048  0.1993  0.0459
  924BOLB   C1D22173   4.695   4.695  20.998 -0.1214  0.1611 -0.2042
  924BOLB   C2D22174   5.021   4.789  21.025 -0.1417 -0.3795 -0.2906
  924BOLB   C3D22175   5.391   4.805  21.226  0.1567  0.5364  0.4240
  924BOLB   C4D22176   5.803   4.894  21.334 -0.0028  0.1832  0.2935
  925BOLB   NC122177  11.652   9.188  20.642  0.1153  0.0046 -0.2379
  925BOLB   PO122178  11.187   9.249  20.867  0.0141  0.1654  0.0631
  925BOLB   GL122179  10.901   9.563  20.753  0.1210  0.1625  0.1068
  925BOLB   GL222180  10.768   9.623  20.929 -0.1692 -0.1910 -0.1051
  925BOLB   C1A22181  10.865   9.847  20.532 -0.1625 -0.0041 -0.1695
  925BOLB   C2A22182  10.696   9.976  20.218  0.1641  0.0086 -0.2901
  925BOLB   C3A22183  10.361  10.151  20.072  0.0318 -0.0714 -0.2065
  925BOLB   C4A22184   9.984  10.339  20.017 -0.1243 -0.3942  0.2729
  925BOLB   C1B22185  10.451   9.925  20.733  0.0965 -0.1894 -0.0374
  925BOLB   C2B22186  10.172  10.158  20.500 -0.1886 -0.1466  0.1090
  925BOLB   C3B22187   9.784   9.995  20.321 -0.1247  0.0288  0.0600
  925BOLB   C4B22188   9.421   9.838  20.119  0.2812 -0.1541 -0.0377
  925BOLB   NC222189   8.979  11.430  17.940 -0.0648  0.3834 -0.1565
  925BOLB   PO222190   9.026  11.453  18.395  0.1533  0.0400  0.1604
  925BOLB   GL322191   9.085  11.190  18.638  0.1310 -0.4412 -0.0387
  925BOLB   GL422192   8.820  11.051  18.652  0.0078 -0.0235 -0.3049
  925BOLB   C1C22193   9.283  10.795  18.815  0.0480 -0.1732 -0.2120
  925BOLB   C2C22194   9.270  10.414  19.110  0.0531  0.1425  0.5873
  925BOLB   C3C22195   9.441  10.166  19.363 -0.1151 -0.2231 -0.0540
  925BOLB   C4C22196   9.666  10.248  19.723 -0.1175  0.0779  0.0498
  925BOLB   C1D22197   8.846  10.744  19.041 -0.1464 -0.0200  0.0247
  925BOLB   C2D22198   8.833  10.380  19.512 -0.0160  0.0297 -0.1012
  925BOLB   C3D22199   8.744  10.206  19.891  0.0016 -0.0054  0.0807
  925BOLB   C4D22200   8.585  10.307  20.319  0.0032  0.4016 -0.0748
  926BOLB   NC122201   4.849  -2.708  26.366 -0.0894  0.0760 -0.0896
  926BOLB   PO122202   5.172  -2.949  26.561  0.1506  0.2099 -0.1288
  926BOLB   GL122203   5.375  -2.521  26.613  0.0656 -0.0183  0.0071
  926BOLB   GL222204   5.076  -2.373  26.685  0.1135 -0.2392  0.0066
  926BOLB   C1A22205   5.639  -2.350  26.382 -0.0522 -0.3688 -0.0079
  926BOLB   C2A22206   5.999  -2.196  26.252  0.0341  0.2105  0.1912
  926BOLB   C3A22207   6.281  -2.014  26.251 -0.2715  0.1131  0.2504
  926BOLB   C4A22208   6.695  -1.789  26.172  0.2810 -0.0113  0.2474
  926BOLB   C1B22209   5.344  -1.968  26.437  0.0463 -0.0875 -0.1387
  926BOLB   C2B22210   5.658  -1.672  26.268 -0.2363  0.0370 -0.0030
  926BOLB   C3B22211   5.988  -1.353  26.416  0.0048 -0.1002 -0.1521
  926BOLB   C4B22212   6.441  -1.225  26.328 -0.1806 -0.1510 -0.3306
  926BOLB   NC222213   8.649  -0.433  25.102  0.2545  0.0332  0.0850
  926BOLB   PO222214   8.356  -0.700  25.131  0.0646 -0.2141 -0.0686
  926BOLB   GL322215   7.998  -0.799  25.123 -0.2034  0.2258 -0.0367
  926BOLB   GL422216   7.959  -0.624  25.448  0.0032  0.0993  0.0654
  926BOLB   C1C22217   7.617  -1.109  24.984  0.0545 -0.0899 -0.1012
  926BOLB   C2C22218   7.385  -1.376  25.331 -0.0916  0.3486  0.0012
  926BOLB   C3C22219   7.337  -1.477  25.744 -0.1412  0.2480 -0.1251
  926BOLB   C4C22220   7.073  -1.702  26.035  0.0894 -0.1011 -0.0727
  926BOLB   C1D22221   8.041  -1.013  25.583  0.0735  0.0981 -0.2667
  926BOLB   C2D22222   7.879  -1.383  25.472  0.0143 -0.0749  0.1436
  926BOLB   C3D22223   7.729  -1.818  25.480 -0.1575 -0.2210  0.0729
  926BOLB   C4D22224   7.292  -1.927  25.591  0.2115 -0.1213  0.1106
  927BOLB   NC122225  17.057   3.296  37.684 -0.2423  0.1326 -0.1129
  927BOLB   PO122226  16.747   3.054  37.650  0.1130  0.0099  0.1756
  927BOLB   GL122227  16.742   2.803  37.282  0.0138 -0.1290 -0.1943
  927BOLB   GL222228  16.619   2.583  37.219  0.1643 -0.2107 -0.1998
  927BOLB   C1A22229  16.804   2.881  36.803  0.2527 -0.0247 -0.2328
  927BOLB   C2A22230  16.656   3.048  36.352  0.4390  0.0547  0.0958
  927BOLB   C3A22231  16.412   3.315  36.226  0.0613  0.0271 -0.1508
  927BOLB   C4A22232  16.110   3.547  35.900 -0.1678  0.1323 -0.1223
  927BOLB   C1B22233  16.633   2.221  36.991  0.1801  0.3038 -0.1511
  927BOLB   C2B22234  16.771   1.940  36.566 -0.2235 -0.1234  0.0330
  927BOLB   C3B22235  16.798   2.147  36.125 -0.0869  0.0804 -0.1205
  927BOLB   C4B22236  17.053   2.009  35.720  0.0087 -0.0057  0.0565
  927BOLB   NC222237  15.902   2.964  37.922 -0.0890 -0.2044 -0.2470
  927BOLB   PO222238  16.218   2.716  37.741  0.2714  0.4165 -0.2763
  927BOLB   GL322239  16.075   2.943  37.401  0.1486  0.0985  0.3773
  927BOLB   GL422240  16.485   3.210  37.249  0.0395  0.0704  0.1834
  927BOLB   C1C22241  15.833   3.192  37.153 -0.0849  0.1232  0.1651
  927BOLB   C2C22242  15.665   3.498  36.833  0.0377 -0.0717  0.2167
  927BOLB   C3C22243  15.651   3.731  36.418 -0.4919  0.1478 -0.1460
  927BOLB   C4C22244  15.807   3.801  36.024 -0.0478  0.3495  0.3888
  927BOLB   C1D22245  16.293   3.030  36.917 -0.0833  0.1094  0.2634
  927BOLB   C2D22246  16.228   2.935  36.455  0.0407 -0.1194  0.1660
  927BOLB   C3D22247  16.147   2.668  36.064 -0.0159  0.0609  0.1258
  927BOLB   C4D22248  16.108   2.554  35.688 -0.0863  0.0466  0.4387
  928BOLB   NC122249  17.886   2.727  33.248  0.1808 -0.1937 -0.1283
  928BOLB   PO122250  18.341   2.706  33.110 -0.0676  0.1017  0.0612
  928BOLB   GL122251  18.575   2.575  33.289  0.1183 -0.0562 -0.1616
  928BOLB   GL222252  18.753   2.799  33.502 -0.0977  0.0115  0.3984
  928BOLB   C1A22253  18.702   2.124  33.533 -0.0373  0.1260 -0.2133
  928BOLB   C2A22254  19.009   2.068  33.883 -0.1370 -0.0279  0.0335
  928BOLB   C3A22255  19.230   1.805  34.163 -0.1817 -0.3590  0.0255
  928BOLB   C4A22256  19.443   1.583  34.490  0.0606 -0.4680 -0.0673
  928BOLB   C1B22257  18.881   2.777  33.858  0.2475  0.0680  0.1727
  928BOLB   C2B22258  19.161   2.623  34.033  0.1802  0.1503 -0.2292
  928BOLB   C3B22259  19.228   2.272  34.327  0.2988 -0.0111  0.1191
  928BOLB   C4B22260  19.252   1.963  34.750  0.0815  0.1530  0.1976
  928BOLB   NC222261  20.559   0.193  36.730  0.1108  0.0020 -0.2597
  928BOLB   PO222262  20.337   0.109  36.415 -0.0584 -0.1489 -0.1918
  928BOLB   GL322263  20.308   0.255  35.969 -0.2711 -0.0574 -0.0112
  928BOLB   GL422264  20.591   0.485  35.854  0.1388  0.0396 -0.0075
  928BOLB   C1C22265  20.127   0.278  35.498  0.0011  0.1044  0.0332
  928BOLB   C2C22266  20.047   0.560  35.086 -0.0752  0.2861  0.1640
  928BOLB   C3C22267  19.887   0.861  34.749  0.1511  0.1250  0.1177
  928BOLB   C4C22268  19.774   1.296  34.647 -0.2090 -0.1862  0.1291
  928BOLB   C1D22269  20.543   0.698  35.463  0.1302  0.1582 -0.2955
  928BOLB   C2D22270  20.350   0.975  35.225  0.1619  0.3199 -0.2371
  928BOLB   C3D22271  20.069   1.254  35.095  0.0434 -0.0684 -0.0347
  928BOLB   C4D22272  20.082   1.730  34.950  0.4440  0.5438 -0.3294
  929BOLB   NC122273  13.082  12.144  27.698  0.1404  0.0620  0.2030
  929BOLB   PO122274  12.812  12.438  27.948 -0.5498  0.1328 -0.1816
  929BOLB   GL122275  12.644  12.831  28.063  0.0311  0.4035 -0.0700
  929BOLB   GL222276  12.328  12.875  28.063  0.1555  0.1972 -0.1731
  929BOLB   C1A22277  12.686  13.220  28.305  0.0405 -0.1389  0.2120
  929BOLB   C2A22278  12.826  13.459  28.719 -0.0666  0.0183  0.0239
  929BOLB   C3A22279  12.768  13.579  29.219 -0.2843 -0.1554 -0.3062
  929BOLB   C4A22280  12.491  13.616  29.553  0.1147  0.1363  0.1687
  929BOLB   C1B22281  12.034  13.167  28.211  0.0984  0.1524 -0.1062
  929BOLB   C2B22282  11.887  13.516  28.334 -0.1312  0.0717  0.2821
  929BOLB   C3B22283  11.501  13.878  28.244  0.0113  0.0448  0.0302
  929BOLB   C4B22284  11.110  13.811  27.952 -0.2057  0.1814 -0.0039
  929BOLB   NC222285  13.444  15.175  31.095  0.0728  0.2591  0.2536
  929BOLB   PO222286  13.054  15.362  30.974  0.2313  0.1660 -0.5322
  929BOLB   GL322287  12.989  15.264  30.630 -0.1284 -0.1887  0.2220
  929BOLB   GL422288  13.192  15.440  30.451  0.1549  0.0980 -0.2762
  929BOLB   C1C22289  12.867  15.037  30.203 -0.1482 -0.0689 -0.2150
  929BOLB   C2C22290  12.789  14.665  29.942  0.2036 -0.0924 -0.1439
  929BOLB   C3C22291  12.887  14.215  29.893  0.2259 -0.0244  0.0212
  929BOLB   C4C22292  12.509  13.859  29.864  0.2361 -0.3132 -0.1718
  929BOLB   C1D22293  13.302  14.931  30.469  0.2647  0.0386 -0.0297
  929BOLB   C2D22294  13.458  14.543  30.668  0.2957  0.0291 -0.4810
  929BOLB   C3D22295  13.327  14.183  30.946 -0.1300  0.1162  0.3535
  929BOLB   C4D22296  13.306  13.679  31.059  0.1239 -0.4036  0.1313
  930BOLB   NC122297   2.823   2.071  27.934 -0.0945  0.1003 -0.3832
  930BOLB   PO122298   3.007   1.956  28.286  0.0178 -0.1697 -0.1194
  930BOLB   GL122299   3.492   1.929  28.291  0.2853  0.2215  0.1914
  930BOLB   GL222300   3.366   2.183  28.062 -0.4116 -0.3108  0.0380
  930BOLB   C1A22301   3.927   1.737  28.465  0.0091 -0.0343  0.0302
  930BOLB   C2A22302   4.244   1.743  28.829 -0.3391 -0.3178  0.2102
  930BOLB   C3A22303   4.716   1.907  28.967  0.0991 -0.2602  0.1434
  930BOLB   C4A22304   5.065   1.636  28.918  0.3119 -0.0125  0.2252
  930BOLB   C1B22305   3.809   2.276  28.110 -0.1476 -0.0248  0.0416
  930BOLB   C2B22306   4.278   2.278  27.999 -0.0742  0.3785  0.0616
  930BOLB   C3B22307   4.663   2.223  27.871 -0.2987  0.3509 -0.0461
  930BOLB   C4B22308   4.962   1.888  27.976 -0.2454  0.3652  0.3591
  930BOLB   NC222309   3.967   0.579  29.729 -0.4028 -0.3529 -0.0860
  930BOLB   PO222310   4.160   0.273  30.028 -0.0456 -0.0319 -0.2215
  930BOLB   GL322311   4.507   0.178  29.806 -0.3036 -0.1692  0.0674
  930BOLB   GL422312   4.528   0.004  29.627 -0.0363 -0.0720  0.1658
  930BOLB   C1C22313   4.749   0.373  29.467  0.2006 -0.0961 -0.0227
  930BOLB   C2C22314   5.050   0.720  29.187 -0.3309  0.1401  0.1447
  930BOLB   C3C22315   5.290   0.901  28.867 -0.0253 -0.1049 -0.1879
  930BOLB   C4C22316   5.229   1.335  28.627  0.3354  0.1662  0.0481
  930BOLB   C1D22317   4.880  -0.116  29.270 -0.3971  0.0718  0.0627
  930BOLB   C2D22318   5.043   0.226  29.027  0.1634 -0.2655 -0.1383
  930BOLB   C3D22319   5.106   0.521  28.612 -0.3001  0.1672 -0.5231
  930BOLB   C4D22320   5.377   0.440  28.236  0.0177  0.4345 -0.0641
  931BOLB   NC122321  18.054   2.665  16.662 -0.0067 -0.0724  0.2806
  931BOLB   PO122322  18.334   3.030  16.434 -0.1326 -0.3252  0.1797
  931BOLB   GL122323  18.505   2.619  16.392 -0.2670 -0.3139 -0.2510
  931BOLB   GL222324  18.825   2.618  16.328 -0.0805 -0.4030  0.0825
  931BOLB   C1A22325  18.356   2.301  16.105  0.1842 -0.1892  0.0604
  931BOLB   C2A22326  18.175   1.928  16.068 -0.0570 -0.0695  0.0188
  931BOLB   C3A22327  18.095   1.693  16.394  0.1712  0.0665  0.3449
  931BOLB   C4A22328  18.015   1.308  16.657  0.0736 -0.0707  0.0399
  931BOLB   C1B22329  18.809   2.552  15.940 -0.2809  0.1340 -0.1865
  931BOLB   C2B22330  19.084   2.390  15.653 -0.0274 -0.1888  0.0577
  931BOLB   C3B22331  19.169   2.377  15.262 -0.2448  0.0498  0.0496
  931BOLB   C4B22332  19.597   2.495  15.083 -0.0011 -0.1048  0.1722
  931BOLB   NC222333  15.862   0.500  17.344  0.0151  0.1827  0.0833
  931BOLB   PO222334  15.996   0.688  16.986  0.1219  0.2067  0.1347
  931BOLB   GL322335  16.339   0.449  16.708 -0.0786  0.2421 -0.0016
  931BOLB   GL422336  16.476   0.060  16.787 -0.0184 -0.0402 -0.1446
  931BOLB   C1C22337  16.763   0.476  16.534 -0.1910  0.2125  0.0606
  931BOLB   C2C22338  17.134   0.405  16.638  0.1399 -0.2442  0.1624
  931BOLB   C3C22339  17.531   0.705  16.726  0.0131  0.2781 -0.2135
  931BOLB   C4C22340  17.686   1.053  16.774 -0.2115 -0.0736 -0.1041
  931BOLB   C1D22341  16.529  -0.289  16.478  0.1736 -0.0239 -0.2776
  931BOLB   C2D22342  16.750  -0.270  16.005  0.1791  0.0877 -0.0949
  931BOLB   C3D22343  16.709  -0.534  15.558 -0.0313 -0.0561 -0.2587
  931BOLB   C4D22344  17.002  -0.856  15.436  0.1551  0.2039 -0.0836
  932BOLB   NC122345  12.254   7.212  19.127  0.2349  0.0604 -0.0936
  932BOLB   PO122346  12.364   6.879  18.810 -0.1953  0.0281  0.1446
  932BOLB   GL122347  12.192   6.952  18.410 -0.2566  0.1173  0.0052
  932BOLB   GL222348  12.356   7.274  18.379  0.0790  0.2225  0.3061
  932BOLB   C1A22349  12.123   6.911  18.032 -0.0737  0.2432  0.0478
  932BOLB   C2A22350  11.905   6.995  17.590  0.0161  0.2512  0.0930
  932BOLB   C3A22351  11.737   7.061  17.148  0.0007  0.3348 -0.2692
  932BOLB   C4A22352  11.639   7.292  16.815  0.1617 -0.3728  0.0166
  932BOLB   C1B22353  12.315   7.620  18.218 -0.0189 -0.2424 -0.0036
  932BOLB   C2B22354  12.130   7.788  17.883 -0.4998  0.2766  0.0541
  932BOLB   C3B22355  12.034   8.028  17.478  0.1077 -0.0821 -0.4073
  932BOLB   C4B22356  11.738   8.102  17.168 -0.1470  0.2675  0.2298
  932BOLB   NC222357  11.300   7.765  14.205  0.2578 -0.0669  0.1642
  932BOLB   PO222358  11.537   7.715  14.541 -0.1627 -0.2107  0.1874
  932BOLB   GL322359  11.308   7.697  14.898  0.0842  0.1051 -0.0346
  932BOLB   GL422360  11.029   7.489  15.005  0.1932  0.2056 -0.4145
  932BOLB   C1C22361  11.447   7.639  15.331  0.1291 -0.1043 -0.2072
  932BOLB   C2C22362  11.576   7.733  15.732 -0.0749  0.1270  0.3097
  932BOLB   C3C22363  11.522   7.607  16.065 -0.0003  0.1699  0.0576
  932BOLB   C4C22364  11.786   7.393  16.379  0.1664  0.0273 -0.1873
  932BOLB   C1D22365  11.218   7.169  15.263  0.2333 -0.1211  0.1629
  932BOLB   C2D22366  11.650   7.240  15.504  0.0211 -0.2563  0.1860
  932BOLB   C3D22367  12.001   7.315  15.635 -0.0280 -0.3249 -0.0013
  932BOLB   C4D22368  12.283   6.966  15.663  0.1692 -0.0690 -0.0841
  933BOLB   NC122369  13.424   2.012  33.121 -0.2680  0.1325 -0.0670
  933BOLB   PO122370  13.527   1.727  32.843  0.3530  0.2126  0.0989
  933BOLB   GL122371  13.485   1.334  32.999 -0.0400 -0.0117  0.0003
  933BOLB   GL222372  13.273   1.475  33.207 -0.1276  0.4590  0.1251
  933BOLB   C1A22373  13.659   1.069  33.429 -0.5391 -0.0901 -0.0641
  933BOLB   C2A22374  13.538   0.943  33.840 -0.0742 -0.1342  0.0926
  933BOLB   C3A22375  13.469   0.934  34.187  0.0030 -0.1981  0.0037
  933BOLB   C4A22376  13.435   1.005  34.650 -0.1524 -0.1292 -0.2024
  933BOLB   C1B22377  13.375   1.548  33.629  0.0228  0.0349 -0.0610
  933BOLB   C2B22378  13.299   1.428  34.069 -0.3940  0.1202  0.0464
  933BOLB   C3B22379  13.149   1.400  34.446  0.2389  0.0031  0.1384
  933BOLB   C4B22380  13.008   1.241  34.846  0.0907 -0.2474  0.2769
  933BOLB   NC222381  12.937   0.395  37.403  0.2319  0.0250  0.2956
  933BOLB   PO222382  12.864   0.231  36.930  0.3751  0.0383 -0.0862
  933BOLB   GL322383  12.896   0.115  36.454  0.0700  0.1876  0.1294
  933BOLB   GL422384  13.247   0.240  36.397  0.0614 -0.0592  0.0855
  933BOLB   C1C22385  12.896   0.284  36.090 -0.2833  0.1922 -0.1151
  933BOLB   C2C22386  12.782   0.436  35.773  0.0791 -0.0973 -0.0891
  933BOLB   C3C22387  13.028   0.658  35.314  0.1459 -0.1912  0.1722
  933BOLB   C4C22388  13.126   0.750  34.998 -0.0336  0.0140 -0.1546
  933BOLB   C1D22389  13.229   0.701  36.205  0.2581 -0.0169 -0.0855
  933BOLB   C2D22390  13.332   0.963  35.782 -0.2364  0.1084  0.1267
  933BOLB   C3D22391  13.257   1.129  35.385 -0.3463  0.2527 -0.0618
  933BOLB   C4D22392  13.420   1.301  35.084 -0.0493 -0.0699  0.2588
  934BOLB   NC122393  18.150  11.555  23.498 -0.1307  0.2259  0.2195
  934BOLB   PO122394  18.554  11.562  23.188 -0.0618  0.0366  0.1411
  934BOLB   GL122395  18.518  11.947  22.953 -0.1242  0.0176 -0.3651
  934BOLB   GL222396  18.458  11.987  22.578 -0.0072 -0.1877  0.4394
  934BOLB   C1A22397  18.703  12.339  22.794 -0.0665  0.1667  0.0656
  934BOLB   C2A22398  18.811  12.597  22.601 -0.0034 -0.0325 -0.1066
  934BOLB   C3A22399  18.928  12.622  22.209 -0.2649  0.0330 -0.1466
  934BOLB   C4A22400  18.931  12.908  21.920 -0.2831 -0.4281 -0.0702
  934BOLB   C1B22401  18.507  12.282  22.338 -0.5447 -0.3303 -0.0170
  934BOLB   C2B22402  18.603  12.523  21.845  0.2698 -0.0713  0.3176
  934BOLB   C3B22403  18.670  12.629  21.469  0.2198 -0.0026  0.1553
  934BOLB   C4B22404  18.614  12.787  21.091 -0.0719 -0.2191  0.3997
  934BOLB   NC222405  20.055  15.385  20.911 -0.1330 -0.0141  0.1633
  934BOLB   PO222406  19.838  14.996  21.047  0.2215 -0.1580  0.1029
  934BOLB   GL322407  19.835  14.593  21.250 -0.1189 -0.0254  0.0345
  934BOLB   GL422408  20.096  14.409  21.311  0.1295 -0.1532 -0.3536
  934BOLB   C1C22409  19.621  14.184  21.124 -0.3819 -0.1247  0.5292
  934BOLB   C2C22410  19.493  13.808  21.183 -0.1663  0.2066  0.1388
  934BOLB   C3C22411  19.302  13.432  21.261  0.1800  0.0162 -0.1891
  934BOLB   C4C22412  19.255  13.249  21.617 -0.4310  0.1537  0.1520
  934BOLB   C1D22413  19.786  14.196  21.609  0.0282  0.1503  0.3006
  934BOLB   C2D22414  19.580  13.798  21.653 -0.2320 -0.1906 -0.3201
  934BOLB   C3D22415  19.742  13.346  21.595  0.0457  0.0907 -0.1802
  934BOLB   C4D22416  20.048  13.068  21.487  0.1606 -0.2980  0.1105
  935BOLB   NC122417  11.583  -3.405  26.097  0.0162  0.1104 -0.1315
  935BOLB   PO122418  11.858  -3.657  25.851 -0.3158  0.0395 -0.0445
  935BOLB   GL122419  11.579  -4.037  25.961 -0.0014  0.1181  0.0391
  935BOLB   GL222420  11.339  -4.013  25.688  0.0796  0.0402  0.0533
  935BOLB   C1A22421  11.473  -4.460  25.921 -0.1242  0.1143  0.2598
  935BOLB   C2A22422  11.552  -4.919  25.762 -0.1164 -0.2022  0.1818
  935BOLB   C3A22423  11.738  -5.309  25.756  0.0865 -0.0778  0.0776
  935BOLB   C4A22424  12.095  -5.723  25.814  0.3052  0.2541  0.1090
  935BOLB   C1B22425  11.483  -4.314  25.366  0.1692  0.2362  0.2938
  935BOLB   C2B22426  11.451  -4.700  25.290 -0.2378 -0.0279  0.0766
  935BOLB   C3B22427  11.180  -4.884  25.105  0.3149 -0.0200  0.2334
  935BOLB   C4B22428  10.995  -5.281  25.058  0.1772  0.0906 -0.1667
  935BOLB   NC222429  12.282  -8.005  27.560 -0.0421  0.2720  0.2140
  935BOLB   PO222430  12.013  -7.745  27.251  0.1477 -0.0915 -0.0685
  935BOLB   GL322431  12.189  -7.403  27.077 -0.0867  0.4232 -0.2036
  935BOLB   GL422432  12.476  -7.144  27.318 -0.2731  0.3239  0.0312
  935BOLB   C1C22433  12.246  -7.115  26.771 -0.0674  0.2200  0.1621
  935BOLB   C2C22434  12.480  -6.755  26.526  0.1348 -0.1235  0.0710
  935BOLB   C3C22435  12.367  -6.312  26.294 -0.0841 -0.1419 -0.0768
  935BOLB   C4C22436  12.252  -5.957  26.200  0.1064  0.0948  0.0297
  935BOLB   C1D22437  12.489  -6.690  27.043 -0.2207  0.1343  0.2117
  935BOLB   C2D22438  12.636  -6.291  26.753 -0.2357  0.2627  0.2038
  935BOLB   C3D22439  12.802  -5.916  26.618 -0.1625  0.0256 -0.3619
  935BOLB   C4D22440  12.597  -5.567  26.328  0.1190  0.2930 -0.0304
  936BOLB   NC122441  17.472  -3.854  22.336  0.3621  0.0178 -0.0810
  936BOLB   PO122442  17.286  -4.281  22.224 -0.0243  0.0691 -0.2429
  936BOLB   GL122443  17.523  -4.783  22.277 -0.3332 -0.0795 -0.0958
  936BOLB   GL222444  17.303  -4.986  22.295 -0.2251 -0.3284  0.1315
  936BOLB   C1A22445  17.849  -5.091  22.222 -0.1120 -0.0470  0.3284
  936BOLB   C2A22446  18.109  -5.282  22.552 -0.0414  0.0150 -0.1243
  936BOLB   C3A22447  18.365  -5.572  22.908 -0.0869  0.1870  0.0661
  936BOLB   C4A22448  18.399  -5.746  23.299 -0.2351  0.0084 -0.1210
  936BOLB   C1B22449  16.943  -5.302  22.091  0.0992  0.3003  0.1683
  936BOLB   C2B22450  16.663  -5.480  21.885 -0.3216  0.1780 -0.0803
  936BOLB   C3B22451  16.483  -5.876  21.834  0.0331  0.0528  0.2907
  936BOLB   C4B22452  16.470  -6.204  21.548  0.0474 -0.0924  0.2809
  936BOLB   NC222453  17.269  -4.188  24.058  0.4837 -0.0914 -0.0022
  936BOLB   PO222454  16.990  -4.515  23.980  0.1764  0.1712  0.0683
  936BOLB   GL322455  17.103  -4.814  24.027  0.1502  0.0081  0.1701
  936BOLB   GL422456  16.896  -4.903  24.240 -0.0777  0.1727  0.1468
  936BOLB   C1C22457  17.385  -5.159  24.090  0.0653 -0.0926  0.0676
  936BOLB   C2C22458  17.829  -5.343  24.126 -0.0174 -0.1829  0.0281
  936BOLB   C3C22459  18.102  -5.619  23.958 -0.1024 -0.0627 -0.3175
  936BOLB   C4C22460  18.384  -5.797  23.702  0.1513  0.0441 -0.1452
  936BOLB   C1D22461  16.644  -5.146  24.600 -0.1282  0.4400 -0.0167
  936BOLB   C2D22462  16.615  -5.647  24.534 -0.4522 -0.1376 -0.1853
  936BOLB   C3D22463  16.602  -5.874  24.124  0.0321  0.1494 -0.2667
  936BOLB   C4D22464  16.593  -6.199  23.731 -0.0252  0.2181 -0.0693
  937BOLB   NC122465  13.629   3.049  16.744  0.1298 -0.0294 -0.4098
  937BOLB   PO122466  13.720   3.145  16.361 -0.4216  0.1547 -0.1899
  937BOLB   GL122467  13.361   3.129  16.080  0.1146  0.0661 -0.0387
  937BOLB   GL222468  13.451   3.006  15.737  0.0817 -0.3525 -0.0931
  937BOLB   C1A22469  12.974   3.192  15.827 -0.3309  0.1653  0.1164
  937BOLB   C2A22470  12.921   3.102  15.405 -0.5084  0.1851  0.3021
  937BOLB   C3A22471  12.863   2.802  15.036  0.0969 -0.0566  0.0439
  937BOLB   C4A22472  13.118   2.493  14.993 -0.1529  0.0262  0.2426
  937BOLB   C1B22473  13.508   2.856  15.324 -0.3757  0.2547  0.1629
  937BOLB   C2B22474  13.432   2.963  14.910  0.3801 -0.4248 -0.0371
  937BOLB   C3B22475  13.294   3.287  14.473  0.2169 -0.2645  0.1244
  937BOLB   C4B22476  12.870   3.508  14.454 -0.4019 -0.0838  0.0286
  937BOLB   NC222477  13.165   2.807  12.737  0.1007  0.1519  0.0628
  937BOLB   PO222478  12.922   2.614  12.665 -0.3121 -0.0896 -0.3542
  937BOLB   GL322479  12.787   2.417  13.138  0.0786 -0.2637 -0.3206
  937BOLB   GL422480  12.460   2.377  13.216 -0.0123 -0.1446 -0.0526
  937BOLB   C1C22481  13.066   2.243  13.322 -0.2343  0.0348 -0.2919
  937BOLB   C2C22482  13.311   2.231  13.644 -0.1788 -0.1436 -0.3723
  937BOLB   C3C22483  13.339   2.233  14.098 -0.0031 -0.1986 -0.1313
  937BOLB   C4C22484  13.287   2.239  14.598  0.1900  0.2261  0.2437
  937BOLB   C1D22485  12.478   2.231  13.687 -0.3074 -0.1523  0.0374
  937BOLB   C2D22486  12.824   2.039  13.707 -0.2654  0.0334 -0.0896
  937BOLB   C3D22487  12.801   2.012  14.179  0.0542  0.1379 -0.1669
  937BOLB   C4D22488  12.934   1.800  14.482 -0.1474 -0.0868 -0.1178
  938BOLB   NC122489  10.685  -2.295  22.968 -0.1092  0.0597  0.2671
  938BOLB   PO122490  10.507  -2.662  23.099  0.2143  0.2159  0.0882
  938BOLB   GL122491  10.241  -2.972  23.080 -0.0323 -0.1414  0.1032
  938BOLB   GL222492  10.288  -3.135  23.379  0.2596 -0.0290  0.1954
  938BOLB   C1A22493   9.848  -3.115  23.089  0.0864 -0.4621  0.0500
  938BOLB   C2A22494   9.447  -3.041  22.825 -0.2014  0.0582  0.2724
  938BOLB   C3A22495   9.161  -3.365  22.553 -0.0438  0.1189 -0.1675
  938BOLB   C4A22496   8.872  -3.707  22.339  0.1364  0.0399 -0.0491
  938BOLB   C1B22497   9.979  -3.559  23.398  0.4179  0.2142  0.0203
  938BOLB   C2B22498   9.910  -4.029  23.365  0.0148  0.0125 -0.1262
  938BOLB   C3B22499   9.908  -4.426  23.208  0.0481  0.1052 -0.0472
  938BOLB   C4B22500   9.780  -4.776  23.183 -0.2067 -0.1708 -0.0623
  938BOLB   NC222501   7.940  -6.131  22.484 -0.1912 -0.0964  0.0373
  938BOLB   PO222502   7.759  -5.766  22.520 -0.0047  0.0560 -0.2897
  938BOLB   GL322503   7.933  -5.582  22.259  0.1473  0.3122  0.0663
  938BOLB   GL422504   8.042  -5.571  21.924  0.0073  0.1842 -0.0005
  938BOLB   C1C22505   8.052  -5.096  22.201  0.2037  0.3225 -0.0970
  938BOLB   C2C22506   8.074  -4.671  22.523 -0.0136 -0.2547 -0.2884
  938BOLB   C3C22507   8.281  -4.230  22.525 -0.0885  0.1373 -0.0153
  938BOLB   C4C22508   8.468  -3.940  22.285 -0.2166  0.0319 -0.0706
  938BOLB   C1D22509   8.478  -5.420  21.875 -0.0407  0.0063  0.0744
  938BOLB   C2D22510   8.550  -5.003  22.113 -0.0817  0.1788  0.1231
  938BOLB   C3D22511   8.482  -4.630  22.247  0.0337  0.2272 -0.1028
  938BOLB   C4D22512   8.759  -4.373  22.357  0.0097 -0.2535 -0.0527
  939BOLB   NC122513  13.473   9.745  20.228  0.0646  0.0476  0.0046
  939BOLB   PO122514  13.384   9.484  19.958 -0.1894  0.4127 -0.0714
  939BOLB   GL122515  13.197   9.845  19.852 -0.2735 -0.0154 -0.1873
  939BOLB   GL222516  13.367  10.059  19.814 -0.1833  0.4383  0.1463
  939BOLB   C1A22517  12.840  10.052  19.788  0.0092 -0.1092 -0.3288
  939BOLB   C2A22518  12.484  10.061  19.649  0.1334  0.2512  0.2137
  939BOLB   C3A22519  12.113  10.169  19.408  0.0254 -0.1464 -0.2802
  939BOLB   C4A22520  11.956   9.971  19.049  0.3049 -0.2669  0.3024
  939BOLB   C1B22521  13.459  10.450  19.940  0.0484  0.3460  0.0169
  939BOLB   C2B22522  13.386  10.770  19.755 -0.2912  0.0376  0.0303
  939BOLB   C3B22523  13.502  11.131  19.950  0.0082 -0.3449  0.0038
  939BOLB   C4B22524  13.573  11.587  19.854  0.1367 -0.0302  0.1692
  939BOLB   NC222525  13.249   8.938  19.256 -0.1483  0.1016 -0.1477
  939BOLB   PO222526  12.870   8.727  19.468 -0.3092 -0.1620  0.2074
  939BOLB   GL322527  12.679   8.865  19.139 -0.0835 -0.2027 -0.1467
  939BOLB   GL422528  12.752   9.128  19.151 -0.0014  0.0464 -0.0952
  939BOLB   C1C22529  12.369   8.826  19.027 -0.2782  0.2694 -0.0372
  939BOLB   C2C22530  12.007   8.957  18.899 -0.2580  0.2872  0.0380
  939BOLB   C3C22531  11.869   9.361  18.910  0.2349  0.2394 -0.1994
  939BOLB   C4C22532  11.834   9.737  18.699  0.1310 -0.0338  0.1860
  939BOLB   C1D22533  12.451   9.310  18.968 -0.0763 -0.2898  0.2004
  939BOLB   C2D22534  12.324   9.591  18.689 -0.2408 -0.0826 -0.0423
  939BOLB   C3D22535  12.259  10.039  18.654  0.2336  0.1919 -0.6122
  939BOLB   C4D22536  11.974  10.312  18.680 -0.0542  0.1623 -0.2664
  940BOLB   NC122537  15.809  10.781  36.679  0.0919 -0.0631 -0.2349
  940BOLB   PO122538  15.413  10.660  36.682  0.3109 -0.1038 -0.1639
  940BOLB   GL122539  15.404  10.368  36.344  0.0574 -0.2178  0.0193
  940BOLB   GL222540  15.090  10.404  36.176  0.0638 -0.0030 -0.0246
  940BOLB   C1A22541  15.465  10.022  35.979 -0.0473 -0.1318 -0.0487
  940BOLB   C2A22542  15.464   9.944  35.558 -0.1923  0.1073 -0.2166
  940BOLB   C3A22543  15.286   9.953  35.169 -0.1357 -0.2419 -0.3033
  940BOLB   C4A22544  15.062  10.236  34.840  0.3783  0.2590  0.1705
  940BOLB   C1B22545  15.205  10.414  35.691  0.0668 -0.1080  0.1374
  940BOLB   C2B22546  15.411  10.469  35.302  0.0934  0.2829 -0.1301
  940BOLB   C3B22547  15.814  10.259  35.243  0.1146 -0.1146  0.0068
  940BOLB   C4B22548  16.107  10.560  35.199 -0.0792 -0.1030  0.0638
  940BOLB   NC222549  13.873  11.583  35.709  0.4690  0.1387  0.2803
  940BOLB   PO222550  13.597  11.718  35.348  0.3937 -0.0839  0.1487
  940BOLB   GL322551  13.719  11.647  34.886 -0.0577 -0.0092 -0.0285
  940BOLB   GL422552  13.574  11.823  34.634 -0.0629  0.3166 -0.0345
  940BOLB   C1C22553  13.946  11.322  34.597 -0.3086 -0.0352  0.0050
  940BOLB   C2C22554  14.125  11.066  34.451  0.0406  0.0946 -0.0382
  940BOLB   C3C22555  14.356  10.633  34.443  0.0347 -0.2337 -0.1811
  940BOLB   C4C22556  14.839  10.577  34.616  0.0871  0.5441 -0.3077
  940BOLB   C1D22557  13.785  11.709  34.341  0.3234  0.0608 -0.4636
  940BOLB   C2D22558  14.147  11.628  34.018  0.1703 -0.1041  0.2191
  940BOLB   C3D22559  14.411  11.332  34.005 -0.0508 -0.1304  0.5326
  940BOLB   C4D22560  14.573  11.020  33.701  0.5179  0.0839  0.1357
  941BOLB   NC122561  14.190   9.641  31.725 -0.3873  0.0999 -0.3518
  941BOLB   PO122562  13.912   9.878  31.973 -0.0751  0.0333 -0.2061
  941BOLB   GL122563  14.035  10.283  32.059  0.2841  0.3057 -0.1678
  941BOLB   GL222564  14.197  10.137  32.347 -0.0450 -0.1934 -0.2300
  941BOLB   C1A22565  14.096  10.724  32.181 -0.0539 -0.1170 -0.2727
  941BOLB   C2A22566  14.340  10.998  32.326  0.2064  0.2568  0.0423
  941BOLB   C3A22567  14.388  11.283  32.487 -0.2949  0.1795  0.1939
  941BOLB   C4A22568  14.420  11.565  32.784  0.1724  0.1448  0.0566
  941BOLB   C1B22569  14.332  10.555  32.617 -0.2304  0.1196  0.1951
  941BOLB   C2B22570  14.583  10.890  32.765 -0.2892  0.0850  0.0907
  941BOLB   C3B22571  14.788  11.263  32.902  0.0325 -0.2733  0.2579
  941BOLB   C4B22572  14.874  11.407  33.334 -0.0745  0.2237 -0.0051
  941BOLB   NC222573  15.155  13.192  34.168 -0.0169  0.0136  0.2883
  941BOLB   PO222574  14.730  13.004  34.374 -0.0173 -0.2780 -0.2633
  941BOLB   GL322575  14.334  12.662  34.322 -0.4365 -0.0231 -0.1183
  941BOLB   GL422576  14.393  12.328  34.380 -0.0077 -0.0286 -0.2985
  941BOLB   C1C22577  14.205  12.440  33.968  0.3023  0.0864  0.3338
  941BOLB   C2C22578  14.019  12.049  33.819 -0.0046  0.1220  0.2434
  941BOLB   C3C22579  14.086  11.868  33.556  0.0450  0.2057  0.3367
  941BOLB   C4C22580  14.206  11.824  33.067 -0.1469  0.1476 -0.0565
  941BOLB   C1D22581  14.663  12.075  34.086 -0.0594 -0.4354 -0.2020
  941BOLB   C2D22582  14.614  11.763  33.785  0.0621  0.1891 -0.1131
  941BOLB   C3D22583  14.417  11.474  33.545  0.3512  0.0213 -0.2652
  941BOLB   C4D22584  14.411  11.157  33.195  0.2826 -0.0604  0.1813
  942BOLB   NC122585   8.236   5.764  21.542 -0.1224 -0.1751 -0.2529
  942BOLB   PO122586   8.018   5.601  21.943 -0.1343 -0.0833 -0.1053
  942BOLB   GL122587   7.639   5.553  21.689  0.0507  0.1647 -0.2839
  942BOLB   GL222588   7.746   5.611  21.362 -0.1809 -0.3207 -0.0931
  942BOLB   C1A22589   7.344   5.816  21.626 -0.2365 -0.2253 -0.0772
  942BOLB   C2A22590   7.122   6.089  21.516  0.2959 -0.2701  0.0151
  942BOLB   C3A22591   6.771   6.219  21.461  0.1123  0.0328  0.1421
  942BOLB   C4A22592   6.626   6.173  21.131  0.0820  0.0390 -0.1161
  942BOLB   C1B22593   7.319   5.512  21.270 -0.1715 -0.0115 -0.0095
  942BOLB   C2B22594   7.041   5.825  21.088  0.0347 -0.1345 -0.2858
  942BOLB   C3B22595   7.155   5.987  20.828 -0.2313 -0.2262  0.1283
  942BOLB   C4B22596   7.366   6.301  20.677  0.0891  0.1762  0.0901
  942BOLB   NC222597   4.403   6.277  20.174 -0.0276 -0.2016  0.0054
  942BOLB   PO222598   4.554   6.107  19.854 -0.0646 -0.0834  0.0560
  942BOLB   GL322599   5.017   5.860  19.873  0.2314 -0.2368 -0.0157
  942BOLB   GL422600   5.307   5.988  19.574  0.1022  0.2028  0.1165
  942BOLB   C1C22601   5.338   5.802  20.221 -0.0181  0.0123 -0.0818
  942BOLB   C2C22602   5.479   6.102  20.394  0.0342 -0.1581  0.2627
  942BOLB   C3C22603   5.887   6.152  20.457 -0.0549 -0.3476  0.0896
  942BOLB   C4C22604   6.314   6.066  20.838  0.3553 -0.0537  0.3328
  942BOLB   C1D22605   5.479   5.564  19.814  0.0352  0.0834 -0.0406
  942BOLB   C2D22606   5.713   5.257  19.571 -0.0997 -0.1735  0.0360
  942BOLB   C3D22607   6.052   5.015  19.434 -0.0408 -0.0876 -0.1074
  942BOLB   C4D22608   6.017   4.535  19.224  0.0677  0.1730 -0.1775
  943BOLB   NC122609  10.926  12.542  17.934  0.5850 -0.0349 -0.1727
  943BOLB   PO122610  11.143  12.793  18.287  0.1818  0.3660 -0.1242
  943BOLB   GL122611  11.231  12.459  18.545  0.1472  0.1540 -0.0323
  943BOLB   GL222612  11.338  12.419  18.888  0.0530 -0.4255 -0.0031
  943BOLB   C1A22613  11.273  12.057  18.572 -0.0704 -0.1775 -0.0550
  943BOLB   C2A22614  11.516  11.761  18.649 -0.0988 -0.2565  0.0088
  943BOLB   C3A22615  11.755  11.461  18.841 -0.3728  0.0155 -0.2152
  943BOLB   C4A22616  12.007  11.299  19.196 -0.4306  0.0691  0.0571
  943BOLB   C1B22617  11.671  12.268  19.013 -0.1069  0.1187  0.3123
  943BOLB   C2B22618  11.964  12.235  19.376  0.1922  0.1620 -0.2738
  943BOLB   C3B22619  11.938  12.223  19.862 -0.2128 -0.4092  0.0208
  943BOLB   C4B22620  11.832  11.932  20.144 -0.2595 -0.2538 -0.0327
  943BOLB   NC222621  11.943   9.930  21.156 -0.0010  0.4013 -0.5090
  943BOLB   PO222622  12.253  10.182  21.260 -0.0180 -0.0979 -0.0160
  943BOLB   GL322623  12.024  10.513  21.010 -0.0034 -0.0013  0.2767
  943BOLB   GL422624  11.811  10.361  20.968 -0.0073 -0.3072  0.3698
  943BOLB   C1C22625  12.052  10.880  20.769  0.1281  0.2509 -0.0547
  943BOLB   C2C22626  12.201  11.244  20.421 -0.0280  0.1678  0.0605
  943BOLB   C3C22627  12.222  11.397  20.126  0.2801 -0.0784  0.2013
  943BOLB   C4C22628  12.140  11.326  19.615  0.0030  0.0408 -0.2051
  943BOLB   C1D22629  11.580  10.788  20.971  0.1889 -0.0592  0.2250
  943BOLB   C2D22630  11.332  11.168  20.779 -0.0212  0.1020 -0.1642
  943BOLB   C3D22631  11.292  11.575  20.628  0.3377  0.2000 -0.0713
  943BOLB   C4D22632  11.184  11.991  20.570  0.0285 -0.1427 -0.0700
  944BOLB   NC122633  14.886   7.068  33.757 -0.1396 -0.1578  0.3772
  944BOLB   PO122634  14.580   6.779  33.752 -0.1936 -0.0127  0.4190
  944BOLB   GL122635  14.309   6.871  33.979 -0.0329  0.3583 -0.1690
  944BOLB   GL222636  14.030   7.004  34.103  0.0027 -0.2593 -0.1266
  944BOLB   C1A22637  14.425   6.863  34.463  0.0396  0.2830 -0.0209
  944BOLB   C2A22638  14.273   7.076  34.848 -0.0152 -0.2930  0.0398
  944BOLB   C3A22639  13.892   6.774  34.936 -0.0586  0.0925 -0.1354
  944BOLB   C4A22640  13.493   6.773  35.195 -0.0247  0.1531  0.1224
  944BOLB   C1B22641  13.864   6.973  34.484 -0.1185  0.0208  0.1756
  944BOLB   C2B22642  13.508   7.065  34.765  0.3672  0.2438  0.1197
  944BOLB   C3B22643  13.115   6.940  34.697  0.0732 -0.1105  0.0055
  944BOLB   C4B22644  12.902   6.676  34.818 -0.3366  0.4269  0.0222
  944BOLB   NC222645  12.578   7.533  37.192 -0.1587  0.2488 -0.0264
  944BOLB   PO222646  13.041   7.397  37.306  0.2722  0.2678  0.0074
  944BOLB   GL322647  12.997   7.315  36.876  0.2339 -0.1188  0.2126
  944BOLB   GL422648  12.763   7.520  36.731  0.3891  0.1026 -0.0506
  944BOLB   C1C22649  12.927   7.052  36.560  0.1141  0.1981 -0.0418
  944BOLB   C2C22650  12.819   6.942  36.165 -0.1170 -0.1487 -0.1996
  944BOLB   C3C22651  13.031   6.922  35.828 -0.1139 -0.3002  0.2313
  944BOLB   C4C22652  13.218   6.887  35.472 -0.0113 -0.2786  0.0181
  944BOLB   C1D22653  12.835   7.522  36.285 -0.1279  0.1450  0.0968
  944BOLB   C2D22654  12.885   7.604  35.863 -0.3142  0.1645  0.1098
  944BOLB   C3D22655  13.060   7.359  35.516  0.0204 -0.0648  0.0504
  944BOLB   C4D22656  12.966   7.281  35.070 -0.1447 -0.0916  0.0681
  945BOLB   NC122657  19.998  10.443  29.828 -0.0703  0.2887  0.0413
  945BOLB   PO122658  20.291  10.294  30.098  0.0596 -0.0447 -0.1645
  945BOLB   GL122659  20.623  10.602  30.071 -0.2740  0.1168  0.0821
  945BOLB   GL222660  20.704  10.531  30.513 -0.0159  0.3319  0.1258
  945BOLB   C1A22661  20.607  11.076  30.081 -0.0202  0.1941 -0.0208
  945BOLB   C2A22662  20.606  11.482  30.067 -0.1633 -0.0146  0.1547
  945BOLB   C3A22663  20.548  12.018  30.043  0.0772  0.1193  0.0335
  945BOLB   C4A22664  20.728  12.458  29.889 -0.0564  0.2311 -0.0798
  945BOLB   C1B22665  21.030  10.812  30.372  0.0204  0.0510  0.2355
  945BOLB   C2B22666  21.081  10.927  30.039  0.1402 -0.0237 -0.4479
  945BOLB   C3B22667  21.166  11.329  30.003  0.0408 -0.3688  0.2522
  945BOLB   C4B22668  21.058  11.769  29.951 -0.1276 -0.2123  0.0956
  945BOLB   NC222669  21.888  14.385  29.835 -0.0792  0.0675 -0.0027
  945BOLB   PO222670  22.149  14.144  30.182 -0.4941  0.2839  0.0543
  945BOLB   GL322671  21.789  13.896  29.924 -0.0894  0.0014 -0.0470
  945BOLB   GL422672  21.507  13.985  30.083  0.3369 -0.1782  0.3765
  945BOLB   C1C22673  21.470  13.646  29.614  0.4044  0.0704 -0.3421
  945BOLB   C2C22674  21.163  13.359  29.440 -0.2770  0.1825 -0.5672
  945BOLB   C3C22675  21.187  12.915  29.464  0.0619  0.2271  0.3058
  945BOLB   C4C22676  21.001  12.591  29.606 -0.1108 -0.0820  0.1012
  945BOLB   C1D22677  21.546  13.561  30.190  0.0414  0.3253  0.1928
  945BOLB   C2D22678  21.707  13.210  30.296  0.5096  0.0862  0.0164
  945BOLB   C3D22679  21.946  12.855  30.181  0.2788  0.1038 -0.0221
  945BOLB   C4D22680  21.816  12.452  30.253 -0.1448  0.0161  0.0402
  946BOLB   NC122681  11.834  10.990  22.807 -0.0426 -0.0533  0.0034
  946BOLB   PO122682  11.481  10.856  22.856  0.1874 -0.0991  0.1908
  946BOLB   GL122683  11.082  11.161  22.853 -0.2280  0.0783 -0.0124
  946BOLB   GL222684  10.826  11.047  22.924  0.0125 -0.2121  0.3369
  946BOLB   C1A22685  11.052  11.624  22.698  0.1131 -0.0088  0.1659
  946BOLB   C2A22686  11.034  11.994  22.457  0.0418 -0.3136  0.1024
  946BOLB   C3A22687  10.769  12.348  22.259 -0.2142  0.1021 -0.2976
  946BOLB   C4A22688  10.552  12.714  22.164  0.0056  0.3329 -0.3519
  946BOLB   C1B22689  10.482  11.132  22.614 -0.0724  0.1787  0.0754
  946BOLB   C2B22690  10.138  11.293  22.286  0.0870  0.1496  0.0392
  946BOLB   C3B22691   9.695  11.258  22.358 -0.0294 -0.2057  0.0531
  946BOLB   C4B22692   9.352  11.170  22.694  0.1811 -0.1131 -0.1367
  946BOLB   NC222693   8.567  13.115  20.660 -0.1239  0.2505  0.1501
  946BOLB   PO222694   8.403  13.082  21.027 -0.0574  0.1153  0.1311
  946BOLB   GL322695   8.790  13.062  21.241 -0.0099  0.0915 -0.1724
  946BOLB   GL422696   8.862  13.072  21.541 -0.1280 -0.0764  0.1122
  946BOLB   C1C22697   9.208  12.717  21.205  0.0397  0.0059 -0.0284
  946BOLB   C2C22698   9.531  12.936  21.372 -0.1947  0.0079 -0.1536
  946BOLB   C3C22699   9.753  12.974  21.685 -0.1064  0.0173  0.0356
  946BOLB   C4C22700  10.112  12.965  22.099  0.0609  0.1842 -0.1249
  946BOLB   C1D22701   8.873  12.589  21.565 -0.0276  0.0546 -0.2938
  946BOLB   C2D22702   9.176  12.353  21.765 -0.0483  0.2370 -0.0664
  946BOLB   C3D22703   9.478  12.130  21.720 -0.0465 -0.3157 -0.2011
  946BOLB   C4D22704   9.871  12.005  21.844 -0.1494  0.2732  0.1435
  947BOLB   NC122705   8.404   6.469  21.743  0.0168  0.2448  0.0847
  947BOLB   PO122706   8.263   6.150  21.929  0.1152  0.3779 -0.2540
  947BOLB   GL122707   7.972   6.328  21.753  0.2471  0.3233 -0.1703
  947BOLB   GL222708   7.861   6.069  21.598 -0.0058  0.0001 -0.4094
  947BOLB   C1A22709   7.778   6.616  21.493 -0.2542 -0.1214 -0.2667
  947BOLB   C2A22710   7.479   6.835  21.312  0.0562 -0.1863  0.2301
  947BOLB   C3A22711   7.113   6.991  21.146  0.2828  0.3159 -0.2323
  947BOLB   C4A22712   6.918   7.258  21.235  0.1849  0.4244 -0.0647
  947BOLB   C1B22713   7.445   6.345  21.783 -0.3705  0.0559 -0.2772
  947BOLB   C2B22714   7.073   6.612  21.535  0.1243 -0.0717 -0.1042
  947BOLB   C3B22715   6.783   6.821  21.618  0.1360 -0.0888  0.0751
  947BOLB   C4B22716   6.465   6.739  21.858  0.0857  0.1522  0.2178
  947BOLB   NC222717   4.924   8.546  19.986  0.0570  0.2204 -0.1270
  947BOLB   PO222718   4.904   8.634  20.406 -0.0931  0.0677 -0.1731
  947BOLB   GL322719   5.358   8.683  20.353  0.0719 -0.1611 -0.1994
  947BOLB   GL422720   5.692   8.719  20.095  0.0784 -0.0860 -0.2800
  947BOLB   C1C22721   5.713   8.509  20.615  0.2078  0.2763  0.0761
  947BOLB   C2C22722   5.938   8.034  20.847 -0.0238 -0.0196  0.3772
  947BOLB   C3C22723   6.345   7.773  20.883  0.2837 -0.1216 -0.0278
  947BOLB   C4C22724   6.688   7.515  21.144  0.0245 -0.1459 -0.1191
  947BOLB   C1D22725   6.110   8.814  20.323  0.0118  0.2111  0.4350
  947BOLB   C2D22726   6.189   8.806  20.763  0.2609  0.0007  0.0380
  947BOLB   C3D22727   6.458   8.810  21.125  0.0879  0.0160 -0.0269
  947BOLB   C4D22728   6.894   9.037  20.948  0.0387  0.2013 -0.1063
  948BOLB   NC122729   9.098   8.213  22.908 -0.0052 -0.1306  0.3599
  948BOLB   PO122730   8.843   8.541  22.906 -0.0078 -0.2440  0.3085
  948BOLB   GL122731   8.604   8.839  22.693  0.1409 -0.0109 -0.3431
  948BOLB   GL222732   8.396   9.032  22.865 -0.2211  0.2776  0.2250
  948BOLB   C1A22733   8.210   8.852  22.429 -0.1263 -0.3950 -0.2722
  948BOLB   C2A22734   7.804   9.053  22.389  0.0902  0.2427  0.1378
  948BOLB   C3A22735   7.604   9.383  22.242  0.0075  0.0378 -0.2890
  948BOLB   C4A22736   7.299   9.779  22.292  0.4549 -0.3801  0.1211
  948BOLB   C1B22737   7.929   8.987  22.833  0.0021 -0.0769  0.2215
  948BOLB   C2B22738   7.453   8.929  22.812 -0.1221  0.0964  0.1196
  948BOLB   C3B22739   7.254   9.177  22.610  0.2557 -0.0227  0.0654
  948BOLB   C4B22740   6.922   9.489  22.488  0.4538  0.2677 -0.1264
  948BOLB   NC222741   5.622  11.554  21.044 -0.0362  0.3155 -0.2919
  948BOLB   PO222742   5.788  11.383  21.494 -0.2165  0.0467 -0.0368
  948BOLB   GL322743   5.934  10.994  21.535  0.1010  0.2531 -0.0442
  948BOLB   GL422744   6.231  11.193  21.530 -0.3112  0.0809 -0.0218
  948BOLB   C1C22745   6.313  10.664  21.477  0.1064  0.2207  0.0902
  948BOLB   C2C22746   6.578  10.407  21.700  0.1887  0.1236 -0.3361
  948BOLB   C3C22747   6.727  10.085  21.912 -0.1380 -0.1208 -0.2364
  948BOLB   C4C22748   7.060  10.087  22.187 -0.2730 -0.0527  0.3993
  948BOLB   C1D22749   6.682  11.021  21.608 -0.0256 -0.1562  0.2940
  948BOLB   C2D22750   6.935  10.817  21.960 -0.0688  0.4174  0.0092
  948BOLB   C3D22751   7.080  10.594  22.450  0.0469  0.2834 -0.0763
  948BOLB   C4D22752   7.365  10.191  22.588 -0.1508 -0.0660  0.1691
  949BOLB   NC122753  20.076   5.035  32.717  0.3394  0.0972  0.3132
  949BOLB   PO122754  20.418   4.721  32.511  0.2229  0.1198  0.0243
  949BOLB   GL122755  20.570   4.834  32.866 -0.1364 -0.0474 -0.0813
  949BOLB   GL222756  20.300   4.882  33.144 -0.1308  0.1353  0.1421
  949BOLB   C1A22757  20.752   4.787  33.313 -0.3112 -0.0334 -0.1338
  949BOLB   C2A22758  20.866   4.633  33.745 -0.1855  0.1946 -0.1479
  949BOLB   C3A22759  20.799   4.705  34.116 -0.2943  0.2675 -0.1088
  949BOLB   C4A22760  20.912   4.577  34.523 -0.2361  0.2325 -0.1434
  949BOLB   C1B22761  20.296   4.806  33.534  0.1928  0.1381 -0.0188
  949BOLB   C2B22762  20.352   4.762  34.001  0.0861 -0.0210  0.3592
  949BOLB   C3B22763  20.434   4.849  34.458 -0.0947  0.2910  0.3153
  949BOLB   C4B22764  20.611   5.027  34.844 -0.0149  0.1054  0.1255
  949BOLB   NC222765  21.899   4.263  36.139  0.0934 -0.2433  0.0964
  949BOLB   PO222766  22.333   4.347  36.321  0.0888  0.5588 -0.0163
  949BOLB   GL322767  22.361   4.239  35.899 -0.3429  0.0756  0.1030
  949BOLB   GL422768  22.393   3.911  35.724  0.0685  0.0797  0.0910
  949BOLB   C1C22769  22.139   4.380  35.515  0.0040  0.0656  0.0994
  949BOLB   C2C22770  21.888   4.721  35.257  0.2361 -0.0838  0.0375
  949BOLB   C3C22771  21.501   4.881  35.104  0.0674 -0.1926 -0.1429
  949BOLB   C4C22772  21.227   4.614  34.883 -0.1392 -0.2766 -0.2217
  949BOLB   C1D22773  22.101   3.896  35.454 -0.2535  0.0424 -0.0333
  949BOLB   C2D22774  21.933   3.990  35.072 -0.0785 -0.1742  0.0301
  949BOLB   C3D22775  21.584   3.849  34.853  0.1407  0.0499 -0.1403
  949BOLB   C4D22776  21.545   3.482  34.691 -0.1620 -0.0813  0.2479
  950BOLB   NC122777  12.623  -3.989  26.010 -0.3070 -0.4211  0.0232
  950BOLB   PO122778  12.475  -3.904  25.692  0.2308  0.1275  0.3845
  950BOLB   GL122779  12.447  -4.421  25.807  0.0344  0.0187 -0.1249
  950BOLB   GL222780  12.377  -4.448  25.464 -0.3227 -0.1233  0.0367
  950BOLB   C1A22781  12.411  -4.772  25.997  0.1030  0.0564 -0.0378
  950BOLB   C2A22782  12.222  -4.952  26.300  0.2361  0.2215  0.0591
  950BOLB   C3A22783  12.152  -5.307  26.559 -0.0325  0.1822 -0.1879
  950BOLB   C4A22784  12.159  -5.687  26.609 -0.0708 -0.0634  0.0876
  950BOLB   C1B22785  12.621  -4.836  25.486  0.2098 -0.1223  0.1123
  950BOLB   C2B22786  12.715  -5.147  25.344 -0.2448 -0.2738 -0.2259
  950BOLB   C3B22787  12.662  -5.496  25.148  0.0122 -0.0233  0.0032
  950BOLB   C4B22788  12.359  -5.787  25.345  0.3002  0.1526 -0.1349
  950BOLB   NC222789  11.094  -7.583  28.342  0.3017  0.1549  0.1832
  950BOLB   PO222790  11.172  -7.529  27.907  0.0250  0.3200 -0.4805
  950BOLB   GL322791  11.439  -7.174  27.795  0.3575 -0.0224  0.0545
  950BOLB   GL422792  11.615  -7.057  27.873  0.0715 -0.1034  0.0601
  950BOLB   C1C22793  11.605  -6.876  27.354  0.1770  0.0877  0.0530
  950BOLB   C2C22794  12.027  -6.701  27.299 -0.3865  0.2421  0.0292
  950BOLB   C3C22795  12.119  -6.285  27.157 -0.3598 -0.1468 -0.2325
  950BOLB   C4C22796  12.289  -5.945  26.974  0.2847  0.4117 -0.0817
  950BOLB   C1D22797  11.470  -6.685  27.849  0.1573  0.1535  0.2779
  950BOLB   C2D22798  11.615  -6.293  27.944 -0.1441 -0.1888 -0.1212
  950BOLB   C3D22799  11.689  -5.837  27.875 -0.2475 -0.0848  0.1008
  950BOLB   C4D22800  11.952  -5.438  27.865  0.0147 -0.0476  0.3076
  951BOLB   NC122801  20.497  -0.824  28.507 -0.1003 -0.0896 -0.0958
  951BOLB   PO122802  20.316  -1.093  28.843 -0.1902  0.0988  0.1259
  951BOLB   GL122803  20.329  -1.411  29.098 -0.0211 -0.3766  0.3368
  951BOLB   GL222804  20.329  -1.415  29.372 -0.0768  0.3211  0.2988
  951BOLB   C1A22805  20.569  -1.884  29.227  0.0985 -0.0301  0.1422
  951BOLB   C2A22806  20.778  -2.015  29.577  0.1892 -0.1796  0.0774
  951BOLB   C3A22807  21.044  -2.201  29.865  0.2326 -0.1536  0.0250
  951BOLB   C4A22808  21.041  -2.523  30.276 -0.1228 -0.1146 -0.0217
  951BOLB   C1B22809  20.299  -1.759  29.692  0.1909 -0.2309  0.1068
  951BOLB   C2B22810  20.613  -1.843  30.089 -0.3841  0.1231  0.1122
  951BOLB   C3B22811  20.659  -2.151  30.324  0.0571 -0.1288  0.0246
  951BOLB   C4B22812  20.909  -2.301  30.700  0.0441  0.1691 -0.0189
  951BOLB   NC222813  21.890  -4.669  31.031  0.3829 -0.2037  0.1041
  951BOLB   PO222814  21.718  -4.533  31.337 -0.3594 -0.0823  0.2522
  951BOLB   GL322815  21.650  -4.150  31.085 -0.0557  0.1259  0.1290
  951BOLB   GL422816  21.957  -4.146  30.876 -0.0619  0.1291 -0.1951
  951BOLB   C1C22817  21.409  -3.816  30.931 -0.1583 -0.0554 -0.0421
  951BOLB   C2C22818  21.205  -3.543  30.735 -0.0947 -0.0458 -0.2625
  951BOLB   C3C22819  21.159  -3.172  30.523  0.0327  0.4134  0.0475
  951BOLB   C4C22820  21.277  -2.842  30.292  0.0446  0.1445  0.3237
  951BOLB   C1D22821  21.959  -3.858  30.583 -0.0012  0.1052 -0.0747
  951BOLB   C2D22822  21.613  -3.632  30.515  0.0947  0.1229 -0.1773
  951BOLB   C3D22823  21.521  -3.338  30.160 -0.1228 -0.1579 -0.2393
  951BOLB   C4D22824  21.127  -3.266  29.995  0.0872  0.0631  0.1965
  952BOLB   NC122825  17.274  -9.093  18.469 -0.0782 -0.0593  0.1915
  952BOLB   PO122826  17.698  -9.239  18.511  0.0200 -0.3016  0.0631
  952BOLB   GL122827  17.822  -8.857  18.232 -0.2721 -0.1902 -0.2044
  952BOLB   GL222828  17.498  -8.617  18.169  0.3355 -0.0044  0.1554
  952BOLB   C1A22829  17.955  -8.603  17.866  0.1805 -0.0060  0.0234
  952BOLB   C2A22830  18.034  -8.139  17.745  0.0845 -0.2828  0.2185
  952BOLB   C3A22831  18.055  -7.713  17.514 -0.1316 -0.0917 -0.0681
  952BOLB   C4A22832  18.028  -7.560  17.073  0.0861  0.0788 -0.0436
  952BOLB   C1B22833  17.738  -8.319  18.373  0.0264 -0.0489 -0.1451
  952BOLB   C2B22834  17.833  -8.013  18.264  0.1875 -0.0342  0.0513
  952BOLB   C3B22835  18.137  -7.736  18.157 -0.2377 -0.1674 -0.1985
  952BOLB   C4B22836  17.920  -7.542  17.973  0.0474  0.2722 -0.0885
  952BOLB   NC222837  17.151  -9.090  16.163 -0.0182  0.1298  0.1969
  952BOLB   PO222838  17.514  -9.305  16.131 -0.0828  0.1920 -0.0854
  952BOLB   GL322839  17.550  -8.901  15.818 -0.2500 -0.4193  0.1587
  952BOLB   GL422840  17.713  -9.020  15.451  0.0281  0.3100 -0.1255
  952BOLB   C1C22841  17.666  -8.455  15.812 -0.2092 -0.0510 -0.0873
  952BOLB   C2C22842  17.684  -7.989  15.987 -0.0493 -0.1916  0.1155
  952BOLB   C3C22843  17.863  -7.924  16.370  0.1230 -0.1331  0.0913
  952BOLB   C4C22844  17.789  -7.565  16.602  0.1233  0.1142 -0.0648
  952BOLB   C1D22845  17.755  -8.639  15.305 -0.0377  0.0364  0.0880
  952BOLB   C2D22846  17.660  -8.150  15.428 -0.1647  0.0584 -0.0666
  952BOLB   C3D22847  17.560  -7.752  15.293 -0.2161 -0.3589  0.1694
  952BOLB   C4D22848  17.521  -7.396  15.213 -0.1284 -0.5149  0.1027
  953BOLB   NC122849  22.036   7.936  36.403 -0.0836 -0.2577 -0.0233
  953BOLB   PO122850  21.837   7.647  36.100 -0.0549 -0.2068 -0.1165
  953BOLB   GL122851  21.650   7.792  35.722 -0.1046 -0.1393  0.0643
  953BOLB   GL222852  21.359   7.813  35.853 -0.0107  0.3617  0.0853
  953BOLB   C1A22853  21.796   7.926  35.383  0.1787  0.3697 -0.0386
  953BOLB   C2A22854  21.885   7.813  34.923 -0.0683 -0.0994  0.2991
  953BOLB   C3A22855  21.689   7.873  34.516  0.0645 -0.0172  0.0821
  953BOLB   C4A22856  21.651   7.888  34.093  0.0746 -0.4828  0.0345
  953BOLB   C1B22857  21.134   7.606  35.629  0.1512 -0.3747  0.0066
  953BOLB   C2B22858  20.802   7.513  35.364 -0.0356  0.0233 -0.0871
  953BOLB   C3B22859  20.519   7.539  34.976  0.4095  0.2475 -0.0061
  953BOLB   C4B22860  20.222   7.325  34.675  0.0708 -0.0934  0.0126
  953BOLB   NC222861  21.614   9.424  35.204 -0.2208 -0.0516 -0.0767
  953BOLB   PO222862  21.782   9.690  34.851  0.1082 -0.0631 -0.1560
  953BOLB   GL322863  22.021   9.601  34.412  0.1077 -0.2145  0.0675
  953BOLB   GL422864  22.285   9.592  34.320  0.0924 -0.3944  0.2451
  953BOLB   C1C22865  21.846   9.349  34.021 -0.2276 -0.0447  0.1768
  953BOLB   C2C22866  21.581   8.990  33.833 -0.1932 -0.0469  0.2214
  953BOLB   C3C22867  21.549   8.581  33.722 -0.0661 -0.1006 -0.0381
  953BOLB   C4C22868  21.572   8.147  33.794 -0.1178 -0.0313  0.1520
  953BOLB   C1D22869  22.369   9.318  33.968  0.0493  0.3269 -0.0864
  953BOLB   C2D22870  22.547   9.160  33.688  0.4697  0.1786 -0.0227
  953BOLB   C3D22871  22.329   9.236  33.210  0.1472  0.2761 -0.0129
  953BOLB   C4D22872  22.421   9.518  32.948 -0.0376  0.0019  0.1209
  954BOLB   NC122873  19.298   2.448  18.140  0.0271  0.3371 -0.0236
  954BOLB   PO122874  19.238   2.733  17.838 -0.1662 -0.1772  0.0743
  954BOLB   GL122875  19.263   2.257  17.602  0.1637 -0.1651 -0.0553
  954BOLB   GL222876  19.445   2.241  17.397 -0.1238 -0.0063  0.1131
  954BOLB   C1A22877  19.115   1.790  17.327  0.0447 -0.3570  0.2161
  954BOLB   C2A22878  19.345   1.544  17.317 -0.1054  0.2115  0.1290
  954BOLB   C3A22879  19.274   1.077  17.263  0.0923 -0.1582 -0.1685
  954BOLB   C4A22880  19.212   0.857  16.869 -0.1412 -0.0255 -0.0021
  954BOLB   C1B22881  19.420   2.095  17.031  0.0323 -0.0430  0.0964
  954BOLB   C2B22882  19.443   2.080  16.597 -0.0901 -0.0457  0.1090
  954BOLB   C3B22883  19.598   1.895  16.300 -0.3997  0.0471 -0.0829
  954BOLB   C4B22884  19.877   1.522  16.119  0.2977  0.1500  0.1094
  954BOLB   NC222885  18.634   2.707  17.350  0.2295 -0.1405 -0.0611
  954BOLB   PO222886  18.605   2.663  16.876 -0.0036  0.0892  0.0559
  954BOLB   GL322887  18.574   2.249  16.906  0.0753 -0.1963  0.2156
  954BOLB   GL422888  18.337   2.156  16.588  0.1766  0.1448 -0.1948
  954BOLB   C1C22889  18.972   1.954  16.839 -0.1703  0.0349  0.3617
  954BOLB   C2C22890  19.104   1.721  16.480  0.0246  0.1914 -0.0667
  954BOLB   C3C22891  18.946   1.267  16.337 -0.0127  0.2573  0.1118
  954BOLB   C4C22892  18.965   0.922  16.453 -0.0448  0.0565  0.0997
  954BOLB   C1D22893  18.721   2.164  16.406 -0.0243 -0.2061 -0.0255
  954BOLB   C2D22894  19.047   2.136  16.139 -0.2031 -0.1445 -0.0002
  954BOLB   C3D22895  19.404   2.413  16.125  0.0220 -0.2743 -0.0124
  954BOLB   C4D22896  19.657   2.607  15.718 -0.0120 -0.4067 -0.1132
  955BOLB   NC122897  19.825  -1.514  28.998 -0.1636 -0.0914 -0.1204
  955BOLB   PO122898  19.517  -1.771  29.091  0.0642 -0.2083  0.0397
  955BOLB   GL122899  19.764  -1.911  29.327 -0.0852 -0.1457 -0.0955
  955BOLB   GL222900  20.059  -1.954  29.214 -0.2946  0.5579  0.2507
  955BOLB   C1A22901  19.720  -2.273  29.646 -0.1654  0.1810  0.0189
  955BOLB   C2A22902  19.832  -2.569  29.925 -0.0345 -0.1535 -0.0407
  955BOLB   C3A22903  19.850  -3.009  30.052 -0.2330 -0.2860 -0.3595
  955BOLB   C4A22904  20.151  -3.259  30.198 -0.3773 -0.2565 -0.2093
  955BOLB   C1B22905  20.266  -2.222  29.518 -0.0608 -0.1436  0.0573
  955BOLB   C2B22906  20.644  -2.482  29.650 -0.2192  0.2626  0.0314
  955BOLB   C3B22907  20.813  -2.825  29.976  0.0408  0.3224 -0.0189
  955BOLB   C4B22908  20.664  -3.209  30.317 -0.0853  0.0390  0.0925
  955BOLB   NC222909  21.241  -5.177  30.751 -0.0887  0.1035 -0.1340
  955BOLB   PO222910  21.622  -5.006  30.801  0.1855  0.1700 -0.1497
  955BOLB   GL322911  21.500  -4.733  30.554 -0.1714  0.0064  0.0062
  955BOLB   GL422912  21.421  -4.926  30.346  0.2474 -0.1993 -0.1155
  955BOLB   C1C22913  21.258  -4.320  30.647 -0.0152  0.0082  0.0838
  955BOLB   C2C22914  21.229  -3.929  30.373  0.0394 -0.0539 -0.2958
  955BOLB   C3C22915  20.903  -3.667  30.163  0.1257 -0.0294  0.1453
  955BOLB   C4C22916  20.484  -3.625  30.091  0.1006 -0.2794 -0.0979
  955BOLB   C1D22917  21.160  -4.525  30.222  0.0810  0.1999 -0.0410
  955BOLB   C2D22918  21.142  -4.219  29.986  0.2136  0.0330 -0.3090
  955BOLB   C3D22919  20.775  -4.059  29.825  0.0169  0.0004  0.2596
  955BOLB   C4D22920  20.408  -3.982  29.659 -0.1799 -0.2219 -0.1106
  956BOLB   NC122921  14.717   2.378  33.382 -0.1696  0.1873 -0.1458
  956BOLB   PO122922  14.346   2.230  33.141  0.0722  0.1892  0.2071
  956BOLB   GL122923  14.060   2.068  33.484 -0.0009  0.1815  0.1789
  956BOLB   GL222924  14.118   2.353  33.638 -0.2069 -0.0989 -0.2582
  956BOLB   C1A22925  14.192   1.876  33.918 -0.3621  0.1066 -0.0105
  956BOLB   C2A22926  14.201   1.795  34.341 -0.3085 -0.1017 -0.0103
  956BOLB   C3A22927  14.284   1.868  34.778 -0.0439  0.4408 -0.1089
  956BOLB   C4A22928  13.972   1.718  35.003  0.1236  0.0966  0.0593
  956BOLB   C1B22929  13.943   2.310  34.078 -0.0861 -0.0435  0.1102
  956BOLB   C2B22930  13.668   2.581  34.440 -0.0145 -0.1506 -0.2064
  956BOLB   C3B22931  13.394   2.219  34.723  0.0859  0.1613 -0.1503
  956BOLB   C4B22932  13.312   2.137  35.181 -0.0644 -0.1881 -0.1000
  956BOLB   NC222933  12.680   1.081  37.232  0.1571 -0.2438  0.1472
  956BOLB   PO222934  13.074   0.909  36.951 -0.1861 -0.0368 -0.0985
  956BOLB   GL322935  12.852   1.093  36.601  0.0601 -0.2101 -0.2560
  956BOLB   GL422936  12.775   1.409  36.637 -0.0684  0.0197  0.0967
  956BOLB   C1C22937  12.956   1.149  36.205 -0.0646  0.2017  0.1377
  956BOLB   C2C22938  13.089   1.406  35.774  0.0196 -0.0496  0.2853
  956BOLB   C3C22939  13.446   1.544  35.537 -0.1462 -0.0341  0.2331
  956BOLB   C4C22940  13.824   1.711  35.208 -0.1265 -0.2110 -0.1942
  956BOLB   C1D22941  13.146   1.625  36.419  0.0445  0.3011 -0.0318
  956BOLB   C2D22942  13.480   1.784  36.317  0.1553 -0.1874 -0.2393
  956BOLB   C3D22943  13.570   2.134  36.014  0.0896  0.2941 -0.1566
  956BOLB   C4D22944  13.726   1.987  35.589  0.0962 -0.1585  0.2088
  957BOLB   NC122945  19.388   1.985  10.532 -0.1099  0.0913 -0.0729
  957BOLB   PO122946  19.807   2.123  10.744  0.0014  0.1338  0.1006
  957BOLB   GL122947  19.856   1.735  10.956 -0.3803 -0.0573 -0.0933
  957BOLB   GL222948  19.898   1.499  10.686  0.1933 -0.1998 -0.0642
  957BOLB   C1A22949  19.820   1.285  11.150 -0.1570 -0.2754  0.1735
  957BOLB   C2A22950  19.947   1.096  11.534 -0.0530 -0.2572 -0.2223
  957BOLB   C3A22951  20.008   1.260  11.921 -0.4625  0.2740  0.0915
  957BOLB   C4A22952  19.717   1.192  12.314  0.0370  0.0076 -0.0808
  957BOLB   C1B22953  20.172   1.132  10.858 -0.2385 -0.3819 -0.0255
  957BOLB   C2B22954  20.370   1.154  11.255  0.1436 -0.1464  0.0614
  957BOLB   C3B22955  20.425   1.231  11.621  0.1644 -0.0883  0.2102
  957BOLB   C4B22956  20.524   1.236  12.009  0.1115  0.1786  0.0167
  957BOLB   NC222957  18.617   0.899  10.685 -0.0388 -0.1725  0.0239
  957BOLB   PO222958  18.658   1.366  10.816 -0.0027 -0.1579 -0.1649
  957BOLB   GL322959  18.913   1.141  11.113  0.0835 -0.1728  0.2619
  957BOLB   GL422960  18.772   0.909  11.133  0.1140 -0.0200 -0.0463
  957BOLB   C1C22961  19.315   1.000  11.281  0.1215  0.1360 -0.0732
  957BOLB   C2C22962  19.238   0.700  11.647  0.0850 -0.4972 -0.0171
  957BOLB   C3C22963  19.101   0.746  11.996 -0.0224  0.0920 -0.3549
  957BOLB   C4C22964  19.254   1.052  12.326 -0.1010 -0.0411  0.1257
  957BOLB   C1D22965  18.692   0.861  11.502  0.0890 -0.2894 -0.4302
  957BOLB   C2D22966  18.386   0.758  11.773  0.1367 -0.2230  0.2348
  957BOLB   C3D22967  18.278   0.428  12.069 -0.0592 -0.1083 -0.0532
  957BOLB   C4D22968  18.081   0.313  12.473 -0.0176  0.0145 -0.0047
  958BOLB   NC122969   8.932   1.311  30.091 -0.0636  0.1192 -0.1643
  958BOLB   PO122970   8.753   1.547  29.799  0.0094 -0.1114  0.3132
  958BOLB   GL122971   8.310   1.605  29.830 -0.1595  0.0273 -0.1312
  958BOLB   GL222972   8.151   1.654  29.558 -0.0685  0.0733 -0.2057
  958BOLB   C1A22973   7.990   1.306  29.965 -0.0602  0.2840 -0.0158
  958BOLB   C2A22974   7.595   1.061  30.059 -0.0777 -0.0798 -0.0784
  958BOLB   C3A22975   7.276   0.766  30.137 -0.2414  0.1700 -0.4920
  958BOLB   C4A22976   6.858   0.806  30.192 -0.1473  0.0813 -0.0192
  958BOLB   C1B22977   7.754   1.529  29.576  0.0400  0.0431  0.1768
  958BOLB   C2B22978   7.342   1.439  29.704  0.1763 -0.2535  0.1658
  958BOLB   C3B22979   7.120   1.232  30.077 -0.0862  0.2552  0.0514
  958BOLB   C4B22980   7.052   1.360  30.453 -0.0872 -0.1058 -0.2412
  958BOLB   NC222981   4.567   1.015  30.866  0.0984  0.2754  0.2506
  958BOLB   PO222982   4.783   0.731  30.576  0.3939  0.2769 -0.0864
  958BOLB   GL322983   5.136   1.006  30.434 -0.1430  0.0558  0.2133
  958BOLB   GL422984   5.334   1.083  30.650  0.1626 -0.0923  0.0722
  958BOLB   C1C22985   5.439   0.997  30.165 -0.1203  0.2047  0.2278
  958BOLB   C2C22986   5.936   0.938  30.224 -0.0299 -0.0681  0.1314
  958BOLB   C3C22987   6.265   1.132  30.278 -0.1043 -0.0054  0.1779
  958BOLB   C4C22988   6.555   1.016  30.094 -0.2500  0.0716 -0.0140
  958BOLB   C1D22989   5.689   0.926  30.696  0.0131 -0.1684 -0.0722
  958BOLB   C2D22990   6.098   0.707  30.703  0.1337 -0.1294 -0.0379
  958BOLB   C3D22991   6.495   0.694  30.553 -0.4856  0.1212 -0.0870
  958BOLB   C4D22992   6.932   0.757  30.672  0.1815 -0.0710 -0.2465
  959BOLB   NC122993  14.282  12.387  28.488 -0.1698 -0.0835  0.2838
  959BOLB   PO122994  14.676  12.577  28.639 -0.2474  0.0393  0.1753
  959BOLB   GL122995  14.387  12.854  28.692  0.1429 -0.0467  0.4540
  959BOLB   GL222996  14.245  12.967  29.025 -0.5125 -0.2223  0.2475
  959BOLB   C1A22997  14.206  13.169  28.546 -0.1530  0.0730  0.2887
  959BOLB   C2A22998  14.138  13.607  28.442  0.2313  0.3805  0.0910
  959BOLB   C3A22999  13.988  14.058  28.547 -0.1954  0.0066 -0.2444
  959BOLB   C4A23000  14.012  14.515  28.541  0.2894 -0.0280 -0.1459
  959BOLB   C1B23001  14.335  12.968  29.479  0.1004 -0.2990  0.0124
  959BOLB   C2B23002  14.432  13.033  29.898  0.2455  0.2237 -0.2183
  959BOLB   C3B23003  14.670  12.890  30.263  0.3067 -0.0032  0.1237
  959BOLB   C4B23004  14.753  12.486  30.505 -0.3183 -0.1640  0.0664
  959BOLB   NC223005  14.023  17.278  29.337 -0.4353  0.3884  0.2163
  959BOLB   PO223006  13.830  16.893  29.031  0.0782  0.4675  0.2698
  959BOLB   GL323007  13.999  16.417  29.054 -0.0456  0.1240  0.0371
  959BOLB   GL423008  14.040  16.173  29.263  0.0056  0.0723 -0.2081
  959BOLB   C1C23009  14.011  16.114  28.728 -0.1928 -0.3941 -0.3574
  959BOLB   C2C23010  14.002  15.671  28.838  0.3371 -0.1274  0.0772
  959BOLB   C3C23011  13.894  15.218  28.890  0.1902 -0.3765 -0.2495
  959BOLB   C4C23012  13.938  14.791  28.783  0.0409  0.1521 -0.0069
  959BOLB   C1D23013  14.327  15.869  29.228  0.1231  0.3380 -0.2124
  959BOLB   C2D23014  14.355  15.396  29.091 -0.0235 -0.0713  0.5488
  959BOLB   C3D23015  14.393  14.929  28.995  0.0846 -0.1226 -0.1601
  959BOLB   C4D23016  14.479  14.587  28.787  0.0035  0.2901 -0.0953
  960BOLB   NC123017   9.805   2.384  31.262  0.0225 -0.0737 -0.1387
  960BOLB   PO123018   9.644   2.514  31.653  0.0741 -0.0910  0.1704
  960BOLB   GL123019   9.318   2.445  31.801  0.1424  0.0536 -0.0369
  960BOLB   GL223020   8.970   2.390  31.724  0.1923 -0.0119 -0.0715
  960BOLB   C1A23021   9.097   2.247  32.206 -0.0507  0.0751  0.3247
  960BOLB   C2A23022   9.411   2.094  32.511  0.1997 -0.1253 -0.2828
  960BOLB   C3A23023   9.617   2.403  32.822 -0.3123  0.1373  0.3523
  960BOLB   C4A23024   9.678   2.602  33.164  0.1387  0.1989  0.0175
  960BOLB   C1B23025   8.770   2.072  31.846  0.2937  0.0573  0.1754
  960BOLB   C2B23026   8.463   1.711  31.872  0.1165  0.1045 -0.0235
  960BOLB   C3B23027   8.070   1.546  31.909  0.3691  0.1685  0.0591
  960BOLB   C4B23028   7.729   1.284  32.108 -0.2209  0.0465  0.2432
  960BOLB   NC223029   8.641   2.485  35.534 -0.1720  0.0224  0.1006
  960BOLB   PO223030   8.649   2.845  35.426 -0.1961  0.1573  0.3812
  960BOLB   GL323031   8.703   2.719  34.888 -0.0930  0.0819  0.0063
  960BOLB   GL423032   8.740   2.748  34.495  0.1585 -0.0076 -0.1170
  960BOLB   C1C23033   8.768   2.307  34.676  0.0127 -0.0954 -0.0422
  960BOLB   C2C23034   8.992   2.349  34.385 -0.1265 -0.0801  0.2135
  960BOLB   C3C23035   9.356   2.421  34.036  0.0177  0.1807 -0.1907
  960BOLB   C4C23036   9.618   2.545  33.607  0.0763  0.0617 -0.0573
  960BOLB   C1D23037   8.883   2.772  34.050  0.0490 -0.2624 -0.0111
  960BOLB   C2D23038   8.955   3.080  33.697  0.0612  0.0166  0.0109
  960BOLB   C3D23039   9.330   2.919  33.417  0.2613  0.0465  0.0373
  960BOLB   C4D23040   9.751   3.053  33.363 -0.0314 -0.1455 -0.5051
  961BOLB   NC123041  24.855  -7.123  15.239  0.1785 -0.1886 -0.2584
  961BOLB   PO123042  24.562  -7.058  14.934 -0.0753 -0.1054 -0.2679
  961BOLB   GL123043  24.209  -6.904  14.754 -0.4094 -0.1726 -0.1204
  961BOLB   GL223044  23.982  -7.178  14.833  0.1578 -0.2274  0.0046
  961BOLB   C1A23045  24.039  -6.451  14.637  0.2978 -0.1284 -0.0059
  961BOLB   C2A23046  23.828  -6.039  14.517  0.4416 -0.2149 -0.1403
  961BOLB   C3A23047  23.378  -5.878  14.324 -0.1825  0.2376 -0.4789
  961BOLB   C4A23048  22.961  -6.114  14.129 -0.0737 -0.0391 -0.2351
  961BOLB   C1B23049  23.736  -6.956  14.610 -0.1340 -0.0302  0.0351
  961BOLB   C2B23050  23.312  -6.885  14.319 -0.0636  0.1281 -0.0760
  961BOLB   C3B23051  22.893  -7.004  14.454  0.2331  0.1817  0.0751
  961BOLB   C4B23052  22.601  -6.739  14.723 -0.0984  0.0302 -0.0852
  961BOLB   NC223053  23.074  -6.627  12.226  0.0946 -0.0862 -0.0381
  961BOLB   PO223054  22.696  -6.417  12.127  0.0821  0.0259  0.0425
  961BOLB   GL323055  22.656  -6.104  12.441 -0.2140 -0.0073  0.0953
  961BOLB   GL423056  22.842  -5.818  12.535 -0.0712 -0.2010  0.2095
  961BOLB   C1C23057  22.682  -5.963  12.950 -0.3177 -0.0797 -0.3647
  961BOLB   C2C23058  22.473  -5.905  13.316  0.0635  0.2009  0.2414
  961BOLB   C3C23059  22.398  -6.055  13.703 -0.1509  0.3020  0.0839
  961BOLB   C4C23060  22.602  -6.238  13.929  0.1600 -0.0645  0.1235
  961BOLB   C1D23061  22.782  -5.372  12.671  0.0245  0.1147 -0.2254
  961BOLB   C2D23062  22.493  -5.075  12.990 -0.0916 -0.4344 -0.0021
  961BOLB   C3D23063  22.421  -4.707  13.172 -0.0300 -0.1527 -0.0312
  961BOLB   C4D23064  22.204  -4.576  13.509  0.1750 -0.0794 -0.2250
  962BOLB   NC123065  10.575   6.208  19.690 -0.2769  0.0233 -0.0585
  962BOLB   PO123066  10.856   6.527  19.928  0.2587  0.2065  0.0040
  962BOLB   GL123067  10.581   6.680  19.670 -0.2510 -0.3475  0.1618
  962BOLB   GL223068  10.310   6.605  19.848  0.1370  0.0706  0.0510
  962BOLB   C1A23069  10.513   7.008  19.339  0.1762 -0.0826 -0.1237
  962BOLB   C2A23070  10.502   6.876  18.905 -0.0902 -0.0125  0.0512
  962BOLB   C3A23071  10.178   6.842  18.632  0.2097 -0.0731 -0.2479
  962BOLB   C4A23072   9.856   6.914  18.309  0.2348  0.2189  0.0135
  962BOLB   C1B23073  10.029   6.711  19.560 -0.0806 -0.1118  0.1523
  962BOLB   C2B23074   9.655   6.844  19.449  0.0382  0.1609 -0.1033
  962BOLB   C3B23075   9.416   6.717  19.125 -0.1535  0.1267 -0.2242
  962BOLB   C4B23076   9.083   6.724  18.923 -0.1790 -0.1389 -0.0872
  962BOLB   NC223077   7.981   8.197  16.799  0.0425 -0.3821  0.1382
  962BOLB   PO223078   8.278   8.009  16.480  0.1511 -0.0734  0.1701
  962BOLB   GL323079   8.358   7.873  16.985  0.0721  0.1931 -0.1243
  962BOLB   GL423080   8.638   7.735  16.994  0.2522 -0.0109  0.0316
  962BOLB   C1C23081   8.452   7.606  17.395 -0.0245  0.1253 -0.4899
  962BOLB   C2C23082   8.797   7.550  17.755 -0.2075  0.0216  0.4252
  962BOLB   C3C23083   9.108   7.448  18.045  0.0648 -0.1631 -0.2596
  962BOLB   C4C23084   9.515   7.224  18.161  0.2274  0.1485 -0.1783
  962BOLB   C1D23085   8.908   7.796  17.327  0.0631 -0.1687 -0.0467
  962BOLB   C2D23086   9.281   7.636  17.584  0.1000 -0.2589  0.0589
  962BOLB   C3D23087   9.638   7.495  17.716  0.1318 -0.1445  0.3289
  962BOLB   C4D23088   9.909   7.256  17.894 -0.1841 -0.2213  0.0785
  963BOLB   NC123089   7.839   6.189  27.604  0.0146 -0.1907 -0.0844
  963BOLB   PO123090   7.718   6.604  27.812 -0.0432 -0.1139  0.0384
  963BOLB   GL123091   7.382   6.829  27.959  0.2584 -0.0303  0.0755
  963BOLB   GL223092   7.101   6.732  28.167  0.0274  0.3161  0.0732
  963BOLB   C1A23093   7.058   7.223  27.854 -0.2493  0.0444 -0.0759
  963BOLB   C2A23094   6.623   7.362  27.829  0.1784 -0.0389  0.1640
  963BOLB   C3A23095   6.309   7.701  27.774 -0.1128  0.2638 -0.0426
  963BOLB   C4A23096   6.069   7.964  27.487  0.0165 -0.1959 -0.0710
  963BOLB   C1B23097   6.708   7.014  28.147 -0.0237 -0.1508  0.0293
  963BOLB   C2B23098   6.296   7.075  28.447 -0.0298  0.0417 -0.0255
  963BOLB   C3B23099   5.890   7.165  28.459 -0.0961  0.1971  0.0264
  963BOLB   C4B23100   5.604   7.184  28.181 -0.2543  0.0714  0.0052
  963BOLB   NC223101   4.346   9.438  27.825  0.0513 -0.2583 -0.2288
  963BOLB   PO223102   4.046   9.027  27.685  0.0352 -0.2820 -0.2055
  963BOLB   GL323103   4.452   8.967  27.464 -0.1132 -0.0257 -0.1272
  963BOLB   GL423104   4.684   9.234  27.433  0.0235  0.4275 -0.1087
  963BOLB   C1C23105   4.714   8.854  27.138  0.2184 -0.1802  0.1848
  963BOLB   C2C23106   5.107   8.677  27.093 -0.0040 -0.1400  0.1849
  963BOLB   C3C23107   5.340   8.368  27.233 -0.1085  0.1220  0.1566
  963BOLB   C4C23108   5.674   8.046  27.244  0.1645 -0.3193  0.4895
  963BOLB   C1D23109   4.923   9.318  27.094  0.2157  0.1680  0.0180
  963BOLB   C2D23110   5.307   9.063  26.832 -0.1243  0.2399  0.2905
  963BOLB   C3D23111   5.735   8.869  26.579  0.2374 -0.1141  0.2708
  963BOLB   C4D23112   6.193   8.757  26.561 -0.0422 -0.2013  0.0424
  964BOLB   NC123113  20.261   4.472  17.498 -0.2346  0.1308 -0.1057
  964BOLB   PO123114  20.099   4.213  17.157 -0.0910 -0.0320 -0.1613
  964BOLB   GL123115  20.232   3.960  16.770 -0.0369 -0.0746  0.3670
  964BOLB   GL223116  20.244   4.256  16.570 -0.1994  0.0988 -0.0095
  964BOLB   C1A23117  20.452   3.854  16.407 -0.3791 -0.0318  0.2801
  964BOLB   C2A23118  20.686   3.880  16.077 -0.0070  0.1082 -0.1423
  964BOLB   C3A23119  20.841   4.117  15.779 -0.2177  0.1882 -0.0158
  964BOLB   C4A23120  21.203   4.347  15.556  0.0214  0.2027 -0.2222
  964BOLB   C1B23121  20.333   4.325  16.117  0.2268 -0.0427  0.1255
  964BOLB   C2B23122  20.415   4.378  15.758 -0.4405  0.3843 -0.1700
  964BOLB   C3B23123  20.236   4.536  15.328  0.1305 -0.0433 -0.0000
  964BOLB   C4B23124  19.912   4.902  15.371 -0.0991 -0.1470 -0.2094
  964BOLB   NC223125  23.120   5.417  13.760 -0.0566  0.0537  0.0306
  964BOLB   PO223126  22.998   5.536  14.167  0.0739 -0.1240 -0.3806
  964BOLB   GL323127  22.641   5.400  14.365  0.3286 -0.0701 -0.1713
  964BOLB   GL423128  22.318   5.254  14.227 -0.0634 -0.2009 -0.2090
  964BOLB   C1C23129  22.497   4.964  14.612 -0.0835 -0.0302  0.1818
  964BOLB   C2C23130  22.075   4.807  14.648  0.1452  0.0521  0.0387
  964BOLB   C3C23131  21.791   4.580  14.996 -0.0248 -0.0855 -0.2733
  964BOLB   C4C23132  21.544   4.505  15.435 -0.2193 -0.0798  0.0796
  964BOLB   C1D23133  21.919   5.222  14.263  0.0339 -0.2098 -0.2360
  964BOLB   C2D23134  21.508   5.320  14.371  0.3325 -0.2117  0.2125
  964BOLB   C3D23135  21.242   5.564  14.195  0.2482  0.0562 -0.1111
  964BOLB   C4D23136  20.884   5.576  13.882 -0.1802  0.0089 -0.0778
  965BOLB   NC123137  17.132  -6.990  11.585  0.0697  0.1053 -0.3222
  965BOLB   PO123138  17.585  -7.147  11.559 -0.1481  0.0430  0.1826
  965BOLB   GL123139  17.928  -7.056  11.940 -0.2746  0.1806 -0.4212
  965BOLB   GL223140  17.792  -7.318  12.165  0.1253  0.0268 -0.1051
  965BOLB   C1A23141  18.333  -6.974  11.991 -0.1456 -0.5276  0.2448
  965BOLB   C2A23142  18.699  -6.686  12.046 -0.0022 -0.3169  0.0890
  965BOLB   C3A23143  18.660  -6.286  11.971  0.5301 -0.1586  0.0412
  965BOLB   C4A23144  18.561  -5.974  12.200 -0.0253 -0.4184 -0.2897
  965BOLB   C1B23145  18.155  -7.082  12.439  0.2864 -0.3186  0.1100
  965BOLB   C2B23146  18.605  -6.873  12.506 -0.2447  0.1220  0.0710
  965BOLB   C3B23147  18.990  -6.843  12.531 -0.0353  0.0056 -0.0204
  965BOLB   C4B23148  19.430  -6.633  12.635  0.3992 -0.3396  0.1817
  965BOLB   NC223149  17.824  -6.584  11.398 -0.2752  0.1798  0.0974
  965BOLB   PO223150  17.436  -6.654  11.292 -0.3835  0.3123 -0.4236
  965BOLB   GL323151  17.547  -6.627  11.855  0.1738 -0.0052  0.0842
  965BOLB   GL423152  17.452  -6.870  12.035  0.0104  0.0800 -0.0061
  965BOLB   C1C23153  17.633  -6.345  12.167  0.0790  0.1830  0.1131
  965BOLB   C2C23154  17.514  -6.000  12.385  0.0377 -0.2635 -0.0936
  965BOLB   C3C23155  17.908  -5.836  12.569 -0.3731 -0.0944  0.3312
  965BOLB   C4C23156  18.378  -5.801  12.561  0.1375 -0.0716  0.0657
  965BOLB   C1D23157  17.836  -6.742  12.241  0.0836  0.0076  0.0955
  965BOLB   C2D23158  18.161  -6.462  12.020  0.1840  0.2392  0.1657
  965BOLB   C3D23159  18.025  -6.025  12.079 -0.1899 -0.1623  0.2416
  965BOLB   C4D23160  18.191  -5.571  12.160 -0.2968 -0.2037 -0.4081
  966BOLB   NC123161  10.574   5.792  31.346  0.2531  0.0605  0.0985
  966BOLB   PO123162  10.639   5.903  31.660  0.3995  0.0869  0.0407
  966BOLB   GL123163  10.371   6.088  31.845 -0.0998 -0.2025 -0.0899
  966BOLB   GL223164  10.268   5.897  32.012  0.2743  0.1256  0.2465
  966BOLB   C1A23165  10.114   6.432  32.132 -0.1031  0.0438  0.0015
  966BOLB   C2A23166   9.724   6.465  32.317 -0.3002  0.0757 -0.0794
  966BOLB   C3A23167   9.505   6.593  32.719  0.0192  0.2747 -0.2905
  966BOLB   C4A23168   9.269   6.352  33.039  0.2007 -0.0857  0.0123
  966BOLB   C1B23169   9.969   5.999  32.413 -0.1512  0.0284  0.4103
  966BOLB   C2B23170   9.544   6.084  32.617 -0.0790 -0.0064  0.1280
  966BOLB   C3B23171   9.229   6.278  32.419 -0.2137 -0.0298 -0.2359
  966BOLB   C4B23172   9.011   6.708  32.561 -0.2387 -0.1458  0.0175
  966BOLB   NC223173   8.067   6.651  35.126 -0.1910  0.2048  0.0725
  966BOLB   PO223174   7.780   6.994  35.038 -0.3103  0.1973 -0.1792
  966BOLB   GL323175   8.131   6.937  34.647  0.1403  0.1044  0.0498
  966BOLB   GL423176   7.919   6.769  34.565  0.2527  0.4191 -0.0232
  966BOLB   C1C23177   8.424   6.743  34.327 -0.2718 -0.4514  0.3069
  966BOLB   C2C23178   8.574   6.652  33.938  0.1738 -0.0988 -0.4813
  966BOLB   C3C23179   8.798   6.358  33.671  0.4454 -0.0315  0.0286
  966BOLB   C4C23180   9.119   6.236  33.365  0.2233 -0.4257 -0.2642
  966BOLB   C1D23181   7.892   7.128  34.286 -0.3551 -0.1724 -0.0297
  966BOLB   C2D23182   7.933   7.174  33.838  0.3057  0.0423 -0.0531
  966BOLB   C3D23183   7.864   7.192  33.465 -0.0732 -0.0259  0.2141
  966BOLB   C4D23184   7.882   6.942  33.087  0.0387 -0.1214  0.0102
  967BOLB   NC123185  20.396  -3.021  22.201 -0.0498 -0.2115 -0.0619
  967BOLB   PO123186  20.771  -3.086  22.546 -0.1014  0.0327  0.1920
  967BOLB   GL123187  21.108  -3.365  22.350 -0.1310 -0.2343  0.4898
  967BOLB   GL223188  21.307  -3.247  22.066  0.1464 -0.0645 -0.1714
  967BOLB   C1A23189  21.351  -3.678  22.329  0.0847  0.0179  0.0165
  967BOLB   C2A23190  21.620  -3.931  22.187  0.3063  0.0822  0.1655
  967BOLB   C3A23191  21.938  -4.108  21.876  0.1155  0.2042 -0.1541
  967BOLB   C4A23192  22.300  -4.159  21.719 -0.0006 -0.0217 -0.2328
  967BOLB   C1B23193  21.577  -3.507  21.840  0.0391 -0.1259 -0.0649
  967BOLB   C2B23194  21.496  -3.550  21.416  0.0678  0.0424  0.1999
  967BOLB   C3B23195  21.640  -3.759  21.030 -0.0516 -0.0496 -0.2015
  967BOLB   C4B23196  21.915  -3.966  20.867  0.1737 -0.1004 -0.1818
  967BOLB   NC223197  23.654  -6.090  21.921  0.0486 -0.0843  0.3602
  967BOLB   PO223198  23.349  -6.002  22.159 -0.1306  0.3080 -0.1930
  967BOLB   GL323199  23.142  -5.638  22.131 -0.0799  0.3448 -0.2877
  967BOLB   GL423200  23.113  -5.477  22.443  0.1009  0.0031 -0.1063
  967BOLB   C1C23201  23.293  -5.373  21.975 -0.2240 -0.1485 -0.2614
  967BOLB   C2C23202  23.243  -4.931  21.809  0.4050  0.3184 -0.0088
  967BOLB   C3C23203  23.013  -4.521  21.766  0.1027  0.1845 -0.0437
  967BOLB   C4C23204  22.582  -4.471  21.703 -0.2107  0.1423  0.0844
  967BOLB   C1D23205  22.872  -5.133  22.165  0.3402  0.1240 -0.0012
  967BOLB   C2D23206  22.569  -4.933  22.093  0.2004  0.2285  0.0666
  967BOLB   C3D23207  22.196  -4.876  21.940  0.1669 -0.2446 -0.0810
  967BOLB   C4D23208  21.792  -4.853  22.066 -0.1170 -0.3599  0.0484
  968BOLB   NC123209  24.006   3.587  21.471 -0.0988 -0.3217 -0.2757
  968BOLB   PO123210  23.907   3.952  21.104 -0.1006  0.1559  0.1091
  968BOLB   GL123211  24.277   3.924  21.155  0.2854 -0.0612  0.0185
  968BOLB   GL223212  24.433   3.611  21.136 -0.1503 -0.0575  0.3194
  968BOLB   C1A23213  24.606   4.163  21.041  0.1880  0.2335 -0.1462
  968BOLB   C2A23214  24.833   4.409  20.757 -0.1752 -0.5007 -0.1201
  968BOLB   C3A23215  25.194   4.276  20.448 -0.2627  0.1279  0.1911
  968BOLB   C4A23216  25.398   3.791  20.395 -0.0241 -0.1072  0.0385
  968BOLB   C1B23217  24.757   3.431  21.351 -0.3343  0.2205  0.3148
  968BOLB   C2B23218  24.937   3.577  21.737 -0.2312 -0.0083 -0.0091
  968BOLB   C3B23219  25.430   3.490  21.860  0.0995 -0.3201 -0.0580
  968BOLB   C4B23220  25.680   3.302  21.850 -0.0846  0.0898  0.1941
  968BOLB   NC223221  27.426   3.230  19.456  0.0145 -0.3288 -0.1002
  968BOLB   PO223222  27.552   3.429  19.825 -0.1205  0.4647  0.1451
  968BOLB   GL323223  27.138   3.477  19.704  0.0283 -0.0013  0.0935
  968BOLB   GL423224  27.094   3.788  19.710 -0.1817 -0.2802 -0.0187
  968BOLB   C1C23225  26.801   3.467  19.946  0.0428 -0.1503  0.3386
  968BOLB   C2C23226  26.534   3.426  20.171  0.0197  0.0657 -0.1958
  968BOLB   C3C23227  26.216   3.401  20.355  0.0397 -0.1115 -0.1373
  968BOLB   C4C23228  25.713   3.443  20.464 -0.0484 -0.0256  0.0490
  968BOLB   C1D23229  26.913   3.947  20.107 -0.5722 -0.0709 -0.2264
  968BOLB   C2D23230  26.397   3.993  20.218 -0.2614  0.2626  0.0965
  968BOLB   C3D23231  26.135   4.155  19.962  0.0358 -0.3096  0.0144
  968BOLB   C4D23232  25.625   4.188  19.741 -0.0365  0.0888 -0.0641
  969BOLB   NC123233  23.312   0.043  22.323  0.0210 -0.0612  0.1065
  969BOLB   PO123234  23.630  -0.027  22.061 -0.4929  0.1003  0.1058
  969BOLB   GL123235  24.013  -0.283  22.027  0.1084 -0.2708  0.4030
  969BOLB   GL223236  23.875  -0.555  21.861  0.2833 -0.1257 -0.2253
  969BOLB   C1A23237  24.410  -0.404  22.061 -0.2022  0.0387  0.2947
  969BOLB   C2A23238  24.559  -0.889  21.996  0.1717  0.0659 -0.0572
  969BOLB   C3A23239  24.632  -1.308  21.971 -0.1521  0.0703  0.2461
  969BOLB   C4A23240  25.034  -1.505  22.007  0.2650 -0.0330 -0.1053
  969BOLB   C1B23241  24.185  -0.713  21.621 -0.4070 -0.0201  0.1290
  969BOLB   C2B23242  24.548  -0.750  21.437  0.3883  0.0737 -0.0178
  969BOLB   C3B23243  24.877  -1.086  21.468  0.2155 -0.1037 -0.0715
  969BOLB   C4B23244  24.791  -1.441  21.501 -0.4779  0.3034  0.1364
  969BOLB   NC223245  26.921  -2.133  21.229 -0.2937 -0.1401  0.0173
  969BOLB   PO223246  26.593  -1.979  20.920  0.0210 -0.0836 -0.2010
  969BOLB   GL323247  26.250  -1.963  21.173  0.3778  0.0319  0.0698
  969BOLB   GL423248  26.197  -2.247  21.157  0.2939 -0.3986 -0.4493
  969BOLB   C1C23249  26.036  -2.009  21.539 -0.0701  0.2098  0.1671
  969BOLB   C2C23250  25.834  -2.325  21.653 -0.5280 -0.0069  0.0848
  969BOLB   C3C23251  25.473  -2.163  21.819 -0.2990  0.1409 -0.1965
  969BOLB   C4C23252  25.162  -1.861  21.842 -0.1511  0.1868  0.0245
  969BOLB   C1D23253  25.840  -2.102  20.921 -0.0118  0.2925  0.0500
  969BOLB   C2D23254  25.609  -2.346  20.748  0.1671  0.1416 -0.0687
  969BOLB   C3D23255  25.362  -2.704  20.856 -0.0953 -0.2271 -0.2804
  969BOLB   C4D23256  25.088  -2.845  21.240  0.1316 -0.1928 -0.2667
  970BOLB   NC123257  11.394  -5.069  15.844 -0.0079 -0.0037  0.1985
  970BOLB   PO123258  11.708  -5.309  15.841 -0.1193  0.4561  0.0522
  970BOLB   GL123259  11.850  -5.000  16.052 -0.0014 -0.0573 -0.1441
  970BOLB   GL223260  12.179  -4.907  16.066 -0.1150 -0.0484 -0.1297
  970BOLB   C1A23261  11.907  -4.533  16.135 -0.1656  0.1608  0.1174
  970BOLB   C2A23262  12.047  -4.333  16.571  0.3411  0.2619  0.2624
  970BOLB   C3A23263  11.929  -4.261  17.021  0.0455  0.0893  0.0587
  970BOLB   C4A23264  11.966  -4.313  17.492 -0.1827  0.0160  0.0177
  970BOLB   C1B23265  12.303  -4.771  16.445 -0.1242  0.1505  0.0964
  970BOLB   C2B23266  12.233  -4.642  16.871  0.2026  0.0364 -0.0974
  970BOLB   C3B23267  12.319  -4.686  17.345  0.0295 -0.1713  0.0609
  970BOLB   C4B23268  12.725  -4.573  17.594 -0.2509 -0.1162  0.2734
  970BOLB   NC223269  11.888  -6.136  17.012  0.5529 -0.0693  0.1801
  970BOLB   PO223270  11.501  -6.122  17.268  0.3452  0.0625  0.3873
  970BOLB   GL323271  11.753  -5.870  17.628 -0.1316 -0.0185  0.2773
  970BOLB   GL423272  11.608  -6.044  17.902  0.4044  0.3296 -0.0256
  970BOLB   C1C23273  11.990  -5.603  17.690  0.1042 -0.1305  0.2878
  970BOLB   C2C23274  12.370  -5.369  17.819  0.0667  0.4871  0.1583
  970BOLB   C3C23275  12.378  -4.925  17.781 -0.0149 -0.2443  0.0788
  970BOLB   C4C23276  12.195  -4.531  17.833 -0.0370 -0.0605 -0.2905
  970BOLB   C1D23277  11.867  -5.850  18.188  0.0172 -0.0515 -0.1250
  970BOLB   C2D23278  11.862  -5.468  18.403  0.0260  0.0336 -0.0072
  970BOLB   C3D23279  11.857  -5.106  18.699  0.0643  0.1443 -0.0584
  970BOLB   C4D23280  11.975  -4.745  18.819 -0.0113  0.0171 -0.1352
  971BOLB   NC123281  12.609   1.519  12.710  0.0352 -0.0814 -0.1635
  971BOLB   PO123282  12.959   1.810  12.559 -0.1621 -0.2897 -0.0533
  971BOLB   GL123283  12.986   1.744  13.030  0.0934 -0.0858  0.0130
  971BOLB   GL223284  12.766   1.839  13.104 -0.0414 -0.1310  0.1252
  971BOLB   C1A23285  13.209   1.796  13.446  0.1302  0.1019 -0.2247
  971BOLB   C2A23286  13.125   1.740  13.905  0.2087 -0.1013 -0.0218
  971BOLB   C3A23287  13.209   1.419  14.245 -0.1289  0.0793 -0.2196
  971BOLB   C4A23288  13.459   1.267  14.548 -0.0120  0.2440 -0.2637
  971BOLB   C1B23289  12.433   1.775  13.552 -0.1886  0.2099  0.0132
  971BOLB   C2B23290  12.213   1.793  13.989  0.0022  0.0300  0.0573
  971BOLB   C3B23291  11.975   1.672  14.428  0.0025  0.3132  0.3036
  971BOLB   C4B23292  11.954   1.706  14.824  0.1070  0.2199  0.3933
  971BOLB   NC223293  12.886   0.085  12.598  0.0403  0.1827  0.0113
  971BOLB   PO223294  13.106  -0.001  12.917  0.1879 -0.1284  0.5169
  971BOLB   GL323295  13.049   0.302  13.286  0.3886 -0.2439  0.1254
  971BOLB   GL423296  12.989   0.621  13.336  0.1027  0.1073  0.1357
  971BOLB   C1C23297  13.312   0.395  13.652 -0.4166  0.2018  0.0035
  971BOLB   C2C23298  13.544   0.559  13.957 -0.2539 -0.1984 -0.1420
  971BOLB   C3C23299  13.760   0.720  14.332  0.1246  0.2352  0.0489
  971BOLB   C4C23300  13.653   1.020  14.681 -0.1950 -0.0125  0.3012
  971BOLB   C1D23301  13.248   0.976  13.422  0.2191 -0.2188 -0.1846
  971BOLB   C2D23302  13.379   1.394  13.670 -0.1030 -0.0082 -0.1369
  971BOLB   C3D23303  13.630   1.818  13.694 -0.1388  0.1409  0.0210
  971BOLB   C4D23304  13.856   2.037  13.968  0.1481 -0.1349  0.2584
  972BOLB   NC123305  18.501  13.507  17.986 -0.2264  0.2434 -0.1868
  972BOLB   PO123306  18.819  13.352  17.682 -0.3529 -0.1519  0.4688
  972BOLB   GL123307  18.896  13.023  17.979  0.1339  0.2675 -0.2314
  972BOLB   GL223308  18.634  12.974  18.019 -0.1115 -0.0444 -0.2912
  972BOLB   C1A23309  18.910  12.940  18.466  0.0355  0.2128  0.4550
  972BOLB   C2A23310  18.718  12.599  18.826  0.0778  0.3214 -0.0259
  972BOLB   C3A23311  18.542  12.332  19.151 -0.2123  0.1524 -0.0497
  972BOLB   C4A23312  18.634  12.222  19.458 -0.0628 -0.0246  0.3312
  972BOLB   C1B23313  18.439  12.738  18.364  0.1820 -0.0340  0.1020
  972BOLB   C2B23314  18.417  12.367  18.513 -0.3653 -0.0600 -0.0794
  972BOLB   C3B23315  18.311  11.982  18.853  0.2680  0.1022  0.0510
  972BOLB   C4B23316  18.244  11.713  19.221  0.4121  0.2664  0.0169
  972BOLB   NC223317  19.007  13.932  18.827 -0.0145  0.0451  0.2700
  972BOLB   PO223318  19.450  13.991  18.976 -0.1201 -0.1709  0.0944
  972BOLB   GL323319  19.578  13.642  19.340  0.0500 -0.0983  0.1208
  972BOLB   GL423320  19.944  13.684  19.463 -0.3782 -0.1842  0.2261
  972BOLB   C1C23321  19.800  13.224  19.580  0.0933  0.2395 -0.3142
  972BOLB   C2C23322  19.603  12.962  19.803 -0.0997 -0.0169  0.0272
  972BOLB   C3C23323  19.326  12.581  19.993  0.0732  0.1321 -0.0195
  972BOLB   C4C23324  18.961  12.280  19.764  0.1718 -0.0078 -0.2455
  972BOLB   C1D23325  19.695  13.613  19.841 -0.2394  0.0044  0.0032
  972BOLB   C2D23326  19.253  13.731  20.029 -0.0934  0.1198 -0.1317
  972BOLB   C3D23327  18.906  13.630  20.052  0.1502 -0.3131 -0.0586
  972BOLB   C4D23328  18.716  13.295  20.458  0.0292 -0.1453 -0.1495
  973BOLB   NC123329   9.824   6.207  31.133 -0.1528 -0.0202 -0.1535
  973BOLB   PO123330   9.548   6.476  31.390 -0.0673 -0.1765 -0.1099
  973BOLB   GL123331   9.324   6.375  31.527  0.1648 -0.0830  0.0446
  973BOLB   GL223332   9.439   6.413  31.867  0.1761 -0.1062  0.1553
  973BOLB   C1A23333   8.979   6.274  31.848  0.1353  0.3397 -0.3409
  973BOLB   C2A23334   8.746   6.412  32.218 -0.0793  0.2457 -0.0140
  973BOLB   C3A23335   8.622   6.361  32.578  0.1292  0.2565  0.0350
  973BOLB   C4A23336   8.442   6.769  32.674 -0.1747 -0.2347  0.4117
  973BOLB   C1B23337   9.208   6.721  32.057  0.0651  0.0884  0.1733
  973BOLB   C2B23338   8.874   6.894  32.128 -0.0528  0.2484  0.1485
  973BOLB   C3B23339   8.634   7.112  32.298 -0.0608  0.0546  0.1752
  973BOLB   C4B23340   8.221   7.255  32.635 -0.1822  0.0570  0.0805
  973BOLB   NC223341   7.765   5.678  35.028 -0.0553  0.0019 -0.1912
  973BOLB   PO223342   8.120   6.020  35.013  0.0053  0.3083  0.0028
  973BOLB   GL323343   8.169   6.130  34.623  0.1688  0.0738 -0.2241
  973BOLB   GL423344   8.264   6.414  34.740 -0.1876  0.1372 -0.2402
  973BOLB   C1C23345   7.997   6.263  34.233 -0.1766 -0.0428  0.2518
  973BOLB   C2C23346   7.954   6.689  33.968 -0.1459  0.1269  0.3548
  973BOLB   C3C23347   8.168   6.738  33.487  0.2506 -0.1468 -0.2174
  973BOLB   C4C23348   8.384   6.999  33.061  0.2099  0.1261  0.2233
  973BOLB   C1D23349   8.508   6.303  34.311 -0.1340  0.1108 -0.2200
  973BOLB   C2D23350   8.918   6.313  34.141  0.1072 -0.0111  0.0009
  973BOLB   C3D23351   9.295   6.314  33.900  0.0420 -0.0135 -0.0218
  973BOLB   C4D23352   9.644   6.042  33.597  0.2430 -0.0610  0.4451
  974BOLB   NC123353  20.203  10.862  27.439 -0.2628  0.2528  0.1559
  974BOLB   PO123354  20.570  10.770  27.115 -0.1368  0.2131 -0.1517
  974BOLB   GL123355  20.570  11.186  27.285 -0.0265  0.1192 -0.2216
  974BOLB   GL223356  20.909  11.160  27.417  0.2550  0.2691  0.1375
  974BOLB   C1A23357  20.730  11.536  26.964  0.1932  0.1122  0.1095
  974BOLB   C2A23358  21.021  11.844  26.721 -0.0070 -0.2735  0.1158
  974BOLB   C3A23359  21.142  12.203  26.509  0.3042 -0.0342  0.0937
  974BOLB   C4A23360  21.410  12.551  26.441  0.2129  0.0015 -0.2977
  974BOLB   C1B23361  20.815  11.658  27.504 -0.0161  0.1000  0.1284
  974BOLB   C2B23362  20.811  12.098  27.341 -0.1840 -0.2160 -0.1702
  974BOLB   C3B23363  21.153  12.335  27.551  0.0843 -0.1829  0.0779
  974BOLB   C4B23364  21.184  12.713  27.859 -0.1481 -0.1230 -0.0413
  974BOLB   NC223365  22.048  15.165  26.237  0.1503  0.3606  0.2582
  974BOLB   PO223366  21.864  14.917  26.467  0.1179 -0.1383  0.0077
  974BOLB   GL323367  21.649  14.521  26.383  0.2395 -0.1449  0.2452
  974BOLB   GL423368  21.370  14.531  26.343  0.0293  0.0069  0.0341
  974BOLB   C1C23369  21.801  14.042  26.271 -0.4529  0.1530 -0.2602
  974BOLB   C2C23370  21.842  13.709  26.407  0.0326  0.0487 -0.0992
  974BOLB   C3C23371  21.562  13.357  26.424 -0.2234 -0.0546 -0.1054
  974BOLB   C4C23372  21.464  12.932  26.429  0.1999 -0.0973 -0.1353
  974BOLB   C1D23373  20.886  14.362  26.259  0.1585  0.2651 -0.0852
  974BOLB   C2D23374  20.676  13.948  26.445 -0.0561  0.0704 -0.1360
  974BOLB   C3D23375  20.769  13.624  26.084  0.1050  0.1209  0.1315
  974BOLB   C4D23376  21.049  13.313  26.358  0.1219 -0.2800  0.2102
  975BOLB   NC123377   9.380  -0.730  28.202 -0.2900 -0.0579  0.0426
  975BOLB   PO123378   8.995  -0.510  28.399  0.2810  0.0806 -0.0894
  975BOLB   GL123379   8.739  -0.791  28.683 -0.3984  0.0580  0.1412
  975BOLB   GL223380   8.691  -0.611  28.865  0.3423  0.0307 -0.3847
  975BOLB   C1A23381   8.348  -0.977  28.929  0.0736 -0.0618 -0.0169
  975BOLB   C2A23382   7.975  -1.206  28.975  0.4367 -0.0086  0.1076
  975BOLB   C3A23383   7.595  -1.256  29.002  0.0341  0.0364  0.0625
  975BOLB   C4A23384   7.248  -1.092  29.016 -0.0263  0.2106 -0.0688
  975BOLB   C1B23385   8.733  -0.625  29.313  0.0583  0.0460  0.3617
  975BOLB   C2B23386   8.525  -0.603  29.755  0.0471 -0.1203  0.0951
  975BOLB   C3B23387   8.200  -0.605  29.946  0.0346 -0.1264  0.1344
  975BOLB   C4B23388   7.883  -0.353  29.961  0.3361  0.0674  0.0021
  975BOLB   NC223389   7.964   0.359  27.062 -0.0584 -0.2237  0.1699
  975BOLB   PO223390   8.140   0.227  27.458  0.0960  0.0340  0.1222
  975BOLB   GL323391   7.849   0.156  27.696  0.1528  0.1142 -0.0530
  975BOLB   GL423392   7.552   0.245  27.611 -0.0257 -0.0286  0.1027
  975BOLB   C1C23393   7.704  -0.113  27.960  0.2611 -0.0408  0.2174
  975BOLB   C2C23394   7.415  -0.185  28.404 -0.2608 -0.1874  0.0878
  975BOLB   C3C23395   7.074  -0.354  28.682  0.0448  0.1918 -0.1880
  975BOLB   C4C23396   7.052  -0.720  29.011 -0.1016 -0.0150 -0.0473
  975BOLB   C1D23397   7.313  -0.160  27.508  0.1247  0.0718  0.0809
  975BOLB   C2D23398   7.158  -0.286  27.932 -0.3265  0.0687  0.0127
  975BOLB   C3D23399   6.871  -0.324  28.234  0.0297 -0.1155  0.2396
  975BOLB   C4D23400   6.561  -0.327  28.575 -0.1568  0.2196  0.1153
  976BOLB   NC123401  17.829   5.407  33.113 -0.0792 -0.0213  0.1854
  976BOLB   PO123402  17.673   5.566  33.440 -0.1307  0.0440 -0.1029
  976BOLB   GL123403  17.595   5.549  33.846  0.0488  0.1766  0.1996
  976BOLB   GL223404  17.329   5.584  34.005 -0.5157 -0.0688 -0.0539
  976BOLB   C1A23405  17.654   5.288  34.270 -0.0732 -0.3093 -0.0030
  976BOLB   C2A23406  17.413   5.358  34.613  0.1424 -0.2533  0.0273
  976BOLB   C3A23407  17.159   5.553  35.011  0.0261  0.1219 -0.1152
  976BOLB   C4A23408  17.047   5.476  35.472 -0.3206 -0.1404  0.1375
  976BOLB   C1B23409  17.392   5.839  34.396 -0.0368  0.2702  0.3191
  976BOLB   C2B23410  17.422   5.959  34.821  0.1303  0.1123  0.2403
  976BOLB   C3B23411  17.473   6.194  35.220 -0.4440  0.3163  0.0553
  976BOLB   C4B23412  17.830   6.408  35.405  0.1123  0.2149  0.1333
  976BOLB   NC223413  16.984   5.334  37.649  0.0464  0.0963 -0.1979
  976BOLB   PO223414  16.521   5.410  37.747  0.1354 -0.3977  0.2909
  976BOLB   GL323415  16.516   5.311  37.365 -0.0779 -0.1964  0.1147
  976BOLB   GL423416  16.496   4.898  37.339 -0.1868 -0.1779  0.5046
  976BOLB   C1C23417  16.452   5.337  36.887 -0.1098  0.1970 -0.2637
  976BOLB   C2C23418  16.560   5.165  36.575  0.0433 -0.1070 -0.0245
  976BOLB   C3C23419  16.580   5.225  36.066  0.0818 -0.1904  0.1150
  976BOLB   C4C23420  16.959   5.491  35.818 -0.2940 -0.3030 -0.2480
  976BOLB   C1D23421  16.499   4.630  37.084 -0.1189  0.1135 -0.1706
  976BOLB   C2D23422  16.433   4.651  36.667 -0.1280  0.0668  0.0133
  976BOLB   C3D23423  16.493   4.463  36.293  0.0052 -0.2022  0.0643
  976BOLB   C4D23424  16.874   4.215  36.281 -0.0853 -0.5404  0.2813
  977BOLB   NC123425  17.077  15.932  29.751 -0.1761 -0.2890 -0.1396
  977BOLB   PO123426  17.426  15.689  29.952  0.0094 -0.1415 -0.0412
  977BOLB   GL123427  17.562  15.295  30.023 -0.1626  0.1073  0.1403
  977BOLB   GL223428  17.754  15.225  29.702  0.0302 -0.0195 -0.2520
  977BOLB   C1A23429  17.589  14.865  30.051 -0.0405  0.2521  0.1636
  977BOLB   C2A23430  17.703  14.488  30.092  0.0012  0.3651 -0.0176
  977BOLB   C3A23431  17.730  14.165  29.791 -0.0308 -0.0497 -0.2438
  977BOLB   C4A23432  17.924  13.666  29.727  0.3682  0.2568 -0.0023
  977BOLB   C1B23433  17.421  14.890  29.511  0.0565  0.1605  0.2236
  977BOLB   C2B23434  17.546  14.490  29.287 -0.1100  0.0685  0.0119
  977BOLB   C3B23435  17.840  14.144  29.306  0.1214  0.0086  0.0528
  977BOLB   C4B23436  18.177  13.983  29.503  0.1573 -0.4498 -0.1561
  977BOLB   NC223437  16.701  12.098  28.063  0.0435  0.0383  0.1235
  977BOLB   PO223438  17.022  12.124  28.475 -0.1935 -0.3635  0.1599
  977BOLB   GL323439  16.996  12.518  28.682  0.0700  0.1320  0.0791
  977BOLB   GL423440  16.804  12.563  28.980 -0.1238  0.2419  0.2322
  977BOLB   C1C23441  17.248  12.814  28.623 -0.1335 -0.6132 -0.0624
  977BOLB   C2C23442  17.443  13.022  28.780 -0.2611  0.0659 -0.1441
  977BOLB   C3C23443  17.653  13.068  29.198 -0.0868 -0.1012  0.1743
  977BOLB   C4C23444  17.844  13.448  29.275  0.2202 -0.0027  0.2067
  977BOLB   C1D23445  16.910  12.944  29.049  0.0654 -0.1240  0.0475
  977BOLB   C2D23446  17.184  13.295  29.130 -0.0553 -0.2043 -0.3472
  977BOLB   C3D23447  17.470  13.517  28.934 -0.1516  0.1000  0.0026
  977BOLB   C4D23448  17.682  13.777  28.972 -0.3550  0.0081  0.1848
  978BOLB   NC123449  17.488  -1.166  31.264 -0.0196 -0.0154 -0.0943
  978BOLB   PO123450  17.829  -1.078  31.455  0.1823 -0.1139  0.0016
  978BOLB   GL123451  17.935  -1.438  31.528  0.1297 -0.4205  0.0817
  978BOLB   GL223452  17.740  -1.701  31.434  0.1170  0.2806 -0.4471
  978BOLB   C1A23453  18.258  -1.666  31.494  0.0305  0.2385 -0.1382
  978BOLB   C2A23454  18.531  -2.087  31.439  0.1138 -0.0297  0.2301
  978BOLB   C3A23455  18.749  -2.539  31.529  0.0711 -0.0543 -0.1315
  978BOLB   C4A23456  19.021  -2.788  31.695  0.3246  0.2278  0.0124
  978BOLB   C1B23457  17.578  -2.072  31.365 -0.2983  0.2132  0.0728
  978BOLB   C2B23458  17.741  -2.539  31.306  0.0679 -0.0887 -0.1770
  978BOLB   C3B23459  18.083  -2.780  31.104  0.3124 -0.0482  0.0182
  978BOLB   C4B23460  18.170  -3.205  30.903 -0.0086 -0.1778 -0.1209
  978BOLB   NC223461  19.113  -4.831  33.256 -0.4223 -0.3856 -0.0908
  978BOLB   PO223462  19.048  -4.615  32.792  0.2452  0.1192  0.0940
  978BOLB   GL323463  18.973  -4.432  32.428  0.1982 -0.0498 -0.3792
  978BOLB   GL423464  18.940  -4.113  32.520 -0.2959 -0.0787  0.0191
  978BOLB   C1C23465  19.313  -4.248  32.200  0.0293 -0.2089  0.3116
  978BOLB   C2C23466  19.581  -3.925  32.033 -0.2959 -0.0317 -0.1684
  978BOLB   C3C23467  19.551  -3.461  31.990 -0.1060 -0.1333 -0.2179
  978BOLB   C4C23468  19.429  -3.063  31.839 -0.0208 -0.2031 -0.2957
  978BOLB   C1D23469  18.779  -3.977  32.170 -0.1171  0.1789  0.3736
  978BOLB   C2D23470  18.462  -3.923  31.858 -0.2035 -0.1428  0.0643
  978BOLB   C3D23471  18.279  -3.491  31.694 -0.3075  0.0082 -0.1980
  978BOLB   C4D23472  18.157  -3.148  31.479  0.2950 -0.1230 -0.0765
  979BOLB   NC123473  11.401   8.454  31.121  0.1486 -0.1167  0.1898
  979BOLB   PO123474  11.163   8.305  31.462  0.1177  0.0895 -0.2122
  979BOLB   GL123475  11.256   8.600  31.762 -0.2359 -0.0519 -0.1740
  979BOLB   GL223476  11.543   8.547  32.053  0.2631 -0.0856 -0.0365
  979BOLB   C1A23477  11.051   8.820  32.152 -0.0992  0.2459 -0.0311
  979BOLB   C2A23478  10.884   8.655  32.541  0.0840  0.0394  0.0887
  979BOLB   C3A23479  10.660   8.745  32.888  0.2351  0.1293  0.3920
  979BOLB   C4A23480  10.447   9.052  33.146  0.0144 -0.0308  0.1296
  979BOLB   C1B23481  11.397   8.780  32.471 -0.1489  0.1364 -0.0407
  979BOLB   C2B23482  11.178   8.863  32.937  0.2458 -0.2175  0.1860
  979BOLB   C3B23483  10.997   8.723  33.303  0.2171 -0.4468  0.0762
  979BOLB   C4B23484  10.595   8.668  33.433 -0.1733 -0.0700 -0.2119
  979BOLB   NC223485   8.443   9.658  34.517 -0.0430  0.0434 -0.0761
  979BOLB   PO223486   8.698   9.432  34.735  0.2380 -0.1362  0.4841
  979BOLB   GL323487   8.931   9.535  34.334 -0.0146 -0.0869 -0.2159
  979BOLB   GL423488   8.753   9.619  34.111 -0.2563  0.0665 -0.0032
  979BOLB   C1C23489   9.318   9.569  33.972  0.0403 -0.0354  0.1601
  979BOLB   C2C23490   9.251   9.351  33.548  0.0770  0.1046 -0.2738
  979BOLB   C3C23491   9.572   9.274  33.250 -0.2480  0.0474  0.0897
  979BOLB   C4C23492   9.986   9.174  33.162  0.0043 -0.1560 -0.0351
  979BOLB   C1D23493   8.892   9.663  33.738  0.0386 -0.2456 -0.1160
  979BOLB   C2D23494   8.986   9.654  33.166 -0.1764 -0.1813  0.3556
  979BOLB   C3D23495   9.322   9.379  32.814  0.1840 -0.1250  0.4064
  979BOLB   C4D23496   9.547   9.042  32.709  0.1758 -0.0756  0.1219
  980BOLB   NC123497  22.087  -1.147  20.423 -0.1452 -0.1954 -0.3061
  980BOLB   PO123498  22.131  -1.557  20.679 -0.0038 -0.2126 -0.1653
  980BOLB   GL123499  22.256  -1.968  20.598 -0.3308 -0.2407 -0.1795
  980BOLB   GL223500  22.458  -1.807  20.328 -0.0808 -0.0523  0.1252
  980BOLB   C1A23501  22.683  -2.225  20.576 -0.4621  0.2153 -0.1160
  980BOLB   C2A23502  23.131  -2.226  20.562  0.0969 -0.1708 -0.0071
  980BOLB   C3A23503  23.524  -2.227  20.691  0.0804  0.1998  0.0120
  980BOLB   C4A23504  23.981  -2.111  20.596  0.1798  0.0886 -0.1944
  980BOLB   C1B23505  22.853  -1.922  20.244  0.0509 -0.0955  0.1876
  980BOLB   C2B23506  23.359  -1.999  20.105 -0.3362 -0.2347 -0.0635
  980BOLB   C3B23507  23.609  -2.108  19.753  0.2950 -0.0626 -0.1748
  980BOLB   C4B23508  23.788  -1.888  19.373 -0.2524 -0.1386  0.5715
  980BOLB   NC223509  26.390  -3.124  20.040  0.0463 -0.0639  0.2639
  980BOLB   PO223510  25.996  -3.160  20.135 -0.0244 -0.1864 -0.0729
  980BOLB   GL323511  25.622  -2.927  20.134 -0.1451 -0.2704  0.1280
  980BOLB   GL423512  25.515  -2.686  19.879 -0.1593  0.0794 -0.2444
  980BOLB   C1C23513  25.422  -2.646  20.377 -0.2016  0.1159  0.3404
  980BOLB   C2C23514  25.070  -2.403  20.482  0.2086  0.2082  0.1087
  980BOLB   C3C23515  24.698  -2.233  20.543  0.0374 -0.5485 -0.1201
  980BOLB   C4C23516  24.282  -2.255  20.477 -0.2890 -0.4188  0.2390
  980BOLB   C1D23517  25.112  -2.384  19.903 -0.0597 -0.0691  0.3010
  980BOLB   C2D23518  24.709  -2.508  20.146  0.2418 -0.3098 -0.2373
  980BOLB   C3D23519  24.210  -2.426  19.914  0.0477  0.1723 -0.0410
  980BOLB   C4D23520  23.969  -2.418  19.450 -0.2023 -0.1886  0.0217
  981BOLB   NC123521  15.023  -8.589  19.160  0.1150  0.1430 -0.0470
  981BOLB   PO123522  15.125  -8.147  19.278  0.3250 -0.0834  0.2553
  981BOLB   GL123523  15.254  -7.746  19.360 -0.0212 -0.1475 -0.1442
  981BOLB   GL223524  15.004  -7.529  19.201 -0.1148 -0.1060  0.2863
  981BOLB   C1A23525  15.413  -7.321  19.460  0.0669 -0.0660 -0.3000
  981BOLB   C2A23526  15.545  -7.022  19.594 -0.0561  0.1069 -0.0775
  981BOLB   C3A23527  15.524  -6.848  19.916 -0.1287 -0.1950  0.0716
  981BOLB   C4A23528  15.705  -6.822  20.225  0.0029 -0.3801 -0.0811
  981BOLB   C1B23529  14.963  -7.095  19.274 -0.1513 -0.3769  0.2204
  981BOLB   C2B23530  14.803  -6.709  19.333  0.1170  0.2635 -0.1150
  981BOLB   C3B23531  14.801  -6.409  19.475  0.0930 -0.2512 -0.0194
  981BOLB   C4B23532  14.721  -6.049  19.862  0.1402  0.0246  0.0125
  981BOLB   NC223533  16.116  -8.265  20.642 -0.3606  0.1046 -0.1429
  981BOLB   PO223534  16.167  -8.548  20.935  0.0707 -0.1076  0.2953
  981BOLB   GL323535  16.171  -7.981  21.054 -0.4182 -0.2245  0.5189
  981BOLB   GL423536  16.456  -8.051  21.186 -0.3394 -0.2237  0.2021
  981BOLB   C1C23537  16.192  -7.475  20.924  0.3239  0.2515  0.0275
  981BOLB   C2C23538  16.094  -7.030  20.860 -0.0071 -0.1237 -0.2693
  981BOLB   C3C23539  15.958  -6.640  20.809  0.0160  0.3060  0.1524
  981BOLB   C4C23540  15.748  -6.589  20.530 -0.2053  0.1528 -0.2871
  981BOLB   C1D23541  16.611  -7.608  21.064 -0.0331 -0.0057 -0.1237
  981BOLB   C2D23542  16.666  -7.117  21.043 -0.0617  0.2283  0.0932
  981BOLB   C3D23543  16.459  -6.699  21.002 -0.2967  0.0198 -0.0709
  981BOLB   C4D23544  16.254  -6.417  21.147 -0.0607 -0.1816 -0.0743
  982BOLB   NC123545  27.278  -2.346  15.358  0.1540 -0.1611  0.3646
  982BOLB   PO123546  27.157  -2.717  15.636 -0.4767 -0.2001 -0.1676
  982BOLB   GL123547  26.704  -2.789  15.581  0.1521 -0.2226  0.0500
  982BOLB   GL223548  26.518  -2.868  15.850 -0.0878  0.2135 -0.1253
  982BOLB   C1A23549  26.231  -2.958  15.489  0.0724 -0.2064  0.3517
  982BOLB   C2A23550  25.725  -3.154  15.396  0.3314 -0.2393  0.1322
  982BOLB   C3A23551  25.348  -3.328  15.569 -0.0731  0.0435  0.0521
  982BOLB   C4A23552  25.422  -3.725  15.660  0.0286  0.0730 -0.0506
  982BOLB   C1B23553  26.126  -2.762  15.879  0.3618  0.1533  0.2519
  982BOLB   C2B23554  25.771  -2.739  15.660 -0.0959 -0.1882  0.1717
  982BOLB   C3B23555  25.389  -2.755  15.640  0.1207 -0.2133 -0.1198
  982BOLB   C4B23556  25.216  -2.371  15.671  0.0907 -0.1818 -0.1343
  982BOLB   NC223557  26.529  -5.846  14.889 -0.3979 -0.2261  0.0029
  982BOLB   PO223558  26.120  -5.582  14.869 -0.3124  0.3709 -0.1543
  982BOLB   GL323559  25.791  -5.515  15.126  0.0550  0.3475 -0.2496
  982BOLB   GL423560  25.695  -5.719  15.386  0.0538  0.2959  0.0136
  982BOLB   C1C23561  25.751  -5.111  15.121 -0.2253 -0.4745  0.0290
  982BOLB   C2C23562  25.552  -4.682  15.244 -0.0563  0.0162 -0.1029
  982BOLB   C3C23563  25.180  -4.414  15.250  0.1371 -0.0495  0.1354
  982BOLB   C4C23564  25.225  -4.040  15.422  0.1735 -0.6347  0.0575
  982BOLB   C1D23565  25.525  -5.445  15.723 -0.0737 -0.2206  0.5342
  982BOLB   C2D23566  25.138  -5.272  15.844 -0.0559 -0.0113 -0.0296
  982BOLB   C3D23567  24.736  -4.980  15.844 -0.1090 -0.0168  0.3393
  982BOLB   C4D23568  24.418  -4.862  15.480  0.0948 -0.0100  0.2539
  983BOLB   NC123569   7.677   3.735  21.949 -0.3388  0.0178 -0.0881
  983BOLB   PO123570   7.638   3.505  21.620  0.1022 -0.1617  0.2874
  983BOLB   GL123571   7.186   3.715  21.614 -0.0344 -0.3014 -0.3216
  983BOLB   GL223572   7.249   3.819  21.302 -0.3327  0.1010 -0.3681
  983BOLB   C1A23573   6.777   3.839  21.840 -0.1490  0.2036 -0.0233
  983BOLB   C2A23574   6.338   3.702  21.860  0.0884 -0.0831 -0.2801
  983BOLB   C3A23575   5.910   3.527  21.972 -0.2062 -0.3277 -0.0102
  983BOLB   C4A23576   5.492   3.348  22.112 -0.0782  0.1295  0.0113
  983BOLB   C1B23577   6.942   4.115  21.433 -0.1475  0.2267 -0.1482
  983BOLB   C2B23578   6.556   4.025  21.437  0.0011 -0.1388  0.1106
  983BOLB   C3B23579   6.126   3.881  21.225 -0.1941  0.1234  0.1845
  983BOLB   C4B23580   5.925   3.709  20.852  0.0228 -0.3238 -0.0963
  983BOLB   NC223581   3.855   4.889  21.254 -0.0198 -0.1818  0.3124
  983BOLB   PO223582   3.595   4.898  21.601 -0.0586 -0.2757 -0.1868
  983BOLB   GL323583   3.874   4.574  21.631  0.3240  0.2958  0.1876
  983BOLB   GL423584   3.899   4.176  21.621  0.0440  0.0427 -0.0984
  983BOLB   C1C23585   4.150   4.498  21.940  0.1880  0.1946  0.1227
  983BOLB   C2C23586   4.556   4.224  22.098 -0.1105 -0.2656 -0.1090
  983BOLB   C3C23587   4.839   3.896  22.196  0.1514 -0.0841  0.2416
  983BOLB   C4C23588   5.116   3.624  22.374 -0.2137 -0.0907  0.1376
  983BOLB   C1D23589   4.342   4.013  21.676  0.0363  0.1416 -0.1341
  983BOLB   C2D23590   4.746   4.148  21.648 -0.0451 -0.1420 -0.0080
  983BOLB   C3D23591   5.174   3.973  21.825  0.1534 -0.2637  0.2301
  983BOLB   C4D23592   5.523   3.813  21.949 -0.0969 -0.1143  0.2041
  984BOLB   NC123593  15.279   0.786  11.850  0.0571 -0.1424 -0.1251
  984BOLB   PO123594  15.062   1.007  12.261  0.0501  0.4163 -0.1363
  984BOLB   GL123595  15.253   1.309  12.501  0.0996 -0.3637  0.0232
  984BOLB   GL223596  15.676   1.275  12.520  0.0658  0.1599  0.2952
  984BOLB   C1A23597  15.336   1.578  12.874  0.1209  0.0664  0.1445
  984BOLB   C2A23598  15.665   1.727  13.126  0.1369  0.0237 -0.2357
  984BOLB   C3A23599  15.806   1.813  13.542 -0.0735  0.0663 -0.0060
  984BOLB   C4A23600  15.480   1.690  13.851  0.3213  0.0639 -0.1705
  984BOLB   C1B23601  15.467   1.082  12.920  0.1398  0.0436 -0.1012
  984BOLB   C2B23602  15.030   0.811  13.138  0.1666 -0.0946 -0.2503
  984BOLB   C3B23603  14.634   0.910  13.239  0.1313  0.1065  0.0736
  984BOLB   C4B23604  14.391   1.097  13.564 -0.1180 -0.0683 -0.0506
  984BOLB   NC223605  14.131  -0.234  12.527 -0.1433 -0.0656  0.0653
  984BOLB   PO223606  14.431  -0.007  12.714 -0.0272  0.3316  0.1819
  984BOLB   GL323607  14.501   0.243  13.072  0.1491 -0.0182  0.1624
  984BOLB   GL423608  14.370   0.578  13.092  0.1683  0.1829  0.1007
  984BOLB   C1C23609  14.804   0.381  13.333  0.1688  0.0013  0.0351
  984BOLB   C2C23610  14.953   0.694  13.633 -0.3118  0.1037  0.2205
  984BOLB   C3C23611  14.930   1.123  13.671  0.0721  0.0474 -0.5777
  984BOLB   C4C23612  15.141   1.543  13.850  0.2200  0.2352  0.2856
  984BOLB   C1D23613  14.160   0.659  13.484 -0.0042 -0.3053  0.0842
  984BOLB   C2D23614  14.076   0.815  13.915 -0.0239  0.0311 -0.1567
  984BOLB   C3D23615  14.095   1.144  14.251 -0.0202  0.1308 -0.1711
  984BOLB   C4D23616  14.037   1.463  14.625 -0.1422 -0.1720  0.1171
  985BOLB   NC123617  17.870   4.614  33.591  0.2210 -0.1528  0.4827
  985BOLB   PO123618  18.144   4.964  33.243 -0.1250  0.1779 -0.0574
  985BOLB   GL123619  18.024   5.117  33.672 -0.0531 -0.1884 -0.1249
  985BOLB   GL223620  17.708   5.093  33.788 -0.0078  0.2096 -0.3938
  985BOLB   C1A23621  18.166   5.237  34.050 -0.0279  0.5364 -0.0415
  985BOLB   C2A23622  18.207   5.333  34.477 -0.1304  0.1411  0.1865
  985BOLB   C3A23623  18.628   5.253  34.806  0.0322  0.1931  0.2019
  985BOLB   C4A23624  18.999   5.372  34.995 -0.1183 -0.0023  0.1859
  985BOLB   C1B23625  17.836   4.795  34.169 -0.1075 -0.0970 -0.3385
  985BOLB   C2B23626  17.740   4.798  34.554  0.0956  0.0404  0.0427
  985BOLB   C3B23627  17.770   4.588  34.876 -0.1073 -0.1037 -0.2570
  985BOLB   C4B23628  18.077   4.461  35.258  0.2437 -0.3451 -0.0498
  985BOLB   NC223629  19.391   6.410  33.004  0.1834  0.0607 -0.2990
  985BOLB   PO223630  19.509   6.087  33.226  0.1513  0.0732 -0.2044
  985BOLB   GL323631  19.770   5.891  33.577 -0.0663 -0.1384 -0.2477
  985BOLB   GL423632  20.099   5.667  33.465 -0.1876  0.2286 -0.1557
  985BOLB   C1C23633  19.952   5.627  33.915 -0.0411  0.3758  0.0706
  985BOLB   C2C23634  19.731   5.465  34.349 -0.2366  0.3866  0.3478
  985BOLB   C3C23635  19.686   5.511  34.715  0.1790  0.0061  0.1758
  985BOLB   C4C23636  19.438   5.422  35.014  0.0639  0.2909 -0.1599
  985BOLB   C1D23637  20.211   6.004  33.727 -0.1082  0.2136  0.3306
  985BOLB   C2D23638  20.374   6.142  34.060 -0.3687 -0.1820 -0.0589
  985BOLB   C3D23639  20.253   6.182  34.482  0.0934  0.3035  0.2280
  985BOLB   C4D23640  20.137   6.381  34.888 -0.0456  0.2050  0.0215
  986BOLB   NC123641  14.764  -0.235  16.962  0.2171  0.4352  0.1121
  986BOLB   PO123642  15.086  -0.359  16.694 -0.0755  0.0746 -0.1301
  986BOLB   GL123643  14.971  -0.683  16.396 -0.2019  0.1123  0.2818
  986BOLB   GL223644  14.650  -0.674  16.125  0.0209 -0.2936  0.2190
  986BOLB   C1A23645  15.126  -0.915  16.033  0.1751  0.0005 -0.1791
  986BOLB   C2A23646  15.073  -1.005  15.603 -0.1736 -0.6181  0.1188
  986BOLB   C3A23647  14.984  -1.333  15.301  0.2479  0.2507  0.2294
  986BOLB   C4A23648  14.594  -1.397  15.044  0.2007  0.0682  0.1072
  986BOLB   C1B23649  14.597  -1.022  15.938 -0.3234  0.0363  0.1253
  986BOLB   C2B23650  14.537  -1.170  15.536 -0.1433 -0.0200  0.0401
  986BOLB   C3B23651  14.602  -0.909  15.141 -0.1488  0.0093  0.0866
  986BOLB   C4B23652  14.742  -0.803  14.687  0.1579 -0.1009 -0.0507
  986BOLB   NC223653  13.652  -2.490  13.520  0.0574 -0.3042 -0.0846
  986BOLB   PO223654  14.033  -2.664  13.344 -0.1639  0.1785  0.1865
  986BOLB   GL323655  14.242  -2.374  13.676 -0.1645  0.1053 -0.1679
  986BOLB   GL423656  14.494  -2.543  13.501  0.0373  0.2250  0.0018
  986BOLB   C1C23657  14.159  -2.076  13.926 -0.0905 -0.0693 -0.1416
  986BOLB   C2C23658  14.102  -1.988  14.335  0.2893 -0.0949  0.3436
  986BOLB   C3C23659  14.078  -1.879  14.726 -0.2066  0.1098 -0.1927
  986BOLB   C4C23660  14.179  -1.572  14.896  0.1291  0.0263  0.1505
  986BOLB   C1D23661  14.644  -2.213  13.868 -0.1643 -0.0742  0.4493
  986BOLB   C2D23662  14.911  -2.433  14.175 -0.2369  0.1293  0.1587
  986BOLB   C3D23663  14.674  -2.697  14.427  0.0813 -0.1118 -0.0341
  986BOLB   C4D23664  14.669  -3.124  14.444  0.0666  0.0630 -0.2078
  987BOLB   NC123665  21.783   0.585  29.808  0.3128 -0.0868  0.1210
  987BOLB   PO123666  22.045   0.304  30.204 -0.1176 -0.0440  0.1702
  987BOLB   GL123667  22.421   0.071  30.373 -0.1573 -0.1328 -0.1337
  987BOLB   GL223668  22.645   0.168  30.276 -0.6059  0.2995 -0.1700
  987BOLB   C1A23669  22.737  -0.370  30.410 -0.0903 -0.4057 -0.0039
  987BOLB   C2A23670  22.844  -0.608  30.086 -0.0381  0.0572  0.2349
  987BOLB   C3A23671  23.029  -1.027  29.868  0.2188  0.2740  0.2147
  987BOLB   C4A23672  23.240  -1.380  30.047 -0.3313  0.1775 -0.1269
  987BOLB   C1B23673  22.941   0.044  30.499  0.2009  0.2614  0.1974
  987BOLB   C2B23674  23.056  -0.378  30.773  0.0555 -0.0639 -0.1027
  987BOLB   C3B23675  22.991  -0.826  30.608  0.1369  0.2116 -0.0684
  987BOLB   C4B23676  22.779  -1.078  30.274 -0.4032 -0.5454  0.0921
  987BOLB   NC223677  25.781  -2.312  30.944  0.1657 -0.1896  0.3164
  987BOLB   PO223678  25.521  -2.303  30.652 -0.0441  0.0909 -0.1335
  987BOLB   GL323679  25.107  -2.165  30.653 -0.3034  0.1467 -0.3756
  987BOLB   GL423680  24.823  -2.419  30.534 -0.4555  0.2332 -0.3356
  987BOLB   C1C23681  24.770  -1.911  30.757 -0.1827  0.2359  0.1465
  987BOLB   C2C23682  24.343  -1.660  30.637 -0.2736  0.1145  0.1053
  987BOLB   C3C23683  23.933  -1.602  30.665 -0.0032  0.0624 -0.1201
  987BOLB   C4C23684  23.561  -1.520  30.354 -0.1071 -0.1233 -0.1371
  987BOLB   C1D23685  24.576  -2.084  30.250  0.0332 -0.1254  0.1158
  987BOLB   C2D23686  24.221  -1.761  30.166  0.2523  0.2414  0.2052
  987BOLB   C3D23687  23.845  -1.576  29.885 -0.2666  0.0130  0.0867
  987BOLB   C4D23688  23.647  -1.136  29.877 -0.0887 -0.0006 -0.1922
  988BOLB   NC123689  28.519   6.146  28.265 -0.0741  0.1733 -0.1463
  988BOLB   PO123690  28.447   6.586  28.277  0.4483 -0.2423 -0.0790
  988BOLB   GL123691  28.035   6.709  28.383  0.0615 -0.0088  0.2491
  988BOLB   GL223692  27.947   6.989  28.125 -0.2899  0.0011  0.1276
  988BOLB   C1A23693  27.610   6.718  28.395 -0.1835 -0.2026  0.1340
  988BOLB   C2A23694  27.320   6.518  28.173 -0.1981  0.0198 -0.1954
  988BOLB   C3A23695  27.008   6.241  27.930  0.1616  0.0672  0.0127
  988BOLB   C4A23696  26.868   5.771  27.667  0.1212  0.0258  0.3386
  988BOLB   C1B23697  27.540   6.979  27.887 -0.0651  0.0891  0.2925
  988BOLB   C2B23698  27.157   6.740  27.660 -0.4725  0.4085  0.2315
  988BOLB   C3B23699  26.737   6.616  27.591  0.0920 -0.0040  0.0179
  988BOLB   C4B23700  26.536   6.192  27.704  0.3292 -0.0653  0.3021
  988BOLB   NC223701  28.818   5.412  26.780  0.1125  0.4753  0.3212
  988BOLB   PO223702  28.711   5.750  26.673 -0.1353 -0.1749  0.0437
  988BOLB   GL323703  28.280   5.789  26.841 -0.1299  0.2370  0.2890
  988BOLB   GL423704  28.055   5.910  27.146  0.2929  0.0419  0.0603
  988BOLB   C1C23705  27.816   5.629  26.712  0.1578 -0.1897  0.1233
  988BOLB   C2C23706  27.546   5.395  27.007  0.0014 -0.0952  0.2101
  988BOLB   C3C23707  27.201   5.287  27.181 -0.2423  0.1529 -0.1271
  988BOLB   C4C23708  26.869   5.507  27.388  0.0193  0.1127  0.2073
  988BOLB   C1D23709  27.945   5.508  27.271  0.0024 -0.2701  0.3164
  988BOLB   C2D23710  27.629   5.310  27.532 -0.0179 -0.3909  0.0230
  988BOLB   C3D23711  27.156   5.076  27.604 -0.3963  0.0113 -0.1221
  988BOLB   C4D23712  27.276   4.709  27.628 -0.0699 -0.1319  0.1333
  989BOLB   NC123713  21.690   3.528  31.235  0.3415 -0.2162  0.1431
  989BOLB   PO123714  21.623   3.220  31.673 -0.2456 -0.1442 -0.1807
  989BOLB   GL123715  22.002   3.082  31.878  0.1173 -0.0008  0.2827
  989BOLB   GL223716  21.966   3.033  32.237 -0.0549 -0.0168 -0.0383
  989BOLB   C1A23717  22.427   3.212  32.066  0.0736  0.1373 -0.3242
  989BOLB   C2A23718  22.760   3.068  32.392  0.1564 -0.1247 -0.0384
  989BOLB   C3A23719  22.951   3.082  32.820  0.0296  0.0850  0.2475
  989BOLB   C4A23720  22.894   3.148  33.191 -0.1939 -0.1326  0.1499
  989BOLB   C1B23721  22.135   3.169  32.483 -0.1733 -0.1969 -0.1897
  989BOLB   C2B23722  22.469   3.320  32.747  0.1047 -0.1809  0.2427
  989BOLB   C3B23723  22.396   3.379  33.244 -0.0446  0.1132  0.0473
  989BOLB   C4B23724  22.256   3.728  33.340 -0.0456  0.1985  0.2419
  989BOLB   NC223725  24.527   3.365  35.419 -0.2506 -0.1197 -0.1146
  989BOLB   PO223726  24.449   3.148  35.027  0.0587  0.2882 -0.1460
  989BOLB   GL323727  24.071   3.126  34.634 -0.0168 -0.0681  0.0630
  989BOLB   GL423728  24.001   3.429  34.495 -0.1775  0.0491 -0.0653
  989BOLB   C1C23729  23.618   3.148  34.437  0.4155  0.1648 -0.0479
  989BOLB   C2C23730  23.405   2.846  34.306 -0.2409  0.0968  0.0635
  989BOLB   C3C23731  23.137   2.756  33.976 -0.2035  0.3570 -0.0136
  989BOLB   C4C23732  23.029   3.029  33.651 -0.1026 -0.0168  0.1148
  989BOLB   C1D23733  23.935   3.875  34.382 -0.1745  0.0688  0.1616
  989BOLB   C2D23734  24.010   4.306  34.359 -0.2325  0.3019 -0.1895
  989BOLB   C3D23735  23.811   4.589  34.675  0.2514 -0.0247 -0.4318
  989BOLB   C4D23736  23.490   4.756  34.948 -0.0490 -0.0884  0.1225
  990BOLB   NC123737  13.797  -0.953  31.461  0.0209 -0.1301 -0.0823
  990BOLB   PO123738  13.534  -0.606  31.519 -0.0603 -0.1099  0.2165
  990BOLB   GL123739  13.166  -0.856  31.675  0.1854 -0.0297 -0.1335
  990BOLB   GL223740  12.808  -0.663  31.705 -0.2841  0.1570  0.3302
  990BOLB   C1A23741  12.925  -1.017  31.980 -0.2811 -0.2590  0.0140
  990BOLB   C2A23742  12.629  -1.299  32.130 -0.2183 -0.0503  0.1584
  990BOLB   C3A23743  12.312  -1.649  32.255 -0.0080  0.0421 -0.1179
  990BOLB   C4A23744  12.186  -2.093  32.392  0.1140 -0.0840 -0.2521
  990BOLB   C1B23745  12.460  -0.821  31.899 -0.3209  0.1043 -0.0978
  990BOLB   C2B23746  12.163  -0.945  32.173  0.0786  0.1501 -0.0347
  990BOLB   C3B23747  11.986  -0.851  32.536 -0.1369 -0.0455 -0.0341
  990BOLB   C4B23748  11.712  -0.656  32.873 -0.0337 -0.0770  0.2548
  990BOLB   NC223749  10.640  -3.413  33.715 -0.3327 -0.1756 -0.0744
  990BOLB   PO223750  11.010  -3.549  33.491 -0.1415  0.0155 -0.2188
  990BOLB   GL323751  11.051  -3.460  33.025  0.2922 -0.1532 -0.1001
  990BOLB   GL423752  11.152  -3.678  32.822  0.0203 -0.2111  0.0928
  990BOLB   C1C23753  11.103  -3.220  32.633 -0.0795 -0.2226  0.0054
  990BOLB   C2C23754  11.196  -2.757  32.614  0.0562  0.0793  0.2978
  990BOLB   C3C23755  11.496  -2.561  32.489 -0.0552  0.2139 -0.1826
  990BOLB   C4C23756  11.838  -2.313  32.456  0.1254 -0.1858  0.2050
  990BOLB   C1D23757  11.520  -3.368  32.903 -0.0969  0.1865 -0.2425
  990BOLB   C2D23758  11.748  -3.078  32.710 -0.0005  0.2816  0.1935
  990BOLB   C3D23759  12.051  -2.700  32.688  0.2850 -0.0458  0.2071
  990BOLB   C4D23760  12.138  -2.325  32.897 -0.0667  0.0460  0.0334
  991BOLB   NC123761  18.864   8.035  32.139  0.0098  0.0975  0.1555
  991BOLB   PO123762  18.926   8.081  32.514  0.0011 -0.1217 -0.2616
  991BOLB   GL123763  19.186   8.105  32.949 -0.0710 -0.2417  0.3148
  991BOLB   GL223764  19.093   7.849  33.253 -0.2216 -0.0096  0.0617
  991BOLB   C1A23765  19.531   8.204  33.155  0.1408 -0.3568  0.0488
  991BOLB   C2A23766  19.717   8.122  33.410  0.3007  0.3242 -0.4829
  991BOLB   C3A23767  19.983   7.832  33.549  0.0599  0.3813 -0.0445
  991BOLB   C4A23768  20.138   7.714  33.888  0.0181 -0.3992 -0.1814
  991BOLB   C1B23769  19.216   8.112  33.550  0.1238  0.1674  0.2279
  991BOLB   C2B23770  19.508   8.411  33.725  0.2594 -0.0260 -0.0864
  991BOLB   C3B23771  19.725   8.743  33.941 -0.0662  0.0111 -0.1799
  991BOLB   C4B23772  19.598   9.068  34.191  0.0203  0.0368  0.0581
  991BOLB   NC223773  21.041   7.811  36.198  0.0767  0.0284  0.2385
  991BOLB   PO223774  21.128   8.230  35.907  0.1154  0.0935 -0.0176
  991BOLB   GL323775  21.081   8.149  35.561 -0.2504  0.2122 -0.0391
  991BOLB   GL423776  21.457   8.232  35.484 -0.0623 -0.0123  0.0604
  991BOLB   C1C23777  21.089   7.933  35.243  0.1943 -0.3463 -0.2394
  991BOLB   C2C23778  20.900   7.791  34.851 -0.0713  0.2603  0.0740
  991BOLB   C3C23779  20.629   7.638  34.513  0.1723 -0.0871 -0.1327
  991BOLB   C4C23780  20.390   7.630  34.197 -0.0845 -0.0802  0.0035
  991BOLB   C1D23781  21.388   8.063  34.927 -0.1474  0.1142  0.0378
  991BOLB   C2D23782  21.258   8.062  34.515  0.1780  0.1486  0.0408
  991BOLB   C3D23783  21.214   8.259  34.101 -0.1787  0.0348 -0.4156
  991BOLB   C4D23784  21.081   8.360  33.691  0.4454 -0.0376 -0.0315
  992BOLB   NC123785  25.549   0.476  33.056  0.3664 -0.1059  0.1296
  992BOLB   PO123786  25.137   0.541  33.292 -0.0626  0.1602 -0.3623
  992BOLB   GL123787  24.977   0.630  32.957  0.2455 -0.1435  0.2528
  992BOLB   GL223788  25.316   0.689  32.706 -0.1880  0.1501 -0.1569
  992BOLB   C1A23789  24.715   0.514  32.547 -0.3015  0.2294  0.0072
  992BOLB   C2A23790  24.882   0.138  32.263 -0.0872 -0.0357  0.4468
  992BOLB   C3A23791  24.801   0.017  31.772  0.0024  0.3368  0.1275
  992BOLB   C4A23792  25.081   0.019  31.350 -0.2977 -0.0708 -0.1665
  992BOLB   C1B23793  25.045   0.898  32.376 -0.0326 -0.0780 -0.2141
  992BOLB   C2B23794  24.738   0.932  32.186 -0.2554 -0.5822 -0.3448
  992BOLB   C3B23795  24.469   0.820  31.872  0.3195  0.0894  0.0016
  992BOLB   C4B23796  24.272   0.580  31.562 -0.2097  0.1818 -0.0389
  992BOLB   NC223797  27.319  -0.078  31.116  0.2173  0.0435 -0.2248
  992BOLB   PO223798  27.061   0.245  30.870  0.1827 -0.1289 -0.0267
  992BOLB   GL323799  26.749   0.296  30.829 -0.0161 -0.0953  0.1675
  992BOLB   GL423800  26.699   0.594  30.704  0.1284  0.1618 -0.1246
  992BOLB   C1C23801  26.410   0.102  30.577  0.2393 -0.0707 -0.2391
  992BOLB   C2C23802  25.955   0.084  30.796  0.0785  0.2045  0.0484
  992BOLB   C3C23803  25.503   0.255  30.775  0.1709 -0.1977  0.0470
  992BOLB   C4C23804  25.161   0.273  31.067  0.0156 -0.2370  0.0537
  992BOLB   C1D23805  26.343   0.631  30.467 -0.4000  0.0235 -0.1221
  992BOLB   C2D23806  25.910   0.544  30.324  0.0869 -0.0135  0.2449
  992BOLB   C3D23807  25.568   0.211  30.248 -0.1384  0.1398  0.1165
  992BOLB   C4D23808  25.549  -0.168  30.383  0.0721  0.2953  0.0371
  993BOLB   NC123809   6.341  -3.630  28.701  0.2893  0.1382 -0.0848
  993BOLB   PO123810   6.639  -3.939  28.832 -0.1055 -0.3155  0.1346
  993BOLB   GL123811   6.858  -3.848  28.434 -0.1921 -0.2134  0.3005
  993BOLB   GL223812   7.031  -4.154  28.266 -0.1114 -0.2432 -0.0514
  993BOLB   C1A23813   7.010  -3.489  28.082  0.2724  0.1681 -0.0691
  993BOLB   C2A23814   7.403  -3.483  28.024  0.0005  0.1947 -0.1363
  993BOLB   C3A23815   7.527  -2.993  27.983  0.2928  0.4322  0.0186
  993BOLB   C4A23816   7.545  -2.609  28.209 -0.1487 -0.1097 -0.0929
  993BOLB   C1B23817   7.496  -3.899  28.366  0.0396 -0.1898 -0.1519
  993BOLB   C2B23818   7.701  -3.535  28.477  0.1713  0.2832 -0.0315
  993BOLB   C3B23819   7.907  -3.282  28.129  0.0038 -0.0593  0.1294
  993BOLB   C4B23820   8.026  -3.010  27.867  0.2392  0.0388  0.0041
  993BOLB   NC223821   9.269  -0.778  27.292  0.1028  0.0517 -0.1601
  993BOLB   PO223822   9.260  -1.142  27.388  0.1070 -0.3183 -0.3687
  993BOLB   GL323823   8.792  -1.244  27.521 -0.0692 -0.0422 -0.1206
  993BOLB   GL423824   8.667  -1.561  27.428 -0.1064  0.0375 -0.0350
  993BOLB   C1C23825   8.502  -1.401  27.881  0.2059  0.3449  0.3793
  993BOLB   C2C23826   8.090  -1.612  28.047 -0.3077 -0.1050  0.1698
  993BOLB   C3C23827   7.815  -1.799  28.214 -0.3727  0.2162  0.0817
  993BOLB   C4C23828   7.689  -2.209  28.256  0.2204  0.0106  0.2081
  993BOLB   C1D23829   8.306  -1.727  27.351  0.1788 -0.1342 -0.1385
  993BOLB   C2D23830   7.943  -1.945  27.500 -0.0665 -0.1340 -0.1444
  993BOLB   C3D23831   7.614  -2.027  27.703 -0.0018  0.2458  0.4488
  993BOLB   C4D23832   7.214  -2.147  28.026 -0.2024 -0.0951 -0.1752
  994BOLB   NC123833   8.103   0.412  21.780  0.0136 -0.0341 -0.1302
  994BOLB   PO123834   7.996   0.568  21.415  0.0772 -0.0120 -0.1931
  994BOLB   GL123835   7.671   0.725  21.493 -0.0397  0.0342  0.3428
  994BOLB   GL223836   7.717   0.895  21.128 -0.1417  0.2458  0.1565
  994BOLB   C1A23837   7.236   0.691  21.312  0.1394 -0.3844 -0.5514
  994BOLB   C2A23838   6.748   0.645  21.450 -0.2912  0.2114  0.0785
  994BOLB   C3A23839   6.360   0.892  21.605  0.2093 -0.2905  0.2044
  994BOLB   C4A23840   5.972   1.130  21.798 -0.0058  0.2154 -0.3046
  994BOLB   C1B23841   7.442   0.699  20.859  0.1880  0.0850  0.0457
  994BOLB   C2B23842   7.195   0.220  20.846 -0.1223 -0.3804  0.3402
  994BOLB   C3B23843   7.003  -0.177  20.644  0.2098  0.3943  0.2387
  994BOLB   C4B23844   6.991  -0.465  20.279 -0.1212 -0.0137 -0.0573
  994BOLB   NC223845   3.295   0.484  22.465 -0.0415  0.2830 -0.2614
  994BOLB   PO223846   3.590   0.551  22.127 -0.0751  0.0868  0.1950
  994BOLB   GL323847   4.003   0.763  22.068  0.1848  0.2824  0.2662
  994BOLB   GL423848   4.100   0.421  22.124  0.1109  0.1916  0.1175
  994BOLB   C1C23849   4.462   0.847  22.088  0.2740  0.0397 -0.2712
  994BOLB   C2C23850   4.710   1.256  21.991  0.2369  0.1066  0.0615
  994BOLB   C3C23851   5.100   1.396  21.963  0.1631 -0.0090 -0.1249
  994BOLB   C4C23852   5.600   1.445  21.867  0.0658  0.0255 -0.3701
  994BOLB   C1D23853   4.340   0.319  22.427 -0.0649  0.1067 -0.0516
  994BOLB   C2D23854   4.577   0.329  22.795 -0.2089  0.0363  0.0879
  994BOLB   C3D23855   4.946   0.469  22.915 -0.1850  0.1312 -0.0013
  994BOLB   C4D23856   5.126   0.795  22.829 -0.0029  0.1577 -0.1332
  995BOLB   NC123857  14.583  16.998  26.245  0.3054 -0.0471 -0.0258
  995BOLB   PO123858  14.534  16.547  26.265  0.2738 -0.2520 -0.2228
  995BOLB   GL123859  14.369  16.076  26.396  0.2567 -0.2576 -0.2883
  995BOLB   GL223860  14.392  16.051  26.113 -0.1751  0.0583 -0.0545
  995BOLB   C1A23861  14.530  15.672  26.428 -0.1367 -0.0325 -0.0408
  995BOLB   C2A23862  14.463  15.153  26.447 -0.1422  0.0078  0.2511
  995BOLB   C3A23863  14.690  14.721  26.520  0.0640 -0.2043 -0.0093
  995BOLB   C4A23864  14.560  14.354  26.376  0.0309 -0.0981 -0.1699
  995BOLB   C1B23865  14.627  15.636  25.897  0.0469  0.1086 -0.0114
  995BOLB   C2B23866  14.871  15.422  26.060 -0.0550  0.4609 -0.0545
  995BOLB   C3B23867  14.958  15.284  26.438  0.0828 -0.0790 -0.1524
  995BOLB   C4B23868  15.054  15.152  26.812 -0.0685  0.1135  0.0676
  995BOLB   NC223869  15.496  12.470  26.124  0.2198  0.0150 -0.3599
  995BOLB   PO223870  15.407  12.818  26.486  0.0245  0.1297  0.1686
  995BOLB   GL323871  15.192  12.875  26.028 -0.0607  0.1037 -0.1843
  995BOLB   GL423872  15.175  13.035  25.728  0.3076  0.0649  0.1685
  995BOLB   C1C23873  14.724  13.081  26.072  0.0682 -0.0187  0.0040
  995BOLB   C2C23874  14.493  13.382  26.249  0.1913 -0.1794 -0.1616
  995BOLB   C3C23875  14.256  13.692  26.263  0.1951 -0.0376 -0.0876
  995BOLB   C4C23876  14.258  14.081  26.335  0.0179 -0.1958  0.2489
  995BOLB   C1D23877  15.217  13.351  26.068  0.3708 -0.3956  0.1588
  995BOLB   C2D23878  15.215  13.584  26.554 -0.3930  0.1152 -0.1764
  995BOLB   C3D23879  15.155  13.937  26.725 -0.0976 -0.0813 -0.4240
  995BOLB   C4D23880  15.020  14.313  26.570 -0.0198  0.0172  0.0382
  996BOLB   NC123881  23.038   3.942  20.205  0.3419 -0.1762  0.0989
  996BOLB   PO123882  22.742   3.777  19.856  0.2630 -0.1771  0.2557
  996BOLB   GL123883  23.227   3.723  19.728 -0.1667 -0.3128 -0.3735
  996BOLB   GL223884  23.399   3.962  19.852 -0.2490 -0.3498 -0.0232
  996BOLB   C1A23885  23.604   3.722  19.504 -0.0451 -0.2074 -0.1105
  996BOLB   C2A23886  23.929   3.892  19.263  0.2323 -0.4654 -0.0803
  996BOLB   C3A23887  24.275   3.897  18.981 -0.1860  0.2054  0.0087
  996BOLB   C4A23888  24.620   4.153  18.797 -0.0641  0.2544 -0.0625
  996BOLB   C1B23889  23.798   4.166  19.836 -0.1816  0.2482  0.0114
  996BOLB   C2B23890  24.157   4.384  19.781 -0.0991  0.2521 -0.3042
  996BOLB   C3B23891  24.357   4.604  19.559 -0.0809  0.2152  0.0051
  996BOLB   C4B23892  24.594   4.734  19.196  0.4579  0.0184  0.1167
  996BOLB   NC223893  26.711   4.396  18.592  0.2018 -0.2898  0.0383
  996BOLB   PO223894  26.653   4.530  18.158 -0.1299  0.4626  0.5332
  996BOLB   GL323895  26.182   4.395  18.178  0.2931  0.4191 -0.0526
  996BOLB   GL423896  25.993   4.272  17.847 -0.2039 -0.0486 -0.3007
  996BOLB   C1C23897  25.755   4.464  18.197 -0.0035  0.1279  0.1093
  996BOLB   C2C23898  25.384   4.692  18.055  0.2552 -0.1134  0.1974
  996BOLB   C3C23899  25.101   4.747  18.409 -0.0034 -0.1115  0.0722
  996BOLB   C4C23900  24.894   4.429  18.653 -0.1630 -0.1291 -0.1317
  996BOLB   C1D23901  25.594   4.332  17.737  0.0241  0.0728 -0.0916
  996BOLB   C2D23902  25.096   4.346  17.585 -0.1200 -0.1729  0.5289
  996BOLB   C3D23903  24.701   4.163  17.654 -0.0547 -0.3792  0.4872
  996BOLB   C4D23904  24.500   3.780  17.720  0.2629  0.0999  0.1988
  997BOLB   NC123905  18.488  -5.535  10.279 -0.0067 -0.1105  0.0592
  997BOLB   PO123906  18.425  -5.134  10.416  0.0341  0.0377  0.3379
  997BOLB   GL123907  18.778  -4.884  10.605 -0.2371 -0.1690  0.0608
  997BOLB   GL223908  19.107  -4.933  10.535  0.0503  0.2829 -0.0252
  997BOLB   C1A23909  18.980  -4.711  11.052 -0.1217 -0.2112 -0.0115
  997BOLB   C2A23910  19.302  -4.494  11.280 -0.0368  0.0684  0.0931
  997BOLB   C3A23911  19.321  -4.286  11.645 -0.2230 -0.0164  0.0848
  997BOLB   C4A23912  19.360  -4.344  12.091 -0.2011  0.1666 -0.4165
  997BOLB   C1B23913  19.029  -5.211  10.958  0.0283 -0.3354 -0.1284
  997BOLB   C2B23914  19.118  -5.734  11.086  0.4261  0.1501  0.3146
  997BOLB   C3B23915  19.285  -6.123  11.199 -0.0755  0.0010 -0.1299
  997BOLB   C4B23916  19.582  -6.383  11.339 -0.1134 -0.1294  0.0125
  997BOLB   NC223917  20.182  -5.220  10.096 -0.0365 -0.0744  0.3803
  997BOLB   PO223918  19.910  -5.467  10.347  0.0552 -0.0680 -0.0398
  997BOLB   GL323919  19.746  -5.243  10.681  0.0198 -0.1134  0.0411
  997BOLB   GL423920  19.485  -5.336  10.747 -0.1000 -0.2335  0.0403
  997BOLB   C1C23921  20.021  -5.105  11.074  0.1273  0.2632  0.0853
  997BOLB   C2C23922  19.894  -5.040  11.486 -0.3000 -0.0933  0.2843
  997BOLB   C3C23923  19.891  -4.962  11.996 -0.0010  0.2355  0.2044
  997BOLB   C4C23924  19.620  -4.671  12.160 -0.0592 -0.0382  0.1293
  997BOLB   C1D23925  19.545  -5.425  11.223  0.1300 -0.3150 -0.0527
  997BOLB   C2D23926  19.477  -5.270  11.685  0.2292  0.1784 -0.4046
  997BOLB   C3D23927  19.503  -5.226  12.202  0.0932  0.5413  0.1631
  997BOLB   C4D23928  19.709  -5.626  12.333  0.1256 -0.2030 -0.1187
  998BOLB   NC123929  10.347  -1.772  21.183  0.0517  0.4165  0.1074
  998BOLB   PO123930  10.203  -1.594  20.711 -0.2014  0.1786 -0.1545
  998BOLB   GL123931   9.785  -1.588  20.479  0.2806 -0.0134 -0.4007
  998BOLB   GL223932   9.478  -1.840  20.513  0.0306 -0.1300  0.3028
  998BOLB   C1A23933   9.641  -1.437  20.057 -0.0732  0.3093 -0.4187
  998BOLB   C2A23934   9.361  -1.592  19.854  0.3194  0.1485 -0.0948
  998BOLB   C3A23935   9.224  -1.867  19.599 -0.1505  0.0797 -0.1785
  998BOLB   C4A23936   9.294  -2.236  19.368  0.0315 -0.0230  0.0417
  998BOLB   C1B23937   9.540  -1.946  20.126 -0.0104 -0.1010  0.2175
  998BOLB   C2B23938   9.620  -2.132  19.734 -0.2456  0.0185  0.0925
  998BOLB   C3B23939   9.744  -2.418  19.410 -0.1996  0.0596  0.4796
  998BOLB   C4B23940   9.748  -2.866  19.427  0.5715 -0.0161 -0.1206
  998BOLB   NC223941   8.487  -4.824  18.078  0.2483  0.1108  0.2040
  998BOLB   PO223942   8.436  -4.333  18.021 -0.1572  0.1008 -0.1975
  998BOLB   GL323943   8.774  -3.979  18.116  0.0727  0.0397  0.1944
  998BOLB   GL423944   8.729  -3.598  17.970  0.0321  0.2337 -0.1050
  998BOLB   C1C23945   9.018  -3.724  18.499  0.0310 -0.3770 -0.2939
  998BOLB   C2C23946   9.281  -3.325  18.669 -0.1149 -0.1201 -0.2722
  998BOLB   C3C23947   9.281  -2.853  19.013 -0.1863 -0.1151  0.2461
  998BOLB   C4C23948   9.268  -2.661  19.423  0.3806 -0.0802 -0.2240
  998BOLB   C1D23949   9.156  -3.440  18.097  0.3173 -0.1115  0.2576
  998BOLB   C2D23950   9.622  -3.313  18.258 -0.0120 -0.2741 -0.2823
  998BOLB   C3D23951  10.044  -3.408  18.491 -0.1384 -0.0606 -0.2208
  998BOLB   C4D23952  10.083  -3.065  18.379 -0.0797  0.0155  0.1376
  999BOLB   NC123953  17.074  -5.455  10.560 -0.2252  0.0175 -0.0358
  999BOLB   PO123954  17.270  -5.079  10.786 -0.2331  0.0782 -0.0590
  999BOLB   GL123955  17.512  -5.013  11.052  0.2080  0.1184  0.2057
  999BOLB   GL223956  17.818  -5.094  11.109  0.0502 -0.0347  0.0424
  999BOLB   C1A23957  17.398  -4.810  11.384  0.3271  0.0816 -0.2374
  999BOLB   C2A23958  17.751  -4.736  11.649 -0.0679 -0.1561 -0.2762
  999BOLB   C3A23959  17.681  -4.618  12.048 -0.1358  0.0854 -0.0819
  999BOLB   C4A23960  17.367  -4.479  12.280  0.0234  0.3980  0.0108
  999BOLB   C1B23961  17.942  -5.176  11.563  0.0126 -0.2250  0.3183
  999BOLB   C2B23962  17.960  -5.172  12.066  0.0014  0.1643  0.0640
  999BOLB   C3B23963  18.270  -5.175  12.491 -0.1700  0.1289  0.2540
  999BOLB   C4B23964  18.627  -4.880  12.529  0.1561  0.1853 -0.3185
  999BOLB   NC223965  15.759  -5.263  11.700 -0.3954  0.1358  0.1586
  999BOLB   PO223966  15.339  -4.996  11.564 -0.1874 -0.1087 -0.1901
  999BOLB   GL323967  15.527  -4.869  11.948  0.0043 -0.1284  0.0483
  999BOLB   GL423968  15.493  -4.959  12.200 -0.1622  0.0406  0.0642
  999BOLB   C1C23969  15.958  -4.775  12.238  0.0122  0.1350  0.0351
  999BOLB   C2C23970  16.247  -4.646  12.500 -0.1677  0.3038  0.6988
  999BOLB   C3C23971  16.671  -4.668  12.693 -0.0403  0.3945 -0.1144
  999BOLB   C4C23972  17.105  -4.704  12.516 -0.0227  0.1450 -0.0921
  999BOLB   C1D23973  15.689  -4.895  12.656 -0.2588  0.0322 -0.0420
  999BOLB   C2D23974  15.713  -4.741  13.107  0.0161 -0.1713 -0.1186
  999BOLB   C3D23975  15.931  -4.369  13.333 -0.4008 -0.1872  0.0508
  999BOLB   C4D23976  16.256  -4.500  13.616  0.1373  0.2746 -0.1322
 1000BOLB   NC123977   9.509   0.463  19.971 -0.3106 -0.1909  0.1282
 1000BOLB   PO123978   9.944   0.482  19.697 -0.0970 -0.4449 -0.0317
 1000BOLB   GL123979   9.669   0.225  19.449 -0.1754  0.0543 -0.1502
 1000BOLB   GL223980   9.891   0.236  19.196 -0.1235  0.0867 -0.0675
 1000BOLB   C1A23981   9.308   0.068  19.266 -0.0599  0.2077 -0.1701
 1000BOLB   C2A23982   9.058   0.084  18.953  0.0559 -0.0179  0.1372
 1000BOLB   C3A23983   8.677   0.028  18.773  0.0440 -0.0120 -0.1347
 1000BOLB   C4A23984   8.303  -0.082  18.397  0.3519 -0.0036  0.1668
 1000BOLB   C1B23985   9.767   0.060  18.864 -0.1580  0.0577  0.2833
 1000BOLB   C2B23986   9.789  -0.077  18.536  0.1030 -0.0581 -0.1597
 1000BOLB   C3B23987   9.628   0.050  18.185 -0.0002 -0.2854 -0.1597
 1000BOLB   C4B23988   9.285   0.084  17.994  0.0388 -0.0037  0.0933
 1000BOLB   NC223989   6.928  -2.010  17.512  0.0899 -0.1681  0.0591
 1000BOLB   PO223990   7.354  -1.918  17.375  0.0713  0.4785 -0.3092
 1000BOLB   GL323991   7.508  -1.654  17.691  0.4197  0.0122 -0.1517
 1000BOLB   GL423992   7.296  -1.358  17.821 -0.0740 -0.0495  0.0093
 1000BOLB   C1C23993   7.858  -1.458  17.763  0.2616 -0.0254  0.0880
 1000BOLB   C2C23994   8.212  -1.295  17.980  0.1684  0.0675  0.0094
 1000BOLB   C3C23995   8.387  -0.856  17.857  0.0006  0.0279  0.2339
 1000BOLB   C4C23996   8.282  -0.400  17.972  0.0184  0.0637  0.0654
 1000BOLB   C1D23997   7.601  -1.193  18.145  0.2626  0.1191 -0.2899
 1000BOLB   C2D23998   7.946  -1.204  18.414  0.2034  0.5016  0.0148
 1000BOLB   C3D23999   8.355  -1.069  18.460  0.0429 -0.0587 -0.3775
 1000BOLB   C4D24000   8.624  -0.792  18.303 -0.2139  0.2421  0.0190
 1001BOLB   NC124001  18.400   5.154  16.581  0.1277  0.1458 -0.0506
 1001BOLB   PO124002  18.453   4.722  16.477  0.3760 -0.2038  0.3298
 1001BOLB   GL124003  18.672   4.937  16.135 -0.3451  0.1093 -0.0075
 1001BOLB   GL224004  18.961   4.583  16.087  0.0954  0.1903  0.0014
 1001BOLB   C1A24005  18.660   5.172  15.838  0.0027  0.1416 -0.0609
 1001BOLB   C2A24006  18.524   5.185  15.528 -0.0097 -0.3806  0.0280
 1001BOLB   C3A24007  18.577   5.140  15.113 -0.0925 -0.0833 -0.1454
 1001BOLB   C4A24008  18.810   5.364  14.775 -0.3615  0.0215  0.3053
 1001BOLB   C1B24009  19.082   4.803  15.788  0.0695  0.0604  0.0017
 1001BOLB   C2B24010  19.409   4.837  15.404 -0.0863  0.1808 -0.1630
 1001BOLB   C3B24011  19.611   4.829  15.002  0.0052 -0.0515 -0.3709
 1001BOLB   C4B24012  19.987   4.891  14.771 -0.0922 -0.1049  0.1839
 1001BOLB   NC224013  19.568   6.271  13.006  0.1286  0.0146  0.1459
 1001BOLB   PO224014  19.774   5.867  12.886 -0.0001 -0.3582  0.0412
 1001BOLB   GL324015  19.501   5.573  13.094 -0.0169  0.2086 -0.1357
 1001BOLB   GL424016  19.307   5.369  12.913  0.1291 -0.0265  0.2150
 1001BOLB   C1C24017  19.234   5.488  13.442  0.4691  0.0106  0.1190
 1001BOLB   C2C24018  19.296   5.206  13.823  0.2224 -0.2312  0.1756
 1001BOLB   C3C24019  19.304   5.326  14.228 -0.1965  0.2476 -0.0206
 1001BOLB   C4C24020  19.130   5.507  14.551 -0.2636 -0.0748 -0.1815
 1001BOLB   C1D24021  19.033   5.102  13.154  0.3827  0.2218  0.2003
 1001BOLB   C2D24022  19.157   4.869  13.419 -0.1642  0.0416  0.1445
 1001BOLB   C3D24023  19.254   4.478  13.648  0.1570  0.1482 -0.3913
 1001BOLB   C4D24024  19.205   4.248  13.905 -0.0252 -0.0818 -0.3681
 1002BOLB   NC124025   8.893   8.597  16.663  0.1133 -0.0251 -0.0488
 1002BOLB   PO124026   8.795   9.038  16.940  0.1236  0.1069  0.1200
 1002BOLB   GL124027   8.776   8.899  17.316  0.0447  0.0908 -0.3441
 1002BOLB   GL224028   8.857   9.104  17.786 -0.1440 -0.1444 -0.5037
 1002BOLB   C1A24029   8.819   8.590  17.629 -0.0822 -0.2157  0.1333
 1002BOLB   C2A24030   8.948   8.560  18.127  0.0108 -0.2438  0.2702
 1002BOLB   C3A24031   9.126   8.307  18.408 -0.1439 -0.3074 -0.3376
 1002BOLB   C4A24032   9.416   8.124  18.597 -0.1702 -0.2180  0.0021
 1002BOLB   C1B24033   9.190   8.821  17.733  0.0713 -0.0946  0.0648
 1002BOLB   C2B24034   9.542   8.715  17.637 -0.0706  0.0133  0.2263
 1002BOLB   C3B24035   9.645   8.330  17.471 -0.0726  0.1188 -0.2230
 1002BOLB   C4B24036   9.624   7.985  17.741  0.4239 -0.2505  0.4286
 1002BOLB   NC224037  10.593   6.847  20.288 -0.0825  0.1667  0.0475
 1002BOLB   PO224038  10.129   6.692  20.394  0.0178  0.1210  0.0121
 1002BOLB   GL324039   9.910   6.952  20.083 -0.0931  0.1132  0.1462
 1002BOLB   GL424040   9.713   6.771  19.957  0.1400 -0.1382 -0.2090
 1002BOLB   C1C24041   9.752   7.285  19.853 -0.1477  0.1961 -0.1508
 1002BOLB   C2C24042   9.438   7.332  19.592  0.1950 -0.0322 -0.0246
 1002BOLB   C3C24043   9.313   7.637  19.336  0.1599  0.3036  0.0462
 1002BOLB   C4C24044   9.504   7.824  18.944 -0.1380  0.0302  0.2691
 1002BOLB   C1D24045   9.270   6.969  19.868  0.2700 -0.0582  0.2526
 1002BOLB   C2D24046   8.903   7.181  19.678  0.1957  0.0672  0.0395
 1002BOLB   C3D24047   8.868   7.483  19.389  0.1338  0.1082 -0.1614
 1002BOLB   C4D24048   8.919   7.507  18.979  0.1567  0.0322  0.1751
 1003BOLB   NC124049  16.076  -4.244  23.746  0.1985 -0.1084 -0.0614
 1003BOLB   PO124050  15.930  -4.126  24.182 -0.2371 -0.1907  0.0847
 1003BOLB   GL124051  16.017  -4.559  24.152  0.0997 -0.1834  0.1355
 1003BOLB   GL224052  16.264  -4.750  24.315 -0.0332 -0.1133  0.1008
 1003BOLB   C1A24053  15.853  -4.972  24.013  0.1357 -0.2790 -0.2321
 1003BOLB   C2A24054  15.767  -5.371  24.014  0.2008 -0.0869  0.2264
 1003BOLB   C3A24055  15.670  -5.702  24.002  0.0244  0.0863  0.0908
 1003BOLB   C4A24056  15.681  -6.113  24.156 -0.2660 -0.0962  0.0173
 1003BOLB   C1B24057  16.090  -5.149  24.406  0.2916  0.0569  0.2504
 1003BOLB   C2B24058  15.884  -5.540  24.459  0.0293 -0.0283 -0.0399
 1003BOLB   C3B24059  15.736  -5.893  24.647  0.0080 -0.1899 -0.0406
 1003BOLB   C4B24060  15.572  -6.247  24.916 -0.0085 -0.1110 -0.3680
 1003BOLB   NC224061  14.696  -8.372  23.005 -0.0002  0.1216 -0.0369
 1003BOLB   PO224062  14.826  -8.422  23.391  0.1726 -0.4442  0.0715
 1003BOLB   GL324063  14.976  -8.118  23.404  0.0435  0.1828 -0.3474
 1003BOLB   GL424064  15.172  -7.961  23.148  0.1306 -0.3222  0.1018
 1003BOLB   C1C24065  15.088  -7.725  23.594  0.1111 -0.0987 -0.0496
 1003BOLB   C2C24066  15.232  -7.368  23.858  0.2247 -0.0160 -0.3045
 1003BOLB   C3C24067  15.502  -6.993  24.156 -0.1923  0.0294 -0.2586
 1003BOLB   C4C24068  15.717  -6.522  24.184 -0.0240  0.2662 -0.1981
 1003BOLB   C1D24069  15.039  -7.620  23.033  0.4686  0.1966 -0.1978
 1003BOLB   C2D24070  14.950  -7.317  23.349 -0.0759 -0.2364  0.1357
 1003BOLB   C3D24071  14.865  -7.016  23.593  0.2464 -0.4358 -0.0526
 1003BOLB   C4D24072  14.951  -6.744  23.850 -0.2323  0.2172  0.1456
 1004BOLB   NC124073  18.621   0.024  19.941  0.2150 -0.0983 -0.0742
 1004BOLB   PO124074  18.189   0.028  19.741 -0.1278  0.1295  0.0647
 1004BOLB   GL124075  18.356  -0.188  19.351  0.2109  0.0688 -0.1506
 1004BOLB   GL224076  18.620   0.130  19.396 -0.3332  0.2769  0.0548
 1004BOLB   C1A24077  18.252  -0.568  19.103  0.0649 -0.1968 -0.0921
 1004BOLB   C2A24078  18.054  -0.724  18.788 -0.1693  0.1467  0.2436
 1004BOLB   C3A24079  18.135  -0.981  18.427 -0.3006 -0.3214  0.3138
 1004BOLB   C4A24080  18.439  -1.309  18.408  0.1642  0.2052  0.0657
 1004BOLB   C1B24081  18.595   0.061  18.955 -0.1946  0.1893 -0.1166
 1004BOLB   C2B24082  18.622   0.025  18.489  0.0506  0.1267  0.2155
 1004BOLB   C3B24083  18.818  -0.061  18.058  0.3368  0.3074 -0.0001
 1004BOLB   C4B24084  19.146   0.167  17.781  0.0103  0.0550 -0.0325
 1004BOLB   NC224085  18.609  -0.579  20.344  0.3270 -0.0633 -0.2033
 1004BOLB   PO224086  18.957  -0.300  20.208  0.1289 -0.0872 -0.1792
 1004BOLB   GL324087  19.098  -0.631  19.947  0.0481  0.2160 -0.0660
 1004BOLB   GL424088  19.355  -0.542  19.941 -0.0477  0.0847 -0.3236
 1004BOLB   C1C24089  19.261  -0.822  19.502 -0.3034  0.1617 -0.0554
 1004BOLB   C2C24090  19.320  -1.099  19.209  0.1023  0.2390  0.2862
 1004BOLB   C3C24091  19.133  -1.316  18.811 -0.1024  0.1208  0.0638
 1004BOLB   C4C24092  18.900  -1.402  18.397  0.0800 -0.1651 -0.0563
 1004BOLB   C1D24093  19.702  -0.887  19.802  0.2044 -0.2952 -0.2188
 1004BOLB   C2D24094  19.986  -1.208  19.642 -0.4399 -0.1414  0.3983
 1004BOLB   C3D24095  20.330  -1.464  19.522  0.1227 -0.1843 -0.2751
 1004BOLB   C4D24096  20.517  -1.891  19.406  0.0121 -0.0584  0.3295
 1005BOLB   NC124097  12.273  -2.140  29.207  0.2885  0.1614  0.2258
 1005BOLB   PO124098  12.705  -1.903  29.436 -0.1022 -0.0421  0.0010
 1005BOLB   GL124099  12.478  -2.247  29.607 -0.3679  0.0486 -0.0759
 1005BOLB   GL224100  12.704  -2.364  29.799 -0.1623 -0.1678  0.1763
 1005BOLB   C1A24101  12.250  -2.653  29.752  0.2198  0.3795  0.3147
 1005BOLB   C2A24102  12.340  -2.992  30.034 -0.2303  0.3643  0.0948
 1005BOLB   C3A24103  12.366  -2.977  30.406  0.1442  0.3322 -0.0994
 1005BOLB   C4A24104  12.533  -2.994  30.949 -0.1250  0.2950  0.2371
 1005BOLB   C1B24105  12.436  -2.463  30.192  0.1334 -0.0486  0.0599
 1005BOLB   C2B24106  12.206  -2.224  30.523 -0.0185  0.1091  0.2733
 1005BOLB   C3B24107  11.876  -2.505  30.684  0.2177 -0.0051  0.1597
 1005BOLB   C4B24108  12.013  -2.850  30.830 -0.3996  0.2885 -0.4445
 1005BOLB   NC224109  11.892  -4.845  32.458  0.3263 -0.2498  0.2149
 1005BOLB   PO224110  12.202  -4.741  32.789 -0.0638 -0.2989 -0.1729
 1005BOLB   GL324111  12.443  -4.494  32.591  0.0397  0.1655  0.1914
 1005BOLB   GL424112  12.270  -4.566  32.281  0.0875  0.1424  0.0992
 1005BOLB   C1C24113  12.609  -4.065  32.544  0.0876 -0.3272  0.0167
 1005BOLB   C2C24114  12.615  -3.917  32.101 -0.0983 -0.3047  0.1879
 1005BOLB   C3C24115  12.543  -3.492  31.840 -0.0095  0.2203 -0.1058
 1005BOLB   C4C24116  12.485  -3.154  31.480  0.0021 -0.4790 -0.1465
 1005BOLB   C1D24117  12.547  -4.397  32.068  0.1093  0.0680 -0.3085
 1005BOLB   C2D24118  12.729  -4.233  31.695  0.0121  0.0097 -0.1147
 1005BOLB   C3D24119  12.726  -3.874  31.402 -0.1412  0.2217 -0.0142
 1005BOLB   C4D24120  12.694  -3.556  31.363  0.2901  0.1468  0.1738
 1006BOLB   NC124121  13.688  -4.493  20.496 -0.2366  0.2646 -0.1353
 1006BOLB   PO124122  13.922  -4.222  20.312 -0.1358 -0.0978 -0.2333
 1006BOLB   GL124123  14.105  -4.740  20.238 -0.0206  0.1380 -0.1834
 1006BOLB   GL224124  14.067  -5.002  20.497  0.0390 -0.0587 -0.2087
 1006BOLB   C1A24125  13.954  -5.009  19.991  0.1071  0.2286 -0.2796
 1006BOLB   C2A24126  13.716  -5.175  19.678 -0.1352 -0.0714 -0.0058
 1006BOLB   C3A24127  13.349  -5.495  19.508 -0.0637 -0.1596 -0.1864
 1006BOLB   C4A24128  13.035  -5.748  19.642 -0.0291 -0.2174 -0.0204
 1006BOLB   C1B24129  13.959  -5.454  20.656 -0.1178  0.0171  0.0546
 1006BOLB   C2B24130  14.078  -5.857  20.606  0.2029  0.2558  0.3572
 1006BOLB   C3B24131  14.083  -6.227  20.444  0.0718 -0.3470  0.3667
 1006BOLB   C4B24132  13.741  -6.432  20.328 -0.0252  0.0165 -0.2156
 1006BOLB   NC224133  11.287  -7.314  17.550 -0.1658 -0.2508  0.0446
 1006BOLB   PO224134  11.393  -7.146  17.885 -0.2667  0.1194  0.2630
 1006BOLB   GL324135  11.702  -6.878  18.111  0.1493 -0.0255 -0.0649
 1006BOLB   GL424136  11.570  -6.748  18.327  0.1469 -0.2806 -0.1074
 1006BOLB   C1C24137  12.075  -6.775  18.380  0.2331  0.1141  0.0112
 1006BOLB   C2C24138  12.353  -6.639  18.726 -0.0663 -0.0675  0.1639
 1006BOLB   C3C24139  12.475  -6.288  19.200  0.1217 -0.0277  0.6102
 1006BOLB   C4C24140  12.633  -5.996  19.483 -0.0841 -0.2244  0.1369
 1006BOLB   C1D24141  11.786  -6.577  18.718 -0.0618 -0.1615  0.0964
 1006BOLB   C2D24142  11.993  -6.271  19.062 -0.2276 -0.1546  0.3670
 1006BOLB   C3D24143  11.929  -5.882  19.133  0.0790 -0.0091  0.1348
 1006BOLB   C4D24144  12.016  -5.409  19.116  0.3684 -0.1958  0.1145
 1007BOLB   NC124145  20.412   1.493  10.151 -0.2200  0.0471 -0.1284
 1007BOLB   PO124146  20.828   1.478  10.277  0.1461 -0.2482 -0.0469
 1007BOLB   GL124147  20.732   1.270  10.658  0.1856 -0.1747  0.0128
 1007BOLB   GL224148  20.528   1.525  10.656 -0.3940  0.5342 -0.1971
 1007BOLB   C1A24149  20.688   0.964  10.939 -0.2073 -0.0270  0.1781
 1007BOLB   C2A24150  20.703   0.797  11.391 -0.0225  0.1558 -0.2367
 1007BOLB   C3A24151  20.768   0.830  11.824  0.1493  0.0120 -0.0280
 1007BOLB   C4A24152  21.076   0.992  12.075 -0.0091 -0.2157  0.0952
 1007BOLB   C1B24153  20.350   1.585  11.009 -0.0858  0.1024  0.0472
 1007BOLB   C2B24154  20.148   1.636  11.358 -0.2225 -0.2940 -0.0787
 1007BOLB   C3B24155  19.836   1.690  11.612  0.1886 -0.0740 -0.0865
 1007BOLB   C4B24156  19.446   1.723  11.752  0.2057  0.5876  0.0055
 1007BOLB   NC224157  20.645   2.561  10.555 -0.2053  0.0416  0.3018
 1007BOLB   PO224158  21.103   2.467  10.625  0.1584  0.1999 -0.1831
 1007BOLB   GL324159  20.954   2.303  10.911  0.0979  0.1632  0.1810
 1007BOLB   GL424160  20.909   2.055  10.862  0.0489  0.1430  0.0518
 1007BOLB   C1C24161  21.090   2.353  11.355 -0.3795  0.0870 -0.0247
 1007BOLB   C2C24162  20.959   2.079  11.658 -0.1640 -0.0927  0.3791
 1007BOLB   C3C24163  21.064   1.689  11.731  0.2495  0.2750  0.0859
 1007BOLB   C4C24164  21.160   1.304  12.001  0.2202  0.2938 -0.0776
 1007BOLB   C1D24165  21.073   1.854  11.198  0.0916  0.1225  0.1329
 1007BOLB   C2D24166  21.444   1.984  11.461 -0.1256 -0.1370 -0.2964
 1007BOLB   C3D24167  21.876   2.118  11.483  0.0310 -0.1953  0.1393
 1007BOLB   C4D24168  22.213   1.967  11.497  0.4578 -0.0825  0.4687
 1008BOLB   NC124169  14.840  -1.085  31.386 -0.0449  0.0330 -0.0335
 1008BOLB   PO124170  14.514  -0.963  31.454 -0.2134  0.1244 -0.1727
 1008BOLB   GL124171  14.308  -1.145  31.778  0.0596  0.1246 -0.1923
 1008BOLB   GL224172  14.068  -1.324  31.699 -0.2696  0.1362 -0.3041
 1008BOLB   C1A24173  14.381  -1.351  32.117 -0.0117 -0.3842  0.1386
 1008BOLB   C2A24174  14.361  -1.692  32.424  0.1433  0.1351 -0.3847
 1008BOLB   C3A24175  14.379  -1.689  32.854 -0.2797 -0.0995 -0.0169
 1008BOLB   C4A24176  14.331  -2.094  33.095  0.3409 -0.2208 -0.1851
 1008BOLB   C1B24177  13.863  -1.459  32.110 -0.1127 -0.0346 -0.0976
 1008BOLB   C2B24178  13.738  -1.546  32.543 -0.4774  0.0299  0.0188
 1008BOLB   C3B24179  13.880  -1.736  32.995  0.2181 -0.0155  0.1618
 1008BOLB   C4B24180  13.960  -1.806  33.466 -0.2512  0.0166 -0.4115
 1008BOLB   NC224181  12.370  -3.008  34.518 -0.2368  0.1173  0.2146
 1008BOLB   PO224182  12.773  -3.141  34.529 -0.2186 -0.0589  0.3968
 1008BOLB   GL324183  12.998  -3.078  34.223 -0.4549  0.2526  0.0899
 1008BOLB   GL424184  13.270  -3.201  34.149 -0.0219 -0.2323  0.1719
 1008BOLB   C1C24185  13.122  -2.766  33.972 -0.2665 -0.1275 -0.0110
 1008BOLB   C2C24186  13.364  -2.811  33.631 -0.0022 -0.4077  0.0920
 1008BOLB   C3C24187  13.679  -2.657  33.301  0.3018 -0.0979 -0.1128
 1008BOLB   C4C24188  14.040  -2.390  33.192 -0.1856  0.1984  0.2545
 1008BOLB   C1D24189  13.597  -3.214  33.767 -0.1335 -0.0233 -0.2316
 1008BOLB   C2D24190  13.888  -3.016  33.630 -0.1522  0.1918 -0.0127
 1008BOLB   C3D24191  14.028  -2.704  33.655 -0.1866  0.0670  0.2660
 1008BOLB   C4D24192  14.164  -2.256  33.681  0.4223 -0.0147  0.0118
 1009BOLB   NC124193   5.318   8.699  31.838 -0.0309  0.2264  0.0111
 1009BOLB   PO124194   5.555   9.091  31.523  0.0324 -0.1562  0.0208
 1009BOLB   GL124195   5.826   8.870  31.486  0.2371  0.3311  0.2796
 1009BOLB   GL224196   6.050   9.111  31.657  0.2270 -0.1208  0.2942
 1009BOLB   C1A24197   6.004   8.550  31.267 -0.1235  0.0612  0.1221
 1009BOLB   C2A24198   6.344   8.438  31.136 -0.1831  0.0932  0.2220
 1009BOLB   C3A24199   6.442   8.125  30.904 -0.2768 -0.3323 -0.0969
 1009BOLB   C4A24200   6.422   7.755  30.697  0.1354 -0.1254  0.0092
 1009BOLB   C1B24201   6.542   9.289  31.607  0.0707 -0.2291 -0.1186
 1009BOLB   C2B24202   6.808   9.326  31.221  0.2517 -0.1156  0.1572
 1009BOLB   C3B24203   7.093   9.730  31.037 -0.2035 -0.1995  0.2852
 1009BOLB   C4B24204   7.117  10.261  30.981 -0.0814  0.3609  0.0837
 1009BOLB   NC224205   4.417   8.255  29.608 -0.0714  0.3420 -0.1796
 1009BOLB   PO224206   4.481   8.677  29.627 -0.1485  0.0027  0.1657
 1009BOLB   GL324207   4.879   8.383  29.740 -0.2763 -0.2437  0.1410
 1009BOLB   GL424208   5.133   8.551  30.058 -0.0181  0.2265  0.2847
 1009BOLB   C1C24209   5.268   8.259  29.698 -0.1392 -0.2277  0.1000
 1009BOLB   C2C24210   5.779   8.062  29.772  0.0527  0.0604  0.1606
 1009BOLB   C3C24211   6.100   7.734  30.023 -0.2198 -0.0847 -0.1779
 1009BOLB   C4C24212   6.150   7.539  30.394  0.0651  0.0256 -0.1034
 1009BOLB   C1D24213   5.182   8.785  29.675 -0.3054  0.1912  0.2722
 1009BOLB   C2D24214   5.539   9.023  29.500  0.2447  0.2120  0.0121
 1009BOLB   C3D24215   5.793   8.888  29.304 -0.1455  0.0018  0.1959
 1009BOLB   C4D24216   6.124   8.636  29.203 -0.0367  0.3444 -0.0581
 1010BOLB   NC124217  13.640   6.888  17.847 -0.0879 -0.1781  0.0861
 1010BOLB   PO124218  13.557   7.282  17.803  0.4054 -0.2140  0.0849
 1010BOLB   GL124219  13.408   7.721  17.699 -0.1207 -0.1208  0.0422
 1010BOLB   GL224220  13.098   7.681  17.548 -0.1200 -0.2162 -0.1878
 1010BOLB   C1A24221  13.377   8.127  17.629  0.1481  0.0810  0.3504
 1010BOLB   C2A24222  13.256   8.484  17.408  0.5737  0.0400  0.0642
 1010BOLB   C3A24223  12.878   8.602  17.120 -0.0883 -0.1943  0.4799
 1010BOLB   C4A24224  12.764   8.533  16.676  0.1666  0.1450  0.1069
 1010BOLB   C1B24225  12.932   7.979  17.294 -0.0626 -0.1049 -0.0558
 1010BOLB   C2B24226  12.828   8.058  16.916 -0.1005  0.2938 -0.0429
 1010BOLB   C3B24227  13.096   8.147  16.562  0.1801 -0.0520 -0.0688
 1010BOLB   C4B24228  13.234   8.608  16.441  0.3684 -0.1431  0.4525
 1010BOLB   NC224229  13.286   8.691  14.252  0.0663 -0.2371  0.1667
 1010BOLB   PO224230  13.091   9.143  14.519  0.0026  0.0692 -0.2531
 1010BOLB   GL324231  13.020   9.123  14.907  0.2580 -0.3313 -0.0183
 1010BOLB   GL424232  12.663   9.214  14.915 -0.0157  0.1432 -0.2408
 1010BOLB   C1C24233  12.901   8.900  15.215  0.2003  0.0814  0.0193
 1010BOLB   C2C24234  12.980   8.913  15.680 -0.0407  0.0055 -0.0599
 1010BOLB   C3C24235  12.920   8.671  16.003 -0.1372  0.0566 -0.1223
 1010BOLB   C4C24236  12.722   8.682  16.307 -0.1285 -0.2888  0.1648
 1010BOLB   C1D24237  12.445   8.993  15.237  0.2183  0.1774  0.1849
 1010BOLB   C2D24238  12.058   8.972  15.351 -0.4146  0.3058  0.0728
 1010BOLB   C3D24239  11.683   8.880  15.538 -0.0145  0.2034 -0.0733
 1010BOLB   C4D24240  11.353   8.710  15.697  0.3872 -0.1730 -0.1726
 1011BOLB   NC124241  12.162   8.943  20.016  0.1008  0.0937 -0.3722
 1011BOLB   PO124242  12.069   9.101  20.430 -0.3942  0.3213 -0.0058
 1011BOLB   GL124243  11.899   9.408  20.233  0.1326 -0.0760  0.2899
 1011BOLB   GL224244  11.724   9.206  19.921  0.1484  0.0812  0.0493
 1011BOLB   C1A24245  11.696   9.712  20.143 -0.0641 -0.2867  0.0363
 1011BOLB   C2A24246  11.613   9.992  19.738 -0.2702  0.1851  0.3819
 1011BOLB   C3A24247  11.615   9.899  19.389 -0.0368  0.2128  0.0553
 1011BOLB   C4A24248  11.412   9.768  18.992 -0.1400 -0.2608  0.2940
 1011BOLB   C1B24249  11.433   9.527  19.795 -0.0027 -0.2082 -0.0930
 1011BOLB   C2B24250  11.057   9.723  19.532  0.1484 -0.2836  0.1559
 1011BOLB   C3B24251  10.806   9.768  19.265 -0.2045 -0.0202 -0.1276
 1011BOLB   C4B24252  10.599  10.017  19.080 -0.0997  0.1955 -0.1022
 1011BOLB   NC224253  10.481  11.242  17.551 -0.1471 -0.1603  0.0628
 1011BOLB   PO224254  10.671  11.630  17.431  0.0134 -0.1803 -0.1679
 1011BOLB   GL324255  10.796  11.561  17.820  0.0227  0.1126  0.0990
 1011BOLB   GL424256  11.063  11.334  17.919  0.1998  0.2085 -0.1849
 1011BOLB   C1C24257  10.838  11.111  18.295 -0.0396  0.2090 -0.0996
 1011BOLB   C2C24258  10.950  10.708  18.569  0.2037 -0.0727 -0.1195
 1011BOLB   C3C24259  10.956  10.352  18.913  0.0229  0.0746  0.0081
 1011BOLB   C4C24260  11.192  10.025  18.976 -0.0724 -0.1631  0.1498
 1011BOLB   C1D24261  11.473  11.106  17.984 -0.0821 -0.0421 -0.0442
 1011BOLB   C2D24262  11.722  10.949  18.100  0.1082  0.0371  0.0358
 1011BOLB   C3D24263  11.562  10.547  18.152  0.1505 -0.2556  0.3329
 1011BOLB   C4D24264  11.456  10.225  17.880  0.1885  0.1389  0.1416
 1012BOLB   NC124265  16.482   2.544  16.092  0.0790  0.0960  0.1518
 1012BOLB   PO124266  16.594   2.255  16.113 -0.0611 -0.1767  0.2261
 1012BOLB   GL124267  16.563   2.282  15.597  0.1149  0.0639  0.1726
 1012BOLB   GL224268  16.448   2.542  15.589  0.1340  0.0972 -0.2568
 1012BOLB   C1A24269  16.611   2.156  15.163  0.1581 -0.1812 -0.1731
 1012BOLB   C2A24270  16.720   1.941  14.827 -0.2712  0.1845  0.1630
 1012BOLB   C3A24271  16.745   1.864  14.410 -0.2454 -0.1149  0.2005
 1012BOLB   C4A24272  16.860   2.004  14.074 -0.0225 -0.1522  0.0758
 1012BOLB   C1B24273  16.342   2.559  15.120  0.0588 -0.3109  0.1197
 1012BOLB   C2B24274  16.278   2.793  14.718 -0.1200  0.2302 -0.0603
 1012BOLB   C3B24275  16.249   3.075  14.453 -0.1360  0.4175 -0.3002
 1012BOLB   C4B24276  16.413   3.412  14.196 -0.2058  0.1010 -0.0678
 1012BOLB   NC224277  16.315   1.518  11.534 -0.1809 -0.1621  0.0770
 1012BOLB   PO224278  16.405   1.476  11.994  0.0097 -0.1946  0.0724
 1012BOLB   GL324279  16.376   1.745  12.422 -0.2268 -0.1996  0.0249
 1012BOLB   GL424280  16.144   1.557  12.560  0.2224 -0.0724  0.0933
 1012BOLB   C1C24281  16.599   1.746  12.801 -0.2735  0.0147 -0.0350
 1012BOLB   C2C24282  16.775   1.762  13.151 -0.0838 -0.0163 -0.1138
 1012BOLB   C3C24283  16.996   1.947  13.433  0.1527  0.0336 -0.0036
 1012BOLB   C4C24284  17.144   1.887  13.803  0.1898  0.3973  0.1578
 1012BOLB   C1D24285  15.997   1.356  12.889  0.0655 -0.1210 -0.4072
 1012BOLB   C2D24286  16.146   1.038  13.159  0.0300 -0.0885  0.1681
 1012BOLB   C3D24287  16.390   0.608  13.215  0.0188 -0.0058  0.1991
 1012BOLB   C4D24288  16.669   0.218  13.249  0.1513  0.2829  0.2365
 1013BOLB   NC124289  19.699   5.038  17.116 -0.1012  0.1300  0.1067
 1013BOLB   PO124290  19.941   5.066  16.827 -0.0378  0.1262 -0.2724
 1013BOLB   GL124291  20.104   4.940  16.395 -0.1481  0.0244  0.0079
 1013BOLB   GL224292  19.988   4.715  16.369 -0.0216  0.0660 -0.2448
 1013BOLB   C1A24293  20.286   4.778  16.028  0.0174 -0.1279  0.0426
 1013BOLB   C2A24294  20.402   4.923  15.674 -0.0341  0.2204 -0.1149
 1013BOLB   C3A24295  20.416   4.973  15.299  0.0002 -0.1951  0.0673
 1013BOLB   C4A24296  20.543   4.878  14.958  0.1977 -0.0285  0.0801
 1013BOLB   C1B24297  19.835   4.825  16.005  0.2589 -0.0570 -0.2157
 1013BOLB   C2B24298  19.631   5.064  15.811 -0.1718 -0.1314 -0.1749
 1013BOLB   C3B24299  19.602   5.367  15.488 -0.2190 -0.1371  0.1837
 1013BOLB   C4B24300  19.296   5.665  15.444 -0.2065 -0.0464  0.4774
 1013BOLB   NC224301  21.339   5.681  13.189 -0.4771  0.1116  0.2619
 1013BOLB   PO224302  21.023   5.570  12.830 -0.0157  0.2465  0.0387
 1013BOLB   GL324303  20.687   5.333  13.166 -0.1660 -0.1992 -0.0608
 1013BOLB   GL424304  20.406   5.169  13.047  0.1956  0.1701  0.1871
 1013BOLB   C1C24305  20.612   5.255  13.630 -0.2905 -0.1128 -0.1107
 1013BOLB   C2C24306  20.527   5.167  13.987 -0.2339  0.3922 -0.3306
 1013BOLB   C3C24307  20.538   4.921  14.310  0.4377  0.1021 -0.0405
 1013BOLB   C4C24308  20.425   4.940  14.634 -0.1573 -0.0944 -0.0311
 1013BOLB   C1D24309  20.588   4.821  13.218 -0.0916 -0.1897  0.1481
 1013BOLB   C2D24310  20.509   4.471  13.463  0.0202 -0.2038 -0.0188
 1013BOLB   C3D24311  20.871   4.296  13.634  0.2106  0.0464  0.1147
 1013BOLB   C4D24312  20.893   4.125  14.049  0.1585 -0.0101  0.3204
 1014BOLB   NC124313  17.609  11.693  29.141  0.1297 -0.1091  0.0599
 1014BOLB   PO124314  17.301  11.704  29.440  0.0237  0.0627 -0.1185
 1014BOLB   GL124315  17.411  11.955  29.825  0.2555  0.1628 -0.0243
 1014BOLB   GL224316  17.624  11.752  30.057  0.5523  0.1792  0.3203
 1014BOLB   C1A24317  17.391  12.119  30.238 -0.0499  0.1304  0.0799
 1014BOLB   C2A24318  17.288  12.474  30.394  0.1646 -0.3903  0.1677
 1014BOLB   C3A24319  17.365  12.856  30.559 -0.1002 -0.0990  0.1871
 1014BOLB   C4A24320  17.636  13.259  30.460 -0.2973  0.1382 -0.2622
 1014BOLB   C1B24321  17.964  11.941  30.363  0.3243  0.0475 -0.0904
 1014BOLB   C2B24322  18.247  12.159  30.635 -0.2089  0.0101 -0.2860
 1014BOLB   C3B24323  18.350  12.638  30.877 -0.2962 -0.1113 -0.1775
 1014BOLB   C4B24324  18.373  12.906  31.208  0.2158 -0.0228 -0.2240
 1014BOLB   NC224325  17.702  16.091  31.345 -0.0749 -0.1409 -0.0288
 1014BOLB   PO224326  17.770  15.654  31.166 -0.2312 -0.0878 -0.0530
 1014BOLB   GL324327  17.788  15.342  30.889 -0.3194  0.1404 -0.2207
 1014BOLB   GL424328  17.633  15.210  30.492  0.4295  0.0442 -0.4494
 1014BOLB   C1C24329  17.959  14.878  30.795  0.1582  0.1875  0.0888
 1014BOLB   C2C24330  17.960  14.413  30.603  0.1410  0.2122 -0.4395
 1014BOLB   C3C24331  17.616  14.033  30.456  0.2181  0.0419  0.0473
 1014BOLB   C4C24332  17.621  13.668  30.305 -0.2757  0.2912  0.3736
 1014BOLB   C1D24333  17.561  14.767  30.497 -0.0422  0.2339 -0.1257
 1014BOLB   C2D24334  17.302  14.437  30.378  0.1442 -0.2397  0.2205
 1014BOLB   C3D24335  17.248  14.085  30.094  0.1265  0.2026  0.0059
 1014BOLB   C4D24336  17.385  13.730  29.879  0.0900 -0.1132 -0.1155
 1015BOLB   NC124337  18.272  12.935  16.835 -0.0621 -0.0598  0.0007
 1015BOLB   PO124338  17.835  12.976  17.022  0.0585 -0.0305 -0.0874
 1015BOLB   GL124339  17.672  12.564  17.233 -0.3115 -0.0904 -0.2278
 1015BOLB   GL224340  17.859  12.307  17.301  0.3690 -0.0362  0.0855
 1015BOLB   C1A24341  17.282  12.206  17.358 -0.2381  0.1863  0.0456
 1015BOLB   C2A24342  16.892  12.299  17.320 -0.2738  0.0331  0.0394
 1015BOLB   C3A24343  16.527  12.512  17.430 -0.0182 -0.0130  0.0968
 1015BOLB   C4A24344  16.246  12.413  17.716  0.0828  0.2512  0.1246
 1015BOLB   C1B24345  17.862  11.989  17.650  0.1525 -0.1058  0.1393
 1015BOLB   C2B24346  17.912  11.805  18.119  0.3074  0.5457 -0.0525
 1015BOLB   C3B24347  17.892  11.574  18.544  0.0250  0.0633  0.0521
 1015BOLB   C4B24348  17.686  11.381  18.926 -0.0657  0.4651 -0.2177
 1015BOLB   NC224349  14.712  13.560  17.731  0.1493 -0.1737 -0.3714
 1015BOLB   PO224350  14.396  13.761  17.982  0.2576 -0.0048  0.0450
 1015BOLB   GL324351  14.460  13.267  18.097 -0.1124 -0.0606 -0.1313
 1015BOLB   GL424352  14.030  13.176  18.118 -0.1132  0.1016 -0.2567
 1015BOLB   C1C24353  14.838  12.956  18.084  0.1689  0.1035  0.3119
 1015BOLB   C2C24354  15.011  12.609  17.938  0.1376  0.0988  0.2517
 1015BOLB   C3C24355  15.384  12.377  17.873 -0.0735  0.1676  0.0802
 1015BOLB   C4C24356  15.823  12.291  17.839  0.2950  0.0062 -0.0187
 1015BOLB   C1D24357  14.040  12.830  18.210 -0.1033  0.2045  0.2308
 1015BOLB   C2D24358  13.880  12.520  18.547 -0.0827 -0.0517 -0.2106
 1015BOLB   C3D24359  13.531  12.254  18.694 -0.1208 -0.0420 -0.1033
 1015BOLB   C4D24360  13.610  11.969  18.902  0.4053 -0.0263  0.0394
 1016BOLB   NC124361   9.364  -7.541  24.101  0.3513  0.2418  0.4461
 1016BOLB   PO124362   9.756  -7.573  24.047  0.0399  0.0111  0.2438
 1016BOLB   GL124363  10.041  -7.296  23.863 -0.1932 -0.0062 -0.3130
 1016BOLB   GL224364  10.382  -7.382  24.003  0.2407 -0.0762 -0.0548
 1016BOLB   C1A24365  10.078  -6.890  23.747 -0.0256  0.0126 -0.1941
 1016BOLB   C2A24366  10.182  -6.575  23.958 -0.1137 -0.2957 -0.3509
 1016BOLB   C3A24367  10.281  -6.196  24.118  0.0982 -0.3947 -0.3462
 1016BOLB   C4A24368  10.461  -5.948  24.168 -0.1136  0.0278  0.2253
 1016BOLB   C1B24369  10.212  -7.026  24.262  0.2109  0.2430 -0.0931
 1016BOLB   C2B24370  10.330  -6.641  24.545  0.2419  0.1009 -0.0789
 1016BOLB   C3B24371  10.658  -6.498  24.893 -0.1228 -0.0217  0.1184
 1016BOLB   C4B24372  11.028  -6.611  25.022 -0.1021 -0.2532 -0.2987
 1016BOLB   NC224373  10.242  -7.834  23.130  0.0143  0.1270  0.1673
 1016BOLB   PO224374  10.099  -7.481  23.366  0.0764  0.1133 -0.1077
 1016BOLB   GL324375  10.472  -7.169  23.474  0.2231 -0.4088 -0.2493
 1016BOLB   GL424376  10.815  -7.254  23.316 -0.3149 -0.1887  0.2673
 1016BOLB   C1C24377  10.615  -6.714  23.317 -0.3059  0.3203 -0.2589
 1016BOLB   C2C24378  10.819  -6.242  23.290 -0.3054 -0.0904  0.1728
 1016BOLB   C3C24379  10.865  -5.742  23.483  0.1107  0.0017 -0.3033
 1016BOLB   C4C24380  10.556  -5.629  23.826 -0.1672  0.6936  0.1829
 1016BOLB   C1D24381  11.156  -6.907  23.426 -0.3379 -0.1303 -0.0338
 1016BOLB   C2D24382  11.525  -6.817  23.763 -0.2585  0.1139  0.0737
 1016BOLB   C3D24383  11.675  -6.374  23.750  0.1240  0.1358  0.0987
 1016BOLB   C4D24384  12.107  -6.246  23.622 -0.4865  0.0015  0.3518
 1017BOLB   NC124385   9.344   4.027  30.503 -0.3113  0.0198  0.0548
 1017BOLB   PO124386   9.176   4.202  30.906  0.1198 -0.1192  0.4561
 1017BOLB   GL124387   8.800   4.258  30.973 -0.0116 -0.2569 -0.3682
 1017BOLB   GL224388   8.643   4.554  31.008  0.1434  0.1697  0.0984
 1017BOLB   C1A24389   8.374   4.138  30.971 -0.2217  0.1889 -0.1903
 1017BOLB   C2A24390   8.013   4.360  31.196 -0.1646  0.1902  0.2576
 1017BOLB   C3A24391   7.593   4.477  31.426 -0.3739  0.3730 -0.0469
 1017BOLB   C4A24392   7.328   4.828  31.605  0.2098 -0.1713  0.0394
 1017BOLB   C1B24393   8.408   4.737  31.295 -0.1395 -0.0994 -0.2063
 1017BOLB   C2B24394   8.043   4.805  31.521  0.0309  0.0010  0.2640
 1017BOLB   C3B24395   7.722   4.713  31.855  0.3484 -0.1350  0.0208
 1017BOLB   C4B24396   7.411   4.476  31.939 -0.1486 -0.1391 -0.2419
 1017BOLB   NC224397   5.590   4.535  33.394 -0.1307 -0.3004 -0.2373
 1017BOLB   PO224398   5.915   4.665  33.681  0.0562  0.0748  0.1288
 1017BOLB   GL324399   6.051   4.530  33.166  0.2055 -0.5165  0.1529
 1017BOLB   GL424400   5.784   4.542  32.846 -0.2579 -0.2186  0.2432
 1017BOLB   C1C24401   6.394   4.567  32.876 -0.1143  0.0910  0.1526
 1017BOLB   C2C24402   6.756   4.527  32.497  0.0435  0.3632 -0.0249
 1017BOLB   C3C24403   7.118   4.709  32.321  0.1574  0.1306 -0.3373
 1017BOLB   C4C24404   7.031   4.804  31.881 -0.0525  0.0251 -0.3719
 1017BOLB   C1D24405   6.003   4.445  32.596 -0.1161  0.0454  0.0335
 1017BOLB   C2D24406   6.321   4.353  32.318 -0.0841 -0.1520  0.0225
 1017BOLB   C3D24407   6.545   4.610  31.953  0.0392  0.1960 -0.1111
 1017BOLB   C4D24408   6.732   4.561  31.563 -0.0141 -0.1481  0.1476
 1018BOLB   NC124409   8.123  -2.235  32.686 -0.2244 -0.1526  0.0601
 1018BOLB   PO124410   7.888  -1.857  32.679  0.0354 -0.1903  0.0427
 1018BOLB   GL124411   8.268  -1.564  32.410  0.0414 -0.3277 -0.3680
 1018BOLB   GL224412   8.502  -1.597  32.602 -0.1960 -0.1331  0.3125
 1018BOLB   C1A24413   8.163  -1.366  32.050  0.0523  0.0427  0.0668
 1018BOLB   C2A24414   8.248  -0.936  31.791 -0.2928 -0.1835  0.0581
 1018BOLB   C3A24415   8.439  -0.566  31.829  0.2323  0.3115  0.3047
 1018BOLB   C4A24416   8.272  -0.239  32.052 -0.0023 -0.0962  0.2017
 1018BOLB   C1B24417   8.840  -1.638  32.282  0.0045 -0.0283 -0.2697
 1018BOLB   C2B24418   9.377  -1.606  32.094 -0.1798  0.1873 -0.0100
 1018BOLB   C3B24419   9.621  -1.283  32.146  0.1412 -0.1376 -0.0328
 1018BOLB   C4B24420   9.955  -0.877  32.169  0.0287 -0.0318  0.0142
 1018BOLB   NC224421   6.106   0.574  33.023  0.3275  0.0352  0.3630
 1018BOLB   PO224422   6.390   0.884  33.163 -0.1600  0.0378  0.1695
 1018BOLB   GL324423   6.809   0.745  33.094 -0.2424  0.2294 -0.4049
 1018BOLB   GL424424   6.953   0.934  33.181 -0.1948 -0.0090  0.0073
 1018BOLB   C1C24425   7.120   0.563  32.944  0.3762 -0.1211  0.1439
 1018BOLB   C2C24426   7.477   0.566  32.821  0.0092 -0.0340  0.0988
 1018BOLB   C3C24427   7.800   0.305  32.517  0.2417 -0.0524 -0.1415
 1018BOLB   C4C24428   8.033   0.109  32.236  0.0153 -0.2394  0.2918
 1018BOLB   C1D24429   7.356   1.045  32.889 -0.2651 -0.0249  0.1578
 1018BOLB   C2D24430   7.808   1.073  32.869  0.1671 -0.0696 -0.2112
 1018BOLB   C3D24431   8.309   0.840  32.875 -0.3810 -0.2715 -0.2471
 1018BOLB   C4D24432   8.710   0.798  32.580  0.3452  0.1033 -0.1346
 1019BOLB   NC124433   8.401   5.681  29.606  0.1024  0.0325 -0.5488
 1019BOLB   PO124434   8.267   5.886  29.298  0.1583  0.2532 -0.3695
 1019BOLB   GL124435   7.885   6.067  29.337  0.2078 -0.1145  0.0277
 1019BOLB   GL224436   7.646   5.934  29.334  0.3595  0.1396 -0.0268
 1019BOLB   C1A24437   7.620   6.534  29.397 -0.0143  0.1715 -0.1287
 1019BOLB   C2A24438   7.207   6.576  29.605  0.0472  0.0836 -0.0916
 1019BOLB   C3A24439   6.906   6.528  29.797 -0.0412 -0.0192 -0.1299
 1019BOLB   C4A24440   6.493   6.543  30.026 -0.3964  0.2613 -0.0156
 1019BOLB   C1B24441   7.217   6.038  29.471  0.0320 -0.2713  0.1081
 1019BOLB   C2B24442   6.830   6.267  29.401 -0.0445 -0.0948 -0.2814
 1019BOLB   C3B24443   6.414   6.257  29.265 -0.3576 -0.3592 -0.3963
 1019BOLB   C4B24444   6.311   5.851  29.142 -0.1190 -0.2892 -0.0750
 1019BOLB   NC224445   4.532   7.012  31.244  0.1773 -0.1226  0.2560
 1019BOLB   PO224446   4.459   6.649  31.007  0.0619  0.0077 -0.1904
 1019BOLB   GL324447   4.780   6.462  30.800  0.5117 -0.3263  0.2806
 1019BOLB   GL424448   4.801   6.709  30.627 -0.2606  0.2166 -0.0278
 1019BOLB   C1C24449   5.158   6.399  30.963  0.2890  0.0473 -0.1160
 1019BOLB   C2C24450   5.646   6.462  30.957 -0.1786  0.2387 -0.2667
 1019BOLB   C3C24451   6.015   6.614  30.801  0.0666  0.0045 -0.1834
 1019BOLB   C4C24452   6.401   6.582  30.489  0.1705 -0.1025  0.3387
 1019BOLB   C1D24453   5.238   6.759  30.643  0.0187  0.0005 -0.0187
 1019BOLB   C2D24454   5.605   7.133  30.740 -0.0733 -0.0028 -0.0423
 1019BOLB   C3D24455   5.779   7.535  30.871 -0.1753 -0.0036 -0.0048
 1019BOLB   C4D24456   6.028   7.838  31.065  0.2833  0.0303 -0.1752
 1020BOLB   NC124457  13.630  12.288  27.558 -0.1079 -0.0879  0.3577
 1020BOLB   PO124458  13.251  12.335  27.287  0.1426  0.0091 -0.0295
 1020BOLB   GL124459  13.312  12.758  27.429  0.1108  0.0462 -0.2442
 1020BOLB   GL224460  13.212  12.659  27.755 -0.0588  0.1365  0.2419
 1020BOLB   C1A24461  13.069  13.004  27.197 -0.0687 -0.1359 -0.0289
 1020BOLB   C2A24462  13.110  13.382  27.113 -0.0029  0.0376 -0.0766
 1020BOLB   C3A24463  13.015  13.798  27.329  0.3574  0.0454  0.0346
 1020BOLB   C4A24464  12.886  14.165  27.364 -0.2731 -0.0173  0.2786
 1020BOLB   C1B24465  13.333  12.977  28.036  0.2456  0.2334  0.2215
 1020BOLB   C2B24466  13.431  13.347  27.974  0.0770  0.1652 -0.0538
 1020BOLB   C3B24467  13.382  13.769  27.974  0.1315  0.0478  0.0838
 1020BOLB   C4B24468  13.441  14.064  28.269  0.0768  0.2075  0.0540
 1020BOLB   NC224469  12.250  16.461  27.951 -0.0333 -0.3841 -0.2499
 1020BOLB   PO224470  12.366  16.403  27.486  0.3240  0.0638  0.0592
 1020BOLB   GL324471  12.443  16.117  27.349  0.0045  0.1871 -0.0685
 1020BOLB   GL424472  12.792  16.070  27.392 -0.0392 -0.0722  0.0697
 1020BOLB   C1C24473  12.577  15.629  27.350  0.0747 -0.1270  0.0962
 1020BOLB   C2C24474  12.521  15.199  27.365  0.0851  0.0751 -0.0030
 1020BOLB   C3C24475  12.631  14.925  27.359 -0.2470  0.2556  0.1269
 1020BOLB   C4C24476  12.760  14.525  27.264  0.1431  0.3650 -0.2456
 1020BOLB   C1D24477  13.242  15.982  27.595  0.1090 -0.2087 -0.0186
 1020BOLB   C2D24478  13.595  15.603  27.419 -0.1687  0.0074  0.2243
 1020BOLB   C3D24479  13.643  15.183  27.420  0.0144  0.0222 -0.0998
 1020BOLB   C4D24480  13.689  14.767  27.134  0.0130 -0.0068  0.1672
 1021BOLB   NC124481  10.976   5.350  18.831 -0.0675  0.0145 -0.1880
 1021BOLB   PO124482  11.119   4.922  18.638  0.1121 -0.0518 -0.2788
 1021BOLB   GL124483  10.657   5.139  18.504  0.4446  0.1336  0.1663
 1021BOLB   GL224484  10.593   4.929  18.362  0.0220  0.0116  0.2116
 1021BOLB   C1A24485  10.188   5.230  18.210  0.0101 -0.3256  0.0847
 1021BOLB   C2A24486  10.021   5.196  17.808  0.2710 -0.0020  0.6208
 1021BOLB   C3A24487   9.726   5.059  17.560  0.0041  0.1023  0.0343
 1021BOLB   C4A24488   9.320   5.063  17.251  0.2623 -0.0666  0.1547
 1021BOLB   C1B24489  10.317   4.751  17.946 -0.1203  0.1794  0.1448
 1021BOLB   C2B24490   9.949   4.675  17.768 -0.1139 -0.0242 -0.1609
 1021BOLB   C3B24491   9.847   4.349  17.429 -0.1128 -0.2559 -0.0901
 1021BOLB   C4B24492   9.842   4.566  16.923  0.0831 -0.0346 -0.4064
 1021BOLB   NC224493   7.481   5.436  16.163  0.2715  0.3541  0.2136
 1021BOLB   PO224494   7.181   5.277  16.430  0.0325 -0.1574  0.0327
 1021BOLB   GL324495   7.469   5.223  16.777  0.2325  0.1044 -0.0382
 1021BOLB   GL424496   7.187   5.270  17.051 -0.2222  0.1771  0.2113
 1021BOLB   C1C24497   7.782   4.951  16.895  0.1019 -0.0279  0.0412
 1021BOLB   C2C24498   8.196   4.749  16.963  0.1150  0.0336  0.1072
 1021BOLB   C3C24499   8.582   4.792  17.074 -0.2755  0.2680 -0.2353
 1021BOLB   C4C24500   8.905   5.036  17.253 -0.1942  0.0177 -0.3327
 1021BOLB   C1D24501   7.632   5.253  17.256 -0.2020 -0.3452  0.0858
 1021BOLB   C2D24502   7.943   5.044  17.343 -0.0595 -0.2554 -0.0673
 1021BOLB   C3D24503   8.313   5.020  17.370 -0.0892  0.2961  0.0618
 1021BOLB   C4D24504   8.606   5.133  17.668  0.0646  0.4546 -0.1499
 1022BOLB   NC124505  22.396  -0.223  28.036  0.0479 -0.5531 -0.1918
 1022BOLB   PO124506  22.742  -0.583  28.155 -0.1871 -0.0403  0.2913
 1022BOLB   GL124507  22.997  -0.777  27.989  0.2221 -0.1146  0.1170
 1022BOLB   GL224508  22.941  -0.852  27.665 -0.3122 -0.1102  0.0228
 1022BOLB   C1A24509  23.300  -1.062  28.163  0.1254 -0.1530 -0.0731
 1022BOLB   C2A24510  23.622  -1.355  28.218  0.2893  0.0266  0.4476
 1022BOLB   C3A24511  23.585  -1.761  28.258 -0.1450 -0.3210 -0.3554
 1022BOLB   C4A24512  23.789  -2.154  28.272 -0.0781 -0.0053  0.2786
 1022BOLB   C1B24513  23.102  -1.252  27.569  0.2670  0.0550  0.0434
 1022BOLB   C2B24514  23.432  -1.566  27.764 -0.0410  0.0967 -0.1828
 1022BOLB   C3B24515  23.800  -1.844  27.792  0.2683 -0.1214  0.1118
 1022BOLB   C4B24516  24.253  -2.077  27.726  0.1487 -0.2044 -0.1963
 1022BOLB   NC224517  24.841  -4.205  29.322  0.0046 -0.0159 -0.0185
 1022BOLB   PO224518  24.835  -4.350  28.991 -0.0011 -0.0584  0.0167
 1022BOLB   GL324519  24.610  -3.951  28.899  0.3858 -0.1490 -0.3617
 1022BOLB   GL424520  24.327  -4.012  28.578 -0.0297  0.1305 -0.1546
 1022BOLB   C1C24521  24.490  -3.531  28.813  0.3153 -0.1470 -0.0758
 1022BOLB   C2C24522  24.170  -3.359  28.549  0.2814 -0.0872  0.2030
 1022BOLB   C3C24523  23.823  -2.948  28.666  0.0610  0.0732  0.2394
 1022BOLB   C4C24524  23.849  -2.496  28.482 -0.2411  0.2927 -0.2205
 1022BOLB   C1D24525  24.554  -3.804  28.347  0.2965  0.2350  0.3974
 1022BOLB   C2D24526  24.693  -3.451  28.333  0.1002 -0.0060 -0.2883
 1022BOLB   C3D24527  25.025  -3.159  28.281 -0.3248  0.1094  0.0650
 1022BOLB   C4D24528  25.023  -2.674  28.226 -0.2158  0.1737 -0.1843
 1023BOLB   NC124529   5.825   2.365  32.286 -0.1566 -0.0461  0.0424
 1023BOLB   PO124530   5.382   2.487  32.047 -0.3374 -0.2277  0.2753
 1023BOLB   GL124531   5.621   2.623  31.874 -0.0194 -0.1592  0.0989
 1023BOLB   GL224532   5.797   2.916  31.998  0.1197 -0.0034  0.4512
 1023BOLB   C1A24533   6.003   2.742  31.596 -0.3802  0.1098  0.1773
 1023BOLB   C2A24534   6.430   2.631  31.434  0.0528  0.3215  0.0941
 1023BOLB   C3A24535   6.827   2.489  31.100 -0.1784  0.3194  0.2334
 1023BOLB   C4A24536   6.890   2.152  30.873 -0.1201 -0.0926  0.1449
 1023BOLB   C1B24537   6.189   3.001  31.935  0.0559 -0.2113  0.3422
 1023BOLB   C2B24538   6.542   2.994  31.771  0.2383 -0.2275 -0.0352
 1023BOLB   C3B24539   6.767   3.094  31.378 -0.2782  0.1322  0.0697
 1023BOLB   C4B24540   7.098   2.968  31.032 -0.1257  0.1561 -0.2190
 1023BOLB   NC224541   5.000   2.582  31.745 -0.2052  0.1075 -0.1292
 1023BOLB   PO224542   4.726   2.667  31.436  0.1156 -0.3175 -0.1255
 1023BOLB   GL324543   5.162   2.541  31.262 -0.3484  0.1053  0.1312
 1023BOLB   GL424544   5.306   2.316  31.538  0.2901  0.1822  0.1767
 1023BOLB   C1C24545   5.374   2.615  30.834  0.1832  0.2206 -0.0990
 1023BOLB   C2C24546   5.761   2.601  30.639 -0.1287  0.4241  0.0034
 1023BOLB   C3C24547   6.144   2.403  30.500 -0.0345  0.2030 -0.4230
 1023BOLB   C4C24548   6.580   2.186  30.512 -0.0222  0.0534 -0.0112
 1023BOLB   C1D24549   5.602   2.714  31.333 -0.0211 -0.0924 -0.1008
 1023BOLB   C2D24550   5.920   2.847  31.102 -0.0242  0.0397 -0.0189
 1023BOLB   C3D24551   6.383   2.956  30.977 -0.0019 -0.1810  0.0212
 1023BOLB   C4D24552   6.701   3.279  30.858  0.0616  0.2634  0.2450
 1024BOLB   NC124553  16.659   5.939  16.583  0.2030 -0.2352 -0.0087
 1024BOLB   PO124554  16.884   6.243  16.936  0.2711  0.1471  0.0816
 1024BOLB   GL124555  16.899   6.492  16.564 -0.0183  0.0301  0.0011
 1024BOLB   GL224556  17.051   6.760  16.593 -0.3167  0.0108  0.2985
 1024BOLB   C1A24557  16.948   6.431  16.078 -0.0105 -0.0142 -0.0591
 1024BOLB   C2A24558  17.155   6.521  15.644  0.2823 -0.0049  0.3000
 1024BOLB   C3A24559  17.306   6.880  15.360 -0.0159  0.3968  0.1579
 1024BOLB   C4A24560  17.539   7.159  15.015  0.1081 -0.3288  0.1679
 1024BOLB   C1B24561  17.131   6.947  16.251  0.0068 -0.0388  0.1980
 1024BOLB   C2B24562  17.011   6.967  15.829 -0.3295 -0.2218 -0.0937
 1024BOLB   C3B24563  16.879   7.234  15.525 -0.0753 -0.0626 -0.2226
 1024BOLB   C4B24564  16.733   7.630  15.385  0.1569  0.0885 -0.1319
 1024BOLB   NC224565  18.509   7.829  12.551 -0.1480 -0.4281  0.0856
 1024BOLB   PO224566  18.224   7.797  12.852 -0.1584 -0.2248 -0.0553
 1024BOLB   GL324567  18.208   7.487  13.208 -0.1507 -0.1875  0.2211
 1024BOLB   GL424568  17.892   7.388  13.350  0.1216  0.2769 -0.1286
 1024BOLB   C1C24569  18.340   7.554  13.684  0.1110 -0.0170  0.0574
 1024BOLB   C2C24570  18.175   7.391  14.036  0.2585 -0.1650 -0.2327
 1024BOLB   C3C24571  17.960   7.392  14.453 -0.1244  0.1783 -0.3055
 1024BOLB   C4C24572  17.848   7.410  14.789  0.1952 -0.2291  0.2199
 1024BOLB   C1D24573  17.916   6.973  13.583  0.0119 -0.1591  0.5332
 1024BOLB   C2D24574  17.916   6.897  14.051  0.1111 -0.2463  0.2063
 1024BOLB   C3D24575  17.654   7.014  14.401  0.0067 -0.0117 -0.1126
 1024BOLB   C4D24576  17.270   6.760  14.736 -0.0277 -0.1216 -0.1251
 1025BOLB   NC124577   8.730   3.446  20.001  0.2177  0.4609  0.0291
 1025BOLB   PO124578   8.549   2.991  19.904 -0.3823  0.0353  0.2171
 1025BOLB   GL124579   8.132   3.169  19.721 -0.0291 -0.2457 -0.0664
 1025BOLB   GL224580   7.910   2.945  19.780 -0.5001  0.0387  0.3119
 1025BOLB   C1A24581   7.762   3.361  19.559 -0.3259  0.1167 -0.1886
 1025BOLB   C2A24582   7.486   3.744  19.534  0.2169 -0.2076  0.1142
 1025BOLB   C3A24583   7.201   4.075  19.700  0.0850  0.1768  0.3977
 1025BOLB   C4A24584   6.903   4.456  19.736 -0.0996 -0.1716 -0.2264
 1025BOLB   C1B24585   7.557   2.858  19.661  0.2460 -0.1834 -0.3036
 1025BOLB   C2B24586   7.208   2.780  19.952  0.1711  0.1603  0.0500
 1025BOLB   C3B24587   6.753   2.766  19.990  0.0056  0.0155  0.0876
 1025BOLB   C4B24588   6.412   3.090  20.285  0.1912 -0.0731  0.0814
 1025BOLB   NC224589   5.357   5.146  18.539 -0.0458  0.0593 -0.1303
 1025BOLB   PO224590   5.016   4.919  18.569  0.0288  0.0128 -0.1589
 1025BOLB   GL324591   5.287   4.747  18.885  0.0476 -0.1258  0.1558
 1025BOLB   GL424592   5.286   4.344  18.804 -0.0224 -0.0115 -0.0182
 1025BOLB   C1C24593   5.509   4.528  19.204 -0.4534 -0.3465  0.0444
 1025BOLB   C2C24594   5.607   4.772  19.594  0.1900  0.2008 -0.1357
 1025BOLB   C3C24595   5.976   4.606  19.807  0.1511  0.0367  0.1195
 1025BOLB   C4C24596   6.408   4.576  19.654 -0.1065 -0.0496 -0.1351
 1025BOLB   C1D24597   5.677   4.619  18.677 -0.3025 -0.2419 -0.0897
 1025BOLB   C2D24598   6.077   4.914  18.849  0.2713 -0.0502  0.0164
 1025BOLB   C3D24599   6.466   4.835  19.127 -0.1153 -0.0667 -0.3416
 1025BOLB   C4D24600   6.501   4.343  19.238  0.2111 -0.2285  0.1617
 1026BOLB   NC124601  16.887  15.410  21.823  0.3776 -0.0079  0.0390
 1026BOLB   PO124602  17.344  15.272  21.859  0.2178  0.2113  0.2078
 1026BOLB   GL124603  17.313  14.999  22.178  0.1013  0.0615  0.1943
 1026BOLB   GL224604  16.968  14.996  22.291 -0.2766 -0.0503 -0.1515
 1026BOLB   C1A24605  17.447  14.743  22.469  0.0845 -0.0333  0.2039
 1026BOLB   C2A24606  17.440  14.344  22.699 -0.2344  0.0979  0.0663
 1026BOLB   C3A24607  17.685  14.203  22.982 -0.0966  0.0810 -0.1249
 1026BOLB   C4A24608  17.902  13.900  23.211  0.0764 -0.1716  0.0057
 1026BOLB   C1B24609  16.960  14.725  22.629 -0.0579  0.1481 -0.0632
 1026BOLB   C2B24610  16.609  14.562  22.754 -0.3109  0.2381 -0.1254
 1026BOLB   C3B24611  16.228  14.360  22.654  0.1409  0.1565  0.0834
 1026BOLB   C4B24612  15.730  14.452  22.768 -0.2568 -0.2195 -0.0506
 1026BOLB   NC224613  18.937  15.789  22.786  0.2460 -0.0634  0.0564
 1026BOLB   PO224614  19.304  15.670  23.044 -0.0134 -0.0869 -0.0833
 1026BOLB   GL324615  19.128  15.385  23.197  0.0436 -0.1373  0.2062
 1026BOLB   GL424616  18.748  15.310  23.078  0.2001  0.0252 -0.3666
 1026BOLB   C1C24617  19.064  14.961  23.339 -0.0641 -0.0675  0.0278
 1026BOLB   C2C24618  18.777  14.630  23.461  0.1605  0.0635  0.2032
 1026BOLB   C3C24619  18.528  14.217  23.512  0.1675  0.1686 -0.1035
 1026BOLB   C4C24620  18.349  13.902  23.285  0.1758  0.1015  0.1273
 1026BOLB   C1D24621  18.472  14.998  23.299 -0.0539 -0.2083  0.1885
 1026BOLB   C2D24622  18.287  14.670  23.548 -0.3214  0.2153 -0.0730
 1026BOLB   C3D24623  17.942  14.661  23.906  0.1118 -0.1996 -0.1737
 1026BOLB   C4D24624  17.687  14.869  24.233  0.1640 -0.0574 -0.0243
 1027BOLB   NC124625  23.047   5.510  20.027 -0.1309 -0.0440 -0.0379
 1027BOLB   PO124626  22.941   5.186  19.635  0.2007 -0.1263 -0.0319
 1027BOLB   GL124627  23.357   5.380  19.638  0.1073 -0.2560  0.1357
 1027BOLB   GL224628  23.601   5.167  19.666  0.2378  0.3111  0.1899
 1027BOLB   C1A24629  23.531   5.761  19.519  0.2514 -0.0686  0.1032
 1027BOLB   C2A24630  23.621   5.875  19.222 -0.2352  0.2935 -0.1478
 1027BOLB   C3A24631  23.908   5.980  18.906 -0.1670  0.0039 -0.1547
 1027BOLB   C4A24632  23.997   5.944  18.414 -0.3347 -0.0533 -0.1048
 1027BOLB   C1B24633  24.009   5.461  19.671  0.1036  0.1819  0.1348
 1027BOLB   C2B24634  24.347   5.762  19.821  0.0377 -0.0810 -0.0552
 1027BOLB   C3B24635  24.463   6.220  19.745 -0.2358  0.3495  0.1758
 1027BOLB   C4B24636  24.283   6.463  19.399 -0.0404  0.0469  0.0142
 1027BOLB   NC224637  25.913   7.075  17.455 -0.0083 -0.1052 -0.0325
 1027BOLB   PO224638  25.743   7.198  17.885 -0.2100  0.2486  0.2233
 1027BOLB   GL324639  25.385   7.019  17.978 -0.0469  0.0174 -0.0005
 1027BOLB   GL424640  25.452   6.880  18.342  0.1504  0.1499  0.2290
 1027BOLB   C1C24641  24.967   6.730  18.126 -0.4723  0.0661 -0.0008
 1027BOLB   C2C24642  24.709   6.561  17.865  0.2264 -0.0511  0.0158
 1027BOLB   C3C24643  24.230   6.400  17.813 -0.0773  0.1903  0.0346
 1027BOLB   C4C24644  23.960   6.242  18.082  0.3126 -0.0292  0.0260
 1027BOLB   C1D24645  25.100   7.019  18.634  0.1543 -0.1952 -0.2572
 1027BOLB   C2D24646  24.696   7.105  18.656  0.2624 -0.1657  0.1999
 1027BOLB   C3D24647  24.375   7.279  18.834  0.4964 -0.1210  0.1344
 1027BOLB   C4D24648  23.946   7.537  18.800 -0.1412  0.0739  0.0413
 1028BOLB   NC124649  13.035  -8.881  26.403 -0.1636  0.0152 -0.1833
 1028BOLB   PO124650  13.186  -8.422  26.289 -0.1965 -0.1156  0.1916
 1028BOLB   GL124651  13.381  -8.057  26.089 -0.1732 -0.1051  0.0470
 1028BOLB   GL224652  13.231  -7.728  26.063 -0.0445 -0.2137  0.0060
 1028BOLB   C1A24653  13.743  -7.625  26.038  0.2433 -0.0781  0.3866
 1028BOLB   C2A24654  13.875  -7.437  25.655 -0.0311 -0.0648 -0.0563
 1028BOLB   C3A24655  14.255  -7.204  25.520  0.0384 -0.0799 -0.2479
 1028BOLB   C4A24656  14.479  -6.964  25.250 -0.3117 -0.2281 -0.1761
 1028BOLB   C1B24657  13.260  -7.351  26.410 -0.0272  0.0284 -0.0550
 1028BOLB   C2B24658  13.443  -6.889  26.579  0.0974  0.1138  0.0162
 1028BOLB   C3B24659  13.523  -6.445  26.571  0.3395  0.2371  0.0432
 1028BOLB   C4B24660  13.586  -6.156  26.885 -0.1661  0.1484 -0.1458
 1028BOLB   NC224661  14.511  -8.678  24.925 -0.0644  0.2365  0.0133
 1028BOLB   PO224662  14.876  -8.657  25.032  0.1666 -0.0507  0.0399
 1028BOLB   GL324663  15.008  -8.333  24.894 -0.1697  0.2736 -0.0182
 1028BOLB   GL424664  15.283  -8.351  24.755  0.0469 -0.2298  0.1995
 1028BOLB   C1C24665  14.971  -7.963  24.704 -0.0894 -0.0800  0.0858
 1028BOLB   C2C24666  14.718  -7.589  24.545  0.0170  0.2878 -0.0645
 1028BOLB   C3C24667  14.444  -7.260  24.513 -0.0306  0.0520 -0.0005
 1028BOLB   C4C24668  14.447  -6.977  24.763  0.0619 -0.0577 -0.0179
 1028BOLB   C1D24669  15.427  -7.895  24.933  0.3168 -0.1253 -0.2382
 1028BOLB   C2D24670  15.235  -7.437  24.827 -0.1067 -0.2119  0.2451
 1028BOLB   C3D24671  14.834  -7.158  24.935 -0.2203  0.1341  0.0011
 1028BOLB   C4D24672  14.904  -6.759  24.970 -0.0348  0.1636 -0.2727
 1029BOLB   NC124673   8.166  -0.766  26.477  0.0393 -0.1316  0.0806
 1029BOLB   PO124674   8.341  -0.511  26.174 -0.2096 -0.2077 -0.2478
 1029BOLB   GL124675   7.918  -0.706  25.983 -0.0819  0.2289  0.1965
 1029BOLB   GL224676   7.717  -0.790  26.165 -0.3199 -0.0763  0.0577
 1029BOLB   C1A24677   7.548  -1.037  25.702  0.0038  0.2288 -0.1388
 1029BOLB   C2A24678   7.035  -1.010  25.579  0.2409  0.3849  0.0377
 1029BOLB   C3A24679   6.845  -1.389  25.410 -0.2809 -0.4732 -0.2657
 1029BOLB   C4A24680   6.478  -1.660  25.448 -0.2098  0.1662 -0.0721
 1029BOLB   C1B24681   7.241  -1.040  26.150  0.0885  0.1090 -0.0948
 1029BOLB   C2B24682   6.953  -1.335  26.429  0.3517 -0.1172 -0.3036
 1029BOLB   C3B24683   6.612  -1.400  26.769  0.1815  0.2407 -0.2469
 1029BOLB   C4B24684   6.562  -1.311  27.183  0.0181 -0.1456  0.3410
 1029BOLB   NC224685   4.998  -2.978  25.784  0.0550  0.0878  0.1615
 1029BOLB   PO224686   4.637  -2.878  25.986  0.2859 -0.2649  0.0262
 1029BOLB   GL324687   4.809  -2.490  25.856 -0.5494 -0.2479 -0.1056
 1029BOLB   GL424688   5.154  -2.432  26.066 -0.0615 -0.1190  0.1183
 1029BOLB   C1C24689   4.915  -2.164  25.609 -0.0123  0.1402 -0.0064
 1029BOLB   C2C24690   5.176  -2.135  25.339 -0.0383  0.1403 -0.0863
 1029BOLB   C3C24691   5.722  -2.156  25.257  0.1597 -0.0502  0.0551
 1029BOLB   C4C24692   6.184  -1.937  25.253 -0.4289  0.0817  0.0030
 1029BOLB   C1D24693   5.102  -1.950  26.014 -0.2937 -0.0740 -0.2274
 1029BOLB   C2D24694   5.197  -1.597  26.128 -0.0999  0.0501  0.1337
 1029BOLB   C3D24695   5.356  -1.177  26.083 -0.1281  0.0129  0.0050
 1029BOLB   C4D24696   5.166  -0.787  26.358 -0.0385  0.2618  0.1034
 1030BOLB   NC124697  24.338   2.624  26.007  0.0845 -0.1539 -0.2583
 1030BOLB   PO124698  24.622   2.284  26.136  0.2293  0.2642 -0.0255
 1030BOLB   GL124699  25.056   2.338  26.093 -0.2084  0.1225  0.5119
 1030BOLB   GL224700  25.210   2.518  26.340 -0.1308  0.1022 -0.2775
 1030BOLB   C1A24701  25.499   2.289  26.067  0.1622 -0.0003 -0.4239
 1030BOLB   C2A24702  25.862   2.384  25.815  0.0210 -0.0848  0.2335
 1030BOLB   C3A24703  26.111   2.245  25.508 -0.2680  0.0964  0.1101
 1030BOLB   C4A24704  26.372   2.087  25.293  0.1273 -0.1549  0.2135
 1030BOLB   C1B24705  25.527   2.470  26.615 -0.4225  0.0225 -0.3808
 1030BOLB   C2B24706  25.804   2.289  26.888 -0.0753 -0.2045 -0.0204
 1030BOLB   C3B24707  26.080   1.939  26.798 -0.0369 -0.0489  0.3598
 1030BOLB   C4B24708  26.462   1.643  26.757  0.0401  0.0527  0.1492
 1030BOLB   NC224709  29.036   3.258  25.412  0.1204  0.0071  0.0992
 1030BOLB   PO224710  28.676   3.215  25.387  0.0526 -0.1263  0.0264
 1030BOLB   GL324711  28.344   2.854  25.361  0.0623 -0.5026 -0.1579
 1030BOLB   GL424712  28.138   3.054  25.110 -0.0765  0.1500  0.4081
 1030BOLB   C1C24713  28.104   2.502  25.321  0.2105  0.2424  0.2522
 1030BOLB   C2C24714  27.624   2.376  25.245  0.2378 -0.0861  0.0454
 1030BOLB   C3C24715  27.210   2.413  25.307 -0.3206  0.0116 -0.1328
 1030BOLB   C4C24716  26.831   2.131  25.401  0.1579  0.0589  0.1454
 1030BOLB   C1D24717  27.758   3.022  25.295  0.0712 -0.1482 -0.0811
 1030BOLB   C2D24718  27.398   2.943  25.347  0.0166  0.1141  0.0889
 1030BOLB   C3D24719  26.967   2.722  25.542 -0.1746  0.0271 -0.2152
 1030BOLB   C4D24720  26.799   2.661  25.811  0.1582  0.0128  0.1818
 1031BOLB   NC124721   6.271  -4.437  21.431 -0.2485 -0.2652  0.2218
 1031BOLB   PO124722   6.339  -4.155  21.188  0.2507 -0.0807  0.0928
 1031BOLB   GL124723   6.592  -3.758  21.054  0.0718  0.1676  0.2061
 1031BOLB   GL224724   6.706  -3.616  21.340 -0.2418  0.4212  0.2122
 1031BOLB   C1A24725   6.601  -3.261  20.958 -0.0532 -0.2191  0.0133
 1031BOLB   C2A24726   6.846  -3.072  21.214 -0.1208 -0.3696 -0.3375
 1031BOLB   C3A24727   7.206  -2.823  21.297  0.1646  0.0756 -0.1729
 1031BOLB   C4A24728   7.408  -2.471  21.469 -0.0006  0.0956 -0.1593
 1031BOLB   C1B24729   6.925  -3.310  21.677  0.0863  0.0849  0.2002
 1031BOLB   C2B24730   7.231  -3.282  21.967  0.0582 -0.2496  0.0402
 1031BOLB   C3B24731   7.535  -2.981  21.882 -0.2313  0.0007  0.2445
 1031BOLB   C4B24732   7.935  -3.033  21.702  0.0337  0.1986  0.3019
 1031BOLB   NC224733  10.228  -2.087  22.429  0.0803  0.0780  0.1073
 1031BOLB   PO224734   9.860  -1.914  22.355 -0.2824  0.0037 -0.2121
 1031BOLB   GL324735   9.557  -1.852  22.067  0.0387  0.1278  0.1445
 1031BOLB   GL424736   9.458  -1.700  21.807 -0.1355 -0.1190  0.0814
 1031BOLB   C1C24737   9.067  -1.996  22.020  0.0698 -0.0392  0.0532
 1031BOLB   C2C24738   8.566  -2.134  22.048 -0.1249 -0.0305 -0.1115
 1031BOLB   C3C24739   8.143  -2.277  21.868 -0.0470  0.1642 -0.0769
 1031BOLB   C4C24740   7.868  -2.399  21.529 -0.1846 -0.0395 -0.1174
 1031BOLB   C1D24741   9.306  -1.928  21.564 -0.2818  0.0064 -0.1812
 1031BOLB   C2D24742   8.935  -2.098  21.344 -0.1899 -0.0684 -0.1883
 1031BOLB   C3D24743   8.726  -2.499  21.178  0.1944 -0.1313 -0.2484
 1031BOLB   C4D24744   8.867  -2.842  21.211  0.1019  0.1461  0.1131
 1032BOLB   NC124745  17.899  -3.343  27.859 -0.2441 -0.0325 -0.1979
 1032BOLB   PO124746  17.699  -3.593  27.693  0.2071 -0.1308 -0.2332
 1032BOLB   GL124747  17.973  -3.903  27.804 -0.3759 -0.1769  0.0976
 1032BOLB   GL224748  18.217  -3.716  27.949  0.0616  0.1259 -0.2894
 1032BOLB   C1A24749  18.090  -4.249  28.057 -0.4481 -0.0126 -0.0790
 1032BOLB   C2A24750  18.224  -4.599  28.302  0.0940 -0.0980  0.2577
 1032BOLB   C3A24751  18.160  -4.537  28.740  0.0685 -0.0098  0.2518
 1032BOLB   C4A24752  18.103  -4.651  29.209 -0.0796 -0.0598  0.1704
 1032BOLB   C1B24753  18.565  -4.055  27.951  0.1052 -0.2107  0.0738
 1032BOLB   C2B24754  18.645  -4.524  28.091 -0.2313  0.2713 -0.0817
 1032BOLB   C3B24755  19.067  -4.728  28.261  0.1180  0.0555  0.1090
 1032BOLB   C4B24756  19.356  -4.563  28.613  0.0996  0.1153  0.2526
 1032BOLB   NC224757  19.224  -6.505  30.596  0.1313 -0.2079  0.0460
 1032BOLB   PO224758  18.941  -6.219  30.770 -0.0263  0.2996 -0.0624
 1032BOLB   GL324759  18.656  -5.878  30.559 -0.0706  0.1886  0.1839
 1032BOLB   GL424760  18.309  -5.961  30.631  0.1378  0.1566  0.0273
 1032BOLB   C1C24761  18.361  -5.713  30.211 -0.0591  0.1313  0.2172
 1032BOLB   C2C24762  18.449  -5.438  29.911 -0.0509  0.0344  0.0573
 1032BOLB   C3C24763  18.308  -4.998  29.882  0.0431 -0.1706 -0.4467
 1032BOLB   C4C24764  18.267  -4.637  29.556  0.1135  0.1490  0.0229
 1032BOLB   C1D24765  18.391  -5.487  30.679 -0.0026 -0.2494 -0.2591
 1032BOLB   C2D24766  18.303  -5.065  30.380  0.2391  0.0747  0.2666
 1032BOLB   C3D24767  17.881  -4.882  30.250 -0.1226 -0.0347  0.1946
 1032BOLB   C4D24768  17.645  -5.019  30.019  0.2021  0.1263 -0.2667
 1033BOLB   NC124769   8.760  -0.105  28.654  0.0467  0.1295 -0.4637
 1033BOLB   PO124770   8.559   0.262  28.466  0.1411 -0.0869 -0.0309
 1033BOLB   GL124771   8.288  -0.164  28.746 -0.1362  0.1321 -0.2105
 1033BOLB   GL224772   8.284  -0.476  28.502  0.0339  0.1132 -0.2341
 1033BOLB   C1A24773   8.289  -0.411  29.149  0.2751 -0.1544  0.1992
 1033BOLB   C2A24774   8.201  -0.782  29.402 -0.1025 -0.5337  0.1104
 1033BOLB   C3A24775   8.004  -1.102  29.458 -0.0433  0.1789  0.2883
 1033BOLB   C4A24776   7.823  -1.575  29.362  0.0654 -0.2327  0.1301
 1033BOLB   C1B24777   8.044  -0.798  28.616  0.2015 -0.1169  0.0649
 1033BOLB   C2B24778   7.811  -0.753  29.027 -0.1147  0.2246  0.0713
 1033BOLB   C3B24779   7.592  -0.846  29.335  0.4298 -0.0629  0.3136
 1033BOLB   C4B24780   7.640  -0.847  29.750 -0.2784 -0.0483  0.4410
 1033BOLB   NC224781   6.966  -3.699  30.600 -0.0090  0.3219  0.0251
 1033BOLB   PO224782   6.929  -3.745  30.114 -0.1154 -0.0257 -0.1164
 1033BOLB   GL324783   6.902  -3.354  29.985  0.1297 -0.0015  0.0518
 1033BOLB   GL424784   6.786  -3.432  29.660  0.0735  0.0966 -0.3736
 1033BOLB   C1C24785   7.141  -3.022  29.960 -0.0862  0.0441  0.3816
 1033BOLB   C2C24786   7.264  -2.715  29.656  0.0752 -0.0531 -0.1963
 1033BOLB   C3C24787   7.530  -2.387  29.577  0.0076 -0.2096 -0.0526
 1033BOLB   C4C24788   7.686  -2.036  29.410  0.0227 -0.2918  0.0760
 1033BOLB   C1D24789   6.799  -3.057  29.454  0.0136 -0.0586  0.2796
 1033BOLB   C2D24790   6.703  -3.032  28.985 -0.3563 -0.1546  0.1104
 1033BOLB   C3D24791   6.884  -3.166  28.648  0.1363  0.1247 -0.2060
 1033BOLB   C4D24792   7.171  -3.585  28.640  0.1465  0.2028  0.0778
 1034BOLB   NC124793  16.648  -4.263  23.586 -0.0506 -0.1008  0.1612
 1034BOLB   PO124794  16.336  -4.133  23.252 -0.3644 -0.0730 -0.0761
 1034BOLB   GL124795  16.360  -4.653  23.383 -0.0433 -0.0059  0.1995
 1034BOLB   GL224796  16.178  -4.708  23.675  0.3498 -0.0538 -0.3334
 1034BOLB   C1A24797  16.484  -5.089  23.387 -0.1536  0.2943  0.1895
 1034BOLB   C2A24798  16.679  -5.513  23.504  0.0757  0.0979 -0.0626
 1034BOLB   C3A24799  16.982  -5.885  23.514 -0.0754 -0.1046 -0.1682
 1034BOLB   C4A24800  17.317  -6.243  23.330  0.3569  0.1591  0.2495
 1034BOLB   C1B24801  16.188  -5.171  23.766 -0.1738 -0.0237  0.4187
 1034BOLB   C2B24802  16.271  -5.463  24.085  0.2528  0.2176 -0.1401
 1034BOLB   C3B24803  16.129  -5.950  24.243  0.1030 -0.0438 -0.0329
 1034BOLB   C4B24804  16.123  -6.318  24.523 -0.1168  0.1616 -0.0123
 1034BOLB   NC224805  17.514  -8.493  23.972  0.2037 -0.0191  0.2625
 1034BOLB   PO224806  17.567  -8.599  23.594 -0.1785  0.0585  0.1051
 1034BOLB   GL324807  17.442  -8.159  23.557  0.1078 -0.3150  0.1480
 1034BOLB   GL424808  17.492  -8.004  23.784 -0.2904 -0.2094  0.1624
 1034BOLB   C1C24809  17.448  -7.674  23.425 -0.2432 -0.2064  0.2433
 1034BOLB   C2C24810  17.516  -7.419  23.237  0.0103 -0.0153 -0.0642
 1034BOLB   C3C24811  17.311  -7.050  23.141  0.2931  0.2153  0.0692
 1034BOLB   C4C24812  17.258  -6.706  23.229 -0.2943 -0.1014 -0.1837
 1034BOLB   C1D24813  17.369  -7.633  23.975  0.1074  0.3101  0.2281
 1034BOLB   C2D24814  17.310  -7.264  24.114 -0.0309 -0.0597  0.1793
 1034BOLB   C3D24815  17.053  -6.996  24.404  0.1404 -0.0715  0.1330
 1034BOLB   C4D24816  16.554  -6.811  24.496  0.3117 -0.1355  0.0564
 1035BOLB   NC124817  11.446  -1.627  29.011  0.2577 -0.0793  0.0234
 1035BOLB   PO124818  11.087  -1.703  28.653  0.0037 -0.0489  0.2409
 1035BOLB   GL124819  10.892  -1.945  29.129  0.1069  0.1024  0.3714
 1035BOLB   GL224820  10.888  -2.222  29.009 -0.1971  0.1096  0.0060
 1035BOLB   C1A24821  10.573  -2.251  29.478 -0.1084  0.1405  0.1876
 1035BOLB   C2A24822  10.512  -2.563  29.816 -0.1519 -0.1083  0.2426
 1035BOLB   C3A24823  10.184  -2.534  30.067  0.0860 -0.4484  0.0393
 1035BOLB   C4A24824   9.704  -2.598  30.083 -0.0216  0.0441  0.1667
 1035BOLB   C1B24825  10.610  -2.449  28.994  0.0105 -0.0961  0.1415
 1035BOLB   C2B24826  10.531  -2.875  28.934 -0.1457 -0.0806  0.0316
 1035BOLB   C3B24827  10.682  -3.350  28.918 -0.0299 -0.2825  0.1126
 1035BOLB   C4B24828  10.629  -3.875  28.950 -0.0798  0.0892 -0.2351
 1035BOLB   NC224829   9.239  -4.317  31.813 -0.0523  0.2699 -0.0240
 1035BOLB   PO224830   8.936  -4.114  31.699  0.0956  0.3301  0.1929
 1035BOLB   GL324831   8.882  -3.743  31.463 -0.2468  0.0091  0.0897
 1035BOLB   GL424832   8.492  -3.819  31.486  0.0479 -0.0474 -0.0496
 1035BOLB   C1C24833   8.969  -3.668  31.028 -0.0496 -0.0143 -0.1444
 1035BOLB   C2C24834   9.225  -3.424  30.807 -0.1477 -0.0134  0.5579
 1035BOLB   C3C24835   9.355  -3.153  30.558  0.0854  0.2980  0.0188
 1035BOLB   C4C24836   9.341  -2.887  30.243  0.2368  0.1698 -0.1639
 1035BOLB   C1D24837   8.523  -3.355  31.314 -0.1477  0.2364  0.0097
 1035BOLB   C2D24838   8.498  -3.007  31.108  0.3205  0.1358 -0.0307
 1035BOLB   C3D24839   8.529  -2.578  30.891 -0.1391 -0.0639 -0.1057
 1035BOLB   C4D24840   8.392  -2.130  30.746  0.0624  0.0707  0.0264
 1036BOLB   NC124841  15.477   8.971  18.711  0.0271  0.0434  0.2762
 1036BOLB   PO124842  15.482   9.394  18.615  0.0344  0.0547 -0.1343
 1036BOLB   GL124843  15.614   9.543  18.213  0.0765  0.0723  0.2613
 1036BOLB   GL224844  15.794   9.778  18.322 -0.1712  0.1002  0.4591
 1036BOLB   C1A24845  15.348   9.906  18.080  0.0607  0.0253  0.0122
 1036BOLB   C2A24846  14.917  10.168  17.920  0.0047  0.0566 -0.0582
 1036BOLB   C3A24847  14.780  10.387  17.526  0.0530 -0.2577 -0.4145
 1036BOLB   C4A24848  14.886  10.379  17.225 -0.1035 -0.3227  0.1657
 1036BOLB   C1B24849  15.855   9.979  17.894 -0.0024 -0.1547  0.1707
 1036BOLB   C2B24850  15.761  10.221  17.484 -0.0718 -0.2847 -0.1488
 1036BOLB   C3B24851  15.918  10.212  16.983 -0.4286  0.2258 -0.1270
 1036BOLB   C4B24852  16.019  10.229  16.596 -0.0973  0.0275 -0.0187
 1036BOLB   NC224853  16.355  11.100  14.640  0.2148 -0.0403 -0.3864
 1036BOLB   PO224854  16.024  10.798  14.841  0.2285  0.0097  0.0925
 1036BOLB   GL324855  15.901  10.612  15.265 -0.0153  0.1009 -0.0607
 1036BOLB   GL424856  16.128  10.819  15.343  0.0764 -0.0045 -0.1728
 1036BOLB   C1C24857  15.628  10.468  15.539 -0.2109  0.3943  0.2311
 1036BOLB   C2C24858  15.371  10.417  15.910 -0.1678 -0.2155 -0.2568
 1036BOLB   C3C24859  15.091  10.498  16.314  0.2471  0.2273 -0.1434
 1036BOLB   C4C24860  15.027  10.453  16.808  0.0003  0.0781  0.0500
 1036BOLB   C1D24861  16.033  10.615  15.808  0.1732 -0.2371  0.5309
 1036BOLB   C2D24862  15.869  10.161  15.960  0.1007 -0.3636  0.2860
 1036BOLB   C3D24863  15.513  10.032  16.339 -0.1589  0.3561  0.1094
 1036BOLB   C4D24864  15.208  10.010  16.609 -0.1180 -0.0551  0.0929
 1037BOLB   NC124865  21.842   7.926  20.488  0.1741  0.1845 -0.0659
 1037BOLB   PO124866  22.113   7.534  20.476  0.0868  0.2387  0.2175
 1037BOLB   GL124867  22.380   7.941  20.486  0.4192  0.0438 -0.1441
 1037BOLB   GL224868  22.595   7.923  20.798  0.3445 -0.0508  0.2535
 1037BOLB   C1A24869  22.696   8.032  20.214 -0.1726  0.0172  0.0132
 1037BOLB   C2A24870  22.949   8.285  19.993  0.0317  0.1130 -0.2661
 1037BOLB   C3A24871  23.357   8.480  19.736  0.2094 -0.0827 -0.0753
 1037BOLB   C4A24872  23.749   8.342  19.668 -0.0749  0.0265 -0.1026
 1037BOLB   C1B24873  22.873   8.289  20.605 -0.1100  0.2229 -0.3340
 1037BOLB   C2B24874  23.003   8.675  20.576 -0.0599 -0.1378  0.0031
 1037BOLB   C3B24875  22.994   9.122  20.442 -0.1000  0.1953 -0.0422
 1037BOLB   C4B24876  23.250   9.548  20.444 -0.2733 -0.0761 -0.0025
 1037BOLB   NC224877  25.381   7.631  17.923  0.2570  0.3772  0.1012
 1037BOLB   PO224878  25.465   7.406  18.275 -0.1102 -0.0031 -0.3195
 1037BOLB   GL324879  24.980   7.502  18.414  0.2202  0.0682  0.0450
 1037BOLB   GL424880  24.847   7.662  18.078  0.0263  0.1975  0.2245
 1037BOLB   C1C24881  24.505   7.619  18.449 -0.2309 -0.1383  0.2510
 1037BOLB   C2C24882  24.167   7.951  18.628 -0.1545 -0.4775 -0.0359
 1037BOLB   C3C24883  24.183   8.188  18.989  0.1338  0.0778 -0.1619
 1037BOLB   C4C24884  23.984   8.109  19.471  0.0377 -0.0945  0.0853
 1037BOLB   C1D24885  24.697   7.172  18.076 -0.0370 -0.2730 -0.0978
 1037BOLB   C2D24886  24.375   6.946  18.328 -0.1236 -0.2603 -0.0908
 1037BOLB   C3D24887  24.128   6.601  18.399  0.2398 -0.2849  0.3480
 1037BOLB   C4D24888  23.725   6.528  18.565  0.0971  0.2205  0.0217
 1038BOLB   NC124889  23.236   4.786  21.831 -0.0736  0.2141  0.2582
 1038BOLB   PO124890  23.479   4.996  21.556  0.0112  0.2140 -0.2064
 1038BOLB   GL124891  23.854   5.027  21.411  0.0783 -0.0956  0.0291
 1038BOLB   GL224892  24.064   5.331  21.419  0.0777  0.0909 -0.0128
 1038BOLB   C1A24893  24.059   4.987  21.024  0.1037 -0.1919  0.1632
 1038BOLB   C2A24894  24.478   4.755  20.937 -0.0199 -0.2884 -0.0224
 1038BOLB   C3A24895  24.878   4.879  21.003 -0.0753 -0.0773  0.0640
 1038BOLB   C4A24896  25.279   4.529  20.986 -0.1005  0.1171 -0.1775
 1038BOLB   C1B24897  24.034   5.518  21.074  0.1699  0.0227 -0.3735
 1038BOLB   C2B24898  24.347   5.676  20.780  0.1872 -0.4180 -0.3242
 1038BOLB   C3B24899  24.715   5.546  20.599 -0.3965  0.0196 -0.2545
 1038BOLB   C4B24900  25.170   5.313  20.614  0.0412 -0.0219 -0.2075
 1038BOLB   NC224901  26.859   5.417  19.197 -0.1634  0.0248  0.2682
 1038BOLB   PO224902  26.908   5.440  19.570  0.0670  0.0093  0.0470
 1038BOLB   GL324903  26.580   5.143  19.614  0.1810  0.4546 -0.1258
 1038BOLB   GL424904  26.302   5.270  19.459  0.0819 -0.3491  0.0470
 1038BOLB   C1C24905  26.500   4.872  19.964  0.1182 -0.1811 -0.0322
 1038BOLB   C2C24906  26.236   4.546  20.271 -0.2065  0.0157  0.3190
 1038BOLB   C3C24907  25.931   4.504  20.525  0.3870 -0.1450  0.1762
 1038BOLB   C4C24908  25.606   4.500  20.606 -0.1532 -0.3629  0.2513
 1038BOLB   C1D24909  25.889   5.153  19.519  0.1089  0.0863  0.1706
 1038BOLB   C2D24910  25.452   5.051  19.714 -0.0842  0.1471 -0.0454
 1038BOLB   C3D24911  25.161   4.958  19.999 -0.1489 -0.2090 -0.2062
 1038BOLB   C4D24912  24.910   4.830  20.372  0.0686  0.2598 -0.3000
 1039BOLB   NC124913  18.932  -7.743  27.055 -0.1248 -0.0019 -0.0537
 1039BOLB   PO124914  19.268  -7.630  26.736  0.0983 -0.0554 -0.1009
 1039BOLB   GL124915  19.261  -7.286  26.549  0.0202  0.0602 -0.0454
 1039BOLB   GL224916  19.356  -6.989  26.741 -0.3210  0.0767 -0.0042
 1039BOLB   C1A24917  19.126  -7.141  26.240 -0.0356  0.0142  0.0900
 1039BOLB   C2A24918  18.828  -6.822  26.078 -0.3665 -0.3362 -0.1315
 1039BOLB   C3A24919  18.643  -6.480  26.148  0.0836  0.1223 -0.2569
 1039BOLB   C4A24920  18.465  -6.091  26.195 -0.1630  0.0200  0.1689
 1039BOLB   C1B24921  19.166  -6.671  26.523 -0.2271  0.1104  0.0218
 1039BOLB   C2B24922  19.067  -6.377  26.481  0.0919 -0.1612 -0.1485
 1039BOLB   C3B24923  19.111  -5.943  26.416  0.0995  0.1700 -0.0825
 1039BOLB   C4B24924  18.882  -5.514  26.294 -0.1038  0.1007  0.1561
 1039BOLB   NC224925  18.797  -3.707  26.059  0.0531  0.2380 -0.3433
 1039BOLB   PO224926  18.489  -3.616  25.630 -0.1854 -0.0012 -0.0451
 1039BOLB   GL324927  18.454  -4.040  25.741  0.1434  0.0303  0.1275
 1039BOLB   GL424928  18.847  -4.171  25.784 -0.0710 -0.1423 -0.1479
 1039BOLB   C1C24929  18.522  -4.499  25.734  0.0890 -0.0872 -0.1796
 1039BOLB   C2C24930  18.513  -4.876  25.908  0.0076  0.1276  0.0385
 1039BOLB   C3C24931  18.389  -5.214  26.139  0.0259 -0.2490 -0.1802
 1039BOLB   C4C24932  18.307  -5.642  26.203  0.2315 -0.0141  0.0666
 1039BOLB   C1D24933  19.217  -4.270  25.545 -0.2177 -0.0729 -0.2456
 1039BOLB   C2D24934  19.496  -4.499  25.824  0.2454  0.0257  0.4392
 1039BOLB   C3D24935  19.742  -4.812  25.804  0.0062 -0.1409  0.1223
 1039BOLB   C4D24936  19.855  -5.177  25.860 -0.2126 -0.0401 -0.0784
 1040BOLB   NC124937  22.256  -0.677  27.943 -0.5177  0.1482  0.1944
 1040BOLB   PO124938  22.252  -0.522  28.426  0.0973 -0.0066 -0.0096
 1040BOLB   GL124939  22.561  -0.619  28.710 -0.1449 -0.1571 -0.2938
 1040BOLB   GL224940  22.581  -0.619  29.041 -0.0214 -0.0334  0.0106
 1040BOLB   C1A24941  22.485  -1.104  28.848  0.1049  0.2074  0.0996
 1040BOLB   C2A24942  22.859  -1.353  28.976  0.2291  0.0445 -0.1979
 1040BOLB   C3A24943  23.082  -1.701  29.119 -0.3993 -0.1862  0.0464
 1040BOLB   C4A24944  23.255  -2.160  29.129  0.1723 -0.1590  0.2574
 1040BOLB   C1B24945  22.741  -0.982  29.335  0.2769 -0.2445 -0.3970
 1040BOLB   C2B24946  22.899  -1.361  29.545  0.0830  0.3658  0.3546
 1040BOLB   C3B24947  22.826  -1.745  29.659 -0.2688  0.1529  0.0105
 1040BOLB   C4B24948  23.142  -2.158  29.620  0.0302 -0.0234 -0.1333
 1040BOLB   NC224949  24.868  -3.278  30.701  0.1024  0.0013  0.3302
 1040BOLB   PO224950  24.487  -3.617  30.732  0.0973  0.0378 -0.1017
 1040BOLB   GL324951  24.105  -3.443  30.563 -0.0785 -0.2124  0.1997
 1040BOLB   GL424952  24.223  -3.177  30.279  0.1393 -0.1244 -0.0230
 1040BOLB   C1C24953  23.709  -3.395  30.303 -0.2072 -0.0784 -0.0359
 1040BOLB   C2C24954  23.614  -3.193  29.899  0.1707  0.1210  0.0459
 1040BOLB   C3C24955  23.537  -2.896  29.632  0.1212 -0.1140 -0.3028
 1040BOLB   C4C24956  23.465  -2.550  29.409  0.0397  0.1291 -0.0346
 1040BOLB   C1D24957  24.034  -2.902  30.022 -0.0027 -0.3586  0.1834
 1040BOLB   C2D24958  23.688  -2.660  30.150 -0.3838  0.0548  0.0909
 1040BOLB   C3D24959  23.367  -2.278  30.066  0.1043  0.1410 -0.3356
 1040BOLB   C4D24960  23.344  -1.863  30.028 -0.0445 -0.1051 -0.1456
 1041BOLB   NC124961  17.326  -9.061  23.540 -0.4756 -0.1747  0.1607
 1041BOLB   PO124962  17.124  -8.834  23.913  0.1874 -0.1899  0.2121
 1041BOLB   GL124963  17.062  -8.302  23.813  0.2897 -0.1544  0.0008
 1041BOLB   GL224964  16.908  -8.188  24.056  0.0865  0.0071 -0.1332
 1041BOLB   C1A24965  16.958  -7.816  23.784  0.2287  0.1181  0.1014
 1041BOLB   C2A24966  16.966  -7.431  23.791  0.0240 -0.3226 -0.0613
 1041BOLB   C3A24967  16.930  -6.992  23.792  0.3695  0.1378  0.0104
 1041BOLB   C4A24968  16.807  -6.754  23.395  0.0251 -0.0285 -0.2048
 1041BOLB   C1B24969  16.517  -7.997  24.069 -0.1348  0.0423  0.0175
 1041BOLB   C2B24970  16.251  -7.660  23.973  0.1090 -0.2948  0.2280
 1041BOLB   C3B24971  16.279  -7.269  24.026 -0.1515 -0.1351 -0.2681
 1041BOLB   C4B24972  16.674  -7.207  24.154  0.2993  0.1068 -0.3249
 1041BOLB   NC224973  16.394  -8.823  23.239 -0.0187  0.0557  0.0882
 1041BOLB   PO224974  16.093  -8.451  23.376 -0.3092  0.2026 -0.2282
 1041BOLB   GL324975  16.061  -8.009  23.456  0.2157 -0.1268 -0.1134
 1041BOLB   GL424976  16.389  -8.039  23.532 -0.2530  0.2161  0.1239
 1041BOLB   C1C24977  16.094  -7.587  23.488  0.3000 -0.3621  0.4304
 1041BOLB   C2C24978  15.925  -7.160  23.347 -0.0962  0.0724 -0.0952
 1041BOLB   C3C24979  16.153  -6.829  23.271  0.0842 -0.0098 -0.0204
 1041BOLB   C4C24980  16.485  -6.703  23.137 -0.0663 -0.1812 -0.2297
 1041BOLB   C1D24981  16.579  -7.657  23.407 -0.0337 -0.0084 -0.2580
 1041BOLB   C2D24982  16.566  -7.230  23.395  0.2686  0.1487 -0.1097
 1041BOLB   C3D24983  16.393  -6.906  23.676  0.0783  0.0364  0.1352
 1041BOLB   C4D24984  16.619  -6.656  23.978 -0.2690  0.2669 -0.1423
 1042BOLB   NC124985   7.893   5.020  23.692  0.0961 -0.0119 -0.4252
 1042BOLB   PO124986   7.766   5.420  23.437  0.2028 -0.2383 -0.2100
 1042BOLB   GL124987   7.484   5.467  23.196 -0.0227 -0.0019  0.0487
 1042BOLB   GL224988   7.547   5.761  22.928 -0.0184  0.2042  0.1568
 1042BOLB   C1A24989   7.083   5.609  23.054  0.1376  0.1926 -0.1275
 1042BOLB   C2A24990   6.733   5.797  22.869  0.0137 -0.1739  0.0128
 1042BOLB   C3A24991   6.253   5.902  22.776 -0.2649 -0.1400 -0.0639
 1042BOLB   C4A24992   5.967   6.266  22.976 -0.0202  0.1859 -0.0996
 1042BOLB   C1B24993   7.156   5.942  22.590 -0.1929 -0.1953 -0.0692
 1042BOLB   C2B24994   6.729   6.002  22.370  0.0106  0.0536 -0.2594
 1042BOLB   C3B24995   6.394   5.993  22.286  0.0899 -0.1574  0.3701
 1042BOLB   C4B24996   6.076   5.925  21.904 -0.1553 -0.1131  0.2427
 1042BOLB   NC224997   3.598   7.126  23.546 -0.1811 -0.2307 -0.3092
 1042BOLB   PO224998   3.828   6.759  23.318 -0.0988 -0.0131  0.1752
 1042BOLB   GL324999   4.289   6.754  23.488 -0.1760  0.1395 -0.2618
 1042BOLB   GL425000   4.535   6.806  23.232  0.3177  0.1913 -0.2526
 1042BOLB   C1C25001   4.682   6.704  23.680  0.0101  0.1158  0.1415
 1042BOLB   C2C25002   4.940   6.516  23.501  0.0473  0.0709  0.1147
 1042BOLB   C3C25003   5.339   6.322  23.461 -0.3214 -0.0317 -0.1508
 1042BOLB   C4C25004   5.720   6.392  23.241 -0.3752 -0.0716  0.1272
 1042BOLB   C1D25005   5.010   6.900  23.105 -0.0172 -0.0530  0.3542
 1042BOLB   C2D25006   5.274   6.844  22.781  0.2168  0.4039  0.2421
 1042BOLB   C3D25007   5.201   6.453  22.521  0.0903 -0.0401 -0.0228
 1042BOLB   C4D25008   4.863   6.215  22.219  0.1081 -0.1166  0.0192
 1043BOLB   NC125009  20.337  -8.684  19.735  0.1167 -0.0665  0.2204
 1043BOLB   PO125010  20.422  -8.424  20.011  0.1791 -0.0181  0.4065
 1043BOLB   GL125011  20.504  -8.122  19.813 -0.0827 -0.1987 -0.1064
 1043BOLB   GL225012  20.266  -7.743  19.783 -0.5791  0.0157  0.1734
 1043BOLB   C1A25013  20.424  -8.055  19.363  0.0801 -0.0110 -0.1008
 1043BOLB   C2A25014  20.376  -7.723  19.037 -0.0852 -0.2532  0.0783
 1043BOLB   C3A25015  20.511  -7.624  18.585  0.1169  0.0509 -0.0007
 1043BOLB   C4A25016  20.629  -7.650  18.181  0.0106  0.2875  0.0888
 1043BOLB   C1B25017  20.065  -7.772  19.491  0.1226  0.2189 -0.0439
 1043BOLB   C2B25018  19.806  -7.557  19.172 -0.6827 -0.0345  0.0971
 1043BOLB   C3B25019  19.988  -7.246  18.889  0.3834  0.0223 -0.0661
 1043BOLB   C4B25020  19.964  -7.071  18.581 -0.3250 -0.1336 -0.1592
 1043BOLB   NC225021  20.718  -9.907  16.601  0.0900 -0.2409 -0.0727
 1043BOLB   PO225022  20.999  -9.595  16.780  0.3390 -0.1175 -0.1433
 1043BOLB   GL325023  20.898  -9.159  16.844  0.1373 -0.2926  0.0039
 1043BOLB   GL425024  21.175  -8.983  16.940  0.1258 -0.0711  0.0424
 1043BOLB   C1C25025  20.741  -8.733  17.032 -0.2824  0.2590 -0.0686
 1043BOLB   C2C25026  20.790  -8.258  17.149  0.0145 -0.2401 -0.2127
 1043BOLB   C3C25027  20.770  -7.905  17.342 -0.0063 -0.1143  0.0991
 1043BOLB   C4C25028  20.748  -7.968  17.860  0.2603  0.2280 -0.2118
 1043BOLB   C1D25029  21.250  -8.613  16.835  0.2497  0.0967  0.0074
 1043BOLB   C2D25030  21.229  -8.163  16.983  0.2466  0.2569 -0.1600
 1043BOLB   C3D25031  21.165  -7.905  16.742  0.0788  0.0637 -0.1003
 1043BOLB   C4D25032  20.906  -7.719  16.409 -0.3067  0.2607  0.0596
 1044BOLB   NC125033  11.510   6.957  31.957  0.1166 -0.3203 -0.0345
 1044BOLB   PO125034  11.817   6.760  32.151 -0.1159  0.2251  0.0070
 1044BOLB   GL125035  11.652   6.901  32.467  0.1183  0.0522  0.0550
 1044BOLB   GL225036  11.744   7.214  32.564 -0.1827  0.1349 -0.2781
 1044BOLB   C1A25037  11.592   6.891  32.915 -0.2616 -0.0928  0.0107
 1044BOLB   C2A25038  11.374   7.197  33.304  0.0461  0.1843 -0.1720
 1044BOLB   C3A25039  11.317   7.104  33.743  0.3675 -0.0486  0.3533
 1044BOLB   C4A25040  11.138   7.249  34.106 -0.0753  0.0050  0.2625
 1044BOLB   C1B25041  11.608   7.577  32.876  0.0464  0.1029  0.0827
 1044BOLB   C2B25042  11.471   7.677  33.368  0.2173  0.1268  0.0604
 1044BOLB   C3B25043  11.313   7.667  33.719 -0.0022  0.0763  0.1390
 1044BOLB   C4B25044  10.956   7.809  33.907 -0.1610  0.2118 -0.1496
 1044BOLB   NC225045  10.031   8.312  36.170  0.0361 -0.0291  0.0919
 1044BOLB   PO225046  10.442   8.075  36.150 -0.1534  0.0183  0.0065
 1044BOLB   GL325047  10.680   7.761  35.954  0.0570 -0.0413 -0.0841
 1044BOLB   GL425048  10.625   7.501  35.900  0.2495 -0.1727 -0.1062
 1044BOLB   C1C25049  10.998   7.619  35.676 -0.1700 -0.0183 -0.2934
 1044BOLB   C2C25050  11.055   7.571  35.211  0.3391  0.3037 -0.0799
 1044BOLB   C3C25051  11.111   7.428  34.890  0.0474  0.0370 -0.1087
 1044BOLB   C4C25052  11.104   7.288  34.522 -0.2225  0.1727  0.3339
 1044BOLB   C1D25053  10.579   7.379  35.456  0.0483  0.0852 -0.0665
 1044BOLB   C2D25054  10.582   7.390  35.052  0.1659  0.1243  0.2792
 1044BOLB   C3D25055  10.581   7.436  34.560  0.1907 -0.0847  0.1736
 1044BOLB   C4D25056  10.672   7.484  34.204 -0.1546 -0.1009  0.2264
 1045BOLB   NC125057  10.314   9.588  21.640  0.2631  0.3266 -0.0722
 1045BOLB   PO125058  10.689   9.551  21.532  0.0897  0.1888  0.0183
 1045BOLB   GL125059  10.413   9.816  21.210  0.0589 -0.1066  0.3047
 1045BOLB   GL225060  10.551  10.111  21.174  0.0663 -0.2063 -0.0970
 1045BOLB   C1A25061  10.019  10.017  21.242 -0.0446  0.1924 -0.1111
 1045BOLB   C2A25062   9.859  10.396  21.418  0.0819 -0.0437 -0.1196
 1045BOLB   C3A25063   9.673  10.775  21.527  0.0029 -0.1379  0.3402
 1045BOLB   C4A25064   9.547  11.162  21.391 -0.1700 -0.2684  0.0387
 1045BOLB   C1B25065  10.475  10.498  21.194  0.0264 -0.0743  0.2528
 1045BOLB   C2B25066  10.469  10.839  20.962 -0.3181  0.0669  0.1118
 1045BOLB   C3B25067  10.205  11.138  20.897  0.0610 -0.1920 -0.3469
 1045BOLB   C4B25068   9.823  11.355  21.028 -0.1851  0.0668 -0.0622
 1045BOLB   NC225069   8.029  13.388  21.042 -0.0212 -0.1328 -0.0675
 1045BOLB   PO225070   7.904  12.931  21.315  0.2097 -0.1107  0.4755
 1045BOLB   GL325071   8.025  12.541  21.581  0.0959  0.2599 -0.0761
 1045BOLB   GL425072   7.860  12.196  21.413 -0.1802 -0.1891 -0.1844
 1045BOLB   C1C25073   8.394  12.391  21.848 -0.1611  0.0881  0.3431
 1045BOLB   C2C25074   8.650  12.058  21.744 -0.3488  0.0659  0.1302
 1045BOLB   C3C25075   9.077  11.838  21.704 -0.3462  0.0526  0.0719
 1045BOLB   C4C25076   9.215  11.382  21.590 -0.1881 -0.0861  0.0585
 1045BOLB   C1D25077   8.172  11.992  21.719  0.2927  0.0981 -0.0367
 1045BOLB   C2D25078   8.374  11.741  22.057 -0.0423  0.2178  0.1087
 1045BOLB   C3D25079   8.740  11.561  22.031 -0.2661  0.2941  0.2174
 1045BOLB   C4D25080   9.008  11.248  22.342 -0.0643  0.2589 -0.0020
 1046BOLB   NC125081  16.882   7.195  17.815 -0.2424  0.2086  0.1312
 1046BOLB   PO125082  17.217   7.346  17.486 -0.2973  0.1048 -0.2398
 1046BOLB   GL125083  17.383   7.822  17.527  0.0055 -0.3245 -0.0529
 1046BOLB   GL225084  17.704   7.847  17.556 -0.2031 -0.1739  0.2190
 1046BOLB   C1A25085  17.398   8.114  17.255 -0.3874 -0.1760  0.0483
 1046BOLB   C2A25086  17.405   8.464  16.995  0.0998  0.3694  0.1004
 1046BOLB   C3A25087  17.471   8.770  16.656 -0.3451  0.0595 -0.1380
 1046BOLB   C4A25088  17.681   9.025  16.445 -0.1851  0.0876  0.3616
 1046BOLB   C1B25089  17.899   8.184  17.346  0.1071 -0.0731 -0.2498
 1046BOLB   C2B25090  17.901   8.307  16.971  0.0124 -0.3164 -0.2981
 1046BOLB   C3B25091  18.061   8.692  16.681 -0.1914  0.2281  0.0211
 1046BOLB   C4B25092  18.202   9.019  16.424  0.0661  0.2823 -0.3724
 1046BOLB   NC225093  18.289  10.908  15.321 -0.1465 -0.1813  0.1318
 1046BOLB   PO225094  18.312  11.294  15.514  0.1330 -0.3283  0.1342
 1046BOLB   GL325095  18.078  11.110  15.818 -0.0819  0.0706 -0.2697
 1046BOLB   GL425096  18.389  10.970  15.926  0.1346  0.1135 -0.3547
 1046BOLB   C1C25097  17.998  10.659  16.028 -0.3063  0.2653 -0.1723
 1046BOLB   C2C25098  18.175  10.220  16.172 -0.1579 -0.2466 -0.1366
 1046BOLB   C3C25099  18.149   9.773  16.378 -0.1092 -0.1266 -0.2332
 1046BOLB   C4C25100  17.777   9.455  16.348  0.1414 -0.2617 -0.1589
 1046BOLB   C1D25101  18.609  10.685  16.306 -0.1652 -0.2768  0.0847
 1046BOLB   C2D25102  18.951  10.409  16.522  0.0423  0.1728 -0.0277
 1046BOLB   C3D25103  19.135   9.997  16.708  0.2118 -0.0346  0.4729
 1046BOLB   C4D25104  19.568   9.708  16.683  0.2494 -0.1748  0.1707
 1047BOLB   NC125105  23.235   3.044  30.448  0.2586 -0.0049 -0.1652
 1047BOLB   PO125106  23.494   3.263  30.217  0.2046 -0.3872 -0.2236
 1047BOLB   GL125107  23.835   3.290  30.564 -0.1097  0.0442  0.3343
 1047BOLB   GL225108  23.984   3.584  30.657 -0.0202 -0.4482 -0.2443
 1047BOLB   C1A25109  24.062   3.136  30.883  0.1001  0.2291 -0.2309
 1047BOLB   C2A25110  24.209   2.851  31.315  0.0881 -0.0983 -0.0272
 1047BOLB   C3A25111  24.462   2.753  31.659 -0.0768 -0.0527  0.0996
 1047BOLB   C4A25112  24.615   2.522  32.154  0.1067  0.1086 -0.0815
 1047BOLB   C1B25113  24.418   3.627  30.808 -0.1947 -0.2087 -0.1686
 1047BOLB   C2B25114  24.627   3.960  30.946  0.0267 -0.1887  0.1230
 1047BOLB   C3B25115  25.061   4.170  30.947  0.0186 -0.0583 -0.1472
 1047BOLB   C4B25116  25.419   4.385  30.822 -0.1052 -0.0396  0.3771
 1047BOLB   NC225117  24.814   1.586  34.111  0.0061 -0.3704  0.2595
 1047BOLB   PO225118  25.036   2.000  34.123  0.0110  0.0492  0.1945
 1047BOLB   GL325119  24.614   2.079  33.975  0.0269  0.0280 -0.1086
 1047BOLB   GL425120  24.437   2.341  34.044  0.0422  0.0571  0.0805
 1047BOLB   C1C25121  24.326   2.105  33.629  0.0047 -0.2222  0.1201
 1047BOLB   C2C25122  24.293   2.198  33.254  0.1654  0.0871 -0.1463
 1047BOLB   C3C25123  24.410   2.115  32.854 -0.0364  0.3449  0.1851
 1047BOLB   C4C25124  24.486   2.285  32.468  0.0597 -0.0542  0.0261
 1047BOLB   C1D25125  24.378   2.604  33.605 -0.1200  0.1729 -0.0860
 1047BOLB   C2D25126  23.943   2.763  33.387  0.0635 -0.0328  0.0119
 1047BOLB   C3D25127  23.724   2.438  33.071 -0.2636 -0.1749  0.0492
 1047BOLB   C4D25128  23.415   2.103  33.155  0.0945  0.0136 -0.4978
 1048BOLB   NC125129  16.706   0.208  18.951 -0.0428 -0.0297 -0.3434
 1048BOLB   PO125130  16.535   0.580  18.708  0.2530  0.1137 -0.1423
 1048BOLB   GL125131  16.839   0.532  18.380 -0.2354  0.2596  0.1843
 1048BOLB   GL225132  16.719   0.316  18.076  0.0013 -0.1004  0.1867
 1048BOLB   C1A25133  17.182   0.312  18.206 -0.1166 -0.1632 -0.0415
 1048BOLB   C2A25134  17.640   0.463  18.073 -0.1027 -0.1779  0.0456
 1048BOLB   C3A25135  17.869   0.191  18.089 -0.3557  0.0224 -0.2879
 1048BOLB   C4A25136  18.312  -0.047  18.116  0.1627  0.0078  0.0212
 1048BOLB   C1B25137  16.853   0.008  17.908  0.1205  0.0195  0.2633
 1048BOLB   C2B25138  17.192  -0.082  17.704 -0.1379 -0.2330 -0.1948
 1048BOLB   C3B25139  17.391  -0.275  17.339 -0.1832 -0.2087  0.2597
 1048BOLB   C4B25140  17.426  -0.611  17.177  0.2352 -0.5102 -0.0404
 1048BOLB   NC225141  19.350  -0.028  20.316 -0.0151 -0.1088  0.0371
 1048BOLB   PO225142  19.100   0.332  20.173 -0.1483  0.0687 -0.3936
 1048BOLB   GL325143  19.164   0.034  19.814  0.0439 -0.0298 -0.1071
 1048BOLB   GL425144  19.352   0.321  19.735 -0.1007 -0.2740  0.1946
 1048BOLB   C1C25145  19.019  -0.268  19.405 -0.1186 -0.0623  0.2999
 1048BOLB   C2C25146  18.773  -0.519  19.168  0.0816  0.0922 -0.1520
 1048BOLB   C3C25147  18.655  -0.439  18.652 -0.4909  0.2190 -0.0773
 1048BOLB   C4C25148  18.317  -0.443  18.374  0.0385 -0.3104 -0.0650
 1048BOLB   C1D25149  19.104   0.330  19.304  0.1588  0.1457 -0.1617
 1048BOLB   C2D25150  19.224   0.731  19.063  0.0799 -0.0780  0.0879
 1048BOLB   C3D25151  18.972   0.894  18.712 -0.2028  0.0968  0.4824
 1048BOLB   C4D25152  18.642   0.925  18.329  0.1748  0.0014  0.3737
 1049BOLB   NC125153  15.851  -6.350  11.270  0.1207 -0.2128 -0.2080
 1049BOLB   PO125154  16.115  -6.270  11.567  0.1195  0.0657  0.1227
 1049BOLB   GL125155  16.198  -5.923  11.906 -0.0572  0.2298  0.2904
 1049BOLB   GL225156  16.156  -5.527  11.896 -0.0189  0.1730  0.0652
 1049BOLB   C1A25157  16.378  -5.963  12.312  0.2802 -0.3978 -0.0365
 1049BOLB   C2A25158  16.832  -6.059  12.529  0.0696 -0.2130 -0.1085
 1049BOLB   C3A25159  17.058  -6.300  12.853  0.1324 -0.3135  0.1037
 1049BOLB   C4A25160  17.161  -6.444  13.339  0.1684 -0.0138 -0.0068
 1049BOLB   C1B25161  15.962  -5.498  12.340 -0.0918  0.0129 -0.2582
 1049BOLB   C2B25162  16.198  -5.206  12.734  0.4098 -0.2370  0.0497
 1049BOLB   C3B25163  15.993  -5.146  13.210 -0.1186 -0.2854  0.2623
 1049BOLB   C4B25164  15.604  -5.144  13.423  0.2262  0.2223  0.1269
 1049BOLB   NC225165  15.089  -8.013  13.401  0.1715 -0.0245  0.0316
 1049BOLB   PO225166  15.217  -7.511  13.228 -0.1868  0.0271  0.0543
 1049BOLB   GL325167  15.534  -7.332  13.323 -0.1495 -0.0619  0.0003
 1049BOLB   GL425168  15.777  -7.385  13.075  0.0877  0.2259 -0.0121
 1049BOLB   C1C25169  15.725  -7.326  13.640 -0.0502  0.1168  0.0531
 1049BOLB   C2C25170  16.229  -7.075  13.692 -0.1835 -0.1659 -0.0178
 1049BOLB   C3C25171  16.720  -7.018  13.694  0.0346  0.1624 -0.0387
 1049BOLB   C4C25172  16.924  -6.746  13.542 -0.1680 -0.3051 -0.1145
 1049BOLB   C1D25173  16.186  -7.319  13.255 -0.0700  0.2413  0.1605
 1049BOLB   C2D25174  16.461  -6.936  13.266  0.1661 -0.0475 -0.1509
 1049BOLB   C3D25175  16.633  -6.556  13.187  0.0519 -0.1171 -0.0562
 1049BOLB   C4D25176  16.808  -6.125  13.255 -0.0103  0.4216  0.0010
 1050BOLB   NC125177   5.638  12.260  26.485 -0.4091  0.2799 -0.1598
 1050BOLB   PO125178   5.673  12.203  26.966 -0.1708  0.2982  0.1023
 1050BOLB   GL125179   6.076  12.178  27.162 -0.3741  0.1775  0.1846
 1050BOLB   GL225180   5.935  12.166  27.435 -0.2840 -0.1846 -0.0413
 1050BOLB   C1A25181   6.616  12.066  27.194  0.0273 -0.0933  0.0379
 1050BOLB   C2A25182   6.917  11.826  27.088 -0.0170  0.4235 -0.1995
 1050BOLB   C3A25183   7.380  11.686  26.903 -0.1574 -0.0955 -0.0267
 1050BOLB   C4A25184   7.771  11.608  27.042 -0.0478  0.1224  0.1881
 1050BOLB   C1B25185   6.249  11.852  27.477  0.3072  0.1167 -0.0956
 1050BOLB   C2B25186   6.603  11.606  27.388  0.0440 -0.0124 -0.0850
 1050BOLB   C3B25187   6.839  11.271  27.128  0.1370  0.0911  0.0649
 1050BOLB   C4B25188   7.145  10.940  26.981  0.2050  0.2466  0.1120
 1050BOLB   NC225189   9.528   9.853  26.942  0.2997  0.0925 -0.4612
 1050BOLB   PO225190   9.618   9.978  26.541 -0.2170  0.1665  0.2273
 1050BOLB   GL325191   9.205  10.078  26.572  0.2170  0.1567 -0.1511
 1050BOLB   GL425192   8.911   9.950  26.658 -0.1219  0.0739 -0.3405
 1050BOLB   C1C25193   8.977  10.458  26.585 -0.0267  0.1315  0.0685
 1050BOLB   C2C25194   8.665  10.711  26.481 -0.1834 -0.1798 -0.0935
 1050BOLB   C3C25195   8.488  11.164  26.564 -0.0461 -0.0100 -0.0825
 1050BOLB   C4C25196   8.126  11.387  26.856  0.0075  0.2825  0.3219
 1050BOLB   C1D25197   8.445  10.125  26.438 -0.1133 -0.1062 -0.1820
 1050BOLB   C2D25198   8.185  10.557  26.308  0.0980 -0.1354 -0.2045
 1050BOLB   C3D25199   7.816  10.610  25.966  0.1618 -0.1145 -0.1918
 1050BOLB   C4D25200   7.377  10.730  25.867  0.2643 -0.0924  0.2196
 1051BOLB   NC125201  10.365  10.832  25.790 -0.1398 -0.1252  0.3505
 1051BOLB   PO125202  10.080  10.624  26.016 -0.0660  0.2057 -0.1444
 1051BOLB   GL125203   9.823  10.924  25.784 -0.0966  0.0366 -0.0826
 1051BOLB   GL225204   9.733  11.262  25.910 -0.0135  0.0480  0.1596
 1051BOLB   C1A25205   9.394  10.926  25.728 -0.0115  0.3935 -0.0126
 1051BOLB   C2A25206   9.043  11.210  25.754 -0.2121 -0.2317  0.2713
 1051BOLB   C3A25207   8.780  11.503  25.471 -0.0617  0.1964  0.2373
 1051BOLB   C4A25208   8.495  11.827  25.358 -0.0075 -0.1217  0.0328
 1051BOLB   C1B25209   9.336  11.492  26.045 -0.1344  0.0613  0.2557
 1051BOLB   C2B25210   9.173  11.770  25.705 -0.1160 -0.0071  0.1538
 1051BOLB   C3B25211   8.946  12.050  25.502  0.2349  0.0829 -0.2382
 1051BOLB   C4B25212   8.557  12.258  25.649  0.1687  0.1229 -0.0165
 1051BOLB   NC225213   7.014  13.752  25.370 -0.0558  0.2141 -0.2510
 1051BOLB   PO225214   6.814  13.508  25.788 -0.0851 -0.2546 -0.0047
 1051BOLB   GL325215   7.097  13.227  25.683  0.2097 -0.1558 -0.3915
 1051BOLB   GL425216   6.963  13.011  25.546  0.2079  0.1541 -0.0674
 1051BOLB   C1C25217   7.448  13.138  25.769 -0.0221 -0.0292 -0.1115
 1051BOLB   C2C25218   7.595  12.752  25.532  0.1848  0.5291  0.2872
 1051BOLB   C3C25219   7.884  12.412  25.412  0.0199 -0.0263  0.0687
 1051BOLB   C4C25220   8.208  12.087  25.270 -0.0107 -0.0782  0.0777
 1051BOLB   C1D25221   7.125  12.757  25.830 -0.1291  0.1712  0.0767
 1051BOLB   C2D25222   7.473  12.590  26.006  0.3178 -0.0186  0.1097
 1051BOLB   C3D25223   7.633  12.581  26.303  0.0322 -0.4098  0.0220
 1051BOLB   C4D25224   7.974  12.438  26.406 -0.0354  0.3286 -0.0306
 1052BOLB   NC125225   9.877  -1.539  24.755 -0.1743 -0.2616 -0.1506
 1052BOLB   PO125226   9.538  -1.872  24.800 -0.0797 -0.3282  0.3362
 1052BOLB   GL125227   9.177  -2.141  24.842  0.2111  0.2293  0.0298
 1052BOLB   GL225228   9.162  -2.420  24.691  0.0179 -0.1196 -0.0048
 1052BOLB   C1A25229   8.854  -2.455  25.033  0.2482 -0.0843 -0.0768
 1052BOLB   C2A25230   8.429  -2.699  24.878  0.0345  0.3253 -0.0237
 1052BOLB   C3A25231   8.396  -3.052  24.913  0.2310 -0.0703  0.1328
 1052BOLB   C4A25232   8.462  -3.511  24.872  0.0181  0.3254 -0.0388
 1052BOLB   C1B25233   9.081  -2.873  24.810 -0.0672 -0.3505  0.0157
 1052BOLB   C2B25234   8.954  -3.377  24.992  0.0769 -0.1594 -0.1553
 1052BOLB   C3B25235   8.840  -3.756  24.898  0.2287  0.1372  0.0060
 1052BOLB   C4B25236   9.034  -4.073  24.661  0.0060  0.0584  0.2191
 1052BOLB   NC225237   6.028  -3.975  23.949 -0.4782 -0.0842 -0.1161
 1052BOLB   PO225238   6.380  -4.313  24.039  0.1146 -0.0839 -0.3495
 1052BOLB   GL325239   6.825  -4.273  24.099  0.2242 -0.1289 -0.0886
 1052BOLB   GL425240   7.115  -4.432  24.411  0.0975 -0.4544  0.0925
 1052BOLB   C1C25241   7.200  -4.076  24.031  0.1222  0.1463  0.0409
 1052BOLB   C2C25242   7.633  -4.167  24.202  0.1745 -0.0329  0.4882
 1052BOLB   C3C25243   7.945  -4.031  24.484 -0.0553  0.0456 -0.2169
 1052BOLB   C4C25244   8.097  -3.723  24.694  0.2715  0.1786 -0.2347
 1052BOLB   C1D25245   7.492  -4.574  24.572 -0.2245 -0.0959  0.0521
 1052BOLB   C2D25246   7.850  -4.595  24.503 -0.0541 -0.2483  0.4797
 1052BOLB   C3D25247   8.250  -4.404  24.486 -0.1386  0.0551  0.2187
 1052BOLB   C4D25248   8.449  -4.073  24.624 -0.1698  0.3937 -0.1091
 1053BOLB   NC125249  27.965   4.856  30.946 -0.3058 -0.0577 -0.2104
 1053BOLB   PO125250  27.793   4.581  31.250 -0.0515  0.0709 -0.2014
 1053BOLB   GL125251  27.379   4.527  31.143  0.2510 -0.2140  0.0040
 1053BOLB   GL225252  27.152   4.188  31.169 -0.0910  0.0947 -0.4570
 1053BOLB   C1A25253  26.945   4.730  31.143 -0.1179 -0.2213  0.1130
 1053BOLB   C2A25254  26.479   4.788  31.067  0.5664  0.0033 -0.2588
 1053BOLB   C3A25255  26.106   4.776  31.181  0.1572  0.0045  0.3383
 1053BOLB   C4A25256  25.730   4.544  31.196  0.0518 -0.1814 -0.1570
 1053BOLB   C1B25257  26.890   3.792  30.926 -0.0241 -0.1023  0.2330
 1053BOLB   C2B25258  26.404   3.812  31.053  0.0217  0.0676 -0.0795
 1053BOLB   C3B25259  25.984   3.634  30.862 -0.1393 -0.3825 -0.1287
 1053BOLB   C4B25260  25.691   3.326  30.618 -0.0779  0.2578  0.0305
 1053BOLB   NC225261  22.924   4.536  30.468  0.0434  0.0283 -0.0713
 1053BOLB   PO225262  23.262   4.751  30.469  0.2009 -0.0695 -0.1212
 1053BOLB   GL325263  23.646   4.854  30.797 -0.1068 -0.3389  0.1610
 1053BOLB   GL425264  23.604   5.128  31.094 -0.2260 -0.0342  0.1172
 1053BOLB   C1C25265  24.083   5.005  30.986  0.4544 -0.1974 -0.1264
 1053BOLB   C2C25266  24.509   4.975  30.971 -0.0938  0.1040 -0.2341
 1053BOLB   C3C25267  25.013   4.658  31.050  0.1948  0.0027  0.0317
 1053BOLB   C4C25268  25.287   4.663  31.281 -0.2531 -0.0542  0.0351
 1053BOLB   C1D25269  23.818   5.482  31.203  0.2333  0.0972  0.1112
 1053BOLB   C2D25270  24.012   5.509  31.613  0.1131  0.0694 -0.1152
 1053BOLB   C3D25271  24.072   5.492  32.081 -0.3040  0.0074  0.3161
 1053BOLB   C4D25272  24.214   5.308  32.503  0.3074  0.0304  0.3775
 1054BOLB   NC125273  12.753   2.263  32.927  0.0741  0.1973 -0.0300
 1054BOLB   PO125274  12.933   1.905  33.062  0.0780  0.0078  0.1152
 1054BOLB   GL125275  12.873   1.958  33.472 -0.0584  0.0393  0.0874
 1054BOLB   GL225276  13.180   2.006  33.644 -0.1871  0.1625  0.0954
 1054BOLB   C1A25277  12.763   1.651  33.799  0.2704  0.0035 -0.2329
 1054BOLB   C2A25278  12.768   1.301  33.941 -0.2711 -0.1184 -0.3754
 1054BOLB   C3A25279  12.963   0.982  34.273 -0.2861  0.0690 -0.0959
 1054BOLB   C4A25280  13.047   0.596  34.341 -0.3737 -0.1962 -0.0053
 1054BOLB   C1B25281  13.173   1.923  34.009 -0.1618 -0.4992  0.0167
 1054BOLB   C2B25282  13.072   1.895  34.411  0.0321  0.1852 -0.1383
 1054BOLB   C3B25283  13.080   1.805  34.897  0.1644 -0.0880  0.0455
 1054BOLB   C4B25284  13.052   1.668  35.285  0.0916 -0.2761 -0.4087
 1054BOLB   NC225285  12.299  -0.754  36.352  0.3841 -0.0351 -0.0905
 1054BOLB   PO225286  12.394  -0.339  36.544  0.3703 -0.2447 -0.1167
 1054BOLB   GL325287  12.607  -0.187  36.236  0.3421 -0.1043 -0.1026
 1054BOLB   GL425288  12.282  -0.224  36.061  0.2888  0.1380  0.1812
 1054BOLB   C1C25289  12.855  -0.182  35.809 -0.3574 -0.2799  0.1087
 1054BOLB   C2C25290  13.109   0.085  35.467  0.2128 -0.0639 -0.1827
 1054BOLB   C3C25291  13.136   0.066  35.019 -0.2536 -0.5004 -0.0749
 1054BOLB   C4C25292  13.210   0.211  34.635  0.1413  0.2181 -0.0631
 1054BOLB   C1D25293  12.429   0.096  35.882 -0.0219  0.3141 -0.0753
 1054BOLB   C2D25294  12.648   0.062  35.367  0.3477 -0.1623  0.4094
 1054BOLB   C3D25295  12.643   0.340  35.031  0.1054  0.2609  0.2237
 1054BOLB   C4D25296  12.701   0.614  34.664 -0.0775  0.0741 -0.0398
 1055BOLB   NC125297  19.740   2.213  32.597 -0.1705  0.0969 -0.0604
 1055BOLB   PO125298  19.293   2.173  32.638  0.0001 -0.2654  0.2279
 1055BOLB   GL125299  19.447   2.217  33.117 -0.0879 -0.0596  0.1805
 1055BOLB   GL225300  19.815   2.272  33.137  0.2659 -0.1522  0.1491
 1055BOLB   C1A25301  19.443   1.962  33.423 -0.2244 -0.1008 -0.0380
 1055BOLB   C2A25302  19.742   1.778  33.710 -0.0445 -0.1476  0.0159
 1055BOLB   C3A25303  19.901   1.567  34.125 -0.2792  0.0597  0.3750
 1055BOLB   C4A25304  20.251   1.507  34.452  0.3104  0.1504 -0.1693
 1055BOLB   C1B25305  19.796   2.328  33.576 -0.1219  0.0289  0.0524
 1055BOLB   C2B25306  20.046   2.126  33.975 -0.0159 -0.0240 -0.2007
 1055BOLB   C3B25307  20.279   2.420  34.227  0.0587 -0.0610 -0.4127
 1055BOLB   C4B25308  20.480   2.784  34.350  0.0027  0.0715 -0.1591
 1055BOLB   NC225309  20.743   1.380  36.737 -0.0137  0.0143  0.1391
 1055BOLB   PO225310  20.816   1.043  36.804 -0.0616 -0.1475 -0.1543
 1055BOLB   GL325311  20.889   1.088  36.387 -0.4428  0.0526 -0.0518
 1055BOLB   GL425312  21.156   1.178  36.049 -0.3005 -0.2324  0.1169
 1055BOLB   C1C25313  20.686   1.012  35.791 -0.1911 -0.0697  0.2010
 1055BOLB   C2C25314  20.778   1.238  35.462 -0.0055 -0.1528 -0.3144
 1055BOLB   C3C25315  20.559   1.448  35.204  0.2303 -0.0445 -0.0386
 1055BOLB   C4C25316  20.465   1.452  34.885 -0.1772 -0.1412  0.4107
 1055BOLB   C1D25317  20.949   1.489  35.837  0.1881 -0.1697  0.1524
 1055BOLB   C2D25318  20.468   1.590  35.813 -0.2626 -0.0351 -0.0643
 1055BOLB   C3D25319  20.199   1.305  35.571 -0.1227 -0.0028  0.1025
 1055BOLB   C4D25320  20.098   0.824  35.631 -0.1469 -0.3263 -0.1570
 1056BOLB   NC125321  12.909  16.915  27.493  0.0774  0.1841  0.1044
 1056BOLB   PO125322  13.319  16.950  27.680 -0.4778 -0.4098  0.0932
 1056BOLB   GL125323  13.258  16.554  27.551  0.0050 -0.2710  0.1663
 1056BOLB   GL225324  13.426  16.425  27.703  0.6019 -0.2132 -0.0678
 1056BOLB   C1A25325  13.280  16.242  27.170 -0.1751  0.1890 -0.0854
 1056BOLB   C2A25326  13.139  15.837  27.126 -0.0708 -0.2533 -0.1491
 1056BOLB   C3A25327  13.202  15.398  27.045 -0.0079 -0.2342 -0.1238
 1056BOLB   C4A25328  13.250  15.006  27.254  0.1166 -0.0018 -0.1321
 1056BOLB   C1B25329  13.716  16.203  27.618 -0.0072  0.2126  0.2170
 1056BOLB   C2B25330  13.875  15.802  27.790 -0.0284 -0.1828  0.0131
 1056BOLB   C3B25331  13.800  15.296  27.876 -0.0241  0.1140  0.0783
 1056BOLB   C4B25332  13.980  14.907  27.636 -0.1283  0.1195 -0.0896
 1056BOLB   NC225333  13.661  11.984  27.175 -0.1960  0.0964  0.1265
 1056BOLB   PO225334  13.775  12.403  27.090  0.2787  0.2964  0.0650
 1056BOLB   GL325335  13.717  12.754  27.188 -0.2233  0.0977  0.1025
 1056BOLB   GL425336  13.989  12.953  27.130 -0.2000  0.0074  0.0161
 1056BOLB   C1C25337  13.587  13.174  27.059 -0.0836  0.0435  0.1970
 1056BOLB   C2C25338  13.502  13.675  27.007  0.0515 -0.0967 -0.3492
 1056BOLB   C3C25339  13.342  14.139  26.979 -0.0058  0.2243 -0.1512
 1056BOLB   C4C25340  13.237  14.551  27.023 -0.0879  0.2393 -0.2328
 1056BOLB   C1D25341  13.963  13.397  27.231  0.1478 -0.1131 -0.2401
 1056BOLB   C2D25342  14.129  13.814  27.182  0.0716 -0.1144 -0.0028
 1056BOLB   C3D25343  14.351  14.127  27.235 -0.0291 -0.2090  0.2073
 1056BOLB   C4D25344  14.300  14.494  27.540  0.1842  0.1879 -0.1763
 1057BOLB   NC125345  20.898  11.068  25.824 -0.0871  0.1077 -0.3355
 1057BOLB   PO125346  20.514  11.000  25.739 -0.1696 -0.0121 -0.3492
 1057BOLB   GL125347  20.615  11.383  25.629  0.1186  0.0001 -0.3614
 1057BOLB   GL225348  20.667  11.508  25.904 -0.1133 -0.0107  0.2664
 1057BOLB   C1A25349  20.584  11.747  25.327  0.1869 -0.0223 -0.0130
 1057BOLB   C2A25350  20.791  12.058  25.218  0.0868 -0.3533  0.0653
 1057BOLB   C3A25351  21.079  12.348  24.947 -0.0072  0.2563  0.4142
 1057BOLB   C4A25352  21.302  12.680  24.922  0.0292 -0.0611 -0.0173
 1057BOLB   C1B25353  20.741  11.930  25.746  0.1251  0.2943  0.1554
 1057BOLB   C2B25354  20.785  12.303  25.781 -0.2985 -0.0627 -0.1956
 1057BOLB   C3B25355  20.805  12.752  25.785 -0.0708 -0.0272  0.0201
 1057BOLB   C4B25356  20.801  13.196  25.729  0.0586  0.0218  0.1537
 1057BOLB   NC225357  23.021  14.626  25.239 -0.0178 -0.1976 -0.0244
 1057BOLB   PO225358  22.850  14.697  24.690  0.0479  0.2597 -0.0436
 1057BOLB   GL325359  22.512  14.342  24.664 -0.2756 -0.0024  0.2107
 1057BOLB   GL425360  22.423  14.365  24.391  0.2424 -0.1742  0.1629
 1057BOLB   C1C25361  22.387  13.987  24.905  0.0485 -0.4444 -0.0770
 1057BOLB   C2C25362  22.256  13.564  25.056  0.0293  0.0878 -0.0654
 1057BOLB   C3C25363  21.997  13.227  25.002  0.0192 -0.1473 -0.3613
 1057BOLB   C4C25364  21.651  12.981  24.993  0.2233  0.4295  0.0534
 1057BOLB   C1D25365  22.188  13.979  24.343  0.1066 -0.3126  0.3773
 1057BOLB   C2D25366  21.983  13.633  24.056 -0.1763  0.4482  0.0074
 1057BOLB   C3D25367  21.611  13.372  24.038 -0.2903  0.1699 -0.0516
 1057BOLB   C4D25368  21.209  13.350  23.916  0.2982  0.2402  0.2493
 1058BOLB   NC125369  12.711  10.246  22.937 -0.2049 -0.1216  0.2431
 1058BOLB   PO125370  12.726  10.538  22.571  0.0256  0.0287 -0.3804
 1058BOLB   GL125371  12.638  10.932  22.268  0.1389  0.2803 -0.0616
 1058BOLB   GL225372  12.371  10.964  21.934  0.3227 -0.2112 -0.2558
 1058BOLB   C1A25373  12.489  11.396  22.090  0.3643 -0.0182 -0.1279
 1058BOLB   C2A25374  12.392  11.792  21.894 -0.1544  0.3584 -0.0286
 1058BOLB   C3A25375  12.155  12.225  21.692  0.1273 -0.0155  0.0343
 1058BOLB   C4A25376  11.967  12.646  21.679 -0.0454  0.0835  0.1073
 1058BOLB   C1B25377  12.097  11.178  21.659  0.0338  0.1139  0.1787
 1058BOLB   C2B25378  11.949  11.378  21.288  0.2744  0.3627  0.2009
 1058BOLB   C3B25379  11.793  11.299  20.827  0.0410 -0.2068  0.1288
 1058BOLB   C4B25380  11.665  11.185  20.363  0.0488 -0.2946  0.0122
 1058BOLB   NC225381  11.266  14.812  21.121  0.0811 -0.0849  0.0405
 1058BOLB   PO225382  11.676  14.868  21.319 -0.2114 -0.1122  0.0914
 1058BOLB   GL325383  11.739  14.447  21.118 -0.2054 -0.0012  0.1931
 1058BOLB   GL425384  11.507  14.370  21.357  0.0550 -0.2065  0.3335
 1058BOLB   C1C25385  12.007  14.093  21.144 -0.4927  0.2042  0.1144
 1058BOLB   C2C25386  12.112  13.695  21.221 -0.0979  0.2729 -0.0946
 1058BOLB   C3C25387  11.872  13.351  21.287  0.0239  0.1165 -0.0968
 1058BOLB   C4C25388  11.828  12.907  21.422  0.1247  0.0971 -0.0381
 1058BOLB   C1D25389  11.574  13.810  21.392  0.0608 -0.2172 -0.2677
 1058BOLB   C2D25390  11.428  13.281  21.481  0.0763  0.2493 -0.0048
 1058BOLB   C3D25391  10.927  13.139  21.526  0.0424  0.1240  0.0278
 1058BOLB   C4D25392  10.839  12.688  21.591 -0.0857  0.1385 -0.1235
 1059BOLB   NC125393  22.207   6.152  18.972  0.0182 -0.1828 -0.2086
 1059BOLB   PO125394  22.271   5.873  18.762 -0.2537  0.0046  0.2143
 1059BOLB   GL125395  22.660   6.034  18.757 -0.2282 -0.1208 -0.1666
 1059BOLB   GL225396  22.944   6.120  19.044 -0.0876 -0.1004 -0.3217
 1059BOLB   C1A25397  22.905   6.370  18.514 -0.1128 -0.1379 -0.3265
 1059BOLB   C2A25398  23.132   6.402  18.359 -0.0856  0.2727  0.0398
 1059BOLB   C3A25399  23.430   6.755  18.170  0.0251 -0.1223 -0.1736
 1059BOLB   C4A25400  23.796   6.969  18.150 -0.0637  0.0064  0.1260
 1059BOLB   C1B25401  23.035   6.514  18.953 -0.2758  0.0733 -0.1700
 1059BOLB   C2B25402  23.131   6.832  18.718 -0.0604 -0.3770 -0.0124
 1059BOLB   C3B25403  23.501   6.988  18.687 -0.0221  0.1827  0.0926
 1059BOLB   C4B25404  23.922   7.028  18.703  0.2006  0.1206 -0.0612
 1059BOLB   NC225405  24.695   8.787  16.779 -0.0398 -0.2989 -0.0743
 1059BOLB   PO225406  24.966   8.552  17.026 -0.1128  0.1336  0.1931
 1059BOLB   GL325407  24.683   8.274  17.234 -0.2879 -0.0740 -0.2512
 1059BOLB   GL425408  24.380   8.476  17.032 -0.2606  0.1117 -0.1451
 1059BOLB   C1C25409  24.388   8.214  17.533 -0.2095 -0.2657 -0.2521
 1059BOLB   C2C25410  24.281   7.842  17.669  0.1308 -0.1537  0.0854
 1059BOLB   C3C25411  24.188   7.549  17.957  0.0867  0.2018 -0.1961
 1059BOLB   C4C25412  24.012   7.360  18.237 -0.1662  0.1860  0.1252
 1059BOLB   C1D25413  24.162   8.053  17.046  0.1639 -0.0797 -0.4674
 1059BOLB   C2D25414  24.078   7.560  17.120 -0.2082  0.2755 -0.0727
 1059BOLB   C3D25415  24.109   7.302  17.423 -0.0647 -0.1818  0.3066
 1059BOLB   C4D25416  23.743   7.216  17.771  0.1737  0.0652 -0.2116
 1060BOLB   NC125417  25.104  -6.785  19.831 -0.0327 -0.2410 -0.0404
 1060BOLB   PO125418  24.961  -6.620  19.370 -0.0139  0.0507  0.2268
 1060BOLB   GL125419  24.830  -6.229  19.179 -0.3030  0.0242 -0.0504
 1060BOLB   GL225420  24.543  -6.260  19.440  0.1631  0.1606  0.2430
 1060BOLB   C1A25421  24.789  -5.849  18.891 -0.1283  0.1081  0.1632
 1060BOLB   C2A25422  24.681  -5.508  18.760 -0.1371  0.0806  0.2486
 1060BOLB   C3A25423  24.331  -5.239  18.531 -0.2553  0.1747  0.2760
 1060BOLB   C4A25424  24.084  -5.196  18.060  0.1831  0.1050 -0.4240
 1060BOLB   C1B25425  24.544  -5.857  19.372  0.0873  0.1381 -0.1475
 1060BOLB   C2B25426  24.363  -5.429  19.667 -0.0723 -0.3590  0.3137
 1060BOLB   C3B25427  24.075  -5.121  19.631 -0.0967 -0.0170 -0.0243
 1060BOLB   C4B25428  23.675  -4.977  19.646 -0.2421  0.0187 -0.1157
 1060BOLB   NC225429  25.062  -7.095  19.013 -0.1072 -0.0485  0.2697
 1060BOLB   PO225430  25.130  -6.994  18.538 -0.1534 -0.0573  0.3068
 1060BOLB   GL325431  24.707  -7.063  18.551  0.1398  0.1439  0.2705
 1060BOLB   GL425432  24.375  -7.224  18.632 -0.2200 -0.1444  0.0378
 1060BOLB   C1C25433  24.304  -6.661  18.582 -0.1103 -0.0318  0.2468
 1060BOLB   C2C25434  24.455  -6.234  18.282 -0.0825  0.1949  0.2210
 1060BOLB   C3C25435  24.264  -5.984  17.919  0.1273  0.1235 -0.0780
 1060BOLB   C4C25436  24.063  -5.573  17.889  0.2159  0.0398  0.0425
 1060BOLB   C1D25437  24.275  -7.015  18.193  0.0912  0.1453  0.4034
 1060BOLB   C2D25438  24.133  -6.590  18.083  0.1208  0.0017  0.2680
 1060BOLB   C3D25439  24.003  -6.326  18.412  0.0290  0.1896 -0.2980
 1060BOLB   C4D25440  23.831  -6.323  18.778  0.2975  0.1273  0.0709
 1061BOLB   NC125441  22.004   8.901  29.476  0.0690  0.1272  0.1397
 1061BOLB   PO125442  22.404   9.033  29.488  0.3261  0.1786  0.1317
 1061BOLB   GL125443  22.681   9.158  29.881  0.1536  0.2382  0.2201
 1061BOLB   GL225444  22.902   8.987  29.739 -0.0875  0.3280  0.2599
 1061BOLB   C1A25445  22.939   9.221  30.232  0.3844 -0.0884 -0.0991
 1061BOLB   C2A25446  23.385   9.107  30.427  0.0287 -0.1573  0.3915
 1061BOLB   C3A25447  23.854   9.044  30.249 -0.2500  0.4010 -0.2731
 1061BOLB   C4A25448  24.234   9.127  30.004  0.1625  0.0098  0.0209
 1061BOLB   C1B25449  23.217   9.265  29.827  0.1583  0.2372  0.0715
 1061BOLB   C2B25450  23.368   9.441  30.058 -0.2212  0.3624 -0.1297
 1061BOLB   C3B25451  23.486   9.814  30.325  0.1279 -0.0309 -0.1811
 1061BOLB   C4B25452  23.625  10.240  30.482  0.0559  0.1219  0.0931
 1061BOLB   NC225453  26.111   9.515  31.441  0.1909  0.2442  0.2106
 1061BOLB   PO225454  25.935   9.729  31.807  0.2551 -0.1558 -0.1526
 1061BOLB   GL325455  25.623   9.708  31.304  0.0644 -0.1414  0.2008
 1061BOLB   GL425456  25.307   9.784  31.241 -0.1051  0.1292  0.2881
 1061BOLB   C1C25457  25.510   9.467  30.917  0.2228 -0.1436 -0.2646
 1061BOLB   C2C25458  25.214   9.495  30.592  0.0117 -0.0589  0.3054
 1061BOLB   C3C25459  24.955   9.220  30.253 -0.1898 -0.0554  0.3383
 1061BOLB   C4C25460  24.641   9.133  30.096 -0.1751 -0.1062  0.0060
 1061BOLB   C1D25461  24.854   9.830  31.194  0.0579  0.1610 -0.2021
 1061BOLB   C2D25462  24.538   9.757  31.439 -0.0568  0.2296 -0.3550
 1061BOLB   C3D25463  24.244   9.424  31.591 -0.1091 -0.1192 -0.1201
 1061BOLB   C4D25464  24.028   9.174  31.894 -0.0496  0.0284  0.2491
 1062BOLB   NC125465   6.802   2.643  26.339 -0.1260  0.0758 -0.3081
 1062BOLB   PO125466   6.727   2.519  25.856 -0.0584  0.2782  0.2755
 1062BOLB   GL125467   6.276   2.616  25.719  0.3327 -0.0025 -0.0334
 1062BOLB   GL225468   6.130   2.228  25.753 -0.2238 -0.0734 -0.0315
 1062BOLB   C1A25469   5.768   2.647  25.814 -0.0569  0.0040  0.3073
 1062BOLB   C2A25470   5.463   2.743  25.624 -0.2391  0.1163  0.0017
 1062BOLB   C3A25471   5.070   2.768  25.810  0.2487  0.0437 -0.0745
 1062BOLB   C4A25472   4.567   2.784  25.926  0.5239  0.2580  0.0125
 1062BOLB   C1B25473   5.767   2.037  25.674  0.1954  0.2125 -0.2755
 1062BOLB   C2B25474   5.573   1.717  25.662  0.1646 -0.2760  0.0230
 1062BOLB   C3B25475   5.157   1.657  25.676 -0.1950  0.1013  0.0419
 1062BOLB   C4B25476   4.870   1.266  25.657 -0.1116 -0.0161 -0.4220
 1062BOLB   NC225477   2.491   3.104  26.944 -0.0765  0.0892 -0.2695
 1062BOLB   PO225478   2.778   2.768  26.955 -0.1906 -0.0781  0.0691
 1062BOLB   GL325479   3.157   2.682  26.993  0.2110  0.3492  0.1150
 1062BOLB   GL425480   3.121   2.618  27.293 -0.0945  0.0103 -0.0774
 1062BOLB   C1C25481   3.376   2.358  26.799  0.0641 -0.3073  0.0878
 1062BOLB   C2C25482   3.369   2.421  26.305 -0.0444  0.0353 -0.0502
 1062BOLB   C3C25483   3.691   2.629  26.001  0.1451  0.0145 -0.3371
 1062BOLB   C4C25484   4.181   2.600  26.064 -0.2920 -0.3691 -0.1089
 1062BOLB   C1D25485   3.425   2.652  27.618  0.0271 -0.2350 -0.1299
 1062BOLB   C2D25486   3.904   2.704  27.834 -0.0455  0.5298  0.3044
 1062BOLB   C3D25487   4.347   2.793  28.000  0.0509  0.1361 -0.2610
 1062BOLB   C4D25488   4.639   2.739  27.962 -0.1952 -0.0833 -0.0896
 1063BOLB   NC125489  11.292  -7.959  22.981 -0.2119  0.3452 -0.0333
 1063BOLB   PO125490  10.892  -7.918  23.182 -0.0393 -0.2153  0.3546
 1063BOLB   GL125491  11.220  -7.514  23.413  0.0584 -0.0120  0.1927
 1063BOLB   GL225492  11.414  -7.272  23.095 -0.2173  0.1563 -0.3148
 1063BOLB   C1A25493  11.549  -7.355  23.577  0.1065 -0.1162 -0.0427
 1063BOLB   C2A25494  11.922  -7.189  23.690 -0.1314 -0.1284 -0.3541
 1063BOLB   C3A25495  12.006  -6.859  23.824  0.3110 -0.0933  0.1590
 1063BOLB   C4A25496  12.072  -6.658  24.206 -0.1133  0.1388 -0.0376
 1063BOLB   C1B25497  11.690  -6.923  23.243 -0.1130 -0.1273 -0.1127
 1063BOLB   C2B25498  11.558  -6.510  23.285 -0.0125  0.2144  0.4765
 1063BOLB   C3B25499  11.294  -6.083  23.085  0.4829 -0.2292  0.1182
 1063BOLB   C4B25500  11.445  -5.747  22.885  0.0293 -0.3529 -0.1697
 1063BOLB   NC225501  12.831  -8.155  26.087 -0.0604  0.1295  0.0620
 1063BOLB   PO225502  12.639  -8.354  25.737  0.0638 -0.0000  0.0026
 1063BOLB   GL325503  12.671  -7.980  25.597  0.2771  0.0416 -0.1018
 1063BOLB   GL425504  12.914  -7.864  25.665 -0.2868  0.1870 -0.0334
 1063BOLB   C1C25505  12.367  -7.658  25.407  0.0629 -0.0821 -0.4191
 1063BOLB   C2C25506  12.280  -7.335  25.234  0.0149  0.1596  0.1124
 1063BOLB   C3C25507  12.279  -7.080  24.846  0.2305  0.2062 -0.2088
 1063BOLB   C4C25508  12.298  -6.752  24.589 -0.0540  0.0047 -0.1622
 1063BOLB   C1D25509  12.857  -7.508  25.675  0.0934  0.2287 -0.1758
 1063BOLB   C2D25510  12.732  -7.141  25.748  0.0157 -0.0333 -0.1182
 1063BOLB   C3D25511  12.423  -6.967  25.562 -0.0254  0.0808  0.0443
 1063BOLB   C4D25512  12.245  -6.570  25.480  0.0680 -0.2129 -0.1525
 1064BOLB   NC125513  16.276  -2.023  29.646  0.2115  0.0311  0.0997
 1064BOLB   PO125514  16.302  -2.465  29.364  0.2388  0.1897  0.1427
 1064BOLB   GL125515  16.343  -2.862  29.638  0.3372 -0.1089  0.0094
 1064BOLB   GL225516  16.267  -2.638  29.809 -0.2451  0.0168  0.0389
 1064BOLB   C1A25517  16.522  -3.268  29.725 -0.0150 -0.0685  0.2755
 1064BOLB   C2A25518  16.366  -3.662  29.865 -0.2690 -0.0882  0.0070
 1064BOLB   C3A25519  16.360  -4.034  30.062  0.1824 -0.0546 -0.1900
 1064BOLB   C4A25520  16.440  -4.279  30.434  0.1890  0.0846  0.0951
 1064BOLB   C1B25521  16.474  -2.949  30.147 -0.0163  0.2095  0.0220
 1064BOLB   C2B25522  16.698  -3.098  30.497 -0.1882  0.0562 -0.0566
 1064BOLB   C3B25523  16.963  -2.942  30.797 -0.2273  0.4355  0.2082
 1064BOLB   C4B25524  17.324  -2.846  31.163  0.0418 -0.0979 -0.1064
 1064BOLB   NC225525  17.414  -5.986  32.702 -0.0089  0.0222  0.0668
 1064BOLB   PO225526  17.452  -5.594  32.310 -0.2184  0.3223 -0.3155
 1064BOLB   GL325527  17.297  -5.305  31.965  0.1136  0.0161  0.0675
 1064BOLB   GL425528  17.480  -4.931  32.016  0.0070 -0.1237  0.2483
 1064BOLB   C1C25529  17.127  -5.016  31.696 -0.2843  0.2142 -0.0056
 1064BOLB   C2C25530  16.786  -5.064  31.272 -0.0931 -0.2352  0.0571
 1064BOLB   C3C25531  16.810  -4.751  31.078  0.0013 -0.2319  0.3935
 1064BOLB   C4C25532  16.569  -4.550  30.773  0.1557 -0.0365  0.0960
 1064BOLB   C1D25533  17.621  -4.688  31.786  0.2630 -0.1083 -0.2205
 1064BOLB   C2D25534  17.691  -4.418  31.485  0.4086 -0.0622  0.0417
 1064BOLB   C3D25535  17.929  -4.306  31.216 -0.2857 -0.0874 -0.2138
 1064BOLB   C4D25536  18.195  -4.242  30.920 -0.0577  0.1958 -0.0734
 1065BOLB   NC125537  15.882   2.890  33.493  0.3164 -0.0978 -0.2541
 1065BOLB   PO125538  15.823   3.389  33.495 -0.2230 -0.0515  0.1160
 1065BOLB   GL125539  15.969   3.278  33.948  0.0876 -0.0589  0.1152
 1065BOLB   GL225540  16.184   3.466  34.085 -0.1314 -0.0542 -0.4311
 1065BOLB   C1A25541  16.172   3.032  34.326  0.0007 -0.0108 -0.3966
 1065BOLB   C2A25542  16.092   2.907  34.846 -0.1339 -0.1002 -0.2292
 1065BOLB   C3A25543  16.312   2.860  35.257  0.1315 -0.0458  0.0835
 1065BOLB   C4A25544  16.581   3.077  35.527 -0.2759 -0.2182  0.0025
 1065BOLB   C1B25545  16.493   3.566  34.400 -0.4702 -0.2214  0.0122
 1065BOLB   C2B25546  16.792   3.620  34.829  0.0377  0.1155  0.1661
 1065BOLB   C3B25547  17.156   3.573  35.010 -0.2561 -0.1433  0.1159
 1065BOLB   C4B25548  17.697   3.641  34.898  0.1603 -0.1194  0.5629
 1065BOLB   NC225549  17.508   3.023  37.797 -0.2570 -0.1571 -0.0001
 1065BOLB   PO225550  17.750   2.700  37.623  0.0407 -0.0054 -0.2685
 1065BOLB   GL325551  17.576   2.771  37.322  0.0000  0.1138  0.0769
 1065BOLB   GL425552  17.591   2.534  37.044  0.1828  0.0290  0.3706
 1065BOLB   C1C25553  17.313   2.954  37.047  0.4414 -0.0033  0.1220
 1065BOLB   C2C25554  17.296   2.832  36.532 -0.0172  0.4270  0.1109
 1065BOLB   C3C25555  17.208   2.869  36.133 -0.0355 -0.1180  0.0271
 1065BOLB   C4C25556  16.929   3.139  35.866  0.0855  0.0052  0.0092
 1065BOLB   C1D25557  17.811   2.679  36.597 -0.0984  0.0287 -0.0793
 1065BOLB   C2D25558  17.625   2.593  36.238 -0.0162 -0.2438  0.1329
 1065BOLB   C3D25559  17.659   2.629  35.797  0.3212 -0.1377  0.0073
 1065BOLB   C4D25560  17.848   2.868  35.446  0.3165 -0.0343  0.0234
 1066BOLB   NC125561  26.464   5.638  33.222  0.1520  0.0604 -0.0336
 1066BOLB   PO125562  26.285   5.209  33.085  0.0939 -0.0909  0.0212
 1066BOLB   GL125563  25.914   5.146  32.941 -0.1423  0.0623 -0.0693
 1066BOLB   GL225564  26.001   4.886  32.799 -0.2023  0.0135  0.2914
 1066BOLB   C1A25565  25.723   5.279  32.618  0.1260 -0.0957 -0.0707
 1066BOLB   C2A25566  25.491   5.577  32.349 -0.2422 -0.0781 -0.0167
 1066BOLB   C3A25567  25.215   5.705  32.024  0.3259  0.1416  0.3092
 1066BOLB   C4A25568  24.793   5.534  31.918 -0.3346 -0.0079  0.0088
 1066BOLB   C1B25569  25.915   4.487  32.516  0.1024 -0.1623 -0.1898
 1066BOLB   C2B25570  25.696   4.442  32.164  0.0823 -0.1704 -0.1185
 1066BOLB   C3B25571  25.624   4.120  31.771  0.0114  0.0456  0.3476
 1066BOLB   C4B25572  25.430   4.157  31.386 -0.2940  0.1838 -0.3098
 1066BOLB   NC225573  25.635   4.672  33.806  0.2201  0.0234 -0.3818
 1066BOLB   PO225574  25.235   4.688  34.024 -0.2584 -0.2002  0.0419
 1066BOLB   GL325575  24.943   5.033  33.801 -0.0038 -0.0346  0.1152
 1066BOLB   GL425576  24.764   5.337  33.915  0.3571 -0.2929 -0.1132
 1066BOLB   C1C25577  24.743   5.134  33.306 -0.1341  0.3743  0.0727
 1066BOLB   C2C25578  24.569   5.015  32.884  0.0902  0.1140 -0.1886
 1066BOLB   C3C25579  24.668   5.174  32.522  0.1464  0.1091  0.0871
 1066BOLB   C4C25580  24.674   5.186  32.152 -0.0739 -0.2844 -0.2011
 1066BOLB   C1D25581  24.417   5.153  33.673  0.1736  0.1021 -0.2018
 1066BOLB   C2D25582  23.986   4.891  33.643 -0.2762 -0.0645 -0.2320
 1066BOLB   C3D25583  23.621   4.830  33.775 -0.0095 -0.0542 -0.0685
 1066BOLB   C4D25584  23.169   4.646  33.775  0.3826 -0.2333 -0.1610
 1067BOLB   NC125585  22.458  -1.417  21.068  0.2076  0.0052  0.2188
 1067BOLB   PO125586  22.560  -1.282  20.634 -0.2400 -0.0231  0.2157
 1067BOLB   GL125587  22.872  -1.357  20.438  0.0122  0.1880  0.5800
 1067BOLB   GL225588  23.010  -1.024  20.280  0.2441  0.3045 -0.0401
 1067BOLB   C1A25589  23.160  -1.555  20.115  0.0873  0.1354  0.1255
 1067BOLB   C2A25590  23.594  -1.561  20.007 -0.0362 -0.4317 -0.3014
 1067BOLB   C3A25591  23.900  -1.632  19.762  0.3044  0.0917 -0.0030
 1067BOLB   C4A25592  24.139  -2.015  19.674 -0.0668  0.5122  0.1421
 1067BOLB   C1B25593  23.464  -1.178  20.309 -0.0234  0.1303 -0.1766
 1067BOLB   C2B25594  23.999  -1.231  20.210 -0.3750  0.1300 -0.0563
 1067BOLB   C3B25595  24.384  -1.046  20.103  0.1868 -0.1324 -0.2666
 1067BOLB   C4B25596  24.695  -1.127  19.994  0.1750 -0.0309  0.2820
 1067BOLB   NC225597  26.100  -3.759  19.259 -0.2612 -0.0239  0.2332
 1067BOLB   PO225598  26.045  -3.312  19.151 -0.0136 -0.0346 -0.0787
 1067BOLB   GL325599  25.599  -3.173  18.936 -0.1908  0.1960 -0.0956
 1067BOLB   GL425600  25.417  -3.457  19.000  0.2657 -0.3105  0.2016
 1067BOLB   C1C25601  25.238  -2.893  18.962 -0.2151 -0.3313  0.1536
 1067BOLB   C2C25602  24.834  -2.835  19.259  0.0440 -0.1596  0.0833
 1067BOLB   C3C25603  24.540  -2.514  19.270 -0.0408 -0.1958 -0.2041
 1067BOLB   C4C25604  24.513  -2.273  19.558 -0.1106 -0.3306 -0.0572
 1067BOLB   C1D25605  25.160  -3.260  19.276 -0.3612  0.2881 -0.3322
 1067BOLB   C2D25606  24.942  -3.329  19.618 -0.2788 -0.2628 -0.0318
 1067BOLB   C3D25607  24.531  -3.292  19.630  0.3522  0.1717  0.1737
 1067BOLB   C4D25608  24.128  -3.600  19.545 -0.3838  0.0426  0.3470
 1068BOLB   NC125609  14.988  12.727  28.261 -0.1965 -0.2401  0.1406
 1068BOLB   PO125610  14.643  12.352  28.117 -0.1318 -0.1252 -0.2263
 1068BOLB   GL125611  14.345  12.731  28.150  0.2600  0.0382 -0.2611
 1068BOLB   GL225612  14.526  12.952  28.187  0.1567  0.2231 -0.0032
 1068BOLB   C1A25613  13.935  12.920  28.239 -0.0859  0.3908 -0.0729
 1068BOLB   C2A25614  13.735  13.227  28.305  0.0589  0.3296  0.1319
 1068BOLB   C3A25615  13.601  13.622  28.459 -0.2755 -0.1088 -0.1241
 1068BOLB   C4A25616  13.269  13.812  28.785 -0.2413 -0.1796  0.0741
 1068BOLB   C1B25617  14.600  13.223  27.906  0.1805  0.0632  0.1098
 1068BOLB   C2B25618  14.760  13.649  27.925  0.2162 -0.0690  0.1327
 1068BOLB   C3B25619  14.665  14.103  27.612  0.0147 -0.2139  0.1740
 1068BOLB   C4B25620  14.693  14.367  27.797 -0.2226  0.0285  0.0724
 1068BOLB   NC225621  13.530  16.064  29.611 -0.1633 -0.1668 -0.2062
 1068BOLB   PO225622  13.075  16.016  29.623 -0.0663  0.2853  0.0179
 1068BOLB   GL325623  13.210  15.692  29.467 -0.0214  0.0869  0.0501
 1068BOLB   GL425624  13.223  15.732  29.175  0.0243 -0.0225  0.2650
 1068BOLB   C1C25625  13.105  15.189  29.588  0.2620  0.0025 -0.2241
 1068BOLB   C2C25626  12.998  14.790  29.315  0.3851 -0.0873 -0.0004
 1068BOLB   C3C25627  13.058  14.357  29.406  0.0302  0.1165 -0.0655
 1068BOLB   C4C25628  13.045  14.065  29.132  0.1306  0.1813 -0.2768
 1068BOLB   C1D25629  13.238  15.273  29.125 -0.3777  0.0369  0.0555
 1068BOLB   C2D25630  13.457  14.939  29.049 -0.0750  0.1360 -0.1861
 1068BOLB   C3D25631  13.430  14.443  29.018  0.0462 -0.0309  0.1957
 1068BOLB   C4D25632  13.586  14.196  28.785  0.0868 -0.0498  0.0654
 1069BOLB   NC125633  15.299   4.203  33.661 -0.0960 -0.0712  0.0353
 1069BOLB   PO125634  14.884   3.926  33.614  0.1043  0.3768 -0.2493
 1069BOLB   GL125635  14.891   4.062  33.998  0.1615  0.2571  0.1728
 1069BOLB   GL225636  15.182   4.271  34.149  0.0157  0.1100  0.1095
 1069BOLB   C1A25637  14.745   4.254  34.387  0.3102  0.0230  0.0154
 1069BOLB   C2A25638  14.371   4.316  34.635 -0.0215  0.2072 -0.0782
 1069BOLB   C3A25639  14.208   4.386  34.959  0.0441  0.1990 -0.1250
 1069BOLB   C4A25640  14.256   4.506  35.438 -0.3511  0.1087 -0.0216
 1069BOLB   C1B25641  15.235   4.327  34.604  0.1663  0.0195 -0.1906
 1069BOLB   C2B25642  15.204   4.322  34.983  0.2890 -0.0215  0.0228
 1069BOLB   C3B25643  15.117   4.298  35.466  0.0848 -0.2290  0.2182
 1069BOLB   C4B25644  14.778   4.028  35.625  0.3558  0.3400 -0.1186
 1069BOLB   NC225645  14.214   3.319  37.615 -0.0535 -0.3532 -0.2841
 1069BOLB   PO225646  14.623   3.286  37.748 -0.1556 -0.0950 -0.2845
 1069BOLB   GL325647  14.631   3.370  37.271 -0.4852 -0.0433 -0.3219
 1069BOLB   GL425648  14.831   3.116  37.197  0.3577 -0.4170 -0.2213
 1069BOLB   C1C25649  14.521   3.607  36.880 -0.0434 -0.0397  0.0443
 1069BOLB   C2C25650  14.461   3.913  36.529 -0.0615  0.3243 -0.0148
 1069BOLB   C3C25651  14.611   3.994  36.135 -0.0962  0.0796  0.1365
 1069BOLB   C4C25652  14.511   4.372  35.860 -0.0863 -0.2627 -0.0289
 1069BOLB   C1D25653  14.626   3.135  36.830 -0.0001 -0.1697  0.0635
 1069BOLB   C2D25654  14.399   3.398  36.478  0.2091  0.0585  0.4646
 1069BOLB   C3D25655  14.390   3.346  36.003 -0.1329 -0.0212  0.2446
 1069BOLB   C4D25656  14.238   3.092  35.639  0.0798 -0.4021  0.1500
 1070BOLB   NC125657  25.642   8.544  32.990 -0.0585 -0.0398 -0.1336
 1070BOLB   PO125658  25.527   8.468  32.575  0.1162  0.4856  0.0742
 1070BOLB   GL125659  25.407   8.620  32.248  0.2130 -0.0145  0.1833
 1070BOLB   GL225660  25.249   8.890  32.226  0.0433  0.1228 -0.1319
 1070BOLB   C1A25661  25.163   8.426  31.917 -0.1296  0.0953 -0.0292
 1070BOLB   C2A25662  24.730   8.503  31.753 -0.1762 -0.0049  0.0516
 1070BOLB   C3A25663  24.503   8.226  31.810 -0.0972 -0.0067 -0.0117
 1070BOLB   C4A25664  24.080   7.995  31.782 -0.2722 -0.1122  0.3047
 1070BOLB   C1B25665  24.815   8.610  32.257 -0.0488 -0.2361  0.1136
 1070BOLB   C2B25666  24.440   8.312  32.274  0.1420  0.1084  0.0291
 1070BOLB   C3B25667  24.289   7.913  32.233  0.1658  0.0135  0.1020
 1070BOLB   C4B25668  24.237   7.473  32.022  0.2294 -0.0897 -0.3510
 1070BOLB   NC225669  22.486   6.332  30.284 -0.1173  0.3534 -0.1898
 1070BOLB   PO225670  22.418   6.761  30.501  0.2773  0.0004  0.3637
 1070BOLB   GL325671  22.665   7.049  30.771  0.1767  0.1710 -0.0330
 1070BOLB   GL425672  22.790   7.070  31.144  0.2147  0.0004  0.0620
 1070BOLB   C1C25673  22.738   7.518  30.871 -0.0169  0.0138 -0.1582
 1070BOLB   C2C25674  22.941   7.688  31.135  0.0159 -0.1200 -0.1077
 1070BOLB   C3C25675  23.318   7.829  31.451 -0.1964  0.3542 -0.0888
 1070BOLB   C4C25676  23.756   7.926  31.588 -0.0178 -0.4080 -0.0462
 1070BOLB   C1D25677  22.839   7.362  31.469 -0.0703  0.0278 -0.0626
 1070BOLB   C2D25678  22.989   7.569  31.780  0.2420  0.1712 -0.0704
 1070BOLB   C3D25679  23.149   7.894  31.957  0.3799  0.0154  0.1243
 1070BOLB   C4D25680  23.142   8.390  31.806  0.1196  0.0101  0.2092
 1071BOLB   NC125681  23.883   3.293  29.370  0.1154  0.1796  0.0703
 1071BOLB   PO125682  23.914   3.188  29.840 -0.0234  0.1757  0.0596
 1071BOLB   GL125683  23.942   2.957  30.162  0.1430 -0.0127 -0.1832
 1071BOLB   GL225684  24.194   2.718  30.037  0.2249  0.1602  0.0767
 1071BOLB   C1A25685  24.249   3.077  30.324  0.0244  0.3064  0.4164
 1071BOLB   C2A25686  24.429   2.897  30.646 -0.2184 -0.1629  0.0992
 1071BOLB   C3A25687  24.647   3.147  31.038  0.1265 -0.0972 -0.1189
 1071BOLB   C4A25688  24.728   3.509  31.121 -0.3928 -0.0167 -0.3719
 1071BOLB   C1B25689  24.578   2.645  30.265  0.0946 -0.2456 -0.1984
 1071BOLB   C2B25690  24.833   2.506  30.634  0.0925 -0.2112  0.0239
 1071BOLB   C3B25691  25.291   2.334  30.625  0.0540  0.0150  0.1855
 1071BOLB   C4B25692  25.742   2.119  30.507  0.2745 -0.0054  0.3031
 1071BOLB   NC225693  27.018   3.671  33.123  0.0379  0.1180 -0.0611
 1071BOLB   PO225694  26.705   3.715  32.851  0.2779  0.2292 -0.1671
 1071BOLB   GL325695  26.303   3.616  32.702 -0.1293 -0.2267 -0.1192
 1071BOLB   GL425696  26.180   3.818  32.864  0.1757  0.1069 -0.2015
 1071BOLB   C1C25697  26.139   3.696  32.204  0.2625 -0.1338 -0.3007
 1071BOLB   C2C25698  25.849   3.603  31.867  0.1995  0.0227 -0.0401
 1071BOLB   C3C25699  25.499   3.615  31.525 -0.0239 -0.0958  0.0182
 1071BOLB   C4C25700  25.057   3.685  31.236 -0.2662  0.0312  0.1286
 1071BOLB   C1D25701  25.873   3.913  32.573  0.0800 -0.2453  0.2475
 1071BOLB   C2D25702  25.614   3.904  32.247 -0.0404  0.1181  0.0298
 1071BOLB   C3D25703  25.290   3.706  31.998  0.1131  0.0009 -0.1132
 1071BOLB   C4D25704  25.002   3.382  31.853 -0.0707  0.1290  0.0177
 1072BOLB   NC125705  22.415  -1.202  23.701 -0.0288  0.1769 -0.0911
 1072BOLB   PO125706  22.730  -1.213  23.816  0.1455  0.2492 -0.2430
 1072BOLB   GL125707  23.042  -1.675  23.735 -0.2902 -0.3393 -0.0729
 1072BOLB   GL225708  22.942  -1.873  23.894 -0.0231  0.1351  0.2988
 1072BOLB   C1A25709  23.521  -1.759  23.652  0.0541  0.1961  0.0854
 1072BOLB   C2A25710  23.629  -1.964  23.368 -0.2867 -0.1252 -0.4007
 1072BOLB   C3A25711  24.025  -2.269  23.146  0.1012  0.2336  0.2532
 1072BOLB   C4A25712  24.277  -2.292  22.791 -0.0490  0.3138  0.2280
 1072BOLB   C1B25713  23.068  -2.315  24.060  0.1724 -0.1594  0.3195
 1072BOLB   C2B25714  23.401  -2.476  24.205  0.0954  0.1691  0.0855
 1072BOLB   C3B25715  23.758  -2.535  24.144  0.2683 -0.2979  0.1608
 1072BOLB   C4B25716  24.165  -2.851  24.226 -0.1893  0.0035 -0.4523
 1072BOLB   NC225717  25.912  -3.691  22.318 -0.1313 -0.2791  0.0846
 1072BOLB   PO225718  26.005  -3.351  22.028 -0.1185 -0.1692  0.0419
 1072BOLB   GL325719  25.635  -3.273  22.028 -0.3804  0.4170  0.0618
 1072BOLB   GL425720  25.434  -3.209  21.676  0.0904 -0.0214  0.2792
 1072BOLB   C1C25721  25.345  -3.342  22.294  0.1488  0.2425  0.1524
 1072BOLB   C2C25722  25.132  -3.140  22.545  0.2404  0.0852  0.0023
 1072BOLB   C3C25723  24.818  -3.002  22.771  0.0021  0.0921 -0.1230
 1072BOLB   C4C25724  24.501  -2.664  22.722  0.1843  0.2252 -0.2580
 1072BOLB   C1D25725  25.024  -3.204  21.629  0.0021 -0.1452 -0.1823
 1072BOLB   C2D25726  24.592  -3.248  21.453  0.0439  0.2071 -0.0616
 1072BOLB   C3D25727  24.250  -3.393  21.149  0.0183 -0.2095 -0.3249
 1072BOLB   C4D25728  23.888  -3.602  21.022  0.1960  0.1279 -0.2146
 1073BOLB   NC125729   8.581  -6.665  22.329  0.2872 -0.1024  0.1621
 1073BOLB   PO125730   8.180  -6.587  22.539  0.2080  0.0286 -0.1198
 1073BOLB   GL125731   8.407  -6.178  22.629  0.0748 -0.1528 -0.0625
 1073BOLB   GL225732   8.332  -5.792  22.616  0.1551  0.2099 -0.0695
 1073BOLB   C1A25733   8.697  -5.998  22.898 -0.0259  0.1452 -0.2467
 1073BOLB   C2A25734   8.751  -5.601  22.890 -0.2608 -0.2270 -0.0393
 1073BOLB   C3A25735   8.992  -5.233  22.867  0.0514  0.0923 -0.1412
 1073BOLB   C4A25736   9.293  -4.933  22.789 -0.0331  0.0999 -0.3237
 1073BOLB   C1B25737   8.403  -5.450  22.405 -0.1646 -0.1261 -0.0467
 1073BOLB   C2B25738   8.451  -5.061  22.696  0.2180  0.3470 -0.0664
 1073BOLB   C3B25739   8.724  -4.789  22.901 -0.3727  0.1374 -0.0188
 1073BOLB   C4B25740   9.127  -4.511  22.912  0.0583 -0.2342  0.0620
 1073BOLB   NC225741   8.906  -7.467  22.577  0.1858  0.1705 -0.0720
 1073BOLB   PO225742   9.048  -7.004  22.443 -0.0883  0.2820  0.1303
 1073BOLB   GL325743   9.447  -6.703  22.536  0.1502  0.0741  0.2897
 1073BOLB   GL425744   9.642  -6.829  22.660  0.0171  0.3491 -0.1656
 1073BOLB   C1C25745   9.517  -6.272  22.376 -0.0034  0.0785  0.0379
 1073BOLB   C2C25746   9.701  -5.918  22.353 -0.0589 -0.2592  0.1301
 1073BOLB   C3C25747   9.830  -5.517  22.560  0.1438  0.5878  0.0717
 1073BOLB   C4C25748   9.689  -4.978  22.629  0.0735  0.1390 -0.3086
 1073BOLB   C1D25749   9.857  -6.425  22.945 -0.1602  0.0528  0.2022
 1073BOLB   C2D25750   9.803  -6.125  23.220 -0.0402  0.5304 -0.2362
 1073BOLB   C3D25751   9.522  -5.904  23.404  0.4347  0.0911  0.0764
 1073BOLB   C4D25752   9.250  -5.626  23.156 -0.2747  0.0181 -0.1535
 1074BOLB   NC125753  21.851   2.798  31.485  0.0911  0.2660 -0.1465
 1074BOLB   PO125754  22.109   3.085  31.195 -0.1867 -0.1697  0.1333
 1074BOLB   GL125755  22.364   3.086  31.564  0.4574  0.2887  0.1086
 1074BOLB   GL225756  22.378   2.725  31.578 -0.3371 -0.4557  0.0424
 1074BOLB   C1A25757  22.753   2.955  31.771  0.2404 -0.3313  0.0554
 1074BOLB   C2A25758  22.880   2.715  32.086  0.4653  0.3035  0.4407
 1074BOLB   C3A25759  23.120   2.743  32.407  0.1362  0.1419 -0.0831
 1074BOLB   C4A25760  23.502   2.735  32.549  0.1581  0.3381  0.1216
 1074BOLB   C1B25761  22.337   2.674  32.033  0.1764 -0.1899  0.0284
 1074BOLB   C2B25762  22.391   2.672  32.421  0.0442  0.0264 -0.1053
 1074BOLB   C3B25763  22.739   2.494  32.549  0.1801 -0.0015  0.0660
 1074BOLB   C4B25764  23.158   2.541  32.896 -0.2906 -0.0257  0.2432
 1074BOLB   NC225765  25.356   2.156  34.467  0.2098 -0.0450  0.1001
 1074BOLB   PO225766  25.113   2.465  34.310 -0.1216 -0.1534  0.2458
 1074BOLB   GL325767  24.965   2.432  33.850 -0.2524 -0.0169 -0.1886
 1074BOLB   GL425768  25.150   2.521  33.630  0.0321  0.1477  0.3071
 1074BOLB   C1C25769  24.768   2.264  33.498  0.1881  0.1697  0.1167
 1074BOLB   C2C25770  24.700   2.510  33.089 -0.2073 -0.0414 -0.0818
 1074BOLB   C3C25771  24.334   2.642  32.920  0.3651 -0.1057 -0.1328
 1074BOLB   C4C25772  23.897   2.551  32.633 -0.1325 -0.1335 -0.2558
 1074BOLB   C1D25773  24.798   2.796  33.473 -0.1848 -0.2023 -0.0200
 1074BOLB   C2D25774  24.476   2.962  33.226  0.0442 -0.1826 -0.1706
 1074BOLB   C3D25775  24.055   3.049  32.946 -0.0537  0.0218  0.1282
 1074BOLB   C4D25776  23.888   3.083  32.540  0.1740 -0.0550  0.0182
 1075BOLB   NC125777   8.569   4.364  29.261  0.2862  0.0421  0.0628
 1075BOLB   PO125778   8.323   4.028  29.495 -0.1629 -0.2024  0.0125
 1075BOLB   GL125779   7.936   3.908  29.694 -0.2187  0.0846 -0.0599
 1075BOLB   GL225780   7.690   4.126  29.895 -0.0069 -0.0869  0.1992
 1075BOLB   C1A25781   7.528   3.658  29.755  0.2122  0.5524  0.1396
 1075BOLB   C2A25782   7.033   3.616  29.662 -0.1545  0.0112  0.2681
 1075BOLB   C3A25783   6.680   3.851  29.857 -0.3523  0.3534  0.3663
 1075BOLB   C4A25784   6.187   3.939  29.747  0.0659 -0.0061 -0.0184
 1075BOLB   C1B25785   7.481   3.981  30.259  0.1184  0.0524 -0.2392
 1075BOLB   C2B25786   7.369   3.738  30.567 -0.1809  0.0183 -0.0758
 1075BOLB   C3B25787   7.190   3.517  30.868 -0.0162 -0.1975 -0.0070
 1075BOLB   C4B25788   6.977   3.541  31.223 -0.1726  0.1480  0.0973
 1075BOLB   NC225789   4.263   3.962  31.012 -0.0697 -0.2692  0.0889
 1075BOLB   PO225790   4.319   4.414  31.083  0.1526  0.1134  0.2188
 1075BOLB   GL325791   4.556   4.223  30.720 -0.0348  0.2422 -0.0002
 1075BOLB   GL425792   4.867   3.976  30.873 -0.2229  0.1385 -0.0890
 1075BOLB   C1C25793   4.785   4.248  30.318 -0.2228 -0.2322  0.0209
 1075BOLB   C2C25794   5.143   4.167  30.131 -0.1077  0.5092 -0.1972
 1075BOLB   C3C25795   5.543   4.226  30.011  0.4020  0.3607  0.1148
 1075BOLB   C4C25796   5.809   4.030  29.813  0.1479 -0.0009 -0.1504
 1075BOLB   C1D25797   5.389   4.043  30.678 -0.0900 -0.3636 -0.0339
 1075BOLB   C2D25798   5.758   4.187  30.482 -0.0710  0.1660  0.0868
 1075BOLB   C3D25799   6.046   4.332  30.169  0.1829 -0.0089  0.0918
 1075BOLB   C4D25800   6.027   4.510  29.771 -0.2106 -0.2076  0.3043
 1076BOLB   NC125801  22.007   1.944  18.495  0.1506 -0.0735  0.0678
 1076BOLB   PO125802  21.971   1.558  18.644 -0.3943 -0.1911 -0.1820
 1076BOLB   GL125803  22.307   1.219  18.616 -0.2092  0.0206  0.4074
 1076BOLB   GL225804  22.684   1.235  18.505  0.0204  0.0112 -0.0622
 1076BOLB   C1A25805  22.241   0.815  18.398  0.2988 -0.4093  0.3209
 1076BOLB   C2A25806  22.620   0.477  18.434  0.3305 -0.2062  0.1895
 1076BOLB   C3A25807  22.608   0.149  18.830 -0.4456  0.1195  0.1830
 1076BOLB   C4A25808  22.341  -0.214  19.083  0.0678 -0.2536  0.2817
 1076BOLB   C1B25809  22.420   1.243  18.104 -0.0652 -0.3067 -0.1215
 1076BOLB   C2B25810  22.227   1.504  17.862  0.2286 -0.2337  0.0506
 1076BOLB   C3B25811  22.182   1.376  17.359  0.0444 -0.2076 -0.0526
 1076BOLB   C4B25812  21.956   1.120  17.063  0.1521 -0.0711 -0.1638
 1076BOLB   NC225813  21.528  -0.612  20.913 -0.0044  0.1833  0.4139
 1076BOLB   PO225814  21.609  -0.905  20.640  0.1040 -0.0874 -0.0375
 1076BOLB   GL325815  21.614  -1.209  20.354  0.0180 -0.1142 -0.1182
 1076BOLB   GL425816  21.291  -1.347  20.373 -0.0634  0.0308 -0.0868
 1076BOLB   C1C25817  21.669  -1.248  19.900 -0.0330  0.3398  0.0316
 1076BOLB   C2C25818  21.606  -0.975  19.656 -0.1037 -0.0289 -0.1242
 1076BOLB   C3C25819  21.849  -0.742  19.414  0.3594 -0.0668 -0.3673
 1076BOLB   C4C25820  22.120  -0.471  19.385  0.0766 -0.0013 -0.0906
 1076BOLB   C1D25821  21.351  -1.659  20.033  0.0764 -0.0396 -0.1662
 1076BOLB   C2D25822  21.380  -1.795  19.674 -0.1427 -0.1569  0.1774
 1076BOLB   C3D25823  21.334  -1.940  19.251  0.0064  0.2035 -0.2985
 1076BOLB   C4D25824  20.883  -2.008  19.088  0.2783  0.0536  0.1115
 1077BOLB   NC125825   9.872   8.573  30.564 -0.1072  0.2772 -0.0468
 1077BOLB   PO125826   9.962   9.011  30.796 -0.1966 -0.0662  0.1441
 1077BOLB   GL125827  10.147   9.386  31.023  0.2514 -0.0522  0.1078
 1077BOLB   GL225828  10.001   9.364  31.368 -0.0135 -0.1295 -0.2288
 1077BOLB   C1A25829   9.955   9.827  31.132 -0.0781  0.0571 -0.2114
 1077BOLB   C2A25830   9.939  10.238  31.201  0.3806  0.3188  0.0548
 1077BOLB   C3A25831   9.932  10.348  31.574 -0.0679  0.1455 -0.1211
 1077BOLB   C4A25832   9.528  10.299  31.830  0.1196 -0.0516  0.0988
 1077BOLB   C1B25833   9.843   9.714  31.576  0.0521  0.1809  0.0951
 1077BOLB   C2B25834   9.539   9.996  31.412  0.0967 -0.3062 -0.0895
 1077BOLB   C3B25835   9.474  10.453  31.364 -0.1438 -0.1248 -0.3593
 1077BOLB   C4B25836   9.234  10.758  31.514 -0.1642  0.0332 -0.0722
 1077BOLB   NC225837   7.039  10.971  32.299  0.2521  0.1622 -0.1516
 1077BOLB   PO225838   7.387  10.875  32.569  0.0996 -0.0819 -0.1769
 1077BOLB   GL325839   7.672  10.687  32.465 -0.0268 -0.2094 -0.1453
 1077BOLB   GL425840   7.627  10.325  32.411  0.1369  0.3062  0.0639
 1077BOLB   C1C25841   8.091  10.496  32.425  0.0146  0.1893  0.0321
 1077BOLB   C2C25842   8.320  10.461  32.048  0.1270  0.3551 -0.0673
 1077BOLB   C3C25843   8.681  10.418  31.955  0.2380 -0.2157 -0.1213
 1077BOLB   C4C25844   9.189  10.492  31.914  0.1942  0.2259 -0.0586
 1077BOLB   C1D25845   7.930  10.021  32.307 -0.0386 -0.0930 -0.2480
 1077BOLB   C2D25846   8.291   9.967  32.096 -0.2456 -0.2296 -0.1252
 1077BOLB   C3D25847   8.598   9.735  32.258  0.1883  0.1405  0.3386
 1077BOLB   C4D25848   8.996   9.640  32.112  0.1001 -0.0046  0.1942
 1078BOLB   NC125849  24.672   5.577  26.552 -0.1004 -0.1745  0.2051
 1078BOLB   PO125850  24.759   5.319  26.145 -0.1864 -0.3099 -0.1459
 1078BOLB   GL125851  25.184   5.237  25.943  0.0176  0.0812  0.1885
 1078BOLB   GL225852  25.486   5.419  25.828 -0.2789 -0.1795 -0.1760
 1078BOLB   C1A25853  25.466   4.816  25.876  0.0270 -0.1968 -0.0666
 1078BOLB   C2A25854  25.870   4.775  26.082  0.0439 -0.0973 -0.1974
 1078BOLB   C3A25855  26.250   4.649  26.263  0.2329  0.1506  0.0239
 1078BOLB   C4A25856  26.646   4.596  26.452 -0.2953 -0.0019 -0.4235
 1078BOLB   C1B25857  25.821   5.330  26.026  0.0093 -0.0070  0.2211
 1078BOLB   C2B25858  26.100   5.430  26.408  0.1613 -0.0825  0.1834
 1078BOLB   C3B25859  26.431   5.705  26.408  0.0851 -0.2611 -0.0928
 1078BOLB   C4B25860  26.791   5.934  26.470  0.0962 -0.1182 -0.2074
 1078BOLB   NC225861  28.970   5.090  27.987 -0.0728 -0.0969  0.1878
 1078BOLB   PO225862  28.934   4.833  27.623 -0.1135 -0.1269  0.0343
 1078BOLB   GL325863  28.550   4.971  27.511 -0.1955  0.1493 -0.1360
 1078BOLB   GL425864  28.423   4.764  27.661 -0.2023 -0.1896 -0.0198
 1078BOLB   C1C25865  28.127   5.014  27.217  0.0769  0.4218 -0.1299
 1078BOLB   C2C25866  27.625   4.865  27.236  0.1381 -0.1836  0.0059
 1078BOLB   C3C25867  27.353   4.805  26.883 -0.2727 -0.1364 -0.0450
 1078BOLB   C4C25868  26.898   4.901  26.663  0.1499  0.1862 -0.0597
 1078BOLB   C1D25869  28.156   5.193  27.702 -0.3006 -0.1183 -0.2109
 1078BOLB   C2D25870  27.956   5.664  27.726  0.1932 -0.0250  0.2919
 1078BOLB   C3D25871  27.859   6.072  27.719  0.1490  0.1673 -0.0380
 1078BOLB   C4D25872  27.519   6.345  27.758 -0.0160 -0.2145  0.0570
 1079BOLB   NC125873  15.856  12.059  29.450 -0.0165  0.1469  0.3431
 1079BOLB   PO125874  15.499  11.891  29.716  0.2983 -0.0458  0.0028
 1079BOLB   GL125875  15.549  12.308  29.977 -0.0413  0.1762  0.1210
 1079BOLB   GL225876  15.908  12.283  29.971  0.1737 -0.0098  0.0870
 1079BOLB   C1A25877  15.690  12.635  30.234 -0.1770 -0.0292  0.0471
 1079BOLB   C2A25878  15.757  12.902  30.597  0.1858  0.3278  0.3661
 1079BOLB   C3A25879  15.623  12.897  31.007 -0.1767 -0.0822  0.0999
 1079BOLB   C4A25880  15.411  13.063  31.398  0.1923  0.2027 -0.2877
 1079BOLB   C1B25881  16.081  12.706  29.673 -0.2596  0.3054 -0.2219
 1079BOLB   C2B25882  15.944  13.106  29.564 -0.0106  0.2264 -0.0155
 1079BOLB   C3B25883  15.712  13.389  29.429  0.2377 -0.6183 -0.1411
 1079BOLB   C4B25884  15.430  13.593  29.112  0.2777 -0.0556  0.0254
 1079BOLB   NC225885  16.354  14.811  32.212 -0.0675  0.0574  0.3332
 1079BOLB   PO225886  16.745  14.696  32.133  0.0736  0.0653  0.1456
 1079BOLB   GL325887  16.629  14.342  32.087 -0.2434  0.3181  0.2422
 1079BOLB   GL425888  16.768  14.322  31.798  0.0194  0.0713  0.0922
 1079BOLB   C1C25889  16.278  14.152  32.119 -0.0837 -0.0178 -0.0426
 1079BOLB   C2C25890  15.887  13.974  32.087  0.0826 -0.2075  0.1904
 1079BOLB   C3C25891  15.725  13.675  31.796  0.2046 -0.0263 -0.0236
 1079BOLB   C4C25892  15.598  13.307  31.738 -0.1144 -0.1674  0.2354
 1079BOLB   C1D25893  16.601  13.957  31.556 -0.1011  0.3631  0.0509
 1079BOLB   C2D25894  16.262  13.747  31.404 -0.1483  0.0478  0.1283
 1079BOLB   C3D25895  16.212  13.604  31.049  0.2916 -0.1219  0.0584
 1079BOLB   C4D25896  16.034  13.288  30.759  0.2581 -0.0693 -0.2195
 1080BOLB   NC125897  13.838  -3.813  23.177  0.0036 -0.0267 -0.0971
 1080BOLB   PO125898  14.071  -4.178  23.209 -0.0705 -0.0004  0.0022
 1080BOLB   GL125899  14.245  -4.581  23.332  0.1837 -0.0586  0.1920
 1080BOLB   GL225900  13.980  -4.722  23.403  0.0347  0.0522 -0.0830
 1080BOLB   C1A25901  14.359  -4.992  23.331 -0.0010  0.1854  0.1398
 1080BOLB   C2A25902  14.494  -5.444  23.307 -0.1882 -0.3554 -0.1297
 1080BOLB   C3A25903  14.338  -5.793  23.439 -0.0307 -0.0948  0.1714
 1080BOLB   C4A25904  14.246  -6.132  23.690  0.1385 -0.3189 -0.1877
 1080BOLB   C1B25905  13.835  -5.070  23.341 -0.0757 -0.0068  0.1484
 1080BOLB   C2B25906  13.760  -5.568  23.362  0.0481  0.1087  0.1128
 1080BOLB   C3B25907  13.902  -5.947  23.275  0.0154 -0.1555 -0.0579
 1080BOLB   C4B25908  13.634  -6.308  23.323  0.1636 -0.2598  0.3261
 1080BOLB   NC225909  13.720  -8.411  23.434  0.1480  0.1109  0.2230
 1080BOLB   PO225910  13.515  -8.390  23.066 -0.0895  0.2133  0.2864
 1080BOLB   GL325911  13.481  -7.923  23.057 -0.5396 -0.2358 -0.0357
 1080BOLB   GL425912  13.778  -7.986  23.093 -0.0030 -0.2999  0.0928
 1080BOLB   C1C25913  13.529  -7.553  23.276  0.1539  0.1197  0.2144
 1080BOLB   C2C25914  13.535  -7.115  23.553  0.0252 -0.0230  0.1593
 1080BOLB   C3C25915  13.866  -6.850  23.490 -0.1224  0.3083 -0.0517
 1080BOLB   C4C25916  14.002  -6.476  23.614  0.0138  0.0161 -0.5189
 1080BOLB   C1D25917  14.008  -7.713  23.177  0.0355 -0.1923  0.2439
 1080BOLB   C2D25918  14.068  -7.315  23.321 -0.0227  0.1199 -0.1476
 1080BOLB   C3D25919  14.167  -6.877  23.104  0.1448  0.0661 -0.1234
 1080BOLB   C4D25920  14.195  -6.523  23.140  0.0440  0.1704 -0.0829
 1081BOLB   NC125921  11.896   5.613  13.441 -0.0258  0.2583  0.0247
 1081BOLB   PO125922  11.505   5.653  13.548  0.0050  0.0329 -0.2441
 1081BOLB   GL125923  11.808   5.550  13.954 -0.1551  0.4696 -0.1772
 1081BOLB   GL225924  11.584   5.443  14.232  0.1133 -0.0817  0.3928
 1081BOLB   C1A25925  12.074   5.320  14.208 -0.0151  0.0579 -0.3054
 1081BOLB   C2A25926  12.119   5.178  14.629 -0.1379  0.0334  0.1249
 1081BOLB   C3A25927  12.156   5.408  14.962 -0.0940 -0.3057  0.2933
 1081BOLB   C4A25928  11.919   5.470  15.320  0.1821 -0.0896 -0.0439
 1081BOLB   C1B25929  11.934   5.700  14.453 -0.1599  0.0534  0.0864
 1081BOLB   C2B25930  12.376   5.756  14.635 -0.1019  0.1239  0.1159
 1081BOLB   C3B25931  12.804   5.738  14.593 -0.2075  0.5681 -0.0929
 1081BOLB   C4B25932  13.084   5.456  14.670 -0.0729  0.2182  0.0396
 1081BOLB   NC225933  13.012   5.709  17.492 -0.3144 -0.1436  0.0602
 1081BOLB   PO225934  13.120   5.348  17.400  0.2341 -0.3591  0.0084
 1081BOLB   GL325935  12.972   5.144  16.962 -0.1462  0.1888  0.1850
 1081BOLB   GL425936  12.859   4.905  17.072  0.1063 -0.2266  0.1914
 1081BOLB   C1C25937  12.815   5.404  16.582  0.2020 -0.0587 -0.2010
 1081BOLB   C2C25938  12.444   5.417  16.277  0.2297  0.1213  0.2936
 1081BOLB   C3C25939  12.053   5.433  16.117 -0.1841  0.0131  0.2465
 1081BOLB   C4C25940  11.877   5.317  15.764 -0.0233  0.1656  0.2707
 1081BOLB   C1D25941  12.674   4.783  16.693  0.3908  0.3023 -0.0438
 1081BOLB   C2D25942  12.702   5.005  16.302  0.1089 -0.0739  0.1576
 1081BOLB   C3D25943  12.712   5.209  15.880 -0.3734  0.0605 -0.6834
 1081BOLB   C4D25944  12.361   5.267  15.668 -0.0121  0.0338 -0.0483
 1082BOLB   NC125945  21.857   5.942  18.409 -0.0573 -0.1851  0.0163
 1082BOLB   PO125946  21.690   5.781  18.082  0.1298 -0.1194  0.1956
 1082BOLB   GL125947  21.875   5.997  17.881  0.1048  0.0345  0.2570
 1082BOLB   GL225948  21.933   5.877  17.660 -0.0900  0.0765  0.0596
 1082BOLB   C1A25949  22.124   6.415  17.944  0.2018 -0.2727 -0.0393
 1082BOLB   C2A25950  22.443   6.671  17.691  0.0681 -0.1034 -0.4154
 1082BOLB   C3A25951  22.796   6.609  17.386  0.0586  0.1916 -0.2687
 1082BOLB   C4A25952  23.111   6.583  17.045 -0.0534  0.0872 -0.1847
 1082BOLB   C1B25953  22.190   5.729  17.259  0.0474 -0.0483 -0.2140
 1082BOLB   C2B25954  22.140   5.716  16.787 -0.1621 -0.2411 -0.3405
 1082BOLB   C3B25955  22.350   5.547  16.528 -0.3194 -0.0305  0.2173
 1082BOLB   C4B25956  22.614   5.356  16.301 -0.0592  0.2488  0.0959
 1082BOLB   NC225957  24.474   6.327  14.872 -0.2491 -0.1104  0.0786
 1082BOLB   PO225958  24.201   6.637  14.876  0.2565  0.3792 -0.3171
 1082BOLB   GL325959  23.949   6.841  15.175 -0.3442  0.0284 -0.1403
 1082BOLB   GL425960  23.733   6.627  15.227 -0.2485 -0.1228  0.1233
 1082BOLB   C1C25961  23.931   6.968  15.612  0.2523  0.0193  0.0804
 1082BOLB   C2C25962  23.769   6.898  16.068  0.0392  0.1655 -0.0852
 1082BOLB   C3C25963  23.527   6.878  16.453  0.2165 -0.0773  0.0331
 1082BOLB   C4C25964  23.230   6.596  16.630 -0.1527  0.3980 -0.1303
 1082BOLB   C1D25965  23.792   6.420  15.624  0.0397  0.0452  0.3514
 1082BOLB   C2D25966  23.708   6.457  16.029 -0.1176  0.2096  0.1418
 1082BOLB   C3D25967  23.542   6.169  16.320 -0.0435 -0.0565 -0.2153
 1082BOLB   C4D25968  23.307   6.153  16.800  0.2692 -0.0362  0.0158
 1083BOLB   NC125969  10.538  -0.856  29.791 -0.0639  0.0691 -0.2408
 1083BOLB   PO125970  10.821  -1.087  29.436 -0.1977  0.1851  0.1876
 1083BOLB   GL125971  10.754  -1.451  29.685  0.1401  0.6820 -0.2737
 1083BOLB   GL225972  10.790  -1.733  29.605  0.0412 -0.1305  0.0656
 1083BOLB   C1A25973  10.503  -1.539  30.024 -0.0099 -0.0362 -0.3889
 1083BOLB   C2A25974  10.083  -1.562  30.272  0.0194  0.1611  0.2943
 1083BOLB   C3A25975  10.037  -1.817  30.659  0.0311 -0.1382  0.0095
 1083BOLB   C4A25976   9.808  -2.085  30.887 -0.0272  0.2302 -0.2182
 1083BOLB   C1B25977  10.792  -2.018  29.911  0.1082 -0.2054 -0.2982
 1083BOLB   C2B25978  10.453  -2.043  30.074  0.0605 -0.1412 -0.0452
 1083BOLB   C3B25979   9.988  -2.097  30.214 -0.0193 -0.1809 -0.1306
 1083BOLB   C4B25980   9.600  -1.933  30.327  0.1702 -0.0293  0.3484
 1083BOLB   NC225981   8.405  -3.047  33.082  0.2289 -0.1028 -0.0155
 1083BOLB   PO225982   8.429  -2.707  32.756 -0.1531 -0.2892  0.1779
 1083BOLB   GL325983   8.820  -2.709  32.414 -0.0129  0.3540 -0.2001
 1083BOLB   GL425984   9.012  -2.548  32.702  0.0458 -0.0578 -0.0147
 1083BOLB   C1C25985   8.930  -2.636  31.989 -0.1509 -0.0824  0.1659
 1083BOLB   C2C25986   9.242  -2.402  31.681 -0.1046  0.0678  0.1619
 1083BOLB   C3C25987   9.179  -2.144  31.303 -0.1210  0.1452 -0.1403
 1083BOLB   C4C25988   9.468  -2.306  31.073  0.0193  0.0797  0.2018
 1083BOLB   C1D25989   9.155  -2.336  32.336 -0.3747  0.1930  0.1305
 1083BOLB   C2D25990   9.130  -2.022  32.073 -0.0912 -0.3611  0.0681
 1083BOLB   C3D25991   9.426  -1.966  31.759  0.1276  0.0015  0.0248
 1083BOLB   C4D25992   9.797  -1.994  31.469 -0.0615 -0.2109 -0.0433
 1084BOLB   NC125993  15.428  -3.982  25.753 -0.1628  0.0301  0.0349
 1084BOLB   PO125994  15.631  -4.410  25.635 -0.0520 -0.1836  0.0221
 1084BOLB   GL125995  15.864  -4.699  25.654 -0.0542  0.1792 -0.0131
 1084BOLB   GL225996  16.011  -4.721  25.352  0.4008 -0.1314 -0.0118
 1084BOLB   C1A25997  15.609  -5.020  25.737 -0.2786 -0.0140 -0.0536
 1084BOLB   C2A25998  15.397  -5.337  25.730  0.2687 -0.0688 -0.3005
 1084BOLB   C3A25999  15.363  -5.667  25.963  0.2378 -0.2459 -0.1866
 1084BOLB   C4A26000  15.335  -5.952  26.315 -0.1549 -0.3185 -0.0814
 1084BOLB   C1B26001  15.912  -5.051  25.310 -0.2102 -0.0132 -0.0528
 1084BOLB   C2B26002  15.783  -5.433  25.448  0.1191  0.1869  0.0039
 1084BOLB   C3B26003  15.854  -5.676  25.817 -0.2364 -0.5665  0.0428
 1084BOLB   C4B26004  15.609  -6.088  25.870 -0.1711  0.0967  0.0299
 1084BOLB   NC226005  16.066  -8.636  25.553 -0.1271  0.2462  0.3322
 1084BOLB   PO226006  15.760  -8.426  25.898  0.1290 -0.2543  0.2072
 1084BOLB   GL326007  15.620  -7.962  25.960 -0.3766  0.1698 -0.1569
 1084BOLB   GL426008  15.834  -7.725  25.759 -0.1638  0.1832 -0.1398
 1084BOLB   C1C26009  15.647  -7.612  26.307 -0.1957 -0.1641  0.5592
 1084BOLB   C2C26010  15.514  -7.225  26.392 -0.1174  0.0436  0.3331
 1084BOLB   C3C26011  15.508  -6.789  26.162 -0.1463 -0.1725 -0.2958
 1084BOLB   C4C26012  15.454  -6.470  26.425  0.1693 -0.0760 -0.0498
 1084BOLB   C1D26013  15.634  -7.366  25.876 -0.1898 -0.1310  0.1236
 1084BOLB   C2D26014  15.273  -7.024  25.803 -0.2712  0.2358  0.3469
 1084BOLB   C3D26015  15.001  -6.785  25.517  0.0203 -0.1079 -0.2402
 1084BOLB   C4D26016  14.880  -6.376  25.485 -0.0793  0.1754 -0.5640
 1085BOLB   NC126017  16.128  10.086  30.628  0.0742  0.0627 -0.0240
 1085BOLB   PO126018  16.200  10.507  30.685 -0.1478 -0.1107  0.3237
 1085BOLB   GL126019  16.344  10.897  31.097  0.0363 -0.0888  0.1891
 1085BOLB   GL226020  16.468  11.148  30.846  0.0119  0.0404  0.1322
 1085BOLB   C1A26021  16.187  11.084  31.453 -0.6015  0.1161 -0.0696
 1085BOLB   C2A26022  16.371  11.379  31.849 -0.3464 -0.3363 -0.0042
 1085BOLB   C3A26023  16.642  11.670  32.180 -0.1871  0.3410  0.0739
 1085BOLB   C4A26024  16.681  12.151  32.170  0.2040 -0.0655 -0.0077
 1085BOLB   C1B26025  16.325  11.517  31.143 -0.1987  0.1540  0.0589
 1085BOLB   C2B26026  16.412  11.953  31.330 -0.0480 -0.2044 -0.1193
 1085BOLB   C3B26027  16.547  12.220  31.656 -0.1214  0.1182  0.3678
 1085BOLB   C4B26028  16.446  12.658  31.753  0.2245  0.1267 -0.1810
 1085BOLB   NC226029  17.548  14.411  32.844 -0.0933  0.2429 -0.2529
 1085BOLB   PO226030  17.274  14.327  33.041 -0.0316 -0.1265  0.0506
 1085BOLB   GL326031  17.440  13.939  33.105 -0.0135  0.3589 -0.2812
 1085BOLB   GL426032  17.302  13.812  33.420 -0.0348  0.2495  0.3940
 1085BOLB   C1C26033  17.335  13.531  32.848  0.1813  0.0339  0.1395
 1085BOLB   C2C26034  17.210  13.093  32.713 -0.2346 -0.2847  0.0070
 1085BOLB   C3C26035  16.949  12.829  32.462  0.0935 -0.0113  0.0663
 1085BOLB   C4C26036  16.653  12.642  32.246 -0.1669 -0.0846 -0.1912
 1085BOLB   C1D26037  17.033  13.731  33.212 -0.0996 -0.0571  0.2410
 1085BOLB   C2D26038  16.886  13.360  33.089 -0.1121 -0.0400 -0.1889
 1085BOLB   C3D26039  16.754  12.951  32.924  0.2787 -0.0518 -0.1447
 1085BOLB   C4D26040  16.623  12.558  32.701 -0.3989 -0.0745  0.1978
 1086BOLB   NC126041  27.137  -1.757  17.516  0.1508  0.1039  0.3799
 1086BOLB   PO126042  26.799  -1.876  17.226  0.0412  0.0129  0.2022
 1086BOLB   GL126043  26.313  -2.032  17.093  0.2576 -0.4799 -0.2200
 1086BOLB   GL226044  26.192  -1.791  17.126  0.3345 -0.0603 -0.1958
 1086BOLB   C1A26045  26.038  -2.223  16.909  0.1646  0.0823  0.1348
 1086BOLB   C2A26046  25.661  -2.298  17.139  0.2464  0.1860  0.0018
 1086BOLB   C3A26047  25.295  -2.507  17.057 -0.0772 -0.1651  0.1615
 1086BOLB   C4A26048  25.016  -2.452  16.757  0.0859  0.3981 -0.0673
 1086BOLB   C1B26049  25.717  -1.784  17.271 -0.1808 -0.0829  0.2618
 1086BOLB   C2B26050  25.371  -1.482  17.321  0.2126  0.1410 -0.3590
 1086BOLB   C3B26051  25.261  -1.128  17.548  0.0035 -0.2509 -0.0006
 1086BOLB   C4B26052  24.868  -1.176  17.454  0.2161  0.0783  0.1352
 1086BOLB   NC226053  27.156  -2.559  16.587  0.0611 -0.0121  0.1157
 1086BOLB   PO226054  27.302  -2.894  16.593 -0.1176 -0.3647 -0.0016
 1086BOLB   GL326055  26.801  -2.904  16.388  0.2439 -0.2626  0.2614
 1086BOLB   GL426056  26.804  -2.607  16.161 -0.2498 -0.1039  0.0531
 1086BOLB   C1C26057  26.351  -2.800  16.356 -0.2708  0.1260  0.1149
 1086BOLB   C2C26058  25.946  -2.749  16.383 -0.0705  0.1951  0.2201
 1086BOLB   C3C26059  25.459  -2.704  16.301  0.0231 -0.4854 -0.0510
 1086BOLB   C4C26060  25.150  -2.574  16.349 -0.0267 -0.0572  0.0902
 1086BOLB   C1D26061  26.567  -2.331  16.084 -0.0347 -0.0100 -0.0309
 1086BOLB   C2D26062  26.264  -2.300  15.793 -0.0824 -0.0902  0.1139
 1086BOLB   C3D26063  26.225  -2.488  15.343 -0.1064 -0.0174 -0.0616
 1086BOLB   C4D26064  26.325  -2.745  15.021 -0.2732 -0.0270 -0.0041
 1087BOLB   NC126065  17.589  10.474  36.469  0.1843  0.3313  0.0285
 1087BOLB   PO126066  17.800  10.217  36.381 -0.1936 -0.0891 -0.0392
 1087BOLB   GL126067  17.892  10.058  36.033 -0.5641 -0.5062  0.1846
 1087BOLB   GL226068  18.210  10.033  36.012  0.0403 -0.2804 -0.2124
 1087BOLB   C1A26069  17.662   9.893  35.656 -0.2950  0.0134  0.2337
 1087BOLB   C2A26070  17.296   9.984  35.405  0.3451 -0.2344  0.3032
 1087BOLB   C3A26071  17.039  10.120  34.953 -0.2337 -0.0210 -0.0156
 1087BOLB   C4A26072  16.713  10.259  34.622  0.0792  0.0637  0.0825
 1087BOLB   C1B26073  18.131  10.157  35.528  0.0358 -0.2149 -0.1399
 1087BOLB   C2B26074  18.250  10.220  35.178 -0.3045  0.0841  0.2720
 1087BOLB   C3B26075  18.101  10.477  34.859 -0.2574  0.1029 -0.0433
 1087BOLB   C4B26076  17.923  10.296  34.582 -0.0091 -0.2089  0.1396
 1087BOLB   NC226077  17.518  11.272  36.534 -0.0700  0.1760  0.0569
 1087BOLB   PO226078  17.640  11.383  36.096  0.2340 -0.1241 -0.0032
 1087BOLB   GL326079  17.486  11.450  35.664  0.2006 -0.3248 -0.0309
 1087BOLB   GL426080  17.797  11.282  35.563 -0.1909  0.1404  0.0785
 1087BOLB   C1C26081  17.377  11.537  35.211  0.0747 -0.0062 -0.0404
 1087BOLB   C2C26082  17.007  11.348  35.031 -0.0311 -0.1648 -0.0984
 1087BOLB   C3C26083  16.953  11.057  34.672  0.2652 -0.1354 -0.0544
 1087BOLB   C4C26084  16.696  10.652  34.562  0.1988  0.2430 -0.1697
 1087BOLB   C1D26085  17.905  11.161  35.041 -0.1550 -0.0248  0.1658
 1087BOLB   C2D26086  17.858  11.003  34.636  0.0107  0.1721 -0.1796
 1087BOLB   C3D26087  17.750  10.682  34.362  0.1525 -0.2561  0.1587
 1087BOLB   C4D26088  17.585  10.425  33.960  0.0323  0.4580  0.1036
 1088BOLB   NC126089  18.658   0.340  31.741 -0.3891 -0.0432 -0.3258
 1088BOLB   PO126090  18.276   0.158  31.702  0.1413 -0.1103 -0.1477
 1088BOLB   GL126091  18.250  -0.045  32.125 -0.0541  0.1202  0.0371
 1088BOLB   GL226092  18.063  -0.106  32.379  0.0659 -0.0689  0.0626
 1088BOLB   C1A26093  18.508  -0.363  32.408 -0.1685  0.0491 -0.0826
 1088BOLB   C2A26094  18.923  -0.401  32.664  0.1985 -0.2279  0.2535
 1088BOLB   C3A26095  19.219  -0.623  32.729  0.1268  0.0941  0.3870
 1088BOLB   C4A26096  19.426  -0.813  33.087 -0.0189  0.0599 -0.0593
 1088BOLB   C1B26097  18.039  -0.299  32.700 -0.0393  0.1580  0.0558
 1088BOLB   C2B26098  17.992  -0.637  33.049  0.1632 -0.1398  0.0749
 1088BOLB   C3B26099  17.621  -0.950  33.061 -0.0983  0.0683  0.1680
 1088BOLB   C4B26100  17.282  -1.129  32.780 -0.1566  0.1793 -0.2479
 1088BOLB   NC226101  19.805  -1.841  35.141 -0.0881 -0.1176  0.2044
 1088BOLB   PO226102  19.940  -2.196  34.891 -0.0999 -0.3812 -0.2646
 1088BOLB   GL326103  20.042  -2.039  34.472  0.2484  0.0057 -0.0352
 1088BOLB   GL426104  20.069  -1.747  34.687  0.2962 -0.0385  0.1112
 1088BOLB   C1C26105  20.040  -1.902  34.052 -0.2814 -0.1619 -0.1571
 1088BOLB   C2C26106  20.082  -1.639  33.688  0.2672 -0.1899  0.4419
 1088BOLB   C3C26107  20.023  -1.320  33.298  0.1200 -0.1371 -0.1065
 1088BOLB   C4C26108  19.813  -0.913  33.236  0.1143  0.0490 -0.2671
 1088BOLB   C1D26109  20.115  -1.448  34.333  0.4300  0.2726 -0.0251
 1088BOLB   C2D26110  19.931  -1.293  34.082  0.4411  0.2602 -0.1526
 1088BOLB   C3D26111  19.825  -1.181  33.709 -0.2018  0.2562 -0.0978
 1088BOLB   C4D26112  19.529  -0.905  33.716  0.1922  0.1525  0.2590
 1089BOLB   NC126113  19.439  -0.595  29.876 -0.0547 -0.2165  0.0073
 1089BOLB   PO126114  19.709  -0.562  30.245 -0.3922  0.0939 -0.0557
 1089BOLB   GL126115  19.719  -0.873  30.637  0.2846 -0.2703  0.0977
 1089BOLB   GL226116  19.595  -0.855  31.007  0.1737 -0.1726 -0.2868
 1089BOLB   C1A26117  19.733  -1.269  30.790 -0.2800 -0.0595 -0.0484
 1089BOLB   C2A26118  19.775  -1.660  30.736 -0.0151 -0.3221 -0.0585
 1089BOLB   C3A26119  19.806  -2.141  30.705  0.0283  0.2172  0.2425
 1089BOLB   C4A26120  20.088  -2.538  30.835 -0.3550 -0.0103  0.0231
 1089BOLB   C1B26121  19.642  -1.021  31.353  0.2340  0.3186  0.1786
 1089BOLB   C2B26122  19.934  -1.270  31.647 -0.2579  0.0584 -0.0464
 1089BOLB   C3B26123  20.390  -1.258  31.865 -0.2119 -0.2804 -0.1386
 1089BOLB   C4B26124  20.574  -1.507  32.075 -0.0508 -0.2084 -0.0355
 1089BOLB   NC226125  22.014  -4.434  31.734  0.0754  0.3195  0.1417
 1089BOLB   PO226126  21.705  -4.086  31.878  0.3508 -0.0527 -0.2401
 1089BOLB   GL326127  21.377  -3.787  31.652 -0.2879 -0.1272 -0.0673
 1089BOLB   GL426128  21.186  -3.709  31.930 -0.3119  0.0420  0.2716
 1089BOLB   C1C26129  21.144  -3.677  31.289  0.0753 -0.2538 -0.0211
 1089BOLB   C2C26130  20.767  -3.475  31.104  0.0218  0.2765 -0.1740
 1089BOLB   C3C26131  20.522  -3.206  30.922 -0.0106  0.0445 -0.4048
 1089BOLB   C4C26132  20.295  -2.861  31.058 -0.0298 -0.0715  0.1467
 1089BOLB   C1D26133  20.854  -3.685  31.752  0.0940 -0.4774  0.2658
 1089BOLB   C2D26134  20.564  -3.353  31.668  0.2573  0.4630 -0.1276
 1089BOLB   C3D26135  20.407  -3.037  31.716  0.1328  0.2640  0.0745
 1089BOLB   C4D26136  20.316  -2.684  31.550  0.0256  0.0230  0.1906
 1090BOLB   NC126137  20.522   3.849  17.241  0.3009 -0.1865  0.2328
 1090BOLB   PO126138  20.743   4.113  17.004 -0.0738  0.0048 -0.1891
 1090BOLB   GL126139  20.718   4.169  16.685 -0.0209  0.3072  0.3419
 1090BOLB   GL226140  20.915   3.916  16.540 -0.0293 -0.0751  0.1530
 1090BOLB   C1A26141  20.796   4.354  16.354  0.1452  0.0368 -0.1811
 1090BOLB   C2A26142  20.850   4.612  16.047 -0.2099 -0.0284 -0.0065
 1090BOLB   C3A26143  20.963   4.874  15.695  0.0559 -0.1041 -0.0348
 1090BOLB   C4A26144  21.009   4.970  15.326  0.4844  0.0574  0.0027
 1090BOLB   C1B26145  21.276   3.986  16.342 -0.0004  0.0812  0.1119
 1090BOLB   C2B26146  21.590   4.191  15.954  0.1717  0.0862  0.2660
 1090BOLB   C3B26147  21.867   4.129  15.688  0.1194  0.1331  0.0106
 1090BOLB   C4B26148  21.872   3.785  15.351  0.2565 -0.2058 -0.1614
 1090BOLB   NC226149  21.966   4.814  13.539  0.1947 -0.3228 -0.1747
 1090BOLB   PO226150  21.645   5.239  13.538  0.0252 -0.3538 -0.2474
 1090BOLB   GL326151  21.398   5.246  13.838  0.1925 -0.1484  0.0586
 1090BOLB   GL426152  21.158   5.134  13.677  0.1607  0.0884 -0.0827
 1090BOLB   C1C26153  21.068   5.063  14.115  0.1816 -0.1090 -0.2546
 1090BOLB   C2C26154  20.801   5.322  14.429  0.2781 -0.0729 -0.1342
 1090BOLB   C3C26155  20.676   5.340  14.768 -0.0186 -0.2649  0.1994
 1090BOLB   C4C26156  20.829   5.241  15.110  0.5225 -0.0907  0.1332
 1090BOLB   C1D26157  20.868   4.789  13.657  0.1839 -0.3163  0.0777
 1090BOLB   C2D26158  20.599   4.595  13.939  0.0720 -0.0119  0.3622
 1090BOLB   C3D26159  20.492   4.386  14.409 -0.2853  0.0691 -0.0891
 1090BOLB   C4D26160  20.501   4.397  14.821 -0.1069 -0.1342 -0.2331
 1091BOLB   NC126161   6.887   1.053  25.496 -0.1252 -0.2052 -0.1011
 1091BOLB   PO126162   6.885   0.927  25.114  0.1106  0.0492  0.1220
 1091BOLB   GL126163   6.613   0.768  25.169 -0.0748 -0.1109 -0.1147
 1091BOLB   GL226164   6.320   0.835  25.029  0.1449 -0.1015  0.1556
 1091BOLB   C1A26165   6.564   0.405  25.322 -0.0561 -0.0662 -0.1911
 1091BOLB   C2A26166   6.151   0.166  25.462 -0.0515 -0.1824 -0.0841
 1091BOLB   C3A26167   5.895  -0.145  25.628 -0.2601 -0.0275  0.0461
 1091BOLB   C4A26168   5.667  -0.523  25.463  0.3852  0.0611 -0.2516
 1091BOLB   C1B26169   5.973   0.611  25.170  0.2105 -0.3466 -0.0118
 1091BOLB   C2B26170   5.686   0.362  25.529 -0.1590 -0.3586  0.1266
 1091BOLB   C3B26171   5.647   0.178  25.938 -0.2763 -0.1402  0.0510
 1091BOLB   C4B26172   5.656  -0.224  26.063 -0.1009 -0.1770 -0.1683
 1091BOLB   NC226173   4.570  -2.923  24.937  0.0691  0.1051 -0.4631
 1091BOLB   PO226174   4.278  -2.509  25.055 -0.2148 -0.1549  0.1133
 1091BOLB   GL326175   4.570  -2.214  25.242 -0.0053  0.2443 -0.0695
 1091BOLB   GL426176   4.755  -2.253  24.940 -0.0005 -0.4284  0.1331
 1091BOLB   C1C26177   4.703  -1.836  25.315  0.0425 -0.0768  0.3178
 1091BOLB   C2C26178   4.908  -1.550  25.106 -0.2679 -0.2314 -0.1526
 1091BOLB   C3C26179   5.212  -1.204  24.987  0.3004  0.1801 -0.1544
 1091BOLB   C4C26180   5.328  -0.793  25.219 -0.3303 -0.0705 -0.0993
 1091BOLB   C1D26181   4.972  -1.928  24.792 -0.2974  0.1128 -0.0279
 1091BOLB   C2D26182   5.205  -1.627  24.658  0.0940 -0.1241  0.3937
 1091BOLB   C3D26183   5.548  -1.334  24.642 -0.0886 -0.0311  0.0595
 1091BOLB   C4D26184   5.598  -1.045  24.244  0.1839  0.0109 -0.3469
 1092BOLB   NC126185  20.861  13.988  20.038 -0.0663 -0.2753  0.0706
 1092BOLB   PO126186  20.687  14.253  20.445  0.5541  0.1939 -0.0259
 1092BOLB   GL126187  20.562  13.791  20.370  0.1639  0.1251  0.1821
 1092BOLB   GL226188  20.890  13.781  20.511 -0.0045  0.0267  0.2940
 1092BOLB   C1A26189  20.622  13.340  20.488  0.1206 -0.1006 -0.2340
 1092BOLB   C2A26190  20.521  13.009  20.791  0.1971  0.1714  0.1464
 1092BOLB   C3A26191  20.419  12.779  21.255 -0.2279  0.4085  0.0277
 1092BOLB   C4A26192  20.130  12.577  21.547  0.0227 -0.0984  0.0029
 1092BOLB   C1B26193  20.662  13.572  20.918  0.4262  0.0577 -0.1064
 1092BOLB   C2B26194  20.735  13.464  21.365 -0.1254  0.3305  0.0150
 1092BOLB   C3B26195  21.075  13.382  21.588  0.4213  0.2245 -0.2985
 1092BOLB   C4B26196  21.176  13.336  22.013 -0.0364  0.0268  0.0866
 1092BOLB   NC226197  18.894  10.777  22.840 -0.0479  0.0242  0.2517
 1092BOLB   PO226198  18.977  11.231  22.691 -0.0465  0.4191  0.0790
 1092BOLB   GL326199  18.837  11.630  22.645 -0.1198 -0.2533  0.1243
 1092BOLB   GL426200  18.552  11.470  22.480  0.1622  0.1648  0.2224
 1092BOLB   C1C26201  18.978  12.005  22.477  0.1994  0.0706 -0.0910
 1092BOLB   C2C26202  19.234  12.282  22.305 -0.1828  0.1160  0.0445
 1092BOLB   C3C26203  19.492  12.299  22.004  0.1653  0.0387 -0.0687
 1092BOLB   C4C26204  19.881  12.434  21.840  0.2192 -0.3285 -0.1907
 1092BOLB   C1D26205  18.643  11.818  22.142 -0.0717  0.2018 -0.3082
 1092BOLB   C2D26206  18.811  12.093  22.010 -0.0074 -0.3792  0.0890
 1092BOLB   C3D26207  19.057  12.283  21.690  0.1024 -0.0782 -0.0902
 1092BOLB   C4D26208  19.528  12.390  21.464  0.2145  0.1629 -0.3554
 1093BOLB   NC126209  16.156  -3.659  23.169 -0.0571  0.1193 -0.0465
 1093BOLB   PO126210  15.847  -4.072  23.102 -0.1313  0.0402 -0.1383
 1093BOLB   GL126211  15.954  -4.508  23.163  0.0428  0.2689 -0.2086
 1093BOLB   GL226212  15.661  -4.579  23.031 -0.3018 -0.4001  0.0985
 1093BOLB   C1A26213  15.939  -4.961  23.340 -0.0180  0.0020  0.1124
 1093BOLB   C2A26214  16.129  -5.425  23.309 -0.0493 -0.2282  0.0971
 1093BOLB   C3A26215  16.192  -5.664  23.621 -0.0348 -0.0247 -0.2009
 1093BOLB   C4A26216  16.124  -6.051  23.747 -0.3408 -0.4093 -0.4757
 1093BOLB   C1B26217  15.513  -4.943  23.093  0.3062  0.5541 -0.1223
 1093BOLB   C2B26218  15.374  -5.391  23.086 -0.2068  0.1185  0.0381
 1093BOLB   C3B26219  15.357  -5.845  23.096 -0.0291 -0.0437 -0.1543
 1093BOLB   C4B26220  15.182  -6.135  22.958  0.3097 -0.1452  0.0533
 1093BOLB   NC226221  14.888  -8.500  23.910 -0.1748  0.0613  0.4157
 1093BOLB   PO226222  15.273  -8.541  23.730 -0.1639 -0.2769 -0.1566
 1093BOLB   GL326223  15.419  -8.087  23.667  0.1315  0.1185  0.0277
 1093BOLB   GL426224  15.620  -8.142  23.561  0.0881  0.1361 -0.0948
 1093BOLB   C1C26225  15.562  -7.710  23.898 -0.1543  0.0948 -0.0440
 1093BOLB   C2C26226  15.821  -7.352  23.861 -0.3509 -0.0179 -0.2607
 1093BOLB   C3C26227  15.956  -6.904  23.841 -0.4903 -0.3385 -0.0322
 1093BOLB   C4C26228  16.065  -6.474  23.707  0.1574 -0.0652 -0.1038
 1093BOLB   C1D26229  15.539  -7.690  23.276  0.0397 -0.0444  0.1571
 1093BOLB   C2D26230  15.438  -7.310  23.356 -0.1208  0.3217 -0.1169
 1093BOLB   C3D26231  15.529  -6.999  23.589 -0.0531  0.0468 -0.1720
 1093BOLB   C4D26232  15.502  -6.649  23.758  0.2999  0.1027  0.1043
 1094BOLB   NC126233  23.714   0.383  25.387  0.2300  0.2378 -0.0101
 1094BOLB   PO126234  23.900   0.167  25.719  0.0397  0.2071  0.1905
 1094BOLB   GL126235  24.369   0.074  25.725  0.0983 -0.0401  0.1594
 1094BOLB   GL226236  24.557  -0.056  25.918  0.1814 -0.1554  0.0828
 1094BOLB   C1A26237  24.895   0.144  25.651 -0.0704  0.1919  0.2217
 1094BOLB   C2A26238  25.174   0.135  26.025 -0.2218 -0.1655  0.2297
 1094BOLB   C3A26239  25.472   0.459  26.264  0.2200 -0.2482 -0.1583
 1094BOLB   C4A26240  25.690   0.467  26.682 -0.0473  0.3109 -0.0068
 1094BOLB   C1B26241  24.868  -0.262  26.200  0.3440 -0.4792  0.1006
 1094BOLB   C2B26242  25.372  -0.448  26.077  0.0234  0.0673  0.2007
 1094BOLB   C3B26243  25.800  -0.351  25.996  0.0394  0.0089 -0.0326
 1094BOLB   C4B26244  25.984  -0.462  25.724  0.3056  0.1210 -0.0025
 1094BOLB   NC226245  28.133  -0.376  27.092  0.3419 -0.2793  0.1959
 1094BOLB   PO226246  28.011  -0.744  27.231 -0.0791  0.4750 -0.1442
 1094BOLB   GL326247  27.601  -0.483  27.001  0.0421  0.4181 -0.0005
 1094BOLB   GL426248  27.682  -0.161  26.939  0.1187  0.2223  0.3574
 1094BOLB   C1C26249  27.210  -0.300  26.797 -0.1731 -0.0686 -0.2360
 1094BOLB   C2C26250  26.722  -0.131  26.859 -0.1288  0.5286 -0.1365
 1094BOLB   C3C26251  26.328  -0.086  26.678 -0.1979 -0.0209  0.2982
 1094BOLB   C4C26252  25.923   0.090  26.776  0.1559 -0.0075 -0.2609
 1094BOLB   C1D26253  27.345   0.096  27.084 -0.0408 -0.0636  0.1783
 1094BOLB   C2D26254  26.919   0.464  27.085  0.0787 -0.0336 -0.4370
 1094BOLB   C3D26255  26.550   0.540  26.883  0.1426 -0.1790  0.0995
 1094BOLB   C4D26256  26.277   0.471  26.691  0.0509 -0.1408 -0.1097
 1095BOLB   NC126257  26.138  -4.270  19.097  0.1318  0.1028  0.0045
 1095BOLB   PO126258  25.985  -4.568  19.145  0.1282  0.1139  0.2504
 1095BOLB   GL126259  25.552  -4.352  19.110 -0.4741  0.0905 -0.2954
 1095BOLB   GL226260  25.537  -4.571  19.485 -0.0873  0.1896  0.2667
 1095BOLB   C1A26261  25.139  -4.051  19.109  0.0255  0.0467 -0.0797
 1095BOLB   C2A26262  24.783  -4.111  19.045  0.0480  0.1556 -0.3469
 1095BOLB   C3A26263  24.623  -4.013  18.594 -0.0715 -0.0662  0.0519
 1095BOLB   C4A26264  24.703  -3.758  18.311  0.0114 -0.1439 -0.0671
 1095BOLB   C1B26265  25.331  -4.790  19.098 -0.0704  0.2555  0.0187
 1095BOLB   C2B26266  25.267  -4.809  18.713  0.2317 -0.0646  0.0583
 1095BOLB   C3B26267  25.201  -5.162  18.475 -0.0977  0.0277  0.0645
 1095BOLB   C4B26268  25.158  -5.498  18.697 -0.3565 -0.2086  0.1684
 1095BOLB   NC226269  26.797  -2.345  18.418  0.1004  0.2902 -0.1870
 1095BOLB   PO226270  26.808  -2.580  17.970  0.1544 -0.2713 -0.0311
 1095BOLB   GL326271  26.536  -2.906  17.874  0.0629 -0.2442 -0.1919
 1095BOLB   GL426272  26.527  -3.150  17.651 -0.0168  0.1164  0.0046
 1095BOLB   C1C26273  26.172  -2.939  18.065  0.2627  0.0915  0.0325
 1095BOLB   C2C26274  25.735  -2.886  17.999  0.0613  0.0529 -0.0390
 1095BOLB   C3C26275  25.351  -3.147  17.971 -0.1440 -0.1879 -0.1314
 1095BOLB   C4C26276  24.971  -3.388  18.101 -0.3451  0.1767  0.2507
 1095BOLB   C1D26277  26.221  -3.335  17.833  0.0520  0.1064  0.1006
 1095BOLB   C2D26278  25.972  -3.635  17.709  0.1792  0.4906 -0.4037
 1095BOLB   C3D26279  25.726  -3.770  17.376  0.1090 -0.1911  0.3413
 1095BOLB   C4D26280  25.695  -3.433  16.900 -0.1440  0.0044 -0.1335
 1096BOLB   NC126281  20.610  -0.319  29.386  0.0008  0.0195  0.4408
 1096BOLB   PO126282  20.327  -0.538  29.698 -0.0968  0.1837 -0.0772
 1096BOLB   GL126283  20.474  -0.903  29.971 -0.0532 -0.1420  0.0985
 1096BOLB   GL226284  20.563  -1.125  29.691 -0.0648  0.2494 -0.0285
 1096BOLB   C1A26285  20.414  -1.330  30.131  0.1599 -0.1776  0.2250
 1096BOLB   C2A26286  20.622  -1.441  30.496  0.1241 -0.5013  0.2205
 1096BOLB   C3A26287  20.749  -1.812  30.856 -0.1572 -0.2141  0.1815
 1096BOLB   C4A26288  20.787  -2.041  31.203  0.1972 -0.1408 -0.1984
 1096BOLB   C1B26289  20.728  -1.524  29.651 -0.2451  0.1209  0.0558
 1096BOLB   C2B26290  21.118  -1.723  29.722 -0.0693  0.1467 -0.2552
 1096BOLB   C3B26291  21.470  -1.975  29.829  0.1959  0.1358  0.2070
 1096BOLB   C4B26292  21.828  -1.992  30.170 -0.1678  0.0298  0.2896
 1096BOLB   NC226293  21.472  -3.857  32.288 -0.1709  0.0494  0.0987
 1096BOLB   PO226294  21.762  -3.684  32.596 -0.0010 -0.0803 -0.0928
 1096BOLB   GL326295  21.682  -3.368  32.409 -0.0611 -0.2147  0.0517
 1096BOLB   GL426296  21.424  -3.336  32.194  0.0363  0.0111 -0.1181
 1096BOLB   C1C26297  21.507  -2.912  32.442 -0.1292  0.2141  0.2939
 1096BOLB   C2C26298  21.297  -2.668  32.128 -0.0446  0.2585  0.2486
 1096BOLB   C3C26299  21.226  -2.320  31.893 -0.1383 -0.1828  0.0985
 1096BOLB   C4C26300  20.877  -2.136  31.684 -0.1221 -0.2215 -0.1525
 1096BOLB   C1D26301  21.324  -3.175  31.795 -0.3030 -0.1108  0.0622
 1096BOLB   C2D26302  21.038  -3.213  31.456 -0.2495 -0.2301 -0.1645
 1096BOLB   C3D26303  20.721  -2.909  31.292 -0.1955 -0.0669  0.1157
 1096BOLB   C4D26304  20.722  -2.532  31.178 -0.1860  0.1232  0.2070
 1097BOLB   NC126305  17.271   3.043  16.451  0.1846 -0.1996 -0.0970
 1097BOLB   PO126306  17.027   3.408  16.345  0.1558 -0.3378  0.1092
 1097BOLB   GL126307  16.944   3.243  15.958  0.1971 -0.1080 -0.1158
 1097BOLB   GL226308  17.181   3.181  15.870 -0.0611  0.0998 -0.1746
 1097BOLB   C1A26309  16.819   3.285  15.568 -0.3133 -0.3351  0.1539
 1097BOLB   C2A26310  16.932   3.255  15.185  0.2131 -0.2600 -0.0142
 1097BOLB   C3A26311  16.805   2.902  14.925  0.1113  0.0747 -0.1022
 1097BOLB   C4A26312  16.706   2.634  14.609  0.0767 -0.0262 -0.1686
 1097BOLB   C1B26313  17.225   2.813  15.529  0.0992  0.0822 -0.0587
 1097BOLB   C2B26314  17.299   2.802  15.114 -0.0113  0.0850  0.3474
 1097BOLB   C3B26315  17.695   2.805  14.790  0.1793 -0.4473  0.1483
 1097BOLB   C4B26316  18.202   2.679  14.603  0.0338  0.1721  0.3652
 1097BOLB   NC226317  16.877   1.620  11.790  0.0992  0.2051  0.1375
 1097BOLB   PO226318  16.767   1.844  12.020  0.1952 -0.1146 -0.1731
 1097BOLB   GL326319  16.854   1.998  12.400 -0.1599 -0.1017 -0.3001
 1097BOLB   GL426320  16.973   2.265  12.326  0.2721  0.0193 -0.1074
 1097BOLB   C1C26321  16.887   2.250  12.865  0.1761  0.1016  0.0369
 1097BOLB   C2C26322  17.026   2.461  13.297 -0.1736  0.3310 -0.0205
 1097BOLB   C3C26323  17.011   2.365  13.729  0.3600  0.3995 -0.0797
 1097BOLB   C4C26324  16.906   2.561  14.229 -0.0440 -0.1540 -0.2149
 1097BOLB   C1D26325  17.324   2.229  12.521 -0.4636  0.0638  0.2009
 1097BOLB   C2D26326  17.647   2.066  12.484 -0.4081 -0.0360  0.0944
 1097BOLB   C3D26327  18.033   1.979  12.488 -0.3019 -0.1456 -0.1439
 1097BOLB   C4D26328  18.130   1.848  12.908  0.2751  0.4821  0.0338
 1098BOLB   NC126329  17.864  -4.065  24.645 -0.1272  0.0351  0.0427
 1098BOLB   PO126330  17.520  -4.243  24.745 -0.3878 -0.0272  0.0408
 1098BOLB   GL126331  17.840  -4.585  24.762 -0.1134  0.2274  0.0717
 1098BOLB   GL226332  17.961  -4.704  24.536  0.2141 -0.3440 -0.1536
 1098BOLB   C1A26333  17.943  -4.933  25.049  0.0798  0.0882  0.0817
 1098BOLB   C2A26334  17.976  -5.396  25.163 -0.0880  0.1469  0.2185
 1098BOLB   C3A26335  17.689  -5.699  24.882 -0.1473 -0.2398 -0.0742
 1098BOLB   C4A26336  17.469  -6.081  24.641 -0.0071 -0.3801  0.0363
 1098BOLB   C1B26337  18.177  -5.035  24.344  0.0285 -0.1306 -0.2253
 1098BOLB   C2B26338  18.515  -5.178  24.301  0.1610  0.4855  0.1416
 1098BOLB   C3B26339  18.808  -5.538  24.493 -0.0743 -0.0192 -0.3864
 1098BOLB   C4B26340  18.972  -5.754  24.909 -0.1959 -0.1549 -0.0931
 1098BOLB   NC226341  17.174  -8.623  24.747  0.0999 -0.1668 -0.1298
 1098BOLB   PO226342  17.138  -8.509  24.320 -0.0788  0.1052  0.0214
 1098BOLB   GL326343  17.196  -8.051  24.400 -0.1385 -0.0741  0.0962
 1098BOLB   GL426344  16.986  -7.968  24.527  0.1532  0.1635 -0.0743
 1098BOLB   C1C26345  17.333  -7.559  24.548  0.0061  0.3674 -0.1245
 1098BOLB   C2C26346  17.273  -7.188  24.784 -0.1767  0.0697  0.0960
 1098BOLB   C3C26347  17.191  -6.739  24.909 -0.0989 -0.2000  0.1952
 1098BOLB   C4C26348  17.127  -6.346  24.718 -0.1496  0.2571  0.1607
 1098BOLB   C1D26349  16.885  -7.653  24.277 -0.1100  0.0148  0.0169
 1098BOLB   C2D26350  16.811  -7.421  24.585 -0.2767  0.2340 -0.0632
 1098BOLB   C3D26351  16.720  -7.062  24.872  0.0398  0.0806 -0.4330
 1098BOLB   C4D26352  16.737  -6.602  24.916 -0.1432  0.0328  0.0570
 1099BOLB   NC126353  17.621   6.508  33.524  0.0795 -0.0862 -0.1728
 1099BOLB   PO126354  17.623   6.907  33.601  0.1715 -0.1226 -0.1165
 1099BOLB   GL126355  17.673   6.779  34.007 -0.0083  0.3767 -0.0253
 1099BOLB   GL226356  17.811   6.591  34.078  0.0561 -0.2829 -0.0737
 1099BOLB   C1A26357  17.798   6.982  34.346  0.0423  0.1161 -0.1442
 1099BOLB   C2A26358  17.717   7.158  34.718 -0.2095  0.3098  0.1904
 1099BOLB   C3A26359  17.680   7.241  35.082  0.1990 -0.1127 -0.4866
 1099BOLB   C4A26360  17.484   7.350  35.512 -0.0939 -0.0427  0.0823
 1099BOLB   C1B26361  18.024   6.576  34.500  0.3487 -0.2396  0.1601
 1099BOLB   C2B26362  18.394   6.396  34.692  0.1428  0.0370  0.0961
 1099BOLB   C3B26363  18.837   6.149  34.758  0.3094 -0.0327  0.0726
 1099BOLB   C4B26364  19.101   5.798  34.883  0.0075  0.1142  0.1892
 1099BOLB   NC226365  17.775   7.259  37.677  0.0517  0.1832  0.1140
 1099BOLB   PO226366  17.794   7.674  37.666 -0.1029 -0.2969 -0.0992
 1099BOLB   GL326367  17.964   7.544  37.234 -0.2392 -0.1186  0.2049
 1099BOLB   GL426368  17.889   7.188  37.129 -0.1648 -0.4585 -0.4365
 1099BOLB   C1C26369  18.332   7.422  36.874  0.2391 -0.0439 -0.2726
 1099BOLB   C2C26370  18.171   7.523  36.394 -0.1214  0.1770  0.2452
 1099BOLB   C3C26371  17.918   7.728  36.164  0.0193 -0.0547  0.2058
 1099BOLB   C4C26372  17.573   7.547  35.861 -0.2232 -0.3750  0.1081
 1099BOLB   C1D26373  17.978   7.114  36.660  0.0630  0.1564  0.1258
 1099BOLB   C2D26374  17.986   6.822  36.455 -0.2432  0.2247  0.2684
 1099BOLB   C3D26375  17.999   6.431  36.273  0.2020  0.1975  0.0270
 1099BOLB   C4D26376  17.979   6.305  35.899 -0.0586 -0.1230 -0.0192
 1100BOLB   NC126377  20.073   3.407  32.528  0.3246  0.2942 -0.2579
 1100BOLB   PO126378  20.431   3.184  32.635 -0.1377 -0.0272  0.0312
 1100BOLB   GL126379  20.756   3.165  32.848  0.3542 -0.3243  0.1389
 1100BOLB   GL226380  20.685   2.880  32.981  0.1197  0.2022 -0.0831
 1100BOLB   C1A26381  21.079   3.143  33.242  0.0597  0.0967  0.0131
 1100BOLB   C2A26382  21.443   3.146  33.509 -0.1589  0.4237  0.1590
 1100BOLB   C3A26383  21.683   2.852  33.678 -0.3134 -0.0924 -0.0257
 1100BOLB   C4A26384  21.751   2.626  34.130  0.1980  0.1466 -0.0691
 1100BOLB   C1B26385  20.722   2.758  33.399  0.1281  0.1521 -0.2092
 1100BOLB   C2B26386  20.571   2.554  33.796  0.1432 -0.0948  0.3440
 1100BOLB   C3B26387  20.806   2.433  34.200  0.0671  0.0702 -0.1442
 1100BOLB   C4B26388  21.218   2.527  34.185  0.0206 -0.2931 -0.0098
 1100BOLB   NC226389  22.351   2.122  36.410  0.3006 -0.3687 -0.0175
 1100BOLB   PO226390  22.057   1.992  36.120  0.3347  0.0338  0.2222
 1100BOLB   GL326391  21.859   2.281  36.034  0.2293 -0.0363  0.0291
 1100BOLB   GL426392  21.520   2.266  36.221  0.0425  0.0639 -0.0443
 1100BOLB   C1C26393  21.522   2.190  35.676  0.3246 -0.3316  0.0498
 1100BOLB   C2C26394  21.723   2.209  35.308  0.0577  0.3535  0.1284
 1100BOLB   C3C26395  21.723   2.451  34.954  0.1176  0.0405  0.1940
 1100BOLB   C4C26396  21.682   2.564  34.565 -0.1005 -0.3236  0.1828
 1100BOLB   C1D26397  21.523   2.607  35.831 -0.0128 -0.4039 -0.3997
 1100BOLB   C2D26398  21.431   2.731  35.403 -0.1244 -0.0367 -0.1690
 1100BOLB   C3D26399  21.318   2.608  35.118  0.0869  0.1757  0.4010
 1100BOLB   C4D26400  21.215   2.429  34.667 -0.1236  0.0209  0.0970
 1101BOLB   NC126401  20.384  10.511  29.192  0.0614  0.3142  0.1466
 1101BOLB   PO126402  20.299  10.773  29.557  0.3752  0.0685  0.2144
 1101BOLB   GL126403  20.197  10.971  29.809  0.3621 -0.4678 -0.1668
 1101BOLB   GL226404  20.003  10.856  30.113 -0.0205 -0.2709 -0.3071
 1101BOLB   C1A26405  20.019  11.425  29.905 -0.1012 -0.1067  0.0450
 1101BOLB   C2A26406  20.012  11.709  30.221 -0.2091  0.4039  0.2256
 1101BOLB   C3A26407  20.025  12.033  30.148 -0.1134 -0.2409 -0.0264
 1101BOLB   C4A26408  19.880  12.498  30.166  0.1081  0.0916 -0.0555
 1101BOLB   C1B26409  20.014  11.187  30.349 -0.1777 -0.2388 -0.1115
 1101BOLB   C2B26410  20.315  11.551  30.621 -0.0540  0.3239 -0.3178
 1101BOLB   C3B26411  20.542  11.512  31.014  0.1521  0.2122  0.0968
 1101BOLB   C4B26412  20.663  11.133  31.129  0.5317  0.0500 -0.1037
 1101BOLB   NC226413  19.562  14.823  31.662 -0.3047  0.0123  0.0374
 1101BOLB   PO226414  19.449  14.518  31.245  0.1167 -0.2797 -0.1236
 1101BOLB   GL326415  19.628  14.271  31.010  0.2185  0.1909  0.1823
 1101BOLB   GL426416  19.877  14.089  31.220  0.3524 -0.2791 -0.0905
 1101BOLB   C1C26417  19.884  14.096  30.719 -0.2635  0.0015 -0.3118
 1101BOLB   C2C26418  19.817  13.704  30.481  0.0728  0.1848  0.0156
 1101BOLB   C3C26419  19.668  13.340  30.175  0.0639  0.1476 -0.1760
 1101BOLB   C4C26420  19.747  12.865  30.065  0.3683  0.2439  0.0311
 1101BOLB   C1D26421  20.061  13.667  31.067  0.2649  0.0903  0.1454
 1101BOLB   C2D26422  19.932  13.200  30.887  0.0839  0.1856  0.0496
 1101BOLB   C3D26423  19.680  12.981  30.557  0.0139  0.1449 -0.1509
 1101BOLB   C4D26424  19.251  12.755  30.400 -0.0991 -0.1365 -0.3177
 1102BOLB   NC126425  23.877   5.770  23.811  0.0414  0.2489  0.3150
 1102BOLB   PO126426  23.936   5.964  23.504 -0.2900 -0.2493 -0.2260
 1102BOLB   GL126427  24.427   5.844  23.448  0.2353  0.0965  0.0287
 1102BOLB   GL226428  24.673   5.857  23.118 -0.2211 -0.1714  0.1327
 1102BOLB   C1A26429  24.821   5.749  23.720  0.0640 -0.1491  0.1092
 1102BOLB   C2A26430  25.115   5.877  23.561 -0.3445 -0.2699 -0.0001
 1102BOLB   C3A26431  25.487   5.708  23.467  0.4669  0.0881 -0.3638
 1102BOLB   C4A26432  25.893   5.690  23.365 -0.3356  0.0150 -0.1692
 1102BOLB   C1B26433  25.035   6.065  23.123  0.0222  0.1411  0.0564
 1102BOLB   C2B26434  25.400   6.134  23.173 -0.3562  0.6439  0.1948
 1102BOLB   C3B26435  25.776   6.291  23.374 -0.3149  0.1174  0.2679
 1102BOLB   C4B26436  26.014   6.711  23.175 -0.3161  0.0784  0.0112
 1102BOLB   NC226437  28.127   5.911  22.290 -0.1920 -0.1178 -0.2421
 1102BOLB   PO226438  28.293   6.100  22.680  0.0589 -0.1197 -0.1275
 1102BOLB   GL326439  27.900   6.101  22.969  0.1489 -0.2434  0.2644
 1102BOLB   GL426440  27.819   5.767  23.008  0.0232 -0.0926  0.1078
 1102BOLB   C1C26441  27.485   6.112  23.001 -0.2219  0.0101 -0.1175
 1102BOLB   C2C26442  27.060   6.006  23.081  0.1084  0.0954 -0.2149
 1102BOLB   C3C26443  26.621   5.818  23.052  0.1387  0.1693 -0.2090
 1102BOLB   C4C26444  26.239   5.681  22.954 -0.1564 -0.2529  0.0064
 1102BOLB   C1D26445  27.628   5.762  23.416 -0.2142  0.0014  0.2212
 1102BOLB   C2D26446  27.159   5.633  23.566  0.0277 -0.1875 -0.0972
 1102BOLB   C3D26447  26.713   5.658  23.700 -0.1637  0.2802 -0.0050
 1102BOLB   C4D26448  26.389   5.924  23.465  0.0282  0.3773  0.2188
 1103BOLB   NC126449  19.744  -9.738  14.656  0.0337  0.0879 -0.0365
 1103BOLB   PO126450  19.375  -9.362  14.834 -0.0657 -0.1265  0.2681
 1103BOLB   GL126451  19.611  -8.999  14.736 -0.1370 -0.1150 -0.1314
 1103BOLB   GL226452  19.519  -8.840  14.447 -0.0579  0.0622  0.3063
 1103BOLB   C1A26453  19.888  -8.637  14.702 -0.2878 -0.0336  0.0203
 1103BOLB   C2A26454  19.834  -8.218  14.836 -0.1442 -0.0993  0.2811
 1103BOLB   C3A26455  19.646  -7.787  14.737  0.1140  0.1384 -0.3329
 1103BOLB   C4A26456  19.365  -7.489  14.417  0.0300  0.2742  0.0421
 1103BOLB   C1B26457  19.566  -8.354  14.476  0.2646 -0.1192  0.0988
 1103BOLB   C2B26458  19.184  -7.979  14.481  0.2395  0.2142  0.3747
 1103BOLB   C3B26459  18.759  -7.698  14.354 -0.2507  0.1073  0.1400
 1103BOLB   C4B26460  18.986  -7.281  14.175  0.3041 -0.1233  0.3706
 1103BOLB   NC226461  19.047  -9.436  13.822  0.0349  0.4043  0.1339
 1103BOLB   PO226462  18.643  -9.330  13.499 -0.3550 -0.0199 -0.1364
 1103BOLB   GL326463  18.454  -8.798  13.467 -0.3206  0.0643 -0.2728
 1103BOLB   GL426464  18.559  -8.652  13.210 -0.0566  0.1661 -0.1408
 1103BOLB   C1C26465  18.671  -8.635  13.756 -0.0412 -0.1337 -0.1397
 1103BOLB   C2C26466  18.633  -8.269  13.876  0.0553  0.4158  0.0813
 1103BOLB   C3C26467  18.963  -7.999  13.943  0.1646  0.0071  0.0332
 1103BOLB   C4C26468  19.202  -7.702  14.015 -0.2222 -0.2262 -0.3559
 1103BOLB   C1D26469  18.919  -8.545  13.307 -0.2089  0.1852  0.3793
 1103BOLB   C2D26470  19.152  -8.144  13.543 -0.2319  0.0518 -0.3848
 1103BOLB   C3D26471  19.350  -7.826  13.574 -0.0007  0.0101  0.2847
 1103BOLB   C4D26472  19.581  -7.427  13.849  0.0839  0.2429  0.3059
 1104BOLB   NC126473  25.078  -3.883  28.685  0.2239 -0.2371  0.1565
 1104BOLB   PO126474  25.249  -3.489  28.731 -0.1448  0.1198 -0.1057
 1104BOLB   GL126475  24.886  -3.181  28.771 -0.2735 -0.1393  0.4016
 1104BOLB   GL226476  24.671  -3.103  29.098  0.2786  0.1335 -0.0359
 1104BOLB   C1A26477  24.766  -2.715  28.665 -0.3248 -0.1450 -0.1099
 1104BOLB   C2A26478  24.627  -2.362  28.528  0.2842 -0.0635 -0.0741
 1104BOLB   C3A26479  24.300  -2.253  28.194  0.1032 -0.3201  0.0979
 1104BOLB   C4A26480  24.188  -1.816  28.200 -0.1515  0.1717  0.1399
 1104BOLB   C1B26481  24.341  -2.964  28.873  0.0064 -0.0674 -0.3067
 1104BOLB   C2B26482  24.256  -2.743  28.603 -0.0301  0.1479 -0.0289
 1104BOLB   C3B26483  24.453  -2.731  28.182 -0.0794 -0.1783  0.0146
 1104BOLB   C4B26484  24.669  -2.428  27.909  0.0512  0.2775  0.1384
 1104BOLB   NC226485  22.878  -0.143  28.482  0.0504 -0.1947 -0.2457
 1104BOLB   PO226486  23.260  -0.121  28.285  0.0173 -0.0522 -0.0806
 1104BOLB   GL326487  23.457  -0.365  28.391 -0.2422  0.0132 -0.2987
 1104BOLB   GL426488  23.124  -0.594  28.464 -0.1178  0.4604 -0.5995
 1104BOLB   C1C26489  23.872  -0.467  28.506 -0.1511 -0.1429  0.3920
 1104BOLB   C2C26490  24.203  -0.686  28.339  0.1936  0.0071 -0.3116
 1104BOLB   C3C26491  24.392  -1.137  28.287  0.3148  0.0522 -0.0926
 1104BOLB   C4C26492  24.180  -1.484  28.195  0.0575 -0.1272 -0.4558
 1104BOLB   C1D26493  23.370  -0.868  28.635  0.0405 -0.1556  0.2194
 1104BOLB   C2D26494  23.400  -1.165  28.796 -0.2471  0.0283  0.2665
 1104BOLB   C3D26495  23.228  -1.619  28.649 -0.5025  0.0236  0.0505
 1104BOLB   C4D26496  23.360  -2.029  28.602  0.0690  0.0159  0.1640
 1105BOLB   NC126497  11.164   0.687  18.994 -0.1952 -0.2320  0.0626
 1105BOLB   PO126498  11.041   0.670  18.594 -0.1620 -0.1028  0.0980
 1105BOLB   GL126499  10.931   0.742  18.095 -0.0324  0.2258 -0.0888
 1105BOLB   GL226500  11.240   0.715  17.887  0.5346 -0.2047  0.1577
 1105BOLB   C1A26501  10.578   0.764  17.770  0.0032  0.5480  0.1674
 1105BOLB   C2A26502  10.346   0.584  17.532  0.0233  0.0282 -0.1575
 1105BOLB   C3A26503   9.957   0.355  17.273  0.1348 -0.0535 -0.2199
 1105BOLB   C4A26504   9.587   0.267  16.831  0.1437 -0.0048  0.5301
 1105BOLB   C1B26505  11.262   0.644  17.503  0.3044  0.2787  0.4802
 1105BOLB   C2B26506  10.911   0.566  17.316  0.2056  0.1720  0.2482
 1105BOLB   C3B26507  10.820   0.335  16.934  0.0363 -0.0012 -0.2290
 1105BOLB   C4B26508  10.670   0.322  16.545 -0.3254 -0.2452 -0.0639
 1105BOLB   NC226509   8.522  -0.723  14.892  0.0377  0.1984  0.0231
 1105BOLB   PO226510   8.701  -0.703  15.275  0.1188  0.0225  0.0708
 1105BOLB   GL326511   8.782  -0.482  15.563  0.0509 -0.0533 -0.1701
 1105BOLB   GL426512   8.798  -0.208  15.802  0.1797 -0.1716  0.0349
 1105BOLB   C1C26513   8.928  -0.640  15.905  0.2561  0.0584 -0.1412
 1105BOLB   C2C26514   8.976  -0.525  16.245 -0.1328 -0.3837 -0.3043
 1105BOLB   C3C26515   9.161  -0.072  16.327 -0.0220  0.0750 -0.1044
 1105BOLB   C4C26516   9.337   0.176  16.488  0.1398  0.1200  0.0909
 1105BOLB   C1D26517   9.188  -0.049  15.781 -0.0488 -0.2165 -0.1634
 1105BOLB   C2D26518   9.641   0.139  15.913  0.0264 -0.0881 -0.0408
 1105BOLB   C3D26519   9.962  -0.018  16.169 -0.0275  0.1182  0.1672
 1105BOLB   C4D26520  10.249  -0.228  16.457 -0.1557 -0.3018  0.2141
 1106BOLB   NC126521  17.948   1.103  31.802  0.5178  0.5584 -0.1022
 1106BOLB   PO126522  18.058   1.026  32.216  0.2258  0.3471 -0.0941
 1106BOLB   GL126523  18.276   0.797  32.555  0.3669 -0.2286  0.1234
 1106BOLB   GL226524  17.985   0.744  32.712 -0.0985 -0.2885  0.0779
 1106BOLB   C1A26525  18.568   0.915  32.922  0.1764 -0.2233  0.0144
 1106BOLB   C2A26526  18.699   0.698  33.360  0.0260 -0.0834  0.1428
 1106BOLB   C3A26527  18.822   0.670  33.797 -0.1709 -0.1340 -0.0504
 1106BOLB   C4A26528  18.970   0.798  34.277  0.1975 -0.2260 -0.2187
 1106BOLB   C1B26529  18.170   0.524  32.966 -0.2146 -0.1364 -0.0486
 1106BOLB   C2B26530  18.304   0.136  33.232  0.1413 -0.0011 -0.0096
 1106BOLB   C3B26531  18.006   0.013  33.704  0.0557 -0.2700 -0.0159
 1106BOLB   C4B26532  17.952   0.351  34.069  0.2211  0.0639 -0.1578
 1106BOLB   NC226533  18.527  -1.185  35.732 -0.0603  0.0932  0.3393
 1106BOLB   PO226534  18.979  -1.156  35.864  0.1488 -0.0132  0.0439
 1106BOLB   GL326535  19.197  -0.768  35.616 -0.1813 -0.0835 -0.1228
 1106BOLB   GL426536  19.012  -0.580  35.534 -0.2148  0.2546 -0.1751
 1106BOLB   C1C26537  19.470  -0.440  35.341  0.1257  0.2261 -0.1347
 1106BOLB   C2C26538  19.411  -0.167  34.989  0.0597 -0.0203 -0.0967
 1106BOLB   C3C26539  19.196   0.208  34.775  0.0148  0.3826  0.0453
 1106BOLB   C4C26540  19.067   0.500  34.582  0.0476 -0.0374 -0.1169
 1106BOLB   C1D26541  18.894  -0.767  35.156 -0.2095  0.0341 -0.0921
 1106BOLB   C2D26542  18.966  -1.062  34.839 -0.3677 -0.4296  0.0601
 1106BOLB   C3D26543  19.261  -1.202  34.644 -0.1858 -0.0072 -0.0345
 1106BOLB   C4D26544  19.467  -1.228  34.217  0.0915  0.0089  0.2110
 1107BOLB   NC126545  10.213   2.161  18.353 -0.1048  0.0898 -0.2184
 1107BOLB   PO126546  10.411   2.511  18.233  0.1852 -0.2349 -0.0929
 1107BOLB   GL126547  10.215   2.938  18.213 -0.1302  0.2818 -0.1391
 1107BOLB   GL226548  10.491   3.059  18.016  0.0374 -0.1321 -0.2353
 1107BOLB   C1A26549  10.032   2.906  17.817 -0.2864  0.0533 -0.0175
 1107BOLB   C2A26550   9.742   2.853  17.606  0.0975 -0.1012  0.2093
 1107BOLB   C3A26551   9.506   2.750  17.434 -0.0492 -0.1385  0.0663
 1107BOLB   C4A26552   9.205   2.988  17.218 -0.2266 -0.0672 -0.3022
 1107BOLB   C1B26553  10.475   3.072  17.618  0.2305  0.0459  0.2725
 1107BOLB   C2B26554  10.193   2.960  17.184  0.0212  0.0571 -0.0425
 1107BOLB   C3B26555   9.913   2.694  16.981 -0.2394 -0.1239  0.1725
 1107BOLB   C4B26556   9.517   2.693  16.832  0.0137  0.2034  0.3189
 1107BOLB   NC226557   7.116   3.481  15.639  0.0793 -0.0320 -0.0765
 1107BOLB   PO226558   7.199   3.159  15.876  0.1596  0.1801  0.0250
 1107BOLB   GL326559   7.473   3.180  16.241 -0.0049 -0.0238  0.0548
 1107BOLB   GL426560   7.441   3.467  16.433 -0.2714  0.0066  0.0684
 1107BOLB   C1C26561   7.773   2.934  16.452 -0.4042  0.1051  0.1930
 1107BOLB   C2C26562   8.082   2.847  16.701  0.0296  0.1443  0.0790
 1107BOLB   C3C26563   8.350   3.017  16.980  0.0459  0.1708 -0.3802
 1107BOLB   C4C26564   8.814   3.130  17.052  0.0076  0.1923  0.2993
 1107BOLB   C1D26565   7.590   3.585  16.815 -0.0772  0.0283 -0.2182
 1107BOLB   C2D26566   7.870   3.621  17.142  0.1101  0.1748  0.2449
 1107BOLB   C3D26567   8.034   3.281  17.402 -0.2534  0.0420 -0.2954
 1107BOLB   C4D26568   8.456   3.059  17.484  0.0047  0.0844 -0.2821
 1108BOLB   NC126569  16.855   8.948  32.581  0.0214  0.0455  0.1880
 1108BOLB   PO126570  16.545   8.791  32.737 -0.0096  0.1383 -0.0596
 1108BOLB   GL126571  16.661   9.068  33.024  0.0344  0.3616 -0.1294
 1108BOLB   GL226572  16.634   9.005  33.275 -0.1120 -0.1688 -0.4835
 1108BOLB   C1A26573  16.641   9.477  33.340  0.2320  0.1120 -0.2270
 1108BOLB   C2A26574  16.737   9.929  33.495  0.0952  0.1645  0.1769
 1108BOLB   C3A26575  16.907  10.051  33.901  0.0269 -0.1608 -0.0377
 1108BOLB   C4A26576  17.137  10.242  34.264  0.0833  0.1367 -0.3502
 1108BOLB   C1B26577  16.454   9.130  33.644 -0.2698 -0.2131 -0.0694
 1108BOLB   C2B26578  16.341   9.384  34.053 -0.0915  0.0899 -0.1686
 1108BOLB   C3B26579  16.298   9.617  34.519  0.0336 -0.0133  0.3570
 1108BOLB   C4B26580  16.062   9.638  34.937 -0.2237 -0.0303 -0.1793
 1108BOLB   NC226581  18.311  11.310  35.837  0.1397  0.0233  0.1770
 1108BOLB   PO226582  18.690  11.011  35.707 -0.1286 -0.3187 -0.4629
 1108BOLB   GL326583  18.486  10.801  35.457 -0.1469  0.0407 -0.0356
 1108BOLB   GL426584  18.536  10.539  35.430 -0.1979 -0.1748  0.3180
 1108BOLB   C1C26585  18.103  10.770  35.273  0.3337 -0.4069 -0.1180
 1108BOLB   C2C26586  17.763  10.694  35.109 -0.1852  0.0742 -0.1419
 1108BOLB   C3C26587  17.533  10.593  34.791 -0.1367 -0.0328  0.1656
 1108BOLB   C4C26588  17.189  10.519  34.677 -0.0612  0.2263 -0.0935
 1108BOLB   C1D26589  18.622  10.519  35.021 -0.0895 -0.0313  0.0396
 1108BOLB   C2D26590  18.553  10.093  34.836  0.0788  0.1441 -0.0560
 1108BOLB   C3D26591  18.518   9.857  34.452 -0.0237 -0.0727 -0.0130
 1108BOLB   C4D26592  18.679   9.611  34.112 -0.0037 -0.1820  0.0336
 1109BOLB   NC126593  14.814   7.882  33.344 -0.1353  0.2442 -0.0757
 1109BOLB   PO126594  14.728   7.576  33.829  0.1014 -0.3339  0.2304
 1109BOLB   GL126595  14.512   7.366  34.104  0.0493 -0.2007 -0.1126
 1109BOLB   GL226596  14.818   7.271  34.248 -0.3132 -0.1097 -0.0679
 1109BOLB   C1A26597  14.491   7.409  34.536  0.0912 -0.1639  0.1425
 1109BOLB   C2A26598  14.446   7.790  34.833 -0.0805 -0.0227 -0.0644
 1109BOLB   C3A26599  14.141   8.197  35.009 -0.4623 -0.3860 -0.0970
 1109BOLB   C4A26600  13.953   8.464  35.336  0.0440  0.0098 -0.2770
 1109BOLB   C1B26601  14.940   7.217  34.657 -0.0542  0.0126 -0.1969
 1109BOLB   C2B26602  15.167   7.176  34.971  0.3135  0.0429  0.1766
 1109BOLB   C3B26603  15.479   7.151  35.210 -0.0637 -0.1097 -0.1292
 1109BOLB   C4B26604  15.838   7.131  35.126  0.0554  0.0506 -0.0421
 1109BOLB   NC226605  14.506   9.762  37.421 -0.1401  0.2680  0.1378
 1109BOLB   PO226606  14.305   9.626  37.008  0.0338 -0.2309 -0.0011
 1109BOLB   GL326607  14.423   9.463  36.618  0.1028 -0.1807 -0.2212
 1109BOLB   GL426608  14.433   9.086  36.589 -0.1294 -0.2589  0.1688
 1109BOLB   C1C26609  14.334   9.437  36.223  0.0589 -0.3106 -0.1022
 1109BOLB   C2C26610  14.462   9.427  35.823  0.0185  0.4764 -0.1440
 1109BOLB   C3C26611  14.340   9.209  35.485  0.1535 -0.3681  0.1744
 1109BOLB   C4C26612  14.032   8.936  35.446 -0.0730  0.0642 -0.0485
 1109BOLB   C1D26613  14.637   8.910  36.164  0.0575 -0.3961  0.0098
 1109BOLB   C2D26614  14.802   8.521  35.856  0.0328 -0.2015  0.2788
 1109BOLB   C3D26615  14.649   8.259  35.634 -0.3924 -0.0382 -0.2113
 1109BOLB   C4D26616  14.276   8.153  35.622 -0.1630  0.3724  0.2412
 1110BOLB   NC126617  24.369   4.781  25.627  0.0287  0.1548  0.0608
 1110BOLB   PO126618  24.149   4.665  25.259 -0.2940  0.0333  0.0562
 1110BOLB   GL126619  24.635   4.847  25.149  0.0487 -0.2418  0.0006
 1110BOLB   GL226620  24.724   5.211  25.356  0.1772  0.1119  0.0912
 1110BOLB   C1A26621  25.107   4.786  25.213  0.2185  0.1445  0.0734
 1110BOLB   C2A26622  25.499   4.594  25.403 -0.2261  0.3508 -0.0359
 1110BOLB   C3A26623  25.939   4.651  25.606  0.1622  0.2129  0.0238
 1110BOLB   C4A26624  26.337   4.557  25.660  0.1225 -0.1477 -0.1443
 1110BOLB   C1B26625  25.175   5.274  25.412  0.0132  0.1728 -0.0666
 1110BOLB   C2B26626  25.560   5.295  25.298 -0.0786  0.3562 -0.0351
 1110BOLB   C3B26627  25.896   5.536  25.465  0.2093 -0.1902 -0.1735
 1110BOLB   C4B26628  26.219   5.586  25.895  0.2232 -0.1239  0.2237
 1110BOLB   NC226629  28.650   4.936  25.730 -0.0409  0.3924 -0.2124
 1110BOLB   PO226630  28.556   4.539  25.484 -0.0452  0.2134 -0.0405
 1110BOLB   GL326631  28.218   4.635  25.690 -0.2602  0.2635  0.0893
 1110BOLB   GL426632  28.054   4.637  25.401  0.1551  0.0211 -0.3342
 1110BOLB   C1C26633  27.839   4.828  25.928 -0.0664 -0.0529  0.1276
 1110BOLB   C2C26634  27.513   4.617  26.144 -0.5231 -0.0765  0.0607
 1110BOLB   C3C26635  27.064   4.644  26.180  0.1728 -0.4844 -0.2104
 1110BOLB   C4C26636  26.626   4.594  25.983  0.0497  0.0506  0.1048
 1110BOLB   C1D26637  27.555   4.633  25.549 -0.0645 -0.0515 -0.0195
 1110BOLB   C2D26638  27.109   4.770  25.296  0.4249 -0.1533  0.2685
 1110BOLB   C3D26639  26.614   4.895  25.450  0.0118  0.2186  0.0291
 1110BOLB   C4D26640  26.697   5.328  25.657  0.1707  0.0296  0.0928
 1111BOLB   NC126641  24.713   6.982  15.566 -0.4845 -0.2176  0.1410
 1111BOLB   PO126642  24.485   6.625  15.346 -0.1742  0.1060  0.1617
 1111BOLB   GL126643  24.407   6.503  15.771 -0.1517  0.0413 -0.0705
 1111BOLB   GL226644  24.598   6.209  15.854  0.1950 -0.1639  0.2027
 1111BOLB   C1A26645  24.196   6.579  16.132  0.0019 -0.1268 -0.0140
 1111BOLB   C2A26646  23.964   6.337  16.427 -0.0961  0.0003  0.1941
 1111BOLB   C3A26647  23.816   6.030  16.818 -0.0330  0.3172  0.1364
 1111BOLB   C4A26648  23.599   5.878  17.200 -0.1195 -0.0131 -0.0393
 1111BOLB   C1B26649  24.329   6.023  16.146  0.2556 -0.3057 -0.1710
 1111BOLB   C2B26650  23.929   5.838  16.320  0.2937  0.0709  0.1135
 1111BOLB   C3B26651  23.525   5.705  16.641  0.2814 -0.0715 -0.0997
 1111BOLB   C4B26652  23.282   5.638  16.914 -0.0471  0.0272 -0.0006
 1111BOLB   NC226653  21.713   4.821  17.381 -0.2023  0.3560 -0.1945
 1111BOLB   PO226654  21.969   4.724  17.764  0.4132  0.2574 -0.0456
 1111BOLB   GL326655  22.351   4.593  17.703 -0.0918 -0.1040 -0.0191
 1111BOLB   GL426656  22.496   4.587  17.334  0.0673  0.2975  0.4040
 1111BOLB   C1C26657  22.715   4.783  17.772 -0.2462 -0.1346 -0.1591
 1111BOLB   C2C26658  23.098   4.960  17.599 -0.1321  0.1406  0.0132
 1111BOLB   C3C26659  23.243   5.302  17.725 -0.3022  0.0918 -0.0276
 1111BOLB   C4C26660  23.355   5.618  17.443 -0.0847 -0.0027 -0.0523
 1111BOLB   C1D26661  22.644   4.435  16.841 -0.0905  0.2382 -0.1418
 1111BOLB   C2D26662  22.739   4.474  16.386  0.1898  0.0610  0.1974
 1111BOLB   C3D26663  22.753   4.603  15.955  0.0954 -0.0266 -0.1506
 1111BOLB   C4D26664  22.609   4.806  15.543  0.0263  0.1729 -0.0752
 1112BOLB   NC126665  17.644  -3.638  28.236 -0.3270  0.0721 -0.1240
 1112BOLB   PO126666  17.220  -3.699  27.967  0.1488  0.0669 -0.0086
 1112BOLB   GL126667  17.303  -4.029  28.230 -0.0662 -0.0081 -0.1157
 1112BOLB   GL226668  17.551  -4.116  28.304  0.2536 -0.1728  0.0152
 1112BOLB   C1A26669  17.163  -4.334  28.497  0.2117 -0.0841 -0.1210
 1112BOLB   C2A26670  17.202  -4.772  28.703  0.1929 -0.0236 -0.1270
 1112BOLB   C3A26671  17.488  -5.013  28.903 -0.1125  0.0696 -0.1177
 1112BOLB   C4A26672  17.830  -5.047  29.051 -0.0073 -0.1010  0.1694
 1112BOLB   C1B26673  17.786  -4.225  28.588  0.0838  0.4997 -0.1799
 1112BOLB   C2B26674  17.645  -4.528  28.987 -0.2221 -0.2316 -0.2625
 1112BOLB   C3B26675  17.640  -4.727  29.467  0.0301  0.0895 -0.1530
 1112BOLB   C4B26676  17.315  -4.625  29.735 -0.0988 -0.0258  0.1527
 1112BOLB   NC226677  19.229  -6.881  29.839 -0.0586 -0.2754  0.0187
 1112BOLB   PO226678  19.492  -6.747  29.448  0.1872 -0.0405  0.0553
 1112BOLB   GL326679  19.329  -6.374  29.662  0.0322 -0.2041  0.2531
 1112BOLB   GL426680  18.967  -6.510  29.659 -0.1409  0.1014 -0.0283
 1112BOLB   C1C26681  19.082  -6.048  29.746  0.2180 -0.0003  0.0970
 1112BOLB   C2C26682  18.810  -5.640  29.624 -0.1493  0.0999 -0.3540
 1112BOLB   C3C26683  18.549  -5.381  29.364  0.0491 -0.1891  0.1250
 1112BOLB   C4C26684  18.196  -5.125  29.369  0.0503 -0.1231  0.0017
 1112BOLB   C1D26685  18.748  -6.145  29.348  0.1810  0.2120  0.1589
 1112BOLB   C2D26686  18.583  -5.754  29.008  0.0916  0.2269  0.1961
 1112BOLB   C3D26687  18.399  -5.390  28.885 -0.0993  0.0312  0.3170
 1112BOLB   C4D26688  18.361  -5.022  28.887  0.1513  0.1862  0.0278
 1113BOLB   NC126689  20.582   4.421  12.368  0.1214 -0.2251 -0.2505
 1113BOLB   PO126690  20.140   4.230  12.128 -0.0906 -0.0984 -0.0779
 1113BOLB   GL126691  20.240   4.059  12.521 -0.2549 -0.2039 -0.0269
 1113BOLB   GL226692  20.052   4.178  12.709 -0.1712 -0.0391  0.1010
 1113BOLB   C1A26693  20.440   3.812  12.860 -0.0467 -0.1727 -0.1677
 1113BOLB   C2A26694  20.446   3.623  13.209  0.0599  0.1564  0.1900
 1113BOLB   C3A26695  20.375   3.525  13.671  0.0718  0.2008  0.1188
 1113BOLB   C4A26696  20.092   3.705  13.944  0.1121  0.0690 -0.1579
 1113BOLB   C1B26697  19.989   4.111  13.089 -0.0269  0.0684  0.0463
 1113BOLB   C2B26698  20.116   4.011  13.445 -0.2163  0.0540  0.2535
 1113BOLB   C3B26699  20.519   3.983  13.773 -0.0378 -0.3986  0.0781
 1113BOLB   C4B26700  20.568   3.805  14.196  0.1654 -0.0192  0.1707
 1113BOLB   NC226701  20.006   5.061  12.649  0.3926  0.1464  0.1688
 1113BOLB   PO226702  19.626   4.747  12.539  0.2036  0.2173  0.3032
 1113BOLB   GL326703  19.566   4.480  12.837  0.1432 -0.1504  0.1044
 1113BOLB   GL426704  19.261   4.630  12.964  0.4344  0.1006  0.0280
 1113BOLB   C1C26705  19.670   4.521  13.302 -0.1600 -0.1860  0.0018
 1113BOLB   C2C26706  19.953   4.467  13.554 -0.0702 -0.3819  0.0297
 1113BOLB   C3C26707  20.189   4.294  13.990  0.1081 -0.0818  0.0442
 1113BOLB   C4C26708  20.106   4.001  14.210  0.0628 -0.4295  0.2493
 1113BOLB   C1D26709  19.151   4.271  13.217  0.1725  0.0720 -0.0816
 1113BOLB   C2D26710  18.997   4.040  13.527 -0.0672 -0.1049 -0.0094
 1113BOLB   C3D26711  18.699   4.306  13.757  0.0556 -0.0760  0.0140
 1113BOLB   C4D26712  18.722   4.523  14.169 -0.2945  0.1202 -0.0886
 1114BOLB   NC126713  17.205   0.610  32.084 -0.0332  0.2700  0.1087
 1114BOLB   PO126714  17.295   0.095  31.963  0.1365 -0.2311 -0.0612
 1114BOLB   GL126715  17.557  -0.103  32.282 -0.0358 -0.0362 -0.0977
 1114BOLB   GL226716  17.601  -0.475  32.226 -0.0793 -0.0723 -0.0976
 1114BOLB   C1A26717  17.474  -0.270  32.734  0.3697  0.0145 -0.0692
 1114BOLB   C2A26718  17.284  -0.018  33.118  0.1209 -0.0489 -0.0907
 1114BOLB   C3A26719  17.264  -0.213  33.489  0.0200  0.0989 -0.2031
 1114BOLB   C4A26720  17.188  -0.285  33.848  0.0823  0.2149 -0.0375
 1114BOLB   C1B26721  17.673  -0.721  32.586 -0.1001 -0.1352  0.1527
 1114BOLB   C2B26722  17.787  -1.151  32.518  0.2888  0.0518 -0.3229
 1114BOLB   C3B26723  17.993  -1.525  32.356 -0.3679 -0.1161 -0.0971
 1114BOLB   C4B26724  18.348  -1.875  32.299 -0.3218 -0.2745  0.2676
 1114BOLB   NC226725  16.621  -2.019  35.981  0.0504  0.1900 -0.0279
 1114BOLB   PO226726  16.853  -1.887  35.609 -0.0819  0.0222 -0.3709
 1114BOLB   GL326727  17.209  -1.527  35.557  0.0056 -0.0771 -0.1027
 1114BOLB   GL426728  17.007  -1.349  35.615  0.1764 -0.1223  0.3290
 1114BOLB   C1C26729  17.404  -1.188  35.300  0.0464 -0.0108 -0.2110
 1114BOLB   C2C26730  17.455  -0.805  35.017  0.0242 -0.1705  0.0964
 1114BOLB   C3C26731  17.553  -0.533  34.680  0.1941  0.1557  0.0816
 1114BOLB   C4C26732  17.418  -0.483  34.232 -0.0170 -0.0116 -0.2453
 1114BOLB   C1D26733  16.731  -1.027  35.371  0.0452  0.2221 -0.1315
 1114BOLB   C2D26734  16.311  -0.979  35.435  0.0856  0.0213  0.1671
 1114BOLB   C3D26735  15.912  -0.984  35.363  0.0308 -0.1824  0.1445
 1114BOLB   C4D26736  15.527  -0.898  35.604  0.0886  0.2658 -0.0733
 1115BOLB   NC126737  17.457  11.651  24.598  0.0257 -0.2654  0.1028
 1115BOLB   PO126738  17.338  12.035  24.345 -0.1624 -0.0335  0.1706
 1115BOLB   GL126739  17.635  12.326  24.205  0.1229 -0.0344  0.4814
 1115BOLB   GL226740  17.334  12.422  23.984 -0.2404  0.0919 -0.0965
 1115BOLB   C1A26741  17.711  12.773  24.211  0.1853  0.0782  0.1332
 1115BOLB   C2A26742  17.849  13.082  23.970  0.4938 -0.3499 -0.0195
 1115BOLB   C3A26743  18.042  13.375  23.694  0.1537 -0.0731 -0.0537
 1115BOLB   C4A26744  18.061  13.804  23.689 -0.2401 -0.1302  0.0223
 1115BOLB   C1B26745  17.539  12.605  23.698 -0.0961 -0.0592 -0.3817
 1115BOLB   C2B26746  17.373  12.832  23.333  0.1098  0.2282 -0.1190
 1115BOLB   C3B26747  17.441  13.109  22.978 -0.1767 -0.0084 -0.1253
 1115BOLB   C4B26748  17.047  13.241  22.868 -0.0067 -0.2077 -0.2305
 1115BOLB   NC226749  19.678  15.542  24.811  0.4081 -0.0382  0.2778
 1115BOLB   PO226750  19.356  15.662  24.551  0.2918 -0.3100  0.1355
 1115BOLB   GL326751  19.120  15.333  24.447  0.1850 -0.1247  0.0957
 1115BOLB   GL426752  19.371  15.157  24.740 -0.3830 -0.1473 -0.1607
 1115BOLB   C1C26753  18.988  14.975  24.560 -0.0356 -0.0603 -0.0320
 1115BOLB   C2C26754  18.702  14.737  24.238 -0.1677  0.1121 -0.2617
 1115BOLB   C3C26755  18.469  14.400  24.109 -0.2088  0.2029  0.1733
 1115BOLB   C4C26756  18.190  14.122  23.956 -0.2604  0.4730  0.1121
 1115BOLB   C1D26757  19.387  14.804  24.909 -0.1134  0.0410 -0.4200
 1115BOLB   C2D26758  19.602  14.370  24.757 -0.0275 -0.1612 -0.3519
 1115BOLB   C3D26759  19.550  13.912  24.719  0.2231 -0.4211  0.2641
 1115BOLB   C4D26760  19.292  13.544  24.757  0.0858  0.0292 -0.2031
 1116BOLB   NC126761   4.998  10.612  29.695  0.0455 -0.1075 -0.1250
 1116BOLB   PO126762   5.359  10.830  30.031 -0.2127 -0.1447 -0.2334
 1116BOLB   GL126763   5.509  10.531  29.827 -0.1478 -0.1283  0.4952
 1116BOLB   GL226764   5.285  10.352  30.010 -0.0007  0.1212 -0.2523
 1116BOLB   C1A26765   5.841  10.352  29.616 -0.2931 -0.2422 -0.0146
 1116BOLB   C2A26766   6.253  10.394  29.366 -0.0206  0.0120 -0.0615
 1116BOLB   C3A26767   6.251  10.308  28.893 -0.1741 -0.4133 -0.1307
 1116BOLB   C4A26768   6.235  10.306  28.410 -0.0509  0.0111 -0.1156
 1116BOLB   C1B26769   5.721  10.090  30.007  0.2145  0.1589  0.1524
 1116BOLB   C2B26770   6.059   9.884  29.712 -0.2115  0.1173 -0.0328
 1116BOLB   C3B26771   6.291   9.642  29.524  0.3758 -0.1279  0.0565
 1116BOLB   C4B26772   6.665   9.547  29.429  0.1443  0.2899  0.1322
 1116BOLB   NC226773   5.286  11.797  26.872 -0.2060 -0.2700  0.5488
 1116BOLB   PO226774   5.466  11.407  26.826  0.0071 -0.0378  0.1647
 1116BOLB   GL326775   5.830  11.168  26.807  0.3520 -0.1662  0.0118
 1116BOLB   GL426776   5.871  11.076  26.514  0.0000 -0.0249  0.0351
 1116BOLB   C1C26777   6.064  10.981  27.091  0.1220 -0.1004 -0.1212
 1116BOLB   C2C26778   6.441  10.818  27.341  0.3335  0.1562 -0.0898
 1116BOLB   C3C26779   6.503  10.560  27.739  0.4238  0.1280 -0.0625
 1116BOLB   C4C26780   6.307  10.294  27.931 -0.0440  0.0333 -0.4490
 1116BOLB   C1D26781   6.125  10.675  26.311  0.1361 -0.2841  0.0175
 1116BOLB   C2D26782   6.397  10.374  26.434  0.2790 -0.3274  0.0019
 1116BOLB   C3D26783   6.638  10.116  26.242 -0.0508 -0.0867 -0.2645
 1116BOLB   C4D26784   6.554  10.196  25.863  0.4299  0.0933 -0.0440
 1117BOLB   NC126785  11.857   1.616  17.346 -0.0183 -0.3330  0.1235
 1117BOLB   PO126786  12.269   1.476  17.316 -0.0889 -0.1368  0.0852
 1117BOLB   GL126787  12.064   1.344  16.860 -0.3871  0.0578 -0.3167
 1117BOLB   GL226788  12.128   1.477  16.625 -0.0712 -0.0066 -0.1198
 1117BOLB   C1A26789  11.887   1.059  16.656 -0.1511  0.1577 -0.0737
 1117BOLB   C2A26790  11.701   0.889  16.354  0.0008 -0.2085 -0.0595
 1117BOLB   C3A26791  11.825   0.942  15.876  0.1359 -0.1381  0.2496
 1117BOLB   C4A26792  11.949   0.561  15.614  0.0306  0.1034 -0.3551
 1117BOLB   C1B26793  11.858   1.447  16.231 -0.0757  0.2044  0.1014
 1117BOLB   C2B26794  11.537   1.361  15.897 -0.0468 -0.2961 -0.0996
 1117BOLB   C3B26795  11.302   0.989  15.757  0.1205  0.2610  0.2008
 1117BOLB   C4B26796  11.004   0.749  15.643 -0.0967  0.3184  0.0517
 1117BOLB   NC226797  11.303  -0.540  13.208 -0.0079 -0.1513  0.0684
 1117BOLB   PO226798  11.639  -0.465  13.335 -0.0233  0.0289  0.1938
 1117BOLB   GL326799  11.620  -0.481  13.809 -0.0521 -0.0546 -0.0836
 1117BOLB   GL426800  11.614  -0.750  13.940 -0.0420 -0.1435 -0.0056
 1117BOLB   C1C26801  11.560  -0.344  14.208 -0.0815  0.0267  0.0639
 1117BOLB   C2C26802  11.591  -0.076  14.562  0.0769  0.1306  0.1765
 1117BOLB   C3C26803  11.808   0.134  14.851  0.1357 -0.1939  0.3552
 1117BOLB   C4C26804  11.982   0.371  15.126 -0.0672  0.0077  0.1084
 1117BOLB   C1D26805  11.632  -0.858  14.298  0.1409 -0.0262  0.1958
 1117BOLB   C2D26806  11.761  -1.055  14.639  0.1639 -0.2389 -0.2073
 1117BOLB   C3D26807  11.692  -1.293  15.000 -0.0964 -0.2125  0.0843
 1117BOLB   C4D26808  11.490  -1.353  15.425 -0.1022  0.1965  0.0536
 1118BOLB   NC126809  17.892  -1.476  30.350  0.1550 -0.1617 -0.4341
 1118BOLB   PO126810  18.302  -1.839  30.193  0.2444 -0.0300 -0.0503
 1118BOLB   GL126811  18.600  -1.931  30.447 -0.2163  0.2548 -0.2642
 1118BOLB   GL226812  18.495  -2.276  30.662  0.0085 -0.0417  0.0338
 1118BOLB   C1A26813  18.972  -1.932  30.733  0.1017  0.5381 -0.0216
 1118BOLB   C2A26814  19.381  -2.051  31.058  0.2460  0.0509 -0.3357
 1118BOLB   C3A26815  19.758  -2.137  31.211  0.4562 -0.0490  0.3596
 1118BOLB   C4A26816  19.948  -2.203  31.618 -0.0440 -0.2146  0.0838
 1118BOLB   C1B26817  18.536  -2.593  31.009  0.1062 -0.1318  0.2493
 1118BOLB   C2B26818  18.508  -2.984  31.213  0.1488 -0.2171 -0.1138
 1118BOLB   C3B26819  18.487  -3.447  31.222 -0.4467  0.0240  0.0376
 1118BOLB   C4B26820  18.561  -3.935  31.370  0.1773  0.4126 -0.1895
 1118BOLB   NC226821  20.316  -3.557  33.401  0.1135 -0.0147 -0.1433
 1118BOLB   PO226822  20.687  -3.282  33.291  0.0755  0.3101 -0.0128
 1118BOLB   GL326823  20.322  -3.146  33.139  0.1156  0.0554  0.1294
 1118BOLB   GL426824  20.041  -3.299  33.056 -0.0337  0.0134  0.0263
 1118BOLB   C1C26825  20.162  -2.957  32.657 -0.2164  0.1091 -0.5914
 1118BOLB   C2C26826  20.327  -2.475  32.599  0.0657  0.1958 -0.0354
 1118BOLB   C3C26827  20.087  -2.289  32.424 -0.0659 -0.0126 -0.4554
 1118BOLB   C4C26828  19.921  -2.270  31.990 -0.0064 -0.2707  0.2580
 1118BOLB   C1D26829  19.758  -3.604  32.761 -0.2364  0.0655  0.2614
 1118BOLB   C2D26830  19.403  -3.675  32.496 -0.2404  0.1057  0.0048
 1118BOLB   C3D26831  19.125  -3.639  32.076 -0.2779  0.1282  0.4397
 1118BOLB   C4D26832  18.794  -3.516  31.786 -0.0910 -0.1690 -0.3975
 1119BOLB   NC126833  11.467   8.388  20.247 -0.0648 -0.1362  0.0372
 1119BOLB   PO126834  11.461   7.932  20.002  0.0912 -0.3410  0.1662
 1119BOLB   GL126835  11.397   8.153  19.565  0.0716 -0.1672 -0.0389
 1119BOLB   GL226836  11.207   8.361  19.755  0.0622  0.1303 -0.1159
 1119BOLB   C1A26837  11.425   8.386  19.167  0.0287  0.2648  0.2890
 1119BOLB   C2A26838  11.161   8.510  18.811 -0.2921 -0.2573  0.3345
 1119BOLB   C3A26839  10.883   8.488  18.608  0.0588 -0.1076 -0.2130
 1119BOLB   C4A26840  10.572   8.673  18.575  0.4529 -0.0512 -0.1145
 1119BOLB   C1B26841  10.890   8.333  19.424  0.0513 -0.0494  0.0256
 1119BOLB   C2B26842  10.677   8.500  19.063 -0.3516 -0.2920 -0.0756
 1119BOLB   C3B26843  10.367   8.841  18.960  0.3500 -0.1255 -0.3262
 1119BOLB   C4B26844  10.062   9.190  19.025 -0.4002  0.1814  0.0603
 1119BOLB   NC226845   9.457   9.897  16.894  0.2529  0.1866 -0.1769
 1119BOLB   PO226846   9.312   9.635  17.084  0.2218  0.2588 -0.3294
 1119BOLB   GL326847   9.421   9.563  17.576 -0.1236 -0.1317  0.1916
 1119BOLB   GL426848   9.606   9.181  17.589 -0.2763  0.2787 -0.1555
 1119BOLB   C1C26849   9.367   9.430  17.953 -0.1568  0.1763  0.1483
 1119BOLB   C2C26850   9.604   9.339  18.329 -0.2068 -0.2500  0.3202
 1119BOLB   C3C26851   9.856   9.171  18.479  0.1560  0.1268  0.1204
 1119BOLB   C4C26852  10.091   8.690  18.628 -0.3985  0.0595 -0.0773
 1119BOLB   C1D26853   9.810   9.072  17.884 -0.0286  0.2565  0.2387
 1119BOLB   C2D26854   9.983   8.852  18.046  0.0948  0.1072  0.1158
 1119BOLB   C3D26855  10.416   8.578  17.978 -0.3461  0.2986 -0.2123
 1119BOLB   C4D26856  10.454   8.182  17.824 -0.2848  0.1681  0.4108
 1120BOLB   NC126857  10.542  -2.387  28.127  0.1870 -0.1343  0.1981
 1120BOLB   PO126858  10.189  -2.278  27.892 -0.0819  0.0772 -0.1353
 1120BOLB   GL126859   9.993  -2.506  28.107  0.3040 -0.2857  0.2604
 1120BOLB   GL226860  10.223  -2.759  28.084 -0.0284 -0.1526 -0.2623
 1120BOLB   C1A26861   9.727  -2.750  28.427 -0.0071  0.2257 -0.2002
 1120BOLB   C2A26862   9.293  -2.876  28.536  0.0380  0.1916 -0.0233
 1120BOLB   C3A26863   9.011  -2.582  28.636 -0.0857 -0.1872 -0.0677
 1120BOLB   C4A26864   8.563  -2.679  28.618 -0.0099  0.1843  0.0368
 1120BOLB   C1B26865  10.294  -3.154  27.927 -0.1195 -0.1509 -0.0320
 1120BOLB   C2B26866  10.055  -3.632  28.080  0.2084 -0.0721 -0.1071
 1120BOLB   C3B26867  10.102  -4.125  28.143 -0.1599 -0.0441  0.1329
 1120BOLB   C4B26868  10.181  -4.508  28.372 -0.2958 -0.2596 -0.0315
 1120BOLB   NC226869   7.107  -4.610  30.296 -0.3175 -0.0867  0.2512
 1120BOLB   PO226870   7.228  -4.086  30.378 -0.1151  0.1475 -0.2073
 1120BOLB   GL326871   7.459  -3.771  30.031  0.0207  0.1512  0.3019
 1120BOLB   GL426872   7.404  -3.532  30.157  0.2938  0.2838  0.0228
 1120BOLB   C1C26873   7.590  -3.785  29.555 -0.0272  0.0736 -0.0509
 1120BOLB   C2C26874   7.794  -3.466  29.347 -0.2987 -0.0694  0.0985
 1120BOLB   C3C26875   8.118  -3.280  29.073  0.0535 -0.0579 -0.2247
 1120BOLB   C4C26876   8.295  -2.855  28.909 -0.0571 -0.0486  0.0526
 1120BOLB   C1D26877   7.616  -3.304  29.852 -0.2964  0.1453 -0.2544
 1120BOLB   C2D26878   7.957  -3.120  29.659  0.3088  0.3756  0.0005
 1120BOLB   C3D26879   8.191  -2.952  29.418 -0.2102 -0.1042 -0.2250
 1120BOLB   C4D26880   8.550  -3.142  29.195 -0.1982  0.1651 -0.2087
 1121BOLB   NC126881  18.976   8.645  19.236  0.3207  0.0917  0.1567
 1121BOLB   PO126882  18.485   8.712  19.095 -0.2945 -0.0154 -0.0944
 1121BOLB   GL126883  18.617   8.601  18.637  0.2556  0.0362  0.0821
 1121BOLB   GL226884  18.544   8.703  18.248  0.2122 -0.1104 -0.1134
 1121BOLB   C1A26885  18.973   8.467  18.277 -0.0382  0.0729 -0.3161
 1121BOLB   C2A26886  19.136   8.457  17.849 -0.0211 -0.2850  0.0270
 1121BOLB   C3A26887  19.321   8.489  17.463 -0.0471  0.1310 -0.2543
 1121BOLB   C4A26888  19.414   8.705  17.043 -0.0437 -0.1310 -0.1593
 1121BOLB   C1B26889  18.874   8.901  18.001  0.1298  0.2526 -0.2495
 1121BOLB   C2B26890  18.943   9.036  17.563  0.2773 -0.2568 -0.3674
 1121BOLB   C3B26891  19.024   8.991  17.151  0.1755 -0.2669  0.0684
 1121BOLB   C4B26892  18.896   8.922  16.691  0.2886  0.2358  0.0883
 1121BOLB   NC226893  20.061  10.123  14.700 -0.0408  0.1143 -0.1422
 1121BOLB   PO226894  20.059  10.114  15.208 -0.1582 -0.2416 -0.0737
 1121BOLB   GL326895  20.158   9.702  15.338  0.1433 -0.0157  0.4353
 1121BOLB   GL426896  20.222   9.868  15.638 -0.0012  0.0124 -0.4034
 1121BOLB   C1C26897  19.918   9.431  15.598 -0.0952 -0.0844  0.0338
 1121BOLB   C2C26898  19.591   9.393  15.997 -0.0357 -0.0295 -0.0313
 1121BOLB   C3C26899  19.477   9.294  16.341 -0.2141  0.4929  0.2300
 1121BOLB   C4C26900  19.391   8.951  16.531 -0.0752  0.1345 -0.0569
 1121BOLB   C1D26901  20.276   9.674  15.930  0.2366 -0.2164 -0.1485
 1121BOLB   C2D26902  20.226   9.379  16.201 -0.0551  0.1942  0.1785
 1121BOLB   C3D26903  19.970   9.313  16.566 -0.1240  0.2310  0.1037
 1121BOLB   C4D26904  19.780   9.012  16.875  0.1701  0.2617  0.3776
 1122BOLB   NC126905  13.865  10.471  36.402  0.0354 -0.1099  0.4296
 1122BOLB   PO126906  13.522  10.160  36.181 -0.0916  0.0041  0.1312
 1122BOLB   GL126907  13.505   9.831  35.860  0.0311  0.0914 -0.0267
 1122BOLB   GL226908  13.263   9.656  35.851 -0.2326 -0.3800 -0.4284
 1122BOLB   C1A26909  13.201  10.014  35.549  0.1614 -0.0393 -0.2068
 1122BOLB   C2A26910  13.248  10.154  35.217 -0.1530 -0.2518  0.1244
 1122BOLB   C3A26911  12.995  10.243  34.838 -0.1139  0.0274  0.0123
 1122BOLB   C4A26912  12.844  10.527  34.574  0.0832 -0.1578  0.1467
 1122BOLB   C1B26913  13.578   9.461  35.464 -0.0377  0.1891 -0.1133
 1122BOLB   C2B26914  13.944   9.286  35.071  0.2210 -0.0654  0.1693
 1122BOLB   C3B26915  14.248   8.926  35.007 -0.0076 -0.0805  0.0980
 1122BOLB   C4B26916  14.570   8.721  34.799 -0.1042  0.3172  0.0663
 1122BOLB   NC226917  12.264  12.488  34.869  0.1137  0.1427 -0.1935
 1122BOLB   PO226918  11.956  12.243  34.791 -0.2351  0.2797 -0.2797
 1122BOLB   GL326919  12.086  12.196  34.450 -0.0804 -0.4234  0.0474
 1122BOLB   GL426920  12.084  12.511  34.203 -0.3925 -0.0580  0.1371
 1122BOLB   C1C26921  12.438  11.994  34.283 -0.1691  0.3918 -0.3653
 1122BOLB   C2C26922  12.702  11.616  34.219 -0.1247  0.0014 -0.5987
 1122BOLB   C3C26923  12.797  11.152  34.145 -0.0180  0.3151  0.0531
 1122BOLB   C4C26924  12.727  10.702  34.314 -0.0923  0.2054 -0.2766
 1122BOLB   C1D26925  12.168  12.312  33.733  0.2108 -0.0050 -0.1942
 1122BOLB   C2D26926  12.471  12.127  33.599 -0.5072  0.1534 -0.2973
 1122BOLB   C3D26927  12.614  11.677  33.615  0.0613  0.0545 -0.0160
 1122BOLB   C4D26928  12.801  11.385  33.391  0.0145  0.3550 -0.2225
 1123BOLB   NC126929  16.827   3.877  16.193  0.0507 -0.2937 -0.2995
 1123BOLB   PO126930  16.524   3.505  16.137 -0.0474  0.1736  0.0530
 1123BOLB   GL126931  16.328   3.363  15.773  0.0546  0.0129 -0.0510
 1123BOLB   GL226932  16.469   2.997  15.791 -0.3338 -0.0102 -0.4386
 1123BOLB   C1A26933  16.040   3.206  15.390  0.1787 -0.0042  0.1795
 1123BOLB   C2A26934  15.917   3.122  14.944  0.0082  0.1421 -0.0502
 1123BOLB   C3A26935  15.728   2.952  14.669  0.0639 -0.2659 -0.1602
 1123BOLB   C4A26936  15.565   2.738  14.292  0.0673  0.1741  0.1627
 1123BOLB   C1B26937  16.482   3.014  15.365 -0.4392  0.1815 -0.1721
 1123BOLB   C2B26938  16.429   3.206  15.018 -0.1978 -0.1420 -0.1413
 1123BOLB   C3B26939  16.136   3.566  14.759 -0.3233 -0.0628  0.0693
 1123BOLB   C4B26940  16.040   3.586  14.414  0.1699  0.2324  0.1811
 1123BOLB   NC226941  13.560   2.508  12.732  0.2836  0.3358  0.1112
 1123BOLB   PO226942  13.733   2.352  12.423  0.1280  0.1067  0.0325
 1123BOLB   GL326943  14.101   2.438  12.705 -0.0385  0.0388 -0.3920
 1123BOLB   GL426944  13.941   2.463  13.100  0.1545 -0.3272  0.1444
 1123BOLB   C1C26945  14.409   2.350  12.980  0.0040  0.1698  0.3745
 1123BOLB   C2C26946  14.754   2.401  13.290  0.0152 -0.0958 -0.0285
 1123BOLB   C3C26947  15.075   2.500  13.568 -0.3812 -0.0313  0.0482
 1123BOLB   C4C26948  15.299   2.639  13.981  0.1980 -0.1138 -0.2450
 1123BOLB   C1D26949  13.865   2.300  13.466  0.0262 -0.1214 -0.2172
 1123BOLB   C2D26950  13.827   2.500  13.877  0.1072 -0.1051 -0.1595
 1123BOLB   C3D26951  13.812   2.431  14.310  0.1457 -0.0754 -0.1307
 1123BOLB   C4D26952  13.601   2.564  14.616  0.0643 -0.2959 -0.4302
 1124BOLB   NC126953  19.450  -3.519  24.605 -0.1093 -0.0615  0.0068
 1124BOLB   PO126954  19.369  -3.650  25.069 -0.2059  0.5301  0.1718
 1124BOLB   GL126955  19.400  -4.093  25.004  0.1863  0.1424 -0.2482
 1124BOLB   GL226956  19.232  -4.362  25.022 -0.1058  0.0645 -0.1091
 1124BOLB   C1A26957  19.731  -4.341  24.916  0.0212 -0.1478  0.0865
 1124BOLB   C2A26958  19.687  -4.726  24.686 -0.3091 -0.2929 -0.1594
 1124BOLB   C3A26959  19.742  -5.075  24.372  0.3586 -0.0237 -0.3326
 1124BOLB   C4A26960  19.637  -5.417  24.199 -0.2372 -0.1639 -0.1135
 1124BOLB   C1B26961  18.902  -4.760  25.040  0.2743  0.1092  0.1300
 1124BOLB   C2B26962  18.745  -5.073  25.433  0.2936 -0.2325  0.3108
 1124BOLB   C3B26963  18.618  -5.383  25.747 -0.4319  0.0434 -0.1849
 1124BOLB   C4B26964  18.397  -5.864  25.767  0.3697  0.1480  0.0246
 1124BOLB   NC226965  20.804  -7.800  23.383 -0.2823  0.1149 -0.0207
 1124BOLB   PO226966  20.446  -7.596  23.570  0.2282 -0.2115  0.0018
 1124BOLB   GL326967  20.543  -7.176  23.339 -0.1567 -0.2381  0.2276
 1124BOLB   GL426968  20.905  -6.922  23.392 -0.0868  0.0142 -0.0346
 1124BOLB   C1C26969  20.406  -6.740  23.578 -0.1662  0.0150  0.2089
 1124BOLB   C2C26970  20.407  -6.374  23.769 -0.1581 -0.1628  0.0070
 1124BOLB   C3C26971  20.093  -6.095  23.875  0.0675 -0.0500 -0.0454
 1124BOLB   C4C26972  19.895  -5.840  24.194  0.1904 -0.1930 -0.0163
 1124BOLB   C1D26973  20.653  -6.514  23.242  0.2419 -0.0823 -0.3804
 1124BOLB   C2D26974  20.519  -6.277  22.912  0.2635  0.0982  0.0157
 1124BOLB   C3D26975  20.394  -5.905  22.870 -0.1274  0.3436  0.2080
 1124BOLB   C4D26976  20.081  -5.630  22.766 -0.3046 -0.1752  0.3746
 1125BOLB   NC126977  17.563  -4.158  20.031 -0.0619 -0.1589  0.1106
 1125BOLB   PO126978  17.789  -4.219  20.367 -0.1244  0.4212  0.1014
 1125BOLB   GL126979  17.720  -4.646  20.095  0.0396  0.1880  0.0887
 1125BOLB   GL226980  17.713  -4.787  20.431 -0.0833 -0.3054  0.4279
 1125BOLB   C1A26981  17.715  -5.108  20.023  0.0202  0.1885 -0.0091
 1125BOLB   C2A26982  17.621  -5.422  19.663  0.0166  0.0397 -0.1076
 1125BOLB   C3A26983  17.629  -5.927  19.670 -0.0449 -0.0445  0.4570
 1125BOLB   C4A26984  17.833  -6.392  19.566  0.3183  0.0923 -0.1756
 1125BOLB   C1B26985  18.165  -4.813  20.248 -0.3900  0.1009  0.1601
 1125BOLB   C2B26986  18.471  -4.985  20.055 -0.3775  0.0124  0.1865
 1125BOLB   C3B26987  18.912  -5.265  20.060  0.1699 -0.0752  0.0763
 1125BOLB   C4B26988  19.143  -5.529  19.999  0.0197 -0.1527 -0.0837
 1125BOLB   NC226989  18.438  -8.948  20.524 -0.2089 -0.2854 -0.2267
 1125BOLB   PO226990  18.604  -8.488  20.409  0.0554  0.0090 -0.0267
 1125BOLB   GL326991  18.434  -8.098  20.354 -0.0449  0.1408 -0.2062
 1125BOLB   GL426992  18.670  -7.882  20.557 -0.1742 -0.0749  0.1496
 1125BOLB   C1C26993  18.308  -7.688  20.084  0.1281 -0.0507 -0.0879
 1125BOLB   C2C26994  18.332  -7.294  19.840 -0.2071  0.1885  0.0405
 1125BOLB   C3C26995  18.459  -6.914  19.782  0.1201  0.0615 -0.0956
 1125BOLB   C4C26996  18.190  -6.661  19.509  0.2171  0.4616  0.0479
 1125BOLB   C1D26997  18.501  -7.388  20.645  0.1224  0.0051 -0.1348
 1125BOLB   C2D26998  18.261  -6.946  20.651 -0.3062 -0.2296 -0.0088
 1125BOLB   C3D26999  18.116  -6.815  21.078  0.0149 -0.2056 -0.2849
 1125BOLB   C4D27000  17.940  -6.664  21.451 -0.2018  0.1650  0.0966
 1126BOLB   NC127001  17.346  10.785  20.979  0.1109  0.1423 -0.0572
 1126BOLB   PO127002  16.863  10.772  20.798  0.1010 -0.0986 -0.2758
 1126BOLB   GL127003  17.031  11.124  20.672  0.0031 -0.2518 -0.0695
 1126BOLB   GL227004  17.255  11.001  20.494  0.2402 -0.1826 -0.1438
 1126BOLB   C1A27005  17.448  11.440  20.409 -0.0821 -0.3710 -0.1280
 1126BOLB   C2A27006  17.204  11.722  20.072  0.2025  0.1607 -0.4402
 1126BOLB   C3A27007  16.881  11.931  19.874 -0.3053  0.2059 -0.3379
 1126BOLB   C4A27008  16.575  12.182  19.821 -0.0191 -0.0009  0.0872
 1126BOLB   C1B27009  17.017  11.146  20.162 -0.2322 -0.4611  0.1882
 1126BOLB   C2B27010  16.768  11.448  20.116 -0.2780 -0.0264  0.0988
 1126BOLB   C3B27011  16.370  11.768  20.251 -0.1146  0.0739  0.2076
 1126BOLB   C4B27012  16.143  12.134  20.229  0.3900 -0.0773  0.1684
 1126BOLB   NC227013  16.478  14.444  19.359  0.2110 -0.1742 -0.1445
 1126BOLB   PO227014  16.382  14.649  19.712  0.0366 -0.1694 -0.0654
 1126BOLB   GL327015  16.399  14.235  19.823  0.2279 -0.1828  0.3330
 1126BOLB   GL427016  16.119  14.165  19.801 -0.1918 -0.0805 -0.2089
 1126BOLB   C1C27017  16.445  13.769  19.840 -0.3122  0.2287 -0.1808
 1126BOLB   C2C27018  16.386  13.465  20.163 -0.0048 -0.4196 -0.0817
 1126BOLB   C3C27019  16.411  13.036  20.274  0.3942  0.1719  0.1497
 1126BOLB   C4C27020  16.413  12.589  19.956 -0.1091 -0.0287 -0.1251
 1126BOLB   C1D27021  15.981  13.807  20.025 -0.0448 -0.1392 -0.0509
 1126BOLB   C2D27022  15.951  13.639  20.460 -0.1968 -0.0121 -0.0643
 1126BOLB   C3D27023  16.156  13.287  20.677  0.1155  0.0507  0.0949
 1126BOLB   C4D27024  16.275  12.948  20.783  0.3788  0.2121 -0.2240
 1127BOLB   NC127025  20.320   9.514  21.403 -0.0688  0.0016  0.1334
 1127BOLB   PO127026  20.211   9.887  21.111  0.4830 -0.0332 -0.1903
 1127BOLB   GL127027  20.175  10.258  21.010 -0.0312 -0.0059 -0.0148
 1127BOLB   GL227028  20.579  10.121  20.922  0.1476  0.3251 -0.1207
 1127BOLB   C1A27029  20.219  10.601  20.870 -0.3488  0.1168  0.5522
 1127BOLB   C2A27030  20.202  11.068  21.021 -0.4395  0.0397  0.0288
 1127BOLB   C3A27031  20.430  11.419  21.029  0.0471  0.1195 -0.1237
 1127BOLB   C4A27032  20.848  11.585  21.016  0.2264 -0.2451  0.2317
 1127BOLB   C1B27033  20.690  10.546  20.676 -0.1108 -0.0618 -0.0316
 1127BOLB   C2B27034  20.983  10.746  20.387  0.0968 -0.2568  0.0522
 1127BOLB   C3B27035  21.130  11.085  20.259  0.2064  0.0185  0.0696
 1127BOLB   C4B27036  21.391  11.307  20.337  0.0548 -0.0181  0.1088
 1127BOLB   NC227037  22.520  13.126  20.178 -0.1131  0.0343  0.1088
 1127BOLB   PO227038  22.431  13.320  20.442  0.0106 -0.0183  0.4192
 1127BOLB   GL327039  22.217  12.926  20.555  0.3037  0.1639  0.2193
 1127BOLB   GL427040  22.007  13.092  20.797 -0.1039 -0.2119 -0.0595
 1127BOLB   C1C27041  22.208  12.616  20.850  0.0694  0.3001  0.1966
 1127BOLB   C2C27042  21.793  12.443  21.005  0.2779  0.0264 -0.1086
 1127BOLB   C3C27043  21.571  12.178  21.139 -0.0518 -0.3558 -0.0656
 1127BOLB   C4C27044  21.165  11.988  20.971  0.2679 -0.1784 -0.2619
 1127BOLB   C1D27045  21.741  12.903  20.492 -0.0691  0.1950  0.1594
 1127BOLB   C2D27046  21.225  12.927  20.622  0.1953 -0.1688 -0.3734
 1127BOLB   C3D27047  20.920  12.629  20.582  0.0665 -0.2172  0.0945
 1127BOLB   C4D27048  20.861  12.221  20.593 -0.0412  0.3883 -0.0238
 1128BOLB   NC127049  22.580   9.605  27.924 -0.1974  0.3925 -0.4054
 1128BOLB   PO127050  22.362   9.612  27.685 -0.0840 -0.0515  0.5178
 1128BOLB   GL127051  22.442  10.008  27.649  0.2419 -0.0494 -0.2430
 1128BOLB   GL227052  22.322  10.328  27.563  0.0529  0.2300  0.0149
 1128BOLB   C1A27053  22.770  10.346  27.802 -0.0930  0.0441  0.3183
 1128BOLB   C2A27054  22.986  10.692  27.851 -0.0155  0.0206  0.2217
 1128BOLB   C3A27055  23.116  11.120  27.985 -0.1948  0.2460 -0.2013
 1128BOLB   C4A27056  23.496  11.296  28.186  0.1039  0.1468  0.0310
 1128BOLB   C1B27057  22.520  10.726  27.629  0.2826  0.1580 -0.2604
 1128BOLB   C2B27058  22.613  11.051  27.787  0.2611 -0.1879 -0.1992
 1128BOLB   C3B27059  22.598  11.376  28.048 -0.0242  0.0468 -0.1322
 1128BOLB   C4B27060  22.957  11.465  28.295  0.0295 -0.0610  0.0909
 1128BOLB   NC227061  24.568  13.403  28.460 -0.2317  0.0940 -0.1828
 1128BOLB   PO227062  24.329  13.739  28.619 -0.0100 -0.1949  0.3032
 1128BOLB   GL327063  24.048  13.365  28.507  0.0178  0.0564  0.0969
 1128BOLB   GL427064  23.750  13.388  28.782 -0.2828  0.2561  0.0918
 1128BOLB   C1C27065  24.043  12.963  28.593 -0.3089  0.2386  0.1375
 1128BOLB   C2C27066  23.817  12.555  28.406 -0.1547  0.1851  0.3031
 1128BOLB   C3C27067  23.774  12.100  28.620 -0.0179 -0.0597  0.3866
 1128BOLB   C4C27068  23.681  11.646  28.410 -0.0518 -0.0871  0.1103
 1128BOLB   C1D27069  23.561  13.142  28.539 -0.0281 -0.1129  0.0881
 1128BOLB   C2D27070  23.358  12.799  28.405  0.0147 -0.0490 -0.2175
 1128BOLB   C3D27071  23.053  12.383  28.243  0.0944 -0.2088 -0.2399
 1128BOLB   C4D27072  23.015  12.155  27.906  0.0466 -0.2005  0.1399
 1129BOLB   NC127073  14.772  -0.128  16.426  0.2579  0.1446  0.0211
 1129BOLB   PO127074  14.437   0.049  16.688 -0.1304  0.1070 -0.0475
 1129BOLB   GL127075  14.293  -0.158  16.258 -0.1689 -0.1062  0.1351
 1129BOLB   GL227076  14.099  -0.346  16.189 -0.2451 -0.2595  0.0089
 1129BOLB   C1A27077  14.169   0.032  15.846  0.1963  0.1058 -0.1463
 1129BOLB   C2A27078  14.324  -0.056  15.439 -0.3492 -0.2923 -0.0130
 1129BOLB   C3A27079  14.499  -0.230  14.992  0.4203 -0.0276 -0.1917
 1129BOLB   C4A27080  14.767  -0.077  14.834  0.2981 -0.0673 -0.1302
 1129BOLB   C1B27081  14.219  -0.486  15.805  0.1276  0.0296  0.1633
 1129BOLB   C2B27082  14.277  -0.648  15.445  0.1456  0.2347  0.1602
 1129BOLB   C3B27083  14.710  -0.597  15.658 -0.1533 -0.1727 -0.0429
 1129BOLB   C4B27084  15.193  -0.441  15.599 -0.1764 -0.3164 -0.0939
 1129BOLB   NC227085  13.355  -0.493  13.086  0.1217  0.1604  0.1114
 1129BOLB   PO227086  13.474  -0.978  13.004  0.0310  0.1817 -0.0624
 1129BOLB   GL327087  13.597  -0.836  13.400 -0.0625 -0.0614  0.2133
 1129BOLB   GL427088  13.903  -0.973  13.521 -0.5132  0.0327  0.1973
 1129BOLB   C1C27089  13.759  -0.442  13.528  0.0252 -0.0103 -0.0438
 1129BOLB   C2C27090  14.083  -0.190  13.732  0.2457 -0.2714  0.2414
 1129BOLB   C3C27091  14.473   0.008  14.048 -0.0634  0.1315 -0.0613
 1129BOLB   C4C27092  14.758   0.130  14.426  0.0468  0.0730  0.1521
 1129BOLB   C1D27093  14.081  -1.152  13.876 -0.0932  0.0446 -0.2009
 1129BOLB   C2D27094  14.458  -1.000  14.117 -0.1140  0.0271  0.2014
 1129BOLB   C3D27095  14.288  -0.825  14.517 -0.0439 -0.2252  0.5345
 1129BOLB   C4D27096  14.286  -0.659  14.889 -0.1093  0.0591 -0.0267
 1130BOLB   NC127097  12.455  11.638  29.492 -0.0032 -0.1452  0.0644
 1130BOLB   PO127098  12.022  11.467  29.517 -0.0813  0.2017  0.4064
 1130BOLB   GL127099  11.765  11.787  29.637 -0.3527 -0.0270 -0.3598
 1130BOLB   GL227100  11.396  11.752  29.730 -0.2561 -0.1525 -0.2966
 1130BOLB   C1A27101  11.728  12.145  29.893  0.1000 -0.0941 -0.1474
 1130BOLB   C2A27102  11.606  12.532  30.052  0.1246 -0.1379 -0.3448
 1130BOLB   C3A27103  11.350  12.721  30.437  0.1190  0.1065  0.2892
 1130BOLB   C4A27104  11.259  13.128  30.590  0.2142  0.1864 -0.3825
 1130BOLB   C1B27105  11.195  12.228  29.720 -0.1574  0.1369  0.0542
 1130BOLB   C2B27106  11.015  12.607  29.923 -0.0579  0.1862 -0.0366
 1130BOLB   C3B27107  11.288  12.928  29.949 -0.0161  0.0959 -0.3866
 1130BOLB   C4B27108  11.376  13.374  29.901  0.0863  0.0248 -0.2550
 1130BOLB   NC227109  11.229  15.323  31.466 -0.0262  0.0058  0.0581
 1130BOLB   PO227110  11.289  15.628  31.087  0.2880 -0.4539 -0.0526
 1130BOLB   GL327111  11.319  15.164  30.982 -0.1549  0.1822  0.0057
 1130BOLB   GL427112  11.461  15.068  30.627 -0.1550  0.2941 -0.2242
 1130BOLB   C1C27113  11.312  14.655  31.017 -0.0933 -0.0109  0.2243
 1130BOLB   C2C27114  11.445  14.323  30.854  0.2009  0.0772  0.0587
 1130BOLB   C3C27115  11.371  14.003  30.470 -0.0271 -0.0120 -0.0021
 1130BOLB   C4C27116  11.447  13.581  30.510 -0.1609 -0.0630  0.1417
 1130BOLB   C1D27117  11.396  14.782  30.407 -0.1153 -0.4179 -0.2996
 1130BOLB   C2D27118  11.319  14.407  30.237  0.1602 -0.1830 -0.0411
 1130BOLB   C3D27119  11.406  14.161  29.874 -0.0923  0.2271  0.0724
 1130BOLB   C4D27120  11.589  13.832  29.761 -0.2230 -0.2533  0.1296
 1131BOLB   NC127121  24.130   1.399  29.297  0.0228  0.1344  0.1203
 1131BOLB   PO127122  24.379   1.821  29.346 -0.1592  0.0510 -0.3788
 1131BOLB   GL127123  24.631   1.421  29.523  0.1192  0.1332  0.1111
 1131BOLB   GL227124  24.573   1.095  29.347 -0.0118 -0.0133  0.1275
 1131BOLB   C1A27125  24.961   1.236  29.858  0.1214 -0.1599 -0.1886
 1131BOLB   C2A27126  25.092   1.231  30.349 -0.0655  0.1065  0.0101
 1131BOLB   C3A27127  25.231   1.330  30.780  0.0174 -0.2571 -0.1062
 1131BOLB   C4A27128  25.270   1.166  31.173  0.0277  0.1446 -0.1523
 1131BOLB   C1B27129  25.148   1.268  29.272 -0.0117 -0.1899 -0.1049
 1131BOLB   C2B27130  25.621   1.250  29.189  0.1388  0.0719  0.0359
 1131BOLB   C3B27131  25.978   1.065  28.949 -0.0596  0.1462 -0.0132
 1131BOLB   C4B27132  26.359   0.966  28.836 -0.1739 -0.2197  0.1921
 1131BOLB   NC227133  25.746  -1.070  31.861  0.4318  0.0490  0.1898
 1131BOLB   PO227134  26.001  -0.776  31.631 -0.3125 -0.1915 -0.0679
 1131BOLB   GL327135  25.656  -0.695  31.406 -0.0981 -0.1284  0.1261
 1131BOLB   GL427136  25.628  -0.858  31.070 -0.1392 -0.0495 -0.0110
 1131BOLB   C1C27137  25.396  -0.372  31.523 -0.1688  0.2387 -0.0859
 1131BOLB   C2C27138  25.354  -0.046  31.758  0.0450  0.0012 -0.1529
 1131BOLB   C3C27139  25.288   0.464  31.645  0.0621 -0.2876 -0.3828
 1131BOLB   C4C27140  25.141   0.743  31.309 -0.0845  0.0410 -0.1819
 1131BOLB   C1D27141  25.282  -0.629  31.028 -0.1298  0.2680 -0.1278
 1131BOLB   C2D27142  24.949  -0.574  31.424  0.0533  0.0563  0.0287
 1131BOLB   C3D27143  25.042  -0.503  31.895 -0.3546 -0.1998 -0.0777
 1131BOLB   C4D27144  25.208  -0.238  32.216 -0.0219 -0.2747 -0.2159
 1132BOLB   NC127145  15.647   7.770  17.945 -0.1095  0.0991  0.0330
 1132BOLB   PO127146  15.938   8.073  18.088  0.0467  0.0358 -0.2724
 1132BOLB   GL127147  16.182   8.366  17.759  0.4247  0.4186 -0.1771
 1132BOLB   GL227148  16.488   8.251  17.525  0.0719 -0.0059  0.1018
 1132BOLB   C1A27149  16.332   8.754  17.484 -0.1822 -0.0983 -0.2679
 1132BOLB   C2A27150  16.401   9.063  17.163 -0.1051  0.3590  0.1234
 1132BOLB   C3A27151  16.370   9.287  16.845 -0.0053 -0.3313 -0.0896
 1132BOLB   C4A27152  16.698   9.540  16.631 -0.0766 -0.2782  0.2002
 1132BOLB   C1B27153  16.651   8.477  17.206 -0.2259 -0.0829  0.0120
 1132BOLB   C2B27154  16.808   8.681  16.747 -0.1409  0.2158 -0.1385
 1132BOLB   C3B27155  16.979   9.166  16.778 -0.1247  0.0428  0.0400
 1132BOLB   C4B27156  17.454   9.260  16.841  0.0893 -0.1383  0.1299
 1132BOLB   NC227157  17.032  10.702  14.968 -0.1460  0.2313  0.1743
 1132BOLB   PO227158  17.028  10.725  14.463 -0.0686 -0.2908 -0.1872
 1132BOLB   GL327159  16.993  10.272  14.624 -0.2278  0.1068  0.2051
 1132BOLB   GL427160  16.805  10.224  14.968 -0.2190 -0.1627  0.0257
 1132BOLB   C1C27161  17.173   9.860  14.870 -0.0437  0.1876  0.0281
 1132BOLB   C2C27162  17.045   9.653  15.224  0.0446 -0.1004  0.2370
 1132BOLB   C3C27163  16.967   9.598  15.717  0.1590 -0.1446  0.0922
 1132BOLB   C4C27164  16.843   9.705  16.188  0.0178  0.0435 -0.1758
 1132BOLB   C1D27165  16.626   9.973  15.388  0.1384 -0.0105 -0.4284
 1132BOLB   C2D27166  16.528   9.525  15.421  0.1523  0.0781  0.0413
 1132BOLB   C3D27167  16.726   9.195  15.463  0.0219 -0.0945 -0.0092
 1132BOLB   C4D27168  16.557   8.795  15.562 -0.1574  0.1445  0.0959
 1133BOLB   NC127169  23.548   4.442  36.204  0.0374 -0.0058  0.0399
 1133BOLB   PO127170  23.695   4.188  35.875 -0.0823 -0.1848  0.2833
 1133BOLB   GL127171  23.564   4.417  35.386  0.0918 -0.0734  0.0401
 1133BOLB   GL227172  23.747   4.323  35.132 -0.1435 -0.2261  0.3466
 1133BOLB   C1A27173  23.213   4.339  35.123 -0.1844  0.4500 -0.0865
 1133BOLB   C2A27174  22.801   4.363  34.835 -0.0616  0.1141  0.2054
 1133BOLB   C3A27175  22.467   4.431  34.528 -0.1938  0.0253  0.1408
 1133BOLB   C4A27176  22.229   4.648  34.250  0.0553 -0.3344  0.3204
 1133BOLB   C1B27177  23.576   4.139  34.780  0.2070 -0.0387 -0.0344
 1133BOLB   C2B27178  23.478   4.083  34.330 -0.2433 -0.0698 -0.2183
 1133BOLB   C3B27179  23.047   4.189  34.128  0.0346 -0.2015 -0.1230
 1133BOLB   C4B27180  22.847   4.085  33.724  0.0513  0.1231  0.3431
 1133BOLB   NC227181  23.480   5.201  35.720 -0.2536 -0.4859 -0.0424
 1133BOLB   PO227182  23.060   5.066  35.753 -0.1793  0.0368  0.0388
 1133BOLB   GL327183  22.953   5.319  35.428  0.0125 -0.1273 -0.2768
 1133BOLB   GL427184  22.634   5.375  35.370 -0.1057 -0.2189 -0.0793
 1133BOLB   C1C27185  23.088   5.297  35.000  0.1128 -0.2936  0.4121
 1133BOLB   C2C27186  22.932   5.285  34.596 -0.0663 -0.4922 -0.4672
 1133BOLB   C3C27187  22.749   5.332  34.230 -0.0774  0.2175  0.2229
 1133BOLB   C4C27188  22.440   5.022  34.135  0.1423  0.2131 -0.0765
 1133BOLB   C1D27189  22.580   5.203  34.910 -0.1663  0.1824  0.1271
 1133BOLB   C2D27190  22.254   5.263  34.584 -0.1952 -0.1809  0.3034
 1133BOLB   C3D27191  21.906   5.067  34.306 -0.4217 -0.0133  0.1530
 1133BOLB   C4D27192  21.449   5.199  34.295 -0.0725 -0.0622 -0.3047
 1134BOLB   NC127193  11.121  11.567  27.672 -0.0089  0.0785  0.0514
 1134BOLB   PO127194  10.797  11.608  27.415  0.3642  0.1049  0.0177
 1134BOLB   GL127195  10.524  11.946  27.267 -0.0863 -0.4067  0.0019
 1134BOLB   GL227196  10.618  12.139  27.027  0.1276  0.3335  0.2027
 1134BOLB   C1A27197  10.367  12.330  27.362  0.0401  0.2881 -0.2426
 1134BOLB   C2A27198  10.211  12.662  27.219  0.2053  0.0101 -0.1448
 1134BOLB   C3A27199  10.050  13.080  27.222  0.1127  0.0263  0.1712
 1134BOLB   C4A27200   9.802  13.294  27.672 -0.0669 -0.1827  0.0661
 1134BOLB   C1B27201  10.472  12.380  26.792  0.3974 -0.1006  0.2624
 1134BOLB   C2B27202  10.313  12.836  26.711 -0.3619  0.1200 -0.3160
 1134BOLB   C3B27203  10.247  13.293  26.737 -0.1142 -0.0291  0.0015
 1134BOLB   C4B27204  10.232  13.758  26.823 -0.0139 -0.4569 -0.0232
 1134BOLB   NC227205   7.897  14.850  27.776 -0.1010 -0.2820  0.2800
 1134BOLB   PO227206   7.917  14.647  27.544 -0.0395 -0.0342  0.2506
 1134BOLB   GL327207   8.407  14.636  27.606  0.0593  0.1435 -0.1679
 1134BOLB   GL427208   8.353  14.456  27.215  0.0614 -0.5456 -0.1674
 1134BOLB   C1C27209   8.834  14.505  27.612  0.0950 -0.1792 -0.0986
 1134BOLB   C2C27210   9.035  14.196  27.494 -0.3093 -0.0994  0.3919
 1134BOLB   C3C27211   9.365  13.852  27.620  0.0763  0.0566 -0.1401
 1134BOLB   C4C27212   9.606  13.556  27.572 -0.0517 -0.3607  0.0940
 1134BOLB   C1D27213   8.768  14.387  27.108 -0.0383 -0.1507  0.1181
 1134BOLB   C2D27214   9.074  14.349  26.848 -0.2164  0.0409  0.0510
 1134BOLB   C3D27215   9.304  14.037  26.620  0.0740 -0.0496 -0.3555
 1134BOLB   C4D27216   9.406  13.579  26.672  0.4347 -0.2561  0.1669
 1135BOLB   NC127217  22.898   7.001  29.549 -0.3583  0.2168 -0.0311
 1135BOLB   PO127218  23.128   7.263  29.510 -0.1701  0.2681 -0.0166
 1135BOLB   GL127219  23.494   7.467  29.853  0.2578  0.0817  0.4470
 1135BOLB   GL227220  23.741   7.528  29.756 -0.4750 -0.0635  0.1617
 1135BOLB   C1A27221  23.707   7.627  30.265 -0.2511  0.0863  0.3136
 1135BOLB   C2A27222  23.839   7.809  30.679 -0.0260  0.0566 -0.2274
 1135BOLB   C3A27223  24.031   7.921  31.098 -0.1116 -0.1262  0.2821
 1135BOLB   C4A27224  24.502   8.000  31.318  0.0483  0.1625 -0.0389
 1135BOLB   C1B27225  24.120   7.619  29.858 -0.2683  0.0256 -0.0459
 1135BOLB   C2B27226  24.424   7.736  29.970  0.0518 -0.0389  0.1978
 1135BOLB   C3B27227  24.810   7.986  30.124  0.0256 -0.1769  0.3789
 1135BOLB   C4B27228  25.053   8.289  30.189  0.0525 -0.0743 -0.4222
 1135BOLB   NC227229  25.610   9.831  32.393 -0.0034  0.1006 -0.0327
 1135BOLB   PO227230  25.295   9.613  32.047  0.0895 -0.1149 -0.0186
 1135BOLB   GL327231  25.322   9.435  31.648 -0.0360  0.0082  0.1535
 1135BOLB   GL427232  25.062   9.484  31.551  0.2758  0.0946  0.0778
 1135BOLB   C1C27233  25.453   9.197  31.378 -0.0931  0.1907 -0.1089
 1135BOLB   C2C27234  25.376   8.704  31.330 -0.1218  0.3637 -0.2302
 1135BOLB   C3C27235  25.167   8.449  31.351 -0.0766 -0.0321 -0.1312
 1135BOLB   C4C27236  24.792   8.278  31.176  0.0508 -0.0678  0.2964
 1135BOLB   C1D27237  24.775   9.289  31.242 -0.2522 -0.0206 -0.3182
 1135BOLB   C2D27238  24.337   9.089  31.176 -0.2069 -0.1434 -0.1191
 1135BOLB   C3D27239  23.840   8.872  31.310 -0.1133  0.0505 -0.1682
 1135BOLB   C4D27240  23.422   8.723  31.336  0.3091  0.4182  0.0378
 1136BOLB   NC127241  16.800   7.257  12.360 -0.1018 -0.0211 -0.0196
 1136BOLB   PO127242  16.687   7.630  12.643  0.1108  0.0948  0.0982
 1136BOLB   GL127243  16.669   7.266  12.888  0.0485  0.2499  0.4249
 1136BOLB   GL227244  16.398   7.034  13.000  0.2520 -0.1897  0.1224
 1136BOLB   C1A27245  16.860   7.010  13.187 -0.1924  0.3655 -0.2363
 1136BOLB   C2A27246  16.968   7.079  13.620 -0.3628  0.2624 -0.0267
 1136BOLB   C3A27247  17.193   7.109  14.068 -0.0194 -0.1161  0.0267
 1136BOLB   C4A27248  17.111   7.170  14.492 -0.2527 -0.0961 -0.1418
 1136BOLB   C1B27249  16.410   7.001  13.458 -0.2630 -0.2954  0.0772
 1136BOLB   C2B27250  16.542   6.691  13.720  0.2497  0.0589  0.1665
 1136BOLB   C3B27251  16.317   6.686  14.049  0.2434  0.0488 -0.1323
 1136BOLB   C4B27252  15.876   6.783  14.065 -0.1112 -0.1183  0.1133
 1136BOLB   NC227253  16.240   7.785  12.761 -0.0294 -0.2260  0.1643
 1136BOLB   PO227254  16.201   7.480  13.036 -0.1982 -0.1248 -0.3133
 1136BOLB   GL327255  16.074   7.429  13.379 -0.1209  0.0908  0.0143
 1136BOLB   GL427256  15.946   7.750  13.547  0.1563  0.0999  0.0973
 1136BOLB   C1C27257  15.993   7.203  13.806 -0.0218 -0.1765  0.0157
 1136BOLB   C2C27258  16.076   7.256  14.221  0.0527 -0.2830  0.1298
 1136BOLB   C3C27259  16.312   7.131  14.551  0.1077 -0.0137 -0.1938
 1136BOLB   C4C27260  16.689   7.047  14.569  0.1641  0.0672  0.2198
 1136BOLB   C1D27261  15.570   7.492  13.738  0.1363  0.0847  0.3598
 1136BOLB   C2D27262  15.552   7.180  14.075 -0.1275  0.2703  0.0464
 1136BOLB   C3D27263  15.707   7.045  14.517 -0.0286 -0.2413 -0.0459
 1136BOLB   C4D27264  15.945   7.080  14.917 -0.3765 -0.0483  0.4102
 1137BOLB   NC127265  11.859  -2.694  19.668  0.0568 -0.2112  0.1241
 1137BOLB   PO127266  12.213  -2.812  19.504 -0.1276 -0.1573  0.1311
 1137BOLB   GL127267  12.066  -3.150  19.313  0.3795 -0.3311  0.3513
 1137BOLB   GL227268  12.356  -3.165  19.113  0.5959 -0.3468  0.2855
 1137BOLB   C1A27269  11.822  -3.500  19.227  0.0245 -0.1818  0.0267
 1137BOLB   C2A27270  11.580  -3.843  19.039  0.1654  0.3882 -0.0722
 1137BOLB   C3A27271  11.168  -4.113  18.861 -0.2334  0.0668 -0.0956
 1137BOLB   C4A27272  10.913  -4.514  18.926 -0.2815 -0.0137  0.0788
 1137BOLB   C1B27273  12.336  -3.402  18.654  0.1463  0.1345 -0.0815
 1137BOLB   C2B27274  12.153  -3.073  18.343  0.1227  0.0031 -0.0980
 1137BOLB   C3B27275  12.159  -3.180  17.970 -0.1415 -0.0732  0.0551
 1137BOLB   C4B27276  11.870  -3.361  17.671  0.0585  0.3251 -0.1966
 1137BOLB   NC227277  11.175  -7.264  18.916  0.0201 -0.2633 -0.2566
 1137BOLB   PO227278  10.742  -7.091  18.688 -0.1504  0.4221  0.2167
 1137BOLB   GL327279  11.062  -6.734  18.645 -0.1050  0.1578 -0.0093
 1137BOLB   GL427280  11.334  -6.732  18.860  0.3550  0.1677 -0.1350
 1137BOLB   C1C27281  10.881  -6.160  18.672  0.1502 -0.1285  0.0450
 1137BOLB   C2C27282  10.760  -5.791  18.802  0.0094 -0.2040 -0.1079
 1137BOLB   C3C27283  11.002  -5.327  18.797  0.1742  0.1478  0.1718
 1137BOLB   C4C27284  10.918  -4.971  18.844 -0.0362  0.0017  0.1163
 1137BOLB   C1D27285  11.505  -6.351  19.046 -0.1970  0.3153  0.3598
 1137BOLB   C2D27286  11.588  -6.226  19.457 -0.1477  0.2793 -0.1078
 1137BOLB   C3D27287  11.599  -5.974  19.862  0.0070  0.0873 -0.1891
 1137BOLB   C4D27288  11.672  -5.604  20.058 -0.1411 -0.0537  0.1553
 1138BOLB   NC127289  16.751   9.467  19.353  0.1806  0.0319  0.4513
 1138BOLB   PO127290  16.444   9.639  19.582 -0.1679  0.0946  0.0191
 1138BOLB   GL127291  16.528   9.936  19.340  0.2202  0.1439  0.0686
 1138BOLB   GL227292  16.485   9.776  19.051 -0.0177  0.4135  0.1071
 1138BOLB   C1A27293  16.540  10.378  19.296  0.0732 -0.5559  0.1687
 1138BOLB   C2A27294  16.510  10.863  19.296  0.0290 -0.2978  0.1619
 1138BOLB   C3A27295  16.242  11.046  19.089  0.0917  0.0902 -0.3521
 1138BOLB   C4A27296  16.007  11.259  18.703 -0.0546 -0.3619 -0.2149
 1138BOLB   C1B27297  16.556  10.088  18.845  0.0265 -0.1452  0.0546
 1138BOLB   C2B27298  16.627  10.484  18.545  0.1316  0.0295  0.0116
 1138BOLB   C3B27299  16.860  10.816  18.228  0.1653 -0.2008 -0.1705
 1138BOLB   C4B27300  17.309  10.925  17.961 -0.0416 -0.0911  0.3200
 1138BOLB   NC227301  15.949  11.999  16.166 -0.1886 -0.0100  0.1290
 1138BOLB   PO227302  15.868  12.203  16.462 -0.0493 -0.3388  0.2458
 1138BOLB   GL327303  15.967  12.109  16.853  0.1961  0.1846 -0.2143
 1138BOLB   GL427304  15.701  12.094  16.958  0.0324  0.0534 -0.1533
 1138BOLB   C1C27305  15.976  12.039  17.305 -0.0789  0.1695  0.4603
 1138BOLB   C2C27306  16.102  11.855  17.766 -0.0159 -0.3152  0.4403
 1138BOLB   C3C27307  16.046  11.662  18.029  0.0286 -0.1456 -0.0672
 1138BOLB   C4C27308  16.062  11.517  18.417  0.3198  0.0675 -0.1383
 1138BOLB   C1D27309  15.524  11.707  17.095 -0.3234  0.0499  0.1500
 1138BOLB   C2D27310  15.460  11.295  17.342 -0.1614 -0.1932  0.0796
 1138BOLB   C3D27311  15.541  11.000  17.677  0.0443 -0.1021  0.1532
 1138BOLB   C4D27312  15.627  10.559  17.982 -0.1533 -0.1748  0.3764
 1139BOLB   NC127313  22.745  -0.558  20.276 -0.1855  0.0279 -0.3252
 1139BOLB   PO127314  22.449  -0.822  20.401 -0.2261  0.0008  0.4085
 1139BOLB   GL127315  22.629  -0.984  19.991  0.6819 -0.2566 -0.2046
 1139BOLB   GL227316  22.505  -1.238  20.103  0.0217  0.2631  0.3630
 1139BOLB   C1A27317  22.930  -1.185  19.750 -0.2430  0.0372  0.3301
 1139BOLB   C2A27318  23.232  -1.231  19.510  0.1583 -0.2169 -0.1072
 1139BOLB   C3A27319  23.585  -1.327  19.330  0.1168 -0.0595  0.0330
 1139BOLB   C4A27320  24.056  -1.417  19.283  0.1979 -0.5714  0.4518
 1139BOLB   C1B27321  22.586  -1.501  19.941  0.2630  0.3859  0.1280
 1139BOLB   C2B27322  22.530  -1.941  19.829  0.3639  0.0207  0.3302
 1139BOLB   C3B27323  22.494  -2.256  20.093 -0.1849  0.4130 -0.0599
 1139BOLB   C4B27324  22.261  -2.482  20.452  0.2211 -0.3085  0.0687
 1139BOLB   NC227325  26.707  -1.493  18.440  0.0583 -0.1206 -0.5228
 1139BOLB   PO227326  26.355  -1.761  18.501  0.0887  0.1400  0.1250
 1139BOLB   GL327327  25.938  -1.714  18.630 -0.1677  0.1217  0.2129
 1139BOLB   GL427328  26.018  -1.524  18.949  0.0140 -0.1596  0.0635
 1139BOLB   C1C27329  25.492  -1.673  18.694 -0.1260 -0.0531  0.2878
 1139BOLB   C2C27330  25.022  -1.585  18.635 -0.0444 -0.3188  0.0918
 1139BOLB   C3C27331  24.749  -1.617  18.830 -0.3854 -0.0028 -0.0485
 1139BOLB   C4C27332  24.399  -1.606  19.090  0.2682  0.4333 -0.2036
 1139BOLB   C1D27333  25.626  -1.444  19.121 -0.0445  0.1356 -0.1393
 1139BOLB   C2D27334  25.193  -1.608  19.142 -0.1321  0.2683  0.2316
 1139BOLB   C3D27335  24.928  -1.510  19.372 -0.1439  0.1649  0.0119
 1139BOLB   C4D27336  24.499  -1.526  19.590  0.1389 -0.2267 -0.1074
 1140BOLB   NC127337  15.635  -2.052  28.696 -0.3152  0.2940 -0.0105
 1140BOLB   PO127338  15.582  -2.407  29.062 -0.2089  0.1378  0.0812
 1140BOLB   GL127339  15.667  -2.868  29.280  0.1097 -0.1976 -0.1441
 1140BOLB   GL227340  15.431  -3.233  29.253  0.0473  0.0713  0.4014
 1140BOLB   C1A27341  15.905  -3.162  29.700  0.1328  0.2969  0.0046
 1140BOLB   C2A27342  16.071  -3.197  30.061 -0.1937 -0.0861 -0.1645
 1140BOLB   C3A27343  16.203  -3.565  30.348  0.1182  0.1926  0.3661
 1140BOLB   C4A27344  16.147  -3.838  30.579  0.0513 -0.1328 -0.3188
 1140BOLB   C1B27345  15.571  -3.509  29.536  0.2160 -0.0657 -0.2274
 1140BOLB   C2B27346  15.828  -3.584  29.914  0.0756 -0.0209  0.0847
 1140BOLB   C3B27347  15.833  -3.888  30.160  0.1343  0.1230 -0.0188
 1140BOLB   C4B27348  15.918  -4.201  30.412  0.0248 -0.2737  0.1478
 1140BOLB   NC227349  16.496  -5.750  32.461  0.0478 -0.0975 -0.1980
 1140BOLB   PO227350  16.319  -5.314  32.491 -0.0009 -0.1325  0.2645
 1140BOLB   GL327351  16.601  -5.247  32.146  0.1131  0.1128 -0.2794
 1140BOLB   GL427352  16.902  -5.178  32.305 -0.3730  0.0842 -0.0597
 1140BOLB   C1C27353  16.559  -4.912  31.882 -0.4312 -0.1051  0.0908
 1140BOLB   C2C27354  16.762  -4.565  31.594  0.0127  0.1533 -0.3334
 1140BOLB   C3C27355  16.556  -4.293  31.263 -0.3292  0.1842 -0.0526
 1140BOLB   C4C27356  16.465  -4.046  30.864 -0.2206  0.2382  0.1467
 1140BOLB   C1D27357  17.012  -4.813  32.162  0.0694 -0.1195 -0.0155
 1140BOLB   C2D27358  17.102  -4.402  32.137  0.0677 -0.2286 -0.3012
 1140BOLB   C3D27359  17.077  -4.251  32.616  0.0688  0.1405  0.0318
 1140BOLB   C4D27360  16.970  -4.050  33.027  0.1095 -0.0306  0.3687
 1141BOLB   NC127361  12.193  -3.131  20.660  0.2765 -0.1124 -0.0239
 1141BOLB   PO127362  12.411  -3.421  20.450  0.2089  0.0671 -0.0363
 1141BOLB   GL127363  12.274  -3.682  20.184  0.1124 -0.1363  0.0208
 1141BOLB   GL227364  12.478  -3.858  20.030 -0.2278 -0.0706 -0.1618
 1141BOLB   C1A27365  11.813  -3.832  20.108 -0.2932  0.0115  0.2059
 1141BOLB   C2A27366  11.435  -3.937  20.037 -0.1464 -0.0834 -0.0447
 1141BOLB   C3A27367  11.067  -4.068  20.115  0.0189  0.1778  0.0498
 1141BOLB   C4A27368  10.715  -4.224  19.909 -0.0679 -0.0026  0.0717
 1141BOLB   C1B27369  12.273  -3.972  19.746  0.2665  0.0548  0.1196
 1141BOLB   C2B27370  11.933  -3.998  19.432 -0.1429  0.0136 -0.1712
 1141BOLB   C3B27371  11.719  -4.357  19.279  0.1567  0.0777 -0.1279
 1141BOLB   C4B27372  11.385  -4.671  19.233 -0.1428  0.1298  0.0326
 1141BOLB   NC227373   8.803  -5.677  19.663 -0.0577  0.4375 -0.1597
 1141BOLB   PO227374   9.015  -5.607  19.278  0.0973 -0.1637  0.1460
 1141BOLB   GL327375   9.219  -5.414  19.622 -0.3049  0.2789 -0.2973
 1141BOLB   GL427376   9.246  -5.702  19.874 -0.1408 -0.3170  0.3737
 1141BOLB   C1C27377   9.424  -5.124  19.929  0.1218  0.0748  0.0897
 1141BOLB   C2C27378   9.743  -5.004  20.014 -0.1827 -0.0389  0.3578
 1141BOLB   C3C27379  10.092  -4.719  19.969 -0.2263 -0.0995 -0.1445
 1141BOLB   C4C27380  10.500  -4.532  19.995 -0.0274  0.0106 -0.1045
 1141BOLB   C1D27381   9.385  -5.565  20.152  0.1183  0.0298  0.0715
 1141BOLB   C2D27382   9.746  -5.337  20.358 -0.4039 -0.1613 -0.1440
 1141BOLB   C3D27383  10.032  -5.005  20.523 -0.0994  0.0422  0.0402
 1141BOLB   C4D27384  10.387  -4.733  20.488  0.0116  0.0444 -0.0201
 1142BOLB   NC127385   6.559   2.919  25.405  0.1364  0.1394 -0.1713
 1142BOLB   PO127386   6.542   3.424  25.537  0.4091 -0.0252 -0.1447
 1142BOLB   GL127387   6.184   3.395  25.674 -0.2013  0.3271  0.1515
 1142BOLB   GL227388   6.098   3.038  25.600 -0.0236 -0.0074 -0.2847
 1142BOLB   C1A27389   5.793   3.540  25.853  0.2260 -0.1420  0.2306
 1142BOLB   C2A27390   5.371   3.642  25.798  0.1232  0.1073  0.0623
 1142BOLB   C3A27391   4.971   3.407  25.808 -0.0155 -0.2245  0.0186
 1142BOLB   C4A27392   4.454   3.290  25.864  0.1704 -0.0954 -0.1048
 1142BOLB   C1B27393   5.827   3.064  26.058 -0.1019  0.0939 -0.1122
 1142BOLB   C2B27394   5.510   3.015  26.278 -0.0117  0.0947 -0.3734
 1142BOLB   C3B27395   5.012   3.109  26.269 -0.0018  0.0086  0.0557
 1142BOLB   C4B27396   4.813   3.468  26.337  0.2470 -0.0850 -0.0966
 1142BOLB   NC227397   2.519   2.533  24.611  0.2546 -0.1432 -0.1944
 1142BOLB   PO227398   2.771   2.846  24.903  0.0426 -0.1858 -0.1742
 1142BOLB   GL327399   3.046   2.988  24.884 -0.0018  0.1186 -0.2005
 1142BOLB   GL427400   3.130   3.204  25.142  0.0617  0.1877  0.1732
 1142BOLB   C1C27401   3.408   3.099  24.723 -0.0278  0.0735 -0.1226
 1142BOLB   C2C27402   3.867   3.120  24.879 -0.0785 -0.1331 -0.0022
 1142BOLB   C3C27403   4.223   3.176  25.063  0.2659 -0.0191 -0.3218
 1142BOLB   C4C27404   4.222   3.236  25.484 -0.0716  0.2814 -0.1708
 1142BOLB   C1D27405   3.268   3.222  25.528  0.0226  0.2538 -0.0174
 1142BOLB   C2D27406   3.457   3.550  25.818  0.1092  0.1914  0.0691
 1142BOLB   C3D27407   3.515   3.917  25.881  0.1454 -0.0490  0.1115
 1142BOLB   C4D27408   3.433   4.312  25.932  0.2029 -0.0029  0.1494
 1143BOLB   NC127409  20.066  -2.705  26.945  0.0452  0.0857 -0.2474
 1143BOLB   PO127410  20.401  -2.566  26.850 -0.2198  0.2810  0.0310
 1143BOLB   GL127411  20.379  -3.089  26.920 -0.2624  0.1379 -0.0032
 1143BOLB   GL227412  20.714  -2.989  27.053 -0.3491  0.2410 -0.3205
 1143BOLB   C1A27413  20.359  -3.465  27.157  0.2028  0.2260 -0.3289
 1143BOLB   C2A27414  20.533  -3.775  27.451 -0.0128 -0.3329 -0.1141
 1143BOLB   C3A27415  20.421  -4.059  27.745 -0.0742  0.3580  0.1596
 1143BOLB   C4A27416  20.582  -4.318  28.051  0.1383  0.1290  0.2520
 1143BOLB   C1B27417  20.942  -3.397  26.974  0.0622 -0.0703  0.0595
 1143BOLB   C2B27418  21.036  -3.760  26.643  0.0561  0.1207 -0.0878
 1143BOLB   C3B27419  21.156  -4.050  26.254 -0.1329 -0.3496  0.0190
 1143BOLB   C4B27420  21.457  -4.286  26.184  0.1684  0.0816  0.0783
 1143BOLB   NC227421  22.190  -5.262  29.768 -0.1459 -0.0159  0.0033
 1143BOLB   PO227422  22.463  -5.285  29.465 -0.1139  0.1881  0.0009
 1143BOLB   GL327423  22.084  -4.991  29.368 -0.1017 -0.7519 -0.0339
 1143BOLB   GL427424  22.316  -4.749  29.144  0.0569  0.1863 -0.1718
 1143BOLB   C1C27425  21.822  -4.828  29.053  0.1282  0.0453  0.1582
 1143BOLB   C2C27426  21.491  -4.572  28.788  0.2613  0.0312  0.0343
 1143BOLB   C3C27427  21.084  -4.703  28.742  0.0865  0.2012  0.3160
 1143BOLB   C4C27428  20.908  -4.414  28.422  0.2696  0.5387  0.0021
 1143BOLB   C1D27429  22.217  -4.342  29.391  0.1660  0.2992 -0.0234
 1143BOLB   C2D27430  21.955  -4.022  29.533 -0.0810  0.0285 -0.2364
 1143BOLB   C3D27431  21.664  -3.742  29.358  0.0917 -0.0156  0.2839
 1143BOLB   C4D27432  21.556  -3.663  28.973  0.0246  0.0450 -0.1899
 1144BOLB   NC127433  22.925   7.547  21.916  0.2454  0.0123 -0.1364
 1144BOLB   PO127434  23.059   7.343  22.297  0.0855 -0.2437  0.1328
 1144BOLB   GL127435  23.290   7.734  22.416  0.0752 -0.3357 -0.0019
 1144BOLB   GL227436  23.432   7.769  22.168  0.0856  0.1198  0.1935
 1144BOLB   C1A27437  23.287   8.139  22.572  0.2205  0.1086 -0.0260
 1144BOLB   C2A27438  23.621   8.325  22.715  0.1942  0.0184  0.1053
 1144BOLB   C3A27439  23.885   8.729  22.731 -0.1846  0.0237  0.1143
 1144BOLB   C4A27440  24.241   8.763  22.639  0.2985 -0.2426 -0.1103
 1144BOLB   C1B27441  23.830   8.032  22.387  0.1293 -0.1066  0.3582
 1144BOLB   C2B27442  24.112   8.401  22.273 -0.3534  0.0523 -0.1033
 1144BOLB   C3B27443  24.354   8.660  22.145 -0.0202 -0.2201 -0.1678
 1144BOLB   C4B27444  24.693   8.724  21.972 -0.1175 -0.0051 -0.1355
 1144BOLB   NC227445  26.881   8.939  21.138 -0.1373 -0.0320 -0.1082
 1144BOLB   PO227446  26.669   8.850  21.435  0.3054  0.1372  0.3358
 1144BOLB   GL327447  26.283   8.875  21.525  0.0081 -0.0380 -0.1261
 1144BOLB   GL427448  26.241   8.551  21.571 -0.0220 -0.2056  0.0483
 1144BOLB   C1C27449  25.915   9.101  21.859 -0.0993 -0.1851 -0.0728
 1144BOLB   C2C27450  25.461   9.012  21.868 -0.0823  0.2337  0.0227
 1144BOLB   C3C27451  25.108   8.888  22.193 -0.3159  0.0808  0.0523
 1144BOLB   C4C27452  24.686   8.881  22.505  0.1609 -0.3930  0.0194
 1144BOLB   C1D27453  25.828   8.542  21.760  0.4144  0.1899  0.1824
 1144BOLB   C2D27454  25.370   8.519  21.737  0.1758  0.1958 -0.0197
 1144BOLB   C3D27455  24.973   8.331  21.773 -0.2128  0.1423 -0.0667
 1144BOLB   C4D27456  24.796   7.990  22.106  0.4351  0.1215 -0.0565
 1145BOLB   NC127457  22.348  10.027  23.742 -0.0868  0.3407 -0.3484
 1145BOLB   PO127458  21.915  10.153  23.864  0.1800 -0.0895  0.1139
 1145BOLB   GL127459  22.060  10.482  23.680  0.0545 -0.0573  0.0530
 1145BOLB   GL227460  22.313  10.452  23.553  0.0746 -0.2549  0.2942
 1145BOLB   C1A27461  22.181  10.889  23.618  0.1265  0.4907 -0.1447
 1145BOLB   C2A27462  22.668  11.021  23.547  0.2801 -0.2949 -0.0730
 1145BOLB   C3A27463  22.991  11.283  23.368  0.0150  0.0349 -0.0623
 1145BOLB   C4A27464  23.235  11.607  23.228 -0.0355 -0.2190 -0.0899
 1145BOLB   C1B27465  22.761  10.580  23.389  0.0996 -0.1706  0.0216
 1145BOLB   C2B27466  23.178  10.620  23.419 -0.1242  0.0829  0.1497
 1145BOLB   C3B27467  23.513  10.750  23.231  0.1785 -0.2452 -0.4021
 1145BOLB   C4B27468  24.014  10.871  23.231  0.4311  0.1477 -0.0198
 1145BOLB   NC227469  25.629  12.945  23.132 -0.0397 -0.0748 -0.0551
 1145BOLB   PO227470  25.594  12.536  23.325  0.1419 -0.1315  0.4835
 1145BOLB   GL327471  25.183  12.216  23.623 -0.3835 -0.0375 -0.1193
 1145BOLB   GL427472  25.207  11.917  23.846  0.1256 -0.0410  0.4716
 1145BOLB   C1C27473  24.715  12.087  23.373  0.1368 -0.4389  0.0751
 1145BOLB   C2C27474  24.386  11.861  23.467 -0.4292 -0.0742  0.2238
 1145BOLB   C3C27475  24.008  11.816  23.523 -0.4032 -0.2310  0.3699
 1145BOLB   C4C27476  23.676  11.751  23.395 -0.2685 -0.0102 -0.2128
 1145BOLB   C1D27477  24.767  11.941  23.974  0.0724 -0.1977  0.2829
 1145BOLB   C2D27478  24.489  11.694  24.192  0.1863 -0.5256  0.3164
 1145BOLB   C3D27479  24.123  11.541  24.170 -0.2106 -0.0358 -0.3785
 1145BOLB   C4D27480  23.676  11.388  24.107  0.2268 -0.2397 -0.1445
 1146BOLB   NC127481  12.286  -3.953  22.172  0.1187  0.1416  0.2148
 1146BOLB   PO127482  12.098  -4.034  22.516  0.1479 -0.1573  0.0371
 1146BOLB   GL127483  11.990  -4.399  22.527  0.0573 -0.2334  0.1065
 1146BOLB   GL227484  12.004  -4.571  22.818 -0.2303 -0.0693  0.0248
 1146BOLB   C1A27485  11.725  -4.772  22.412  0.0821  0.0966 -0.0092
 1146BOLB   C2A27486  11.609  -4.886  21.950 -0.4475 -0.0134 -0.0006
 1146BOLB   C3A27487  11.689  -5.201  21.646 -0.0815  0.1471 -0.3601
 1146BOLB   C4A27488  11.957  -5.503  21.362 -0.0056 -0.2393  0.3564
 1146BOLB   C1B27489  12.233  -4.934  22.831  0.0140 -0.2271 -0.0241
 1146BOLB   C2B27490  12.437  -5.383  22.864 -0.3361  0.1638  0.1935
 1146BOLB   C3B27491  12.479  -5.798  22.577  0.1822 -0.0409 -0.1098
 1146BOLB   C4B27492  12.476  -6.178  22.264  0.5058  0.0108 -0.0582
 1146BOLB   NC227493  10.592  -7.518  22.042  0.2245  0.0708 -0.0175
 1146BOLB   PO227494  10.895  -7.198  22.023  0.3747 -0.0223 -0.2899
 1146BOLB   GL327495  10.940  -6.831  21.993 -0.1248 -0.0634  0.0952
 1146BOLB   GL427496  10.815  -6.836  21.618  0.1485 -0.2342  0.2439
 1146BOLB   C1C27497  11.352  -6.621  21.894  0.0633 -0.0434 -0.2616
 1146BOLB   C2C27498  11.729  -6.711  21.699 -0.0151  0.1333 -0.0889
 1146BOLB   C3C27499  11.817  -6.403  21.471  0.0615 -0.0794 -0.0275
 1146BOLB   C4C27500  11.881  -5.976  21.391  0.2836  0.2893  0.0547
 1146BOLB   C1D27501  11.247  -6.675  21.437  0.1135  0.1687  0.3994
 1146BOLB   C2D27502  11.497  -6.590  21.088 -0.1061 -0.1974 -0.2548
 1146BOLB   C3D27503  11.646  -6.260  20.898  0.0868 -0.1906 -0.1064
 1146BOLB   C4D27504  11.609  -5.771  21.051 -0.0578 -0.2355 -0.1710
 1147BOLB   NC127505  13.114   4.333  32.900  0.2336 -0.0713  0.1661
 1147BOLB   PO127506  13.140   4.091  33.345 -0.1667 -0.0394  0.0464
 1147BOLB   GL127507  13.200   4.062  33.730  0.1572 -0.2213  0.1262
 1147BOLB   GL227508  13.388   4.472  33.776 -0.1634  0.1308 -0.1934
 1147BOLB   C1A27509  13.203   4.125  34.135 -0.0589 -0.1417  0.0494
 1147BOLB   C2A27510  13.085   4.108  34.688  0.3770  0.2748 -0.1790
 1147BOLB   C3A27511  13.165   4.095  35.115  0.0333  0.4199 -0.1280
 1147BOLB   C4A27512  13.068   4.356  35.361 -0.0781  0.0633 -0.1194
 1147BOLB   C1B27513  13.503   4.711  34.200 -0.0105  0.0216 -0.3568
 1147BOLB   C2B27514  13.178   4.755  34.442  0.3260  0.2769  0.0688
 1147BOLB   C3B27515  13.084   5.005  34.843 -0.0686 -0.0109  0.0182
 1147BOLB   C4B27516  13.543   4.968  35.143  0.0668  0.1030  0.3338
 1147BOLB   NC227517  12.552   4.844  37.660  0.0472 -0.0738 -0.2564
 1147BOLB   PO227518  12.210   4.886  37.307 -0.3043 -0.2446 -0.0815
 1147BOLB   GL327519  12.167   4.803  36.884 -0.1602 -0.2689  0.1685
 1147BOLB   GL427520  11.866   4.852  36.732 -0.0063 -0.1561 -0.2304
 1147BOLB   C1C27521  12.397   4.560  36.612  0.0280 -0.0899 -0.0146
 1147BOLB   C2C27522  12.667   4.564  36.298  0.5147  0.3003 -0.0246
 1147BOLB   C3C27523  12.755   4.769  35.985 -0.0736  0.0733 -0.3214
 1147BOLB   C4C27524  12.987   4.740  35.611  0.2390  0.1782  0.1500
 1147BOLB   C1D27525  12.149   4.860  36.308  0.1940  0.1563  0.1280
 1147BOLB   C2D27526  12.364   5.071  36.032  0.1933  0.0778  0.0175
 1147BOLB   C3D27527  12.557   5.169  35.664 -0.0646  0.3679 -0.0228
 1147BOLB   C4D27528  12.692   4.931  35.208  0.2054 -0.1895 -0.0608
 1148BOLB   NC127529  16.008   6.357  33.654  0.0538  0.2081  0.0484
 1148BOLB   PO127530  16.347   6.698  33.838  0.0633 -0.0670  0.3345
 1148BOLB   GL127531  16.445   6.594  34.184 -0.1854  0.0173  0.0023
 1148BOLB   GL227532  16.772   6.456  34.132 -0.2261 -0.2127  0.1585
 1148BOLB   C1A27533  16.461   6.733  34.616 -0.2130  0.1801  0.1449
 1148BOLB   C2A27534  16.723   6.744  34.932  0.0984 -0.2187  0.0212
 1148BOLB   C3A27535  16.893   6.808  35.209  0.1095  0.2270 -0.0120
 1148BOLB   C4A27536  17.047   7.014  35.515 -0.0781  0.2789  0.1823
 1148BOLB   C1B27537  16.858   6.428  34.559 -0.1080 -0.1592 -0.0623
 1148BOLB   C2B27538  17.205   6.447  34.937 -0.0633 -0.0584  0.2226
 1148BOLB   C3B27539  17.368   6.710  35.241 -0.2849 -0.0817 -0.1249
 1148BOLB   C4B27540  17.464   6.823  35.522  0.1910 -0.0553 -0.1281
 1148BOLB   NC227541  17.057   6.810  37.906  0.2391 -0.1029  0.0698
 1148BOLB   PO227542  17.235   7.163  37.934  0.0482 -0.0805  0.0377
 1148BOLB   GL327543  17.306   6.937  37.510  0.3879 -0.1274 -0.2339
 1148BOLB   GL427544  17.592   6.805  37.388  0.1766  0.2202  0.0370
 1148BOLB   C1C27545  17.110   6.876  37.097  0.1524  0.0428  0.2281
 1148BOLB   C2C27546  17.048   6.668  36.688  0.3148 -0.0286  0.0257
 1148BOLB   C3C27547  17.173   6.861  36.310  0.0012 -0.3288  0.0960
 1148BOLB   C4C27548  17.222   7.038  35.937  0.0539  0.1730 -0.0031
 1148BOLB   C1D27549  17.608   6.751  36.986 -0.0758 -0.3014 -0.0019
 1148BOLB   C2D27550  17.534   6.651  36.560 -0.0866  0.0304 -0.1285
 1148BOLB   C3D27551  17.556   6.651  36.053 -0.4071 -0.1526  0.0714
 1148BOLB   C4D27552  17.517   6.324  35.711  0.1649 -0.0168 -0.2548
 1149BOLB   NC127553  11.236   5.020  19.076 -0.0342  0.0582  0.0902
 1149BOLB   PO127554  11.489   5.276  18.760 -0.0799  0.2663  0.3266
 1149BOLB   GL127555  11.206   5.452  18.397  0.0419 -0.3799 -0.0274
 1149BOLB   GL227556  11.028   5.255  18.179 -0.1600 -0.0701  0.2630
 1149BOLB   C1A27557  11.112   5.797  18.193  0.1175  0.3837 -0.3774
 1149BOLB   C2A27558  10.921   5.896  17.956 -0.4146 -0.4566 -0.0763
 1149BOLB   C3A27559  10.600   5.967  17.617 -0.0088  0.0091 -0.1120
 1149BOLB   C4A27560  10.544   6.269  17.319  0.1862 -0.3221  0.1099
 1149BOLB   C1B27561  10.871   5.024  17.909 -0.1151 -0.2178  0.0450
 1149BOLB   C2B27562  10.874   4.575  17.612  0.2360  0.1797 -0.1893
 1149BOLB   C3B27563  10.820   4.279  17.324 -0.1554  0.2194 -0.1456
 1149BOLB   C4B27564  10.333   4.366  17.063  0.2215 -0.1175  0.1882
 1149BOLB   NC227565  10.198   7.424  15.090 -0.0662  0.3412 -0.1379
 1149BOLB   PO227566   9.846   7.598  15.150  0.0117 -0.0489 -0.0794
 1149BOLB   GL327567   9.966   7.543  15.624  0.4658 -0.2267 -0.0622
 1149BOLB   GL427568  10.154   7.116  15.512  0.1761 -0.1116 -0.2294
 1149BOLB   C1C27569  10.154   7.373  15.935 -0.4166 -0.0407  0.3578
 1149BOLB   C2C27570  10.293   7.045  16.327 -0.0980  0.0592 -0.2338
 1149BOLB   C3C27571  10.442   6.873  16.703 -0.1659 -0.1349  0.3890
 1149BOLB   C4C27572  10.627   6.703  17.049  0.1150 -0.0622  0.0652
 1149BOLB   C1D27573  10.537   6.841  15.614 -0.0737  0.3956  0.0431
 1149BOLB   C2D27574  10.984   6.691  15.550 -0.0652 -0.0980 -0.1098
 1149BOLB   C3D27575  11.442   6.747  15.420  0.2724 -0.1474  0.1035
 1149BOLB   C4D27576  11.810   6.657  15.627 -0.2385 -0.0076 -0.0423
 1150BOLB   NC127577   7.691   3.068  20.703 -0.0641 -0.3258  0.2516
 1150BOLB   PO127578   7.747   2.900  20.410  0.1478 -0.0918  0.0627
 1150BOLB   GL127579   7.327   3.081  20.348  0.3562  0.0952 -0.2204
 1150BOLB   GL227580   7.211   2.936  20.606  0.2930 -0.2188  0.4682
 1150BOLB   C1A27581   6.998   3.269  20.119 -0.1548 -0.0919 -0.1943
 1150BOLB   C2A27582   6.686   3.194  19.825  0.1643 -0.1161  0.2300
 1150BOLB   C3A27583   6.229   3.209  19.873  0.1331 -0.2520 -0.1182
 1150BOLB   C4A27584   6.009   3.461  20.179 -0.2474  0.2201 -0.0677
 1150BOLB   C1B27585   6.841   2.984  20.605 -0.3423  0.3532 -0.1836
 1150BOLB   C2B27586   6.522   3.231  20.732 -0.0265  0.7219  0.0418
 1150BOLB   C3B27587   6.369   3.546  20.925  0.1140 -0.2802  0.1944
 1150BOLB   C4B27588   6.522   3.910  20.952 -0.2084  0.1339  0.0294
 1150BOLB   NC227589   3.975   2.842  19.606 -0.1206 -0.0024  0.1111
 1150BOLB   PO227590   4.140   3.175  19.803 -0.0855 -0.0268  0.1520
 1150BOLB   GL327591   4.521   3.404  19.718 -0.0594 -0.1507  0.3158
 1150BOLB   GL427592   4.690   3.443  19.438  0.3318  0.1056  0.0516
 1150BOLB   C1C27593   4.771   3.750  19.789  0.1303 -0.0996 -0.1802
 1150BOLB   C2C27594   5.027   4.045  20.012 -0.0621 -0.2430  0.1952
 1150BOLB   C3C27595   5.338   4.141  20.316  0.0983  0.2371 -0.2662
 1150BOLB   C4C27596   5.759   3.898  20.271 -0.0046 -0.0462  0.2582
 1150BOLB   C1D27597   5.156   3.394  19.554  0.2588  0.0839 -0.2522
 1150BOLB   C2D27598   5.491   3.206  19.639  0.1681 -0.2475 -0.0907
 1150BOLB   C3D27599   5.821   2.842  19.782  0.0877 -0.4223  0.0147
 1150BOLB   C4D27600   6.225   2.704  19.898  0.2460 -0.3890  0.0467
 1151BOLB   NC127601  17.963  -0.632  31.341  0.1681  0.0479 -0.1273
 1151BOLB   PO127602  17.881  -0.574  31.771  0.2330  0.2497  0.1116
 1151BOLB   GL127603  18.105  -0.616  32.215 -0.1346 -0.1491  0.1742
 1151BOLB   GL227604  18.297  -0.781  32.046 -0.2759  0.1018  0.0522
 1151BOLB   C1A27605  18.265  -0.794  32.583  0.4042  0.2384  0.1991
 1151BOLB   C2A27606  18.279  -1.276  32.698 -0.2687  0.0877 -0.3131
 1151BOLB   C3A27607  18.425  -1.654  32.892 -0.4764 -0.0167 -0.1538
 1151BOLB   C4A27608  18.688  -1.929  32.682  0.0370  0.3113 -0.0868
 1151BOLB   C1B27609  18.516  -1.206  32.203  0.0360  0.2934 -0.0378
 1151BOLB   C2B27610  18.723  -1.385  32.545 -0.1526 -0.3875  0.1406
 1151BOLB   C3B27611  18.995  -1.643  32.943  0.1179  0.0605 -0.0695
 1151BOLB   C4B27612  19.219  -1.834  33.249 -0.3512 -0.2350 -0.0638
 1151BOLB   NC227613  17.680  -3.369  34.729 -0.0232  0.0278  0.4717
 1151BOLB   PO227614  17.947  -3.198  34.413  0.1571 -0.0623  0.0339
 1151BOLB   GL327615  18.059  -3.004  34.072 -0.2014  0.0071 -0.0180
 1151BOLB   GL427616  18.228  -2.730  34.037 -0.2838 -0.0885 -0.0622
 1151BOLB   C1C27617  18.237  -3.072  33.664  0.0149  0.0069 -0.0691
 1151BOLB   C2C27618  18.572  -3.023  33.342  0.0605 -0.1042 -0.0154
 1151BOLB   C3C27619  18.752  -2.671  33.095 -0.1779 -0.0577 -0.2003
 1151BOLB   C4C27620  18.599  -2.385  32.832 -0.1489 -0.1810  0.1484
 1151BOLB   C1D27621  18.122  -2.377  33.809  0.3339 -0.1880  0.0759
 1151BOLB   C2D27622  18.014  -1.992  33.542 -0.0071 -0.4626 -0.0007
 1151BOLB   C3D27623  17.937  -1.754  33.232  0.1876 -0.2903  0.1703
 1151BOLB   C4D27624  18.037  -1.342  33.092  0.1121  0.1999  0.2846
 1152BOLB   NC127625  16.608  10.775  30.549  0.3163  0.3106 -0.2133
 1152BOLB   PO127626  16.830  10.545  30.861  0.0012 -0.4010  0.0029
 1152BOLB   GL127627  16.896  10.900  31.096  0.5390 -0.1550  0.1038
 1152BOLB   GL227628  17.239  11.089  31.227  0.0971 -0.0333 -0.1152
 1152BOLB   C1A27629  16.754  11.235  31.325 -0.0064  0.0198  0.1892
 1152BOLB   C2A27630  16.727  11.635  31.671 -0.1601  0.0504  0.2655
 1152BOLB   C3A27631  16.941  11.976  31.756 -0.2028  0.1467 -0.0233
 1152BOLB   C4A27632  16.923  12.498  31.789  0.0521  0.0027 -0.1451
 1152BOLB   C1B27633  17.514  11.432  31.111  0.0006 -0.1312 -0.1308
 1152BOLB   C2B27634  17.816  11.651  31.235  0.0777  0.0183 -0.1211
 1152BOLB   C3B27635  17.806  11.927  31.454 -0.1608  0.0378  0.3399
 1152BOLB   C4B27636  17.751  12.291  31.556 -0.1415 -0.0671  0.0192
 1152BOLB   NC227637  17.667  14.456  31.948 -0.1925  0.0634  0.0521
 1152BOLB   PO227638  17.633  14.358  32.380  0.0177 -0.5413  0.0322
 1152BOLB   GL327639  17.627  14.019  32.226 -0.0303 -0.2695 -0.0134
 1152BOLB   GL427640  17.827  13.852  31.996 -0.1085  0.0804  0.4103
 1152BOLB   C1C27641  17.542  13.656  32.407 -0.1684  0.4384  0.1296
 1152BOLB   C2C27642  17.076  13.438  32.414 -0.2086  0.2274 -0.1075
 1152BOLB   C3C27643  16.928  13.210  32.151 -0.1239  0.1587  0.1393
 1152BOLB   C4C27644  16.947  12.944  31.791 -0.1045  0.4448  0.3447
 1152BOLB   C1D27645  17.510  13.567  31.863  0.2388 -0.0004  0.0583
 1152BOLB   C2D27646  17.561  13.131  31.663  0.0653  0.1330  0.1968
 1152BOLB   C3D27647  17.396  12.702  31.544 -0.1612  0.2941  0.2779
 1152BOLB   C4D27648  17.320  12.455  31.297  0.2627 -0.2632 -0.2283
 1153BOLB   NC127649  18.721  -1.975  28.188 -0.0647  0.0170  0.2168
 1153BOLB   PO127650  18.983  -2.238  28.333  0.0948  0.0673 -0.0864
 1153BOLB   GL127651  19.137  -2.407  28.921  0.0669 -0.2050 -0.1111
 1153BOLB   GL227652  19.211  -2.223  29.264 -0.0409 -0.0452  0.2307
 1153BOLB   C1A27653  19.112  -2.832  29.013 -0.0157  0.1740 -0.3040
 1153BOLB   C2A27654  19.306  -3.158  29.202 -0.0290  0.0609 -0.0302
 1153BOLB   C3A27655  19.663  -3.388  29.168 -0.0996  0.4627 -0.1807
 1153BOLB   C4A27656  19.788  -3.782  29.234  0.0068  0.0264  0.1753
 1153BOLB   C1B27657  19.380  -2.594  29.385 -0.1409 -0.1449 -0.2033
 1153BOLB   C2B27658  19.603  -2.890  29.458 -0.1632  0.3234 -0.3224
 1153BOLB   C3B27659  19.901  -3.211  29.607  0.4346 -0.0660 -0.2544
 1153BOLB   C4B27660  20.233  -3.537  29.641 -0.3575 -0.4167 -0.3471
 1153BOLB   NC227661  20.734  -5.153  31.486 -0.0599  0.2413 -0.4177
 1153BOLB   PO227662  20.444  -5.146  31.211  0.0663  0.0106 -0.0563
 1153BOLB   GL327663  20.339  -4.896  30.887 -0.1166 -0.0725  0.2399
 1153BOLB   GL427664  20.510  -5.032  30.577 -0.0782  0.3276 -0.1247
 1153BOLB   C1C27665  20.322  -4.580  30.685  0.0163 -0.0934 -0.1641
 1153BOLB   C2C27666  20.259  -4.513  30.246  0.0610  0.0590  0.2109
 1153BOLB   C3C27667  20.112  -4.321  29.880  0.0489  0.1603 -0.0485
 1153BOLB   C4C27668  19.905  -3.949  29.613  0.3554 -0.1900  0.1652
 1153BOLB   C1D27669  20.703  -4.705  30.303 -0.1220 -0.0667  0.0259
 1153BOLB   C2D27670  20.643  -4.582  29.892  0.0831 -0.0414  0.1287
 1153BOLB   C3D27671  20.399  -4.528  29.543  0.0889 -0.3060  0.0573
 1153BOLB   C4D27672  20.077  -4.698  29.263  0.0022 -0.2037 -0.1306
 1154BOLB   NC127673  18.522   4.809  33.546 -0.0189 -0.1994 -0.2046
 1154BOLB   PO127674  18.335   4.408  33.505 -0.0282  0.0288  0.1258
 1154BOLB   GL127675  18.693   4.396  33.810 -0.1003 -0.0551 -0.0606
 1154BOLB   GL227676  19.008   4.261  33.764 -0.1843  0.2187 -0.1836
 1154BOLB   C1A27677  18.630   4.644  34.290 -0.3281 -0.4464  0.2411
 1154BOLB   C2A27678  18.289   4.855  34.480  0.0375 -0.2425 -0.3588
 1154BOLB   C3A27679  18.098   5.004  34.866  0.0255  0.1968  0.1873
 1154BOLB   C4A27680  17.982   5.024  35.155  0.0259 -0.4160 -0.2617
 1154BOLB   C1B27681  19.078   4.395  34.199  0.0845  0.3485 -0.0832
 1154BOLB   C2B27682  18.923   4.397  34.677  0.1454 -0.1305  0.2472
 1154BOLB   C3B27683  19.201   4.218  34.960  0.2466  0.0060  0.2558
 1154BOLB   C4B27684  19.494   4.218  35.324  0.0437  0.0781  0.0991
 1154BOLB   NC227685  18.613   5.060  38.126 -0.1849  0.0679 -0.2040
 1154BOLB   PO227686  18.437   5.242  37.772 -0.3384  0.0113  0.2460
 1154BOLB   GL327687  18.412   5.321  37.340 -0.0349  0.0875 -0.3417
 1154BOLB   GL427688  18.441   5.022  37.273  0.0971  0.0739  0.0596
 1154BOLB   C1C27689  18.367   5.449  36.875 -0.0050  0.3177  0.1159
 1154BOLB   C2C27690  18.313   5.545  36.458  0.1248  0.1319 -0.0200
 1154BOLB   C3C27691  18.121   5.301  36.005  0.1142 -0.1141 -0.2420
 1154BOLB   C4C27692  18.075   5.072  35.662  0.0913  0.5712 -0.2619
 1154BOLB   C1D27693  18.350   4.755  36.807  0.0531 -0.0412 -0.0490
 1154BOLB   C2D27694  18.218   4.456  36.626  0.4536 -0.0698 -0.2881
 1154BOLB   C3D27695  18.259   4.280  36.284 -0.1905 -0.1921  0.1554
 1154BOLB   C4D27696  18.272   4.489  35.834  0.3067  0.2458 -0.0866
 1155BOLB   NC127697  18.602   1.122  32.329  0.1557 -0.1397 -0.1355
 1155BOLB   PO127698  18.576   0.728  32.009  0.4287 -0.0426  0.1681
 1155BOLB   GL127699  18.605   0.453  32.299 -0.2657 -0.3326  0.0503
 1155BOLB   GL227700  18.768   0.608  32.533 -0.0249 -0.0091 -0.0902
 1155BOLB   C1A27701  18.477   0.142  32.570 -0.0084  0.2565  0.0232
 1155BOLB   C2A27702  18.483  -0.145  32.877  0.1081 -0.1366  0.3488
 1155BOLB   C3A27703  18.371  -0.353  33.221  0.1869 -0.2108 -0.0792
 1155BOLB   C4A27704  18.611  -0.550  33.493  0.0748  0.2088  0.0464
 1155BOLB   C1B27705  18.769   0.366  32.990 -0.1806 -0.3755 -0.2521
 1155BOLB   C2B27706  18.822   0.132  33.391  0.1921  0.0809  0.2058
 1155BOLB   C3B27707  18.942  -0.194  33.707  0.1812  0.0362  0.2172
 1155BOLB   C4B27708  18.844  -0.084  34.134  0.3387  0.0800  0.1262
 1155BOLB   NC227709  18.440  -1.985  36.105  0.5579 -0.1314  0.3770
 1155BOLB   PO227710  18.261  -1.651  35.740 -0.0179  0.3541 -0.1624
 1155BOLB   GL327711  18.245  -1.425  35.389  0.1481  0.0773 -0.3498
 1155BOLB   GL427712  18.141  -1.537  35.148  0.1540 -0.1679  0.1354
 1155BOLB   C1C27713  18.430  -1.079  35.081  0.2077  0.1358 -0.0760
 1155BOLB   C2C27714  18.561  -0.916  34.667  0.0517 -0.4919  0.1594
 1155BOLB   C3C27715  18.511  -0.770  34.212 -0.0648  0.1293 -0.1768
 1155BOLB   C4C27716  18.729  -0.643  33.938 -0.1544  0.2504  0.0309
 1155BOLB   C1D27717  17.796  -1.185  34.987  0.2037  0.0907  0.1547
 1155BOLB   C2D27718  17.617  -1.106  34.604 -0.1255  0.0298  0.2013
 1155BOLB   C3D27719  17.362  -1.228  34.362 -0.1655  0.0505 -0.1697
 1155BOLB   C4D27720  17.191  -0.898  34.075  0.1532 -0.0109 -0.0802
 1156BOLB   NC127721  23.098   1.707  30.215 -0.1791  0.3249 -0.1495
 1156BOLB   PO127722  23.367   2.110  30.171 -0.0134  0.0717  0.2212
 1156BOLB   GL127723  23.641   2.174  30.582 -0.2388 -0.0467  0.1672
 1156BOLB   GL227724  23.475   2.343  30.797 -0.3355 -0.3590  0.0864
 1156BOLB   C1A27725  24.045   2.159  30.779 -0.3945 -0.0288 -0.1902
 1156BOLB   C2A27726  24.363   2.534  30.948  0.1578 -0.0082  0.4052
 1156BOLB   C3A27727  24.749   2.682  31.169 -0.2387  0.4010 -0.2524
 1156BOLB   C4A27728  24.936   2.747  31.472  0.0114 -0.2386  0.5109
 1156BOLB   C1B27729  23.380   1.936  31.139 -0.0892  0.1267  0.2483
 1156BOLB   C2B27730  23.327   1.660  31.556 -0.0817  0.0631  0.2626
 1156BOLB   C3B27731  23.563   1.438  31.921  0.2053  0.2058 -0.0937
 1156BOLB   C4B27732  23.625   1.157  32.309 -0.0316  0.0574 -0.3355
 1156BOLB   NC227733  27.281   2.093  32.046 -0.0723  0.0598  0.0231
 1156BOLB   PO227734  27.048   2.049  32.538  0.1357 -0.3945 -0.4113
 1156BOLB   GL327735  26.576   2.203  32.626 -0.3329  0.1779  0.3918
 1156BOLB   GL427736  26.490   1.860  32.696 -0.0353 -0.0124  0.0376
 1156BOLB   C1C27737  26.129   2.313  32.506 -0.0452  0.1225 -0.1782
 1156BOLB   C2C27738  25.673   2.361  32.484  0.1633 -0.2442  0.2477
 1156BOLB   C3C27739  25.227   2.406  32.225  0.1892  0.0694 -0.0703
 1156BOLB   C4C27740  24.989   2.591  31.899  0.0696 -0.0605 -0.0692
 1156BOLB   C1D27741  26.255   1.814  32.337 -0.0014 -0.2000  0.0845
 1156BOLB   C2D27742  25.878   2.050  32.109  0.1122 -0.1811 -0.2779
 1156BOLB   C3D27743  25.870   2.406  31.899  0.1129  0.2745  0.1181
 1156BOLB   C4D27744  26.088   2.490  31.518 -0.3966 -0.1752  0.1793
 1157BOLB   NC127745  23.011   1.676  19.319 -0.0661  0.2031 -0.1591
 1157BOLB   PO127746  23.100   1.555  19.830  0.2127  0.3418 -0.0144
 1157BOLB   GL127747  23.517   1.619  19.797  0.2129 -0.0090 -0.0074
 1157BOLB   GL227748  23.723   1.848  19.664 -0.0280  0.1429 -0.1257
 1157BOLB   C1A27749  23.833   1.458  19.992  0.1151  0.5008 -0.2191
 1157BOLB   C2A27750  24.153   1.241  19.824 -0.2556  0.1398  0.5303
 1157BOLB   C3A27751  24.527   1.150  19.543  0.1849 -0.0316  0.3575
 1157BOLB   C4A27752  24.682   0.827  19.656  0.0981  0.0486  0.2628
 1157BOLB   C1B27753  23.986   2.015  19.367  0.1677 -0.0889  0.0716
 1157BOLB   C2B27754  24.355   2.381  19.366 -0.1291  0.0535  0.0818
 1157BOLB   C3B27755  24.627   2.554  19.068  0.2247  0.3140  0.1740
 1157BOLB   C4B27756  25.046   2.412  18.870 -0.1925  0.0348  0.0970
 1157BOLB   NC227757  27.727   0.743  19.385 -0.1648 -0.1221  0.0122
 1157BOLB   PO227758  27.192   0.731  19.242  0.0581  0.1867  0.0900
 1157BOLB   GL327759  26.859   0.837  19.478  0.0649 -0.2607 -0.1105
 1157BOLB   GL427760  26.882   0.590  19.716 -0.3784  0.0174 -0.1232
 1157BOLB   C1C27761  26.417   0.846  19.591  0.4326 -0.1057 -0.2544
 1157BOLB   C2C27762  25.975   0.611  19.582 -0.3818 -0.0095 -0.2890
 1157BOLB   C3C27763  25.491   0.361  19.496 -0.2579  0.0412  0.0679
 1157BOLB   C4C27764  25.084   0.563  19.632 -0.1437 -0.2337 -0.0929
 1157BOLB   C1D27765  26.420   0.466  20.007 -0.0737  0.3059  0.5082
 1157BOLB   C2D27766  26.063   0.453  20.282 -0.1004 -0.0541  0.0781
 1157BOLB   C3D27767  25.907   0.617  20.627 -0.0664  0.3572  0.1982
 1157BOLB   C4D27768  25.940   0.951  21.030  0.1223 -0.0166 -0.0381
 1158BOLB   NC127769  18.797  12.055  25.370  0.0875 -0.0576  0.3238
 1158BOLB   PO127770  18.658  12.050  25.713 -0.1871 -0.0469  0.1388
 1158BOLB   GL127771  19.001  12.350  25.699  0.2187 -0.5186  0.1290
 1158BOLB   GL227772  18.724  12.588  25.672  0.0262  0.0851  0.1063
 1158BOLB   C1A27773  19.184  12.671  25.919 -0.3728 -0.1482  0.0633
 1158BOLB   C2A27774  19.234  12.984  25.925  0.0602 -0.1321 -0.1953
 1158BOLB   C3A27775  19.304  13.328  26.066  0.0685 -0.0250 -0.0553
 1158BOLB   C4A27776  19.046  13.716  26.018 -0.2000  0.0336 -0.2737
 1158BOLB   C1B27777  18.982  12.871  25.504  0.1185 -0.0316  0.0579
 1158BOLB   C2B27778  19.444  12.985  25.488 -0.2219  0.1052  0.5313
 1158BOLB   C3B27779  19.775  12.831  25.264 -0.3225 -0.2517 -0.0190
 1158BOLB   C4B27780  19.959  12.470  24.999 -0.2041 -0.0870 -0.1853
 1158BOLB   NC227781  19.120  15.734  26.503  0.0028 -0.1834 -0.3768
 1158BOLB   PO227782  19.184  15.908  26.083 -0.0177 -0.1658  0.0731
 1158BOLB   GL327783  18.876  15.560  26.054 -0.2015  0.0077  0.3018
 1158BOLB   GL427784  18.673  15.477  25.786  0.0666 -0.2240  0.0423
 1158BOLB   C1C27785  18.888  15.190  26.257 -0.1894  0.4197  0.1876
 1158BOLB   C2C27786  18.884  14.762  26.315 -0.2769  0.0512  0.0908
 1158BOLB   C3C27787  19.066  14.431  26.235  0.0256  0.2021 -0.0021
 1158BOLB   C4C27788  19.183  14.049  26.054  0.0581  0.3298 -0.1249
 1158BOLB   C1D27789  18.577  15.158  25.756 -0.0969  0.2421  0.0742
 1158BOLB   C2D27790  18.627  14.806  25.490 -0.2899  0.0071 -0.1041
 1158BOLB   C3D27791  18.678  14.452  25.324  0.0005 -0.0685  0.0110
 1158BOLB   C4D27792  18.832  14.197  25.115  0.1136 -0.0519 -0.1060
 1159BOLB   NC127793  18.163  10.341  20.713  0.0129 -0.1280 -0.2644
 1159BOLB   PO127794  18.699  10.277  20.792  0.3347 -0.3761 -0.0426
 1159BOLB   GL127795  18.968  10.439  20.559  0.0082 -0.0299  0.1982
 1159BOLB   GL227796  19.206  10.613  20.634 -0.1569  0.2071  0.0698
 1159BOLB   C1A27797  19.058  10.808  20.186  0.0853 -0.3631 -0.3083
 1159BOLB   C2A27798  19.191  11.140  19.913 -0.0537 -0.0891  0.0239
 1159BOLB   C3A27799  19.503  11.293  19.745 -0.4643  0.1076  0.1115
 1159BOLB   C4A27800  19.560  11.606  19.483  0.2198 -0.1708 -0.0389
 1159BOLB   C1B27801  18.810  10.935  20.632 -0.0932  0.3278 -0.1580
 1159BOLB   C2B27802  18.735  11.289  20.430 -0.0934  0.0962  0.3704
 1159BOLB   C3B27803  18.838  11.450  19.966 -0.1856 -0.0104 -0.0507
 1159BOLB   C4B27804  19.049  11.702  19.729 -0.0807  0.0548  0.3214
 1159BOLB   NC227805  21.118  13.276  18.399 -0.0249  0.2527 -0.3343
 1159BOLB   PO227806  20.712  13.184  18.229 -0.1395  0.3595  0.1706
 1159BOLB   GL327807  20.400  12.917  18.452  0.3588  0.4380 -0.1262
 1159BOLB   GL427808  20.427  12.547  18.399  0.4646 -0.0146  0.1442
 1159BOLB   C1C27809  20.262  12.696  18.931 -0.0893 -0.4917  0.1065
 1159BOLB   C2C27810  20.547  12.355  19.079  0.1078  0.0226  0.0389
 1159BOLB   C3C27811  20.439  11.946  19.234 -0.0227 -0.0937 -0.0168
 1159BOLB   C4C27812  20.074  11.737  19.327  0.0299  0.0338 -0.1827
 1159BOLB   C1D27813  20.176  12.349  18.557 -0.1657  0.1362  0.0587
 1159BOLB   C2D27814  20.061  12.287  19.025 -0.0331 -0.0984 -0.0311
 1159BOLB   C3D27815  19.659  12.101  19.263  0.0747  0.0011 -0.0818
 1159BOLB   C4D27816  19.199  12.047  19.337  0.1876  0.1528  0.1553
 1160BOLB   NC127817  14.132  -4.431  22.740  0.3786  0.1062  0.0275
 1160BOLB   PO127818  13.809  -4.497  22.951 -0.2283  0.0694  0.1039
 1160BOLB   GL127819  14.050  -4.896  22.912 -0.3216  0.1142 -0.0113
 1160BOLB   GL227820  14.174  -4.900  22.601  0.1574  0.0761 -0.3255
 1160BOLB   C1A27821  13.970  -5.397  22.924  0.0754  0.0557 -0.4084
 1160BOLB   C2A27822  13.843  -5.776  22.789  0.0262  0.1441 -0.0633
 1160BOLB   C3A27823  13.911  -6.199  22.856 -0.1113 -0.1238 -0.4660
 1160BOLB   C4A27824  13.797  -6.698  22.863 -0.2859  0.0966 -0.5981
 1160BOLB   C1B27825  13.892  -5.219  22.503  0.0133 -0.0814 -0.1109
 1160BOLB   C2B27826  14.076  -5.663  22.321 -0.0528  0.1284 -0.0162
 1160BOLB   C3B27827  14.112  -6.175  22.348 -0.1856  0.0335  0.2451
 1160BOLB   C4B27828  14.013  -6.612  22.182  0.2511  0.2358  0.0212
 1160BOLB   NC227829  12.101  -8.165  23.387 -0.1201  0.0970 -0.0738
 1160BOLB   PO227830  11.936  -8.022  22.947 -0.1528  0.0406  0.0452
 1160BOLB   GL327831  12.231  -7.780  22.635 -0.1433  0.1073  0.2833
 1160BOLB   GL427832  12.154  -7.580  22.448  0.2063  0.2556  0.0888
 1160BOLB   C1C27833  12.688  -7.469  22.655  0.0140 -0.3354  0.0486
 1160BOLB   C2C27834  13.077  -7.344  22.492  0.1002 -0.2219  0.1942
 1160BOLB   C3C27835  13.462  -7.195  22.351  0.1065 -0.0107 -0.0609
 1160BOLB   C4C27836  13.672  -6.917  22.556  0.3449 -0.1256 -0.0658
 1160BOLB   C1D27837  12.222  -7.217  22.433 -0.1125 -0.1573  0.2220
 1160BOLB   C2D27838  12.548  -6.999  22.275 -0.2911  0.1234 -0.0707
 1160BOLB   C3D27839  12.767  -6.659  22.293  0.2718 -0.0990  0.1860
 1160BOLB   C4D27840  12.903  -6.338  21.988  0.2140 -0.2370  0.1867
 1161BOLB   NC127841  24.329   0.997  24.268  0.0818  0.0895  0.1582
 1161BOLB   PO127842  24.394   1.217  24.627  0.6829 -0.1566  0.2208
 1161BOLB   GL127843  24.798   1.030  24.658 -0.0274  0.1496 -0.0565
 1161BOLB   GL227844  24.787   0.854  24.385 -0.1980  0.2344 -0.2058
 1161BOLB   C1A27845  25.216   0.794  24.590  0.1476  0.0091 -0.2605
 1161BOLB   C2A27846  25.592   0.664  24.419 -0.1015 -0.0120  0.1495
 1161BOLB   C3A27847  25.716   0.231  24.279 -0.2070  0.2348  0.1018
 1161BOLB   C4A27848  25.662  -0.159  24.145 -0.0790 -0.0486 -0.1826
 1161BOLB   C1B27849  25.082   0.784  24.109  0.0085 -0.0455 -0.0843
 1161BOLB   C2B27850  25.247   0.546  24.014 -0.1832 -0.2411 -0.0679
 1161BOLB   C3B27851  25.563   0.521  23.889 -0.0910  0.0252 -0.2174
 1161BOLB   C4B27852  25.948   0.210  23.787 -0.1440 -0.0156  0.3819
 1161BOLB   NC227853  26.934  -2.358  24.684  0.0416  0.2742  0.1648
 1161BOLB   PO227854  26.961  -2.387  24.302  0.1141 -0.2346 -0.1254
 1161BOLB   GL327855  26.599  -2.023  24.352 -0.1904  0.2731 -0.2881
 1161BOLB   GL427856  26.571  -1.878  24.529 -0.3899 -0.1248  0.0119
 1161BOLB   C1C27857  26.639  -1.638  24.109 -0.1427 -0.3348  0.1596
 1161BOLB   C2C27858  26.360  -1.208  24.095 -0.0917  0.0135  0.0308
 1161BOLB   C3C27859  26.198  -0.878  24.108 -0.2195  0.0949  0.0564
 1161BOLB   C4C27860  26.097  -0.472  24.080 -0.0091 -0.0176  0.1485
 1161BOLB   C1D27861  26.371  -1.893  24.865  0.1338 -0.1050 -0.0345
 1161BOLB   C2D27862  26.121  -1.626  25.085  0.1818 -0.0848  0.3035
 1161BOLB   C3D27863  25.726  -1.290  25.296 -0.0664  0.0331 -0.2648
 1161BOLB   C4D27864  25.313  -1.014  25.314 -0.2548 -0.1118  0.1853
 1162BOLB   NC127865  11.836  10.134  30.683 -0.1686  0.1049  0.2197
 1162BOLB   PO127866  11.611   9.755  30.842  0.0786 -0.1172 -0.4818
 1162BOLB   GL127867  11.311   9.752  31.208  0.0407  0.0783 -0.2942
 1162BOLB   GL227868  11.375   9.547  31.440 -0.0078 -0.1847 -0.1462
 1162BOLB   C1A27869  11.347  10.183  31.390  0.0992  0.0401 -0.2368
 1162BOLB   C2A27870  10.917  10.463  31.368 -0.1929 -0.0320  0.0734
 1162BOLB   C3A27871  10.579  10.627  31.580  0.3082  0.1182 -0.1246
 1162BOLB   C4A27872  10.211  10.789  31.842 -0.0952 -0.2061  0.2219
 1162BOLB   C1B27873  11.303   9.817  31.783 -0.0792  0.0037  0.1214
 1162BOLB   C2B27874  11.147  10.148  31.993  0.3508  0.0533 -0.0722
 1162BOLB   C3B27875  10.998  10.154  32.362  0.1357 -0.1378 -0.0494
 1162BOLB   C4B27876  10.950  10.437  32.755  0.0211  0.1978  0.0783
 1162BOLB   NC227877   9.607  11.234  34.375 -0.1545 -0.2676 -0.0782
 1162BOLB   PO227878   9.250  11.334  34.220  0.0518 -0.0799 -0.0988
 1162BOLB   GL327879   9.617  11.395  33.847 -0.0966  0.1342  0.2485
 1162BOLB   GL427880   9.760  11.053  33.853 -0.2221  0.0588 -0.0579
 1162BOLB   C1C27881   9.584  11.266  33.375  0.0936 -0.1621 -0.0091
 1162BOLB   C2C27882   9.776  11.281  32.870 -0.4546 -0.3200  0.1966
 1162BOLB   C3C27883   9.798  11.251  32.454  0.1002  0.1094  0.2571
 1162BOLB   C4C27884  10.002  11.032  32.205 -0.1803 -0.0754  0.2963
 1162BOLB   C1D27885   9.911  10.623  33.613  0.2571  0.1262 -0.0795
 1162BOLB   C2D27886  10.071  10.197  33.420  0.1082 -0.0610 -0.4112
 1162BOLB   C3D27887  10.285  10.117  33.010 -0.1991  0.0574 -0.0240
 1162BOLB   C4D27888  10.498  10.091  32.702 -0.3805  0.0129 -0.0584
 1163BOLB   NC127889  13.588   1.066  32.459 -0.0250  0.3268 -0.0285
 1163BOLB   PO127890  13.165   1.161  32.352 -0.0689 -0.2610 -0.3616
 1163BOLB   GL127891  13.104   1.051  32.732  0.0560  0.1387  0.0540
 1163BOLB   GL227892  12.844   1.044  32.795 -0.1765  0.3157  0.0672
 1163BOLB   C1A27893  13.090   0.538  32.887  0.1920 -0.3281  0.1943
 1163BOLB   C2A27894  12.992  -0.003  32.935  0.0654 -0.0551 -0.1017
 1163BOLB   C3A27895  12.840  -0.443  33.120  0.1275  0.0543  0.1474
 1163BOLB   C4A27896  12.795  -0.778  33.348  0.0667 -0.0950 -0.2743
 1163BOLB   C1B27897  13.016   1.008  33.202  0.0397 -0.1968  0.1164
 1163BOLB   C2B27898  13.074   1.066  33.576  0.0183 -0.0089 -0.2209
 1163BOLB   C3B27899  13.050   0.798  33.854 -0.0490 -0.0790 -0.0040
 1163BOLB   C4B27900  13.305   0.484  33.867 -0.4418  0.1636 -0.0533
 1163BOLB   NC227901  12.619  -2.071  35.517 -0.4099  0.0763 -0.3841
 1163BOLB   PO227902  12.385  -1.730  35.535 -0.1446  0.2792  0.0516
 1163BOLB   GL327903  12.711  -1.699  35.162  0.1749 -0.1564  0.0378
 1163BOLB   GL427904  13.031  -1.803  35.212 -0.1659 -0.0722  0.0751
 1163BOLB   C1C27905  12.906  -1.656  34.744  0.0462  0.2120 -0.1905
 1163BOLB   C2C27906  12.954  -1.309  34.423 -0.0085 -0.0837 -0.1996
 1163BOLB   C3C27907  13.045  -1.112  34.103  0.0218 -0.1554 -0.0423
 1163BOLB   C4C27908  12.934  -1.011  33.683 -0.1435 -0.0308 -0.0219
 1163BOLB   C1D27909  13.179  -1.437  35.279  0.1518 -0.3648 -0.0754
 1163BOLB   C2D27910  13.129  -0.983  35.228  0.3933 -0.2101 -0.0176
 1163BOLB   C3D27911  13.089  -0.693  34.901  0.0746  0.3599  0.1710
 1163BOLB   C4D27912  12.994  -0.854  34.469 -0.0404 -0.1626  0.0637
 1164BOLB   NC127913  23.314   8.669  26.025  0.0412 -0.1016 -0.2269
 1164BOLB   PO127914  23.241   8.560  26.518  0.1989 -0.0051 -0.3973
 1164BOLB   GL127915  23.655   8.833  26.422 -0.4243  0.3154 -0.0080
 1164BOLB   GL227916  23.797   8.647  26.210 -0.0978  0.1383  0.1947
 1164BOLB   C1A27917  23.962   9.050  26.587  0.1356 -0.2914 -0.0113
 1164BOLB   C2A27918  24.339   9.187  26.640 -0.2731  0.0849  0.2133
 1164BOLB   C3A27919  24.784   9.006  26.665 -0.2062 -0.0422  0.2355
 1164BOLB   C4A27920  25.256   9.199  26.628  0.1411  0.1595  0.1959
 1164BOLB   C1B27921  23.997   8.935  25.943  0.2109 -0.3673  0.0744
 1164BOLB   C2B27922  24.289   9.206  25.996  0.3689  0.2157 -0.1968
 1164BOLB   C3B27923  24.688   9.397  25.744  0.0593  0.3118  0.1475
 1164BOLB   C4B27924  25.034   9.573  25.495 -0.2675  0.2855  0.0586
 1164BOLB   NC227925  26.414  11.162  27.514  0.0256 -0.2411  0.1355
 1164BOLB   PO227926  26.345  11.398  27.110  0.3182  0.0073 -0.1101
 1164BOLB   GL327927  26.185  10.917  27.042  0.2587  0.0057 -0.0769
 1164BOLB   GL427928  26.178  10.722  27.332 -0.1139  0.1999  0.1272
 1164BOLB   C1C27929  26.079  10.516  26.836 -0.2927  0.1526  0.2806
 1164BOLB   C2C27930  26.031  10.085  26.719  0.0553  0.1328 -0.0164
 1164BOLB   C3C27931  26.001   9.669  26.549  0.1204  0.2467  0.1092
 1164BOLB   C4C27932  25.646   9.373  26.586 -0.5315  0.0775  0.1119
 1164BOLB   C1D27933  25.810  10.909  27.430  0.2870  0.1931 -0.1109
 1164BOLB   C2D27934  25.639  10.528  27.409  0.3339  0.0719 -0.1227
 1164BOLB   C3D27935  25.796  10.176  27.262 -0.0340 -0.0701  0.0239
 1164BOLB   C4D27936  25.970   9.720  27.252 -0.1635 -0.0041  0.0445
 1165BOLB   NC127937  21.005  -2.248  21.946 -0.1641 -0.0236 -0.1754
 1165BOLB   PO127938  21.401  -2.437  22.173  0.3523  0.2119 -0.0073
 1165BOLB   GL127939  21.609  -2.861  22.016 -0.0852  0.0535  0.3903
 1165BOLB   GL227940  21.917  -2.876  21.809 -0.1895 -0.2112 -0.0606
 1165BOLB   C1A27941  21.898  -3.217  22.144  0.1047  0.1538 -0.0068
 1165BOLB   C2A27942  22.185  -3.494  21.933 -0.1431 -0.1061 -0.1646
 1165BOLB   C3A27943  22.435  -3.687  21.637  0.3207  0.2077  0.2493
 1165BOLB   C4A27944  22.778  -3.940  21.599  0.1043 -0.0241 -0.1694
 1165BOLB   C1B27945  22.404  -3.002  21.743  0.1502  0.0411  0.0973
 1165BOLB   C2B27946  22.739  -3.247  21.798 -0.1676  0.0107  0.3388
 1165BOLB   C3B27947  22.980  -3.510  21.865 -0.3012 -0.0666 -0.1054
 1165BOLB   C4B27948  23.195  -3.780  22.189  0.1334  0.1466 -0.2266
 1165BOLB   NC227949  24.508  -5.791  21.418  0.0294 -0.1383 -0.0267
 1165BOLB   PO227950  24.752  -5.446  21.653 -0.0086 -0.0073  0.2989
 1165BOLB   GL327951  24.287  -5.207  21.813  0.1470 -0.0854 -0.1581
 1165BOLB   GL427952  24.090  -5.321  21.594 -0.0294  0.2474 -0.1816
 1165BOLB   C1C27953  24.100  -4.984  22.082 -0.0596  0.0162  0.2270
 1165BOLB   C2C27954  23.805  -4.560  22.033  0.2549  0.1029 -0.2761
 1165BOLB   C3C27955  23.490  -4.227  21.956 -0.1329 -0.2227 -0.1543
 1165BOLB   C4C27956  23.245  -4.093  21.686  0.1121 -0.1552  0.1608
 1165BOLB   C1D27957  24.284  -5.153  21.281  0.2794 -0.3731  0.0997
 1165BOLB   C2D27958  24.158  -4.956  20.997 -0.0119 -0.1870  0.3402
 1165BOLB   C3D27959  23.832  -4.919  20.600  0.0025 -0.1453  0.1857
 1165BOLB   C4D27960  23.542  -4.625  20.376  0.0063  0.0982 -0.0694
 1166BOLB   NC127961  21.327   3.155  32.054 -0.4213  0.2772  0.0041
 1166BOLB   PO127962  21.135   2.811  32.012 -0.0941 -0.1657  0.0530
 1166BOLB   GL127963  21.089   2.492  32.320  0.1009  0.0451 -0.2778
 1166BOLB   GL227964  21.436   2.340  32.327  0.4987  0.0556  0.0876
 1166BOLB   C1A27965  21.028   2.238  32.616 -0.4647 -0.2291 -0.0083
 1166BOLB   C2A27966  21.177   2.228  33.042 -0.0607 -0.0820 -0.1787
 1166BOLB   C3A27967  21.257   1.866  33.269  0.0530  0.0558 -0.1908
 1166BOLB   C4A27968  21.354   1.911  33.655 -0.1433  0.0197 -0.0186
 1166BOLB   C1B27969  21.555   2.265  32.745  0.1560  0.2927  0.0406
 1166BOLB   C2B27970  21.837   2.186  33.090 -0.2360 -0.0905  0.0173
 1166BOLB   C3B27971  21.756   2.157  33.517 -0.0506  0.1716  0.2815
 1166BOLB   C4B27972  21.500   2.400  33.734 -0.2816 -0.2253 -0.3240
 1166BOLB   NC227973  23.201   2.537  35.570  0.5087  0.2339  0.5518
 1166BOLB   PO227974  22.686   2.399  35.602 -0.0073 -0.0977 -0.0116
 1166BOLB   GL327975  22.747   2.394  35.235  0.0558  0.4180 -0.1788
 1166BOLB   GL427976  22.989   2.612  35.129  0.0354  0.0239 -0.2383
 1166BOLB   C1C27977  22.695   2.435  34.717  0.1469 -0.1770 -0.0258
 1166BOLB   C2C27978  22.271   2.341  34.530  0.0070  0.0649  0.2679
 1166BOLB   C3C27979  22.004   2.214  34.304  0.2189 -0.2364 -0.0123
 1166BOLB   C4C27980  21.626   2.126  34.098 -0.2068 -0.0956  0.1440
 1166BOLB   C1D27981  22.634   2.861  35.031 -0.5034 -0.1852 -0.3512
 1166BOLB   C2D27982  22.478   3.090  34.729  0.0972 -0.0830  0.2062
 1166BOLB   C3D27983  22.449   3.146  34.193 -0.2705 -0.1517  0.0997
 1166BOLB   C4D27984  22.637   3.250  33.762  0.1627  0.0651 -0.4146
 1167BOLB   NC127985  12.441   8.386  20.349  0.0092  0.0567  0.1479
 1167BOLB   PO127986  12.378   8.482  19.947  0.0591 -0.1972 -0.1515
 1167BOLB   GL127987  12.330   8.741  19.549  0.0627 -0.1262 -0.0517
 1167BOLB   GL227988  12.018   8.711  19.572 -0.3039  0.2541 -0.0380
 1167BOLB   C1A27989  12.224   9.130  19.396 -0.0922  0.3258  0.2148
 1167BOLB   C2A27990  11.798   9.358  19.421 -0.1726  0.0113  0.0017
 1167BOLB   C3A27991  11.397   9.353  19.211 -0.1430  0.0887 -0.0075
 1167BOLB   C4A27992  11.048   9.383  18.982 -0.2028 -0.1097  0.1075
 1167BOLB   C1B27993  11.725   8.786  19.235 -0.1144  0.0315 -0.1138
 1167BOLB   C2B27994  11.519   8.925  18.857 -0.1594  0.3933  0.0103
 1167BOLB   C3B27995  11.306   9.121  18.598  0.1102 -0.0836  0.0618
 1167BOLB   C4B27996  11.478   9.240  18.118 -0.3232 -0.0324  0.0563
 1167BOLB   NC227997  10.015  11.362  17.798  0.6298 -0.0652  0.1758
 1167BOLB   PO227998  10.089  11.017  17.661  0.0993 -0.6331  0.0624
 1167BOLB   GL327999  10.448  10.744  17.695  0.1595 -0.2690  0.2112
 1167BOLB   GL428000  10.819  10.923  17.785  0.0116  0.2738  0.0191
 1167BOLB   C1C28001  10.535  10.593  18.070 -0.3306  0.2342  0.2060
 1167BOLB   C2C28002  10.646  10.345  18.317  0.2494  0.0591 -0.1651
 1167BOLB   C3C28003  10.775   9.941  18.497  0.0264 -0.0571 -0.2413
 1167BOLB   C4C28004  10.947   9.606  18.674  0.3198  0.0337 -0.0474
 1167BOLB   C1D28005  11.079  10.602  18.027  0.0867 -0.0029  0.3254
 1167BOLB   C2D28006  11.157  10.247  18.289  0.2231  0.1206 -0.0426
 1167BOLB   C3D28007  11.373   9.951  18.426 -0.0472  0.2729 -0.2030
 1167BOLB   C4D28008  11.418   9.564  18.522  0.4453 -0.4141  0.0376
 1168BOLB   NC128009  23.248   6.595  21.956 -0.1111 -0.1748 -0.1199
 1168BOLB   PO128010  23.211   6.969  21.967 -0.0535 -0.0403  0.3035
 1168BOLB   GL128011  23.544   7.248  22.187  0.4176  0.2079  0.3576
 1168BOLB   GL228012  23.611   7.334  22.454  0.1530 -0.1739 -0.3165
 1168BOLB   C1A28013  23.896   7.587  22.073 -0.1909  0.0082  0.2138
 1168BOLB   C2A28014  23.826   7.914  21.850  0.0654 -0.3693 -0.0728
 1168BOLB   C3A28015  23.773   8.412  21.780  0.0576 -0.0059  0.0670
 1168BOLB   C4A28016  23.928   8.836  21.824 -0.3535 -0.1671  0.1371
 1168BOLB   C1B28017  23.967   7.524  22.677  0.0220  0.2188 -0.2647
 1168BOLB   C2B28018  24.423   7.722  22.709  0.0506  0.0187 -0.1631
 1168BOLB   C3B28019  24.843   7.895  22.691 -0.1625  0.2070  0.4738
 1168BOLB   C4B28020  25.188   7.884  22.545 -0.1369 -0.4032  0.0280
 1168BOLB   NC228021  25.623  10.251  20.828  0.1051  0.1841  0.2153
 1168BOLB   PO228022  25.780   9.766  20.797  0.4085 -0.3104  0.1156
 1168BOLB   GL328023  25.279   9.786  20.829  0.1803  0.2645 -0.1297
 1168BOLB   GL428024  25.149  10.095  20.759 -0.1687  0.0565  0.1599
 1168BOLB   C1C28025  24.900   9.547  20.741  0.1252 -0.0224 -0.2778
 1168BOLB   C2C28026  24.503   9.489  20.790  0.3830 -0.1383  0.0782
 1168BOLB   C3C28027  24.190   9.367  21.129 -0.0077 -0.1535 -0.3501
 1168BOLB   C4C28028  24.113   9.143  21.486 -0.0030  0.0186 -0.0535
 1168BOLB   C1D28029  24.839   9.985  20.973 -0.0932 -0.1019  0.0729
 1168BOLB   C2D28030  24.558   9.699  21.264  0.3037  0.0184 -0.0218
 1168BOLB   C3D28031  24.379   9.501  21.710 -0.0041 -0.0360 -0.1822
 1168BOLB   C4D28032  24.384   9.086  21.920 -0.2232 -0.2279  0.1576
 1169BOLB   NC128033  20.720   9.767  22.142  0.1874 -0.1945 -0.0856
 1169BOLB   PO128034  20.703   9.496  21.703 -0.1982 -0.1083  0.1045
 1169BOLB   GL128035  21.060   9.756  21.701  0.3663 -0.0884 -0.1346
 1169BOLB   GL228036  21.212   9.915  21.868  0.2434 -0.2548 -0.4137
 1169BOLB   C1A28037  21.338  10.044  21.430 -0.1437  0.0138 -0.1332
 1169BOLB   C2A28038  21.517  10.444  21.314 -0.1227 -0.1717  0.0796
 1169BOLB   C3A28039  21.890  10.759  21.327  0.0935 -0.0312  0.2890
 1169BOLB   C4A28040  21.965  11.131  21.131  0.1451  0.1524 -0.0877
 1169BOLB   C1B28041  21.449  10.297  21.873  0.0117  0.2722 -0.2127
 1169BOLB   C2B28042  21.547  10.720  21.886 -0.3146  0.2820  0.1070
 1169BOLB   C3B28043  21.687  11.072  21.931 -0.1963 -0.1174 -0.1907
 1169BOLB   C4B28044  21.772  11.341  21.618  0.1242  0.0795 -0.0862
 1169BOLB   NC228045  22.891  13.376  20.001 -0.0718 -0.1471  0.2610
 1169BOLB   PO228046  22.977  13.238  20.371 -0.0551  0.2953 -0.0530
 1169BOLB   GL328047  22.701  12.911  20.545 -0.2880 -0.0030 -0.0791
 1169BOLB   GL428048  22.654  13.087  20.843 -0.1926 -0.0624  0.0174
 1169BOLB   C1C28049  22.619  12.471  20.512  0.0045 -0.0908  0.1176
 1169BOLB   C2C28050  22.692  12.053  20.628  0.2582  0.1625 -0.2937
 1169BOLB   C3C28051  22.338  11.684  20.578 -0.0731 -0.1776  0.0780
 1169BOLB   C4C28052  22.013  11.393  20.794  0.1387  0.0927  0.1831
 1169BOLB   C1D28053  22.378  12.981  21.242  0.2443  0.3171 -0.1700
 1169BOLB   C2D28054  22.427  12.600  21.394 -0.0149 -0.0323 -0.0036
 1169BOLB   C3D28055  22.467  12.315  21.797 -0.2669 -0.1645 -0.0717
 1169BOLB   C4D28056  22.398  11.921  22.140 -0.2694  0.2207  0.0491
 1170BOLB   NC128057   9.019   5.648  21.621  0.4366  0.4514 -0.0481
 1170BOLB   PO128058   8.657   5.994  21.483  0.1151  0.1430 -0.0083
 1170BOLB   GL128059   8.347   6.288  21.233  0.2480 -0.1242  0.0432
 1170BOLB   GL228060   8.384   6.631  21.063 -0.1316 -0.2798  0.1138
 1170BOLB   C1A28061   7.961   6.300  21.157 -0.2812  0.3121 -0.0773
 1170BOLB   C2A28062   7.713   6.543  20.946  0.1047  0.2030  0.2462
 1170BOLB   C3A28063   7.427   6.785  20.653 -0.0883 -0.3465 -0.2885
 1170BOLB   C4A28064   7.419   6.781  20.240  0.0180  0.1518  0.3447
 1170BOLB   C1B28065   8.257   6.826  20.660  0.0696  0.0404 -0.1588
 1170BOLB   C2B28066   8.422   7.084  20.343  0.0129  0.0988 -0.2048
 1170BOLB   C3B28067   8.497   7.127  19.987  0.0493  0.0082  0.2487
 1170BOLB   C4B28068   8.224   7.279  19.692 -0.0406  0.2295 -0.0289
 1170BOLB   NC228069   5.637   8.152  18.944 -0.0986  0.0844  0.0141
 1170BOLB   PO228070   5.653   7.730  18.864 -0.1567  0.0913 -0.0740
 1170BOLB   GL328071   5.892   7.591  19.139 -0.1446  0.0676 -0.0458
 1170BOLB   GL428072   5.864   7.252  19.307  0.0033  0.0157  0.1667
 1170BOLB   C1C28073   6.193   7.647  19.462  0.0465 -0.0535 -0.1492
 1170BOLB   C2C28074   6.556   7.405  19.771 -0.2867 -0.1685  0.1927
 1170BOLB   C3C28075   6.729   7.262  20.094 -0.3055 -0.0671  0.0592
 1170BOLB   C4C28076   6.992   6.951  20.095 -0.0859  0.2987 -0.0854
 1170BOLB   C1D28077   6.114   7.211  19.723  0.2183  0.2201  0.3465
 1170BOLB   C2D28078   6.206   7.083  20.167  0.0315 -0.2454 -0.0349
 1170BOLB   C3D28079   6.508   6.953  20.419 -0.0521  0.1795 -0.0026
 1170BOLB   C4D28080   6.870   6.766  20.548  0.4616 -0.0163  0.2013
 1171BOLB   NC128081   8.555  -0.286  21.613  0.2964  0.1049 -0.0811
 1171BOLB   PO128082   8.321   0.113  21.397 -0.0372 -0.1197  0.0361
 1171BOLB   GL128083   8.119  -0.287  21.314  0.1256  0.1916 -0.2080
 1171BOLB   GL228084   8.042  -0.546  21.515 -0.2183  0.0769 -0.1888
 1171BOLB   C1A28085   7.637  -0.466  21.254  0.0788  0.2611  0.1194
 1171BOLB   C2A28086   7.385  -0.685  21.290 -0.3054  0.0916  0.0429
 1171BOLB   C3A28087   7.048  -0.878  21.215  0.0491  0.2179 -0.2287
 1171BOLB   C4A28088   6.662  -0.943  20.957  0.2325 -0.0327  0.1065
 1171BOLB   C1B28089   7.836  -0.900  21.474  0.1964 -0.2318 -0.5857
 1171BOLB   C2B28090   7.531  -1.187  21.310 -0.1299 -0.0422  0.0967
 1171BOLB   C3B28091   7.199  -1.518  21.072 -0.2171 -0.0993 -0.1151
 1171BOLB   C4B28092   7.301  -1.902  20.826  0.3108 -0.1001  0.0189
 1171BOLB   NC228093   4.131  -1.428  21.296 -0.1804  0.1867 -0.0682
 1171BOLB   PO228094   4.461  -1.370  20.998  0.1744  0.3838 -0.0463
 1171BOLB   GL328095   5.057  -1.229  20.981 -0.0034  0.0854 -0.1800
 1171BOLB   GL428096   5.082  -0.931  20.844 -0.2288 -0.1886 -0.2628
 1171BOLB   C1C28097   5.407  -1.472  21.110 -0.1428  0.2375 -0.2089
 1171BOLB   C2C28098   5.868  -1.542  20.942  0.0572  0.0999 -0.0037
 1171BOLB   C3C28099   6.248  -1.533  20.704 -0.1009  0.1427  0.0270
 1171BOLB   C4C28100   6.474  -1.153  20.644  0.0012 -0.0456 -0.0668
 1171BOLB   C1D28101   5.462  -0.891  21.107 -0.1609 -0.2004  0.0085
 1171BOLB   C2D28102   5.807  -0.634  21.267 -0.0067  0.3146 -0.0141
 1171BOLB   C3D28103   5.928  -0.403  21.699  0.0544 -0.0929 -0.1036
 1171BOLB   C4D28104   5.837  -0.628  22.017 -0.0881  0.1263 -0.1797
 1172BOLB   NC128105  22.685   9.437  24.862 -0.0517  0.0266 -0.3268
 1172BOLB   PO128106  22.660   9.510  25.340  0.0771  0.0606  0.1512
 1172BOLB   GL128107  22.917   9.712  25.500  0.0564  0.1672  0.1020
 1172BOLB   GL228108  22.929  10.062  25.599 -0.1938  0.0537 -0.0638
 1172BOLB   C1A28109  23.281   9.800  25.384 -0.2678 -0.2624  0.2923
 1172BOLB   C2A28110  23.714   9.832  25.474 -0.0312  0.1647 -0.2835
 1172BOLB   C3A28111  23.952  10.217  25.604 -0.1295  0.2151  0.1737
 1172BOLB   C4A28112  24.135  10.600  25.805 -0.1275  0.0787 -0.4681
 1172BOLB   C1B28113  23.178  10.415  25.545 -0.0940  0.0054  0.1855
 1172BOLB   C2B28114  23.452  10.298  25.443 -0.4896  0.1946  0.2792
 1172BOLB   C3B28115  23.688  10.280  25.154  0.0091 -0.1147 -0.4430
 1172BOLB   C4B28116  23.982  10.556  25.011  0.1938  0.0839 -0.1631
 1172BOLB   NC228117  26.268  11.659  25.922  0.0847 -0.0716 -0.0894
 1172BOLB   PO228118  26.004  11.541  25.639  0.1247  0.1377  0.1470
 1172BOLB   GL328119  25.733  11.512  26.019 -0.0039 -0.0086 -0.0009
 1172BOLB   GL428120  25.704  11.554  26.381 -0.0792  0.0186  0.0405
 1172BOLB   C1C28121  25.360  11.293  26.136  0.2767  0.0520 -0.0056
 1172BOLB   C2C28122  25.061  11.024  26.040  0.3786  0.1805 -0.0208
 1172BOLB   C3C28123  24.813  10.976  25.835  0.0992  0.0231 -0.3372
 1172BOLB   C4C28124  24.547  10.590  25.824 -0.0248  0.0907 -0.1383
 1172BOLB   C1D28125  25.786  11.167  26.379  0.0388 -0.2645  0.0930
 1172BOLB   C2D28126  25.430  10.811  26.214 -0.1153  0.1382  0.0391
 1172BOLB   C3D28127  25.282  10.671  25.790 -0.0486 -0.1461 -0.2433
 1172BOLB   C4D28128  25.501  10.498  25.457 -0.1111  0.1202  0.0230
 1173BOLB   NC128129  21.821   6.487  19.135 -0.1858  0.0859  0.1871
 1173BOLB   PO128130  21.682   6.221  18.825 -0.0435 -0.2105  0.0613
 1173BOLB   GL128131  21.783   6.474  18.375  0.1167  0.0006 -0.1139
 1173BOLB   GL228132  21.675   6.340  18.127  0.1070 -0.1907 -0.3122
 1173BOLB   C1A28133  22.149   6.782  18.417  0.2594 -0.0934  0.4313
 1173BOLB   C2A28134  22.238   7.015  18.030  0.0468  0.1117  0.0439
 1173BOLB   C3A28135  22.202   7.089  17.594  0.2709 -0.1579  0.2008
 1173BOLB   C4A28136  22.628   7.082  17.386  0.0192 -0.2080 -0.3509
 1173BOLB   C1B28137  21.755   6.735  17.839  0.1479 -0.3218 -0.0084
 1173BOLB   C2B28138  21.666   7.163  17.562 -0.0162 -0.2184  0.1176
 1173BOLB   C3B28139  21.938   7.285  17.230 -0.1475 -0.0260 -0.0598
 1173BOLB   C4B28140  22.268   7.481  17.288  0.0034  0.2583 -0.1879
 1173BOLB   NC228141  25.134   7.138  16.306  0.0399  0.2965 -0.0263
 1173BOLB   PO228142  24.785   7.360  15.928 -0.1546  0.1431  0.1862
 1173BOLB   GL328143  24.428   7.381  16.240 -0.1990 -0.0066  0.1138
 1173BOLB   GL428144  24.672   7.137  16.425 -0.2475  0.2978  0.0383
 1173BOLB   C1C28145  24.029   7.337  16.490 -0.0105  0.2939 -0.0353
 1173BOLB   C2C28146  23.563   7.366  16.565 -0.0508  0.1889 -0.0290
 1173BOLB   C3C28147  23.306   7.041  16.866  0.0491 -0.1119 -0.3599
 1173BOLB   C4C28148  22.957   7.053  17.202 -0.3185 -0.0508 -0.0249
 1173BOLB   C1D28149  24.264   6.847  16.538  0.1678 -0.0541  0.2226
 1173BOLB   C2D28150  23.958   6.668  16.797  0.0999  0.1273  0.0265
 1173BOLB   C3D28151  23.648   6.529  16.931  0.1610 -0.2757 -0.3962
 1173BOLB   C4D28152  23.556   6.406  17.263 -0.1157  0.0689 -0.1571
 1174BOLB   NC128153  18.942  -2.725  27.461 -0.0393  0.0787 -0.1192
 1174BOLB   PO128154  19.339  -2.799  27.464  0.0293  0.1009  0.0908
 1174BOLB   GL128155  19.474  -3.071  27.602  0.2577  0.3200  0.0596
 1174BOLB   GL228156  19.478  -3.038  27.875 -0.4248  0.2860  0.4496
 1174BOLB   C1A28157  19.615  -3.370  27.327  0.1537  0.2207 -0.0925
 1174BOLB   C2A28158  19.942  -3.660  27.356  0.3220 -0.1321  0.0125
 1174BOLB   C3A28159  20.223  -4.124  27.252  0.3291  0.2193  0.1392
 1174BOLB   C4A28160  20.569  -4.420  27.096  0.1223 -0.1183  0.0356
 1174BOLB   C1B28161  19.646  -3.384  28.054  0.0429  0.0194  0.3495
 1174BOLB   C2B28162  19.891  -3.660  28.347 -0.0947 -0.0487  0.3476
 1174BOLB   C3B28163  19.881  -3.965  28.644 -0.0079  0.1772  0.1327
 1174BOLB   C4B28164  20.150  -4.279  29.006 -0.0985 -0.0144 -0.0705
 1174BOLB   NC228165  21.578  -6.660  26.644 -0.1327 -0.1084 -0.1309
 1174BOLB   PO228166  21.637  -6.570  27.062  0.4088  0.0743  0.2162
 1174BOLB   GL328167  21.656  -6.087  27.187 -0.0433  0.0225 -0.1662
 1174BOLB   GL428168  21.308  -5.978  27.325 -0.2467 -0.0900 -0.3050
 1174BOLB   C1C28169  21.414  -5.607  27.054  0.0721  0.2050 -0.1534
 1174BOLB   C2C28170  21.136  -5.303  27.140 -0.3981  0.2325 -0.0235
 1174BOLB   C3C28171  21.058  -4.887  27.371  0.2164  0.0284  0.3298
 1174BOLB   C4C28172  20.797  -4.722  27.168  0.1554 -0.0702 -0.0198
 1174BOLB   C1D28173  20.999  -5.882  26.932  0.3249  0.0096  0.1322
 1174BOLB   C2D28174  20.820  -5.533  26.754  0.3039 -0.2801 -0.0408
 1174BOLB   C3D28175  20.781  -5.094  26.779  0.2384 -0.0685  0.0173
 1174BOLB   C4D28176  20.450  -4.933  26.788 -0.2515 -0.0491 -0.1566
 1175BOLB   NC128177  18.911  11.663  27.399 -0.4671  0.0731  0.1753
 1175BOLB   PO128178  19.237  11.534  27.247 -0.0760  0.1096  0.1281
 1175BOLB   GL128179  19.352  11.783  27.546 -0.3691  0.1015 -0.0523
 1175BOLB   GL228180  19.676  11.995  27.357 -0.3259 -0.3654 -0.3269
 1175BOLB   C1A28181  19.420  12.155  27.756  0.1956  0.1224 -0.0792
 1175BOLB   C2A28182  19.494  12.503  27.931  0.2942  0.1193  0.2873
 1175BOLB   C3A28183  19.708  12.646  28.236 -0.2364  0.1046  0.1556
 1175BOLB   C4A28184  19.681  12.972  28.535 -0.0223 -0.2083 -0.0243
 1175BOLB   C1B28185  19.777  12.358  27.433 -0.0755 -0.1402  0.0328
 1175BOLB   C2B28186  19.879  12.658  27.700  0.1611 -0.3545  0.3834
 1175BOLB   C3B28187  19.949  13.035  27.856  0.2036  0.1764 -0.1308
 1175BOLB   C4B28188  20.079  13.210  28.213 -0.0116  0.1388 -0.0376
 1175BOLB   NC228189  21.428  14.475  29.975  0.1218 -0.2794 -0.0695
 1175BOLB   PO228190  21.539  14.611  29.593  0.2288  0.0238  0.0737
 1175BOLB   GL328191  21.414  14.148  29.498  0.1216 -0.0968 -0.1371
 1175BOLB   GL428192  21.713  13.968  29.311 -0.3010 -0.0060 -0.0794
 1175BOLB   C1C28193  21.014  13.854  29.480  0.2690  0.1956 -0.1234
 1175BOLB   C2C28194  20.657  13.610  29.208 -0.1936 -0.3690 -0.2137
 1175BOLB   C3C28195  20.434  13.458  28.896 -0.5254 -0.0856  0.0430
 1175BOLB   C4C28196  20.005  13.165  28.815  0.1736 -0.1715  0.1240
 1175BOLB   C1D28197  21.815  13.613  29.044  0.2140 -0.1264  0.0879
 1175BOLB   C2D28198  22.065  13.240  29.002  0.0417  0.1229 -0.2105
 1175BOLB   C3D28199  22.067  12.885  28.690 -0.0171  0.1200 -0.3258
 1175BOLB   C4D28200  22.288  12.550  28.747 -0.2393  0.3193  0.1230
 1176BOLB   NC128201  22.977   5.482  20.525  0.1027 -0.0154 -0.1413
 1176BOLB   PO128202  23.249   5.179  20.713  0.1878 -0.1598  0.1160
 1176BOLB   GL128203  23.629   5.291  20.764  0.1719  0.1029 -0.1714
 1176BOLB   GL228204  23.713   5.487  20.580 -0.0258  0.0860 -0.1068
 1176BOLB   C1A28205  24.114   5.213  20.590 -0.1716  0.2532 -0.2409
 1176BOLB   C2A28206  24.487   5.120  20.430  0.1714  0.1746 -0.1533
 1176BOLB   C3A28207  24.713   5.174  20.049 -0.1156 -0.4149 -0.0242
 1176BOLB   C4A28208  24.784   5.548  19.716  0.1143  0.0500  0.1586
 1176BOLB   C1B28209  23.966   5.811  20.443 -0.1908  0.0695  0.0165
 1176BOLB   C2B28210  24.294   6.074  20.328  0.2322 -0.4122 -0.1334
 1176BOLB   C3B28211  24.616   6.252  20.683 -0.1684  0.0632  0.0116
 1176BOLB   C4B28212  24.754   5.967  21.014 -0.1697 -0.2133 -0.2816
 1176BOLB   NC228213  26.158   7.357  19.311  0.2343 -0.0174 -0.1111
 1176BOLB   PO228214  26.486   7.031  19.243 -0.2458  0.0502  0.0491
 1176BOLB   GL328215  25.970   6.937  19.104  0.0686  0.0952  0.2500
 1176BOLB   GL428216  25.853   6.796  18.742  0.0006 -0.1458  0.3407
 1176BOLB   C1C28217  25.595   6.632  19.232  0.4114  0.1028 -0.3681
 1176BOLB   C2C28218  25.279   6.626  19.479 -0.1812  0.0507 -0.0326
 1176BOLB   C3C28219  25.082   6.303  19.716  0.0332 -0.5705 -0.2302
 1176BOLB   C4C28220  24.909   5.865  19.608 -0.0636  0.2816  0.0805
 1176BOLB   C1D28221  25.331   6.596  18.747 -0.1526 -0.0678 -0.5615
 1176BOLB   C2D28222  25.216   6.332  19.036 -0.0409 -0.2782  0.2679
 1176BOLB   C3D28223  25.119   5.816  19.176  0.2521  0.2553  0.3220
 1176BOLB   C4D28224  25.328   5.594  19.416  0.1705 -0.1010  0.1909
 1177BOLB   NC128225  12.998   0.271  17.762  0.1233  0.1208  0.0962
 1177BOLB   PO128226  13.028  -0.068  17.442 -0.1191  0.0789  0.4387
 1177BOLB   GL128227  12.945  -0.390  17.046 -0.2053  0.0246  0.3367
 1177BOLB   GL228228  12.781  -0.695  17.030  0.1414  0.1703  0.1199
 1177BOLB   C1A28229  12.947  -0.301  16.604  0.1901  0.3249  0.0661
 1177BOLB   C2A28230  12.937  -0.449  16.188 -0.1117  0.0428  0.0649
 1177BOLB   C3A28231  12.807  -0.719  15.905 -0.1757 -0.0725 -0.0508
 1177BOLB   C4A28232  12.513  -0.662  15.694 -0.0254 -0.0021  0.1643
 1177BOLB   C1B28233  12.514  -0.465  16.747 -0.1343 -0.0678 -0.0257
 1177BOLB   C2B28234  12.345  -0.328  16.451 -0.4008  0.1893  0.2603
 1177BOLB   C3B28235  12.300  -0.272  16.022  0.2041 -0.0078 -0.2605
 1177BOLB   C4B28236  12.059  -0.459  15.679  0.2118 -0.0680  0.0437
 1177BOLB   NC228237  12.750  -2.559  14.084  0.2063 -0.1206 -0.1028
 1177BOLB   PO228238  12.320  -2.327  14.068 -0.1211  0.0110 -0.0623
 1177BOLB   GL328239  12.507  -2.186  14.383  0.0562  0.0776 -0.1635
 1177BOLB   GL428240  12.696  -2.323  14.527  0.1531  0.1471 -0.1940
 1177BOLB   C1C28241  12.497  -1.884  14.700  0.1812 -0.1777  0.4400
 1177BOLB   C2C28242  12.586  -1.564  15.085  0.1154 -0.0862 -0.1487
 1177BOLB   C3C28243  12.434  -1.243  15.361 -0.1245  0.0447  0.1196
 1177BOLB   C4C28244  12.268  -0.908  15.462  0.0167 -0.1433 -0.0799
 1177BOLB   C1D28245  12.876  -2.405  15.003 -0.4115 -0.2521  0.1434
 1177BOLB   C2D28246  13.003  -2.291  15.323  0.0962 -0.0672 -0.1308
 1177BOLB   C3D28247  13.043  -2.193  15.666  0.0258 -0.2652  0.1358
 1177BOLB   C4D28248  12.843  -2.064  16.038  0.0044  0.1091 -0.0772
 1178BOLB   NC128249  24.761   4.041  25.875  0.1623 -0.0170  0.0691
 1178BOLB   PO128250  24.606   4.418  26.154 -0.1576  0.0767  0.0887
 1178BOLB   GL128251  25.004   4.452  26.075  0.2001 -0.4798  0.3023
 1178BOLB   GL228252  25.150   4.428  26.347 -0.1691  0.1845  0.0911
 1178BOLB   C1A28253  25.456   4.341  25.896 -0.2861  0.0095 -0.2375
 1178BOLB   C2A28254  25.914   4.272  25.985 -0.0771 -0.2040 -0.1483
 1178BOLB   C3A28255  26.303   4.139  26.269  0.0867 -0.0701 -0.0793
 1178BOLB   C4A28256  26.530   3.920  26.548  0.2060 -0.3465 -0.1171
 1178BOLB   C1B28257  25.400   4.055  26.360 -0.2539  0.5618  0.2541
 1178BOLB   C2B28258  25.583   3.842  26.020 -0.0608 -0.1100  0.2659
 1178BOLB   C3B28259  26.025   3.808  25.967 -0.0443 -0.1185 -0.1030
 1178BOLB   C4B28260  26.368   3.709  25.949 -0.3306  0.1722  0.0701
 1178BOLB   NC228261  29.003   3.954  26.533  0.3624 -0.1931  0.2108
 1178BOLB   PO228262  28.844   3.686  26.908 -0.0974 -0.0940  0.2894
 1178BOLB   GL328263  28.363   3.774  26.823 -0.2449  0.0998 -0.3990
 1178BOLB   GL428264  28.346   3.732  26.620 -0.1148 -0.0909  0.1204
 1178BOLB   C1C28265  28.075   3.999  26.963 -0.0500 -0.1303  0.1658
 1178BOLB   C2C28266  27.632   3.875  26.946  0.0757 -0.0820 -0.1335
 1178BOLB   C3C28267  27.226   3.905  26.832  0.5173 -0.1313  0.0408
 1178BOLB   C4C28268  26.937   3.864  26.569 -0.2299  0.0335  0.5468
 1178BOLB   C1D28269  27.925   3.673  26.620 -0.1774 -0.2866 -0.3160
 1178BOLB   C2D28270  27.546   3.475  26.505 -0.1360 -0.1269  0.3109
 1178BOLB   C3D28271  27.076   3.341  26.457  0.1083  0.1414 -0.1564
 1178BOLB   C4D28272  26.912   2.872  26.275 -0.1013  0.0777 -0.0207
 1179BOLB   NC128273  11.504   6.263  32.136  0.5961  0.0196  0.2407
 1179BOLB   PO128274  11.273   5.964  32.226 -0.2773  0.1056 -0.0360
 1179BOLB   GL128275  11.107   6.018  32.601 -0.2119  0.2789  0.3135
 1179BOLB   GL228276  11.112   5.746  32.741 -0.1465 -0.1961  0.0289
 1179BOLB   C1A28277  11.044   6.116  33.120 -0.0714 -0.0977 -0.0482
 1179BOLB   C2A28278  10.919   6.278  33.460 -0.1779 -0.2126 -0.0561
 1179BOLB   C3A28279  10.768   6.277  33.805  0.2679  0.2411 -0.3852
 1179BOLB   C4A28280  10.940   6.503  34.075 -0.1290  0.0635 -0.1278
 1179BOLB   C1B28281  10.694   5.716  32.918 -0.2071  0.1498  0.3547
 1179BOLB   C2B28282  10.584   5.907  33.296  0.2410  0.0761  0.0457
 1179BOLB   C3B28283  10.175   6.152  33.109 -0.0961 -0.0711  0.1625
 1179BOLB   C4B28284   9.757   6.321  33.210  0.0933  0.2547 -0.0982
 1179BOLB   NC228285  10.122   6.656  36.387  0.1868  0.0989  0.0070
 1179BOLB   PO228286  10.198   7.086  36.412  0.0647  0.0358 -0.2282
 1179BOLB   GL328287  10.483   6.997  36.118  0.1422 -0.1365 -0.1884
 1179BOLB   GL428288  10.831   7.028  36.138  0.4805 -0.0311 -0.3463
 1179BOLB   C1C28289  10.415   6.918  35.715 -0.3071  0.1359 -0.1138
 1179BOLB   C2C28290  10.679   6.662  35.303 -0.1765 -0.1623  0.0352
 1179BOLB   C3C28291  10.805   6.784  34.806 -0.1297  0.2180 -0.0515
 1179BOLB   C4C28292  10.930   6.761  34.383  0.2051  0.2490  0.2487
 1179BOLB   C1D28293  10.873   7.067  35.626  0.3203 -0.0193  0.0897
 1179BOLB   C2D28294  10.915   7.095  35.209  0.1253 -0.1317  0.0628
 1179BOLB   C3D28295  11.323   6.940  34.948  0.1826  0.2011  0.1788
 1179BOLB   C4D28296  11.554   7.049  34.551 -0.1220 -0.0336 -0.0773
 1180BOLB   NC128297  13.679  12.128  29.032  0.1262 -0.1055  0.1403
 1180BOLB   PO128298  14.035  12.036  28.814  0.0421  0.2780  0.1421
 1180BOLB   GL128299  13.993  12.476  28.895 -0.2478  0.1989 -0.4790
 1180BOLB   GL228300  14.053  12.593  29.252 -0.1506 -0.0667 -0.1652
 1180BOLB   C1A28301  13.829  12.885  28.778  0.1347  0.2833  0.1225
 1180BOLB   C2A28302  13.839  13.325  28.785  0.0473 -0.1978 -0.0832
 1180BOLB   C3A28303  13.803  13.788  28.956  0.0420  0.1424  0.2206
 1180BOLB   C4A28304  13.974  13.867  29.308  0.1522  0.1171  0.2434
 1180BOLB   C1B28305  13.784  12.889  29.276  0.0627 -0.1958  0.1721
 1180BOLB   C2B28306  13.890  13.350  29.356  0.1805  0.0987 -0.1661
 1180BOLB   C3B28307  14.257  13.516  29.116  0.0346 -0.0243 -0.0710
 1180BOLB   C4B28308  14.691  13.562  29.073 -0.1126 -0.1320 -0.2132
 1180BOLB   NC228309  14.627  16.129  29.842  0.0710  0.2475  0.1939
 1180BOLB   PO228310  14.603  15.769  30.098  0.2619 -0.2451 -0.0177
 1180BOLB   GL328311  14.296  15.422  30.016 -0.1885  0.1578  0.2491
 1180BOLB   GL428312  14.523  15.185  30.182  0.1329 -0.1566 -0.0215
 1180BOLB   C1C28313  13.931  15.142  29.841  0.1076 -0.1101 -0.1348
 1180BOLB   C2C28314  13.906  14.738  29.803 -0.0747  0.1418  0.2077
 1180BOLB   C3C28315  14.215  14.458  29.731  0.0051 -0.4091  0.1990
 1180BOLB   C4C28316  14.328  14.194  29.443  0.0142 -0.0386 -0.3214
 1180BOLB   C1D28317  14.383  14.873  29.920 -0.0792  0.2514 -0.0044
 1180BOLB   C2D28318  14.517  14.761  29.440  0.0837 -0.1950  0.0658
 1180BOLB   C3D28319  14.744  14.602  29.190  0.1452  0.1180 -0.0432
 1180BOLB   C4D28320  14.987  14.394  28.899 -0.0307 -0.0652  0.0699
 1181BOLB   NC128321  19.755   9.522  30.066  0.0921 -0.0258 -0.1144
 1181BOLB   PO128322  19.443   9.743  30.369 -0.1468  0.1886 -0.1226
 1181BOLB   GL128323  19.725  10.033  30.577  0.3438  0.1290 -0.0226
 1181BOLB   GL228324  19.938   9.957  30.734  0.1016  0.2208  0.2041
 1181BOLB   C1A28325  19.691  10.341  30.874  0.1465 -0.2105  0.2894
 1181BOLB   C2A28326  19.938  10.673  31.110  0.1107 -0.0395 -0.1162
 1181BOLB   C3A28327  20.214  10.920  31.376  0.1519 -0.0433  0.0958
 1181BOLB   C4A28328  20.480  11.362  31.570 -0.0439 -0.0852  0.0620
 1181BOLB   C1B28329  20.131  10.200  31.027 -0.0611  0.1320  0.1491
 1181BOLB   C2B28330  20.023  10.078  31.466  0.1253  0.0410 -0.3417
 1181BOLB   C3B28331  20.089  10.478  31.764 -0.2027  0.0598 -0.0516
 1181BOLB   C4B28332  20.367  10.760  31.952  0.0052  0.0148  0.2685
 1181BOLB   NC228333  21.381  13.322  32.839  0.3410 -0.0245 -0.0504
 1181BOLB   PO228334  21.557  13.006  32.541  0.2174  0.2172  0.0280
 1181BOLB   GL328335  21.606  12.637  32.281  0.1491  0.0202  0.0950
 1181BOLB   GL428336  21.368  12.389  32.415 -0.0675  0.1232  0.0010
 1181BOLB   C1C28337  21.680  12.321  32.076 -0.2990 -0.0211  0.2364
 1181BOLB   C2C28338  21.488  12.091  31.885  0.3185  0.3364  0.0652
 1181BOLB   C3C28339  21.101  11.820  31.743 -0.1124  0.1932  0.2109
 1181BOLB   C4C28340  20.815  11.727  31.498 -0.1368  0.1753 -0.0544
 1181BOLB   C1D28341  21.111  12.504  32.110  0.2505  0.1559  0.1332
 1181BOLB   C2D28342  20.947  12.335  31.698  0.0755  0.1459 -0.0236
 1181BOLB   C3D28343  20.923  12.246  31.339 -0.0373 -0.1065 -0.3345
 1181BOLB   C4D28344  20.709  11.994  31.112 -0.1001 -0.1529  0.0714
 1182BOLB   NC128345  10.785   0.250  18.913 -0.3433 -0.1041  0.1760
 1182BOLB   PO128346  10.450   0.118  19.193 -0.0586 -0.2465 -0.0161
 1182BOLB   GL128347  10.259  -0.143  19.070 -0.2698  0.0396  0.0271
 1182BOLB   GL228348  10.061  -0.274  19.317 -0.2237 -0.2428 -0.0430
 1182BOLB   C1A28349   9.946  -0.487  18.823 -0.3879  0.2228  0.1602
 1182BOLB   C2A28350   9.476  -0.701  18.650  0.0814 -0.1697 -0.0099
 1182BOLB   C3A28351   9.161  -0.880  18.484  0.2260 -0.0413  0.0019
 1182BOLB   C4A28352   9.028  -1.290  18.434 -0.0168  0.3296 -0.0130
 1182BOLB   C1B28353   9.713  -0.250  19.217  0.0077 -0.1416 -0.0630
 1182BOLB   C2B28354   9.378  -0.271  18.947 -0.0873 -0.4099  0.1218
 1182BOLB   C3B28355   8.968  -0.424  18.720 -0.0109 -0.2948 -0.4355
 1182BOLB   C4B28356   8.742  -0.339  18.350 -0.1176  0.3144  0.0140
 1182BOLB   NC228357   7.430  -2.610  17.937  0.0883  0.0556  0.1756
 1182BOLB   PO228358   7.772  -2.740  17.839 -0.1808  0.1825  0.0718
 1182BOLB   GL328359   8.067  -2.559  18.058  0.0121 -0.1042 -0.0938
 1182BOLB   GL428360   7.992  -2.237  18.202 -0.1949  0.3356 -0.1464
 1182BOLB   C1C28361   8.548  -2.665  18.223  0.1488  0.0306  0.4203
 1182BOLB   C2C28362   8.966  -2.412  18.197 -0.0113 -0.3700 -0.0093
 1182BOLB   C3C28363   9.176  -2.061  18.391  0.0748  0.0811 -0.2252
 1182BOLB   C4C28364   9.078  -1.636  18.157  0.0937  0.2206 -0.2117
 1182BOLB   C1D28365   8.339  -2.247  18.351 -0.3751  0.0952  0.1226
 1182BOLB   C2D28366   8.752  -2.225  18.623  0.0449 -0.1212  0.3442
 1182BOLB   C3D28367   8.852  -2.426  18.882  0.0474 -0.3692  0.0328
 1182BOLB   C4D28368   8.718  -2.369  19.367  0.2098 -0.0742  0.0323
 1183BOLB   NC128369  12.231  -3.568  20.863  0.4017 -0.1616 -0.1915
 1183BOLB   PO128370  12.597  -3.790  20.909  0.1053  0.2355  0.0465
 1183BOLB   GL128371  12.334  -4.012  20.660  0.3072 -0.0596  0.0319
 1183BOLB   GL228372  12.516  -4.210  20.414 -0.1146 -0.0770 -0.0798
 1183BOLB   C1A28373  11.990  -4.237  20.618  0.2735 -0.1328  0.1526
 1183BOLB   C2A28374  12.011  -4.670  20.445 -0.0801 -0.0036 -0.2281
 1183BOLB   C3A28375  11.884  -4.864  19.963  0.3157  0.1588  0.2663
 1183BOLB   C4A28376  11.572  -5.250  19.771 -0.1641  0.1567  0.1848
 1183BOLB   C1B28377  12.244  -4.245  20.153 -0.1233 -0.0110 -0.0274
 1183BOLB   C2B28378  11.745  -4.384  20.055  0.2886 -0.0026 -0.0237
 1183BOLB   C3B28379  11.370  -4.353  19.700  0.1557 -0.0004  0.3712
 1183BOLB   C4B28380  11.179  -4.201  19.348 -0.0306  0.4899 -0.1592
 1183BOLB   NC228381  10.834  -7.657  19.521  0.0359 -0.0035 -0.2765
 1183BOLB   PO228382  10.783  -7.421  19.177 -0.1497 -0.0415  0.1591
 1183BOLB   GL328383  10.979  -7.138  19.418  0.1141  0.1318  0.0823
 1183BOLB   GL428384  10.736  -7.161  19.648  0.1335  0.1222 -0.1004
 1183BOLB   C1C28385  10.983  -6.728  19.591 -0.2108  0.1983 -0.1495
 1183BOLB   C2C28386  10.872  -6.381  19.733  0.0268 -0.2354 -0.0814
 1183BOLB   C3C28387  11.014  -5.934  19.733  0.1946  0.0228 -0.2422
 1183BOLB   C4C28388  11.185  -5.490  19.770 -0.1787  0.0743 -0.3555
 1183BOLB   C1D28389  10.962  -7.066  20.096  0.2443 -0.0192 -0.3099
 1183BOLB   C2D28390  10.944  -6.878  20.522 -0.1985 -0.2620  0.2573
 1183BOLB   C3D28391  11.201  -6.436  20.599 -0.0736  0.1169  0.0684
 1183BOLB   C4D28392  11.236  -6.042  20.726 -0.2012 -0.1980 -0.0785
 1184BOLB   NC128393  13.751   1.316  16.333  0.0096 -0.0618  0.1109
 1184BOLB   PO128394  13.584   0.887  16.355 -0.1752 -0.0475  0.0509
 1184BOLB   GL128395  13.591   0.835  15.956 -0.2788 -0.3946 -0.2159
 1184BOLB   GL228396  13.572   1.139  15.865 -0.0722  0.0053  0.3122
 1184BOLB   C1A28397  13.422   0.605  15.679 -0.2274 -0.0731  0.2548
 1184BOLB   C2A28398  13.130   0.651  15.236 -0.0680 -0.2918 -0.0322
 1184BOLB   C3A28399  12.735   0.576  15.057  0.0876 -0.1497 -0.0487
 1184BOLB   C4A28400  12.471   0.413  14.816  0.3526 -0.3518  0.1790
 1184BOLB   C1B28401  13.354   1.102  15.493 -0.0979  0.0838  0.1035
 1184BOLB   C2B28402  13.339   1.098  15.037 -0.1258 -0.0893  0.1063
 1184BOLB   C3B28403  13.046   1.179  14.776 -0.3092 -0.0566 -0.0238
 1184BOLB   C4B28404  12.761   1.186  14.432 -0.4099 -0.2445 -0.0501
 1184BOLB   NC228405  12.428   0.286  12.574  0.0890  0.0737  0.0515
 1184BOLB   PO228406  12.243   0.598  12.484 -0.0624 -0.0073  0.1542
 1184BOLB   GL328407  12.089   0.674  12.924 -0.0075 -0.1278 -0.1387
 1184BOLB   GL428408  12.186   0.422  13.096 -0.2300 -0.0057  0.0102
 1184BOLB   C1C28409  12.199   0.842  13.358 -0.2443 -0.0731  0.1572
 1184BOLB   C2C28410  12.154   0.831  13.735 -0.0764 -0.1985 -0.3244
 1184BOLB   C3C28411  12.102   0.696  14.172  0.0073 -0.0178 -0.0916
 1184BOLB   C4C28412  12.219   0.383  14.525 -0.2766  0.1076  0.1436
 1184BOLB   C1D28413  12.554   0.419  13.434 -0.1374  0.1285 -0.0554
 1184BOLB   C2D28414  12.644   0.767  13.699 -0.0468  0.3177 -0.1041
 1184BOLB   C3D28415  12.535   0.933  14.051  0.1668  0.0570 -0.1237
 1184BOLB   C4D28416  12.135   1.185  14.145  0.0812 -0.0398  0.0373
 1185BOLB   NC128417  22.087   9.964  26.215 -0.1070  0.3346 -0.1253
 1185BOLB   PO128418  21.914  10.423  26.206 -0.0299  0.0021 -0.4062
 1185BOLB   GL128419  22.081  10.793  26.242 -0.2084  0.1075 -0.0421
 1185BOLB   GL228420  21.824  10.972  26.402  0.3655 -0.1038 -0.3762
 1185BOLB   C1A28421  22.286  11.141  26.380  0.0587  0.0727 -0.2377
 1185BOLB   C2A28422  22.281  11.472  26.498 -0.1301 -0.2630  0.0906
 1185BOLB   C3A28423  22.487  11.730  26.827  0.0990 -0.3542  0.0029
 1185BOLB   C4A28424  22.747  11.834  27.186  0.2720  0.1290  0.0642
 1185BOLB   C1B28425  21.820  11.344  26.512  0.0259 -0.2139 -0.1140
 1185BOLB   C2B28426  21.896  11.652  26.795  0.0610  0.0551 -0.3935
 1185BOLB   C3B28427  21.933  12.068  27.020 -0.1105 -0.2361 -0.1078
 1185BOLB   C4B28428  21.759  12.539  26.960 -0.2665 -0.0059 -0.0195
 1185BOLB   NC228429  23.906  13.855  28.358 -0.2927  0.0592 -0.2843
 1185BOLB   PO228430  24.237  13.620  28.110 -0.1605  0.0809 -0.0948
 1185BOLB   GL328431  23.981  13.275  28.038  0.0946 -0.1246 -0.2574
 1185BOLB   GL428432  24.300  12.951  28.152 -0.0749 -0.1980 -0.0329
 1185BOLB   C1C28433  23.672  13.037  28.069  0.0833 -0.1403  0.0900
 1185BOLB   C2C28434  23.501  12.589  27.876  0.0612 -0.1312 -0.0885
 1185BOLB   C3C28435  23.489  12.222  27.680 -0.1656 -0.0458 -0.2392
 1185BOLB   C4C28436  23.174  11.997  27.422  0.1339 -0.0672  0.1823
 1185BOLB   C1D28437  24.090  12.682  27.953  0.2421 -0.1511 -0.0790
 1185BOLB   C2D28438  23.922  12.308  27.939  0.1978 -0.3051  0.1927
 1185BOLB   C3D28439  23.575  12.184  28.176 -0.2244 -0.2234  0.3212
 1185BOLB   C4D28440  23.289  11.850  28.219  0.1073 -0.1289 -0.2056
 1186BOLB   NC128441  14.849  -3.050  18.053  0.0544 -0.1218 -0.0700
 1186BOLB   PO128442  15.129  -2.732  17.916 -0.7073  0.0575  0.0664
 1186BOLB   GL128443  15.162  -3.058  17.678 -0.0085 -0.0342 -0.0012
 1186BOLB   GL228444  15.497  -3.283  17.645  0.4287  0.0883 -0.1386
 1186BOLB   C1A28445  14.998  -3.387  17.492 -0.0690  0.2735  0.0059
 1186BOLB   C2A28446  14.955  -3.885  17.278  0.0225 -0.0289  0.1580
 1186BOLB   C3A28447  14.721  -4.086  16.961  0.0611  0.0003 -0.1929
 1186BOLB   C4A28448  14.664  -4.244  16.576  0.0920 -0.1489  0.1663
 1186BOLB   C1B28449  15.490  -3.407  17.264  0.2027 -0.2793  0.0350
 1186BOLB   C2B28450  15.318  -3.653  16.937 -0.0822 -0.1766  0.1174
 1186BOLB   C3B28451  15.245  -4.062  16.849 -0.0465 -0.2546  0.1007
 1186BOLB   C4B28452  15.079  -4.497  16.810 -0.0861  0.1381  0.1546
 1186BOLB   NC228453  13.297  -5.014  14.615  0.2622 -0.1885  0.1827
 1186BOLB   PO228454  13.063  -5.000  14.997  0.1994  0.1427 -0.0929
 1186BOLB   GL328455  13.330  -4.925  15.351 -0.3732 -0.0237 -0.0704
 1186BOLB   GL428456  13.307  -5.125  15.685 -0.2632 -0.2337  0.1623
 1186BOLB   C1C28457  13.601  -4.695  15.590  0.1049  0.1410  0.1437
 1186BOLB   C2C28458  13.786  -4.695  15.945  0.1841  0.1548  0.0818
 1186BOLB   C3C28459  14.113  -4.457  16.098  0.0627  0.0795  0.0747
 1186BOLB   C4C28460  14.461  -4.543  16.455  0.2982 -0.2199  0.0112
 1186BOLB   C1D28461  13.204  -4.822  15.954 -0.2615  0.0486 -0.0386
 1186BOLB   C2D28462  13.460  -4.443  16.192 -0.0794  0.1338 -0.0118
 1186BOLB   C3D28463  13.852  -4.371  16.503 -0.2634 -0.1942 -0.0926
 1186BOLB   C4D28464  14.225  -4.220  16.809  0.1390 -0.0642 -0.1808
 1187BOLB   NC128465  10.240   5.531  31.650 -0.0653 -0.1750  0.0163
 1187BOLB   PO128466  10.084   5.859  31.496 -0.1613  0.2331 -0.1849
 1187BOLB   GL128467   9.835   5.763  31.911  0.1503  0.0802  0.3137
 1187BOLB   GL228468   9.712   6.059  32.005 -0.0596  0.1521  0.1238
 1187BOLB   C1A28469   9.598   5.649  32.300 -0.1132 -0.2559 -0.3679
 1187BOLB   C2A28470   9.310   5.599  32.636 -0.0598  0.0762 -0.1492
 1187BOLB   C3A28471   9.048   5.474  32.993 -0.1208  0.0991  0.2494
 1187BOLB   C4A28472   8.693   5.281  33.251 -0.0763 -0.0188  0.3256
 1187BOLB   C1B28473   9.333   5.931  32.017  0.0057  0.1732  0.2763
 1187BOLB   C2B28474   9.015   5.792  32.291  0.0496  0.2234 -0.2664
 1187BOLB   C3B28475   8.737   5.696  32.575 -0.2496 -0.1892 -0.0050
 1187BOLB   C4B28476   8.386   5.813  32.543  0.1776 -0.0015  0.4187
 1187BOLB   NC228477   8.265   4.089  35.286 -0.0379 -0.0056  0.0217
 1187BOLB   PO228478   8.234   4.434  35.136 -0.0682 -0.4060 -0.2327
 1187BOLB   GL328479   8.302   4.534  34.685  0.0310 -0.2256 -0.0529
 1187BOLB   GL428480   8.394   4.117  34.767  0.2558  0.1506 -0.2976
 1187BOLB   C1C28481   8.178   4.792  34.372 -0.1449  0.0347  0.0071
 1187BOLB   C2C28482   7.992   4.887  34.010  0.2399  0.2631 -0.0927
 1187BOLB   C3C28483   8.061   5.045  33.628 -0.3213  0.0219  0.0092
 1187BOLB   C4C28484   8.282   5.266  33.412 -0.1407 -0.0668  0.1113
 1187BOLB   C1D28485   8.648   4.344  34.411  0.2072  0.2840  0.1186
 1187BOLB   C2D28486   8.615   4.724  34.134 -0.3754  0.1048  0.0692
 1187BOLB   C3D28487   8.429   5.088  33.951 -0.3881 -0.1316 -0.0507
 1187BOLB   C4D28488   8.397   5.464  33.827 -0.2669  0.2684 -0.4021
 1188BOLB   NC128489  21.090  10.282  25.365 -0.2221  0.2036 -0.0149
 1188BOLB   PO128490  21.048  10.729  25.157 -0.0029 -0.0731  0.1181
 1188BOLB   GL128491  21.198  11.055  25.288  0.0410  0.2603  0.1365
 1188BOLB   GL228492  20.998  11.248  25.350  0.0972  0.0042  0.2785
 1188BOLB   C1A28493  21.499  11.425  25.243  0.0143  0.1275 -0.0949
 1188BOLB   C2A28494  21.792  11.727  25.149 -0.0304  0.0578  0.1503
 1188BOLB   C3A28495  22.043  12.152  25.160  0.1974  0.1313  0.0115
 1188BOLB   C4A28496  21.909  12.520  25.039 -0.0759  0.0558  0.2812
 1188BOLB   C1B28497  21.075  11.632  25.453 -0.1138 -0.1404  0.0007
 1188BOLB   C2B28498  21.175  12.069  25.546  0.0073 -0.1939  0.0698
 1188BOLB   C3B28499  21.024  12.516  25.381 -0.1456  0.2636  0.1353
 1188BOLB   C4B28500  21.034  12.940  25.316  0.3058 -0.1114 -0.1044
 1188BOLB   NC228501  22.550  14.823  23.570  0.1695 -0.2181 -0.0442
 1188BOLB   PO228502  22.659  14.542  23.944  0.2217  0.0568 -0.0248
 1188BOLB   GL328503  22.531  14.017  23.902 -0.0090 -0.2457 -0.0992
 1188BOLB   GL428504  22.324  13.877  23.661 -0.0785 -0.1482  0.0869
 1188BOLB   C1C28505  22.576  13.687  24.042 -0.1118 -0.2089  0.1311
 1188BOLB   C2C28506  22.417  13.313  24.162 -0.2456  0.0077 -0.2014
 1188BOLB   C3C28507  22.110  13.126  24.421 -0.0161 -0.1146  0.0629
 1188BOLB   C4C28508  22.103  12.772  24.832 -0.1665  0.2759  0.1696
 1188BOLB   C1D28509  22.042  13.608  23.419 -0.2729  0.0218  0.4694
 1188BOLB   C2D28510  21.588  13.625  23.593 -0.1855 -0.1158 -0.1297
 1188BOLB   C3D28511  21.222  13.836  23.901 -0.0489 -0.0432 -0.0845
 1188BOLB   C4D28512  21.148  14.142  24.210 -0.1197 -0.2284  0.2043
 1189BOLB   NC128513  25.642   5.467  33.710  0.2756  0.1436  0.2232
 1189BOLB   PO128514  25.917   5.102  33.745  0.1145  0.1968  0.2860
 1189BOLB   GL128515  25.689   5.110  33.417 -0.0432 -0.0313 -0.0242
 1189BOLB   GL228516  25.369   5.040  33.549 -0.1425 -0.0375  0.1142
 1189BOLB   C1A28517  25.427   5.111  32.994  0.1659  0.5140  0.1815
 1189BOLB   C2A28518  25.076   5.043  32.770  0.0676 -0.0340  0.1178
 1189BOLB   C3A28519  24.905   4.746  32.513 -0.0011  0.0922 -0.0934
 1189BOLB   C4A28520  24.893   4.768  32.103  0.2142  0.4969  0.0454
 1189BOLB   C1B28521  25.086   4.752  33.247  0.0819  0.0869  0.0136
 1189BOLB   C2B28522  24.833   4.617  32.996 -0.0379 -0.0627 -0.1771
 1189BOLB   C3B28523  24.459   4.503  32.718 -0.2623  0.2030  0.1848
 1189BOLB   C4B28524  24.201   4.832  32.531  0.0763 -0.0837  0.1192
 1189BOLB   NC228525  26.974   4.474  32.560 -0.2304 -0.0526  0.0604
 1189BOLB   PO228526  27.155   4.148  32.347  0.1209 -0.2557  0.1186
 1189BOLB   GL328527  26.850   4.225  32.050  0.0637  0.0783 -0.1186
 1189BOLB   GL428528  26.806   4.061  31.765 -0.0641 -0.1574  0.0025
 1189BOLB   C1C28529  26.469   4.422  31.836 -0.0100  0.3123  0.0567
 1189BOLB   C2C28530  26.033   4.573  31.669 -0.0397  0.2299  0.2824
 1189BOLB   C3C28531  25.607   4.603  31.714 -0.3386  0.1592 -0.0363
 1189BOLB   C4C28532  25.253   4.811  31.921  0.0229 -0.1768 -0.4587
 1189BOLB   C1D28533  26.696   3.842  31.420 -0.0657 -0.2732 -0.0847
 1189BOLB   C2D28534  26.727   3.467  31.296  0.1128  0.2840  0.1138
 1189BOLB   C3D28535  26.410   3.260  31.035  0.4129 -0.1986 -0.2888
 1189BOLB   C4D28536  26.142   2.912  30.933  0.0941 -0.1087 -0.0259
 1190BOLB   NC128537  23.978   0.252  24.602  0.4598  0.2411  0.2799
 1190BOLB   PO128538  23.974   0.507  24.129  0.1918 -0.0972  0.0942
 1190BOLB   GL128539  24.275   0.564  23.796  0.0001  0.2105  0.3803
 1190BOLB   GL228540  24.520   0.801  23.873  0.1646 -0.3423 -0.1196
 1190BOLB   C1A28541  24.715   0.460  23.415  0.1468 -0.3969 -0.2666
 1190BOLB   C2A28542  25.148   0.461  23.431 -0.4445 -0.0750 -0.0419
 1190BOLB   C3A28543  25.462   0.090  23.493  0.1595 -0.2165 -0.1270
 1190BOLB   C4A28544  25.724  -0.274  23.638  0.2151 -0.0064 -0.0709
 1190BOLB   C1B28545  24.759   0.431  23.889  0.2259 -0.1010 -0.1429
 1190BOLB   C2B28546  25.107   0.087  23.814 -0.1984  0.0552  0.1699
 1190BOLB   C3B28547  25.188  -0.307  23.926 -0.1413  0.1397  0.0636
 1190BOLB   C4B28548  25.480  -0.606  24.010  0.1741  0.1291  0.2409
 1190BOLB   NC228549  27.008  -2.741  23.380  0.0874 -0.2185  0.1195
 1190BOLB   PO228550  27.022  -2.407  23.029  0.2220 -0.2530 -0.3044
 1190BOLB   GL328551  26.814  -2.247  23.416  0.0472 -0.0040  0.1076
 1190BOLB   GL428552  26.557  -2.378  23.361 -0.1632  0.0941 -0.0992
 1190BOLB   C1C28553  26.776  -1.937  23.715  0.4081  0.2537  0.2434
 1190BOLB   C2C28554  26.516  -1.460  23.679 -0.2047 -0.0653 -0.0270
 1190BOLB   C3C28555  26.241  -1.064  23.616  0.0167  0.0677 -0.2899
 1190BOLB   C4C28556  25.845  -0.773  23.708  0.2579  0.3780  0.1937
 1190BOLB   C1D28557  26.313  -1.940  23.493 -0.2926 -0.1231  0.2271
 1190BOLB   C2D28558  26.149  -1.751  23.869 -0.1570  0.2243  0.0808
 1190BOLB   C3D28559  25.936  -1.387  23.938 -0.1826 -0.1388 -0.0772
 1190BOLB   C4D28560  25.652  -1.065  24.049 -0.0279  0.0193  0.0626
 1191BOLB   NC128561  16.690   2.992  16.276 -0.0601  0.2482  0.0176
 1191BOLB   PO128562  16.923   2.651  16.280  0.2689 -0.0061 -0.3046
 1191BOLB   GL128563  16.883   2.688  15.836  0.2089  0.2146  0.3166
 1191BOLB   GL228564  17.016   2.280  15.837  0.0914 -0.2219  0.1724
 1191BOLB   C1A28565  16.850   2.601  15.343  0.1147  0.2505  0.0208
 1191BOLB   C2A28566  17.004   2.386  14.996 -0.1854 -0.1608  0.1340
 1191BOLB   C3A28567  17.023   2.245  14.617 -0.1897 -0.0268 -0.0030
 1191BOLB   C4A28568  17.349   2.387  14.338 -0.2073  0.0109 -0.1533
 1191BOLB   C1B28569  17.387   2.313  15.711  0.4042  0.0207 -0.0162
 1191BOLB   C2B28570  17.539   2.365  15.312  0.0198 -0.2144 -0.0630
 1191BOLB   C3B28571  17.475   2.361  14.843  0.0957 -0.1167 -0.0863
 1191BOLB   C4B28572  17.551   1.956  14.726 -0.1790 -0.2328  0.0772
 1191BOLB   NC228573  17.412   4.090  11.811  0.1254 -0.0753  0.0331
 1191BOLB   PO228574  17.411   3.721  12.150  0.0899  0.1804  0.1119
 1191BOLB   GL328575  17.455   3.797  12.683  0.0365 -0.1151 -0.1176
 1191BOLB   GL428576  17.855   3.856  12.644  0.0253 -0.1736 -0.1542
 1191BOLB   C1C28577  17.416   3.686  13.115 -0.1616 -0.0271 -0.0422
 1191BOLB   C2C28578  17.341   3.287  13.403 -0.1140 -0.1410  0.1778
 1191BOLB   C3C28579  17.517   3.046  13.717 -0.0493 -0.1097  0.0602
 1191BOLB   C4C28580  17.343   2.757  14.071  0.0648 -0.0870  0.4603
 1191BOLB   C1D28581  17.672   4.159  12.953  0.2682 -0.0282  0.1629
 1191BOLB   C2D28582  17.835   4.057  13.466  0.1556  0.0306 -0.2452
 1191BOLB   C3D28583  17.922   4.064  13.840 -0.2385  0.3583 -0.4040
 1191BOLB   C4D28584  18.089   4.354  14.090  0.1152  0.1969  0.0332
 1192BOLB   NC128585   9.830   2.264  18.946  0.1340  0.2322 -0.2660
 1192BOLB   PO128586   9.864   1.904  18.643 -0.1043  0.0178 -0.3159
 1192BOLB   GL128587   9.693   2.120  18.400  0.0246 -0.1457 -0.1566
 1192BOLB   GL228588   9.339   1.982  18.206 -0.1233  0.1066 -0.0389
 1192BOLB   C1A28589   9.370   2.397  18.493 -0.0781 -0.2226 -0.0845
 1192BOLB   C2A28590   9.104   2.542  18.152 -0.2400  0.4368  0.0168
 1192BOLB   C3A28591   8.755   2.380  18.058  0.3602 -0.2228 -0.0675
 1192BOLB   C4A28592   8.484   2.158  18.165 -0.0250 -0.0120 -0.0765
 1192BOLB   C1B28593   9.302   1.930  17.733 -0.2402  0.2657 -0.1911
 1192BOLB   C2B28594   9.225   1.780  17.237  0.0579  0.2253 -0.2897
 1192BOLB   C3B28595   9.263   1.528  16.864  0.0367 -0.0733 -0.2678
 1192BOLB   C4B28596   9.360   1.292  16.498 -0.1113  0.0473  0.3913
 1192BOLB   NC228597   6.432   1.692  16.295  0.1141 -0.0144 -0.4426
 1192BOLB   PO228598   6.863   1.490  16.339 -0.0335  0.3181 -0.1109
 1192BOLB   GL328599   7.069   1.607  16.717 -0.0373 -0.2801 -0.1727
 1192BOLB   GL428600   7.053   1.931  16.813  0.2559 -0.3485 -0.0082
 1192BOLB   C1C28601   7.480   1.697  16.945  0.0838 -0.3083 -0.3209
 1192BOLB   C2C28602   7.689   1.787  17.357 -0.1575 -0.3488  0.0901
 1192BOLB   C3C28603   7.838   1.906  17.711  0.2965  0.0523 -0.1139
 1192BOLB   C4C28604   8.099   2.057  17.999 -0.2179 -0.0602  0.2722
 1192BOLB   C1D28605   7.088   1.933  17.225 -0.0311  0.1361  0.1825
 1192BOLB   C2D28606   7.190   1.814  17.596 -0.0364 -0.0750 -0.3295
 1192BOLB   C3D28607   7.418   1.965  17.997  0.0410 -0.1728 -0.0974
 1192BOLB   C4D28608   7.681   2.122  18.290 -0.2879  0.1110  0.3541
 1193BOLB   NC128609  15.724   0.632  32.322  0.0986  0.1342  0.1487
 1193BOLB   PO128610  15.279   0.639  32.504  0.0257 -0.0667  0.3622
 1193BOLB   GL128611  15.561   0.402  32.773  0.3500 -0.0516 -0.0806
 1193BOLB   GL228612  15.819   0.065  32.650  0.3521  0.2385 -0.2523
 1193BOLB   C1A28613  15.404   0.085  33.069  0.0422  0.0691 -0.0324
 1193BOLB   C2A28614  15.168  -0.130  33.259 -0.4161  0.1367  0.2296
 1193BOLB   C3A28615  15.228  -0.524  33.387  0.0840  0.1134 -0.0814
 1193BOLB   C4A28616  15.439  -0.820  33.674  0.1734 -0.1892 -0.0152
 1193BOLB   C1B28617  15.829  -0.103  33.008  0.1800 -0.1283 -0.0295
 1193BOLB   C2B28618  15.730  -0.115  33.400 -0.1617  0.0465  0.2644
 1193BOLB   C3B28619  15.615  -0.341  33.758 -0.1159  0.0591 -0.0651
 1193BOLB   C4B28620  15.914  -0.468  34.075 -0.2136 -0.1060  0.3609
 1193BOLB   NC228621  16.027  -1.684  36.050 -0.0323 -0.0663 -0.1573
 1193BOLB   PO228622  16.375  -1.693  35.761  0.2090 -0.0226 -0.0554
 1193BOLB   GL328623  16.589  -1.494  35.350  0.1330 -0.0895  0.3505
 1193BOLB   GL428624  16.556  -1.883  35.184  0.1294 -0.2928 -0.0135
 1193BOLB   C1C28625  16.601  -1.152  34.870 -0.2932  0.4708 -0.5299
 1193BOLB   C2C28626  16.338  -1.137  34.619  0.0207 -0.1053 -0.0381
 1193BOLB   C3C28627  16.193  -1.145  34.220  0.0174 -0.0098  0.1387
 1193BOLB   C4C28628  15.817  -0.950  33.983  0.3713 -0.3126  0.4424
 1193BOLB   C1D28629  16.388  -1.710  34.816  0.0091 -0.0690  0.1823
 1193BOLB   C2D28630  16.499  -1.600  34.338  0.1697 -0.0246 -0.1068
 1193BOLB   C3D28631  16.417  -1.751  33.920  0.2262 -0.6009  0.4349
 1193BOLB   C4D28632  16.310  -2.104  33.633  0.0090 -0.2043 -0.1426
 1194BOLB   NC128633  14.915  -3.531  28.091  0.3802  0.1996 -0.1496
 1194BOLB   PO128634  15.329  -3.319  28.196  0.0907  0.1729  0.1267
 1194BOLB   GL128635  15.273  -3.783  28.358  0.0051  0.1522 -0.0939
 1194BOLB   GL228636  15.436  -3.908  28.105 -0.1977  0.0204 -0.2001
 1194BOLB   C1A28637  14.979  -4.134  28.562  0.2416 -0.3162 -0.2281
 1194BOLB   C2A28638  14.721  -4.502  28.727  0.0448  0.0367 -0.1386
 1194BOLB   C3A28639  14.434  -4.873  28.783 -0.0451  0.3530 -0.1115
 1194BOLB   C4A28640  14.243  -5.164  29.105 -0.3757 -0.1624  0.1509
 1194BOLB   C1B28641  15.455  -4.304  28.430 -0.3751  0.0281  0.2880
 1194BOLB   C2B28642  15.287  -4.418  28.825 -0.2254 -0.0273  0.0636
 1194BOLB   C3B28643  15.421  -4.591  29.182  0.0060  0.2306 -0.0518
 1194BOLB   C4B28644  15.212  -4.894  29.487  0.0044  0.0429 -0.1278
 1194BOLB   NC228645  15.134  -6.518  30.644  0.0728 -0.0290 -0.0563
 1194BOLB   PO228646  15.415  -6.678  30.288 -0.3012  0.3520  0.0373
 1194BOLB   GL328647  15.239  -6.400  30.100  0.1063  0.0587  0.0110
 1194BOLB   GL428648  15.392  -6.085  30.134  0.0578 -0.2822 -0.2314
 1194BOLB   C1C28649  14.964  -6.336  29.958  0.0063  0.4648  0.2295
 1194BOLB   C2C28650  14.608  -6.118  29.708  0.2076  0.0534 -0.1939
 1194BOLB   C3C28651  14.295  -5.809  29.658 -0.0902  0.1626  0.1441
 1194BOLB   C4C28652  14.187  -5.445  29.438  0.0904  0.1430  0.2474
 1194BOLB   C1D28653  15.740  -5.812  30.138  0.0295  0.1437 -0.0123
 1194BOLB   C2D28654  15.973  -5.604  29.903 -0.2038 -0.0952  0.1823
 1194BOLB   C3D28655  16.266  -5.410  29.696  0.0544 -0.1886  0.0515
 1194BOLB   C4D28656  16.490  -5.361  29.332 -0.0238  0.1887 -0.0013
 1195BOLB   NC128657  18.625   3.385  16.225  0.1112 -0.0249  0.2022
 1195BOLB   PO128658  18.519   3.656  15.963  0.0065 -0.1593 -0.0796
 1195BOLB   GL128659  18.468   3.912  15.623 -0.1278  0.1490 -0.1176
 1195BOLB   GL228660  18.335   4.214  15.593  0.1359 -0.1522 -0.0758
 1195BOLB   C1A28661  18.453   3.767  15.170  0.0218 -0.2815 -0.0856
 1195BOLB   C2A28662  18.617   3.911  14.895 -0.1977  0.2533 -0.0861
 1195BOLB   C3A28663  18.762   4.272  14.737 -0.1690  0.0181  0.2058
 1195BOLB   C4A28664  19.162   4.433  14.508  0.0573  0.0349  0.0400
 1195BOLB   C1B28665  18.457   4.448  15.276 -0.1631 -0.2687  0.1615
 1195BOLB   C2B28666  18.486   4.702  14.908  0.0437  0.1876  0.0509
 1195BOLB   C3B28667  18.259   4.634  14.482 -0.3125 -0.1466 -0.0317
 1195BOLB   C4B28668  17.852   4.666  14.386 -0.2731 -0.0193  0.0098
 1195BOLB   NC228669  19.715   5.516  12.534  0.1926 -0.1753 -0.0744
 1195BOLB   PO228670  20.187   5.530  12.762  0.0261 -0.1492 -0.1014
 1195BOLB   GL328671  19.965   5.484  13.133 -0.0221 -0.0796  0.0073
 1195BOLB   GL428672  20.148   5.415  13.404 -0.1272  0.1355 -0.0149
 1195BOLB   C1C28673  19.698   5.232  13.482  0.2489  0.1369  0.2452
 1195BOLB   C2C28674  19.612   4.875  13.748 -0.0649  0.0882  0.3189
 1195BOLB   C3C28675  19.705   4.502  13.973  0.2747 -0.0745  0.1293
 1195BOLB   C4C28676  19.532   4.263  14.276 -0.0442 -0.3015 -0.2859
 1195BOLB   C1D28677  20.085   5.509  13.852  0.3186  0.2117 -0.3719
 1195BOLB   C2D28678  19.763   5.310  14.075 -0.1351 -0.1830  0.1899
 1195BOLB   C3D28679  19.710   5.089  14.300  0.1106  0.0197 -0.1180
 1195BOLB   C4D28680  19.634   4.716  14.480 -0.3142 -0.0560 -0.2633
 1196BOLB   NC128681   9.910  -0.095  29.933  0.1315 -0.1863 -0.1241
 1196BOLB   PO128682  10.192  -0.399  29.728  0.2415 -0.0108  0.2490
 1196BOLB   GL128683  10.004  -0.660  30.044 -0.1429 -0.2423  0.3198
 1196BOLB   GL228684   9.690  -0.487  30.112 -0.1271 -0.1360  0.0628
 1196BOLB   C1A28685  10.057  -1.104  30.092 -0.2406 -0.0036 -0.1711
 1196BOLB   C2A28686   9.651  -1.433  30.075 -0.1072  0.1757  0.0688
 1196BOLB   C3A28687   9.362  -1.704  29.972 -0.0849 -0.1579 -0.0426
 1196BOLB   C4A28688   9.147  -1.985  30.090  0.0650 -0.0841 -0.0371
 1196BOLB   C1B28689   9.381  -0.631  30.325 -0.0056  0.0856 -0.0092
 1196BOLB   C2B28690   9.274  -0.965  30.567  0.0448  0.0923  0.3632
 1196BOLB   C3B28691   9.129  -1.268  30.914  0.2291  0.1956 -0.0705
 1196BOLB   C4B28692   8.959  -1.660  31.187  0.2811 -0.3732 -0.2502
 1196BOLB   NC228693   9.372  -3.766  32.224 -0.0740  0.2575 -0.0571
 1196BOLB   PO228694   9.392  -3.782  31.746  0.0744  0.1645  0.0443
 1196BOLB   GL328695   9.519  -3.541  31.401  0.1122  0.3390 -0.0234
 1196BOLB   GL428696   9.183  -3.368  31.420  0.2233  0.1797 -0.0613
 1196BOLB   C1C28697   9.543  -3.194  31.130  0.0530 -0.1601 -0.3060
 1196BOLB   C2C28698   9.598  -2.816  30.884 -0.1458  0.0206  0.2357
 1196BOLB   C3C28699   9.434  -2.527  30.609 -0.0068  0.0672 -0.1217
 1196BOLB   C4C28700   9.230  -2.196  30.437 -0.0335 -0.1092  0.0258
 1196BOLB   C1D28701   8.997  -3.122  31.201 -0.1364 -0.3106 -0.2029
 1196BOLB   C2D28702   9.029  -2.833  30.877 -0.2644 -0.2206  0.0734
 1196BOLB   C3D28703   8.887  -2.725  30.511  0.1175  0.0900  0.2212
 1196BOLB   C4D28704   8.696  -2.352  30.353  0.0684  0.3745 -0.2251
 1197BOLB   NC128705  14.783  -0.768  12.466 -0.1738  0.3095  0.0498
 1197BOLB   PO128706  14.919  -0.481  12.183  0.1091  0.3534 -0.2443
 1197BOLB   GL128707  15.236  -0.364  12.421  0.1815  0.2804  0.2992
 1197BOLB   GL228708  15.463  -0.133  12.267 -0.2258  0.1746  0.2587
 1197BOLB   C1A28709  15.678  -0.530  12.488  0.0403  0.2901 -0.0802
 1197BOLB   C2A28710  16.155  -0.648  12.526  0.1910 -0.0753  0.1888
 1197BOLB   C3A28711  16.531  -0.444  12.347  0.1298  0.0416 -0.0916
 1197BOLB   C4A28712  16.489   0.070  12.313 -0.1188 -0.0782  0.2104
 1197BOLB   C1B28713  15.457  -0.142  12.787 -0.0630  0.0310 -0.1938
 1197BOLB   C2B28714  15.692  -0.105  13.209 -0.3211 -0.0685 -0.4643
 1197BOLB   C3B28715  15.625  -0.130  13.553  0.0558  0.0631  0.1270
 1197BOLB   C4B28716  15.648   0.016  13.933 -0.1795  0.0750  0.0104
 1197BOLB   NC228717  17.685   2.038  11.735  0.1495  0.2543  0.2417
 1197BOLB   PO228718  17.367   1.722  11.625 -0.1150  0.0643 -0.1708
 1197BOLB   GL328719  17.318   1.441  11.984  0.0734 -0.2227 -0.0738
 1197BOLB   GL428720  17.175   1.620  12.327  0.0789  0.1592  0.0539
 1197BOLB   C1C28721  17.295   1.100  12.146  0.2013 -0.1269  0.0360
 1197BOLB   C2C28722  17.213   0.831  12.451  0.2526 -0.1858 -0.0842
 1197BOLB   C3C28723  17.182   0.515  12.480 -0.1316 -0.2502  0.0106
 1197BOLB   C4C28724  16.855   0.231  12.233 -0.0325  0.1313  0.1944
 1197BOLB   C1D28725  17.519   1.435  12.500 -0.1059 -0.4781  0.0030
 1197BOLB   C2D28726  17.773   1.029  12.493  0.2607 -0.3388  0.1789
 1197BOLB   C3D28727  18.067   0.788  12.755  0.1198 -0.0243 -0.1099
 1197BOLB   C4D28728  18.447   0.777  12.738 -0.0521  0.1231  0.1249
 1198BOLB   NC128729  24.383   6.953  25.922 -0.0040  0.2114  0.3322
 1198BOLB   PO128730  24.518   6.851  26.324 -0.1099  0.1983 -0.2711
 1198BOLB   GL128731  24.772   7.034  26.608  0.1073 -0.2454  0.0228
 1198BOLB   GL228732  24.538   7.313  26.689 -0.6004 -0.2217 -0.1026
 1198BOLB   C1A28733  24.877   7.458  26.385  0.0097  0.0629 -0.3973
 1198BOLB   C2A28734  25.137   7.589  26.056 -0.3332  0.4069 -0.0435
 1198BOLB   C3A28735  25.460   7.816  26.008  0.2747  0.0553 -0.2657
 1198BOLB   C4A28736  25.751   8.141  26.249  0.1892  0.3666  0.3966
 1198BOLB   C1B28737  24.817   7.721  26.782  0.0567  0.0756  0.1379
 1198BOLB   C2B28738  25.182   7.960  26.832  0.1541  0.3498  0.2463
 1198BOLB   C3B28739  25.551   7.839  26.662 -0.2510  0.2818  0.2314
 1198BOLB   C4B28740  25.623   7.467  26.354 -0.1019 -0.0242  0.1854
 1198BOLB   NC228741  27.653   9.812  27.268 -0.0417  0.0424 -0.0511
 1198BOLB   PO228742  27.276   9.880  27.073 -0.2300  0.0768  0.0834
 1198BOLB   GL328743  27.309   9.416  26.861 -0.0110 -0.0954 -0.1303
 1198BOLB   GL428744  27.481   9.157  27.010 -0.0926  0.0773 -0.1377
 1198BOLB   C1C28745  26.974   9.437  26.578  0.2930  0.1001  0.0896
 1198BOLB   C2C28746  26.796   9.138  26.330 -0.3447  0.1470  0.0342
 1198BOLB   C3C28747  26.453   8.755  26.214 -0.0471 -0.0465 -0.0942
 1198BOLB   C4C28748  26.099   8.466  26.277  0.1711  0.1503 -0.0301
 1198BOLB   C1D28749  27.105   8.948  26.693  0.2652  0.1463  0.0028
 1198BOLB   C2D28750  26.982   8.658  26.367  0.0165  0.1327 -0.4689
 1198BOLB   C3D28751  26.807   8.283  26.114 -0.1951  0.4379  0.0827
 1198BOLB   C4D28752  26.501   7.980  26.029 -0.1304 -0.1859  0.0311
 1199BOLB   NC128753  14.319   9.653  32.255  0.0281  0.1493  0.0817
 1199BOLB   PO128754  14.621   9.573  31.945 -0.1443 -0.0145 -0.6292
 1199BOLB   GL128755  14.659  10.005  32.326  0.0094 -0.1312  0.1834
 1199BOLB   GL228756  14.817  10.232  32.250  0.1167  0.1141 -0.3948
 1199BOLB   C1A28757  14.594  10.059  32.716  0.0959  0.1404  0.0246
 1199BOLB   C2A28758  14.717  10.458  32.987  0.0254  0.0002 -0.1735
 1199BOLB   C3A28759  14.758  10.787  33.264  0.1503  0.1020 -0.1150
 1199BOLB   C4A28760  14.496  10.542  33.503  0.3003  0.1658  0.0906
 1199BOLB   C1B28761  14.750  10.640  32.380 -0.0893  0.0691  0.3053
 1199BOLB   C2B28762  15.056  11.013  32.523 -0.2341  0.2738 -0.3180
 1199BOLB   C3B28763  15.272  11.298  32.276 -0.1140  0.2467 -0.2726
 1199BOLB   C4B28764  15.441  11.730  32.388  0.0370 -0.1788  0.1038
 1199BOLB   NC228765  13.365  11.573  35.753  0.1419 -0.1209  0.0537
 1199BOLB   PO228766  13.569  11.132  35.758 -0.1669 -0.0925  0.1180
 1199BOLB   GL328767  13.855  10.993  35.452 -0.0451  0.1974 -0.0052
 1199BOLB   GL428768  14.115  10.762  35.394 -0.0406 -0.1062  0.3603
 1199BOLB   C1C28769  13.744  10.928  34.983  0.0092  0.6080  0.0604
 1199BOLB   C2C28770  13.722  10.783  34.550 -0.3505 -0.0650 -0.1344
 1199BOLB   C3C28771  13.947  10.515  34.210  0.0301 -0.3724  0.1106
 1199BOLB   C4C28772  14.292  10.650  33.854  0.1307  0.4443  0.1437
 1199BOLB   C1D28773  13.826  10.445  35.218 -0.0115  0.0527  0.1560
 1199BOLB   C2D28774  13.624  10.310  34.929 -0.1959  0.2625 -0.0876
 1199BOLB   C3D28775  13.436   9.958  34.741 -0.2275  0.6065 -0.1151
 1199BOLB   C4D28776  13.290   9.861  34.348 -0.1961 -0.1465 -0.1229
 1200BOLB   NC128777  19.381  -2.744  35.019 -0.0275  0.0190  0.0044
 1200BOLB   PO128778  19.014  -2.895  34.696 -0.1144 -0.0743  0.1794
 1200BOLB   GL128779  18.977  -2.888  34.292 -0.3260  0.2193  0.1938
 1200BOLB   GL228780  18.706  -2.670  34.245  0.0142  0.0327  0.0682
 1200BOLB   C1A28781  19.028  -2.666  33.865  0.1001  0.0925 -0.1988
 1200BOLB   C2A28782  19.372  -2.385  33.773 -0.0268  0.0396 -0.1764
 1200BOLB   C3A28783  19.657  -2.090  33.644  0.4037  0.0552  0.4326
 1200BOLB   C4A28784  19.665  -1.622  33.377 -0.3238  0.0899 -0.2459
 1200BOLB   C1B28785  18.739  -2.282  34.004 -0.1159  0.1050  0.1735
 1200BOLB   C2B28786  18.502  -1.913  33.764  0.0990  0.2925  0.1476
 1200BOLB   C3B28787  18.442  -1.625  33.433  0.4483 -0.3494  0.3151
 1200BOLB   C4B28788  18.859  -1.582  33.534  0.0181  0.0680  0.4123
 1200BOLB   NC228789  18.793  -0.199  31.033  0.5500 -0.0317 -0.1439
 1200BOLB   PO228790  18.696  -0.510  31.296  0.3445 -0.1327 -0.1076
 1200BOLB   GL328791  18.849  -0.653  31.620 -0.0941  0.1051 -0.1396
 1200BOLB   GL428792  18.780  -0.888  31.724  0.0062 -0.1854 -0.0323
 1200BOLB   C1C28793  19.229  -0.784  31.804  0.2459 -0.0825  0.1707
 1200BOLB   C2C28794  19.414  -0.838  32.355 -0.2899 -0.1393  0.0428
 1200BOLB   C3C28795  19.642  -1.114  32.693 -0.1370 -0.2554  0.1025
 1200BOLB   C4C28796  19.577  -1.403  32.961 -0.0382 -0.0277 -0.0370
 1200BOLB   C1D28797  18.971  -1.188  32.037 -0.1873  0.0868 -0.1150
 1200BOLB   C2D28798  19.430  -1.161  32.023  0.1865  0.2860  0.2523
 1200BOLB   C3D28799  19.820  -1.279  32.164 -0.0274  0.2539 -0.3937
 1200BOLB   C4D28800  20.061  -1.401  32.500  0.0367 -0.0415  0.2534
 1201BOLB   NC128801   8.901   0.233  20.416  0.3076 -0.0351 -0.1764
 1201BOLB   PO128802   8.879   0.452  20.092 -0.6798 -0.0654  0.0855
 1201BOLB   GL128803   8.669   0.420  19.784  0.0886 -0.1125 -0.1686
 1201BOLB   GL228804   8.533   0.732  19.571  0.0138 -0.2702  0.2089
 1201BOLB   C1A28805   8.197   0.351  19.721 -0.0185  0.0888 -0.1788
 1201BOLB   C2A28806   7.815   0.503  19.590 -0.1540  0.0163 -0.1865
 1201BOLB   C3A28807   7.502   0.642  19.316  0.0241  0.1120  0.0847
 1201BOLB   C4A28808   7.108   0.691  19.001  0.0865  0.0556  0.1711
 1201BOLB   C1B28809   8.166   0.901  19.436  0.1226 -0.1042 -0.2058
 1201BOLB   C2B28810   7.962   0.790  19.175  0.0920  0.0185  0.4548
 1201BOLB   C3B28811   7.706   0.899  18.770  0.1153 -0.1852 -0.2810
 1201BOLB   C4B28812   7.361   0.770  18.601  0.1291 -0.1473 -0.0301
 1201BOLB   NC228813   5.610   0.926  16.858  0.1655 -0.1521  0.0997
 1201BOLB   PO228814   5.623   1.042  17.287  0.2776 -0.1700  0.2128
 1201BOLB   GL328815   5.981   1.017  17.583 -0.6158 -0.2248  0.1376
 1201BOLB   GL428816   6.148   0.756  17.548  0.0225  0.0676  0.0915
 1201BOLB   C1C28817   6.009   0.969  17.961 -0.2384  0.4430  0.1206
 1201BOLB   C2C28818   6.274   0.738  18.106 -0.0791  0.3797 -0.0620
 1201BOLB   C3C28819   6.686   0.620  18.327  0.1377  0.3002  0.0399
 1201BOLB   C4C28820   6.913   0.622  18.650 -0.2421  0.0786  0.2217
 1201BOLB   C1D28821   6.510   0.769  17.355 -0.0398 -0.0517 -0.0140
 1201BOLB   C2D28822   6.888   0.869  17.226  0.0452 -0.0274 -0.0622
 1201BOLB   C3D28823   7.334   0.838  17.363  0.3093  0.0472 -0.0591
 1201BOLB   C4D28824   7.320   0.893  17.772  0.2885  0.0956  0.1124
 1202BOLB   NC128825  21.209  -2.820  22.402  0.1470  0.2516 -0.3201
 1202BOLB   PO128826  21.397  -2.734  22.850 -0.2569  0.1105  0.1230
 1202BOLB   GL128827  21.212  -3.173  22.856  0.1137 -0.1761 -0.1054
 1202BOLB   GL228828  20.998  -3.225  22.998 -0.1393 -0.2295  0.0407
 1202BOLB   C1A28829  21.601  -3.371  22.621  0.3593  0.0929 -0.3791
 1202BOLB   C2A28830  21.888  -3.630  22.486 -0.0798  0.2445  0.0761
 1202BOLB   C3A28831  22.240  -3.881  22.274  0.1276  0.0232 -0.0209
 1202BOLB   C4A28832  22.686  -3.940  22.089  0.0005 -0.0628 -0.0854
 1202BOLB   C1B28833  21.109  -3.759  22.862  0.0581 -0.2476 -0.0211
 1202BOLB   C2B28834  21.264  -4.183  22.887  0.2592 -0.0513 -0.2375
 1202BOLB   C3B28835  21.400  -4.579  22.915  0.0558  0.0536 -0.0819
 1202BOLB   C4B28836  21.586  -4.967  23.109 -0.1911  0.0388  0.1264
 1202BOLB   NC228837  24.542  -5.382  22.241  0.0764 -0.0884  0.2045
 1202BOLB   PO228838  24.344  -5.681  21.985  0.3465  0.1516  0.0138
 1202BOLB   GL328839  23.968  -5.690  22.059  0.0048 -0.0444 -0.0947
 1202BOLB   GL428840  23.685  -5.564  21.760  0.1298  0.2023 -0.1122
 1202BOLB   C1C28841  23.670  -5.340  22.269 -0.2145 -0.2335  0.0764
 1202BOLB   C2C28842  23.560  -4.871  22.260 -0.0430 -0.1397  0.1259
 1202BOLB   C3C28843  23.271  -4.587  22.236 -0.0161  0.1514  0.0757
 1202BOLB   C4C28844  22.998  -4.236  22.168 -0.2899  0.2255  0.0297
 1202BOLB   C1D28845  23.697  -5.085  21.843 -0.0841  0.3802  0.0530
 1202BOLB   C2D28846  23.892  -4.839  21.577 -0.0147  0.3735 -0.2587
 1202BOLB   C3D28847  23.848  -4.340  21.490 -0.0347  0.0615  0.2398
 1202BOLB   C4D28848  23.782  -3.871  21.626  0.0177  0.2890  0.2303
 1203BOLB   NC128849  14.426  12.114  25.490  0.1292  0.3007 -0.2039
 1203BOLB   PO128850  14.040  12.183  25.301 -0.0997 -0.0588  0.1250
 1203BOLB   GL128851  13.868  12.518  25.148  0.1901 -0.0284  0.0869
 1203BOLB   GL228852  13.676  12.681  25.332  0.1954  0.1402  0.1734
 1203BOLB   C1A28853  14.075  12.867  25.024  0.1628  0.0632 -0.0241
 1203BOLB   C2A28854  14.245  13.268  24.963  0.0209 -0.0187 -0.3976
 1203BOLB   C3A28855  14.201  13.691  24.908  0.1151 -0.4100  0.3196
 1203BOLB   C4A28856  14.093  14.110  25.033  0.0547 -0.1746  0.2439
 1203BOLB   C1B28857  13.620  13.058  25.032 -0.2327 -0.1916  0.1241
 1203BOLB   C2B28858  13.622  13.469  24.839 -0.0739 -0.2918  0.0576
 1203BOLB   C3B28859  13.560  13.808  24.650 -0.1981  0.3031  0.1684
 1203BOLB   C4B28860  13.885  14.144  24.567  0.0398  0.1605  0.0634
 1203BOLB   NC228861  13.830  16.126  24.603  0.0065  0.1029 -0.0827
 1203BOLB   PO228862  13.423  16.140  24.716 -0.0142 -0.3696  0.1300
 1203BOLB   GL328863  13.551  15.749  24.776 -0.0834 -0.0479  0.3238
 1203BOLB   GL428864  13.309  15.569  24.877  0.1255  0.0845 -0.0175
 1203BOLB   C1C28865  13.806  15.376  24.555 -0.1086  0.4003  0.0566
 1203BOLB   C2C28866  13.965  15.028  24.247 -0.2511  0.0264 -0.0741
 1203BOLB   C3C28867  13.989  14.676  24.482  0.5344 -0.5807  0.0167
 1203BOLB   C4C28868  13.979  14.563  24.956  0.0313  0.2174  0.2310
 1203BOLB   C1D28869  13.245  15.231  24.835 -0.2272 -0.3528  0.1984
 1203BOLB   C2D28870  13.060  14.974  25.189 -0.1981  0.0482 -0.0010
 1203BOLB   C3D28871  13.166  14.951  25.604 -0.0329 -0.0067 -0.2288
 1203BOLB   C4D28872  12.786  14.860  25.855  0.4450  0.2252 -0.0808
 1204BOLB   NC128873   9.722  -0.231  20.221 -0.0454 -0.0354 -0.1420
 1204BOLB   PO128874   9.888   0.061  19.917 -0.1314 -0.0515  0.0434
 1204BOLB   GL128875   9.669  -0.291  19.718 -0.1575  0.0095 -0.2266
 1204BOLB   GL228876   9.392  -0.133  19.751 -0.1293  0.0308 -0.1195
 1204BOLB   C1A28877   9.385  -0.559  19.495 -0.0969  0.0117 -0.3224
 1204BOLB   C2A28878   9.140  -0.672  19.170 -0.1885 -0.0289  0.0798
 1204BOLB   C3A28879   8.872  -0.942  18.891  0.3397 -0.1504  0.1632
 1204BOLB   C4A28880   8.696  -1.379  18.779  0.4437 -0.0025  0.2400
 1204BOLB   C1B28881   9.036  -0.214  19.616  0.1027  0.1049  0.1324
 1204BOLB   C2B28882   8.698  -0.061  19.299  0.3374  0.2355 -0.1587
 1204BOLB   C3B28883   8.305  -0.216  19.036 -0.1081  0.0390  0.3385
 1204BOLB   C4B28884   7.984  -0.344  18.701  0.0408 -0.2181  0.3632
 1204BOLB   NC228885   8.442  -3.765  17.440  0.1882 -0.1196 -0.1993
 1204BOLB   PO228886   8.150  -3.465  17.470 -0.1790  0.3442 -0.0634
 1204BOLB   GL328887   8.500  -3.185  17.629 -0.0043  0.1268  0.0232
 1204BOLB   GL428888   8.530  -3.130  18.040  0.0787 -0.4401 -0.3877
 1204BOLB   C1C28889   8.535  -2.722  17.685  0.2331 -0.0744 -0.0556
 1204BOLB   C2C28890   8.586  -2.300  17.893  0.0066  0.2373 -0.2411
 1204BOLB   C3C28891   8.696  -1.987  18.203  0.0206 -0.1777 -0.0679
 1204BOLB   C4C28892   8.856  -1.739  18.618 -0.2726  0.1013 -0.3678
 1204BOLB   C1D28893   8.943  -2.935  17.970  0.0131 -0.2933  0.0029
 1204BOLB   C2D28894   9.247  -2.855  18.131  0.0625  0.1604  0.0287
 1204BOLB   C3D28895   9.583  -2.860  18.482 -0.1102  0.1255 -0.3255
 1204BOLB   C4D28896   9.751  -2.830  18.852  0.3776  0.0405  0.0069
 1205BOLB   NC128897  12.556   1.169  16.890  0.2404  0.1420 -0.1288
 1205BOLB   PO128898  12.907   1.043  16.940  0.0266 -0.3457  0.4179
 1205BOLB   GL128899  12.910   0.707  16.705 -0.0182 -0.1873  0.0755
 1205BOLB   GL228900  13.127   0.733  16.461  0.1756  0.0428 -0.0178
 1205BOLB   C1A28901  12.609   0.531  16.319  0.1614  0.4569 -0.3560
 1205BOLB   C2A28902  12.076   0.565  16.134  0.0368 -0.0937  0.0760
 1205BOLB   C3A28903  11.688   0.473  16.005 -0.0580  0.0777 -0.0801
 1205BOLB   C4A28904  11.514   0.322  15.628  0.1035  0.0485  0.2138
 1205BOLB   C1B28905  13.045   0.545  16.030  0.2094 -0.2844 -0.0491
 1205BOLB   C2B28906  12.780   0.558  15.547  0.2034 -0.2519  0.0584
 1205BOLB   C3B28907  12.386   0.355  15.398  0.1333  0.2402  0.2355
 1205BOLB   C4B28908  11.954  -0.059  15.350 -0.0785  0.1847  0.4532
 1205BOLB   NC228909  10.798   0.362  12.932  0.0867 -0.1824  0.0042
 1205BOLB   PO228910  10.646   0.267  13.367  0.0150 -0.0437  0.1910
 1205BOLB   GL328911  10.692   0.429  13.702  0.1038  0.5072  0.1125
 1205BOLB   GL428912  10.437   0.570  13.729 -0.2402 -0.0890 -0.2410
 1205BOLB   C1C28913  10.948   0.357  14.041  0.3188 -0.0419 -0.0314
 1205BOLB   C2C28914  11.173   0.226  14.403 -0.2936  0.0479  0.3506
 1205BOLB   C3C28915  11.306   0.483  14.787 -0.1515 -0.0106  0.3427
 1205BOLB   C4C28916  11.475   0.355  15.194 -0.1194 -0.5193  0.1175
 1205BOLB   C1D28917  10.509   0.740  14.168  0.0764  0.3892 -0.4689
 1205BOLB   C2D28918  10.929   0.835  14.374  0.0940 -0.4419  0.0524
 1205BOLB   C3D28919  11.317   0.955  14.574  0.1744  0.0431 -0.1066
 1205BOLB   C4D28920  11.744   1.173  14.487  0.0032  0.2376 -0.0047
 1206BOLB   NC128921  12.005   7.717  32.248 -0.0237 -0.1653 -0.1356
 1206BOLB   PO128922  12.453   7.837  32.242  0.2323  0.0051 -0.0480
 1206BOLB   GL128923  12.256   7.903  32.624  0.1496  0.1230  0.0665
 1206BOLB   GL228924  12.277   8.187  32.597  0.0416  0.2789 -0.4204
 1206BOLB   C1A28925  12.021   7.917  33.007  0.2578  0.1135  0.1600
 1206BOLB   C2A28926  11.953   7.943  33.418 -0.1063  0.1904 -0.2104
 1206BOLB   C3A28927  11.720   7.931  33.814 -0.3852  0.0160  0.1326
 1206BOLB   C4A28928  11.426   7.760  34.193  0.1530 -0.3334 -0.0671
 1206BOLB   C1B28929  12.169   8.354  32.872 -0.4120 -0.0366 -0.0540
 1206BOLB   C2B28930  11.899   8.399  33.290 -0.0533 -0.4553 -0.0517
 1206BOLB   C3B28931  11.766   8.452  33.657  0.3066 -0.0672  0.2289
 1206BOLB   C4B28932  11.643   8.601  33.918 -0.1592 -0.2119  0.1499
 1206BOLB   NC228933  10.798   8.766  36.591 -0.0359  0.0115  0.1136
 1206BOLB   PO228934  11.196   8.750  36.256 -0.4154 -0.1259 -0.0055
 1206BOLB   GL328935  11.353   8.434  36.101 -0.2269 -0.2934 -0.0374
 1206BOLB   GL428936  11.547   8.581  35.819 -0.1792 -0.2592 -0.1771
 1206BOLB   C1C28937  11.072   8.157  35.836 -0.0891 -0.1980 -0.0684
 1206BOLB   C2C28938  11.180   7.976  35.442  0.2072  0.1835 -0.0854
 1206BOLB   C3C28939  11.243   7.950  34.995 -0.0845  0.2929 -0.1831
 1206BOLB   C4C28940  11.407   7.718  34.600  0.4233 -0.2436 -0.2645
 1206BOLB   C1D28941  11.847   8.440  35.453 -0.1928  0.0906  0.0538
 1206BOLB   C2D28942  12.021   8.230  35.121 -0.0650 -0.1135  0.0582
 1206BOLB   C3D28943  12.290   7.900  35.240 -0.1897 -0.5004 -0.0212
 1206BOLB   C4D28944  12.541   7.599  35.045  0.2384  0.0190  0.1780
 1207BOLB   NC128945  24.348   1.755  28.050  0.0991 -0.0488  0.0428
 1207BOLB   PO128946  24.552   1.752  27.602 -0.2190  0.1414 -0.0938
 1207BOLB   GL128947  24.984   1.653  27.669 -0.1365 -0.3196  0.2490
 1207BOLB   GL228948  25.119   1.893  27.474  0.1873  0.0319  0.0215
 1207BOLB   C1A28949  25.284   1.181  27.621 -0.2215  0.0095  0.2291
 1207BOLB   C2A28950  25.633   0.980  27.599  0.0973  0.0114  0.0774
 1207BOLB   C3A28951  25.951   0.607  27.700  0.1298 -0.1632 -0.1400
 1207BOLB   C4A28952  26.230   0.370  27.698  0.1989  0.1826  0.0476
 1207BOLB   C1B28953  25.502   1.651  27.611 -0.2211 -0.4062  0.1539
 1207BOLB   C2B28954  25.846   1.414  27.819  0.2842 -0.1272 -0.0833
 1207BOLB   C3B28955  26.132   1.152  28.031  0.2778  0.0992  0.2821
 1207BOLB   C4B28956  26.063   1.150  28.409  0.0180  0.3460 -0.1157
 1207BOLB   NC228957  28.505  -0.378  28.634  0.0191 -0.2035 -0.0328
 1207BOLB   PO228958  28.255  -0.159  28.387 -0.0229  0.1011 -0.0516
 1207BOLB   GL328959  27.904   0.122  28.425  0.2851  0.0422  0.3786
 1207BOLB   GL428960  27.941   0.164  28.719 -0.0711 -0.1085 -0.3846
 1207BOLB   C1C28961  27.723   0.441  28.259  0.2677 -0.1997  0.0579
 1207BOLB   C2C28962  27.359   0.311  28.089 -0.0004 -0.5254  0.3438
 1207BOLB   C3C28963  26.988   0.337  28.043 -0.1777  0.0067 -0.0958
 1207BOLB   C4C28964  26.505   0.368  27.771  0.1967 -0.0304 -0.0860
 1207BOLB   C1D28965  27.516   0.363  28.731 -0.1460  0.0815  0.0851
 1207BOLB   C2D28966  27.326   0.609  28.529  0.1289  0.2722 -0.0499
 1207BOLB   C3D28967  26.899   0.795  28.425  0.1367  0.1717  0.1755
 1207BOLB   C4D28968  26.584   1.107  28.371 -0.3318 -0.0695 -0.0436
 1208BOLB   NC128969  16.754   6.549  33.645  0.1877  0.1776 -0.2384
 1208BOLB   PO128970  16.743   6.983  33.823 -0.2414  0.1201  0.1256
 1208BOLB   GL128971  16.956   7.081  34.199  0.2623  0.1295  0.2407
 1208BOLB   GL228972  17.260   6.868  34.313  0.1023 -0.3262 -0.2812
 1208BOLB   C1A28973  16.719   7.164  34.582  0.0042  0.3683 -0.0108
 1208BOLB   C2A28974  16.785   7.553  34.813 -0.1104  0.3624 -0.0573
 1208BOLB   C3A28975  17.078   7.966  34.958  0.0071 -0.1409  0.1335
 1208BOLB   C4A28976  17.229   8.209  35.315 -0.5133  0.2221  0.1393
 1208BOLB   C1B28977  17.282   6.929  34.767 -0.0556 -0.1203  0.0696
 1208BOLB   C2B28978  17.128   7.141  34.922  0.0282  0.2513 -0.1913
 1208BOLB   C3B28979  17.097   7.437  35.213  0.2367  0.1558 -0.0532
 1208BOLB   C4B28980  16.914   7.862  35.437  0.0031 -0.0090  0.1278
 1208BOLB   NC228981  16.989   7.627  37.960 -0.0380 -0.0549 -0.0913
 1208BOLB   PO228982  16.920   7.703  37.638  0.0579  0.1095 -0.2247
 1208BOLB   GL328983  16.984   7.806  37.171  0.2567 -0.0641 -0.2161
 1208BOLB   GL428984  17.049   7.471  37.142 -0.0155  0.2268 -0.1593
 1208BOLB   C1C28985  16.827   7.946  36.810  0.0063  0.6651 -0.1048
 1208BOLB   C2C28986  16.947   8.233  36.505 -0.3395  0.3332 -0.4088
 1208BOLB   C3C28987  17.032   8.285  36.020  0.0366 -0.2023  0.1546
 1208BOLB   C4C28988  17.055   8.309  35.680 -0.0504  0.1889  0.1637
 1208BOLB   C1D28989  17.441   7.264  37.064  0.0770 -0.1662 -0.3449
 1208BOLB   C2D28990  17.422   7.100  36.672 -0.2983 -0.1426  0.3856
 1208BOLB   C3D28991  17.301   7.346  36.391 -0.1178  0.1404  0.1825
 1208BOLB   C4D28992  17.051   7.805  36.261 -0.0319 -0.2514 -0.6341
 1209BOLB   NC128993  17.850  -4.275  25.097  0.0154  0.0290 -0.1799
 1209BOLB   PO128994  17.475  -4.123  25.377 -0.2432 -0.2170 -0.0514
 1209BOLB   GL128995  17.287  -4.461  25.155 -0.2454  0.2519 -0.1464
 1209BOLB   GL228996  17.528  -4.727  25.102  0.1290  0.1238 -0.0515
 1209BOLB   C1A28997  17.080  -4.919  25.271  0.2414 -0.1821  0.1474
 1209BOLB   C2A28998  17.138  -5.242  25.555  0.1693 -0.1584 -0.0055
 1209BOLB   C3A28999  16.898  -5.546  25.574  0.0442  0.2265  0.1708
 1209BOLB   C4A29000  17.130  -5.999  25.609  0.3425 -0.1375  0.0487
 1209BOLB   C1B29001  17.459  -5.207  25.046 -0.0882 -0.0318  0.3098
 1209BOLB   C2B29002  17.201  -5.550  25.051 -0.2681 -0.0308  0.3081
 1209BOLB   C3B29003  17.145  -5.919  25.110  0.1432  0.2000  0.2527
 1209BOLB   C4B29004  17.071  -6.347  25.209 -0.1580  0.0883 -0.2304
 1209BOLB   NC229005  17.337  -8.926  25.655 -0.0613 -0.1737  0.1921
 1209BOLB   PO229006  17.433  -8.576  25.798  0.1565 -0.3233 -0.4267
 1209BOLB   GL329007  17.219  -8.178  25.656  0.0081  0.0353 -0.1969
 1209BOLB   GL429008  17.132  -8.108  25.316 -0.1734 -0.3042  0.1769
 1209BOLB   C1C29009  17.136  -7.695  25.557 -0.5968  0.0609 -0.2422
 1209BOLB   C2C29010  17.181  -7.220  25.397  0.0266 -0.0360  0.0817
 1209BOLB   C3C29011  17.367  -6.788  25.463 -0.0412 -0.0146  0.1341
 1209BOLB   C4C29012  17.368  -6.305  25.576  0.1295 -0.2154 -0.2313
 1209BOLB   C1D29013  16.706  -7.969  25.503 -0.0948 -0.2926 -0.1297
 1209BOLB   C2D29014  16.553  -7.583  25.590 -0.0097  0.1617 -0.2778
 1209BOLB   C3D29015  16.764  -7.164  25.650  0.0026  0.2079 -0.2736
 1209BOLB   C4D29016  17.084  -6.930  25.858  0.0329  0.0431 -0.2444
 1210BOLB   NC129017  13.202  -4.144  21.733  0.4187 -0.3641  0.1121
 1210BOLB   PO129018  13.445  -4.405  21.441  0.0581  0.1759 -0.1823
 1210BOLB   GL129019  13.516  -4.824  21.352 -0.1308 -0.1737  0.1014
 1210BOLB   GL229020  13.299  -4.769  21.116  0.1786  0.1042 -0.1605
 1210BOLB   C1A29021  13.470  -5.123  21.594  0.2692 -0.1246  0.2000
 1210BOLB   C2A29022  13.248  -5.426  21.723 -0.2744 -0.0277 -0.0568
 1210BOLB   C3A29023  13.335  -5.829  21.845  0.1573  0.0752  0.0125
 1210BOLB   C4A29024  13.503  -6.157  21.650 -0.0059  0.1426 -0.0595
 1210BOLB   C1B29025  13.208  -5.235  20.969 -0.0141  0.0965  0.0817
 1210BOLB   C2B29026  13.081  -5.301  20.478  0.1411 -0.0918  0.0916
 1210BOLB   C3B29027  13.090  -5.584  20.168 -0.0257  0.1100 -0.1254
 1210BOLB   C4B29028  13.529  -5.484  19.972  0.1175  0.2415  0.0005
 1210BOLB   NC229029  14.157  -8.400  21.512 -0.0271  0.1377 -0.1977
 1210BOLB   PO229030  13.843  -8.432  21.741 -0.1729 -0.2547  0.1587
 1210BOLB   GL329031  13.783  -8.047  21.650 -0.0306 -0.0576 -0.1041
 1210BOLB   GL429032  14.091  -7.898  21.675 -0.2413  0.0454 -0.2915
 1210BOLB   C1C29033  13.423  -7.693  21.629  0.1839  0.3044 -0.2612
 1210BOLB   C2C29034  13.422  -7.281  21.788  0.1371  0.2106 -0.2631
 1210BOLB   C3C29035  13.758  -6.926  21.872 -0.1156 -0.2620 -0.0920
 1210BOLB   C4C29036  13.534  -6.572  21.938  0.1464  0.1037  0.1414
 1210BOLB   C1D29037  13.986  -7.928  22.114  0.0702 -0.1432 -0.4718
 1210BOLB   C2D29038  13.906  -7.645  22.434 -0.0949  0.0877  0.3712
 1210BOLB   C3D29039  14.073  -7.233  22.735 -0.2688 -0.0108  0.1444
 1210BOLB   C4D29040  14.328  -6.849  22.643 -0.1625  0.3022  0.0196
 1211BOLB   NC129041  14.955   0.148  32.110  0.0716 -0.1419 -0.1562
 1211BOLB   PO129042  14.488   0.215  32.234 -0.1462  0.5478 -0.0542
 1211BOLB   GL129043  14.314  -0.037  32.617 -0.0250 -0.1751 -0.0660
 1211BOLB   GL229044  14.621  -0.251  32.766  0.1299 -0.1458 -0.1705
 1211BOLB   C1A29045  14.058  -0.300  32.917  0.1720 -0.1189 -0.0871
 1211BOLB   C2A29046  13.836  -0.204  33.292  0.0132  0.0130 -0.1357
 1211BOLB   C3A29047  13.665  -0.564  33.552 -0.2328  0.2478 -0.0953
 1211BOLB   C4A29048  13.832  -0.984  33.742 -0.1947 -0.1316  0.2169
 1211BOLB   C1B29049  14.695  -0.363  33.181  0.1653  0.2567 -0.0513
 1211BOLB   C2B29050  14.714  -0.322  33.608  0.2731  0.2001  0.2808
 1211BOLB   C3B29051  15.027  -0.232  33.882 -0.0601 -0.1787 -0.1557
 1211BOLB   C4B29052  15.246  -0.421  34.196 -0.1199  0.0576 -0.0640
 1211BOLB   NC229053  14.678  -2.863  35.069 -0.0274 -0.1977  0.0429
 1211BOLB   PO229054  14.471  -3.257  34.909 -0.2148 -0.2967  0.2030
 1211BOLB   GL329055  14.334  -2.957  34.667  0.2172  0.4287  0.0985
 1211BOLB   GL429056  14.468  -2.652  34.631  0.3089 -0.0236  0.0566
 1211BOLB   C1C29057  13.955  -2.682  34.491 -0.1279 -0.0977  0.0346
 1211BOLB   C2C29058  13.965  -2.331  34.148 -0.2325 -0.0006 -0.1257
 1211BOLB   C3C29059  14.058  -1.839  34.002 -0.2554 -0.4520  0.2772
 1211BOLB   C4C29060  13.935  -1.436  33.828  0.2613  0.1032 -0.1043
 1211BOLB   C1D29061  14.276  -2.236  34.627 -0.1900 -0.0078 -0.1029
 1211BOLB   C2D29062  14.181  -1.931  34.472  0.0212 -0.2745  0.0320
 1211BOLB   C3D29063  14.314  -1.499  34.367  0.1197  0.0077  0.1184
 1211BOLB   C4D29064  14.431  -1.514  33.897 -0.2691 -0.3829 -0.0086
 1212BOLB   NC129065  16.366  -4.329  24.553  0.0042 -0.2908 -0.2331
 1212BOLB   PO129066  15.904  -4.386  24.593  0.2509 -0.0696 -0.1665
 1212BOLB   GL129067  15.738  -4.723  24.712  0.2253 -0.1428  0.0305
 1212BOLB   GL229068  15.550  -4.701  24.387  0.3528 -0.1084  0.0343
 1212BOLB   C1A29069  15.752  -5.101  24.826  0.3633 -0.0288  0.0527
 1212BOLB   C2A29070  15.753  -5.414  24.910 -0.0982  0.2720  0.0149
 1212BOLB   C3A29071  15.860  -5.782  25.085 -0.1883 -0.0703  0.0742
 1212BOLB   C4A29072  15.860  -6.118  25.363 -0.4256 -0.0677  0.1444
 1212BOLB   C1B29073  15.463  -5.058  24.368  0.3703 -0.0026 -0.1476
 1212BOLB   C2B29074  15.352  -5.561  24.442 -0.0307  0.3766  0.4381
 1212BOLB   C3B29075  15.294  -5.969  24.462 -0.2780  0.0459 -0.1243
 1212BOLB   C4B29076  15.098  -6.251  24.725 -0.1903 -0.3201  0.2401
 1212BOLB   NC229077  16.265  -8.605  24.893 -0.3224  0.0138 -0.2432
 1212BOLB   PO229078  15.842  -8.534  25.075 -0.1283  0.0083 -0.2220
 1212BOLB   GL329079  15.785  -8.082  25.370 -0.2384 -0.2732 -0.1560
 1212BOLB   GL429080  16.054  -7.941  25.391 -0.1473 -0.1049  0.0803
 1212BOLB   C1C29081  15.597  -7.678  25.352 -0.1864  0.0522  0.0654
 1212BOLB   C2C29082  15.708  -7.250  25.374 -0.1284 -0.2560 -0.1409
 1212BOLB   C3C29083  15.897  -6.980  25.229 -0.0917 -0.0870 -0.1050
 1212BOLB   C4C29084  15.819  -6.539  25.216 -0.0105 -0.1831 -0.2395
 1212BOLB   C1D29085  16.149  -7.443  25.340 -0.0484  0.0111  0.3554
 1212BOLB   C2D29086  16.410  -7.082  25.295 -0.3401  0.1886  0.3745
 1212BOLB   C3D29087  16.619  -6.708  25.441  0.0775  0.0408 -0.2350
 1212BOLB   C4D29088  16.947  -6.488  25.736  0.0999  0.1874  0.0173
 1213BOLB   NC129089  22.563   0.827  35.734 -0.1988  0.0276 -0.0510
 1213BOLB   PO129090  22.409   1.193  35.500 -0.2252 -0.0041 -0.2655
 1213BOLB   GL129091  22.358   1.320  35.037  0.0198  0.1244 -0.2622
 1213BOLB   GL229092  22.595   1.530  34.785 -0.0122  0.1668  0.0104
 1213BOLB   C1A29093  22.080   1.388  34.754 -0.2796  0.0282 -0.2213
 1213BOLB   C2A29094  21.747   1.595  34.591 -0.2120 -0.6153  0.0054
 1213BOLB   C3A29095  21.244   1.674  34.643  0.0004 -0.0342 -0.1130
 1213BOLB   C4A29096  20.839   1.926  34.721 -0.0403 -0.1626 -0.0574
 1213BOLB   C1B29097  22.489   1.809  34.369  0.0565 -0.1675  0.4552
 1213BOLB   C2B29098  22.478   1.803  33.868  0.2615 -0.2298  0.1283
 1213BOLB   C3B29099  22.225   1.828  33.593  0.1118  0.3397 -0.0121
 1213BOLB   C4B29100  22.210   1.508  33.238 -0.0589  0.0112  0.0728
 1213BOLB   NC229101  21.935   1.473  35.743 -0.0913  0.1164  0.4965
 1213BOLB   PO229102  21.614   1.298  36.002 -0.4686  0.0072  0.2677
 1213BOLB   GL329103  21.405   1.353  35.599 -0.0636 -0.1154  0.0300
 1213BOLB   GL429104  21.314   1.100  35.448  0.0779  0.1573 -0.5549
 1213BOLB   C1C29105  21.187   1.660  35.388  0.1275  0.0692 -0.1353
 1213BOLB   C2C29106  20.863   1.915  35.340 -0.1876 -0.1652 -0.1064
 1213BOLB   C3C29107  20.564   2.081  35.076  0.0737  0.3415 -0.1577
 1213BOLB   C4C29108  20.452   1.935  34.692 -0.1129 -0.0045 -0.2889
 1213BOLB   C1D29109  21.050   1.315  35.000  0.0161 -0.2689  0.4512
 1213BOLB   C2D29110  20.874   1.320  34.628 -0.0994 -0.1712  0.0706
 1213BOLB   C3D29111  20.716   1.579  34.431 -0.4340 -0.1422  0.0223
 1213BOLB   C4D29112  20.634   1.972  34.229  0.0520 -0.3709 -0.0884
 1214BOLB   NC129113  23.359   1.357  29.847  0.0718 -0.0178  0.4910
 1214BOLB   PO129114  23.590   1.719  29.941 -0.1146  0.3739  0.3858
 1214BOLB   GL129115  23.729   1.541  30.237  0.1724  0.1777  0.0651
 1214BOLB   GL229116  23.538   1.719  30.454 -0.2803 -0.4151 -0.1906
 1214BOLB   C1A29117  23.958   1.168  30.358  0.1955  0.1360 -0.1152
 1214BOLB   C2A29118  24.143   0.777  30.558 -0.0205 -0.0415  0.1736
 1214BOLB   C3A29119  24.174   0.327  30.659 -0.2670 -0.0017  0.1088
 1214BOLB   C4A29120  24.052  -0.121  30.864 -0.3195  0.0761 -0.2194
 1214BOLB   C1B29121  23.787   1.726  30.815 -0.0292 -0.1554  0.4715
 1214BOLB   C2B29122  24.075   1.831  31.164 -0.0265  0.1168 -0.1047
 1214BOLB   C3B29123  24.308   2.133  31.471  0.1782 -0.3353  0.1666
 1214BOLB   C4B29124  24.699   2.306  31.729 -0.1411  0.0835  0.0432
 1214BOLB   NC229125  25.351  -0.887  32.779 -0.0043  0.0275  0.0760
 1214BOLB   PO229126  25.094  -0.949  32.527  0.0093  0.1561 -0.1561
 1214BOLB   GL329127  24.718  -0.901  32.296  0.0217  0.0816 -0.1570
 1214BOLB   GL429128  24.543  -1.351  32.300 -0.2077  0.0624 -0.2399
 1214BOLB   C1C29129  24.294  -0.727  32.235 -0.0208 -0.0490 -0.1582
 1214BOLB   C2C29130  23.997  -0.538  31.975 -0.2164 -0.2154  0.0918
 1214BOLB   C3C29131  23.914  -0.296  31.625 -0.1770  0.0666 -0.0639
 1214BOLB   C4C29132  23.751  -0.174  31.245  0.1306 -0.1736 -0.2782
 1214BOLB   C1D29133  24.143  -1.235  32.019 -0.2467  0.3090  0.0552
 1214BOLB   C2D29134  23.813  -1.015  31.911  0.0252 -0.0482  0.2092
 1214BOLB   C3D29135  23.444  -1.153  32.219  0.0122  0.0522  0.0890
 1214BOLB   C4D29136  23.094  -0.949  32.330 -0.0560  0.2300 -0.1238
 1215BOLB   NC129137  18.484  11.735  25.165  0.1862  0.1874  0.0368
 1215BOLB   PO129138  18.300  11.782  24.702  0.1472  0.1996  0.1101
 1215BOLB   GL129139  18.433  12.132  24.484 -0.0689  0.1894 -0.2094
 1215BOLB   GL229140  18.545  12.273  24.176  0.0251 -0.0947  0.2717
 1215BOLB   C1A29141  18.475  12.575  24.593 -0.3231  0.1194  0.3139
 1215BOLB   C2A29142  18.682  12.919  24.596  0.2075 -0.0007 -0.1394
 1215BOLB   C3A29143  18.906  13.050  24.946  0.4394  0.0218  0.1627
 1215BOLB   C4A29144  19.010  13.337  25.246 -0.0335 -0.3206  0.2249
 1215BOLB   C1B29145  18.793  12.615  24.112 -0.3107 -0.0613  0.2546
 1215BOLB   C2B29146  18.942  12.988  24.087  0.3154 -0.1477  0.1283
 1215BOLB   C3B29147  18.976  13.429  23.895  0.0869  0.0574  0.1750
 1215BOLB   C4B29148  18.608  13.825  24.005  0.2453  0.1554  0.1783
 1215BOLB   NC229149  20.426  15.948  25.277  0.2909  0.3289 -0.0854
 1215BOLB   PO229150  20.167  15.649  25.510  0.1173 -0.0432  0.1087
 1215BOLB   GL329151  19.971  15.322  25.614  0.4555  0.0029  0.2264
 1215BOLB   GL429152  20.286  15.119  25.604 -0.0253 -0.1335  0.2251
 1215BOLB   C1C29153  19.549  15.030  25.605  0.1802 -0.3197 -0.1372
 1215BOLB   C2C29154  19.418  14.620  25.402 -0.1615  0.2671 -0.1108
 1215BOLB   C3C29155  19.304  14.256  25.205  0.1234  0.2138  0.2580
 1215BOLB   C4C29156  19.141  13.787  25.191 -0.0547 -0.1038 -0.1448
 1215BOLB   C1D29157  20.344  15.010  25.164  0.1459  0.0185 -0.1798
 1215BOLB   C2D29158  20.412  14.731  24.958  0.0013  0.0500 -0.0751
 1215BOLB   C3D29159  20.229  14.299  24.934  0.4815  0.0673  0.1569
 1215BOLB   C4D29160  19.815  14.125  25.135 -0.1849 -0.2217  0.2079
 1216BOLB   NC129161  16.831  -0.063  31.876  0.1643 -0.0404 -0.4724
 1216BOLB   PO129162  16.409   0.052  32.035 -0.0537  0.0235  0.0570
 1216BOLB   GL129163  16.219  -0.252  32.365 -0.0421  0.0570  0.0590
 1216BOLB   GL229164  16.277  -0.157  32.752  0.1602 -0.0330  0.0649
 1216BOLB   C1A29165  15.900  -0.472  32.637  0.1202  0.1307 -0.0687
 1216BOLB   C2A29166  16.038  -0.560  33.142  0.2028 -0.3076 -0.2151
 1216BOLB   C3A29167  15.905  -0.712  33.515  0.0542 -0.0500  0.0684
 1216BOLB   C4A29168  16.287  -0.831  33.834  0.0901  0.0227 -0.5112
 1216BOLB   C1B29169  16.480  -0.476  33.005  0.4602  0.2155  0.0432
 1216BOLB   C2B29170  16.772  -0.490  33.218  0.0993  0.2746 -0.4335
 1216BOLB   C3B29171  16.884  -0.597  33.671  0.0118  0.0899 -0.1409
 1216BOLB   C4B29172  16.873  -0.517  34.163  0.4254 -0.0193 -0.0777
 1216BOLB   NC229173  17.929  -1.273  35.720 -0.2750  0.1785  0.3105
 1216BOLB   PO229174  17.560  -1.335  35.955 -0.0123 -0.1650 -0.1409
 1216BOLB   GL329175  17.430  -1.031  35.765  0.4843  0.1269  0.0891
 1216BOLB   GL429176  17.612  -0.896  35.645 -0.2806 -0.0691  0.3636
 1216BOLB   C1C29177  17.152  -0.780  35.426  0.0428  0.1208 -0.1243
 1216BOLB   C2C29178  16.972  -0.641  35.011  0.1571 -0.1993 -0.1130
 1216BOLB   C3C29179  16.638  -0.680  34.689 -0.3911  0.0805 -0.2604
 1216BOLB   C4C29180  16.391  -0.748  34.346  0.0044  0.1602  0.0025
 1216BOLB   C1D29181  17.580  -0.485  35.383 -0.1402 -0.1354  0.1096
 1216BOLB   C2D29182  17.284  -0.185  35.088  0.2512  0.2404 -0.2741
 1216BOLB   C3D29183  17.449  -0.042  34.750  0.2226 -0.0398  0.0909
 1216BOLB   C4D29184  17.248   0.025  34.292  0.0170 -0.0499  0.0770
 1217BOLB   NC129185  17.260  12.161  26.868 -0.0595  0.1943  0.1293
 1217BOLB   PO129186  17.480  12.482  26.604  0.0095  0.1024 -0.1139
 1217BOLB   GL129187  17.376  12.906  26.611  0.2315 -0.0133  0.0943
 1217BOLB   GL229188  17.321  12.939  26.271 -0.0006 -0.4235  0.2242
 1217BOLB   C1A29189  17.449  13.352  26.937 -0.1003 -0.4042  0.1066
 1217BOLB   C2A29190  17.234  13.810  26.910 -0.0129 -0.1684  0.0789
 1217BOLB   C3A29191  16.964  14.055  27.098 -0.1657  0.0158 -0.4203
 1217BOLB   C4A29192  16.867  14.425  27.192 -0.0357  0.2798  0.3997
 1217BOLB   C1B29193  17.422  13.307  25.947  0.1023 -0.0754 -0.1051
 1217BOLB   C2B29194  17.828  13.561  26.014  0.4297  0.2494 -0.1061
 1217BOLB   C3B29195  18.102  13.936  25.908 -0.1799  0.2417 -0.2077
 1217BOLB   C4B29196  18.051  14.316  25.723  0.2105  0.3325 -0.2076
 1217BOLB   NC229197  16.687  17.030  27.450  0.3583  0.0169  0.1242
 1217BOLB   PO229198  16.456  16.621  27.680  0.0873 -0.0321 -0.2204
 1217BOLB   GL329199  16.199  16.314  27.480  0.1990  0.0994 -0.3373
 1217BOLB   GL429200  15.900  16.254  27.369  0.1194 -0.0807  0.0079
 1217BOLB   C1C29201  16.350  15.914  27.167  0.1843  0.3678 -0.1113
 1217BOLB   C2C29202  16.595  15.576  27.297  0.0681 -0.2565 -0.2235
 1217BOLB   C3C29203  16.849  15.118  27.336  0.0328 -0.1179  0.2045
 1217BOLB   C4C29204  16.642  14.773  27.395 -0.1060  0.1779  0.0984
 1217BOLB   C1D29205  15.668  15.842  27.463 -0.1185 -0.1433  0.0848
 1217BOLB   C2D29206  15.605  15.462  27.266  0.1392  0.0018 -0.1898
 1217BOLB   C3D29207  15.453  15.261  27.175 -0.0613 -0.1976 -0.2422
 1217BOLB   C4D29208  15.463  14.874  27.232  0.2476  0.0811  0.0785
 1218BOLB   NC129209  13.230  -3.646  25.668  0.0488 -0.1943  0.0693
 1218BOLB   PO129210  13.113  -3.911  26.078  0.1125 -0.0018 -0.2070
 1218BOLB   GL129211  13.191  -4.296  26.177 -0.0058 -0.2257 -0.1748
 1218BOLB   GL229212  12.868  -4.441  26.258 -0.0129  0.0849 -0.0176
 1218BOLB   C1A29213  13.278  -4.682  26.186  0.0230 -0.0750 -0.1104
 1218BOLB   C2A29214  13.452  -4.993  26.463 -0.0864 -0.1041  0.1528
 1218BOLB   C3A29215  13.454  -5.420  26.442  0.0419  0.0897 -0.3521
 1218BOLB   C4A29216  13.409  -5.856  26.393 -0.2411 -0.0282  0.3199
 1218BOLB   C1B29217  12.806  -4.873  26.369 -0.3453 -0.1135  0.2640
 1218BOLB   C2B29218  13.039  -5.214  26.226  0.1919 -0.0108 -0.0326
 1218BOLB   C3B29219  13.056  -5.667  26.028  0.1122 -0.0318  0.3007
 1218BOLB   C4B29220  13.184  -6.026  25.940  0.0935 -0.1421 -0.1731
 1218BOLB   NC229221  13.648  -8.241  26.424 -0.0037 -0.0611 -0.0857
 1218BOLB   PO229222  13.966  -8.387  26.285  0.1691  0.2544 -0.3167
 1218BOLB   GL329223  14.022  -7.915  26.434  0.1621  0.2972 -0.1855
 1218BOLB   GL429224  14.407  -7.829  26.658  0.1337  0.1663 -0.3142
 1218BOLB   C1C29225  14.240  -7.477  26.386 -0.3034  0.2542 -0.0605
 1218BOLB   C2C29226  14.091  -7.149  26.036 -0.2072  0.0651 -0.0915
 1218BOLB   C3C29227  13.821  -6.608  26.163  0.1638  0.2156  0.0925
 1218BOLB   C4C29228  13.617  -6.165  26.093  0.0344  0.1357  0.0805
 1218BOLB   C1D29229  14.645  -7.495  26.625 -0.0736 -0.1038  0.3285
 1218BOLB   C2D29230  14.578  -7.108  26.616 -0.1077 -0.1482 -0.1860
 1218BOLB   C3D29231  14.850  -6.755  26.460  0.1662  0.3958  0.0407
 1218BOLB   C4D29232  14.910  -6.432  26.520 -0.0227 -0.0037 -0.0888
 1219BOLB   NC129233  14.276  11.165  30.467  0.2382  0.2262 -0.0253
 1219BOLB   PO129234  14.153  11.610  30.158  0.0377  0.3318  0.0699
 1219BOLB   GL129235  13.935  11.937  30.300 -0.1431 -0.0594  0.2935
 1219BOLB   GL229236  13.755  12.081  30.158  0.0056  0.0363 -0.1343
 1219BOLB   C1A29237  14.134  12.088  30.647 -0.2469 -0.1397 -0.3641
 1219BOLB   C2A29238  14.266  12.494  30.906  0.0855  0.0314  0.3412
 1219BOLB   C3A29239  14.338  12.665  31.248 -0.0384 -0.4262 -0.0535
 1219BOLB   C4A29240  14.065  12.858  31.438 -0.0851 -0.2290 -0.1477
 1219BOLB   C1B29241  13.746  12.499  30.270 -0.0485 -0.0595  0.0135
 1219BOLB   C2B29242  13.761  12.930  30.388 -0.3455 -0.2686  0.0687
 1219BOLB   C3B29243  14.084  13.269  30.346 -0.2195 -0.1520 -0.2041
 1219BOLB   C4B29244  14.267  13.572  30.158  0.1744 -0.1074  0.4167
 1219BOLB   NC229245  13.578  15.587  31.949 -0.1072  0.0154 -0.2592
 1219BOLB   PO229246  13.346  15.109  32.014  0.2749 -0.0989 -0.2633
 1219BOLB   GL329247  13.600  14.768  31.976 -0.1078 -0.1351 -0.1482
 1219BOLB   GL429248  13.664  14.698  31.646  0.2118 -0.2486  0.3275
 1219BOLB   C1C29249  13.565  14.290  31.939 -0.0971 -0.0284 -0.3059
 1219BOLB   C2C29250  13.508  13.914  31.992  0.0642  0.1471 -0.0411
 1219BOLB   C3C29251  13.669  13.543  31.845 -0.2101  0.2353  0.0658
 1219BOLB   C4C29252  13.908  13.263  31.654  0.1934 -0.1886 -0.2499
 1219BOLB   C1D29253  13.744  14.307  31.505  0.0364 -0.3077  0.0081
 1219BOLB   C2D29254  13.692  14.031  31.218  0.1069  0.0698  0.1195
 1219BOLB   C3D29255  13.766  14.102  30.705 -0.0490 -0.3023 -0.0654
 1219BOLB   C4D29256  13.903  13.916  30.304 -0.2908 -0.1336  0.0647
 1220BOLB   NC129257  10.357   4.615  31.676 -0.1782 -0.1552 -0.1383
 1220BOLB   PO129258   9.966   4.528  31.686  0.1442 -0.1456  0.0796
 1220BOLB   GL129259   9.544   4.552  31.942  0.0019  0.2876 -0.1674
 1220BOLB   GL229260   9.265   4.397  31.809 -0.0845  0.2273 -0.2089
 1220BOLB   C1A29261   9.350   4.731  32.362  0.0433  0.1204  0.2120
 1220BOLB   C2A29262   9.106   4.615  32.628 -0.0872  0.3086 -0.2639
 1220BOLB   C3A29263   8.781   4.572  32.939 -0.0222  0.3005  0.2683
 1220BOLB   C4A29264   8.439   4.450  33.130  0.1191 -0.1378 -0.1256
 1220BOLB   C1B29265   9.169   4.251  32.189  0.0078 -0.0622 -0.1507
 1220BOLB   C2B29266   8.891   4.150  32.572 -0.2118 -0.0328 -0.1868
 1220BOLB   C3B29267   8.507   4.211  32.752 -0.0633  0.0174 -0.0569
 1220BOLB   C4B29268   8.066   4.378  32.843 -0.1660 -0.0539  0.0289
 1220BOLB   NC229269   6.567   3.365  34.852 -0.0124  0.1067 -0.1927
 1220BOLB   PO229270   7.009   3.161  34.796 -0.3001 -0.0607 -0.3188
 1220BOLB   GL329271   7.326   3.283  34.446  0.2161 -0.2719 -0.0312
 1220BOLB   GL429272   7.265   3.130  34.018 -0.0809  0.0816 -0.2375
 1220BOLB   C1C29273   7.543   3.557  34.147 -0.1715  0.0198 -0.1677
 1220BOLB   C2C29274   7.736   3.670  33.802 -0.3288  0.2532  0.0773
 1220BOLB   C3C29275   7.984   4.055  33.709  0.4526  0.0912 -0.3009
 1220BOLB   C4C29276   8.147   4.262  33.415 -0.2049 -0.1193  0.1453
 1220BOLB   C1D29277   7.640   3.103  33.900  0.2309 -0.3806 -0.0507
 1220BOLB   C2D29278   8.014   3.249  33.637  0.0978  0.1322  0.0685
 1220BOLB   C3D29279   8.252   3.534  33.347 -0.1229  0.0976 -0.1147
 1220BOLB   C4D29280   8.229   3.850  32.999  0.0851 -0.2372 -0.2437
 1221BOLB   NC129281  18.398  12.075  27.538 -0.1036  0.1833  0.0900
 1221BOLB   PO129282  18.451  11.794  27.234 -0.0308 -0.1777 -0.0405
 1221BOLB   GL129283  18.714  12.171  27.062 -0.2246 -0.0244 -0.1005
 1221BOLB   GL229284  18.680  12.552  27.280 -0.5437  0.1536  0.0793
 1221BOLB   C1A29285  18.930  12.484  26.868 -0.0357  0.3927 -0.0093
 1221BOLB   C2A29286  19.244  12.769  26.961 -0.0333 -0.0358  0.0166
 1221BOLB   C3A29287  19.448  13.080  27.046 -0.2669  0.0014  0.1600
 1221BOLB   C4A29288  19.468  13.486  26.944 -0.1525 -0.1883 -0.1435
 1221BOLB   C1B29289  18.731  12.913  27.052  0.0000  0.3246  0.0926
 1221BOLB   C2B29290  18.962  13.260  26.963  0.1549  0.3219  0.3320
 1221BOLB   C3B29291  19.099  13.390  26.616  0.1295 -0.1873  0.3454
 1221BOLB   C4B29292  19.346  13.664  26.487  0.0532 -0.1794 -0.1241
 1221BOLB   NC229293  19.745  15.358  28.437  0.3989  0.2809 -0.0817
 1221BOLB   PO229294  20.055  15.328  28.103  0.0924 -0.0157 -0.0793
 1221BOLB   GL329295  20.063  14.954  27.928 -0.0039  0.2750  0.0210
 1221BOLB   GL429296  20.237  14.764  28.099  0.4338 -0.0540 -0.1862
 1221BOLB   C1C29297  20.103  14.789  27.557 -0.2293 -0.0062 -0.0452
 1221BOLB   C2C29298  20.100  14.582  27.127  0.1700 -0.1401  0.4086
 1221BOLB   C3C29299  19.850  14.234  27.012 -0.1656  0.0217 -0.1956
 1221BOLB   C4C29300  19.601  13.902  26.850  0.0736  0.1105  0.3782
 1221BOLB   C1D29301  20.197  14.358  28.095 -0.4031  0.2727 -0.4333
 1221BOLB   C2D29302  20.046  13.945  28.008 -0.2139  0.1634  0.0911
 1221BOLB   C3D29303  19.982  13.572  27.712 -0.2768 -0.1198 -0.2003
 1221BOLB   C4D29304  19.827  13.267  27.385 -0.1658 -0.2591 -0.0877
 1222BOLB   NC129305  23.251   8.806  28.846  0.2055 -0.1702 -0.0125
 1222BOLB   PO129306  23.645   8.708  29.123 -0.0759  0.0428  0.0303
 1222BOLB   GL129307  23.869   8.639  29.506  0.1626  0.2220  0.1801
 1222BOLB   GL229308  23.678   8.407  29.609  0.3465  0.0139  0.3265
 1222BOLB   C1A29309  24.168   9.082  29.446  0.1197 -0.1377 -0.0384
 1222BOLB   C2A29310  24.538   9.229  29.585 -0.0435  0.1020 -0.1344
 1222BOLB   C3A29311  24.949   9.010  29.723  0.2724 -0.0777 -0.0322
 1222BOLB   C4A29312  25.158   8.758  30.027 -0.0769  0.1041 -0.3345
 1222BOLB   C1B29313  23.803   8.463  29.972 -0.0336  0.1798  0.0085
 1222BOLB   C2B29314  24.137   8.563  30.252 -0.0147 -0.1723 -0.0055
 1222BOLB   C3B29315  24.354   8.887  30.428 -0.1725 -0.0420 -0.1161
 1222BOLB   C4B29316  24.556   9.132  30.719  0.0453  0.0101  0.1376
 1222BOLB   NC229317  27.507   8.515  30.226 -0.2972  0.4070 -0.2233
 1222BOLB   PO229318  27.394   8.660  30.652 -0.0024 -0.0072 -0.3054
 1222BOLB   GL329319  27.040   8.505  30.354 -0.0254 -0.0188  0.0486
 1222BOLB   GL429320  26.798   8.474  30.520  0.0055 -0.0675 -0.0395
 1222BOLB   C1C29321  26.743   8.531  30.032  0.0514  0.3514 -0.1148
 1222BOLB   C2C29322  26.329   8.408  29.951 -0.0610  0.0974  0.0745
 1222BOLB   C3C29323  25.992   8.445  30.183 -0.0061 -0.3640 -0.1182
 1222BOLB   C4C29324  25.585   8.617  30.108 -0.1651  0.0694  0.0364
 1222BOLB   C1D29325  26.480   8.229  30.378  0.3644 -0.0208 -0.2320
 1222BOLB   C2D29326  26.320   7.971  30.468 -0.1073 -0.2099  0.0315
 1222BOLB   C3D29327  26.357   7.716  30.370  0.1937 -0.2147  0.3226
 1222BOLB   C4D29328  26.156   7.486  30.097  0.1631  0.4666  0.1943
 1223BOLB   NC129329  18.235  -2.020  29.761 -0.2244  0.1082  0.1467
 1223BOLB   PO129330  17.836  -1.859  30.007 -0.3799  0.2151  0.0325
 1223BOLB   GL129331  17.939  -2.308  30.020  0.2600 -0.1372  0.0364
 1223BOLB   GL229332  18.194  -2.299  30.207  0.1441  0.1469  0.2607
 1223BOLB   C1A29333  18.041  -2.704  29.934 -0.2691 -0.0627 -0.0647
 1223BOLB   C2A29334  18.386  -3.088  30.049 -0.2576  0.1613  0.0879
 1223BOLB   C3A29335  18.658  -3.366  30.314 -0.1192 -0.1105 -0.2908
 1223BOLB   C4A29336  18.842  -3.730  30.414  0.0085 -0.3083 -0.1821
 1223BOLB   C1B29337  18.401  -2.649  30.306 -0.0473  0.0340  0.0529
 1223BOLB   C2B29338  18.427  -2.935  30.583 -0.1588  0.1839 -0.1534
 1223BOLB   C3B29339  18.683  -3.218  30.791  0.1951 -0.1175 -0.0764
 1223BOLB   C4B29340  18.916  -3.470  31.019 -0.2096  0.0053  0.0502
 1223BOLB   NC229341  18.898  -4.959  32.458 -0.0803  0.2613  0.0724
 1223BOLB   PO229342  18.676  -5.258  32.292 -0.3680  0.1901 -0.3176
 1223BOLB   GL329343  18.519  -4.896  31.950  0.3170  0.2034  0.0212
 1223BOLB   GL429344  18.795  -4.747  32.018 -0.2712 -0.1287  0.0670
 1223BOLB   C1C29345  18.754  -4.693  31.542 -0.0074  0.0779  0.1796
 1223BOLB   C2C29346  18.899  -4.371  31.354  0.0661  0.1394 -0.1016
 1223BOLB   C3C29347  18.918  -4.081  31.083  0.1162 -0.1894 -0.0306
 1223BOLB   C4C29348  19.189  -3.815  30.823 -0.0697 -0.1081 -0.0024
 1223BOLB   C1D29349  18.928  -4.350  31.925 -0.1044  0.0238  0.0904
 1223BOLB   C2D29350  18.997  -4.015  31.718  0.0641  0.3462 -0.0110
 1223BOLB   C3D29351  19.247  -3.715  31.461  0.3548 -0.1514 -0.2139
 1223BOLB   C4D29352  19.104  -3.250  31.460 -0.0705  0.3776 -0.0015
 1224BOLB   NC129353  17.326   6.440  17.043 -0.1137  0.1564 -0.1590
 1224BOLB   PO129354  17.789   6.418  16.841  0.0550 -0.2688 -0.1106
 1224BOLB   GL129355  17.812   6.616  16.432 -0.1520 -0.1647  0.4338
 1224BOLB   GL229356  17.468   6.560  16.253  0.1745  0.2984 -0.0632
 1224BOLB   C1A29357  17.696   7.062  16.238  0.0900  0.1574 -0.4223
 1224BOLB   C2A29358  17.446   7.310  15.965 -0.1881 -0.0824  0.1610
 1224BOLB   C3A29359  17.336   7.377  15.604  0.0521  0.0758  0.0582
 1224BOLB   C4A29360  17.236   7.575  15.229 -0.3000 -0.4657 -0.2019
 1224BOLB   C1B29361  17.474   6.819  15.860 -0.1156  0.0202 -0.0733
 1224BOLB   C2B29362  17.723   7.088  15.479  0.0361 -0.0848 -0.1103
 1224BOLB   C3B29363  17.841   7.554  15.364 -0.1795  0.0301 -0.1244
 1224BOLB   C4B29364  18.022   7.945  15.435 -0.1096  0.2500  0.1122
 1224BOLB   NC229365  17.705   8.388  12.679 -0.1139 -0.0566  0.1515
 1224BOLB   PO229366  17.956   8.195  13.006 -0.2614 -0.3044 -0.3016
 1224BOLB   GL329367  17.809   7.930  13.302 -0.2995  0.0235  0.2862
 1224BOLB   GL429368  17.537   7.771  13.296 -0.2335 -0.2997 -0.1104
 1224BOLB   C1C29369  17.862   7.775  13.797  0.1930  0.1088 -0.0812
 1224BOLB   C2C29370  17.998   7.875  14.256  0.4284  0.1016 -0.1101
 1224BOLB   C3C29371  17.617   7.933  14.622 -0.0526  0.0531  0.1595
 1224BOLB   C4C29372  17.529   7.840  15.023  0.0527 -0.0238  0.0221
 1224BOLB   C1D29373  17.467   7.406  13.545  0.1281  0.0913 -0.0103
 1224BOLB   C2D29374  17.647   7.333  13.928 -0.0759  0.2307 -0.0601
 1224BOLB   C3D29375  17.511   7.497  14.348  0.0346  0.1946 -0.3109
 1224BOLB   C4D29376  17.229   7.583  14.722 -0.1104  0.0723 -0.3582
 1225BOLB   NC129377  25.565  12.236  26.267 -0.4693 -0.3689  0.0096
 1225BOLB   PO129378  25.310  12.549  26.268  0.2509 -0.1638 -0.0029
 1225BOLB   GL129379  25.185  12.061  26.360  0.0918 -0.2843 -0.2158
 1225BOLB   GL229380  25.349  11.890  26.079  0.2842  0.2363  0.3217
 1225BOLB   C1A29381  25.277  11.668  26.591  0.0894  0.1580 -0.1622
 1225BOLB   C2A29382  25.039  11.327  26.777  0.0420  0.0221 -0.4422
 1225BOLB   C3A29383  24.682  11.117  26.971  0.1310  0.1054 -0.0870
 1225BOLB   C4A29384  24.533  11.011  27.432  0.2266  0.2015 -0.0669
 1225BOLB   C1B29385  25.042  11.569  25.860  0.0975 -0.1234  0.1603
 1225BOLB   C2B29386  24.778  11.456  25.684 -0.3899  0.2822 -0.3807
 1225BOLB   C3B29387  24.569  11.194  25.439 -0.4943  0.2450 -0.0055
 1225BOLB   C4B29388  24.277  10.838  25.415  0.0582  0.0083 -0.0114
 1225BOLB   NC229389  25.383  11.670  28.842 -0.2768 -0.0260  0.1354
 1225BOLB   PO229390  25.335  11.484  29.326 -0.1022 -0.1023  0.1963
 1225BOLB   GL329391  25.053  11.302  29.056 -0.2114  0.0305 -0.0486
 1225BOLB   GL429392  24.918  11.483  28.726 -0.2681  0.1180 -0.0035
 1225BOLB   C1C29393  24.692  11.078  29.031 -0.2915  0.2953 -0.0831
 1225BOLB   C2C29394  24.407  10.957  28.755  0.2039  0.2089 -0.0053
 1225BOLB   C3C29395  24.343  10.804  28.302 -0.1134 -0.1432 -0.4149
 1225BOLB   C4C29396  24.314  10.960  27.829 -0.0144 -0.1836 -0.0240
 1225BOLB   C1D29397  24.567  11.420  28.610  0.2302  0.1835  0.0169
 1225BOLB   C2D29398  24.422  11.290  28.177 -0.0904  0.0122 -0.2477
 1225BOLB   C3D29399  23.952  11.315  27.887 -0.0108 -0.2447  0.2280
 1225BOLB   C4D29400  23.918  11.436  27.433 -0.0146 -0.2173 -0.0655
 1226BOLB   NC129401  15.981   3.438  16.526 -0.4872 -0.2057 -0.2589
 1226BOLB   PO129402  15.944   3.628  16.138  0.0120 -0.1726 -0.5166
 1226BOLB   GL129403  15.868   3.946  15.800  0.1174 -0.1900 -0.0549
 1226BOLB   GL229404  15.873   4.262  15.769  0.1704  0.1618 -0.2748
 1226BOLB   C1A29405  16.121   3.944  15.411  0.0036  0.1765  0.1468
 1226BOLB   C2A29406  16.333   4.086  15.063  0.0699  0.0014  0.0587
 1226BOLB   C3A29407  16.418   4.006  14.617  0.1777  0.1010 -0.1901
 1226BOLB   C4A29408  16.782   4.019  14.527  0.0095  0.2857  0.1131
 1226BOLB   C1B29409  16.134   4.483  15.449  0.0799  0.0866 -0.1743
 1226BOLB   C2B29410  16.085   4.481  14.946 -0.0117 -0.0957  0.1472
 1226BOLB   C3B29411  16.255   4.494  14.525 -0.0441 -0.3331  0.0290
 1226BOLB   C4B29412  16.419   4.782  14.303  0.2319 -0.0539 -0.0004
 1226BOLB   NC229413  16.083   4.415  12.608 -0.1291 -0.0163 -0.0606
 1226BOLB   PO229414  15.721   4.695  12.551  0.1562  0.1469  0.2239
 1226BOLB   GL329415  15.823   4.569  12.990  0.1547  0.3877  0.0639
 1226BOLB   GL429416  15.758   4.717  13.257 -0.2101 -0.1493 -0.2205
 1226BOLB   C1C29417  16.195   4.466  13.230  0.0813 -0.2027 -0.1243
 1226BOLB   C2C29418  16.531   4.134  13.370  0.2020 -0.3938  0.0058
 1226BOLB   C3C29419  16.875   4.011  13.715  0.5732 -0.2826 -0.0809
 1226BOLB   C4C29420  16.955   4.095  14.213 -0.0225  0.2533 -0.2640
 1226BOLB   C1D29421  15.745   4.445  13.509 -0.3136 -0.0213  0.3572
 1226BOLB   C2D29422  15.704   4.130  13.799 -0.1841  0.1068  0.3108
 1226BOLB   C3D29423  15.852   4.059  14.221 -0.0750  0.4199  0.2721
 1226BOLB   C4D29424  15.855   4.098  14.652  0.1748 -0.0373 -0.0331
 1227BOLB   NC129425  16.114  11.839  29.823 -0.0385 -0.4127  0.2108
 1227BOLB   PO129426  16.381  11.468  29.580 -0.2379  0.0044  0.0739
 1227BOLB   GL129427  16.614  11.877  29.729  0.3164 -0.2357 -0.3166
 1227BOLB   GL229428  16.926  11.947  29.676 -0.1408 -0.0430 -0.2625
 1227BOLB   C1A29429  16.509  12.268  29.930  0.1388  0.0399  0.0096
 1227BOLB   C2A29430  16.634  12.660  30.039 -0.0619  0.3101  0.0030
 1227BOLB   C3A29431  16.680  13.063  30.161  0.1207  0.2627  0.3583
 1227BOLB   C4A29432  16.548  13.416  30.012 -0.1760  0.1003 -0.0516
 1227BOLB   C1B29433  17.070  12.312  29.906 -0.1184  0.0850  0.2711
 1227BOLB   C2B29434  17.095  12.802  29.984  0.1263 -0.3428 -0.0848
 1227BOLB   C3B29435  17.270  13.251  30.063 -0.1734 -0.2692  0.4115
 1227BOLB   C4B29436  17.153  13.634  30.307  0.3438 -0.0678  0.2445
 1227BOLB   NC229437  16.484  15.607  31.590  0.0722 -0.4509  0.0318
 1227BOLB   PO229438  16.159  15.344  31.422  0.2172 -0.2132  0.1521
 1227BOLB   GL329439  16.003  15.026  31.270 -0.1036  0.2879  0.4137
 1227BOLB   GL429440  15.663  14.947  31.202  0.2197  0.1104  0.0450
 1227BOLB   C1C29441  16.090  14.608  31.286 -0.3852 -0.0888 -0.0835
 1227BOLB   C2C29442  16.085  14.273  30.982  0.1524  0.0379 -0.3678
 1227BOLB   C3C29443  16.069  14.047  30.651 -0.1690  0.1219  0.1430
 1227BOLB   C4C29444  16.380  13.888  30.258  0.0037 -0.0792 -0.0650
 1227BOLB   C1D29445  15.626  14.568  30.886  0.1004 -0.2314 -0.0043
 1227BOLB   C2D29446  15.571  14.182  30.822  0.0291  0.1431 -0.2317
 1227BOLB   C3D29447  15.689  13.674  30.696 -0.0020  0.2195 -0.1611
 1227BOLB   C4D29448  15.777  13.399  30.337  0.1638  0.0885 -0.0886
 1228BOLB   NC129449   7.606   5.417  28.145 -0.0102 -0.0654  0.3034
 1228BOLB   PO129450   7.515   5.079  28.357  0.1277  0.3931  0.1071
 1228BOLB   GL129451   7.148   5.178  28.591 -0.0622  0.0545 -0.1326
 1228BOLB   GL229452   7.235   5.311  28.887 -0.0519  0.1571  0.0773
 1228BOLB   C1A29453   6.618   5.224  28.633 -0.1765  0.1437 -0.1658
 1228BOLB   C2A29454   6.167   5.239  28.809 -0.1561  0.0043  0.1567
 1228BOLB   C3A29455   5.734   5.150  28.949  0.2845  0.2444 -0.1799
 1228BOLB   C4A29456   5.452   4.954  29.203 -0.0031  0.0039  0.0606
 1228BOLB   C1B29457   6.914   5.184  29.066 -0.1980  0.1841 -0.2702
 1228BOLB   C2B29458   6.492   4.903  29.062 -0.0543  0.0315  0.1186
 1228BOLB   C3B29459   6.040   4.805  28.771 -0.0381 -0.0747 -0.0316
 1228BOLB   C4B29460   5.633   4.716  28.780 -0.1697  0.1375 -0.0736
 1228BOLB   NC229461   3.440   5.979  29.602  0.3923 -0.0338 -0.1960
 1228BOLB   PO229462   3.552   5.577  29.498  0.1258 -0.0272  0.2695
 1228BOLB   GL329463   3.801   5.353  29.296 -0.0907 -0.1132 -0.1022
 1228BOLB   GL429464   4.156   5.191  29.425  0.1152  0.0190 -0.0549
 1228BOLB   C1C29465   4.189   5.470  28.956  0.0290 -0.0148  0.1824
 1228BOLB   C2C29466   4.567   5.248  28.931 -0.2360  0.1775 -0.4412
 1228BOLB   C3C29467   4.639   4.935  29.231  0.1718  0.3201  0.0534
 1228BOLB   C4C29468   5.083   4.721  29.222 -0.1700  0.1683 -0.3880
 1228BOLB   C1D29469   4.505   5.564  29.437 -0.0526 -0.2309 -0.0668
 1228BOLB   C2D29470   4.698   5.720  29.025  0.2440  0.0962  0.0558
 1228BOLB   C3D29471   5.071   5.787  28.868  0.0402  0.4999  0.2928
 1228BOLB   C4D29472   5.405   5.974  29.127  0.4418 -0.0759 -0.1434
 1229BOLB   NC129473  19.678  10.840  29.683 -0.0640 -0.1419  0.1426
 1229BOLB   PO129474  19.506  10.659  30.071 -0.1952 -0.3184  0.1193
 1229BOLB   GL129475  19.511  10.947  30.260 -0.1482  0.1216 -0.1472
 1229BOLB   GL229476  19.598  11.265  30.135  0.1477  0.1646 -0.1515
 1229BOLB   C1A29477  19.296  11.141  30.572  0.3483 -0.4026  0.1175
 1229BOLB   C2A29478  19.215  11.358  30.972 -0.3252  0.1914 -0.3183
 1229BOLB   C3A29479  19.250  11.610  31.250 -0.0411  0.5013  0.3130
 1229BOLB   C4A29480  19.191  11.886  31.516  0.4955  0.1264  0.1961
 1229BOLB   C1B29481  19.673  11.438  30.650  0.0206 -0.0591  0.1217
 1229BOLB   C2B29482  19.874  11.744  30.995 -0.0927  0.1566 -0.0441
 1229BOLB   C3B29483  20.209  11.945  30.940 -0.1327  0.1435 -0.1050
 1229BOLB   C4B29484  20.600  11.974  30.554 -0.1882 -0.2716 -0.0673
 1229BOLB   NC229485  19.002  13.756  33.249  0.0430  0.1874 -0.1400
 1229BOLB   PO229486  18.585  13.696  33.231 -0.2826 -0.0276 -0.2412
 1229BOLB   GL329487  18.760  13.231  33.143  0.0322 -0.2922 -0.3383
 1229BOLB   GL429488  18.612  13.007  33.319 -0.1233 -0.2163  0.1050
 1229BOLB   C1C29489  19.046  12.842  33.044  0.1508 -0.0977 -0.0991
 1229BOLB   C2C29490  19.300  12.517  32.733  0.2964  0.3976  0.1385
 1229BOLB   C3C29491  19.353  12.206  32.421  0.3904 -0.2795  0.0006
 1229BOLB   C4C29492  19.162  11.940  31.999 -0.0861  0.0474  0.0470
 1229BOLB   C1D29493  18.295  12.807  33.029  0.3345  0.0980  0.0461
 1229BOLB   C2D29494  18.221  12.669  32.612  0.1322  0.1372  0.2325
 1229BOLB   C3D29495  18.040  12.504  32.203  0.1375 -0.3605 -0.0015
 1229BOLB   C4D29496  17.814  12.638  31.905 -0.3835  0.1389  0.2817
 1230BOLB   NC129497   8.740   2.006  30.111 -0.1010  0.1864  0.2667
 1230BOLB   PO129498   8.740   2.258  30.479 -0.3417  0.0720 -0.3091
 1230BOLB   GL129499   8.531   2.154  30.844  0.2210  0.3300  0.0788
 1230BOLB   GL229500   8.715   1.858  31.102  0.1941 -0.1646 -0.1611
 1230BOLB   C1A29501   8.178   2.114  31.046  0.0063  0.3443  0.0533
 1230BOLB   C2A29502   7.900   2.289  31.220  0.0469  0.2197 -0.1594
 1230BOLB   C3A29503   7.638   2.373  31.580  0.2285  0.2772  0.3299
 1230BOLB   C4A29504   7.584   2.911  31.697 -0.2794  0.2907  0.1029
 1230BOLB   C1B29505   8.324   1.727  31.367  0.1943  0.2241  0.4153
 1230BOLB   C2B29506   7.939   1.472  31.364 -0.3700  0.0537  0.2277
 1230BOLB   C3B29507   7.588   1.392  31.630  0.1713  0.4557  0.2102
 1230BOLB   C4B29508   7.268   1.599  31.947  0.1739 -0.0282 -0.0910
 1230BOLB   NC229509   5.906   2.295  32.958 -0.1095  0.3392  0.1151
 1230BOLB   PO229510   5.865   2.683  32.754  0.0197 -0.3791 -0.0499
 1230BOLB   GL329511   6.227   2.647  32.581  0.1718  0.0608  0.1981
 1230BOLB   GL429512   6.359   2.888  32.717  0.3654  0.1156 -0.0398
 1230BOLB   C1C29513   6.591   2.878  32.248  0.0473 -0.0935  0.2910
 1230BOLB   C2C29514   6.873   3.213  32.231  0.0815  0.0781  0.2449
 1230BOLB   C3C29515   7.231   3.225  32.192 -0.0767  0.1378 -0.3826
 1230BOLB   C4C29516   7.509   3.154  31.992  0.3350 -0.2792  0.0898
 1230BOLB   C1D29517   6.727   3.102  32.734 -0.2498 -0.1595 -0.0853
 1230BOLB   C2D29518   7.091   3.386  32.661 -0.0295 -0.0244 -0.3964
 1230BOLB   C3D29519   7.388   3.728  32.669  0.2167 -0.0823  0.2448
 1230BOLB   C4D29520   7.847   3.792  32.557  0.3543  0.1072  0.2491
 1231BOLB   NC129521   9.246   5.488  31.141  0.1060  0.2679  0.1687
 1231BOLB   PO129522   8.836   5.541  30.943  0.2369  0.1389 -0.1377
 1231BOLB   GL129523   8.773   5.802  31.322 -0.0521  0.4081 -0.3801
 1231BOLB   GL229524   8.733   5.458  31.419 -0.1876  0.1041 -0.1218
 1231BOLB   C1A29525   8.376   5.779  31.542  0.3539  0.0278 -0.3373
 1231BOLB   C2A29526   8.020   5.884  31.786 -0.3008  0.1303 -0.5445
 1231BOLB   C3A29527   7.672   6.053  31.902 -0.0881  0.1780 -0.1582
 1231BOLB   C4A29528   7.182   6.116  32.098  0.0816 -0.0914 -0.1969
 1231BOLB   C1B29529   8.345   5.296  31.411 -0.0592 -0.2303  0.0626
 1231BOLB   C2B29530   8.078   5.142  31.136  0.1410  0.2133 -0.0815
 1231BOLB   C3B29531   7.634   5.293  30.887 -0.0223 -0.2982 -0.0497
 1231BOLB   C4B29532   7.199   5.188  30.745 -0.1743 -0.0492  0.3246
 1231BOLB   NC229533   5.952   6.931  33.366 -0.0602 -0.0763  0.3116
 1231BOLB   PO229534   6.062   7.038  33.803 -0.0602 -0.1227 -0.2838
 1231BOLB   GL329535   6.416   7.063  33.533  0.1277 -0.0538 -0.1395
 1231BOLB   GL429536   6.701   7.046  33.540 -0.1135 -0.0567 -0.1758
 1231BOLB   C1C29537   6.511   7.000  33.018 -0.0490  0.0870  0.0764
 1231BOLB   C2C29538   6.534   6.890  32.619  0.1274  0.2174 -0.1721
 1231BOLB   C3C29539   6.836   6.523  32.499 -0.0367 -0.0716  0.1505
 1231BOLB   C4C29540   6.933   6.098  32.423 -0.3990 -0.1299 -0.0604
 1231BOLB   C1D29541   6.901   7.250  33.234  0.4341 -0.2369  0.1061
 1231BOLB   C2D29542   6.981   7.013  32.788 -0.1311  0.1759  0.1933
 1231BOLB   C3D29543   6.915   6.996  32.381 -0.1457  0.5619 -0.3220
 1231BOLB   C4D29544   7.409   6.998  32.246  0.2545 -0.1060 -0.0509
 1232BOLB   NC129545   6.817   5.020  26.678  0.1414 -0.0184  0.1701
 1232BOLB   PO129546   6.899   5.338  26.858  0.2885  0.3670  0.1074
 1232BOLB   GL129547   6.531   5.437  26.795 -0.1881  0.0153  0.0951
 1232BOLB   GL229548   6.429   5.679  27.052 -0.0331 -0.0493 -0.0161
 1232BOLB   C1A29549   6.132   5.251  26.829  0.2429  0.3195  0.0101
 1232BOLB   C2A29550   5.717   5.228  26.880  0.1543 -0.1640 -0.1034
 1232BOLB   C3A29551   5.269   5.015  26.927 -0.1199 -0.1425  0.2112
 1232BOLB   C4A29552   4.850   5.283  26.931 -0.1120  0.0230 -0.0481
 1232BOLB   C1B29553   5.892   5.753  26.962 -0.0501  0.6605  0.2643
 1232BOLB   C2B29554   5.462   5.994  27.261 -0.0567  0.1269  0.2435
 1232BOLB   C3B29555   5.167   6.258  27.304 -0.3330  0.2664  0.3198
 1232BOLB   C4B29556   5.006   6.584  27.499 -0.0742  0.1206 -0.2091
 1232BOLB   NC229557   2.911   6.277  28.750  0.2752  0.2440  0.1668
 1232BOLB   PO229558   3.203   6.297  28.300  0.1793 -0.3711 -0.0130
 1232BOLB   GL329559   3.649   6.390  28.196 -0.3086 -0.0520  0.3138
 1232BOLB   GL429560   3.777   6.589  27.947 -0.5078 -0.0875  0.1279
 1232BOLB   C1C29561   4.093   6.185  28.218 -0.1292  0.1537  0.0656
 1232BOLB   C2C29562   4.356   6.155  27.895  0.1254  0.1739 -0.3181
 1232BOLB   C3C29563   4.487   5.848  27.584  0.3054  0.1324 -0.1353
 1232BOLB   C4C29564   4.562   5.495  27.316  0.1654  0.1439 -0.1504
 1232BOLB   C1D29565   4.169   6.635  27.753  0.1628 -0.0143 -0.2133
 1232BOLB   C2D29566   4.533   6.643  27.651 -0.0154  0.1760  0.0781
 1232BOLB   C3D29567   4.811   6.216  27.666 -0.0719  0.1163 -0.0423
 1232BOLB   C4D29568   4.953   5.803  27.534 -0.3721  0.1511 -0.0258
 1233BOLB   NC129569   7.575   0.584  23.177  0.0150 -0.1441 -0.1982
 1233BOLB   PO129570   7.874   0.256  23.220  0.0678  0.1875 -0.1586
 1233BOLB   GL129571   7.786   0.107  22.894  0.0522  0.2361  0.2474
 1233BOLB   GL229572   7.484   0.291  22.808 -0.1562  0.1761  0.0498
 1233BOLB   C1A29573   7.523  -0.144  22.532  0.0670 -0.1872  0.1325
 1233BOLB   C2A29574   7.217  -0.459  22.589  0.6695 -0.0311  0.0001
 1233BOLB   C3A29575   6.899  -0.602  22.393 -0.0225  0.2287 -0.3111
 1233BOLB   C4A29576   6.776  -0.875  22.052 -0.2968  0.0926 -0.0719
 1233BOLB   C1B29577   7.096   0.039  22.737  0.0066  0.1663  0.0811
 1233BOLB   C2B29578   6.848  -0.356  22.876  0.1409 -0.0942 -0.2323
 1233BOLB   C3B29579   6.385  -0.530  23.033  0.0897 -0.0162  0.1919
 1233BOLB   C4B29580   6.235  -0.290  23.268 -0.0454 -0.0560 -0.1366
 1233BOLB   NC229581   5.493  -3.254  21.663  0.1332  0.0604  0.1302
 1233BOLB   PO229582   5.304  -2.806  21.546 -0.0752 -0.0237 -0.1936
 1233BOLB   GL329583   5.702  -2.596  21.464  0.1456 -0.0505 -0.0064
 1233BOLB   GL429584   5.672  -2.505  21.761 -0.0609 -0.2229  0.2462
 1233BOLB   C1C29585   6.042  -2.406  21.338 -0.1232 -0.4096 -0.2336
 1233BOLB   C2C29586   6.498  -2.166  21.423 -0.0652 -0.2555  0.0118
 1233BOLB   C3C29587   6.722  -1.740  21.623  0.0338  0.1160 -0.1860
 1233BOLB   C4C29588   6.710  -1.396  21.962  0.1360 -0.1287 -0.1631
 1233BOLB   C1D29589   5.971  -2.198  21.813 -0.0627  0.2330  0.1535
 1233BOLB   C2D29590   6.378  -2.012  22.017  0.0266  0.2234  0.3227
 1233BOLB   C3D29591   6.704  -1.872  22.203  0.2152 -0.0613  0.2745
 1233BOLB   C4D29592   7.074  -1.612  22.215 -0.3346 -0.1301  0.3642
 1234BOLB   NC129593  10.652  11.482  27.931 -0.0844 -0.2574 -0.0178
 1234BOLB   PO129594  10.644  11.381  28.418  0.0762 -0.2098  0.0032
 1234BOLB   GL129595  10.461  11.714  28.373 -0.3125  0.1833 -0.1300
 1234BOLB   GL229596  10.361  11.730  28.686  0.1918  0.0845 -0.0506
 1234BOLB   C1A29597  10.017  11.926  28.230 -0.2155 -0.0821 -0.1027
 1234BOLB   C2A29598   9.756  12.284  28.427 -0.0560 -0.0687 -0.1550
 1234BOLB   C3A29599   9.413  12.493  28.308  0.0692  0.2990 -0.0735
 1234BOLB   C4A29600   9.383  12.935  28.305 -0.2481  0.4265 -0.3629
 1234BOLB   C1B29601  10.042  12.002  28.787  0.2955  0.0215 -0.2515
 1234BOLB   C2B29602   9.676  11.889  29.113 -0.0625 -0.3400 -0.5116
 1234BOLB   C3B29603   9.254  11.724  29.095  0.3191 -0.0743 -0.1089
 1234BOLB   C4B29604   8.933  11.733  29.347  0.0347  0.0567  0.0458
 1234BOLB   NC229605   9.264  14.491  30.163  0.0448 -0.0117 -0.1004
 1234BOLB   PO229606   8.803  14.449  29.987  0.0132 -0.0039  0.3371
 1234BOLB   GL329607   8.740  13.996  30.005  0.1854 -0.3261 -0.0301
 1234BOLB   GL429608   8.587  13.787  30.191 -0.0310 -0.3003  0.1956
 1234BOLB   C1C29609   8.750  13.573  29.789 -0.3703  0.2333  0.1751
 1234BOLB   C2C29610   8.991  13.527  29.331  0.0632  0.3655  0.1590
 1234BOLB   C3C29611   9.118  13.484  28.836 -0.1508 -0.0266  0.1879
 1234BOLB   C4C29612   9.336  13.222  28.597  0.0264  0.0658  0.0468
 1234BOLB   C1D29613   9.013  13.618  30.213  0.0677 -0.2449 -0.0939
 1234BOLB   C2D29614   9.287  13.399  29.868  0.0531  0.1708 -0.0258
 1234BOLB   C3D29615   9.288  13.051  29.709 -0.0664  0.2187  0.2348
 1234BOLB   C4D29616   9.301  12.718  29.388 -0.0228 -0.1398  0.0448
 1235BOLB   NC129617  11.528   7.012  20.016 -0.1320  0.0447  0.5397
 1235BOLB   PO129618  11.619   7.086  19.470  0.3720 -0.3422  0.2926
 1235BOLB   GL129619  11.336   7.215  19.148 -0.0250 -0.0946 -0.1181
 1235BOLB   GL229620  11.397   7.479  19.181  0.1781  0.0470  0.0672
 1235BOLB   C1A29621  11.329   7.351  18.690  0.0903  0.2649  0.0207
 1235BOLB   C2A29622  11.227   6.977  18.311  0.0848  0.2615  0.1532
 1235BOLB   C3A29623  11.005   6.899  17.948  0.1879 -0.4218 -0.1103
 1235BOLB   C4A29624  10.881   7.024  17.580 -0.3282  0.2519 -0.0275
 1235BOLB   C1B29625  11.197   7.885  19.199  0.1615  0.0667  0.1403
 1235BOLB   C2B29626  10.987   8.060  18.980  0.2332 -0.0841 -0.0618
 1235BOLB   C3B29627  10.784   8.041  18.587 -0.1638  0.0722 -0.2614
 1235BOLB   C4B29628  10.810   8.256  18.188 -0.1899 -0.0271  0.0188
 1235BOLB   NC229629   9.884   6.925  15.093  0.1975  0.1022 -0.2233
 1235BOLB   PO229630   9.651   7.200  15.400  0.0700 -0.0264  0.3179
 1235BOLB   GL329631   9.726   6.961  15.865 -0.2787  0.1021 -0.0844
 1235BOLB   GL429632   9.614   6.614  15.949  0.1134  0.0031  0.1303
 1235BOLB   C1C29633   9.765   7.000  16.260 -0.1560  0.1821 -0.0597
 1235BOLB   C2C29634   9.986   7.243  16.669  0.1015  0.0634  0.1029
 1235BOLB   C3C29635  10.430   7.346  16.945 -0.0548 -0.0333 -0.0259
 1235BOLB   C4C29636  10.779   7.181  17.181  0.1687 -0.2402 -0.0114
 1235BOLB   C1D29637  10.140   6.780  15.941  0.3345 -0.2811 -0.2776
 1235BOLB   C2D29638  10.523   6.655  16.159  0.1216 -0.0250 -0.0755
 1235BOLB   C3D29639  10.739   6.576  16.462  0.1525 -0.1476 -0.1007
 1235BOLB   C4D29640  11.035   6.457  16.887  0.0917  0.1318 -0.1275
 1236BOLB   NC129641  14.763   9.606  19.726 -0.0170 -0.1866 -0.1182
 1236BOLB   PO129642  14.371   9.548  19.416 -0.2529  0.3242 -0.0667
 1236BOLB   GL129643  14.170   9.873  19.204  0.0660  0.0162  0.1417
 1236BOLB   GL229644  13.851   9.794  19.094 -0.2339 -0.0060  0.1424
 1236BOLB   C1A29645  13.969  10.370  19.179 -0.0937 -0.0901  0.2801
 1236BOLB   C2A29646  13.790  10.758  19.241 -0.0044 -0.2346 -0.0533
 1236BOLB   C3A29647  13.786  11.185  19.061 -0.3938 -0.2740  0.0389
 1236BOLB   C4A29648  13.662  11.574  19.252  0.1993  0.2599  0.0156
 1236BOLB   C1B29649  13.430  10.007  19.023 -0.1051  0.2030 -0.0311
 1236BOLB   C2B29650  13.488  10.371  18.931  0.1475  0.0201 -0.3588
 1236BOLB   C3B29651  13.334  10.793  19.053  0.2747  0.1150  0.0553
 1236BOLB   C4B29652  13.401  11.166  19.412 -0.1874  0.0661  0.4667
 1236BOLB   NC229653  13.253  14.174  18.170  0.0061 -0.2405 -0.0110
 1236BOLB   PO229654  13.390  13.780  18.369  0.0594  0.1457  0.0002
 1236BOLB   GL329655  13.392  13.398  18.707  0.2643  0.0461  0.0322
 1236BOLB   GL429656  13.065  13.332  19.039 -0.2366 -0.1815  0.0030
 1236BOLB   C1C29657  13.568  13.170  19.057  0.0610 -0.4251 -0.1099
 1236BOLB   C2C29658  13.715  12.725  19.353  0.0976 -0.2532  0.3226
 1236BOLB   C3C29659  13.885  12.348  19.531 -0.0257 -0.0117  0.0014
 1236BOLB   C4C29660  13.809  11.960  19.360 -0.0973 -0.0413  0.0169
 1236BOLB   C1D29661  13.090  13.106  19.370 -0.2353  0.1595 -0.1232
 1236BOLB   C2D29662  13.286  12.717  19.544  0.1710 -0.0278 -0.1875
 1236BOLB   C3D29663  13.383  12.348  19.744  0.1204 -0.2021  0.0591
 1236BOLB   C4D29664  13.573  12.124  20.069  0.2212  0.2541 -0.1641
 1237BOLB   NC129665  12.149   1.633  32.627 -0.0456  0.2976 -0.0675
 1237BOLB   PO129666  12.515   1.418  32.596 -0.4633 -0.0334  0.2218
 1237BOLB   GL129667  12.292   1.104  32.828 -0.2592 -0.2186 -0.1116
 1237BOLB   GL229668  12.398   0.822  32.677 -0.3496  0.3868  0.0979
 1237BOLB   C1A29669  12.074   1.093  33.184  0.1612  0.2322  0.2337
 1237BOLB   C2A29670  11.986   0.828  33.513  0.2136 -0.0841  0.0103
 1237BOLB   C3A29671  11.685   0.732  33.801  0.1148  0.1748  0.0005
 1237BOLB   C4A29672  11.369   0.946  34.128 -0.0358  0.1524  0.4882
 1237BOLB   C1B29673  12.297   0.623  33.082 -0.0129  0.1913  0.0407
 1237BOLB   C2B29674  12.359   0.417  33.514 -0.1517 -0.2066 -0.0310
 1237BOLB   C3B29675  12.035   0.358  33.778  0.0902  0.0124  0.0722
 1237BOLB   C4B29676  11.838   0.425  34.183 -0.2145  0.2529 -0.1643
 1237BOLB   NC229677   9.898  -0.449  35.338  0.0506 -0.0241  0.0477
 1237BOLB   PO229678   9.861  -0.129  35.561 -0.0887 -0.0375  0.2143
 1237BOLB   GL329679  10.153   0.088  35.487 -0.1885  0.0605  0.0421
 1237BOLB   GL429680  10.331  -0.078  35.262 -0.1024 -0.0684 -0.0291
 1237BOLB   C1C29681  10.397   0.470  35.339  0.1195  0.0113  0.0182
 1237BOLB   C2C29682  10.620   0.739  34.912 -0.0587 -0.0774 -0.0796
 1237BOLB   C3C29683  10.643   0.796  34.567 -0.0694  0.1512  0.0906
 1237BOLB   C4C29684  10.937   0.814  34.222  0.0184 -0.2041 -0.0630
 1237BOLB   C1D29685  10.429  -0.152  34.780 -0.0117  0.0394  0.1069
 1237BOLB   C2D29686  10.617  -0.147  34.508 -0.1164  0.0046 -0.1697
 1237BOLB   C3D29687  10.885  -0.500  34.259  0.2726  0.1759  0.1487
 1237BOLB   C4D29688  11.325  -0.676  34.359 -0.1441  0.0527 -0.1885
 1238BOLB   NC129689  20.578  -2.975  24.538  0.1944  0.1080 -0.1970
 1238BOLB   PO129690  20.499  -2.947  24.082 -0.0026  0.1612 -0.3216
 1238BOLB   GL129691  20.647  -3.353  23.948 -0.0069  0.0326 -0.1276
 1238BOLB   GL229692  20.658  -3.380  24.287  0.0300  0.0037  0.1373
 1238BOLB   C1A29693  20.780  -3.751  23.981  0.1853  0.1117  0.0595
 1238BOLB   C2A29694  20.994  -4.092  23.993 -0.3636 -0.0566 -0.1948
 1238BOLB   C3A29695  21.199  -4.478  24.069  0.0804 -0.2233 -0.0389
 1238BOLB   C4A29696  21.143  -4.680  24.376  0.1535  0.1142 -0.1208
 1238BOLB   C1B29697  20.675  -3.791  24.485  0.4632  0.1865  0.4229
 1238BOLB   C2B29698  20.524  -4.083  24.692 -0.1176 -0.2535 -0.0263
 1238BOLB   C3B29699  20.290  -4.349  25.038  0.0519  0.1179  0.1028
 1238BOLB   C4B29700  20.150  -4.777  24.974  0.2105 -0.0232 -0.1433
 1238BOLB   NC229701  21.754  -6.863  25.410 -0.2810 -0.2463 -0.0580
 1238BOLB   PO229702  22.052  -6.601  25.168 -0.0319 -0.0743  0.1084
 1238BOLB   GL329703  21.664  -6.368  25.277 -0.0480  0.1251  0.0674
 1238BOLB   GL429704  21.660  -6.301  25.625 -0.2415  0.2796 -0.0386
 1238BOLB   C1C29705  21.494  -6.001  25.212  0.0533 -0.0191  0.1964
 1238BOLB   C2C29706  21.399  -5.785  24.938 -0.2074  0.0295 -0.0008
 1238BOLB   C3C29707  21.187  -5.471  24.618 -0.0279 -0.1635  0.0981
 1238BOLB   C4C29708  21.114  -5.118  24.645  0.2087 -0.0297 -0.0995
 1238BOLB   C1D29709  21.603  -5.808  25.625  0.3553 -0.0858  0.0618
 1238BOLB   C2D29710  21.181  -5.635  25.470  0.1638 -0.0127 -0.1532
 1238BOLB   C3D29711  20.975  -5.301  25.429  0.1247  0.1932  0.4403
 1238BOLB   C4D29712  20.780  -4.993  25.585  0.0104 -0.0767 -0.2695
 1239BOLB   NC129713  22.281   0.845   9.794 -0.0806 -0.2590 -0.1297
 1239BOLB   PO129714  21.832   0.863   9.887 -0.2122  0.3867  0.0544
 1239BOLB   GL129715  21.679   0.901  10.312  0.1439  0.2573  0.1513
 1239BOLB   GL229716  21.815   1.149  10.630  0.1063  0.0682  0.5385
 1239BOLB   C1A29717  21.497   0.751  10.718  0.1397 -0.1326 -0.1381
 1239BOLB   C2A29718  21.623   0.603  11.152  0.1999 -0.1011 -0.0950
 1239BOLB   C3A29719  21.686   0.286  11.395 -0.0293 -0.1909 -0.4196
 1239BOLB   C4A29720  21.815  -0.060  11.670 -0.2290 -0.2542 -0.1365
 1239BOLB   C1B29721  21.922   1.075  11.115  0.1158  0.0903  0.1912
 1239BOLB   C2B29722  21.783   0.881  11.545  0.2924 -0.1434 -0.0052
 1239BOLB   C3B29723  21.575   0.840  11.908  0.3602 -0.1175  0.3051
 1239BOLB   C4B29724  21.457   0.820  12.415 -0.1310 -0.2522  0.0606
 1239BOLB   NC229725  22.912  -1.161   9.859  0.0637  0.2287 -0.0605
 1239BOLB   PO229726  23.271  -1.079  10.162 -0.2392 -0.1245 -0.1791
 1239BOLB   GL329727  23.206  -1.075  10.578 -0.1067 -0.3016  0.0232
 1239BOLB   GL429728  23.204  -0.822  10.626 -0.0347 -0.0211 -0.1017
 1239BOLB   C1C29729  22.725  -0.955  10.793 -0.2693  0.1127 -0.0976
 1239BOLB   C2C29730  22.297  -0.884  10.881 -0.1865 -0.1327  0.1554
 1239BOLB   C3C29731  22.170  -0.533  11.113 -0.1774 -0.0275  0.1067
 1239BOLB   C4C29732  21.913  -0.377  11.530  0.0049  0.2877  0.1106
 1239BOLB   C1D29733  23.218  -0.600  11.036  0.1272 -0.2164  0.1654
 1239BOLB   C2D29734  23.146  -0.784  11.521 -0.2208  0.2164  0.1029
 1239BOLB   C3D29735  22.702  -0.815  11.767  0.2049  0.0174  0.0082
 1239BOLB   C4D29736  22.343  -0.680  11.611  0.1778  0.0417 -0.3404
 1240BOLB   NC129737   8.302   6.224  23.769  0.0184 -0.0256 -0.1313
 1240BOLB   PO129738   8.062   5.895  23.566 -0.1141 -0.0786 -0.0592
 1240BOLB   GL129739   7.564   6.002  23.524  0.1854  0.1446  0.2316
 1240BOLB   GL229740   7.464   5.760  23.714 -0.1796  0.1577 -0.0841
 1240BOLB   C1A29741   7.141   5.987  23.393  0.1781  0.0446  0.0321
 1240BOLB   C2A29742   6.694   6.000  23.476  0.1017 -0.0503  0.1434
 1240BOLB   C3A29743   6.385   5.997  23.241 -0.0824 -0.1465 -0.0663
 1240BOLB   C4A29744   6.045   5.898  23.301 -0.0636  0.1588  0.0182
 1240BOLB   C1B29745   7.034   5.606  23.709 -0.4628 -0.1381  0.0041
 1240BOLB   C2B29746   6.644   5.611  23.949 -0.0103 -0.0845 -0.2268
 1240BOLB   C3B29747   6.318   5.936  23.750  0.3239  0.0651 -0.2342
 1240BOLB   C4B29748   5.902   6.038  23.775 -0.2657  0.1624  0.3024
 1240BOLB   NC229749   3.958   6.397  23.634  0.0756  0.1488 -0.3313
 1240BOLB   PO229750   3.746   6.264  23.213  0.0394  0.1961 -0.1936
 1240BOLB   GL329751   4.190   6.317  23.119 -0.1921  0.2316 -0.1335
 1240BOLB   GL429752   4.167   6.214  22.840 -0.0722 -0.4398 -0.3122
 1240BOLB   C1C29753   4.590   6.250  23.237  0.2017  0.1212 -0.4393
 1240BOLB   C2C29754   4.973   5.983  23.332 -0.1080 -0.1152  0.2447
 1240BOLB   C3C29755   5.268   5.731  23.398  0.1796  0.1613  0.1302
 1240BOLB   C4C29756   5.650   5.907  23.385  0.4635 -0.5223  0.0817
 1240BOLB   C1D29757   4.521   6.003  22.638 -0.4111 -0.1299  0.1442
 1240BOLB   C2D29758   4.972   5.983  22.653  0.0889 -0.3759  0.0276
 1240BOLB   C3D29759   5.369   5.954  22.460  0.2776  0.2457 -0.0754
 1240BOLB   C4D29760   5.868   5.857  22.439 -0.0914  0.2247 -0.0981
 1241BOLB   NC129761   6.750   1.903  25.223 -0.0782 -0.0992  0.0832
 1241BOLB   PO129762   6.859   1.897  24.887  0.3715 -0.2087  0.0430
 1241BOLB   GL129763   6.515   1.637  24.752 -0.0721  0.0851  0.0037
 1241BOLB   GL229764   6.345   1.252  24.758 -0.0427 -0.4850 -0.0485
 1241BOLB   C1A29765   6.066   1.665  24.734  0.5478 -0.0880 -0.1771
 1241BOLB   C2A29766   5.593   1.593  24.655 -0.0974  0.0026  0.1292
 1241BOLB   C3A29767   5.451   1.921  24.463  0.0746  0.1507 -0.0568
 1241BOLB   C4A29768   5.044   2.079  24.611 -0.1743  0.2550 -0.0877
 1241BOLB   C1B29769   5.961   1.105  24.581  0.2467 -0.3127 -0.1365
 1241BOLB   C2B29770   5.520   0.837  24.369  0.0336 -0.0251  0.1798
 1241BOLB   C3B29771   5.419   0.523  24.047  0.1563  0.3212 -0.0343
 1241BOLB   C4B29772   5.562   0.243  23.724  0.0219 -0.1576 -0.1745
 1241BOLB   NC229773   3.290   0.536  24.762  0.2013 -0.1395 -0.0204
 1241BOLB   PO229774   2.988   0.969  24.710  0.0049  0.0621  0.0173
 1241BOLB   GL329775   3.210   1.267  24.750 -0.2562  0.2119  0.0846
 1241BOLB   GL429776   3.471   1.278  24.516  0.1412  0.0296  0.0751
 1241BOLB   C1C29777   3.518   1.571  24.942  0.0970  0.0739 -0.0925
 1241BOLB   C2C29778   3.975   1.652  25.019 -0.0642 -0.0803 -0.0293
 1241BOLB   C3C29779   4.333   1.814  24.764  0.0217 -0.2315 -0.1455
 1241BOLB   C4C29780   4.670   1.856  24.539  0.2600  0.0054  0.0902
 1241BOLB   C1D29781   3.748   0.889  24.486 -0.0339 -0.3529  0.1498
 1241BOLB   C2D29782   4.155   0.829  24.451 -0.1157  0.3806 -0.1738
 1241BOLB   C3D29783   4.509   0.774  24.205  0.3337  0.0218  0.0662
 1241BOLB   C4D29784   4.906   0.823  24.207  0.2660  0.0389 -0.0867
 1242BOLB   NC129785   5.867   2.374  16.720  0.1696 -0.3738 -0.0193
 1242BOLB   PO129786   5.782   2.091  17.128 -0.0253  0.3805  0.3412
 1242BOLB   GL129787   6.173   1.986  17.457 -0.3514 -0.0807  0.1341
 1242BOLB   GL229788   6.215   1.746  17.527 -0.2402 -0.2353  0.2170
 1242BOLB   C1A29789   6.476   2.156  17.641  0.0337  0.2461 -0.1893
 1242BOLB   C2A29790   6.606   2.212  18.056  0.0172 -0.1332  0.1106
 1242BOLB   C3A29791   6.562   2.129  18.486 -0.0322 -0.0808 -0.0290
 1242BOLB   C4A29792   6.414   2.121  18.948  0.3141  0.1111  0.2990
 1242BOLB   C1B29793   6.030   1.545  17.801 -0.2073  0.0498 -0.1654
 1242BOLB   C2B29794   5.609   1.393  17.961 -0.3063  0.1283 -0.1917
 1242BOLB   C3B29795   5.311   1.376  18.306  0.4255  0.1651  0.2725
 1242BOLB   C4B29796   5.281   1.578  18.729  0.0015 -0.0168  0.1775
 1242BOLB   NC229797   3.808   2.432  18.686 -0.0105  0.1052  0.0544
 1242BOLB   PO229798   4.188   2.186  18.487  0.1394 -0.0660  0.1050
 1242BOLB   GL329799   4.643   2.105  18.685 -0.3226 -0.1433 -0.0211
 1242BOLB   GL429800   4.822   2.342  18.854  0.2269 -0.2200  0.2496
 1242BOLB   C1C29801   4.904   1.843  18.962 -0.0086  0.0973  0.0461
 1242BOLB   C2C29802   5.304   1.864  19.120 -0.1897  0.2197  0.1459
 1242BOLB   C3C29803   5.512   2.093  19.289 -0.2116  0.0502  0.0349
 1242BOLB   C4C29804   5.968   2.198  19.103 -0.0095 -0.1023  0.0901
 1242BOLB   C1D29805   5.134   2.380  19.186 -0.1912 -0.0801  0.0774
 1242BOLB   C2D29806   5.195   2.178  19.621  0.0160 -0.0719  0.2589
 1242BOLB   C3D29807   5.241   2.398  19.983 -0.1076 -0.0840  0.4128
 1242BOLB   C4D29808   5.410   2.739  20.055  0.0333 -0.1313  0.1392
 1243BOLB   NC129809  14.180   8.896  32.867  0.3958 -0.0607  0.2599
 1243BOLB   PO129810  13.899   8.688  33.163  0.1848 -0.1928 -0.1450
 1243BOLB   GL129811  13.847   8.690  33.590 -0.3387  0.0989 -0.1017
 1243BOLB   GL229812  14.069   8.556  33.735 -0.1134  0.2414  0.0112
 1243BOLB   C1A29813  13.473   8.671  33.811  0.3010  0.1169  0.2050
 1243BOLB   C2A29814  13.176   8.937  33.979  0.0918  0.1134 -0.0510
 1243BOLB   C3A29815  12.892   9.113  33.809 -0.1378  0.2061 -0.2099
 1243BOLB   C4A29816  12.546   9.265  33.603 -0.0549  0.2619 -0.1167
 1243BOLB   C1B29817  14.324   8.989  33.861 -0.2495  0.4552 -0.1303
 1243BOLB   C2B29818  14.343   9.350  34.128 -0.0721 -0.0381  0.2623
 1243BOLB   C3B29819  14.356   9.785  34.323 -0.0793 -0.1692  0.0824
 1243BOLB   C4B29820  14.245  10.186  34.110 -0.2285 -0.2545  0.1045
 1243BOLB   NC229821  11.803  10.338  35.607  0.0225 -0.1301  0.0453
 1243BOLB   PO229822  11.621  10.446  35.248  0.3562 -0.1214 -0.1188
 1243BOLB   GL329823  11.786  10.357  34.989  0.2308  0.0350 -0.0241
 1243BOLB   GL429824  12.106  10.240  35.152 -0.1047  0.0444 -0.0476
 1243BOLB   C1C29825  11.802  10.227  34.592 -0.0483  0.1239  0.1372
 1243BOLB   C2C29826  11.978   9.971  34.179  0.1930  0.2282 -0.0441
 1243BOLB   C3C29827  11.946   9.705  33.913 -0.1833  0.1639 -0.1969
 1243BOLB   C4C29828  12.176   9.464  33.619  0.0533 -0.0934 -0.0055
 1243BOLB   C1D29829  12.001   9.903  34.968 -0.0765 -0.2015  0.0806
 1243BOLB   C2D29830  12.022   9.807  34.629  0.0118 -0.0235 -0.1443
 1243BOLB   C3D29831  12.347   9.699  34.316  0.3788  0.0377 -0.3465
 1243BOLB   C4D29832  12.367   9.379  34.069  0.0926  0.1690 -0.0600
 1244BOLB   NC129833  12.308  12.489  27.655 -0.1316 -0.3095  0.0553
 1244BOLB   PO129834  12.668  12.416  27.396 -0.3077  0.0531 -0.0546
 1244BOLB   GL129835  12.747  12.761  27.604 -0.2222 -0.0238 -0.0482
 1244BOLB   GL229836  12.565  12.931  27.513  0.3413 -0.0240 -0.0855
 1244BOLB   C1A29837  13.058  13.114  27.650 -0.0140  0.3426 -0.1133
 1244BOLB   C2A29838  12.952  13.496  27.720  0.1758  0.0474 -0.0842
 1244BOLB   C3A29839  12.799  13.853  27.837  0.0546 -0.1932  0.0954
 1244BOLB   C4A29840  13.078  14.093  27.929 -0.1883  0.1025 -0.2312
 1244BOLB   C1B29841  12.572  13.224  27.733  0.2449  0.0100 -0.0852
 1244BOLB   C2B29842  12.398  13.525  28.005  0.2766 -0.3469  0.3989
 1244BOLB   C3B29843  12.374  13.661  28.413 -0.0057 -0.2201  0.0514
 1244BOLB   C4B29844  12.662  13.893  28.771 -0.2595 -0.1088 -0.0704
 1244BOLB   NC229845  13.028  16.716  27.994  0.1162  0.2216 -0.2774
 1244BOLB   PO229846  12.814  16.476  27.714 -0.2998  0.1951  0.1034
 1244BOLB   GL329847  13.058  16.183  27.968 -0.0305 -0.2536 -0.0079
 1244BOLB   GL429848  13.154  16.213  28.305  0.3263 -0.2858  0.2538
 1244BOLB   C1C29849  12.971  15.748  28.193 -0.0051  0.1580 -0.1065
 1244BOLB   C2C29850  12.909  15.329  28.117  0.1850  0.0103 -0.0203
 1244BOLB   C3C29851  12.895  14.867  28.299 -0.1784  0.1926 -0.4501
 1244BOLB   C4C29852  13.022  14.496  28.210 -0.3465 -0.2571  0.2396
 1244BOLB   C1D29853  13.523  16.073  28.077 -0.5233  0.1831  0.1400
 1244BOLB   C2D29854  13.444  15.650  28.037 -0.1159 -0.1960  0.0488
 1244BOLB   C3D29855  13.407  15.186  28.172 -0.0860  0.3256 -0.2208
 1244BOLB   C4D29856  13.400  14.820  27.998 -0.1502 -0.0083 -0.2585
 1245BOLB   NC129857  24.887   3.490  27.535  0.1825  0.1950 -0.0559
 1245BOLB   PO129858  24.718   3.349  27.101 -0.3118  0.2001 -0.1576
 1245BOLB   GL129859  25.145   3.451  27.096 -0.2364  0.2199 -0.1666
 1245BOLB   GL229860  25.314   3.267  27.323  0.2336 -0.0424 -0.1147
 1245BOLB   C1A29861  25.511   3.369  26.850  0.1877  0.0324  0.0891
 1245BOLB   C2A29862  25.926   3.324  26.849 -0.0006  0.0231  0.0822
 1245BOLB   C3A29863  26.380   3.339  26.861 -0.1525  0.2833  0.2643
 1245BOLB   C4A29864  26.873   3.499  26.889 -0.1653  0.2024  0.0620
 1245BOLB   C1B29865  25.783   3.200  27.353 -0.3113  0.1942 -0.0008
 1245BOLB   C2B29866  26.134   2.941  27.450 -0.3070 -0.1088 -0.0713
 1245BOLB   C3B29867  26.340   2.468  27.580 -0.0487 -0.2645  0.2134
 1245BOLB   C4B29868  26.660   2.259  27.327 -0.0260  0.2588  0.2343
 1245BOLB   NC229869  28.878   3.260  28.025 -0.3058 -0.0435 -0.1257
 1245BOLB   PO229870  28.866   2.893  27.873 -0.4356  0.1905 -0.0700
 1245BOLB   GL329871  28.454   2.712  27.762 -0.3204  0.3738  0.1296
 1245BOLB   GL429872  28.633   2.641  27.472  0.0019  0.2276 -0.0667
 1245BOLB   C1C29873  28.079   2.727  27.580  0.0383  0.0394  0.0285
 1245BOLB   C2C29874  27.824   2.880  27.294  0.0043 -0.1165 -0.3321
 1245BOLB   C3C29875  27.550   3.146  27.256 -0.1849  0.1622  0.0563
 1245BOLB   C4C29876  27.311   3.405  27.045  0.1983  0.3372  0.1964
 1245BOLB   C1D29877  28.317   2.341  27.313 -0.2125  0.1794  0.1398
 1245BOLB   C2D29878  27.867   2.301  27.296  0.0241  0.1461 -0.3385
 1245BOLB   C3D29879  27.427   2.295  27.173  0.2677  0.2663  0.0632
 1245BOLB   C4D29880  27.068   2.017  27.396 -0.5591 -0.1521  0.1182
 1246BOLB   NC129881  14.283  11.727  24.518 -0.0034  0.1577 -0.1104
 1246BOLB   PO129882  13.781  11.649  24.655 -0.2365 -0.0305  0.3468
 1246BOLB   GL129883  13.911  12.056  24.624  0.1773  0.1442 -0.0891
 1246BOLB   GL229884  13.968  12.129  24.266  0.2837  0.1309  0.0780
 1246BOLB   C1A29885  13.791  12.423  24.659 -0.0282 -0.3790 -0.0070
 1246BOLB   C2A29886  13.783  12.768  24.528  0.2249 -0.2280 -0.1589
 1246BOLB   C3A29887  13.851  13.161  24.500 -0.1504  0.0693 -0.0614
 1246BOLB   C4A29888  14.000  13.642  24.475  0.1411  0.0156 -0.1127
 1246BOLB   C1B29889  14.087  12.486  24.242 -0.0056  0.0516 -0.3686
 1246BOLB   C2B29890  14.008  12.844  24.129 -0.0990  0.1593 -0.3385
 1246BOLB   C3B29891  13.827  13.222  23.974 -0.5162 -0.3387 -0.0961
 1246BOLB   C4B29892  13.901  13.720  23.759 -0.1388  0.0894 -0.2508
 1246BOLB   NC229893  14.338  16.103  25.087 -0.1919  0.1025 -0.0174
 1246BOLB   PO229894  14.347  16.181  24.697  0.1959 -0.3961  0.0842
 1246BOLB   GL329895  14.551  15.765  24.681  0.0597 -0.2181  0.0508
 1246BOLB   GL429896  14.369  15.655  24.891  0.0698  0.0169  0.0211
 1246BOLB   C1C29897  14.578  15.295  24.604  0.0632  0.0878 -0.2857
 1246BOLB   C2C29898  14.379  14.833  24.726  0.0487  0.2842  0.4085
 1246BOLB   C3C29899  14.388  14.384  24.629  0.0744  0.3005 -0.2593
 1246BOLB   C4C29900  14.319  13.989  24.508 -0.2010 -0.1731 -0.0379
 1246BOLB   C1D29901  14.252  15.227  25.045 -0.0597 -0.0441  0.0210
 1246BOLB   C2D29902  13.891  15.014  24.874 -0.2065  0.1071  0.1058
 1246BOLB   C3D29903  13.587  14.758  24.779  0.0036 -0.1297  0.3902
 1246BOLB   C4D29904  13.496  14.381  24.492 -0.1137  0.0456  0.0058
 1247BOLB   NC129905   8.469   1.868  20.927  0.2004  0.0250  0.0614
 1247BOLB   PO129906   8.046   1.709  20.912 -0.3197  0.5075  0.0771
 1247BOLB   GL129907   7.564   1.621  20.885 -0.0367 -0.2105 -0.0119
 1247BOLB   GL229908   7.320   1.656  20.649 -0.0296  0.0232 -0.1085
 1247BOLB   C1A29909   7.300   1.241  21.005  0.1375 -0.1821 -0.0690
 1247BOLB   C2A29910   6.994   1.158  20.662  0.1205 -0.2332  0.3189
 1247BOLB   C3A29911   6.629   1.328  20.485 -0.2231  0.1608  0.1875
 1247BOLB   C4A29912   6.120   1.437  20.496  0.0183 -0.1364  0.4399
 1247BOLB   C1B29913   6.864   1.774  20.500  0.4298  0.0845  0.0902
 1247BOLB   C2B29914   6.715   1.755  20.061 -0.1049 -0.1711  0.0940
 1247BOLB   C3B29915   6.647   1.824  19.631 -0.0205 -0.0112 -0.0824
 1247BOLB   C4B29916   6.332   2.174  19.449  0.0403  0.0524 -0.1122
 1247BOLB   NC229917   4.437   1.178  18.762  0.0348  0.3153  0.0523
 1247BOLB   PO229918   4.306   0.798  19.025  0.2396 -0.3783  0.2438
 1247BOLB   GL329919   4.634   0.987  19.187 -0.2277  0.3251  0.7396
 1247BOLB   GL429920   4.891   0.692  19.193  0.1727  0.0395  0.1984
 1247BOLB   C1C29921   4.879   1.144  19.500 -0.0415 -0.0557  0.0994
 1247BOLB   C2C29922   5.257   1.285  19.622 -0.1178  0.1592  0.2156
 1247BOLB   C3C29923   5.454   1.320  20.076  0.0548 -0.0121  0.0010
 1247BOLB   C4C29924   5.778   1.352  20.428 -0.0322  0.4649  0.2084
 1247BOLB   C1D29925   5.248   0.756  19.176  0.0041  0.1195  0.0347
 1247BOLB   C2D29926   5.573   1.009  19.382  0.0077 -0.0517  0.0223
 1247BOLB   C3D29927   5.801   1.279  19.612  0.1428 -0.5077  0.0630
 1247BOLB   C4D29928   5.955   1.413  19.998  0.0301  0.2380 -0.1465
 1248BOLB   NC129929  14.763  11.501  22.676 -0.4058 -0.4351  0.1806
 1248BOLB   PO129930  14.378  11.360  22.838 -0.2012  0.3780  0.0252
 1248BOLB   GL129931  14.249  11.716  22.631  0.0127  0.0246  0.2131
 1248BOLB   GL229932  14.014  11.879  22.811 -0.0981 -0.0106  0.1866
 1248BOLB   C1A29933  14.266  12.089  22.424 -0.1090  0.3619  0.4281
 1248BOLB   C2A29934  14.121  12.398  22.301  0.0890 -0.1269  0.1858
 1248BOLB   C3A29935  13.844  12.631  22.194 -0.2058 -0.0928  0.0987
 1248BOLB   C4A29936  13.648  12.626  21.752 -0.1036 -0.1796  0.1777
 1248BOLB   C1B29937  14.206  12.302  22.892 -0.0757  0.3067  0.3528
 1248BOLB   C2B29938  14.521  12.569  22.720 -0.1344 -0.1152 -0.2446
 1248BOLB   C3B29939  14.786  12.841  22.830 -0.3032 -0.0965 -0.0237
 1248BOLB   C4B29940  15.205  12.795  22.816 -0.0780  0.5111  0.2058
 1248BOLB   NC229941  13.820  14.484  20.068 -0.0752  0.1785 -0.1957
 1248BOLB   PO229942  13.377  14.250  19.923 -0.2033  0.0091  0.0874
 1248BOLB   GL329943  13.352  13.962  20.164  0.0845 -0.2912 -0.1454
 1248BOLB   GL429944  13.163  14.076  20.418 -0.0564 -0.1445  0.1120
 1248BOLB   C1C29945  13.384  13.684  20.573 -0.3533 -0.0672  0.3678
 1248BOLB   C2C29946  13.361  13.312  20.783  0.0255 -0.0345  0.0462
 1248BOLB   C3C29947  13.493  13.003  20.958  0.0676 -0.1509 -0.0363
 1248BOLB   C4C29948  13.492  12.743  21.366  0.1052  0.0738 -0.2017
 1248BOLB   C1D29949  12.862  13.767  20.633  0.1773  0.2003  0.3099
 1248BOLB   C2D29950  12.841  13.301  20.884  0.0476  0.2924 -0.1743
 1248BOLB   C3D29951  13.094  13.163  21.225 -0.2505 -0.1409 -0.0289
 1248BOLB   C4D29952  13.472  13.261  21.390 -0.2506 -0.3711 -0.2347
 1249BOLB   NC129953  11.553   7.550  19.655 -0.0057 -0.3539 -0.0824
 1249BOLB   PO129954  11.184   7.330  19.724  0.0743  0.1809  0.1178
 1249BOLB   GL129955  10.952   7.285  19.469  0.0213 -0.1029  0.2815
 1249BOLB   GL229956  10.719   7.463  19.597 -0.2260 -0.2430 -0.0713
 1249BOLB   C1A29957  10.887   7.427  19.034  0.1031 -0.3215 -0.0110
 1249BOLB   C2A29958  10.837   7.233  18.569 -0.0994  0.4129 -0.1322
 1249BOLB   C3A29959  10.801   7.365  18.108  0.0759 -0.1250  0.0335
 1249BOLB   C4A29960  10.833   7.760  17.943  0.1260 -0.0298  0.1461
 1249BOLB   C1B29961  10.483   7.519  19.273  0.0664 -0.0518  0.4444
 1249BOLB   C2B29962  10.431   7.380  18.805  0.0289 -0.1947 -0.3153
 1249BOLB   C3B29963  10.282   7.228  18.336  0.2687  0.4151  0.0656
 1249BOLB   C4B29964  10.394   7.102  17.951 -0.0691 -0.0772 -0.1148
 1249BOLB   NC229965   9.327   9.164  16.824 -0.0724 -0.2533  0.0373
 1249BOLB   PO229966   9.417   8.785  16.711 -0.2042 -0.3499 -0.2307
 1249BOLB   GL329967   9.626   8.456  17.008  0.0065 -0.4409 -0.0146
 1249BOLB   GL429968   9.926   8.535  17.145  0.0991 -0.2839 -0.0229
 1249BOLB   C1C29969   9.882   8.130  16.859  0.1036  0.1455  0.2016
 1249BOLB   C2C29970  10.222   7.824  16.898 -0.3309 -0.2535  0.1656
 1249BOLB   C3C29971  10.435   7.845  17.253 -0.3840 -0.0259 -0.0656
 1249BOLB   C4C29972  10.744   7.914  17.506 -0.0559  0.2372  0.1240
 1249BOLB   C1D29973  10.063   8.168  17.314  0.3501  0.1419  0.1195
 1249BOLB   C2D29974  10.122   7.917  17.656 -0.0556 -0.0249 -0.1600
 1249BOLB   C3D29975  10.345   7.672  18.022  0.0555 -0.1263 -0.3759
 1249BOLB   C4D29976  10.492   7.668  18.390 -0.1806  0.1677  0.1214
 1250BOLB   NC129977  20.181   9.043  30.957  0.1272  0.0369  0.3692
 1250BOLB   PO129978  20.407   8.596  31.029  0.1857 -0.2174 -0.5519
 1250BOLB   GL129979  20.306   8.867  31.353  0.1172 -0.1945 -0.1383
 1250BOLB   GL229980  20.290   9.329  31.365  0.0159 -0.1192  0.1131
 1250BOLB   C1A29981  20.454   9.127  31.742  0.2058 -0.0224 -0.2134
 1250BOLB   C2A29982  20.735   9.196  31.960  0.3767  0.0553 -0.1691
 1250BOLB   C3A29983  20.680   9.139  32.342 -0.3140  0.2098  0.0194
 1250BOLB   C4A29984  20.669   9.454  32.699  0.0350  0.0890  0.0538
 1250BOLB   C1B29985  20.669   9.454  31.442  0.1458 -0.0796  0.1771
 1250BOLB   C2B29986  20.864   9.783  31.621  0.3429 -0.1855 -0.1203
 1250BOLB   C3B29987  20.940  10.255  31.658  0.1172 -0.3308 -0.0152
 1250BOLB   C4B29988  20.809  10.577  31.942 -0.2980  0.0183 -0.1413
 1250BOLB   NC229989  21.255  11.529  33.881 -0.0883 -0.1035  0.1223
 1250BOLB   PO229990  21.551  11.333  34.049 -0.0369 -0.1833 -0.3942
 1250BOLB   GL329991  21.408  10.961  33.748  0.1075 -0.2698 -0.3026
 1250BOLB   GL429992  21.398  11.226  33.499 -0.4251  0.1350 -0.1185
 1250BOLB   C1C29993  21.090  10.835  33.574  0.0497  0.0389  0.1430
 1250BOLB   C2C29994  20.875  10.473  33.358 -0.0858  0.0677 -0.2198
 1250BOLB   C3C29995  20.828   9.971  33.277  0.3339 -0.1743  0.0111
 1250BOLB   C4C29996  20.841   9.602  33.006 -0.0978  0.1803  0.0533
 1250BOLB   C1D29997  21.048  11.254  33.172  0.3528  0.2703 -0.1186
 1250BOLB   C2D29998  20.968  10.914  32.882 -0.1038 -0.0314  0.0940
 1250BOLB   C3D29999  20.668  10.540  32.885 -0.0168  0.1478  0.2944
 1250BOLB   C4D30000  20.397  10.543  32.759 -0.0631 -0.2331 -0.2698
 1251BOLB   NC130001   7.265   1.195  26.001 -0.3869  0.1622  0.0991
 1251BOLB   PO130002   7.158   0.806  25.810 -0.1584  0.1676  0.0815
 1251BOLB   GL130003   6.893   0.409  26.019 -0.1584 -0.1910 -0.0282
 1251BOLB   GL230004   6.952   0.352  26.389 -0.3380 -0.0516  0.1964
 1251BOLB   C1A30005   6.596   0.207  25.867  0.2552  0.1942 -0.0499
 1251BOLB   C2A30006   6.270  -0.032  25.959  0.0135  0.3111 -0.0692
 1251BOLB   C3A30007   6.045  -0.336  26.358 -0.0881 -0.1359  0.1040
 1251BOLB   C4A30008   5.905  -0.304  26.713  0.3805 -0.1036 -0.1464
 1251BOLB   C1B30009   6.537   0.076  26.395 -0.2053  0.4412  0.0946
 1251BOLB   C2B30010   6.577  -0.397  26.269  0.1319 -0.4161 -0.0654
 1251BOLB   C3B30011   6.669  -0.833  26.060  0.3501 -0.0962 -0.2077
 1251BOLB   C4B30012   6.633  -1.250  25.886  0.0121  0.2267 -0.1166
 1251BOLB   NC230013   4.173  -1.227  27.520  0.0153  0.0296  0.1022
 1251BOLB   PO230014   4.101  -1.163  27.918 -0.0284  0.3116  0.0118
 1251BOLB   GL330015   4.434  -1.077  27.937  0.0697  0.2063 -0.0535
 1251BOLB   GL430016   4.425  -0.905  28.217 -0.0486  0.0973  0.2710
 1251BOLB   C1C30017   4.699  -0.742  27.766  0.1042  0.0127  0.0337
 1251BOLB   C2C30018   5.087  -0.638  27.599  0.0982 -0.0259  0.2045
 1251BOLB   C3C30019   5.470  -0.476  27.295  0.1927 -0.1393  0.2985
 1251BOLB   C4C30020   5.687  -0.216  27.062  0.0672 -0.0041  0.0609
 1251BOLB   C1D30021   4.750  -0.655  28.332 -0.2639 -0.1184  0.0007
 1251BOLB   C2D30022   5.143  -0.369  28.154  0.1611  0.1439  0.1233
 1251BOLB   C3D30023   5.499  -0.120  28.212 -0.2569 -0.0516 -0.0388
 1251BOLB   C4D30024   5.901   0.191  28.129  0.2987  0.0949 -0.0093
 1252BOLB   NC130025  13.049   9.605  14.673  0.0289 -0.2614 -0.0498
 1252BOLB   PO130026  13.531   9.677  14.708 -0.1603 -0.1457  0.1763
 1252BOLB   GL130027  13.559   9.436  15.007  0.1125  0.1329  0.0284
 1252BOLB   GL230028  13.524   9.689  15.214  0.0500  0.1943 -0.1806
 1252BOLB   C1A30029  13.295   9.201  15.298  0.0471 -0.0484  0.0947
 1252BOLB   C2A30030  13.454   8.998  15.566 -0.1199 -0.1528 -0.2934
 1252BOLB   C3A30031  13.399   8.866  16.039  0.1538 -0.1011 -0.1517
 1252BOLB   C4A30032  13.198   9.116  16.352  0.2471  0.1186  0.2135
 1252BOLB   C1B30033  13.758   9.536  15.617 -0.0347  0.0596 -0.2611
 1252BOLB   C2B30034  13.693   9.843  15.939  0.0274  0.2405 -0.0057
 1252BOLB   C3B30035  13.819   9.879  16.351 -0.3410  0.0629 -0.1060
 1252BOLB   C4B30036  13.883   9.596  16.715  0.2154 -0.1751 -0.2618
 1252BOLB   NC230037  11.391   9.602  15.059 -0.2606  0.2276 -0.1155
 1252BOLB   PO230038  11.236   9.619  15.532 -0.2239  0.1672  0.1857
 1252BOLB   GL330039  11.468   9.349  15.818 -0.2560 -0.0690  0.1086
 1252BOLB   GL430040  11.328   9.102  16.008 -0.0817  0.0594  0.3887
 1252BOLB   C1C30041  11.866   9.193  15.938 -0.2580 -0.0766  0.0024
 1252BOLB   C2C30042  12.120   8.910  15.924  0.0940 -0.1692  0.1455
 1252BOLB   C3C30043  12.480   8.878  15.894 -0.2234  0.2465 -0.1434
 1252BOLB   C4C30044  12.806   9.143  16.184  0.1951 -0.2821  0.0717
 1252BOLB   C1D30045  11.009   9.030  16.406 -0.2134  0.2217  0.1466
 1252BOLB   C2D30046  10.980   8.812  16.826  0.1475 -0.1252  0.0745
 1252BOLB   C3D30047  10.670   8.711  17.038  0.0856  0.2743 -0.1866
 1252BOLB   C4D30048  10.512   8.506  17.388 -0.3605 -0.4710 -0.0511
 1253BOLB   NC130049   8.648   1.712  19.780  0.2702  0.0560  0.1236
 1253BOLB   PO130050   8.571   2.112  19.603  0.6782  0.0009  0.1170
 1253BOLB   GL130051   8.332   2.264  19.231 -0.2631 -0.0487 -0.0540
 1253BOLB   GL230052   8.635   2.386  19.054 -0.0767 -0.0634 -0.0451
 1253BOLB   C1A30053   8.114   2.504  18.937  0.1165 -0.0418 -0.0127
 1253BOLB   C2A30054   7.800   2.304  18.772  0.1303 -0.4161  0.2151
 1253BOLB   C3A30055   7.495   2.015  18.755 -0.2178  0.2558  0.1300
 1253BOLB   C4A30056   7.339   1.748  18.439 -0.2471 -0.1633 -0.2442
 1253BOLB   C1B30057   8.534   2.150  18.803  0.2576  0.0676 -0.0649
 1253BOLB   C2B30058   8.205   2.294  18.526  0.0302  0.2307  0.1010
 1253BOLB   C3B30059   7.998   2.504  18.119  0.1970 -0.1970  0.1647
 1253BOLB   C4B30060   7.646   2.808  17.965  0.0397 -0.0341  0.3272
 1253BOLB   NC230061   6.371   0.887  16.726  0.0393  0.0926  0.2001
 1253BOLB   PO230062   5.976   1.071  16.592  0.1958  0.1107 -0.2047
 1253BOLB   GL330063   6.309   1.425  16.782 -0.0204 -0.2999 -0.2661
 1253BOLB   GL430064   6.214   1.564  17.074 -0.1271  0.3667 -0.0764
 1253BOLB   C1C30065   6.713   1.360  17.012 -0.4052 -0.0002  0.3857
 1253BOLB   C2C30066   6.936   1.400  17.435 -0.0554  0.0912  0.1920
 1253BOLB   C3C30067   7.095   1.363  17.855  0.1589 -0.1104 -0.2924
 1253BOLB   C4C30068   7.265   1.483  18.137 -0.0484  0.0323 -0.0190
 1253BOLB   C1D30069   6.425   1.306  17.407  0.0006 -0.0538 -0.2237
 1253BOLB   C2D30070   6.442   1.211  17.853 -0.1220 -0.0051  0.0014
 1253BOLB   C3D30071   6.762   0.898  17.764  0.2064 -0.2721 -0.0637
 1253BOLB   C4D30072   6.603   0.443  17.805  0.3194 -0.1625 -0.0884
 1254BOLB   NC130073  17.534  11.344  29.749  0.0085 -0.1021 -0.0596
 1254BOLB   PO130074  17.830  11.744  29.581 -0.0062  0.1046  0.2614
 1254BOLB   GL130075  17.935  12.125  29.805 -0.0604  0.1231 -0.1023
 1254BOLB   GL230076  18.265  11.938  29.924  0.0200 -0.0790 -0.1219
 1254BOLB   C1A30077  17.846  12.393  30.042 -0.1459  0.0977  0.1606
 1254BOLB   C2A30078  17.811  12.399  30.510  0.0183 -0.0998  0.0140
 1254BOLB   C3A30079  17.704  12.566  30.902 -0.0882  0.1363  0.2759
 1254BOLB   C4A30080  17.858  12.722  31.323 -0.0388 -0.1959 -0.0003
 1254BOLB   C1B30081  18.327  12.240  30.154 -0.0878  0.3090  0.0408
 1254BOLB   C2B30082  18.630  12.535  30.312 -0.0173  0.2362 -0.0724
 1254BOLB   C3B30083  18.496  12.973  30.466  0.0430  0.2324  0.0400
 1254BOLB   C4B30084  18.506  13.224  30.153 -0.1509 -0.0776 -0.0401
 1254BOLB   NC230085  19.543  14.219  32.712 -0.2739 -0.1071  0.2826
 1254BOLB   PO230086  19.293  14.177  33.145 -0.2826  0.3652  0.0397
 1254BOLB   GL330087  19.197  13.867  32.749  0.1299 -0.0211  0.0764
 1254BOLB   GL430088  19.358  13.544  32.933 -0.0667 -0.1605  0.1078
 1254BOLB   C1C30089  18.883  13.679  32.489  0.4199  0.1858  0.1059
 1254BOLB   C2C30090  18.655  13.348  32.189 -0.0815  0.1025  0.0525
 1254BOLB   C3C30091  18.410  13.152  31.796 -0.4212 -0.2858  0.0427
 1254BOLB   C4C30092  18.167  12.868  31.650  0.2741 -0.0267 -0.1521
 1254BOLB   C1D30093  19.212  13.335  32.594  0.1933  0.0133 -0.0203
 1254BOLB   C2D30094  18.899  13.022  32.514 -0.3985  0.1446  0.3374
 1254BOLB   C3D30095  18.560  12.785  32.335 -0.4093  0.1017  0.1019
 1254BOLB   C4D30096  18.462  12.587  31.929 -0.1927 -0.1796  0.4630
 1255BOLB   NC130097  10.493  11.525  26.316 -0.1474  0.2820 -0.0950
 1255BOLB   PO130098  10.342  11.584  26.699 -0.0966  0.1244 -0.2231
 1255BOLB   GL130099  10.445  11.980  26.534  0.0967  0.0780 -0.1927
 1255BOLB   GL230100  10.188  12.072  26.471 -0.1149 -0.0823  0.0397
 1255BOLB   C1A30101  10.511  12.340  26.290  0.1764  0.1836 -0.0152
 1255BOLB   C2A30102  10.388  12.709  26.209 -0.1400 -0.4878  0.1934
 1255BOLB   C3A30103  10.225  13.109  26.249  0.0536 -0.1290 -0.1303
 1255BOLB   C4A30104  10.349  13.479  26.236  0.0755 -0.2596 -0.3368
 1255BOLB   C1B30105   9.962  12.467  26.514  0.2840 -0.1511  0.1851
 1255BOLB   C2B30106   9.808  12.685  26.939  0.0360  0.1453 -0.1453
 1255BOLB   C3B30107   9.632  12.736  27.298 -0.0661 -0.1294  0.2017
 1255BOLB   C4B30108   9.940  12.739  27.655  0.1656 -0.0078 -0.3616
 1255BOLB   NC230109   8.991  15.446  26.933  0.0093  0.0941  0.0757
 1255BOLB   PO230110   9.189  15.496  27.322  0.1323 -0.2097 -0.1929
 1255BOLB   GL330111   9.355  15.147  27.186  0.0291 -0.2073 -0.2859
 1255BOLB   GL430112   9.461  14.954  27.551 -0.2297  0.1240  0.0256
 1255BOLB   C1C30113   9.641  14.817  26.966 -0.1902  0.0141  0.4626
 1255BOLB   C2C30114  10.004  14.678  26.719  0.3704  0.2303 -0.1645
 1255BOLB   C3C30115  10.254  14.354  26.327  0.0090 -0.0563 -0.0464
 1255BOLB   C4C30116  10.323  13.951  26.122  0.0978  0.1207 -0.0894
 1255BOLB   C1D30117   9.321  14.687  27.827 -0.0659 -0.0008 -0.2049
 1255BOLB   C2D30118   9.070  14.358  28.020  0.3081 -0.5027  0.0004
 1255BOLB   C3D30119   8.955  13.988  27.948  0.0871  0.0792 -0.0863
 1255BOLB   C4D30120   8.743  13.542  28.081  0.0653  0.0508  0.1453
 1256BOLB   NC130121  16.183   4.471  33.818  0.1982 -0.0525 -0.2398
 1256BOLB   PO130122  16.427   4.797  33.691  0.2580 -0.3301 -0.1231
 1256BOLB   GL130123  16.330   4.901  34.137  0.0769 -0.1846 -0.3297
 1256BOLB   GL230124  16.031   4.836  34.133  0.0191 -0.2010 -0.0777
 1256BOLB   C1A30125  16.652   4.941  34.337 -0.1966 -0.0333 -0.0765
 1256BOLB   C2A30126  16.815   5.077  34.686  0.1883 -0.2749  0.0732
 1256BOLB   C3A30127  16.987   5.115  34.986  0.0003 -0.1059 -0.1599
 1256BOLB   C4A30128  16.967   4.946  35.428 -0.1230 -0.1811 -0.2024
 1256BOLB   C1B30129  16.095   4.697  34.616  0.1716 -0.0374 -0.3080
 1256BOLB   C2B30130  16.108   4.635  35.052  0.1454  0.1457  0.2678
 1256BOLB   C3B30131  16.161   4.370  35.334 -0.2490 -0.2154  0.1888
 1256BOLB   C4B30132  16.192   3.955  35.535  0.0759  0.0850  0.0287
 1256BOLB   NC230133  16.249   4.866  37.761  0.0491 -0.0639 -0.0851
 1256BOLB   PO230134  16.695   4.850  37.790 -0.0223  0.4581  0.0278
 1256BOLB   GL330135  17.049   4.790  37.511 -0.0004  0.2054  0.2183
 1256BOLB   GL430136  17.046   4.417  37.376 -0.1651  0.0163 -0.0917
 1256BOLB   C1C30137  17.415   4.955  37.168 -0.2251  0.4961 -0.0102
 1256BOLB   C2C30138  17.345   4.958  36.713  0.0228  0.0960  0.3345
 1256BOLB   C3C30139  17.384   4.957  36.252 -0.1128 -0.1380 -0.2434
 1256BOLB   C4C30140  17.231   4.961  35.801 -0.0277  0.0966  0.0754
 1256BOLB   C1D30141  16.885   4.907  37.049 -0.0932 -0.1208 -0.0320
 1256BOLB   C2D30142  16.988   5.281  36.992  0.2005  0.1336  0.1082
 1256BOLB   C3D30143  16.866   5.610  36.694 -0.3357  0.0526 -0.0410
 1256BOLB   C4D30144  16.529   5.793  36.417 -0.2974  0.1189  0.0371
 1257BOLB   NC130145  23.068   8.560  23.365 -0.1777 -0.0499 -0.2227
 1257BOLB   PO130146  23.107   8.261  23.622  0.1512  0.0405  0.1636
 1257BOLB   GL130147  23.528   8.364  23.694  0.0879  0.3102 -0.0791
 1257BOLB   GL230148  23.558   8.398  23.943  0.0773 -0.1641 -0.0108
 1257BOLB   C1A30149  23.925   8.539  23.517  0.0820 -0.4338  0.0366
 1257BOLB   C2A30150  24.191   8.449  23.160 -0.0474  0.4154  0.0498
 1257BOLB   C3A30151  24.598   8.589  23.004  0.2409 -0.3226  0.3260
 1257BOLB   C4A30152  24.939   8.901  23.159  0.0360 -0.0581  0.0961
 1257BOLB   C1B30153  23.884   8.534  23.977 -0.0605  0.1276 -0.4008
 1257BOLB   C2B30154  24.307   8.686  23.976  0.2266 -0.1116  0.1597
 1257BOLB   C3B30155  24.670   8.714  24.375  0.1961  0.0777  0.1802
 1257BOLB   C4B30156  25.047   8.591  24.475  0.2726  0.3248 -0.1107
 1257BOLB   NC230157  27.454  10.123  23.268 -0.1610 -0.0935 -0.2340
 1257BOLB   PO230158  27.084  10.193  23.464 -0.1303  0.0043 -0.0411
 1257BOLB   GL330159  26.638  10.112  23.481  0.2293 -0.2193  0.0537
 1257BOLB   GL430160  26.364  10.284  23.249 -0.2450  0.0995 -0.2047
 1257BOLB   C1C30161  26.284   9.989  23.583 -0.0209  0.0637 -0.0644
 1257BOLB   C2C30162  25.928   9.800  23.286 -0.2685  0.0169  0.0090
 1257BOLB   C3C30163  25.633   9.406  23.119  0.0416 -0.0882 -0.2721
 1257BOLB   C4C30164  25.162   9.290  23.035  0.0674 -0.3072  0.0340
 1257BOLB   C1D30165  25.993  10.329  23.397  0.1974  0.4231  0.2390
 1257BOLB   C2D30166  25.630  10.105  23.574  0.3508  0.1602 -0.0518
 1257BOLB   C3D30167  25.477   9.667  23.551  0.2333 -0.3101  0.0879
 1257BOLB   C4D30168  25.099   9.444  23.511 -0.0478  0.0630 -0.3232
 1258BOLB   NC130169  23.276   7.979  29.580  0.1210  0.1946 -0.1118
 1258BOLB   PO130170  23.041   7.696  29.788  0.1912 -0.1318 -0.2210
 1258BOLB   GL130171  23.321   7.926  30.094  0.0514 -0.2840 -0.6128
 1258BOLB   GL230172  23.672   7.993  29.935 -0.0551  0.2157 -0.1423
 1258BOLB   C1A30173  23.494   8.080  30.446 -0.1511  0.1372 -0.0942
 1258BOLB   C2A30174  23.247   8.462  30.646  0.0623  0.3150 -0.1386
 1258BOLB   C3A30175  23.071   8.904  30.687  0.6607  0.0590 -0.2277
 1258BOLB   C4A30176  23.107   9.396  30.690 -0.1879 -0.0852 -0.1712
 1258BOLB   C1B30177  23.927   8.105  30.232  0.0550  0.1358 -0.1690
 1258BOLB   C2B30178  24.019   8.240  30.608  0.1496 -0.2445  0.0038
 1258BOLB   C3B30179  24.369   8.233  30.841 -0.0652 -0.0295 -0.2479
 1258BOLB   C4B30180  24.813   8.105  30.715 -0.1249 -0.5327 -0.1399
 1258BOLB   NC230181  24.674  11.403  32.085 -0.1903  0.0853 -0.0245
 1258BOLB   PO230182  24.414  11.565  31.666 -0.1433  0.1634 -0.0043
 1258BOLB   GL330183  24.150  11.146  31.473 -0.1656 -0.3153  0.3963
 1258BOLB   GL430184  24.329  11.225  31.139  0.1961  0.2845 -0.1770
 1258BOLB   C1C30185  23.795  10.836  31.464 -0.1048 -0.1924 -0.0359
 1258BOLB   C2C30186  23.572  10.454  31.196 -0.1577 -0.1848 -0.2087
 1258BOLB   C3C30187  23.265  10.086  31.099 -0.0918 -0.1111 -0.1343
 1258BOLB   C4C30188  23.274   9.715  30.878 -0.0211 -0.4680 -0.2638
 1258BOLB   C1D30189  23.855  11.151  31.089 -0.2469  0.1990  0.0162
 1258BOLB   C2D30190  23.542  10.898  30.838  0.0683 -0.1992 -0.0340
 1258BOLB   C3D30191  23.374  10.450  30.784  0.0301  0.1226  0.2516
 1258BOLB   C4D30192  23.102  10.147  30.487 -0.1401 -0.2426 -0.2367
 1259BOLB   NC130193  20.898   7.154  31.736 -0.0093 -0.0517 -0.1385
 1259BOLB   PO130194  20.692   6.728  31.889 -0.0785  0.0643  0.1690
 1259BOLB   GL130195  21.014   6.800  32.117 -0.0069 -0.3158 -0.1961
 1259BOLB   GL230196  21.137   6.594  32.354 -0.3240 -0.0705 -0.0437
 1259BOLB   C1A30197  21.295   7.125  32.236 -0.1737  0.1227 -0.0280
 1259BOLB   C2A30198  21.258   7.577  32.509 -0.1576  0.2496  0.1654
 1259BOLB   C3A30199  21.549   7.728  32.729  0.2915  0.3215 -0.1176
 1259BOLB   C4A30200  21.844   7.925  32.931  0.2159  0.1324  0.1808
 1259BOLB   C1B30201  21.404   6.414  32.831  0.0250  0.1046 -0.0613
 1259BOLB   C2B30202  21.551   6.325  33.252 -0.2495 -0.1374  0.1583
 1259BOLB   C3B30203  21.775   6.434  33.544  0.2208  0.2524 -0.1421
 1259BOLB   C4B30204  22.022   6.441  33.905  0.0588  0.0471  0.0073
 1259BOLB   NC230205  22.349   9.735  34.818  0.3564 -0.1269 -0.2662
 1259BOLB   PO230206  22.658   9.468  34.585  0.1292  0.1610  0.1135
 1259BOLB   GL330207  22.643   9.187  34.389 -0.0948 -0.0185 -0.0902
 1259BOLB   GL430208  22.455   8.985  34.540 -0.0533  0.1557  0.0477
 1259BOLB   C1C30209  22.706   8.885  34.110 -0.2144 -0.3449  0.2184
 1259BOLB   C2C30210  22.510   8.523  33.870  0.1164 -0.1801  0.0776
 1259BOLB   C3C30211  22.137   8.389  33.558  0.1046 -0.0340  0.1520
 1259BOLB   C4C30212  21.844   8.131  33.305 -0.0139 -0.0885  0.1705
 1259BOLB   C1D30213  22.557   8.561  34.654  0.0499  0.0688  0.2016
 1259BOLB   C2D30214  22.684   8.212  34.373  0.2870  0.1200 -0.1038
 1259BOLB   C3D30215  22.694   8.026  33.935 -0.2502  0.2612 -0.1468
 1259BOLB   C4D30216  22.524   7.984  33.534 -0.0707  0.3959  0.0553
 1260BOLB   NC130217  21.123  -1.900  25.958 -0.2698 -0.0761 -0.1854
 1260BOLB   PO130218  21.515  -1.784  26.193  0.5069  0.1585  0.0460
 1260BOLB   GL130219  21.578  -2.266  26.172 -0.3322 -0.2231 -0.0321
 1260BOLB   GL230220  21.853  -2.481  26.052 -0.1340 -0.1586  0.0549
 1260BOLB   C1A30221  21.538  -2.657  26.427  0.3639  0.2150 -0.0127
 1260BOLB   C2A30222  21.762  -2.901  26.669 -0.1976 -0.5072  0.0576
 1260BOLB   C3A30223  21.980  -3.096  26.963 -0.1225 -0.0597  0.1047
 1260BOLB   C4A30224  22.082  -3.441  27.128 -0.1404  0.4700  0.0956
 1260BOLB   C1B30225  22.017  -2.927  25.858 -0.1169  0.1475  0.2223
 1260BOLB   C2B30226  21.975  -3.355  25.833 -0.3586  0.1091  0.1440
 1260BOLB   C3B30227  22.150  -3.680  25.608  0.1470 -0.0885 -0.1263
 1260BOLB   C4B30228  22.601  -3.816  25.446  0.2669  0.0251 -0.0884
 1260BOLB   NC230229  22.095  -5.982  27.382  0.0926  0.2249  0.1621
 1260BOLB   PO230230  22.483  -6.018  27.287 -0.0798  0.2206  0.0185
 1260BOLB   GL330231  22.373  -5.497  27.337  0.1763 -0.0600  0.0182
 1260BOLB   GL430232  22.317  -5.372  27.067  0.0348  0.2763  0.3062
 1260BOLB   C1C30233  22.248  -4.929  27.386 -0.2360 -0.0602  0.0752
 1260BOLB   C2C30234  21.898  -4.609  27.197  0.0474 -0.0782  0.0654
 1260BOLB   C3C30235  21.754  -4.201  27.172 -0.1241  0.0238 -0.2829
 1260BOLB   C4C30236  21.973  -3.839  27.331  0.1411  0.1522  0.0996
 1260BOLB   C1D30237  21.899  -5.268  27.259  0.0860 -0.2326 -0.0294
 1260BOLB   C2D30238  21.512  -4.981  27.168  0.0540  0.1046  0.1227
 1260BOLB   C3D30239  21.396  -4.620  27.133 -0.0132 -0.2437 -0.0046
 1260BOLB   C4D30240  21.321  -4.331  27.492  0.0092 -0.3646 -0.4200
 1261BOLB   NC130241  14.871  -2.153  29.647 -0.0626 -0.0861  0.0188
 1261BOLB   PO130242  14.697  -2.536  29.451  0.0901  0.0138 -0.1419
 1261BOLB   GL130243  14.765  -2.814  29.748  0.0230 -0.2267  0.0820
 1261BOLB   GL230244  14.996  -2.634  29.940  0.2185 -0.2116  0.3379
 1261BOLB   C1A30245  14.590  -2.918  30.123 -0.1275  0.2844 -0.1351
 1261BOLB   C2A30246  14.361  -3.301  30.399  0.2002  0.1505  0.1352
 1261BOLB   C3A30247  14.354  -3.686  30.470  0.1605  0.2914 -0.1927
 1261BOLB   C4A30248  14.412  -4.098  30.548  0.0161 -0.0471  0.1593
 1261BOLB   C1B30249  15.044  -2.931  30.293 -0.3994  0.1251 -0.1747
 1261BOLB   C2B30250  15.187  -3.201  30.548  0.1840 -0.1352 -0.1914
 1261BOLB   C3B30251  15.143  -3.388  30.959  0.0208  0.0466  0.3117
 1261BOLB   C4B30252  15.272  -3.771  31.218  0.0365  0.3389  0.2352
 1261BOLB   NC230253  15.228  -6.118  31.338  0.0192  0.2104  0.1751
 1261BOLB   PO230254  15.454  -6.267  31.073  0.5595  0.0631 -0.2285
 1261BOLB   GL330255  15.356  -5.915  30.857 -0.4434 -0.1357  0.2055
 1261BOLB   GL430256  15.081  -6.019  30.558 -0.0398  0.0217  0.1502
 1261BOLB   C1C30257  15.132  -5.560  31.044  0.0163 -0.0181 -0.1500
 1261BOLB   C2C30258  15.053  -5.137  30.889  0.1897 -0.4165 -0.0335
 1261BOLB   C3C30259  14.860  -4.833  30.715 -0.1261 -0.1319  0.2424
 1261BOLB   C4C30260  14.537  -4.592  30.589 -0.0182  0.4798  0.0556
 1261BOLB   C1D30261  15.302  -5.622  30.408 -0.0262 -0.0490 -0.0854
 1261BOLB   C2D30262  15.516  -5.303  30.203 -0.0256 -0.0073  0.2118
 1261BOLB   C3D30263  15.731  -4.991  30.403  0.2261 -0.0784  0.1125
 1261BOLB   C4D30264  16.111  -4.725  30.376 -0.3478 -0.0873  0.1977
 1262BOLB   NC130265  20.833   9.794  29.364 -0.0002 -0.3024  0.0068
 1262BOLB   PO130266  21.176   9.339  29.463 -0.0036  0.0470  0.2358
 1262BOLB   GL130267  21.482   9.424  29.843  0.0380 -0.0094 -0.0457
 1262BOLB   GL230268  21.751   9.530  29.733  0.2035 -0.2973 -0.2362
 1262BOLB   C1A30269  21.590   9.529  30.304 -0.0798 -0.2768 -0.1060
 1262BOLB   C2A30270  21.901   9.722  30.660  0.1188 -0.1666  0.1824
 1262BOLB   C3A30271  22.239   9.860  30.636 -0.0142 -0.2232 -0.1688
 1262BOLB   C4A30272  22.491  10.130  30.562 -0.3047  0.0277  0.0204
 1262BOLB   C1B30273  22.108   9.723  29.799 -0.0603  0.0733 -0.2744
 1262BOLB   C2B30274  22.002   9.940  30.130  0.2173  0.2977 -0.0002
 1262BOLB   C3B30275  21.833  10.149  30.415  0.0796 -0.3775 -0.4268
 1262BOLB   C4B30276  22.043  10.420  30.777  0.0998  0.0668 -0.0955
 1262BOLB   NC230277  23.756  12.110  32.154 -0.0045  0.1675  0.0919
 1262BOLB   PO230278  23.639  11.650  32.233  0.0234 -0.0544 -0.3129
 1262BOLB   GL330279  23.478  11.415  31.954 -0.3994  0.2356  0.0981
 1262BOLB   GL430280  23.502  11.093  32.075 -0.2315  0.2334 -0.1159
 1262BOLB   C1C30281  23.529  11.239  31.561  0.2963 -0.0170  0.0260
 1262BOLB   C2C30282  23.326  10.931  31.266 -0.1989  0.0256 -0.0678
 1262BOLB   C3C30283  23.078  10.667  31.102  0.0225  0.3222 -0.0170
 1262BOLB   C4C30284  22.788  10.500  30.750 -0.1111  0.0055  0.1086
 1262BOLB   C1D30285  23.422  10.760  31.756  0.0356 -0.0412  0.1419
 1262BOLB   C2D30286  23.223  10.463  31.567 -0.0248  0.0302  0.3881
 1262BOLB   C3D30287  22.806  10.326  31.368  0.0538  0.1001  0.2632
 1262BOLB   C4D30288  22.476  10.424  31.080 -0.1489 -0.1832  0.2542
 1263BOLB   NC130289  15.442   6.875  17.761  0.1924 -0.1034  0.3368
 1263BOLB   PO130290  15.174   6.890  17.362  0.1563  0.0119  0.1096
 1263BOLB   GL130291  14.996   7.021  16.952  0.0250 -0.1781  0.1421
 1263BOLB   GL230292  15.273   7.244  16.841  0.1806 -0.1237 -0.0041
 1263BOLB   C1A30293  14.893   6.953  16.532 -0.2675 -0.1738 -0.3176
 1263BOLB   C2A30294  14.530   7.056  16.310  0.0915  0.0063 -0.0140
 1263BOLB   C3A30295  14.253   7.179  15.896  0.1344  0.0619 -0.2129
 1263BOLB   C4A30296  14.219   7.433  15.650  0.3946 -0.0692 -0.3431
 1263BOLB   C1B30297  15.499   7.617  16.566  0.0054  0.0081 -0.0358
 1263BOLB   C2B30298  15.677   7.843  16.125  0.0879 -0.1404  0.3566
 1263BOLB   C3B30299  15.587   8.197  15.898  0.0193  0.1635  0.1999
 1263BOLB   C4B30300  15.271   8.426  15.728  0.1900 -0.0632 -0.0895
 1263BOLB   NC230301  14.038   9.248  14.009  0.1306  0.0399 -0.2371
 1263BOLB   PO230302  13.614   9.049  14.137  0.2084 -0.0532 -0.0220
 1263BOLB   GL330303  13.835   8.801  14.305 -0.0631 -0.0481  0.0374
 1263BOLB   GL430304  14.103   8.904  14.519 -0.2006 -0.0555  0.0564
 1263BOLB   C1C30305  14.087   8.394  14.478 -0.1481  0.0248 -0.0248
 1263BOLB   C2C30306  14.322   8.118  14.814 -0.5186 -0.1914 -0.0203
 1263BOLB   C3C30307  14.542   8.050  15.173 -0.2063 -0.1120 -0.1414
 1263BOLB   C4C30308  14.433   7.792  15.626 -0.1973  0.2312  0.0027
 1263BOLB   C1D30309  13.901   9.081  14.823  0.0152  0.0916  0.1956
 1263BOLB   C2D30310  13.889   9.225  15.250 -0.1647 -0.0445  0.1480
 1263BOLB   C3D30311  14.071   9.051  15.633  0.0043 -0.1066  0.1236
 1263BOLB   C4D30312  13.915   8.699  15.829  0.2001 -0.0476 -0.0416
 1264BOLB   NC130313  15.752   2.368  16.614 -0.1692  0.1429 -0.0149
 1264BOLB   PO130314  16.003   2.594  16.268  0.0762  0.1867 -0.0921
 1264BOLB   GL130315  15.996   2.827  15.844  0.1985 -0.1273  0.1368
 1264BOLB   GL230316  15.848   3.190  15.845  0.1851  0.2851  0.1419
 1264BOLB   C1A30317  15.941   2.723  15.400 -0.1210 -0.0103 -0.0337
 1264BOLB   C2A30318  15.808   2.563  14.931  0.0411 -0.0731  0.0565
 1264BOLB   C3A30319  15.741   2.330  14.554 -0.4049  0.3606 -0.1763
 1264BOLB   C4A30320  15.370   2.260  14.547  0.1942  0.1901  0.6212
 1264BOLB   C1B30321  15.508   3.086  15.542  0.1580 -0.1564  0.1371
 1264BOLB   C2B30322  15.382   3.214  15.244  0.0456  0.0968 -0.1566
 1264BOLB   C3B30323  15.319   3.689  15.052 -0.1752  0.1608  0.1740
 1264BOLB   C4B30324  15.007   3.852  15.100  0.0462  0.2285  0.0662
 1264BOLB   NC230325  13.494   1.747  12.860 -0.1041 -0.0081 -0.0447
 1264BOLB   PO230326  13.827   1.990  12.803  0.0231  0.0286  0.0213
 1264BOLB   GL330327  13.910   1.851  13.150 -0.1009  0.0403 -0.3552
 1264BOLB   GL430328  14.140   2.020  13.185 -0.1029 -0.2384 -0.0282
 1264BOLB   C1C30329  14.094   1.719  13.568 -0.2179 -0.1206 -0.1521
 1264BOLB   C2C30330  14.314   1.819  13.910 -0.1548 -0.2278  0.3139
 1264BOLB   C3C30331  14.676   1.941  14.222  0.1470 -0.2479 -0.2769
 1264BOLB   C4C30332  14.980   2.173  14.529 -0.0740 -0.1253  0.4051
 1264BOLB   C1D30333  14.470   2.026  13.444 -0.0464  0.1186 -0.0555
 1264BOLB   C2D30334  14.748   2.121  13.699  0.1081 -0.1545  0.0427
 1264BOLB   C3D30335  14.856   2.438  14.061  0.2555  0.2134 -0.0367
 1264BOLB   C4D30336  14.978   2.737  14.400 -0.3258  0.0733 -0.0943
 1265BOLB   NC130337  23.954   7.058  27.616 -0.0056  0.0399 -0.1918
 1265BOLB   PO130338  24.113   7.323  27.574  0.0558  0.0117 -0.5121
 1265BOLB   GL130339  24.530   7.410  27.426  0.0065 -0.0627  0.1133
 1265BOLB   GL230340  24.538   7.593  27.705 -0.0412 -0.0291  0.1670
 1265BOLB   C1A30341  24.771   7.719  27.313 -0.3151 -0.1005  0.1813
 1265BOLB   C2A30342  25.183   7.913  27.317  0.0051 -0.1269  0.0051
 1265BOLB   C3A30343  25.580   7.894  27.187  0.0251 -0.0196 -0.4347
 1265BOLB   C4A30344  25.961   7.769  26.924 -0.3903 -0.1932 -0.1788
 1265BOLB   C1B30345  24.936   7.513  27.800  0.1206 -0.2036 -0.3302
 1265BOLB   C2B30346  25.370   7.577  28.038 -0.0083  0.1894  0.0451
 1265BOLB   C3B30347  25.803   7.443  28.126  0.0389  0.1314  0.1303
 1265BOLB   C4B30348  26.163   7.494  28.399 -0.3142 -0.1238 -0.3002
 1265BOLB   NC230349  28.218   6.980  27.068  0.2060  0.1144  0.1855
 1265BOLB   PO230350  28.278   7.339  27.307 -0.3566  0.2909 -0.3252
 1265BOLB   GL330351  27.861   7.367  27.216 -0.0955 -0.1415  0.2152
 1265BOLB   GL430352  27.680   7.414  27.522  0.4595 -0.4394  0.1456
 1265BOLB   C1C30353  27.403   7.482  27.001  0.2799  0.1760  0.1122
 1265BOLB   C2C30354  27.111   7.363  26.877  0.1775 -0.2353 -0.2088
 1265BOLB   C3C30355  26.720   7.317  26.701  0.1610  0.0800 -0.0934
 1265BOLB   C4C30356  26.351   7.600  26.747 -0.2936 -0.4633  0.1348
 1265BOLB   C1D30357  27.295   7.176  27.381  0.3165 -0.2612 -0.0360
 1265BOLB   C2D30358  26.871   7.022  27.330  0.0981 -0.2298  0.1426
 1265BOLB   C3D30359  26.520   7.055  27.628  0.4874 -0.1926  0.1670
 1265BOLB   C4D30360  26.171   7.339  27.839  0.2226 -0.1372 -0.1696
 1266BOLB   NC130361  11.887  -1.442  28.711 -0.2409 -0.0834 -0.0813
 1266BOLB   PO130362  11.946  -1.656  29.234 -0.1846  0.1988  0.0139
 1266BOLB   GL130363  11.662  -2.064  29.321  0.1460  0.1359  0.0309
 1266BOLB   GL230364  11.918  -2.326  29.557  0.1675 -0.2230 -0.1160
 1266BOLB   C1A30365  11.487  -2.430  29.292  0.2046  0.0047  0.1590
 1266BOLB   C2A30366  11.217  -2.796  29.529  0.1302  0.2152 -0.0090
 1266BOLB   C3A30367  11.015  -3.160  29.665 -0.1760  0.1289  0.3203
 1266BOLB   C4A30368  11.007  -3.635  29.852 -0.1570  0.2090 -0.0324
 1266BOLB   C1B30369  11.517  -2.383  29.754 -0.2702 -0.2874  0.0463
 1266BOLB   C2B30370  11.099  -2.660  29.991  0.2834  0.1787 -0.0593
 1266BOLB   C3B30371  10.828  -2.980  30.112  0.3697  0.1503  0.4216
 1266BOLB   C4B30372  10.723  -3.362  30.222 -0.2147  0.2155 -0.1965
 1266BOLB   NC230373  10.785  -5.480  31.348  0.0645  0.0196 -0.2116
 1266BOLB   PO230374  10.313  -5.458  31.092  0.0227 -0.1682 -0.0282
 1266BOLB   GL330375  10.615  -5.257  30.855  0.2641  0.1212  0.0759
 1266BOLB   GL430376  10.572  -4.781  30.814  0.1400  0.0187  0.1525
 1266BOLB   C1C30377  10.605  -5.052  30.364  0.0146 -0.0792 -0.1456
 1266BOLB   C2C30378  10.611  -4.685  30.165 -0.1238 -0.0771  0.3314
 1266BOLB   C3C30379  10.775  -4.348  29.994 -0.1428  0.0118 -0.0272
 1266BOLB   C4C30380  11.015  -4.091  29.948  0.2854 -0.1067 -0.0442
 1266BOLB   C1D30381  10.883  -4.532  31.051 -0.3044  0.0101 -0.0712
 1266BOLB   C2D30382  11.213  -4.387  31.216 -0.0074 -0.0717  0.0314
 1266BOLB   C3D30383  11.502  -4.071  31.064 -0.0633 -0.1175  0.2618
 1266BOLB   C4D30384  11.433  -3.669  30.889 -0.0299 -0.2243 -0.2882
 1267BOLB   NC130385  22.427   9.147  23.542  0.0726 -0.0333  0.0786
 1267BOLB   PO130386  22.596   9.459  23.901  0.3208 -0.1911  0.1318
 1267BOLB   GL130387  22.977   9.489  23.818 -0.1262 -0.1285 -0.1120
 1267BOLB   GL230388  23.228   9.223  23.931 -0.1531  0.0652  0.2395
 1267BOLB   C1A30389  23.197   9.637  23.570 -0.0357 -0.4874  0.0821
 1267BOLB   C2A30390  23.531   9.954  23.521  0.0464  0.1234 -0.3085
 1267BOLB   C3A30391  23.608  10.316  23.531  0.1101  0.3172  0.0544
 1267BOLB   C4A30392  23.981  10.501  23.594  0.0101  0.0878  0.1706
 1267BOLB   C1B30393  23.427   9.655  24.083 -0.0632 -0.1093  0.2656
 1267BOLB   C2B30394  23.766   9.884  24.348  0.0681  0.0255  0.0117
 1267BOLB   C3B30395  24.188  10.146  24.401  0.2574  0.3225  0.0241
 1267BOLB   C4B30396  24.494  10.505  24.381 -0.0477  0.0064 -0.4483
 1267BOLB   NC230397  25.952  11.958  24.549  0.1774 -0.1777 -0.1652
 1267BOLB   PO230398  25.556  12.163  24.739  0.0257 -0.0795  0.3978
 1267BOLB   GL330399  25.484  11.800  24.643 -0.0036  0.2305  0.3559
 1267BOLB   GL430400  25.682  11.542  24.509  0.1553 -0.0456 -0.0743
 1267BOLB   C1C30401  25.220  11.614  24.323  0.3795 -0.1432  0.1250
 1267BOLB   C2C30402  24.868  11.416  24.267 -0.2230  0.2939  0.1554
 1267BOLB   C3C30403  24.648  11.197  23.943 -0.2257  0.2266 -0.1967
 1267BOLB   C4C30404  24.411  10.865  23.663  0.0588  0.0397  0.1775
 1267BOLB   C1D30405  25.367  11.275  24.679  0.0420  0.1012 -0.0669
 1267BOLB   C2D30406  24.986  11.238  24.724 -0.2143 -0.2514 -0.0316
 1267BOLB   C3D30407  24.668  11.085  24.911 -0.0546  0.0222 -0.1562
 1267BOLB   C4D30408  24.252  10.891  24.804 -0.1337 -0.0807  0.2868
 1268BOLB   NC130409  20.879   4.755  32.343 -0.0896 -0.2714 -0.1416
 1268BOLB   PO130410  20.874   5.164  32.373 -0.1281 -0.2879  0.0419
 1268BOLB   GL130411  21.000   5.061  32.750  0.1966 -0.1283  0.2348
 1268BOLB   GL230412  21.036   4.740  32.808  0.1012  0.0059  0.2772
 1268BOLB   C1A30413  21.172   5.058  33.188 -0.1483  0.2777 -0.1979
 1268BOLB   C2A30414  21.361   5.153  33.562  0.2396 -0.0776  0.1768
 1268BOLB   C3A30415  21.543   5.404  33.783  0.1911 -0.3811 -0.4189
 1268BOLB   C4A30416  21.774   5.430  34.029 -0.2498 -0.2371  0.1561
 1268BOLB   C1B30417  21.180   4.531  33.282  0.0557  0.0473 -0.0312
 1268BOLB   C2B30418  21.309   4.601  33.630 -0.2611  0.2611 -0.1540
 1268BOLB   C3B30419  21.302   4.548  34.133 -0.0995 -0.2147  0.2192
 1268BOLB   C4B30420  21.521   4.728  34.432 -0.0962 -0.3111  0.0830
 1268BOLB   NC230421  22.255   6.301  36.080  0.0843  0.0796  0.1142
 1268BOLB   PO230422  22.433   6.509  35.751  0.1251  0.0574  0.3236
 1268BOLB   GL330423  22.157   6.229  35.576 -0.0326  0.0394  0.2270
 1268BOLB   GL430424  22.064   5.976  35.800 -0.1090  0.2356 -0.0065
 1268BOLB   C1C30425  22.359   5.835  35.263  0.0405 -0.3379  0.3302
 1268BOLB   C2C30426  22.093   5.577  34.983 -0.2544  0.0728 -0.1354
 1268BOLB   C3C30427  21.942   5.714  34.666  0.2087 -0.1748  0.1734
 1268BOLB   C4C30428  21.750   5.608  34.429  0.2253  0.0040 -0.0245
 1268BOLB   C1D30429  21.864   5.903  35.297 -0.2180 -0.3122 -0.0988
 1268BOLB   C2D30430  21.518   6.100  34.961 -0.4124  0.0937 -0.0253
 1268BOLB   C3D30431  21.135   6.105  34.713 -0.1066 -0.0236 -0.0408
 1268BOLB   C4D30432  20.728   5.941  34.482  0.3361  0.0791  0.3276
 1269BOLB   NC130433  24.674   2.079  23.562 -0.2067  0.0110  0.0984
 1269BOLB   PO130434  24.716   2.208  23.168  0.0789 -0.3709 -0.3260
 1269BOLB   GL130435  24.880   2.476  22.976 -0.0085 -0.0224 -0.0598
 1269BOLB   GL230436  25.092   2.253  22.805  0.0683 -0.0090 -0.0569
 1269BOLB   C1A30437  25.279   2.703  22.885  0.1753 -0.0858 -0.1283
 1269BOLB   C2A30438  25.307   3.199  22.952  0.0943  0.1241  0.0199
 1269BOLB   C3A30439  25.710   3.348  22.828  0.0345  0.2465 -0.1298
 1269BOLB   C4A30440  26.073   3.222  23.055  0.2559 -0.2231  0.0761
 1269BOLB   C1B30441  25.571   2.340  22.618 -0.3601  0.0138  0.1464
 1269BOLB   C2B30442  25.964   2.104  22.452  0.1517  0.2188  0.1113
 1269BOLB   C3B30443  26.303   2.004  22.132 -0.2172 -0.0500  0.1507
 1269BOLB   C4B30444  26.416   1.899  21.692 -0.1737  0.1370  0.0920
 1269BOLB   NC230445  28.436   2.494  22.686  0.0027  0.0356  0.1507
 1269BOLB   PO230446  28.489   2.277  23.149  0.5196  0.1106  0.0257
 1269BOLB   GL330447  28.127   2.538  23.092 -0.2382 -0.3909 -0.0988
 1269BOLB   GL430448  28.014   2.314  22.986 -0.0521  0.1712  0.2811
 1269BOLB   C1C30449  27.751   2.739  23.242  0.0157  0.1871  0.1859
 1269BOLB   C2C30450  27.373   3.040  23.471  0.3915  0.1874 -0.2852
 1269BOLB   C3C30451  26.979   3.196  23.311 -0.1922  0.2295 -0.1759
 1269BOLB   C4C30452  26.498   3.412  23.145  0.1430  0.1159  0.2422
 1269BOLB   C1D30453  27.707   2.227  23.247 -0.0327 -0.3442 -0.1858
 1269BOLB   C2D30454  27.256   2.082  23.259 -0.2959 -0.2302  0.4072
 1269BOLB   C3D30455  26.843   1.931  23.276 -0.0592 -0.2497  0.0144
 1269BOLB   C4D30456  26.475   1.797  23.001 -0.1945 -0.0531 -0.3974
 1270BOLB   NC130457  24.326   3.969  24.523 -0.3319  0.1126  0.0723
 1270BOLB   PO130458  24.431   4.275  24.255 -0.1283 -0.4596  0.0870
 1270BOLB   GL130459  24.791   4.494  24.063  0.1997 -0.0413 -0.1625
 1270BOLB   GL230460  24.853   4.267  23.837 -0.1367 -0.0130  0.0855
 1270BOLB   C1A30461  25.213   4.669  23.956  0.2637 -0.1807  0.1614
 1270BOLB   C2A30462  25.567   4.827  23.947  0.1587 -0.0344 -0.2806
 1270BOLB   C3A30463  26.030   4.721  23.931  0.0118  0.0943 -0.1681
 1270BOLB   C4A30464  26.276   4.995  23.647 -0.0647  0.0309 -0.0953
 1270BOLB   C1B30465  25.085   4.190  23.500 -0.0296 -0.2797  0.1882
 1270BOLB   C2B30466  25.466   4.286  23.243  0.0675  0.1595  0.3893
 1270BOLB   C3B30467  25.969   4.311  23.118 -0.1178 -0.1560 -0.2424
 1270BOLB   C4B30468  26.298   4.617  23.305 -0.0981  0.2558 -0.0705
 1270BOLB   NC230469  28.746   5.527  24.113  0.1351 -0.2773  0.1440
 1270BOLB   PO230470  28.702   5.072  24.122 -0.0346  0.1708  0.3534
 1270BOLB   GL330471  28.276   5.118  24.038 -0.0103 -0.1166  0.2193
 1270BOLB   GL430472  28.055   4.904  24.191 -0.1685  0.1476  0.2230
 1270BOLB   C1C30473  27.896   5.358  23.974 -0.1165 -0.0193  0.3191
 1270BOLB   C2C30474  27.468   5.419  24.050 -0.0724  0.0611 -0.2660
 1270BOLB   C3C30475  27.014   5.322  23.926  0.2470  0.2152  0.0796
 1270BOLB   C4C30476  26.634   5.189  23.763 -0.0193 -0.1892 -0.1218
 1270BOLB   C1D30477  27.650   4.827  24.157 -0.2937  0.0145  0.1950
 1270BOLB   C2D30478  27.187   4.808  24.249 -0.1074  0.4144 -0.0853
 1270BOLB   C3D30479  26.730   4.932  24.238  0.0458 -0.4778 -0.0022
 1270BOLB   C4D30480  26.491   4.872  24.543  0.1233 -0.2848  0.1016
 1271BOLB   NC130481  17.401  -1.786  29.729 -0.1121 -0.1092 -0.2204
 1271BOLB   PO130482  17.010  -1.937  29.969 -0.2658 -0.1395  0.1266
 1271BOLB   GL130483  16.844  -2.139  30.335 -0.1852  0.0016  0.2705
 1271BOLB   GL230484  17.157  -2.323  30.467 -0.2795  0.1222  0.1402
 1271BOLB   C1A30485  16.710  -2.542  30.482  0.0339  0.2725 -0.1801
 1271BOLB   C2A30486  16.502  -2.746  30.832 -0.0823  0.2018 -0.1273
 1271BOLB   C3A30487  16.338  -3.032  31.143 -0.3858  0.1274 -0.1367
 1271BOLB   C4A30488  16.455  -3.338  31.496 -0.0358  0.2517 -0.1096
 1271BOLB   C1B30489  17.427  -2.682  30.708  0.1933 -0.4186  0.2560
 1271BOLB   C2B30490  17.686  -2.935  30.844 -0.2500  0.0212  0.1937
 1271BOLB   C3B30491  17.800  -3.327  31.127  0.0989 -0.0286 -0.0382
 1271BOLB   C4B30492  18.102  -3.742  31.205 -0.0019  0.2124 -0.1963
 1271BOLB   NC230493  15.891  -4.818  33.203 -0.3189  0.4594 -0.1490
 1271BOLB   PO230494  15.646  -4.899  32.804  0.0071  0.1937 -0.1490
 1271BOLB   GL330495  15.900  -4.650  32.508  0.1650 -0.1379  0.1346
 1271BOLB   GL430496  15.825  -4.373  32.778 -0.0644 -0.1710  0.2350
 1271BOLB   C1C30497  16.113  -4.300  32.272 -0.2062 -0.3409  0.1797
 1271BOLB   C2C30498  16.317  -3.903  32.263 -0.0025  0.0820  0.1274
 1271BOLB   C3C30499  16.431  -3.675  32.006  0.0831 -0.0647 -0.0172
 1271BOLB   C4C30500  16.737  -3.582  31.774  0.0302  0.2110  0.0111
 1271BOLB   C1D30501  15.498  -3.993  32.882 -0.1314  0.0944  0.1887
 1271BOLB   C2D30502  15.360  -3.655  32.641 -0.0764  0.0452 -0.3738
 1271BOLB   C3D30503  15.225  -3.199  32.664 -0.3142  0.0628 -0.0005
 1271BOLB   C4D30504  14.997  -2.896  32.824 -0.1140  0.0267  0.0301
 1272BOLB   NC130505   9.422   9.522  23.735 -0.0282 -0.0552  0.1046
 1272BOLB   PO130506   9.163   9.270  23.936 -0.2710 -0.0206 -0.0725
 1272BOLB   GL130507   8.772   9.539  23.845 -0.0224 -0.1099 -0.0676
 1272BOLB   GL230508   8.923   9.858  23.668 -0.1635  0.1886 -0.0141
 1272BOLB   C1A30509   8.499   9.597  23.499 -0.4628 -0.0012 -0.0145
 1272BOLB   C2A30510   8.180   9.887  23.510 -0.0855  0.2293  0.0529
 1272BOLB   C3A30511   7.811  10.130  23.376 -0.0386 -0.0167 -0.0471
 1272BOLB   C4A30512   7.434  10.219  23.119 -0.1896  0.0491 -0.0007
 1272BOLB   C1B30513   8.620  10.143  23.560 -0.0616  0.2254  0.1898
 1272BOLB   C2B30514   8.337  10.367  23.332 -0.0753  0.0826  0.1267
 1272BOLB   C3B30515   8.009  10.388  23.007 -0.5921 -0.2051  0.1626
 1272BOLB   C4B30516   7.644  10.548  22.830 -0.0727 -0.1073 -0.0926
 1272BOLB   NC230517   5.383  11.493  21.875  0.0813  0.0904 -0.2890
 1272BOLB   PO230518   5.519  11.012  21.954  0.1428 -0.0208  0.1027
 1272BOLB   GL330519   5.788  10.726  22.171 -0.0688 -0.1212 -0.0784
 1272BOLB   GL430520   5.965  10.948  22.241 -0.0629  0.0258  0.3196
 1272BOLB   C1C30521   6.095  10.439  22.423 -0.1073  0.2107 -0.1643
 1272BOLB   C2C30522   6.403  10.545  22.736  0.1597  0.0150  0.5034
 1272BOLB   C3C30523   6.721  10.503  22.985 -0.2446  0.1541  0.2598
 1272BOLB   C4C30524   7.018  10.281  23.105 -0.1553 -0.0221  0.1739
 1272BOLB   C1D30525   6.370  10.740  22.036  0.1854  0.2573 -0.1535
 1272BOLB   C2D30526   6.630  10.430  22.289 -0.0677 -0.2218 -0.0045
 1272BOLB   C3D30527   6.769  10.142  22.589 -0.0966  0.0233 -0.3111
 1272BOLB   C4D30528   6.827   9.819  22.970  0.0893  0.1571  0.5626
 1273BOLB   NC130529  17.051  -4.679  21.273 -0.2768  0.2704  0.1274
 1273BOLB   PO130530  16.573  -4.542  21.449 -0.1689 -0.0709  0.3052
 1273BOLB   GL130531  16.623  -4.961  21.397 -0.2870 -0.3699  0.1051
 1273BOLB   GL230532  16.889  -5.014  21.643  0.1354  0.1235  0.0435
 1273BOLB   C1A30533  16.810  -5.341  21.199 -0.4308 -0.0154 -0.5717
 1273BOLB   C2A30534  16.557  -5.535  20.993  0.0737  0.0653  0.2064
 1273BOLB   C3A30535  16.387  -5.903  20.974  0.2320 -0.2010  0.1085
 1273BOLB   C4A30536  16.366  -6.194  20.706  0.1622  0.2212  0.1559
 1273BOLB   C1B30537  17.144  -5.355  21.580 -0.0130 -0.1180 -0.2943
 1273BOLB   C2B30538  17.499  -5.635  21.553 -0.2485 -0.1451 -0.1984
 1273BOLB   C3B30539  17.462  -6.046  21.423  0.0079 -0.1282 -0.1329
 1273BOLB   C4B30540  17.432  -6.290  21.819 -0.0896  0.1028 -0.0771
 1273BOLB   NC230541  15.429  -8.138  19.742  0.1541 -0.1284  0.3097
 1273BOLB   PO230542  15.878  -8.344  19.763  0.4003  0.0075 -0.0184
 1273BOLB   GL330543  16.101  -8.001  19.926 -0.0168  0.0945 -0.5884
 1273BOLB   GL430544  16.318  -7.855  19.733  0.2203  0.1863 -0.5675
 1273BOLB   C1C30545  16.042  -7.689  20.221 -0.0327  0.1122 -0.0048
 1273BOLB   C2C30546  16.326  -7.393  20.432 -0.1422  0.4878 -0.0488
 1273BOLB   C3C30547  16.262  -6.892  20.395 -0.0780 -0.3657  0.0347
 1273BOLB   C4C30548  16.357  -6.488  20.524  0.1017  0.0906  0.2492
 1273BOLB   C1D30549  16.471  -7.552  19.375  0.0921  0.0272  0.1883
 1273BOLB   C2D30550  16.427  -7.059  19.281  0.1141  0.1159  0.0485
 1273BOLB   C3D30551  16.418  -6.671  19.351 -0.2952  0.0191 -0.3054
 1273BOLB   C4D30552  16.274  -6.327  19.377 -0.1301  0.0977  0.1596
 1274BOLB   NC130553  10.554  -1.002  29.026  0.1141 -0.1260  0.1122
 1274BOLB   PO130554  10.331  -1.107  29.256  0.2462  0.0149  0.1245
 1274BOLB   GL130555  10.263  -1.478  29.400 -0.1975 -0.1700  0.0080
 1274BOLB   GL230556  10.098  -1.411  29.596  0.2103 -0.1509 -0.1466
 1274BOLB   C1A30557  10.213  -1.868  29.478 -0.1845  0.3381  0.0839
 1274BOLB   C2A30558  10.095  -2.278  29.630 -0.0427  0.1956 -0.2568
 1274BOLB   C3A30559   9.737  -2.621  29.606  0.0961 -0.3326 -0.0943
 1274BOLB   C4A30560   9.432  -2.988  29.634 -0.1662 -0.1756 -0.1276
 1274BOLB   C1B30561   9.875  -1.783  29.848  0.1198 -0.1065 -0.1285
 1274BOLB   C2B30562   9.672  -2.103  29.826 -0.1738 -0.1371  0.0676
 1274BOLB   C3B30563   9.338  -2.348  29.792 -0.2034 -0.6200 -0.0740
 1274BOLB   C4B30564   9.065  -2.491  30.071 -0.1057 -0.1739 -0.2027
 1274BOLB   NC230565   7.967  -3.784  31.506 -0.1538  0.1615  0.0080
 1274BOLB   PO230566   8.058  -4.091  31.222  0.2482  0.3295  0.1224
 1274BOLB   GL330567   8.159  -3.730  30.974  0.3780 -0.2100 -0.1880
 1274BOLB   GL430568   8.031  -3.548  30.772  0.0781 -0.1690 -0.0455
 1274BOLB   C1C30569   8.489  -3.659  30.817  0.0101  0.0862  0.4418
 1274BOLB   C2C30570   8.885  -3.724  30.486 -0.2292 -0.0325  0.0297
 1274BOLB   C3C30571   8.990  -3.470  30.185 -0.5545 -0.2918  0.0114
 1274BOLB   C4C30572   9.207  -3.157  29.895 -0.1775 -0.1431  0.0251
 1274BOLB   C1D30573   8.130  -3.114  30.713 -0.0118  0.0153 -0.0575
 1274BOLB   C2D30574   8.027  -2.815  31.057  0.1588  0.2304  0.2726
 1274BOLB   C3D30575   8.147  -2.382  31.252  0.2006 -0.1042  0.0030
 1274BOLB   C4D30576   8.206  -2.217  31.670  0.0552  0.1057  0.4524
 1275BOLB   NC130577  10.960  11.158  23.892 -0.0396 -0.0131  0.0628
 1275BOLB   PO130578  11.285  11.306  24.202 -0.2226  0.0986 -0.1539
 1275BOLB   GL130579  10.933  11.548  24.216  0.1484  0.0963  0.0921
 1275BOLB   GL230580  10.766  11.623  24.476 -0.0640 -0.1717 -0.0171
 1275BOLB   C1A30581  10.705  11.784  23.939  0.1265  0.3231  0.1272
 1275BOLB   C2A30582  10.533  12.179  23.683  0.0278  0.0088 -0.1091
 1275BOLB   C3A30583  10.434  12.493  23.402  0.0958  0.2001 -0.0928
 1275BOLB   C4A30584  10.228  12.572  23.119  0.0836  0.4233  0.1298
 1275BOLB   C1B30585  10.453  11.855  24.385  0.0330  0.1464 -0.1843
 1275BOLB   C2B30586  10.124  12.011  24.404  0.0623  0.0997 -0.2005
 1275BOLB   C3B30587   9.874  12.381  24.245 -0.2490  0.2944 -0.0191
 1275BOLB   C4B30588   9.619  12.359  23.901 -0.0288 -0.0260  0.1932
 1275BOLB   NC230589   8.830  14.060  21.585 -0.2529  0.0427  0.2372
 1275BOLB   PO230590   8.475  13.956  21.646 -0.0293  0.1721  0.1421
 1275BOLB   GL330591   8.647  13.528  21.879  0.3141 -0.2312  0.0903
 1275BOLB   GL430592   8.512  13.221  21.960  0.0233 -0.0535 -0.1104
 1275BOLB   C1C30593   8.888  13.286  22.302  0.0542  0.0565  0.2523
 1275BOLB   C2C30594   9.168  13.074  22.627  0.1136 -0.5128  0.5519
 1275BOLB   C3C30595   9.449  12.733  22.734  0.1173  0.0990 -0.2422
 1275BOLB   C4C30596   9.840  12.625  22.950 -0.1040 -0.0596  0.3780
 1275BOLB   C1D30597   8.676  12.812  21.957  0.0945 -0.2840 -0.1078
 1275BOLB   C2D30598   8.761  12.298  22.190  0.1739 -0.0145 -0.3971
 1275BOLB   C3D30599   9.010  11.951  22.217  0.3583  0.0069 -0.1570
 1275BOLB   C4D30600   9.496  11.811  22.159 -0.1863  0.2215 -0.1352
 1276BOLB   NC130601  18.149   4.293  16.413  0.3667  0.1974  0.1344
 1276BOLB   PO130602  17.964   4.161  15.981 -0.1061  0.1105 -0.0806
 1276BOLB   GL130603  17.891   3.746  15.869  0.0468  0.2174 -0.0595
 1276BOLB   GL230604  18.080   3.400  15.976 -0.1454  0.3178 -0.0399
 1276BOLB   C1A30605  18.056   3.522  15.411 -0.0623  0.0700 -0.0252
 1276BOLB   C2A30606  17.990   3.669  15.006  0.3331  0.0284  0.0364
 1276BOLB   C3A30607  18.036   3.713  14.630  0.0830 -0.2653  0.1688
 1276BOLB   C4A30608  17.765   3.629  14.136 -0.0091 -0.0194 -0.4432
 1276BOLB   C1B30609  18.124   3.128  15.678 -0.1059  0.0613 -0.0397
 1276BOLB   C2B30610  18.325   3.135  15.385  0.0260  0.0755  0.0472
 1276BOLB   C3B30611  18.461   2.910  15.004 -0.1602 -0.3585  0.2461
 1276BOLB   C4B30612  18.581   3.025  14.614  0.3090 -0.1919 -0.1081
 1276BOLB   NC230613  16.627   4.161  11.892  0.4300  0.0963  0.5034
 1276BOLB   PO230614  16.971   3.969  11.998 -0.0317  0.0020  0.1851
 1276BOLB   GL330615  16.977   3.942  12.408  0.2282 -0.0234 -0.2769
 1276BOLB   GL430616  16.838   3.687  12.537 -0.0767  0.1549  0.0188
 1276BOLB   C1C30617  16.965   4.035  12.876  0.0165 -0.1988 -0.0214
 1276BOLB   C2C30618  17.311   4.168  13.291  0.1599 -0.1213 -0.1090
 1276BOLB   C3C30619  17.312   4.330  13.726 -0.2951 -0.2849 -0.0070
 1276BOLB   C4C30620  17.474   4.004  13.992  0.0095  0.2050 -0.2943
 1276BOLB   C1D30621  16.767   3.587  12.887 -0.1202 -0.0922  0.0985
 1276BOLB   C2D30622  16.949   3.726  13.283 -0.0281  0.4824 -0.2495
 1276BOLB   C3D30623  17.294   3.765  13.559  0.1313 -0.1893  0.1057
 1276BOLB   C4D30624  17.675   3.601  13.613  0.1691 -0.0234 -0.1363
 1277BOLB   NC130625  13.845   4.166  16.860 -0.3813  0.2500  0.4294
 1277BOLB   PO130626  14.041   4.553  16.743  0.0380  0.1229  0.3581
 1277BOLB   GL130627  14.029   4.748  16.346 -0.0003  0.1729 -0.1627
 1277BOLB   GL230628  14.330   4.691  16.202  0.3557  0.1044 -0.1707
 1277BOLB   C1A30629  13.864   4.827  15.923  0.3259 -0.3268  0.0170
 1277BOLB   C2A30630  13.587   4.888  15.559 -0.3243  0.2956  0.2702
 1277BOLB   C3A30631  13.534   5.098  15.227 -0.0080 -0.0377  0.1298
 1277BOLB   C4A30632  13.579   5.216  14.844 -0.1562 -0.0228 -0.3005
 1277BOLB   C1B30633  14.318   5.027  15.940 -0.1186  0.3487  0.2099
 1277BOLB   C2B30634  14.258   5.074  15.500 -0.0779 -0.0364 -0.4595
 1277BOLB   C3B30635  14.067   5.004  15.077 -0.2492 -0.0585 -0.1613
 1277BOLB   C4B30636  14.175   5.246  14.756 -0.1324  0.0632  0.0884
 1277BOLB   NC230637  14.038   5.917  12.683  0.0511  0.1491 -0.0095
 1277BOLB   PO230638  13.845   6.208  12.901  0.1217  0.1350 -0.0087
 1277BOLB   GL330639  13.653   5.984  13.208 -0.0584  0.1332 -0.1618
 1277BOLB   GL430640  13.306   5.932  13.216 -0.2052 -0.0394 -0.1725
 1277BOLB   C1C30641  13.557   5.573  13.407  0.0172 -0.1651 -0.2973
 1277BOLB   C2C30642  13.527   5.106  13.713  0.1118 -0.2562 -0.2068
 1277BOLB   C3C30643  13.718   5.050  14.093  0.3216  0.1124  0.2973
 1277BOLB   C4C30644  13.733   5.138  14.477 -0.0784  0.0111  0.2549
 1277BOLB   C1D30645  13.072   6.136  13.496  0.0009 -0.3182 -0.2373
 1277BOLB   C2D30646  13.247   5.984  13.855  0.1467  0.0014 -0.5407
 1277BOLB   C3D30647  13.451   5.615  13.952  0.4216  0.1794 -0.1251
 1277BOLB   C4D30648  13.468   5.561  14.457 -0.3263  0.3978 -0.0591
 1278BOLB   NC130649   9.856   3.282  31.204 -0.0753  0.0333  0.0691
 1278BOLB   PO130650   9.865   2.958  31.592 -0.2282  0.3963  0.2095
 1278BOLB   GL130651   9.623   2.918  31.903  0.0719 -0.0730 -0.0819
 1278BOLB   GL230652   9.586   2.769  32.170  0.1025 -0.0192 -0.5738
 1278BOLB   C1A30653   9.103   2.840  31.946  0.0080  0.1688  0.1649
 1278BOLB   C2A30654   8.775   2.672  32.234  0.2838 -0.0442  0.2460
 1278BOLB   C3A30655   8.633   2.271  32.302 -0.3093  0.1157  0.2640
 1278BOLB   C4A30656   8.365   2.188  32.678  0.1341  0.0197 -0.3725
 1278BOLB   C1B30657   9.331   2.858  32.456 -0.1165  0.1526 -0.0056
 1278BOLB   C2B30658   9.021   3.077  32.465  0.2223  0.0161  0.1331
 1278BOLB   C3B30659   8.856   3.165  32.854 -0.1120 -0.0028  0.0324
 1278BOLB   C4B30660   8.894   2.863  33.229 -0.2827  0.1126  0.0401
 1278BOLB   NC230661   7.027   2.154  34.978 -0.0016  0.2404 -0.1030
 1278BOLB   PO230662   7.457   2.044  35.157  0.0862 -0.2216 -0.3435
 1278BOLB   GL330663   7.506   2.140  34.747  0.0916 -0.0790  0.0577
 1278BOLB   GL430664   7.379   2.471  34.808 -0.1367  0.3590  0.0011
 1278BOLB   C1C30665   7.734   2.165  34.349 -0.2133 -0.0779  0.2851
 1278BOLB   C2C30666   8.020   2.248  34.012 -0.1076  0.1729 -0.2068
 1278BOLB   C3C30667   8.111   2.216  33.550 -0.0209 -0.0143  0.0031
 1278BOLB   C4C30668   8.230   2.186  33.183  0.0457  0.1275  0.0509
 1278BOLB   C1D30669   7.556   2.679  34.479  0.2546 -0.3928  0.0621
 1278BOLB   C2D30670   7.454   2.613  34.044  0.1834 -0.0669 -0.0010
 1278BOLB   C3D30671   7.675   2.459  33.688  0.1133  0.1723 -0.3161
 1278BOLB   C4D30672   7.776   2.479  33.177  0.0157 -0.0154 -0.1348
 1279BOLB   NC130673  15.631  10.313  31.345 -0.1521 -0.2083 -0.0031
 1279BOLB   PO130674  15.810   9.984  31.562 -0.4028  0.2736  0.0147
 1279BOLB   GL130675  15.512  10.192  31.947 -0.4780  0.2286  0.0752
 1279BOLB   GL230676  15.858  10.219  32.066  0.1498  0.1461 -0.6083
 1279BOLB   C1A30677  15.278  10.463  32.143 -0.1199  0.3955  0.0358
 1279BOLB   C2A30678  15.408  10.678  32.440 -0.1186  0.1973  0.3238
 1279BOLB   C3A30679  15.576  10.934  32.727  0.2862 -0.2031  0.1417
 1279BOLB   C4A30680  15.422  11.359  32.772 -0.1822  0.3797  0.1026
 1279BOLB   C1B30681  15.943  10.608  32.182 -0.0938  0.0070  0.0723
 1279BOLB   C2B30682  15.956  10.693  32.633 -0.3066  0.2639 -0.1484
 1279BOLB   C3B30683  16.291  11.007  32.876  0.0306 -0.0235  0.0163
 1279BOLB   C4B30684  16.398  11.071  33.328  0.0815 -0.2042 -0.1402
 1279BOLB   NC230685  15.035  12.989  35.321 -0.0482  0.0536 -0.1423
 1279BOLB   PO230686  15.094  12.859  34.783  0.2910 -0.2846 -0.0669
 1279BOLB   GL330687  15.335  12.649  34.507  0.0610 -0.0018  0.1594
 1279BOLB   GL430688  15.481  12.882  34.415 -0.3169  0.2358  0.1906
 1279BOLB   C1C30689  15.299  12.522  34.082  0.2161  0.2004 -0.1815
 1279BOLB   C2C30690  15.119  12.325  33.688 -0.0530  0.0232  0.1047
 1279BOLB   C3C30691  15.204  11.976  33.365 -0.0152  0.2701  0.2471
 1279BOLB   C4C30692  15.326  11.717  32.970 -0.0095 -0.1017 -0.1716
 1279BOLB   C1D30693  15.848  12.590  34.249  0.0650  0.1488  0.2499
 1279BOLB   C2D30694  16.053  12.291  33.984  0.0215  0.3199  0.0340
 1279BOLB   C3D30695  16.159  11.949  33.743  0.1991 -0.0625  0.1131
 1279BOLB   C4D30696  16.345  11.498  33.695  0.2014 -0.1203  0.1663
 1280BOLB   NC130697  10.014   6.467  21.267 -0.3203 -0.1260 -0.0741
 1280BOLB   PO130698   9.691   6.519  20.793  0.3959 -0.1123 -0.0491
 1280BOLB   GL130699   9.389   6.629  20.519  0.3256 -0.0236  0.1957
 1280BOLB   GL230700   9.382   6.953  20.440 -0.3742 -0.0902 -0.0609
 1280BOLB   C1A30701   9.059   6.639  20.191  0.2825  0.1188  0.0209
 1280BOLB   C2A30702   8.764   6.643  19.852 -0.0048 -0.1655 -0.0333
 1280BOLB   C3A30703   8.462   6.825  19.541 -0.0834 -0.0882 -0.1045
 1280BOLB   C4A30704   8.368   7.096  19.232  0.1081 -0.1055 -0.4350
 1280BOLB   C1B30705   9.408   7.282  20.286  0.3178 -0.0580  0.0667
 1280BOLB   C2B30706   9.076   7.479  20.077  0.2347  0.0603 -0.1059
 1280BOLB   C3B30707   8.772   7.741  19.997  0.2001 -0.2654  0.3164
 1280BOLB   C4B30708   8.653   8.128  20.253 -0.4284 -0.1665  0.1866
 1280BOLB   NC230709   6.687   7.697  18.072  0.0037  0.0608 -0.2389
 1280BOLB   PO230710   6.738   8.146  18.254  0.3287 -0.1081  0.3064
 1280BOLB   GL330711   7.087   7.930  18.473 -0.2394  0.2793 -0.1025
 1280BOLB   GL430712   6.979   7.612  18.477 -0.0695  0.0957  0.1908
 1280BOLB   C1C30713   7.365   8.083  18.827  0.2305 -0.0828 -0.2379
 1280BOLB   C2C30714   7.823   8.144  19.027  0.2488 -0.3318 -0.5150
 1280BOLB   C3C30715   8.250   7.977  19.142 -0.3986 -0.0160  0.0729
 1280BOLB   C4C30716   8.372   7.547  19.222  0.1037  0.2303 -0.2711
 1280BOLB   C1D30717   7.138   7.632  18.882  0.3577  0.3220  0.1012
 1280BOLB   C2D30718   7.327   7.737  19.237  0.0359 -0.0402 -0.2180
 1280BOLB   C3D30719   7.511   7.640  19.662  0.0260 -0.0997  0.1798
 1280BOLB   C4D30720   7.799   7.504  20.075 -0.0773  0.0468  0.0600
 1281BOLB   NC130721  22.562   0.901  19.506 -0.3306 -0.2473  0.1037
 1281BOLB   PO130722  22.839   0.633  19.400  0.1621  0.1394 -0.0847
 1281BOLB   GL130723  22.910   0.373  19.084  0.1005 -0.1714 -0.2908
 1281BOLB   GL230724  23.178   0.131  19.201 -0.1844 -0.0219  0.0533
 1281BOLB   C1A30725  23.143   0.415  18.551 -0.0360  0.0854 -0.0584
 1281BOLB   C2A30726  23.553   0.521  18.358 -0.0018  0.2958 -0.0501
 1281BOLB   C3A30727  23.980   0.833  18.413 -0.0401  0.0940 -0.2928
 1281BOLB   C4A30728  24.423   0.912  18.614 -0.1865 -0.0788  0.1380
 1281BOLB   C1B30729  23.438   0.476  18.940 -0.0145  0.2168 -0.0614
 1281BOLB   C2B30730  23.873   0.417  18.691 -0.1204 -0.0422  0.1943
 1281BOLB   C3B30731  24.238   0.018  18.614  0.0623 -0.1486 -0.3861
 1281BOLB   C4B30732  24.223  -0.338  18.892  0.0123 -0.1938 -0.1644
 1281BOLB   NC230733  27.111   1.552  18.555  0.1518  0.1644 -0.0500
 1281BOLB   PO230734  26.842   1.692  18.226 -0.0347 -0.1671 -0.2540
 1281BOLB   GL330735  26.317   1.665  18.176 -0.1539  0.0351  0.2761
 1281BOLB   GL430736  26.131   1.367  18.194  0.0325 -0.1546 -0.1015
 1281BOLB   C1C30737  25.928   1.768  18.085 -0.1198 -0.0194  0.0060
 1281BOLB   C2C30738  25.493   1.762  18.302 -0.0839 -0.2790  0.4308
 1281BOLB   C3C30739  25.016   1.526  18.379 -0.0255 -0.3039 -0.1274
 1281BOLB   C4C30740  24.721   1.256  18.698 -0.3451 -0.1356  0.0399
 1281BOLB   C1D30741  25.862   1.418  18.477 -0.0022 -0.2045 -0.0131
 1281BOLB   C2D30742  25.451   1.306  18.551 -0.1441 -0.2714 -0.0252
 1281BOLB   C3D30743  25.124   0.932  18.426  0.0148 -0.1560 -0.0284
 1281BOLB   C4D30744  24.794   0.682  18.143  0.2793  0.0671 -0.2437
 1282BOLB   NC130745  16.190  -3.966  26.596  0.1048 -0.0770  0.0511
 1282BOLB   PO130746  15.936  -4.113  27.037  0.4473 -0.3369  0.3169
 1282BOLB   GL130747  16.057  -4.514  27.073 -0.2887  0.0830 -0.1763
 1282BOLB   GL230748  16.232  -4.679  27.360 -0.0542 -0.1698 -0.1844
 1282BOLB   C1A30749  16.019  -4.932  26.978  0.1289  0.0863 -0.1534
 1282BOLB   C2A30750  16.243  -5.247  27.136 -0.1667  0.0867  0.0838
 1282BOLB   C3A30751  16.285  -5.476  27.457 -0.1532 -0.1684 -0.1089
 1282BOLB   C4A30752  16.628  -5.718  27.593  0.4669 -0.4440 -0.1018
 1282BOLB   C1B30753  16.112  -4.991  27.576  0.2292 -0.2942 -0.2203
 1282BOLB   C2B30754  16.292  -5.195  27.908  0.2702 -0.2210 -0.0601
 1282BOLB   C3B30755  16.403  -5.281  28.306 -0.4899  0.2680  0.0601
 1282BOLB   C4B30756  16.717  -5.523  28.448 -0.1339 -0.1731 -0.0159
 1282BOLB   NC230757  18.454  -8.169  28.010  0.0185  0.0563 -0.0748
 1282BOLB   PO230758  18.072  -7.848  27.958  0.4897  0.1794 -0.4618
 1282BOLB   GL330759  17.769  -7.517  27.804 -0.0065 -0.1145 -0.1138
 1282BOLB   GL430760  17.429  -7.516  27.824  0.1447  0.0502 -0.1434
 1282BOLB   C1C30761  17.744  -7.062  27.911 -0.2937 -0.3089  0.1851
 1282BOLB   C2C30762  17.695  -6.655  27.770  0.1218 -0.2384  0.0793
 1282BOLB   C3C30763  17.355  -6.215  27.837  0.0224  0.2022 -0.0417
 1282BOLB   C4C30764  17.098  -5.846  27.655 -0.1705  0.5283 -0.3040
 1282BOLB   C1D30765  17.290  -7.103  27.759  0.2275  0.1803  0.4377
 1282BOLB   C2D30766  17.181  -6.713  27.600 -0.1680 -0.3058 -0.0686
 1282BOLB   C3D30767  17.021  -6.717  27.254 -0.1589  0.0199 -0.1538
 1282BOLB   C4D30768  16.791  -6.821  26.847 -0.0120  0.2374 -0.1248
 1283BOLB   NC130769  18.433   6.528  17.062 -0.1160  0.0875  0.0617
 1283BOLB   PO130770  18.783   6.811  17.068  0.1474  0.0073 -0.1067
 1283BOLB   GL130771  18.471   7.017  16.899  0.1029  0.4047 -0.0926
 1283BOLB   GL230772  18.247   6.855  16.623 -0.0932  0.0521 -0.1713
 1283BOLB   C1A30773  18.518   7.248  16.521 -0.0790 -0.1417 -0.3620
 1283BOLB   C2A30774  18.553   7.244  16.036  0.0648 -0.1379 -0.0291
 1283BOLB   C3A30775  18.730   7.215  15.677 -0.0260  0.0863  0.0079
 1283BOLB   C4A30776  19.026   7.250  15.340 -0.1938  0.1014  0.1401
 1283BOLB   C1B30777  18.201   6.952  16.242 -0.3201 -0.2315  0.1912
 1283BOLB   C2B30778  18.039   7.338  16.075 -0.2910 -0.1988 -0.2513
 1283BOLB   C3B30779  17.767   7.674  16.151 -0.1007 -0.1777  0.2150
 1283BOLB   C4B30780  17.622   7.854  15.793 -0.1101  0.3910  0.1532
 1283BOLB   NC230781  20.954   7.977  13.885 -0.0108 -0.1912  0.2316
 1283BOLB   PO230782  20.634   8.248  14.029 -0.1399  0.0232 -0.0884
 1283BOLB   GL330783  20.275   8.133  14.252 -0.1774 -0.2481 -0.0502
 1283BOLB   GL430784  19.877   8.132  14.184  0.0644 -0.1012  0.1301
 1283BOLB   C1C30785  20.094   8.307  14.610  0.0001  0.3128  0.0550
 1283BOLB   C2C30786  19.777   8.102  14.937 -0.1939  0.1826  0.1787
 1283BOLB   C3C30787  19.550   7.959  15.226 -0.1015 -0.2246  0.0733
 1283BOLB   C4C30788  19.401   7.582  15.172  0.2839 -0.0001  0.2888
 1283BOLB   C1D30789  19.798   7.933  14.499 -0.0572  0.0137 -0.0097
 1283BOLB   C2D30790  19.851   7.613  14.855 -0.0365 -0.0131  0.2480
 1283BOLB   C3D30791  19.801   7.386  15.279 -0.0616 -0.2041 -0.1038
 1283BOLB   C4D30792  19.928   7.214  15.622  0.0883 -0.4683  0.0356
 1284BOLB   NC130793  20.868   7.282  18.535  0.0475 -0.2432 -0.1143
 1284BOLB   PO130794  21.135   6.985  18.872  0.1669  0.1199 -0.2291
 1284BOLB   GL130795  21.476   7.371  18.804  0.2033 -0.1549  0.2716
 1284BOLB   GL230796  21.563   7.590  18.950  0.1387 -0.1641 -0.0376
 1284BOLB   C1A30797  21.799   7.569  18.432  0.0897 -0.1672 -0.5783
 1284BOLB   C2A30798  22.056   7.820  18.295 -0.2446 -0.3108  0.1039
 1284BOLB   C3A30799  22.158   8.242  18.312 -0.2151 -0.0788  0.0470
 1284BOLB   C4A30800  22.132   8.650  18.138  0.3011  0.0426 -0.0304
 1284BOLB   C1B30801  21.751   7.912  18.946 -0.1196  0.1111 -0.0838
 1284BOLB   C2B30802  22.062   8.250  18.887  0.1268 -0.1591 -0.2612
 1284BOLB   C3B30803  22.164   8.603  18.726 -0.2555 -0.1772 -0.5184
 1284BOLB   C4B30804  22.278   8.977  18.459 -0.0744 -0.1259 -0.1986
 1284BOLB   NC230805  23.573   9.433  16.214 -0.1749  0.0954  0.0418
 1284BOLB   PO230806  23.206   9.165  16.131  0.1781 -0.1319 -0.0370
 1284BOLB   GL330807  22.916   9.090  16.485  0.0014  0.4241  0.0394
 1284BOLB   GL430808  22.584   8.916  16.396  0.1671  0.4359 -0.1419
 1284BOLB   C1C30809  22.723   9.195  16.844 -0.4395 -0.2435 -0.1359
 1284BOLB   C2C30810  22.559   9.254  17.240 -0.1798  0.0215 -0.0768
 1284BOLB   C3C30811  22.246   9.254  17.619 -0.1402 -0.0550 -0.5662
 1284BOLB   C4C30812  22.143   9.079  17.930 -0.2475 -0.0181 -0.2281
 1284BOLB   C1D30813  22.761   8.603  16.631  0.1039 -0.1425  0.0982
 1284BOLB   C2D30814  22.514   8.474  17.056 -0.1152 -0.1759  0.0974
 1284BOLB   C3D30815  22.157   8.463  17.318 -0.1187 -0.0835 -0.0199
 1284BOLB   C4D30816  22.043   8.569  17.647  0.2006  0.0723  0.1737
 1285BOLB   NC130817  22.742   3.706  31.169  0.2754 -0.1740 -0.0530
 1285BOLB   PO130818  23.065   3.917  30.811  0.2043 -0.1021  0.0745
 1285BOLB   GL130819  23.529   3.941  30.943 -0.0755 -0.1868  0.1519
 1285BOLB   GL230820  23.546   4.100  31.142  0.0058  0.1090  0.0552
 1285BOLB   C1A30821  23.959   4.001  30.907  0.4084 -0.0906  0.0313
 1285BOLB   C2A30822  24.254   4.048  31.227  0.2679 -0.2948  0.0332
 1285BOLB   C3A30823  24.499   3.782  31.513 -0.2980  0.1260  0.1670
 1285BOLB   C4A30824  24.493   3.634  32.037  0.0598 -0.5680 -0.0222
 1285BOLB   C1B30825  23.757   4.183  31.463 -0.2020  0.1225  0.3464
 1285BOLB   C2B30826  24.081   4.446  31.582  0.1555  0.1084 -0.0131
 1285BOLB   C3B30827  24.359   4.791  31.389 -0.0946 -0.0886 -0.2057
 1285BOLB   C4B30828  24.476   5.313  31.465 -0.0476  0.0654 -0.2551
 1285BOLB   NC230829  25.870   2.235  33.664  0.1349  0.4584  0.0058
 1285BOLB   PO230830  26.007   2.567  33.618 -0.1133 -0.1976  0.2851
 1285BOLB   GL330831  25.611   2.579  33.301 -0.0320  0.2727  0.5152
 1285BOLB   GL430832  25.801   2.579  32.998 -0.1429 -0.2242  0.1177
 1285BOLB   C1C30833  25.287   2.803  33.097 -0.1632  0.0226 -0.0546
 1285BOLB   C2C30834  25.290   3.287  32.889  0.1140 -0.2266  0.0343
 1285BOLB   C3C30835  25.100   3.322  32.532  0.2272 -0.1366  0.1202
 1285BOLB   C4C30836  24.654   3.471  32.383  0.1966 -0.3075 -0.0834
 1285BOLB   C1D30837  25.569   2.896  32.716  0.1410  0.0066  0.2325
 1285BOLB   C2D30838  25.187   2.852  32.491 -0.1043  0.1878 -0.1036
 1285BOLB   C3D30839  24.937   2.984  32.214  0.0544 -0.1360  0.0094
 1285BOLB   C4D30840  24.499   3.072  32.064  0.0637  0.1653  0.1381
 1286BOLB   NC130841  23.294   6.656  30.085  0.1000 -0.3601  0.0820
 1286BOLB   PO130842  23.351   7.004  29.871  0.4328 -0.2792 -0.5039
 1286BOLB   GL130843  23.514   7.160  30.250  0.0599  0.1412 -0.0734
 1286BOLB   GL230844  23.594   6.886  30.417 -0.0156 -0.1105 -0.1189
 1286BOLB   C1A30845  23.641   7.308  30.626  0.0853 -0.1409 -0.1266
 1286BOLB   C2A30846  24.071   7.220  30.781 -0.0389 -0.1934 -0.3536
 1286BOLB   C3A30847  24.286   7.161  31.152 -0.1414  0.1247  0.0488
 1286BOLB   C4A30848  24.422   6.941  31.511  0.1405  0.1545 -0.2362
 1286BOLB   C1B30849  23.713   6.900  30.823 -0.0569  0.0553 -0.0050
 1286BOLB   C2B30850  24.000   6.776  31.101  0.1148 -0.1303  0.3582
 1286BOLB   C3B30851  23.981   6.599  31.585  0.2097  0.0322 -0.0214
 1286BOLB   C4B30852  23.930   6.475  31.977  0.0872  0.1200  0.0057
 1286BOLB   NC230853  26.069   7.474  33.886  0.2821 -0.0162 -0.0395
 1286BOLB   PO230854  26.141   7.458  33.474  0.0086 -0.0215  0.0483
 1286BOLB   GL330855  25.840   7.545  33.155  0.2234 -0.0977 -0.0609
 1286BOLB   GL430856  25.893   7.140  33.062  0.2214 -0.1953  0.1741
 1286BOLB   C1C30857  25.525   7.362  32.782 -0.0177 -0.0728 -0.0511
 1286BOLB   C2C30858  25.142   7.329  32.417 -0.2141 -0.0531  0.2729
 1286BOLB   C3C30859  24.848   7.469  32.136  0.2285  0.0480 -0.0909
 1286BOLB   C4C30860  24.589   7.191  31.852 -0.0212  0.1925  0.1554
 1286BOLB   C1D30861  25.548   6.988  33.326  0.3949 -0.2470  0.0026
 1286BOLB   C2D30862  25.173   6.730  33.216 -0.0684  0.2174 -0.2143
 1286BOLB   C3D30863  25.028   6.405  32.854 -0.0660 -0.0636  0.0541
 1286BOLB   C4D30864  24.737   6.301  32.520 -0.0191 -0.1324 -0.0011
 1287BOLB   NC130865  12.274   2.611  17.673  0.1107  0.1808 -0.0021
 1287BOLB   PO130866  12.366   2.310  17.484 -0.0185 -0.1573  0.1290
 1287BOLB   GL130867  12.141   2.149  17.043 -0.0720 -0.1658 -0.0202
 1287BOLB   GL230868  12.046   1.839  16.938 -0.1245  0.1558  0.0406
 1287BOLB   C1A30869  12.030   2.259  16.629  0.4170 -0.1751 -0.3111
 1287BOLB   C2A30870  11.845   2.053  16.237 -0.0140  0.0696  0.2706
 1287BOLB   C3A30871  11.671   1.841  15.863 -0.3734  0.0375 -0.3443
 1287BOLB   C4A30872  11.411   1.834  15.529  0.2252  0.1214 -0.1327
 1287BOLB   C1B30873  11.683   1.817  16.759 -0.1117 -0.0514  0.1284
 1287BOLB   C2B30874  11.473   1.762  16.372  0.3599  0.0929  0.1840
 1287BOLB   C3B30875  11.130   1.577  16.369  0.1073  0.3348  0.1682
 1287BOLB   C4B30876  10.898   1.291  16.515 -0.1676  0.0641  0.0115
 1287BOLB   NC230877  10.335   2.110  13.612 -0.0020  0.0602 -0.1347
 1287BOLB   PO230878  10.018   1.839  13.912 -0.0517  0.0032  0.0767
 1287BOLB   GL330879  10.164   1.476  14.163  0.2335  0.0757 -0.1309
 1287BOLB   GL430880  10.429   1.458  14.126  0.1837  0.0384 -0.1312
 1287BOLB   C1C30881  10.117   1.332  14.678 -0.2406 -0.2468  0.1977
 1287BOLB   C2C30882  10.444   1.216  14.998  0.0783 -0.0296 -0.3437
 1287BOLB   C3C30883  10.861   1.118  15.396  0.0324  0.2083 -0.3068
 1287BOLB   C4C30884  11.246   1.428  15.450 -0.0371  0.0669  0.1903
 1287BOLB   C1D30885  10.631   1.230  14.516  0.0218 -0.0180  0.0070
 1287BOLB   C2D30886  10.316   0.827  14.682 -0.0913 -0.2233  0.0044
 1287BOLB   C3D30887  10.501   0.509  14.608  0.2986  0.2390 -0.3174
 1287BOLB   C4D30888  10.614   0.121  14.464  0.4221  0.0506 -0.3439
 1288BOLB   NC130889  15.413   8.458  32.911  0.0859 -0.0620 -0.1270
 1288BOLB   PO130890  15.161   8.859  32.944 -0.1012 -0.3031 -0.3564
 1288BOLB   GL130891  14.912   8.944  33.252 -0.0131  0.0364 -0.1314
 1288BOLB   GL230892  15.121   9.111  33.507 -0.3239 -0.2229 -0.0489
 1288BOLB   C1A30893  14.685   9.155  33.522 -0.2704 -0.3043 -0.0738
 1288BOLB   C2A30894  14.382   9.407  33.624 -0.0319  0.0290 -0.2472
 1288BOLB   C3A30895  14.236   9.791  33.640 -0.3207 -0.1867 -0.0360
 1288BOLB   C4A30896  14.052  10.233  33.650 -0.2156  0.1033  0.0083
 1288BOLB   C1B30897  15.113   9.314  33.855 -0.3589  0.6004 -0.0240
 1288BOLB   C2B30898  15.234   9.669  34.106  0.0810 -0.1339 -0.0419
 1288BOLB   C3B30899  15.550  10.050  34.093  0.3089 -0.5090 -0.2036
 1288BOLB   C4B30900  15.766  10.254  34.276 -0.1705 -0.4772  0.1173
 1288BOLB   NC230901  13.015  11.936  35.555 -0.0106 -0.2278 -0.1794
 1288BOLB   PO230902  13.049  11.528  35.360  0.1547 -0.0274 -0.1582
 1288BOLB   GL330903  13.020  11.197  35.041  0.0697  0.6572  0.3663
 1288BOLB   GL430904  13.156  11.474  34.823 -0.2493 -0.3420 -0.2084
 1288BOLB   C1C30905  12.930  11.048  34.692  0.2619  0.1459  0.0011
 1288BOLB   C2C30906  13.178  10.865  34.318  0.0150 -0.0845  0.0850
 1288BOLB   C3C30907  13.519  10.801  34.031  0.0131 -0.0349 -0.2060
 1288BOLB   C4C30908  13.752  10.536  33.759  0.2022  0.1467  0.0733
 1288BOLB   C1D30909  13.428  11.258  34.595  0.2387 -0.3756 -0.0421
 1288BOLB   C2D30910  13.529  11.253  34.271 -0.0553  0.0259 -0.1149
 1288BOLB   C3D30911  13.910  11.162  33.998  0.1160 -0.0833  0.0151
 1288BOLB   C4D30912  14.088  11.053  33.584  0.3197  0.2465 -0.3899
 1289BOLB   NC130913  22.895   3.826  19.337 -0.0764  0.1474 -0.0554
 1289BOLB   PO130914  23.008   3.379  19.458 -0.2350 -0.1027  0.0264
 1289BOLB   GL130915  23.382   3.360  19.250 -0.2163 -0.0600  0.1285
 1289BOLB   GL230916  23.466   3.322  18.848 -0.0530 -0.1376  0.1099
 1289BOLB   C1A30917  23.879   3.391  19.093  0.5199  0.1340  0.2481
 1289BOLB   C2A30918  24.208   3.374  18.805 -0.2546  0.0241 -0.1916
 1289BOLB   C3A30919  24.541   3.507  18.726  0.2533  0.0655  0.0418
 1289BOLB   C4A30920  24.891   3.504  18.591  0.1181 -0.0669 -0.1397
 1289BOLB   C1B30921  23.813   3.204  18.511  0.0925 -0.2460 -0.0245
 1289BOLB   C2B30922  23.696   3.229  18.097 -0.1013 -0.2753  0.1814
 1289BOLB   C3B30923  23.575   3.528  17.695  0.3584  0.0955  0.3510
 1289BOLB   C4B30924  23.770   3.864  17.439 -0.0419  0.0404  0.2662
 1289BOLB   NC230925  26.948   2.622  16.836  0.1044  0.1702 -0.0473
 1289BOLB   PO230926  26.735   2.574  17.282 -0.2199 -0.0802 -0.2310
 1289BOLB   GL330927  26.329   2.700  17.518 -0.0183 -0.3210  0.2361
 1289BOLB   GL430928  26.146   2.348  17.480  0.3193 -0.2767 -0.0830
 1289BOLB   C1C30929  25.979   2.647  17.888 -0.2153  0.0269  0.0061
 1289BOLB   C2C30930  25.857   2.889  18.225 -0.1960  0.4421 -0.0590
 1289BOLB   C3C30931  25.588   3.174  18.401 -0.1667 -0.0968  0.1033
 1289BOLB   C4C30932  25.205   3.305  18.636  0.0912  0.0570  0.0417
 1289BOLB   C1D30933  25.834   2.172  17.794  0.1163 -0.2780  0.1558
 1289BOLB   C2D30934  25.328   2.199  17.886  0.0729 -0.2416 -0.2683
 1289BOLB   C3D30935  24.973   2.403  18.178 -0.0295 -0.3200  0.1919
 1289BOLB   C4D30936  24.695   2.564  18.528  0.2741 -0.1962  0.1381
 1290BOLB   NC130937  20.066  10.825  26.765  0.0249  0.0279  0.0805
 1290BOLB   PO130938  19.965  11.399  26.653 -0.1300  0.2383 -0.0591
 1290BOLB   GL130939  20.281  11.697  26.534 -0.1943  0.1479 -0.0352
 1290BOLB   GL230940  20.533  11.639  26.406 -0.2614 -0.0200 -0.1739
 1290BOLB   C1A30941  20.403  12.175  26.586  0.0246 -0.0270 -0.2171
 1290BOLB   C2A30942  20.095  12.576  26.517  0.2845  0.2017  0.0696
 1290BOLB   C3A30943  20.028  13.034  26.357  0.0037 -0.1518  0.2562
 1290BOLB   C4A30944  20.373  13.413  26.420 -0.1546 -0.2283  0.3358
 1290BOLB   C1B30945  20.726  11.987  26.250 -0.1968 -0.0479 -0.0638
 1290BOLB   C2B30946  20.860  12.486  26.217 -0.4896  0.1400 -0.2678
 1290BOLB   C3B30947  20.936  12.786  26.511 -0.0129 -0.0599  0.3420
 1290BOLB   C4B30948  20.908  13.031  26.755 -0.1306  0.2947 -0.2593
 1290BOLB   NC230949  21.855  14.608  27.515  0.0106 -0.0566  0.2577
 1290BOLB   PO230950  21.658  14.646  27.895 -0.0163 -0.0312  0.3312
 1290BOLB   GL330951  21.423  14.395  27.845 -0.0754 -0.2048  0.1571
 1290BOLB   GL430952  21.178  14.294  28.168 -0.0637  0.1232 -0.0320
 1290BOLB   C1C30953  20.955  14.236  27.733 -0.0667 -0.0281  0.2836
 1290BOLB   C2C30954  20.774  13.990  27.462  0.1584  0.5721 -0.0797
 1290BOLB   C3C30955  20.798  13.922  26.938 -0.1321 -0.2359  0.1528
 1290BOLB   C4C30956  20.658  13.445  26.724  0.1703  0.0921  0.3004
 1290BOLB   C1D30957  21.087  13.824  28.049 -0.3771  0.0185 -0.1498
 1290BOLB   C2D30958  20.944  13.536  27.692 -0.1162  0.3467 -0.1893
 1290BOLB   C3D30959  20.693  13.234  27.519  0.0380  0.1576 -0.1219
 1290BOLB   C4D30960  20.479  13.105  27.171  0.1990 -0.2209 -0.0114
 1291BOLB   NC130961  22.829   8.082  28.812 -0.0078  0.0162 -0.2738
 1291BOLB   PO130962  22.878   8.522  28.965  0.0169  0.3051 -0.0121
 1291BOLB   GL130963  22.977   8.846  29.261  0.1796 -0.1838 -0.0489
 1291BOLB   GL230964  23.301   8.969  29.374  0.1697  0.3882 -0.3029
 1291BOLB   C1A30965  23.001   9.354  29.305 -0.2937  0.1926  0.0219
 1291BOLB   C2A30966  23.136   9.659  29.559 -0.0975 -0.0679 -0.1917
 1291BOLB   C3A30967  23.542   9.740  29.697  0.0267 -0.0073 -0.0984
 1291BOLB   C4A30968  23.946   9.960  29.629 -0.1157 -0.0904  0.2857
 1291BOLB   C1B30969  23.523   9.340  29.244  0.0998  0.2919  0.3389
 1291BOLB   C2B30970  23.861   9.618  29.148 -0.2796 -0.3733  0.0490
 1291BOLB   C3B30971  24.333   9.655  29.325 -0.0547  0.2921 -0.2128
 1291BOLB   C4B30972  24.768   9.955  29.440  0.3707  0.0614  0.1412
 1291BOLB   NC230973  24.850  11.551  30.484  0.1340  0.0065 -0.0843
 1291BOLB   PO230974  25.242  11.342  30.479 -0.0656 -0.0235 -0.1857
 1291BOLB   GL330975  25.171  11.041  30.226  0.2948  0.2733  0.1083
 1291BOLB   GL430976  25.364  10.658  30.259 -0.0879  0.2252  0.0160
 1291BOLB   C1C30977  24.859  10.860  29.941  0.1262  0.3773 -0.1433
 1291BOLB   C2C30978  24.660  10.789  29.600 -0.0739  0.3390  0.2427
 1291BOLB   C3C30979  24.540  10.418  29.330  0.4587 -0.0713 -0.0976
 1291BOLB   C4C30980  24.297  10.138  29.569  0.1058  0.1069  0.0436
 1291BOLB   C1D30981  25.169  10.279  30.303 -0.0181 -0.1446  0.2620
 1291BOLB   C2D30982  24.988   9.864  30.199 -0.3482  0.0378  0.1236
 1291BOLB   C3D30983  24.556   9.963  30.132  0.1974 -0.1103  0.1302
 1291BOLB   C4D30984  24.102   9.984  30.190 -0.0072  0.3942 -0.2666
 1292BOLB   NC130985  18.672  -8.440  21.762  0.1188 -0.2488  0.0769
 1292BOLB   PO130986  18.452  -8.625  22.119 -0.0799  0.2922  0.3399
 1292BOLB   GL130987  18.364  -8.190  22.118 -0.2401  0.1008 -0.0254
 1292BOLB   GL230988  18.356  -8.006  21.787  0.0283  0.0676 -0.3404
 1292BOLB   C1A30989  18.628  -7.853  22.191 -0.2868  0.2220 -0.1657
 1292BOLB   C2A30990  18.607  -7.592  21.966 -0.2078 -0.1436 -0.1980
 1292BOLB   C3A30991  18.546  -7.151  21.763 -0.1783 -0.5591 -0.1785
 1292BOLB   C4A30992  18.527  -6.783  21.585  0.0311  0.1174  0.1886
 1292BOLB   C1B30993  18.282  -7.571  21.586  0.2826  0.1632 -0.1931
 1292BOLB   C2B30994  18.174  -7.286  21.420  0.1382  0.0223  0.3025
 1292BOLB   C3B30995  17.863  -7.174  21.297 -0.3408  0.1866 -0.1557
 1292BOLB   C4B30996  17.580  -6.882  21.147  0.1367  0.1381  0.1755
 1292BOLB   NC230997  17.575  -4.243  20.837  0.0665 -0.1638 -0.1071
 1292BOLB   PO230998  17.415  -4.632  20.933 -0.2987 -0.0329 -0.0600
 1292BOLB   GL330999  17.649  -5.016  21.000 -0.1267  0.2934 -0.0139
 1292BOLB   GL431000  17.457  -5.090  21.270  0.0360  0.4645  0.3055
 1292BOLB   C1C31001  17.718  -5.479  20.972 -0.1200  0.1267 -0.1372
 1292BOLB   C2C31002  17.923  -5.832  21.214 -0.3983  0.3395  0.0081
 1292BOLB   C3C31003  18.033  -6.061  21.504 -0.2795 -0.3841  0.0438
 1292BOLB   C4C31004  18.368  -6.294  21.587  0.2246 -0.0424 -0.1228
 1292BOLB   C1D31005  17.253  -5.554  21.100 -0.0752 -0.1119  0.2773
 1292BOLB   C2D31006  17.033  -5.575  20.676 -0.0062 -0.1260 -0.1825
 1292BOLB   C3D31007  17.139  -5.896  20.373 -0.1033  0.0523 -0.0007
 1292BOLB   C4D31008  16.786  -6.227  20.307  0.0092  0.0366 -0.3607
 1293BOLB   NC131009  17.369  -1.969  28.807  0.6454 -0.1369  0.1094
 1293BOLB   PO131010  17.280  -2.298  29.054 -0.1010 -0.1586 -0.0293
 1293BOLB   GL131011  17.261  -2.738  29.285 -0.0903 -0.0887 -0.2270
 1293BOLB   GL231012  17.540  -2.906  29.015  0.1784  0.1755 -0.1229
 1293BOLB   C1A31013  17.322  -3.080  29.689  0.0257  0.1030  0.3775
 1293BOLB   C2A31014  17.347  -3.445  29.995 -0.0105  0.1753  0.0064
 1293BOLB   C3A31015  17.184  -3.679  30.293  0.0397  0.0685 -0.2386
 1293BOLB   C4A31016  16.883  -3.999  30.429  0.3458 -0.1366 -0.0431
 1293BOLB   C1B31017  17.647  -3.152  29.341  0.0911  0.1594 -0.1914
 1293BOLB   C2B31018  17.627  -3.508  29.486  0.2300  0.0952  0.0602
 1293BOLB   C3B31019  18.042  -3.709  29.541  0.1066  0.1774 -0.3397
 1293BOLB   C4B31020  18.439  -3.535  29.423 -0.0468  0.1841 -0.1995
 1293BOLB   NC231021  17.803  -6.522  31.613  0.2729 -0.2504  0.4612
 1293BOLB   PO231022  17.734  -6.512  31.192 -0.0334  0.0807  0.1064
 1293BOLB   GL331023  17.664  -6.033  31.014  0.0925 -0.1792  0.0491
 1293BOLB   GL431024  17.728  -6.121  30.735 -0.2095 -0.1594 -0.0706
 1293BOLB   C1C31025  17.325  -5.798  30.742 -0.3623  0.1556 -0.1202
 1293BOLB   C2C31026  17.263  -5.369  30.768 -0.1924 -0.4200 -0.3262
 1293BOLB   C3C31027  17.088  -4.881  30.700 -0.2938 -0.1040 -0.0855
 1293BOLB   C4C31028  17.007  -4.410  30.702 -0.1319  0.0533  0.2432
 1293BOLB   C1D31029  17.712  -5.852  30.392  0.3586  0.1732 -0.0873
 1293BOLB   C2D31030  17.452  -5.632  30.094  0.0757 -0.1722  0.2056
 1293BOLB   C3D31031  17.340  -5.335  29.749  0.0972  0.1389 -0.1067
 1293BOLB   C4D31032  17.436  -5.222  29.429 -0.0281 -0.0488  0.2338
 1294BOLB   NC131033  22.297  -2.648  22.711  0.0085  0.0372  0.2640
 1294BOLB   PO131034  22.014  -2.572  22.330 -0.0363 -0.1891  0.0539
 1294BOLB   GL131035  22.287  -2.947  22.279  0.1092 -0.1008 -0.1847
 1294BOLB   GL231036  22.131  -3.133  22.544 -0.3646 -0.0116  0.1333
 1294BOLB   C1A31037  22.552  -3.162  22.229 -0.0112  0.0791  0.2812
 1294BOLB   C2A31038  22.753  -3.544  22.382 -0.1238 -0.1258 -0.3564
 1294BOLB   C3A31039  23.190  -3.538  22.596 -0.0408  0.1819 -0.2233
 1294BOLB   C4A31040  23.523  -3.672  22.893  0.1058  0.0696 -0.0278
 1294BOLB   C1B31041  22.265  -3.499  22.888 -0.0070 -0.0832 -0.0327
 1294BOLB   C2B31042  22.749  -3.527  22.903 -0.1488 -0.2083 -0.0703
 1294BOLB   C3B31043  23.101  -3.387  23.144  0.1773  0.0114 -0.1834
 1294BOLB   C4B31044  23.358  -3.128  23.398  0.6331 -0.1407  0.1610
 1294BOLB   NC231045  25.306  -5.665  23.906 -0.1535  0.4509 -0.0420
 1294BOLB   PO231046  25.157  -5.473  23.507 -0.3200 -0.4462 -0.0279
 1294BOLB   GL331047  24.771  -5.163  23.372  0.1743  0.0467  0.1127
 1294BOLB   GL431048  24.958  -4.910  23.141 -0.0429  0.1800  0.0972
 1294BOLB   C1C31049  24.586  -4.797  23.464  0.1208 -0.0414 -0.0579
 1294BOLB   C2C31050  24.283  -4.354  23.481  0.0809  0.2257 -0.2826
 1294BOLB   C3C31051  24.034  -4.047  23.310  0.2179 -0.1097 -0.4506
 1294BOLB   C4C31052  23.762  -3.784  23.317 -0.3939 -0.0045  0.0458
 1294BOLB   C1D31053  24.575  -4.616  23.018  0.1643 -0.2822  0.2089
 1294BOLB   C2D31054  24.215  -4.368  22.825 -0.0207 -0.3179  0.0431
 1294BOLB   C3D31055  23.801  -4.063  22.870  0.0290  0.3826  0.2457
 1294BOLB   C4D31056  23.501  -4.212  23.107  0.1079  0.1471  0.3747
 1295BOLB   NC131057  21.495   8.919  22.887  0.1820  0.1431 -0.1883
 1295BOLB   PO131058  21.917   9.210  22.847  0.2866  0.2943  0.0458
 1295BOLB   GL131059  22.336   9.441  22.955  0.1243 -0.2616 -0.1442
 1295BOLB   GL231060  22.705   9.388  22.909  0.1275  0.0258 -0.1721
 1295BOLB   C1A31061  22.511   9.730  22.560  0.0879 -0.2581 -0.1892
 1295BOLB   C2A31062  22.589  10.066  22.346  0.0624  0.0673 -0.1102
 1295BOLB   C3A31063  22.611  10.366  22.050  0.0314  0.1353  0.1669
 1295BOLB   C4A31064  22.568  10.719  21.789  0.0795  0.1522 -0.0281
 1295BOLB   C1B31065  23.033   9.585  23.132 -0.0226  0.0365 -0.2598
 1295BOLB   C2B31066  23.452   9.725  23.049  0.2365 -0.2524 -0.0373
 1295BOLB   C3B31067  23.827   9.794  23.084  0.3602  0.3816 -0.1627
 1295BOLB   C4B31068  23.991  10.113  23.200 -0.0636  0.0021 -0.0591
 1295BOLB   NC231069  23.202  13.073  20.937 -0.3727  0.1502 -0.0954
 1295BOLB   PO231070  23.413  12.816  20.909  0.3571 -0.1484  0.4385
 1295BOLB   GL331071  23.414  12.602  21.330 -0.0017  0.0038  0.3449
 1295BOLB   GL431072  23.554  12.386  21.493  0.0394  0.1272  0.1585
 1295BOLB   C1C31073  23.127  12.149  21.413 -0.0854  0.0094 -0.1168
 1295BOLB   C2C31074  23.160  11.741  21.501 -0.1819  0.0148  0.4007
 1295BOLB   C3C31075  23.077  11.288  21.453 -0.3036  0.0360  0.1059
 1295BOLB   C4C31076  22.795  10.982  21.565  0.1920  0.0696  0.0584
 1295BOLB   C1D31077  23.545  12.168  21.162  0.1182 -0.2754 -0.0386
 1295BOLB   C2D31078  23.515  11.780  21.100  0.1391  0.0025  0.2612
 1295BOLB   C3D31079  23.320  11.503  20.903  0.1243  0.5684  0.1690
 1295BOLB   C4D31080  23.200  11.111  20.698  0.1024 -0.5740  0.0520
 1296BOLB   NC131081  13.565   3.691  16.966 -0.1096 -0.0057  0.1104
 1296BOLB   PO131082  13.864   3.592  16.761  0.2279  0.1301  0.3030
 1296BOLB   GL131083  13.784   3.764  16.350  0.1628  0.2673  0.4119
 1296BOLB   GL231084  13.812   4.062  16.395 -0.0543  0.2324 -0.1433
 1296BOLB   C1A31085  13.779   3.942  15.899  0.0352  0.0572 -0.3369
 1296BOLB   C2A31086  13.648   4.047  15.515 -0.0057 -0.1388 -0.1023
 1296BOLB   C3A31087  13.464   3.906  15.132 -0.2544 -0.0968  0.0747
 1296BOLB   C4A31088  13.301   3.693  14.810 -0.1554 -0.1756  0.1370
 1296BOLB   C1B31089  13.728   4.399  16.187  0.1111  0.4928  0.1927
 1296BOLB   C2B31090  13.516   4.425  15.832 -0.0276  0.1116 -0.0358
 1296BOLB   C3B31091  13.268   4.364  15.561  0.2116 -0.1899  0.3146
 1296BOLB   C4B31092  13.080   4.597  15.266 -0.1653  0.1138  0.2276
 1296BOLB   NC231093  12.698   4.289  12.392 -0.1722  0.0233 -0.3288
 1296BOLB   PO231094  12.883   4.720  12.427 -0.2288  0.0197 -0.0141
 1296BOLB   GL331095  13.032   4.538  12.809 -0.0392 -0.1967 -0.0519
 1296BOLB   GL431096  13.264   4.293  12.831 -0.3510 -0.0815  0.1642
 1296BOLB   C1C31097  13.049   4.463  13.296  0.0297 -0.1209 -0.1854
 1296BOLB   C2C31098  13.302   4.213  13.603 -0.2711  0.1318  0.1863
 1296BOLB   C3C31099  13.334   3.796  13.917  0.1295 -0.0553  0.0957
 1296BOLB   C4C31100  13.299   3.796  14.367 -0.2483 -0.1367 -0.1539
 1296BOLB   C1D31101  13.305   3.994  13.029  0.2956 -0.0829 -0.2243
 1296BOLB   C2D31102  13.492   3.756  13.388  0.2510  0.0054  0.0422
 1296BOLB   C3D31103  13.859   3.557  13.471 -0.0498  0.0930  0.0080
 1296BOLB   C4D31104  14.170   3.413  13.269 -0.1798 -0.2360  0.2464
 1297BOLB   NC131105  13.115   7.423  19.011 -0.2342 -0.2163  0.0121
 1297BOLB   PO131106  12.823   7.819  19.029 -0.1865  0.5431  0.0653
 1297BOLB   GL131107  12.624   8.018  18.663  0.1963  0.1125 -0.1604
 1297BOLB   GL231108  12.707   7.916  18.373  0.0600 -0.2483 -0.2054
 1297BOLB   C1A31109  12.387   8.290  18.592  0.1528  0.0817  0.0164
 1297BOLB   C2A31110  12.094   8.673  18.472 -0.2606 -0.0952 -0.4992
 1297BOLB   C3A31111  11.667   8.744  18.332  0.1367 -0.2046 -0.1268
 1297BOLB   C4A31112  11.337   8.678  18.222 -0.0853 -0.2106  0.0625
 1297BOLB   C1B31113  12.504   8.152  18.091 -0.0199 -0.1993  0.1964
 1297BOLB   C2B31114  12.261   8.382  17.704  0.0852 -0.1020  0.0824
 1297BOLB   C3B31115  12.406   8.839  17.498 -0.2005  0.0533 -0.4216
 1297BOLB   C4B31116  12.565   8.998  17.146  0.0525 -0.1523 -0.4248
 1297BOLB   NC231117   9.815   9.940  16.529  0.1314  0.2740 -0.0832
 1297BOLB   PO231118   9.857   9.569  16.718 -0.1924 -0.2310 -0.0802
 1297BOLB   GL331119  10.009   9.564  17.063  0.0513  0.2106  0.0488
 1297BOLB   GL431120   9.764   9.691  17.246  0.0233  0.0674  0.1035
 1297BOLB   C1C31121  10.064   9.330  17.498 -0.0937  0.0780  0.0161
 1297BOLB   C2C31122  10.279   9.236  17.895 -0.0364  0.2510 -0.0197
 1297BOLB   C3C31123  10.569   9.021  18.160 -0.2098 -0.0182  0.0758
 1297BOLB   C4C31124  10.937   8.818  18.177 -0.0942 -0.0226  0.0666
 1297BOLB   C1D31125   9.897   9.786  17.658  0.0769 -0.2143  0.3351
 1297BOLB   C2D31126   9.927   9.550  17.987 -0.1708  0.0033 -0.0148
 1297BOLB   C3D31127  10.114   9.559  18.327 -0.4715 -0.0504 -0.1408
 1297BOLB   C4D31128  10.217   9.942  18.533 -0.0371 -0.0866  0.0796
 1298BOLB   NC131129  11.326  -2.166  20.198 -0.3052  0.2302 -0.0406
 1298BOLB   PO131130  11.409  -2.402  19.798 -0.1055  0.1662 -0.0260
 1298BOLB   GL131131  11.063  -2.545  19.627 -0.3425 -0.0260  0.2656
 1298BOLB   GL231132  11.187  -2.728  19.447  0.1626  0.0117 -0.1787
 1298BOLB   C1A31133  10.594  -2.365  19.423  0.0815  0.0283  0.1049
 1298BOLB   C2A31134  10.227  -2.535  19.372  0.0315  0.1945 -0.3286
 1298BOLB   C3A31135  10.231  -2.930  19.391  0.1533 -0.0423 -0.3955
 1298BOLB   C4A31136  10.109  -3.335  19.198  0.0996  0.1363  0.2093
 1298BOLB   C1B31137  10.827  -2.974  19.261 -0.1107  0.3290  0.3996
 1298BOLB   C2B31138  10.670  -3.363  19.239  0.0752 -0.0368 -0.0300
 1298BOLB   C3B31139  10.498  -3.714  19.517 -0.0110 -0.1960 -0.0299
 1298BOLB   C4B31140  10.320  -3.945  19.765 -0.0999  0.1259  0.0324
 1298BOLB   NC231141   8.982  -5.508  17.883 -0.4863 -0.1590  0.1285
 1298BOLB   PO231142   8.898  -5.128  18.111  0.0901 -0.3457  0.0884
 1298BOLB   GL331143   9.337  -5.018  18.351  0.1481  0.0885 -0.0384
 1298BOLB   GL431144   9.621  -5.287  18.526 -0.0464 -0.1379  0.3555
 1298BOLB   C1C31145   9.540  -4.705  18.617  0.3869  0.0866 -0.3734
 1298BOLB   C2C31146   9.644  -4.329  18.744 -0.0026 -0.1338  0.1044
 1298BOLB   C3C31147   9.793  -4.051  18.987 -0.0497 -0.2347 -0.1318
 1298BOLB   C4C31148  10.080  -3.718  18.935 -0.1041 -0.0828 -0.1792
 1298BOLB   C1D31149   9.804  -5.065  18.878  0.1675  0.3464 -0.1648
 1298BOLB   C2D31150  10.103  -5.124  19.152 -0.3174  0.2698 -0.2205
 1298BOLB   C3D31151  10.327  -5.245  19.509  0.0831  0.0994  0.2448
 1298BOLB   C4D31152  10.768  -5.213  19.612 -0.0628  0.1424 -0.0730
 1299BOLB   NC131153  20.424   4.223  32.241 -0.0600 -0.0852  0.0557
 1299BOLB   PO131154  20.279   3.917  32.454  0.1284  0.1876 -0.0087
 1299BOLB   GL131155  20.390   3.659  32.813 -0.3445  0.2001  0.2117
 1299BOLB   GL231156  20.607   3.665  32.786 -0.0739 -0.0045  0.0947
 1299BOLB   C1A31157  20.450   3.704  33.248  0.4064  0.0749 -0.2239
 1299BOLB   C2A31158  20.687   3.764  33.685 -0.1537  0.4081 -0.0233
 1299BOLB   C3A31159  21.051   3.701  33.970 -0.1635  0.1213 -0.0472
 1299BOLB   C4A31160  21.198   3.528  34.323 -0.1825  0.0982 -0.2979
 1299BOLB   C1B31161  20.934   3.604  33.089 -0.0488 -0.1720 -0.1905
 1299BOLB   C2B31162  21.276   3.601  33.386  0.0469 -0.1601 -0.1525
 1299BOLB   C3B31163  21.598   3.604  33.751  0.2725 -0.2967  0.0123
 1299BOLB   C4B31164  21.619   3.658  34.160 -0.1371  0.0744 -0.0511
 1299BOLB   NC231165  21.202   2.885  36.766  0.3499  0.0282  0.2033
 1299BOLB   PO231166  21.055   2.378  36.567  0.0297  0.0433 -0.1953
 1299BOLB   GL331167  20.868   2.673  36.322 -0.1962 -0.1518 -0.2054
 1299BOLB   GL431168  20.620   2.641  36.100  0.2290 -0.1019  0.0575
 1299BOLB   C1C31169  21.125   2.934  35.936 -0.3306 -0.2349 -0.2180
 1299BOLB   C2C31170  21.044   2.968  35.558 -0.0607  0.3480  0.1964
 1299BOLB   C3C31171  20.950   3.028  35.105  0.1017 -0.0578  0.2337
 1299BOLB   C4C31172  21.127   3.227  34.748  0.0743  0.1169 -0.0923
 1299BOLB   C1D31173  20.577   2.832  35.695  0.0014 -0.0192 -0.0845
 1299BOLB   C2D31174  20.456   2.789  35.282 -0.1662  0.2189 -0.1922
 1299BOLB   C3D31175  20.385   2.974  34.951  0.0916 -0.1679 -0.0285
 1299BOLB   C4D31176  20.071   3.207  34.609 -0.0938 -0.0013  0.1674
 1300BOLB   NC131177  12.757  11.269  30.000 -0.0280 -0.1446  0.1720
 1300BOLB   PO131178  12.373  11.506  30.013  0.0237  0.0566  0.1663
 1300BOLB   GL131179  12.328  11.716  30.292  0.1434  0.1699 -0.1125
 1300BOLB   GL231180  11.900  11.787  30.208 -0.3243 -0.3744  0.3121
 1300BOLB   C1A31181  12.463  12.064  30.549 -0.0170  0.0098  0.0580
 1300BOLB   C2A31182  12.370  12.447  30.511 -0.0578  0.0340 -0.2707
 1300BOLB   C3A31183  12.213  12.477  30.868 -0.1531 -0.1432 -0.1571
 1300BOLB   C4A31184  11.963  12.804  31.149 -0.0369  0.3136  0.0777
 1300BOLB   C1B31185  11.813  12.226  30.400  0.1444  0.0373  0.0414
 1300BOLB   C2B31186  11.762  12.591  30.627  0.2902  0.4605  0.1281
 1300BOLB   C3B31187  11.599  12.479  31.029 -0.1586 -0.2766  0.0315
 1300BOLB   C4B31188  11.664  12.353  31.367 -0.2259  0.2919 -0.1184
 1300BOLB   NC231189  10.719  14.242  32.172 -0.3583 -0.1910  0.2015
 1300BOLB   PO231190  10.938  14.477  31.833  0.0737 -0.0369  0.2004
 1300BOLB   GL331191  11.136  14.469  31.526 -0.0743 -0.0392  0.2107
 1300BOLB   GL431192  10.887  14.284  31.185  0.4199  0.0337 -0.0810
 1300BOLB   C1C31193  11.407  14.156  31.484 -0.2019  0.0337 -0.1633
 1300BOLB   C2C31194  11.601  13.743  31.614  0.1181  0.0002 -0.0538
 1300BOLB   C3C31195  11.550  13.271  31.614  0.0884 -0.1040  0.0601
 1300BOLB   C4C31196  11.701  13.038  31.367  0.1383 -0.0555  0.0858
 1300BOLB   C1D31197  10.932  13.883  31.420  0.1098  0.1687  0.0449
 1300BOLB   C2D31198  11.151  13.477  31.435  0.1270 -0.1978  0.1350
 1300BOLB   C3D31199  11.407  13.396  31.160  0.1469 -0.1382  0.0222
 1300BOLB   C4D31200  11.669  13.071  30.862 -0.1686  0.0978 -0.1167
 1301BOLB   NC131201  14.463  11.927  24.905 -0.2962 -0.0363  0.0388
 1301BOLB   PO131202  14.733  12.001  24.621  0.0169 -0.2838  0.3121
 1301BOLB   GL131203  14.605  12.377  24.424 -0.3342 -0.3670  0.1320
 1301BOLB   GL231204  14.776  12.454  24.143  0.0576 -0.0195  0.0542
 1301BOLB   C1A31205  14.413  12.771  24.498  0.1609  0.1392 -0.1929
 1301BOLB   C2A31206  14.385  13.192  24.498 -0.0396  0.0404  0.0512
 1301BOLB   C3A31207  14.685  13.623  24.525 -0.0653  0.0915 -0.1975
 1301BOLB   C4A31208  14.816  14.030  24.524 -0.0957  0.0752  0.3768
 1301BOLB   C1B31209  15.001  12.729  24.072  0.1290 -0.0686  0.1284
 1301BOLB   C2B31210  15.065  12.977  23.777  0.1588 -0.3567 -0.0857
 1301BOLB   C3B31211  15.230  13.356  23.939  0.0095 -0.0547  0.0973
 1301BOLB   C4B31212  15.319  13.760  23.817  0.3262  0.0972 -0.2560
 1301BOLB   NC231213  14.227  16.532  24.328 -0.0276  0.0440 -0.0935
 1301BOLB   PO231214  14.635  16.439  24.108  0.1131 -0.2810  0.1344
 1301BOLB   GL331215  14.950  16.199  23.987  0.0130  0.2260  0.3487
 1301BOLB   GL431216  15.238  16.095  23.698  0.0128 -0.2304  0.1448
 1301BOLB   C1C31217  14.897  15.783  24.072 -0.3375  0.1900 -0.0742
 1301BOLB   C2C31218  14.891  15.316  24.239  0.1018 -0.1145 -0.0349
 1301BOLB   C3C31219  14.931  14.888  24.374 -0.1730  0.1224 -0.0007
 1301BOLB   C4C31220  15.036  14.434  24.460  0.2043 -0.2487 -0.1367
 1301BOLB   C1D31221  15.198  15.680  23.488 -0.0491 -0.3679  0.2475
 1301BOLB   C2D31222  15.214  15.253  23.370 -0.1772  0.3008  0.0968
 1301BOLB   C3D31223  14.968  14.898  23.070  0.0710  0.1246 -0.1063
 1301BOLB   C4D31224  14.634  14.586  23.127 -0.0349 -0.1899 -0.2147
 1302BOLB   NC131225  24.402   7.161  27.955  0.0089  0.5188 -0.2202
 1302BOLB   PO131226  24.334   6.749  28.107  0.1268  0.2081  0.0655
 1302BOLB   GL131227  24.676   6.818  28.259 -0.2064 -0.0727  0.4510
 1302BOLB   GL231228  24.993   6.601  28.203  0.3747 -0.2170 -0.0177
 1302BOLB   C1A31229  25.069   7.166  28.350  0.0505 -0.1891  0.0143
 1302BOLB   C2A31230  25.049   7.589  28.419 -0.2622 -0.0608  0.0083
 1302BOLB   C3A31231  25.269   7.867  28.640  0.0930  0.0767 -0.6649
 1302BOLB   C4A31232  25.501   8.063  29.016  0.0810 -0.1669 -0.2783
 1302BOLB   C1B31233  25.326   6.563  28.505  0.0056  0.1036 -0.0784
 1302BOLB   C2B31234  25.535   6.907  28.642  0.0186 -0.2859 -0.0877
 1302BOLB   C3B31235  25.434   7.273  28.795  0.2135 -0.1748  0.0656
 1302BOLB   C4B31236  25.771   7.659  28.947  0.0613  0.1882 -0.1456
 1302BOLB   NC231237  28.307   8.483  29.885 -0.1359 -0.2148  0.2146
 1302BOLB   PO231238  27.767   8.459  29.804 -0.0140  0.0307  0.5988
 1302BOLB   GL331239  27.292   8.349  29.800  0.0222 -0.2380  0.3211
 1302BOLB   GL431240  27.217   8.082  30.092  0.0010  0.1228 -0.2415
 1302BOLB   C1C31241  26.983   8.372  29.647 -0.0898  0.0641 -0.0633
 1302BOLB   C2C31242  26.643   8.238  29.545 -0.1586 -0.0761  0.1055
 1302BOLB   C3C31243  26.332   8.161  29.271  0.0860 -0.3509 -0.0829
 1302BOLB   C4C31244  25.923   8.085  29.111 -0.2199 -0.0632 -0.1700
 1302BOLB   C1D31245  26.870   7.916  30.281  0.2270 -0.2670 -0.1964
 1302BOLB   C2D31246  26.798   7.385  30.241  0.0355 -0.0289  0.0031
 1302BOLB   C3D31247  26.532   7.047  30.092 -0.0196  0.1109  0.1725
 1302BOLB   C4D31248  26.661   6.735  29.885 -0.1620  0.3369 -0.1476
 1303BOLB   NC131249   9.162   6.133  30.364 -0.2963  0.1445 -0.0049
 1303BOLB   PO131250   9.018   6.381  30.705 -0.3909  0.1916 -0.0436
 1303BOLB   GL131251   8.751   6.371  31.121  0.0280 -0.0027  0.2035
 1303BOLB   GL231252   8.828   6.388  31.390 -0.1140  0.3187 -0.3359
 1303BOLB   C1A31253   8.372   6.288  31.376  0.0000 -0.0942  0.0769
 1303BOLB   C2A31254   8.080   6.434  31.639 -0.3002 -0.2969  0.2110
 1303BOLB   C3A31255   7.883   6.636  31.978 -0.1869  0.2248 -0.0206
 1303BOLB   C4A31256   7.445   6.973  31.773  0.1204  0.2319  0.3043
 1303BOLB   C1B31257   8.516   6.796  31.347  0.2652  0.5760  0.1231
 1303BOLB   C2B31258   8.533   7.060  31.736 -0.2613 -0.0282  0.0583
 1303BOLB   C3B31259   8.617   7.499  31.894 -0.0675  0.0286 -0.4241
 1303BOLB   C4B31260   8.672   7.901  32.156 -0.3629  0.2551  0.1179
 1303BOLB   NC231261   5.640   7.613  32.809 -0.0770  0.1740 -0.0689
 1303BOLB   PO231262   5.728   8.025  32.582 -0.0338 -0.0011 -0.1768
 1303BOLB   GL331263   6.120   7.871  32.486 -0.2217 -0.0107 -0.0387
 1303BOLB   GL431264   5.979   7.817  32.171  0.0586 -0.1860  0.0893
 1303BOLB   C1C31265   6.564   7.916  32.554  0.0582 -0.0069 -0.1126
 1303BOLB   C2C31266   6.916   7.831  32.272  0.1037 -0.3818  0.1351
 1303BOLB   C3C31267   7.080   7.595  31.939 -0.2062  0.4103  0.0507
 1303BOLB   C4C31268   7.105   7.194  31.942 -0.2192  0.1266 -0.0798
 1303BOLB   C1D31269   6.441   7.831  32.032 -0.0164  0.1124 -0.0587
 1303BOLB   C2D31270   6.564   7.608  31.673  0.2732 -0.3524  0.1450
 1303BOLB   C3D31271   6.700   7.127  31.675 -0.2912  0.0070  0.0195
 1303BOLB   C4D31272   6.841   6.706  31.617  0.0436  0.0225  0.0222
 1304BOLB   NC131273  19.779   0.776  31.233  0.2794 -0.0089  0.1392
 1304BOLB   PO131274  19.949   0.532  31.530 -0.0921 -0.0031 -0.0292
 1304BOLB   GL131275  20.107   0.436  31.967  0.1525 -0.2995  0.3556
 1304BOLB   GL231276  20.044   0.625  32.169 -0.1918 -0.0401  0.1666
 1304BOLB   C1A31277  20.147   0.292  32.493  0.0520 -0.0086 -0.1027
 1304BOLB   C2A31278  20.358   0.301  32.897  0.1927 -0.1066  0.0106
 1304BOLB   C3A31279  20.327   0.133  33.255 -0.0659  0.1651 -0.4943
 1304BOLB   C4A31280  20.571  -0.155  33.373  0.2100  0.3237 -0.0737
 1304BOLB   C1B31281  20.541   0.527  32.267 -0.1656  0.0390 -0.0933
 1304BOLB   C2B31282  20.783   0.581  32.588 -0.2377 -0.3643 -0.1192
 1304BOLB   C3B31283  21.104   0.578  32.818 -0.1077  0.0087  0.2538
 1304BOLB   C4B31284  21.379   0.762  33.064 -0.1966 -0.1512  0.0694
 1304BOLB   NC231285  22.307  -1.105  34.719 -0.1168  0.0834  0.2437
 1304BOLB   PO231286  22.191  -1.083  35.187  0.1442  0.0169  0.0521
 1304BOLB   GL331287  21.888  -0.899  34.922 -0.2324  0.1172  0.1468
 1304BOLB   GL431288  21.764  -1.081  34.515 -0.0428 -0.0541  0.1875
 1304BOLB   C1C31289  21.659  -0.624  34.565 -0.3009  0.0211  0.2970
 1304BOLB   C2C31290  21.333  -0.438  34.240 -0.1945 -0.0481 -0.2425
 1304BOLB   C3C31291  21.188  -0.235  34.013  0.1959  0.4359 -0.4745
 1304BOLB   C4C31292  20.857  -0.267  33.650 -0.0171  0.1577 -0.1256
 1304BOLB   C1D31293  21.657  -0.988  34.217 -0.4222 -0.5421  0.0899
 1304BOLB   C2D31294  21.602  -0.692  33.899 -0.2005  0.3529  0.0059
 1304BOLB   C3D31295  21.602  -0.497  33.382 -0.3098  0.0249  0.1558
 1304BOLB   C4D31296  21.743  -0.165  33.068 -0.1715  0.1376  0.0401
 1305BOLB   NC131297   8.390   0.104  27.912  0.1185 -0.1412 -0.0018
 1305BOLB   PO131298   8.595  -0.200  28.147  0.1637 -0.0703  0.1387
 1305BOLB   GL131299   8.099  -0.066  28.265 -0.0285  0.1091 -0.1101
 1305BOLB   GL231300   7.995   0.267  28.316 -0.0652  0.2094  0.1757
 1305BOLB   C1A31301   7.844  -0.511  28.211 -0.0771 -0.2873 -0.0101
 1305BOLB   C2A31302   7.557  -0.669  28.083  0.2829  0.2375 -0.1603
 1305BOLB   C3A31303   7.234  -0.760  28.223  0.1795  0.4711  0.0732
 1305BOLB   C4A31304   7.045  -0.834  28.430  0.2107 -0.3254 -0.0158
 1305BOLB   C1B31305   7.580   0.207  28.575  0.3426 -0.1589 -0.0702
 1305BOLB   C2B31306   7.096   0.134  28.627 -0.6717 -0.0048 -0.1586
 1305BOLB   C3B31307   6.695   0.155  28.754  0.1136 -0.1812 -0.2005
 1305BOLB   C4B31308   6.558   0.263  29.141  0.3045  0.1940 -0.2427
 1305BOLB   NC231309   5.317  -2.512  28.719 -0.0199  0.0851 -0.0097
 1305BOLB   PO231310   5.343  -2.859  28.448  0.2215 -0.3156  0.1051
 1305BOLB   GL331311   5.562  -2.486  28.272  0.2257  0.0731  0.0728
 1305BOLB   GL431312   5.418  -2.188  28.336  0.0536 -0.1978  0.3722
 1305BOLB   C1C31313   5.940  -2.174  28.205 -0.1961 -0.3215 -0.0356
 1305BOLB   C2C31314   6.168  -1.961  28.469 -0.0189  0.0310  0.0709
 1305BOLB   C3C31315   6.446  -1.581  28.582 -0.0788 -0.0626  0.1780
 1305BOLB   C4C31316   6.776  -1.150  28.522 -0.2810 -0.1513  0.3745
 1305BOLB   C1D31317   5.427  -2.216  27.861  0.1543  0.2648 -0.0584
 1305BOLB   C2D31318   5.910  -2.093  27.650  0.4508  0.2601  0.1490
 1305BOLB   C3D31319   6.253  -2.273  27.473 -0.2282 -0.2046 -0.0269
 1305BOLB   C4D31320   6.667  -2.139  27.274  0.1435  0.0658  0.2295
 1306BOLB   NC131321  17.517   6.004  33.479  0.1135  0.0993  0.1800
 1306BOLB   PO131322  17.204   6.326  33.532 -0.1392 -0.2709 -0.0167
 1306BOLB   GL131323  17.432   6.215  33.930  0.0528  0.0256  0.2937
 1306BOLB   GL231324  17.723   6.072  33.963  0.0578 -0.2548  0.1208
 1306BOLB   C1A31325  17.384   6.366  34.317 -0.0975 -0.5407 -0.1919
 1306BOLB   C2A31326  17.605   6.467  34.696  0.1446 -0.2506 -0.2314
 1306BOLB   C3A31327  17.764   6.686  34.966  0.1629  0.0400  0.1701
 1306BOLB   C4A31328  18.181   6.573  35.081 -0.0644  0.1216  0.2429
 1306BOLB   C1B31329  17.810   6.138  34.333 -0.1136  0.1474  0.1646
 1306BOLB   C2B31330  17.952   6.133  34.703 -0.0510  0.0182  0.1687
 1306BOLB   C3B31331  17.952   5.958  35.154 -0.2900 -0.1234 -0.2048
 1306BOLB   C4B31332  17.900   5.912  35.546 -0.0259  0.1227 -0.0128
 1306BOLB   NC231333  19.900   6.257  37.197  0.1686  0.3599 -0.0023
 1306BOLB   PO231334  19.774   6.614  36.946  0.1644  0.0776 -0.4002
 1306BOLB   GL331335  19.448   6.508  36.642 -0.1983 -0.0168  0.4177
 1306BOLB   GL431336  19.162   6.377  36.687 -0.0253 -0.2278  0.3606
 1306BOLB   C1C31337  19.329   6.512  36.139 -0.1764  0.2137  0.1310
 1306BOLB   C2C31338  19.199   6.440  35.736 -0.1098  0.0506 -0.1356
 1306BOLB   C3C31339  18.866   6.592  35.640  0.0526  0.1418  0.2343
 1306BOLB   C4C31340  18.610   6.637  35.215  0.1145  0.2456 -0.2380
 1306BOLB   C1D31341  19.052   6.829  36.471  0.1392 -0.0053  0.0060
 1306BOLB   C2D31342  18.824   6.954  36.087 -0.1198 -0.2045  0.1821
 1306BOLB   C3D31343  18.499   7.003  35.626  0.0543  0.1316 -0.0478
 1306BOLB   C4D31344  18.428   7.241  35.333 -0.0059  0.1019 -0.1291
 1307BOLB   NC131345  16.387   7.174  34.044  0.4074 -0.1465 -0.2139
 1307BOLB   PO131346  16.107   7.465  33.986  0.1431  0.1116  0.3375
 1307BOLB   GL131347  16.502   7.688  34.253 -0.1760 -0.5422  0.0276
 1307BOLB   GL231348  16.274   7.519  34.544  0.0252 -0.0422  0.2449
 1307BOLB   C1A31349  16.870   7.800  34.415  0.0182  0.0700  0.3833
 1307BOLB   C2A31350  16.980   8.168  34.517  0.1115  0.2188 -0.0698
 1307BOLB   C3A31351  17.228   8.500  34.708 -0.0863  0.0439 -0.5524
 1307BOLB   C4A31352  17.191   9.002  34.767  0.2019 -0.2009  0.1326
 1307BOLB   C1B31353  16.273   7.378  34.888  0.2148  0.0999  0.0782
 1307BOLB   C2B31354  16.579   7.228  35.110  0.0294  0.1415  0.0206
 1307BOLB   C3B31355  16.725   7.387  35.497  0.0565 -0.1532 -0.0452
 1307BOLB   C4B31356  17.020   7.503  35.795  0.0423  0.0219 -0.0010
 1307BOLB   NC231357  17.512   8.815  36.943  0.1137  0.0042  0.3173
 1307BOLB   PO231358  17.644   9.230  36.930  0.0025 -0.1929  0.2196
 1307BOLB   GL331359  17.780   9.096  36.571  0.1326  0.1597 -0.0618
 1307BOLB   GL431360  17.801   8.746  36.545  0.2057  0.3972  0.2956
 1307BOLB   C1C31361  17.769   9.187  36.170  0.2507  0.0880 -0.1993
 1307BOLB   C2C31362  17.670   9.051  35.814  0.2680  0.0012  0.0597
 1307BOLB   C3C31363  17.543   8.948  35.494 -0.1953  0.2512  0.2195
 1307BOLB   C4C31364  17.306   9.139  35.183  0.0877  0.1437  0.3321
 1307BOLB   C1D31365  17.789   8.662  36.102  0.1072 -0.0486 -0.1825
 1307BOLB   C2D31366  17.985   8.226  35.890  0.2768 -0.1033 -0.0080
 1307BOLB   C3D31367  18.128   8.170  35.454 -0.1932 -0.1166 -0.1560
 1307BOLB   C4D31368  18.141   8.093  35.019 -0.3462  0.2046 -0.0576
 1308BOLB   NC131369  23.992   5.705  23.034 -0.2562 -0.2418 -0.1397
 1308BOLB   PO131370  24.063   5.381  23.376  0.1636 -0.1166 -0.0525
 1308BOLB   GL131371  24.430   5.450  23.066 -0.1513  0.0434  0.0292
 1308BOLB   GL231372  24.581   5.385  23.328  0.0779 -0.0377 -0.1668
 1308BOLB   C1A31373  24.821   5.340  22.813 -0.0140 -0.1100  0.1229
 1308BOLB   C2A31374  25.081   5.490  22.514 -0.0949 -0.2837  0.1189
 1308BOLB   C3A31375  25.573   5.448  22.398 -0.1588 -0.3080 -0.0056
 1308BOLB   C4A31376  25.991   5.676  22.310  0.0848  0.1646 -0.0773
 1308BOLB   C1B31377  24.941   5.497  23.270  0.1962  0.2505 -0.0127
 1308BOLB   C2B31378  25.285   5.585  22.998  0.2818  0.0877  0.3196
 1308BOLB   C3B31379  25.712   5.503  22.868  0.2525  0.2137 -0.1761
 1308BOLB   C4B31380  26.037   5.219  22.710  0.0281  0.1612  0.1539
 1308BOLB   NC231381  28.544   5.235  22.449  0.1798  0.2339  0.0334
 1308BOLB   PO231382  28.262   5.205  22.043  0.0943  0.1275  0.1081
 1308BOLB   GL331383  27.925   5.096  22.252 -0.2722  0.0553 -0.4823
 1308BOLB   GL431384  27.911   5.055  22.578  0.0165  0.0510 -0.0344
 1308BOLB   C1C31385  27.527   5.347  22.281 -0.0320  0.1777 -0.1194
 1308BOLB   C2C31386  27.118   5.467  22.159 -0.1256 -0.3505 -0.2396
 1308BOLB   C3C31387  26.744   5.774  22.121  0.1648  0.0829  0.1962
 1308BOLB   C4C31388  26.276   5.670  22.087  0.3581  0.1012 -0.3814
 1308BOLB   C1D31389  27.574   4.672  22.732 -0.1273  0.0632 -0.0602
 1308BOLB   C2D31390  27.260   4.455  23.018 -0.0335 -0.0554 -0.0998
 1308BOLB   C3D31391  26.955   4.300  23.267 -0.0514 -0.1000 -0.2680
 1308BOLB   C4D31392  26.706   4.143  23.615  0.0816  0.1650  0.2293
 1309BOLB   NC131393  13.008  16.173  25.006  0.0405  0.1062 -0.5300
 1309BOLB   PO131394  12.612  16.321  25.351 -0.0890 -0.1624 -0.1063
 1309BOLB   GL131395  12.620  15.889  25.533  0.1672 -0.1935  0.1125
 1309BOLB   GL231396  12.629  15.805  25.359 -0.2538 -0.2170 -0.4402
 1309BOLB   C1A31397  12.668  15.790  25.967  0.0132  0.1686  0.0817
 1309BOLB   C2A31398  12.647  15.403  26.173 -0.2727 -0.1122 -0.0320
 1309BOLB   C3A31399  12.660  15.040  26.336  0.2648  0.5405 -0.2177
 1309BOLB   C4A31400  12.983  14.765  26.531  0.3700  0.3557  0.1313
 1309BOLB   C1B31401  12.526  15.391  25.267 -0.0979 -0.0416  0.0446
 1309BOLB   C2B31402  12.554  15.013  25.317  0.2143 -0.0040  0.1004
 1309BOLB   C3B31403  12.776  14.613  25.362  0.1516  0.5344  0.1093
 1309BOLB   C4B31404  12.620  14.123  25.333  0.0609  0.0343  0.3753
 1309BOLB   NC231405  13.853  16.926  26.903  0.1310 -0.2331  0.1203
 1309BOLB   PO231406  13.454  16.814  26.566  0.1623 -0.1216  0.0275
 1309BOLB   GL331407  13.677  16.377  26.628  0.2535 -0.0209 -0.1416
 1309BOLB   GL431408  14.004  16.367  26.594  0.3777  0.2000 -0.0466
 1309BOLB   C1C31409  13.582  15.969  26.867 -0.1414  0.1403 -0.1564
 1309BOLB   C2C31410  13.672  15.539  26.868  0.0252  0.0094  0.0530
 1309BOLB   C3C31411  13.626  15.212  26.807 -0.0446  0.4643 -0.0037
 1309BOLB   C4C31412  13.324  14.889  26.695 -0.1109  0.1260  0.0274
 1309BOLB   C1D31413  13.997  15.847  26.582  0.0208  0.2585 -0.3194
 1309BOLB   C2D31414  14.040  15.413  26.588  0.0090 -0.2054  0.0309
 1309BOLB   C3D31415  14.005  14.955  26.651  0.1862 -0.0334 -0.2923
 1309BOLB   C4D31416  14.181  14.575  26.681 -0.0388 -0.4931  0.0256
 1310BOLB   NC131417   7.330   1.872  24.187  0.1650  0.1126 -0.3721
 1310BOLB   PO131418   7.052   2.158  24.040  0.1859  0.3857  0.2971
 1310BOLB   GL131419   6.640   2.072  23.865 -0.0383  0.1879  0.0954
 1310BOLB   GL231420   6.702   1.998  23.523 -0.1282  0.0237  0.2083
 1310BOLB   C1A31421   6.265   2.041  23.832  0.0416 -0.0325  0.1510
 1310BOLB   C2A31422   5.967   1.704  23.749  0.1953 -0.1502  0.0215
 1310BOLB   C3A31423   5.731   1.370  23.702 -0.0137 -0.1141 -0.1375
 1310BOLB   C4A31424   5.588   1.258  23.466 -0.0608 -0.3378  0.1769
 1310BOLB   C1B31425   6.340   1.731  23.416 -0.0259 -0.1630 -0.2909
 1310BOLB   C2B31426   5.878   1.613  23.182 -0.0541  0.2727 -0.1296
 1310BOLB   C3B31427   5.551   1.637  22.766 -0.2961 -0.0594 -0.0753
 1310BOLB   C4B31428   5.390   1.569  22.384 -0.3132  0.0637  0.2220
 1310BOLB   NC231429   3.115   0.745  23.436 -0.1079  0.0206  0.0325
 1310BOLB   PO231430   3.224   0.683  23.005 -0.0229  0.1027 -0.2903
 1310BOLB   GL331431   3.682   0.563  23.108  0.0073 -0.1916  0.0325
 1310BOLB   GL431432   3.558   0.420  23.337  0.0122  0.1863 -0.2734
 1310BOLB   C1C31433   4.097   0.506  23.010 -0.2930 -0.0570 -0.0083
 1310BOLB   C2C31434   4.523   0.816  23.146  0.2943 -0.0110  0.0321
 1310BOLB   C3C31435   4.865   0.882  23.244 -0.2989 -0.1440 -0.0576
 1310BOLB   C4C31436   5.264   1.061  23.264 -0.1520  0.2255  0.3954
 1310BOLB   C1D31437   3.966   0.486  23.583  0.3547  0.2185  0.1117
 1310BOLB   C2D31438   4.361   0.513  23.494 -0.1190  0.1634 -0.0185
 1310BOLB   C3D31439   4.806   0.406  23.370  0.3091 -0.0118 -0.2025
 1310BOLB   C4D31440   5.267   0.639  23.567 -0.0120  0.0126  0.0984
 1311BOLB   NC131441  21.322   7.750  20.517 -0.4200 -0.0524 -0.1005
 1311BOLB   PO131442  21.469   7.997  20.100 -0.2541  0.4354 -0.0590
 1311BOLB   GL131443  21.781   8.148  20.054 -0.0265  0.0535 -0.1497
 1311BOLB   GL231444  21.983   8.454  20.254  0.2886 -0.2231 -0.1410
 1311BOLB   C1A31445  21.985   8.400  19.762  0.0467 -0.1537  0.0085
 1311BOLB   C2A31446  22.457   8.458  19.724  0.1374 -0.3048  0.0591
 1311BOLB   C3A31447  22.852   8.664  19.627  0.1396  0.0175  0.0769
 1311BOLB   C4A31448  23.212   8.910  19.522  0.0507  0.0143 -0.0493
 1311BOLB   C1B31449  22.089   8.769  20.149  0.3168 -0.2772 -0.4278
 1311BOLB   C2B31450  22.405   8.913  19.950 -0.2762  0.1269  0.0204
 1311BOLB   C3B31451  22.449   9.318  19.807 -0.0325  0.3513  0.1181
 1311BOLB   C4B31452  22.626   9.635  19.706 -0.1678  0.1224  0.2468
 1311BOLB   NC231453  24.652  10.785  18.212  0.1250  0.4794 -0.2950
 1311BOLB   PO231454  24.399  10.782  18.645 -0.2526  0.2063 -0.0499
 1311BOLB   GL331455  24.207  10.601  19.031  0.0148 -0.0186 -0.0476
 1311BOLB   GL431456  24.174  10.767  19.357  0.1884 -0.0999 -0.1121
 1311BOLB   C1C31457  23.885  10.394  19.000 -0.0295  0.1028 -0.2016
 1311BOLB   C2C31458  23.874   9.878  19.180 -0.2312 -0.0308 -0.4409
 1311BOLB   C3C31459  23.795   9.535  19.368 -0.1435  0.0258 -0.2698
 1311BOLB   C4C31460  23.607   9.142  19.607  0.0426 -0.1072  0.4455
 1311BOLB   C1D31461  23.706  10.722  19.635 -0.0131  0.1573 -0.0240
 1311BOLB   C2D31462  23.305  10.440  19.796  0.0086  0.0354  0.2376
 1311BOLB   C3D31463  23.005  10.085  19.700  0.1621  0.1520 -0.0258
 1311BOLB   C4D31464  22.896   9.799  19.318  0.1984  0.1486 -0.1737
 1312BOLB   NC131465  22.506  -0.519  21.170  0.0403  0.0238 -0.2378
 1312BOLB   PO131466  22.873  -0.811  21.308  0.0706 -0.0835 -0.1025
 1312BOLB   GL131467  23.157  -1.109  21.403  0.0607  0.2110  0.0961
 1312BOLB   GL231468  23.405  -1.097  21.124  0.1163  0.2068  0.1218
 1312BOLB   C1A31469  23.567  -1.321  21.560 -0.0913 -0.0311  0.0001
 1312BOLB   C2A31470  23.820  -1.556  21.900 -0.4380 -0.0771  0.0060
 1312BOLB   C3A31471  24.030  -2.008  21.954  0.1030  0.1994  0.0226
 1312BOLB   C4A31472  24.006  -2.576  21.857 -0.1315  0.3954 -0.0315
 1312BOLB   C1B31473  23.653  -1.422  20.951 -0.1952 -0.0179 -0.1442
 1312BOLB   C2B31474  24.079  -1.587  20.816  0.0319 -0.1203  0.2014
 1312BOLB   C3B31475  24.409  -1.750  20.628  0.1227 -0.0565  0.0737
 1312BOLB   C4B31476  24.800  -1.764  20.452 -0.1157 -0.2095  0.0232
 1312BOLB   NC231477  25.985  -4.194  21.961 -0.0368 -0.2490  0.2031
 1312BOLB   PO231478  25.873  -4.181  22.333  0.1421  0.3476 -0.2967
 1312BOLB   GL331479  25.553  -4.005  22.200  0.0677  0.0341 -0.0142
 1312BOLB   GL431480  25.506  -3.716  22.002  0.1255 -0.2129 -0.0616
 1312BOLB   C1C31481  25.099  -3.969  22.185 -0.0187 -0.1591 -0.2725
 1312BOLB   C2C31482  24.906  -3.495  22.048 -0.0105  0.1301  0.0333
 1312BOLB   C3C31483  24.619  -3.252  21.934 -0.1998  0.0597 -0.1282
 1312BOLB   C4C31484  24.255  -3.012  21.799  0.3730 -0.0587  0.0769
 1312BOLB   C1D31485  25.167  -3.829  21.694 -0.1837  0.1160  0.1344
 1312BOLB   C2D31486  24.726  -3.756  21.637 -0.0363 -0.1099 -0.1993
 1312BOLB   C3D31487  24.245  -3.669  21.617  0.3486  0.0349  0.1542
 1312BOLB   C4D31488  23.900  -3.410  21.647 -0.0234 -0.3538 -0.1961
 1313BOLB   NC131489  16.079  12.359  25.447 -0.1916 -0.1689  0.3447
 1313BOLB   PO131490  16.018  12.125  25.040 -0.1415 -0.0918 -0.5149
 1313BOLB   GL131491  16.172  12.592  24.922  0.3563  0.0765  0.0043
 1313BOLB   GL231492  15.883  12.717  24.742 -0.1043 -0.1768  0.0171
 1313BOLB   C1A31493  16.324  12.973  24.892  0.0605 -0.1092 -0.0565
 1313BOLB   C2A31494  16.664  13.341  24.761  0.2274  0.5851 -0.4173
 1313BOLB   C3A31495  16.835  13.676  24.776  0.1613 -0.2411  0.3745
 1313BOLB   C4A31496  16.829  13.986  25.085  0.1933 -0.3725 -0.2034
 1313BOLB   C1B31497  15.869  13.049  24.700 -0.2049 -0.1646  0.2554
 1313BOLB   C2B31498  16.109  13.399  24.889 -0.5921 -0.1372  0.1578
 1313BOLB   C3B31499  16.354  13.808  24.710 -0.0405  0.1751 -0.0290
 1313BOLB   C4B31500  16.294  14.283  24.862  0.0118  0.1560  0.2758
 1313BOLB   NC231501  18.255  15.651  24.747 -0.3050  0.0282 -0.1589
 1313BOLB   PO231502  17.872  15.976  24.890 -0.4539  0.1379 -0.0226
 1313BOLB   GL331503  17.718  15.628  24.706  0.2001  0.0751  0.3152
 1313BOLB   GL431504  17.461  15.639  24.473 -0.1694  0.1718 -0.5119
 1313BOLB   C1C31505  17.544  15.305  24.964  0.1080  0.0472 -0.1822
 1313BOLB   C2C31506  17.460  14.917  25.124  0.1829  0.0159 -0.1589
 1313BOLB   C3C31507  17.353  14.578  25.087 -0.5103  0.0585 -0.2508
 1313BOLB   C4C31508  17.058  14.304  25.105  0.1126 -0.0052 -0.3152
 1313BOLB   C1D31509  17.384  15.214  24.492  0.1339  0.1367 -0.0520
 1313BOLB   C2D31510  17.386  14.799  24.659  0.0155  0.0839 -0.0864
 1313BOLB   C3D31511  17.223  14.455  24.548  0.0591 -0.3480  0.1482
 1313BOLB   C4D31512  17.289  14.036  24.695  0.0163  0.1646  0.0838
 1314BOLB   NC131513  24.507   4.223  27.276 -0.1200  0.2950 -0.2622
 1314BOLB   PO131514  24.639   4.160  26.897 -0.1548  0.1745 -0.1870
 1314BOLB   GL131515  25.172   4.168  26.836  0.2161  0.0638 -0.1777
 1314BOLB   GL231516  25.266   3.838  26.838 -0.0296  0.0403  0.0318
 1314BOLB   C1A31517  25.599   4.348  27.026 -0.4604  0.3482 -0.1788
 1314BOLB   C2A31518  25.941   4.172  27.278 -0.2035 -0.1883 -0.0776
 1314BOLB   C3A31519  26.362   4.074  27.457 -0.0549 -0.3120  0.4214
 1314BOLB   C4A31520  26.807   4.315  27.383 -0.0890  0.0640 -0.4182
 1314BOLB   C1B31521  25.774   3.868  26.916 -0.1351 -0.1780 -0.2019
 1314BOLB   C2B31522  26.197   3.757  26.978  0.2356  0.2332 -0.1379
 1314BOLB   C3B31523  26.547   3.593  27.331  0.0362  0.2797 -0.0484
 1314BOLB   C4B31524  26.811   3.456  27.748 -0.2375 -0.2388 -0.1148
 1314BOLB   NC231525  28.886   4.689  26.491 -0.1543  0.2742 -0.2500
 1314BOLB   PO231526  28.624   5.060  26.506 -0.2167  0.0619 -0.0243
 1314BOLB   GL331527  28.386   4.742  26.575 -0.0013  0.0610 -0.1405
 1314BOLB   GL431528  28.336   4.659  26.233  0.0449 -0.0471  0.0408
 1314BOLB   C1C31529  27.886   4.664  26.500 -0.0192 -0.0869 -0.0939
 1314BOLB   C2C31530  27.714   4.407  26.836 -0.1159  0.1093 -0.1504
 1314BOLB   C3C31531  27.577   4.354  27.292 -0.2578  0.2185  0.0359
 1314BOLB   C4C31532  27.215   4.275  27.245 -0.2110  0.0444  0.0555
 1314BOLB   C1D31533  28.007   4.339  26.038  0.0884  0.0968  0.3136
 1314BOLB   C2D31534  27.621   4.179  25.921 -0.3938 -0.0887  0.0798
 1314BOLB   C3D31535  27.221   4.346  25.709 -0.0108  0.1657 -0.0847
 1314BOLB   C4D31536  26.882   4.405  25.460 -0.0500  0.3273 -0.0249
 1315BOLB   NC131537  14.365   7.601  13.272 -0.0364  0.1227  0.2210
 1315BOLB   PO131538  14.751   7.383  13.051 -0.0627  0.2223  0.1068
 1315BOLB   GL131539  14.727   7.060  13.423  0.2167 -0.0738 -0.1743
 1315BOLB   GL231540  14.343   7.124  13.527 -0.1494 -0.1653  0.1656
 1315BOLB   C1A31541  14.886   6.751  13.546 -0.1686 -0.1097  0.1337
 1315BOLB   C2A31542  15.182   6.501  13.536 -0.0428  0.1008  0.0679
 1315BOLB   C3A31543  15.557   6.279  13.641  0.2547  0.0793  0.4391
 1315BOLB   C4A31544  15.770   6.295  14.019 -0.0322 -0.1318  0.1848
 1315BOLB   C1B31545  14.429   6.882  13.769  0.3066  0.0946 -0.1792
 1315BOLB   C2B31546  14.744   6.686  14.099  0.1624 -0.0864  0.0038
 1315BOLB   C3B31547  14.954   6.332  14.164 -0.0913 -0.2192  0.0940
 1315BOLB   C4B31548  15.130   6.023  14.478  0.1361 -0.1283 -0.1669
 1315BOLB   NC231549  17.636   6.883  12.068  0.2397 -0.0091 -0.0706
 1315BOLB   PO231550  17.461   6.631  12.498  0.0129 -0.1514 -0.2063
 1315BOLB   GL331551  17.316   6.509  12.988 -0.0416 -0.0395 -0.0151
 1315BOLB   GL431552  17.271   6.136  13.041  0.1126 -0.1270  0.1637
 1315BOLB   C1C31553  17.119   6.590  13.339 -0.2093  0.1797  0.1430
 1315BOLB   C2C31554  16.967   6.470  13.802 -0.0740 -0.0925  0.0657
 1315BOLB   C3C31555  16.625   6.320  14.004  0.0827  0.1875 -0.2244
 1315BOLB   C4C31556  16.154   6.127  14.164  0.1290 -0.0891  0.0956
 1315BOLB   C1D31557  17.688   6.156  13.106 -0.2105  0.1004 -0.1408
 1315BOLB   C2D31558  18.108   6.287  13.125  0.0691 -0.2205  0.0668
 1315BOLB   C3D31559  18.295   6.388  13.448 -0.2915  0.0828  0.2050
 1315BOLB   C4D31560  18.515   6.462  13.876  0.1893  0.0145  0.2745
 1316BOLB   NC131561   7.822   1.971  28.296 -0.0624  0.0547 -0.2159
 1316BOLB   PO131562   7.442   1.993  28.212  0.0719  0.0628 -0.2325
 1316BOLB   GL131563   7.068   1.956  28.523  0.1026  0.1484 -0.2642
 1316BOLB   GL231564   7.173   2.042  28.740 -0.2069  0.3054 -0.0601
 1316BOLB   C1A31565   6.612   1.917  28.654  0.0965 -0.0560  0.2383
 1316BOLB   C2A31566   6.308   2.156  28.746  0.0678 -0.2790  0.1036
 1316BOLB   C3A31567   5.901   2.187  28.873  0.3826  0.3378 -0.0516
 1316BOLB   C4A31568   5.495   2.058  28.672  0.1625  0.0947  0.2579
 1316BOLB   C1B31569   6.935   1.898  29.037 -0.0684  0.2578 -0.0303
 1316BOLB   C2B31570   6.558   1.750  29.142 -0.4460  0.1354 -0.0736
 1316BOLB   C3B31571   6.113   1.824  29.196  0.0420 -0.0440  0.2767
 1316BOLB   C4B31572   5.642   1.777  29.123 -0.0989  0.4077 -0.0717
 1316BOLB   NC231573   3.144   1.460  28.342  0.0379  0.1234  0.0397
 1316BOLB   PO231574   3.221   1.010  28.534 -0.0632 -0.2611  0.0734
 1316BOLB   GL331575   3.628   0.908  28.274  0.0918 -0.0242 -0.1800
 1316BOLB   GL431576   3.944   0.707  28.412 -0.1586  0.1555  0.0074
 1316BOLB   C1C31577   4.037   1.275  28.349 -0.2161  0.0000 -0.0330
 1316BOLB   C2C31578   4.374   1.487  28.458  0.1046  0.3836  0.2431
 1316BOLB   C3C31579   4.766   1.558  28.467 -0.3088  0.4096  0.0186
 1316BOLB   C4C31580   5.166   1.869  28.455 -0.0193 -0.1256  0.1319
 1316BOLB   C1D31581   4.196   0.768  28.108 -0.1389  0.2083  0.0280
 1316BOLB   C2D31582   4.551   0.826  27.891 -0.0370 -0.1366  0.0204
 1316BOLB   C3D31583   4.856   0.793  27.675  0.2650  0.2012 -0.1450
 1316BOLB   C4D31584   5.236   0.976  27.598 -0.1656 -0.0949  0.0436
 1317BOLB   NC131585  13.756  11.693  24.120  0.0696 -0.1817  0.1407
 1317BOLB   PO131586  14.052  11.836  23.817 -0.2954 -0.0088  0.1877
 1317BOLB   GL131587  13.955  12.176  23.632 -0.2531  0.1430  0.0273
 1317BOLB   GL231588  13.596  12.159  23.749  0.2286 -0.1278 -0.1732
 1317BOLB   C1A31589  13.831  12.644  23.721 -0.0885  0.1046 -0.1866
 1317BOLB   C2A31590  13.539  12.893  23.604  0.0030 -0.0004  0.1378
 1317BOLB   C3A31591  13.228  12.973  23.428  0.1783 -0.1755 -0.0429
 1317BOLB   C4A31592  12.939  13.288  23.389  0.0608  0.2567 -0.0410
 1317BOLB   C1B31593  13.482  12.394  23.433 -0.0027  0.0852 -0.1621
 1317BOLB   C2B31594  13.478  12.661  23.033 -0.1329 -0.0044 -0.1112
 1317BOLB   C3B31595  13.385  12.857  22.684  0.0546 -0.0062  0.0508
 1317BOLB   C4B31596  13.421  13.203  22.428  0.0155  0.0848  0.0195
 1317BOLB   NC231597  12.376  15.735  23.363  0.0545  0.0825 -0.1120
 1317BOLB   PO231598  12.520  15.627  22.938 -0.3433  0.1100 -0.1053
 1317BOLB   GL331599  12.604  15.200  22.976 -0.2461  0.2764 -0.3441
 1317BOLB   GL431600  12.484  15.204  23.308  0.0098 -0.0926  0.1677
 1317BOLB   C1C31601  12.703  14.794  23.113 -0.3523 -0.2430  0.1507
 1317BOLB   C2C31602  12.628  14.405  23.262 -0.2851  0.1712  0.0760
 1317BOLB   C3C31603  12.620  14.047  23.449  0.1456  0.0141  0.2664
 1317BOLB   C4C31604  12.671  13.676  23.396  0.2913 -0.1237 -0.2557
 1317BOLB   C1D31605  12.668  15.050  23.626  0.0066 -0.0918 -0.2595
 1317BOLB   C2D31606  12.584  14.785  23.981 -0.1418  0.2156 -0.3294
 1317BOLB   C3D31607  12.727  14.516  24.284 -0.1433  0.0435  0.1858
 1317BOLB   C4D31608  13.019  14.209  24.516 -0.3241  0.0507  0.1097
 1318BOLB   NC131609  13.144  -2.004  29.633  0.5086 -0.0361  0.3209
 1318BOLB   PO131610  13.061  -2.009  30.029  0.0020 -0.0788 -0.0921
 1318BOLB   GL131611  13.087  -2.143  30.402  0.0757  0.1445 -0.0029
 1318BOLB   GL231612  12.740  -2.105  30.339  0.1458 -0.0076 -0.1769
 1318BOLB   C1A31613  13.214  -2.543  30.550  0.3076 -0.4338  0.2474
 1318BOLB   C2A31614  13.024  -2.994  30.687  0.0529  0.3645  0.0208
 1318BOLB   C3A31615  12.859  -3.379  30.568 -0.2585  0.4866  0.2617
 1318BOLB   C4A31616  12.568  -3.573  30.853 -0.1987  0.3117 -0.0315
 1318BOLB   C1B31617  12.695  -2.334  30.669  0.0870  0.2573 -0.0079
 1318BOLB   C2B31618  12.424  -2.469  30.899  0.2564 -0.0693  0.2372
 1318BOLB   C3B31619  12.269  -2.703  31.260 -0.3187 -0.0427 -0.0382
 1318BOLB   C4B31620  11.938  -2.970  31.270 -0.0745 -0.0786 -0.2163
 1318BOLB   NC231621  11.243  -5.209  32.698 -0.3062  0.2680  0.4114
 1318BOLB   PO231622  11.473  -4.914  32.769 -0.1549 -0.0305 -0.0992
 1318BOLB   GL331623  11.582  -4.479  32.503  0.0289 -0.1948 -0.0684
 1318BOLB   GL431624  11.971  -4.325  32.522  0.0786 -0.3985 -0.0495
 1318BOLB   C1C31625  11.623  -4.260  32.088 -0.3512  0.0919 -0.1762
 1318BOLB   C2C31626  11.577  -4.250  31.620 -0.2355 -0.0253  0.1804
 1318BOLB   C3C31627  11.917  -4.170  31.311  0.0440 -0.2014  0.1591
 1318BOLB   C4C31628  12.253  -3.857  31.116  0.0999  0.4019  0.0837
 1318BOLB   C1D31629  12.102  -3.946  32.278  0.0270 -0.3430 -0.1948
 1318BOLB   C2D31630  12.115  -3.462  32.081  0.3222  0.4194  0.3411
 1318BOLB   C3D31631  12.245  -3.074  31.974  0.0486  0.0836  0.4742
 1318BOLB   C4D31632  12.076  -2.803  31.733 -0.1634  0.0252  0.3282
 1319BOLB   NC131633   4.202   5.528  19.043 -0.1755  0.2268  0.0652
 1319BOLB   PO131634   4.180   5.334  19.428 -0.2563  0.0020  0.4226
 1319BOLB   GL131635   4.545   5.167  19.773  0.0530  0.3118 -0.0770
 1319BOLB   GL231636   4.813   5.056  19.729  0.0845 -0.1262  0.3620
 1319BOLB   C1A31637   4.691   4.909  20.166  0.2249 -0.2968  0.3416
 1319BOLB   C2A31638   5.118   4.796  20.344  0.0624 -0.2072  0.0678
 1319BOLB   C3A31639   5.495   4.619  20.390 -0.0002  0.4571 -0.1338
 1319BOLB   C4A31640   5.733   4.315  20.594  0.0596 -0.0394  0.2123
 1319BOLB   C1B31641   5.244   5.073  19.778 -0.4244 -0.1661  0.0330
 1319BOLB   C2B31642   5.579   4.970  20.062 -0.2616  0.1793  0.2126
 1319BOLB   C3B31643   6.019   5.116  19.934 -0.0523 -0.1457  0.1388
 1319BOLB   C4B31644   6.418   5.104  19.795 -0.1281  0.0388 -0.0232
 1319BOLB   NC231645   3.699   3.341  21.011  0.1815  0.0185 -0.0667
 1319BOLB   PO231646   3.774   3.441  20.615 -0.1769  0.2054  0.0039
 1319BOLB   GL331647   4.232   3.470  20.686 -0.2666 -0.2084 -0.2673
 1319BOLB   GL431648   4.432   3.587  20.400 -0.0705  0.0913  0.1085
 1319BOLB   C1C31649   4.628   3.205  20.585 -0.1396 -0.3144 -0.1574
 1319BOLB   C2C31650   5.032   3.366  20.737 -0.2266 -0.0377  0.2063
 1319BOLB   C3C31651   5.096   3.851  20.854 -0.2088  0.0160 -0.0047
 1319BOLB   C4C31652   5.563   4.005  20.840 -0.0997 -0.0323 -0.0539
 1319BOLB   C1D31653   4.849   3.495  20.209  0.4675  0.0580 -0.2642
 1319BOLB   C2D31654   5.209   3.633  20.326 -0.1916  0.1429  0.0369
 1319BOLB   C3D31655   5.463   3.567  20.578  0.1631  0.3086 -0.0438
 1319BOLB   C4D31656   5.499   3.552  21.120 -0.0032 -0.0301  0.1216
 1320BOLB   NC131657  10.501   2.004  31.766  0.1973 -0.0003 -0.2644
 1320BOLB   PO131658  10.521   2.359  32.017 -0.0529  0.3535  0.2163
 1320BOLB   GL131659  10.236   2.203  32.249  0.0868  0.0220 -0.0293
 1320BOLB   GL231660  10.295   2.295  32.481  0.1000 -0.2523  0.2337
 1320BOLB   C1A31661  10.086   1.839  32.607  0.2851 -0.0031 -0.2174
 1320BOLB   C2A31662   9.683   1.754  32.732 -0.3743  0.5008  0.0013
 1320BOLB   C3A31663   9.245   1.590  32.771 -0.1788  0.2219  0.2287
 1320BOLB   C4A31664   8.836   1.362  32.877 -0.2814 -0.1540  0.0420
 1320BOLB   C1B31665  10.195   2.215  32.931 -0.0993 -0.0114  0.3645
 1320BOLB   C2B31666   9.859   2.062  33.132  0.0358 -0.4113  0.2263
 1320BOLB   C3B31667   9.438   2.045  33.045  0.0061  0.0951 -0.0043
 1320BOLB   C4B31668   9.174   2.391  33.142 -0.1148  0.1100  0.3619
 1320BOLB   NC231669   7.870   1.248  34.633  0.3235 -0.3387 -0.0899
 1320BOLB   PO231670   8.023   0.876  34.673  0.0883  0.0741  0.3094
 1320BOLB   GL331671   8.077   0.989  34.238  0.3028 -0.1752 -0.2181
 1320BOLB   GL431672   8.382   0.838  34.099 -0.2783 -0.4558 -0.1392
 1320BOLB   C1C31673   8.001   1.304  33.940 -0.2465 -0.1050  0.0363
 1320BOLB   C2C31674   8.037   1.186  33.450 -0.1138  0.1481  0.0117
 1320BOLB   C3C31675   8.162   1.357  33.067 -0.2025 -0.3552  0.0755
 1320BOLB   C4C31676   8.432   1.306  32.734  0.0666  0.2686 -0.3030
 1320BOLB   C1D31677   8.451   1.135  33.759 -0.2686  0.1710  0.0772
 1320BOLB   C2D31678   8.626   1.322  33.359  0.2671 -0.1228 -0.2044
 1320BOLB   C3D31679   8.930   1.479  33.392 -0.1601 -0.6574 -0.1383
 1320BOLB   C4D31680   9.334   1.623  33.261 -0.1553 -0.0930  0.0026
 1321BOLB   NC131681  17.980   8.722  19.217 -0.2095  0.3218 -0.0856
 1321BOLB   PO131682  17.863   8.639  18.768 -0.0666 -0.1679  0.3339
 1321BOLB   GL131683  17.816   8.952  18.460  0.3033 -0.3731 -0.2227
 1321BOLB   GL231684  17.821   8.870  18.200 -0.1521 -0.1025  0.2822
 1321BOLB   C1A31685  17.559   9.255  18.229 -0.0291 -0.3440  0.5591
 1321BOLB   C2A31686  17.320   9.624  17.891  0.1170 -0.1793 -0.0100
 1321BOLB   C3A31687  17.114   9.987  17.716  0.2055 -0.2117 -0.4020
 1321BOLB   C4A31688  16.853  10.187  17.523 -0.0966  0.0162  0.3896
 1321BOLB   C1B31689  17.753   8.977  17.782 -0.4396 -0.0790 -0.1015
 1321BOLB   C2B31690  17.621   9.313  17.546 -0.4845  0.2584 -0.0514
 1321BOLB   C3B31691  17.938   9.705  17.483 -0.2805 -0.1310  0.2241
 1321BOLB   C4B31692  18.355   9.888  17.616 -0.1898  0.0256  0.0226
 1321BOLB   NC231693  16.805  12.114  16.370  0.1011  0.4219 -0.1844
 1321BOLB   PO231694  16.565  11.971  16.101 -0.0238  0.0117 -0.3258
 1321BOLB   GL331695  16.345  11.743  16.391  0.0271 -0.1244  0.1319
 1321BOLB   GL431696  16.162  11.690  16.545 -0.1289  0.0275 -0.2000
 1321BOLB   C1C31697  16.395  11.290  16.439  0.0593 -0.1930 -0.1349
 1321BOLB   C2C31698  16.744  10.990  16.480 -0.1514 -0.1509 -0.0563
 1321BOLB   C3C31699  16.940  10.565  16.652  0.4078 -0.3012 -0.0578
 1321BOLB   C4C31700  17.007  10.291  17.048 -0.0008 -0.0571  0.0997
 1321BOLB   C1D31701  15.991  11.361  16.769  0.2585  0.3911 -0.2214
 1321BOLB   C2D31702  15.736  11.019  16.972  0.2231  0.0875 -0.0905
 1321BOLB   C3D31703  15.591  10.636  17.311  0.2478 -0.3561  0.2062
 1321BOLB   C4D31704  15.285  10.387  17.592 -0.1589  0.2285 -0.2660
 1322BOLB   NC131705  20.596   8.703  19.814  0.4681  0.0315 -0.0095
 1322BOLB   PO131706  20.608   8.457  19.482 -0.1879 -0.1823  0.1710
 1322BOLB   GL131707  20.988   8.510  19.458 -0.2997  0.2232 -0.0774
 1322BOLB   GL231708  21.028   8.430  19.184  0.1807 -0.1611 -0.3013
 1322BOLB   C1A31709  21.448   8.673  19.404  0.1003  0.2520 -0.0488
 1322BOLB   C2A31710  21.639   8.928  19.107  0.0356 -0.0981 -0.3050
 1322BOLB   C3A31711  21.970   9.165  18.902  0.3177  0.1148  0.0344
 1322BOLB   C4A31712  22.467   9.037  18.920  0.1416 -0.1673 -0.0055
 1322BOLB   C1B31713  21.127   9.000  19.084  0.0804  0.0276 -0.2362
 1322BOLB   C2B31714  21.314   9.318  18.858  0.2576  0.0451 -0.1099
 1322BOLB   C3B31715  21.623   9.452  18.761 -0.0103 -0.0484 -0.0743
 1322BOLB   C4B31716  22.076   9.435  18.451  0.0965 -0.0804  0.3765
 1322BOLB   NC231717  23.484  10.180  16.683  0.0237  0.1939  0.1509
 1322BOLB   PO231718  23.498   9.678  16.645  0.2107 -0.0936  0.0850
 1322BOLB   GL331719  23.479   9.609  17.119  0.2739  0.2064 -0.0436
 1322BOLB   GL431720  23.158   9.415  16.996  0.0993 -0.2534  0.1016
 1322BOLB   C1C31721  23.265   9.641  17.494  0.2100 -0.3052 -0.0816
 1322BOLB   C2C31722  23.121   9.611  17.935 -0.0658 -0.3117  0.0854
 1322BOLB   C3C31723  23.049   9.187  18.165 -0.0166 -0.0052 -0.0317
 1322BOLB   C4C31724  22.798   8.958  18.546 -0.2484 -0.0210 -0.0134
 1322BOLB   C1D31725  22.919   9.613  17.168 -0.0520 -0.3124 -0.2122
 1322BOLB   C2D31726  22.516   9.745  17.316 -0.0358 -0.0905 -0.0932
 1322BOLB   C3D31727  22.182   9.513  16.985 -0.2447 -0.1239  0.1308
 1322BOLB   C4D31728  21.660   9.186  16.921  0.1428 -0.4433 -0.0527
 1323BOLB   NC131729  12.750   5.707  32.504 -0.2509  0.1971 -0.4324
 1323BOLB   PO131730  12.662   5.810  32.983  0.0385 -0.0274  0.1656
 1323BOLB   GL131731  12.465   5.732  33.381  0.2656  0.2723  0.0148
 1323BOLB   GL231732  12.196   5.674  33.237  0.1679 -0.4286 -0.0215
 1323BOLB   C1A31733  12.337   5.483  33.759 -0.1402  0.0482  0.4434
 1323BOLB   C2A31734  12.039   5.509  34.127  0.2645  0.2174 -0.2482
 1323BOLB   C3A31735  11.558   5.536  34.391  0.0416  0.0886 -0.0758
 1323BOLB   C4A31736  11.190   5.696  34.402 -0.3069 -0.2297  0.1598
 1323BOLB   C1B31737  11.900   5.599  33.596  0.0274  0.2952 -0.0641
 1323BOLB   C2B31738  11.585   5.646  33.868  0.1061  0.0890 -0.1115
 1323BOLB   C3B31739  11.499   6.072  33.938  0.3799 -0.1556 -0.1516
 1323BOLB   C4B31740  11.328   6.240  34.139 -0.1121  0.1968 -0.0926
 1323BOLB   NC231741   9.483   6.464  35.803  0.0118 -0.1239 -0.0119
 1323BOLB   PO231742   9.648   6.724  36.169 -0.1672 -0.2076  0.0989
 1323BOLB   GL331743   9.992   6.533  35.895  0.1796  0.1404  0.0887
 1323BOLB   GL431744   9.900   6.253  35.699 -0.2843  0.0390 -0.0886
 1323BOLB   C1C31745  10.406   6.416  35.615  0.0796 -0.2091 -0.2673
 1323BOLB   C2C31746  10.455   6.155  35.294 -0.1744  0.1472 -0.1274
 1323BOLB   C3C31747  10.669   5.794  35.089 -0.0129  0.2363 -0.2419
 1323BOLB   C4C31748  10.890   5.729  34.721  0.2490  0.0800 -0.0209
 1323BOLB   C1D31749   9.989   6.100  35.217  0.1753 -0.1993 -0.0116
 1323BOLB   C2D31750  10.125   6.125  34.872  0.0453  0.0813  0.2063
 1323BOLB   C3D31751  10.454   5.959  34.610  0.3817 -0.1019 -0.0238
 1323BOLB   C4D31752  10.596   5.732  34.189  0.1223  0.0586  0.0972
 1324BOLB   NC131753  16.722   9.728  31.890 -0.1497 -0.3507 -0.0885
 1324BOLB   PO131754  16.824  10.020  31.613 -0.2188 -0.0925  0.1076
 1324BOLB   GL131755  16.805  10.369  31.789 -0.1932  0.0429 -0.0756
 1324BOLB   GL231756  17.037  10.591  31.559  0.1762  0.1991 -0.0264
 1324BOLB   C1A31757  17.048  10.585  32.088  0.1141  0.1963 -0.0594
 1324BOLB   C2A31758  17.371  10.742  32.310  0.1960 -0.0002 -0.4011
 1324BOLB   C3A31759  17.387  10.835  32.805  0.1522 -0.0548  0.2065
 1324BOLB   C4A31760  17.678  10.801  33.155 -0.5386  0.4067  0.3191
 1324BOLB   C1B31761  17.228  10.889  31.720  0.1025 -0.1885  0.5395
 1324BOLB   C2B31762  17.200  11.343  31.664  0.1477  0.0669  0.2724
 1324BOLB   C3B31763  17.183  11.639  31.396 -0.3235  0.0458 -0.0145
 1324BOLB   C4B31764  17.389  11.932  31.199  0.2766 -0.3242 -0.2273
 1324BOLB   NC231765  17.097  13.081  34.464 -0.0295  0.0752 -0.2456
 1324BOLB   PO231766  17.417  12.842  34.571 -0.2544 -0.3192 -0.2270
 1324BOLB   GL331767  17.523  12.550  34.357 -0.0283  0.0187 -0.1424
 1324BOLB   GL431768  17.395  12.456  33.972  0.1308 -0.0424 -0.2314
 1324BOLB   C1C31769  17.776  12.338  34.234 -0.0292 -0.0930  0.0669
 1324BOLB   C2C31770  17.782  12.107  33.781  0.0795  0.0744  0.0364
 1324BOLB   C3C31771  17.677  11.694  33.450 -0.3790 -0.0763  0.0967
 1324BOLB   C4C31772  17.684  11.213  33.410  0.1871  0.0660 -0.0499
 1324BOLB   C1D31773  17.262  12.077  33.795 -0.0924 -0.0799  0.0999
 1324BOLB   C2D31774  17.210  11.773  33.492  0.0255  0.1232 -0.3230
 1324BOLB   C3D31775  17.243  11.459  33.265  0.0127 -0.3339 -0.0475
 1324BOLB   C4D31776  17.297  11.469  32.929 -0.2079  0.0334  0.0992
 1325BOLB   NC131777   8.769   8.949  23.268  0.2393  0.0807  0.1044
 1325BOLB   PO131778   8.697   9.041  23.753 -0.1528 -0.3556  0.3054
 1325BOLB   GL131779   8.339   9.247  23.964 -0.1776 -0.2207 -0.0269
 1325BOLB   GL231780   8.075   8.971  23.903 -0.0331 -0.2478  0.2282
 1325BOLB   C1A31781   8.096   9.563  23.931 -0.1016  0.2817 -0.3705
 1325BOLB   C2A31782   7.785   9.851  23.790 -0.1827 -0.0887 -0.1873
 1325BOLB   C3A31783   7.401   9.951  23.653 -0.3377 -0.6304 -0.0762
 1325BOLB   C4A31784   7.075   9.987  23.516 -0.0216  0.0193  0.1253
 1325BOLB   C1B31785   7.781   9.193  23.710  0.2569 -0.0160 -0.0402
 1325BOLB   C2B31786   7.697   9.572  23.360  0.0917  0.0804  0.1546
 1325BOLB   C3B31787   7.315   9.666  23.199 -0.2005 -0.0282  0.4784
 1325BOLB   C4B31788   7.262   9.634  22.798  0.2010 -0.1297  0.1960
 1325BOLB   NC231789   4.868  10.474  22.554  0.1811  0.3696  0.4482
 1325BOLB   PO231790   4.919  10.110  22.209 -0.0780  0.1970 -0.0015
 1325BOLB   GL331791   5.275  10.080  22.458  0.1078 -0.2211 -0.3516
 1325BOLB   GL431792   5.163  10.201  22.848 -0.3823  0.1955 -0.1013
 1325BOLB   C1C31793   5.734   9.967  22.683  0.1909  0.3653 -0.1997
 1325BOLB   C2C31794   6.134  10.070  22.894  0.0994 -0.2066 -0.1931
 1325BOLB   C3C31795   6.379   9.957  23.173  0.3588 -0.2490  0.0896
 1325BOLB   C4C31796   6.673  10.082  23.489  0.3138  0.1253 -0.1007
 1325BOLB   C1D31797   5.252   9.734  22.794  0.0374 -0.0165  0.0798
 1325BOLB   C2D31798   5.622   9.495  22.879 -0.1396  0.1085  0.1379
 1325BOLB   C3D31799   6.050   9.494  22.990 -0.1850 -0.3336  0.1376
 1325BOLB   C4D31800   6.445   9.506  23.233  0.0689 -0.0547 -0.2308
 1326BOLB   NC131801  24.978  -0.222  10.921  0.2940  0.2261  0.1047
 1326BOLB   PO131802  24.583  -0.270  11.058 -0.1724 -0.1381 -0.0689
 1326BOLB   GL131803  24.325  -0.240  11.395  0.0464  0.1836  0.1748
 1326BOLB   GL231804  23.940  -0.222  11.201 -0.3652 -0.1362 -0.2794
 1326BOLB   C1A31805  23.805  -0.298  11.649  0.2940 -0.3072 -0.0286
 1326BOLB   C2A31806  23.475  -0.469  11.821  0.2051 -0.2476  0.0200
 1326BOLB   C3A31807  23.098  -0.502  12.019  0.2000 -0.1349  0.1247
 1326BOLB   C4A31808  22.687  -0.344  11.950 -0.0053  0.1532 -0.0289
 1326BOLB   C1B31809  23.690   0.129  11.321 -0.0587  0.4010  0.1056
 1326BOLB   C2B31810  23.437   0.032  11.689  0.2226 -0.4909  0.1666
 1326BOLB   C3B31811  23.107   0.010  11.943 -0.1676  0.2011 -0.2909
 1326BOLB   C4B31812  23.073   0.319  12.168  0.0650 -0.2872  0.0082
 1326BOLB   NC231813  20.670   0.080  10.015  0.3965  0.2493 -0.1934
 1326BOLB   PO231814  21.091   0.249   9.986  0.1477 -0.0543 -0.0264
 1326BOLB   GL331815  21.345   0.079  10.223 -0.2388 -0.0335 -0.1286
 1326BOLB   GL431816  21.382  -0.299  10.302 -0.1955  0.1796  0.2749
 1326BOLB   C1C31817  21.632   0.278  10.496 -0.0122 -0.3548  0.1727
 1326BOLB   C2C31818  21.903   0.235  10.895  0.0014 -0.0144 -0.0760
 1326BOLB   C3C31819  22.161   0.049  11.257 -0.1049 -0.1424 -0.2599
 1326BOLB   C4C31820  22.338  -0.070  11.645 -0.2478  0.0413 -0.4362
 1326BOLB   C1D31821  21.293  -0.055  10.720 -0.0534 -0.0909 -0.2125
 1326BOLB   C2D31822  21.378   0.219  10.987 -0.0425 -0.1075 -0.2153
 1326BOLB   C3D31823  21.056   0.124  11.327  0.2713  0.1565  0.4401
 1326BOLB   C4D31824  20.624   0.252  11.451  0.0717  0.4172 -0.1878
 1327BOLB   NC131825  11.583   0.410  31.319 -0.2709  0.0217  0.0375
 1327BOLB   PO131826  11.808   0.275  31.752  0.1311  0.1307 -0.4246
 1327BOLB   GL131827  11.791  -0.042  32.044 -0.1232 -0.2304 -0.0335
 1327BOLB   GL231828  11.422  -0.119  32.115 -0.2944  0.0397  0.2128
 1327BOLB   C1A31829  11.854  -0.139  32.506 -0.0915  0.2478 -0.2935
 1327BOLB   C2A31830  11.726  -0.145  32.841 -0.2041 -0.2956 -0.2792
 1327BOLB   C3A31831  11.328  -0.282  33.011  0.2535 -0.0099 -0.1240
 1327BOLB   C4A31832  11.095  -0.317  33.337 -0.1349  0.0929 -0.1983
 1327BOLB   C1B31833  11.459  -0.419  32.475 -0.0434  0.4204  0.2973
 1327BOLB   C2B31834  11.151  -0.699  32.595 -0.0648  0.0911  0.2228
 1327BOLB   C3B31835  10.935  -0.702  33.005 -0.2096 -0.2637  0.2782
 1327BOLB   C4B31836  10.530  -0.562  33.231  0.1415  0.0564 -0.0172
 1327BOLB   NC231837   8.945  -1.532  34.136 -0.2980  0.0169 -0.2006
 1327BOLB   PO231838   9.352  -1.427  34.416 -0.0173  0.4932  0.0589
 1327BOLB   GL331839   9.512  -1.044  34.246  0.1481 -0.0709  0.1440
 1327BOLB   GL431840   9.393  -0.816  34.090  0.1361  0.0386  0.1053
 1327BOLB   C1C31841  10.001  -0.875  34.177  0.1762 -0.0149 -0.1228
 1327BOLB   C2C31842  10.167  -0.687  33.840 -0.1287  0.1388  0.0878
 1327BOLB   C3C31843  10.599  -0.705  33.790 -0.2259  0.0383 -0.0945
 1327BOLB   C4C31844  10.892  -0.618  33.597  0.0818  0.0136 -0.4108
 1327BOLB   C1D31845   9.562  -0.647  33.865  0.2700 -0.0466 -0.1773
 1327BOLB   C2D31846   9.783  -0.405  33.858  0.2564  0.0191 -0.1141
 1327BOLB   C3D31847  10.059  -0.229  33.662  0.0626  0.5084  0.1377
 1327BOLB   C4D31848  10.448  -0.148  33.436  0.0799  0.1096 -0.0563
 1328BOLB   NC131849  13.535  10.161  30.899  0.0735  0.0110 -0.2999
 1328BOLB   PO131850  13.859  10.033  31.147 -0.1845 -0.3480  0.2356
 1328BOLB   GL131851  13.621  10.332  31.401 -0.0717  0.0184 -0.3627
 1328BOLB   GL231852  13.550  10.148  31.692 -0.1663 -0.1524  0.0532
 1328BOLB   C1A31853  13.237  10.509  31.599 -0.2186 -0.3608  0.1320
 1328BOLB   C2A31854  13.213  10.791  32.001 -0.2907 -0.2949  0.0082
 1328BOLB   C3A31855  13.174  10.938  32.365 -0.1543 -0.0583  0.0597
 1328BOLB   C4A31856  13.006  11.324  32.634 -0.1172  0.0754  0.0375
 1328BOLB   C1B31857  13.391  10.266  32.064  0.0356  0.1128  0.0805
 1328BOLB   C2B31858  13.573  10.436  32.460  0.2826 -0.3057  0.1018
 1328BOLB   C3B31859  13.804  10.570  32.751 -0.1131  0.2993 -0.0994
 1328BOLB   C4B31860  13.796  10.860  33.187 -0.0276  0.1116  0.0403
 1328BOLB   NC231861  11.463  13.075  34.007 -0.1436  0.1814 -0.0591
 1328BOLB   PO231862  11.592  13.153  33.622  0.3842  0.2538 -0.1001
 1328BOLB   GL331863  11.608  12.876  33.262 -0.2674 -0.0469 -0.0340
 1328BOLB   GL431864  11.284  12.770  33.095  0.0369  0.1749 -0.2686
 1328BOLB   C1C31865  11.940  12.599  33.221  0.1326 -0.5583 -0.2194
 1328BOLB   C2C31866  12.069  12.125  33.236  0.1526  0.2107  0.1791
 1328BOLB   C3C31867  12.402  11.905  33.218  0.0607 -0.1070  0.0415
 1328BOLB   C4C31868  12.778  11.665  32.953 -0.2867  0.2327  0.1484
 1328BOLB   C1D31869  11.473  12.416  32.920  0.3140  0.1370 -0.2851
 1328BOLB   C2D31870  11.803  12.090  32.726 -0.0201 -0.0670 -0.0013
 1328BOLB   C3D31871  12.109  11.866  32.421  0.2749 -0.2671  0.0091
 1328BOLB   C4D31872  12.269  11.591  32.185 -0.2151  0.1500 -0.2554
 1329BOLB   NC131873  16.716  11.449  29.985  0.0996  0.2246  0.0601
 1329BOLB   PO131874  17.133  11.602  29.942  0.1784 -0.0964  0.0646
 1329BOLB   GL131875  17.129  11.703  30.361  0.0455 -0.0372  0.0803
 1329BOLB   GL231876  16.932  11.955  30.235 -0.2204  0.0611 -0.1687
 1329BOLB   C1A31877  17.220  11.950  30.731  0.2908  0.3474 -0.1713
 1329BOLB   C2A31878  17.078  12.449  30.845  0.2180 -0.1369 -0.0022
 1329BOLB   C3A31879  17.069  12.893  31.017 -0.0131  0.2714 -0.3829
 1329BOLB   C4A31880  17.168  13.207  31.263  0.1105  0.0533  0.4377
 1329BOLB   C1B31881  16.834  12.299  30.482  0.1297  0.0976 -0.0265
 1329BOLB   C2B31882  16.878  12.706  30.485 -0.1260  0.4761  0.2543
 1329BOLB   C3B31883  16.964  13.174  30.570 -0.0692 -0.1315 -0.0029
 1329BOLB   C4B31884  17.113  13.543  30.817 -0.0372 -0.0442  0.0176
 1329BOLB   NC231885  15.793  14.452  32.908  0.0425  0.0239  0.0247
 1329BOLB   PO231886  15.703  14.113  33.180 -0.1313  0.0923 -0.1361
 1329BOLB   GL331887  16.062  14.012  32.941  0.4303 -0.1486  0.1346
 1329BOLB   GL431888  16.014  13.670  32.956  0.3020  0.0267 -0.1213
 1329BOLB   C1C31889  16.338  13.837  32.555  0.0071 -0.2743 -0.0590
 1329BOLB   C2C31890  16.624  13.702  32.200 -0.0929  0.1222 -0.0742
 1329BOLB   C3C31891  16.945  13.716  31.914  0.0573  0.0969 -0.0950
 1329BOLB   C4C31892  17.057  13.481  31.673  0.2019 -0.2831  0.1159
 1329BOLB   C1D31893  15.971  13.474  32.526  0.0899  0.0223  0.2520
 1329BOLB   C2D31894  16.025  13.495  32.183 -0.1689  0.1052 -0.0993
 1329BOLB   C3D31895  16.275  13.603  31.883  0.0660  0.0311 -0.0591
 1329BOLB   C4D31896  16.567  13.435  31.700  0.3129  0.0353  0.3297
 1330BOLB   NC131897  18.754   6.953  33.219 -0.2741  0.1271  0.0086
 1330BOLB   PO131898  18.755   6.595  33.176  0.2362  0.0050  0.0467
 1330BOLB   GL131899  19.146   6.472  33.423 -0.2644  0.1016 -0.2103
 1330BOLB   GL231900  19.520   6.511  33.468  0.0147  0.0765  0.0095
 1330BOLB   C1A31901  19.263   6.183  33.872  0.1294  0.0322 -0.2401
 1330BOLB   C2A31902  19.309   6.272  34.236  0.0858  0.0151  0.2511
 1330BOLB   C3A31903  19.323   6.223  34.719 -0.2058  0.2170  0.0655
 1330BOLB   C4A31904  19.656   6.443  34.962  0.0041  0.4632  0.0352
 1330BOLB   C1B31905  19.613   6.711  33.811 -0.1752 -0.1899  0.1007
 1330BOLB   C2B31906  19.839   6.931  34.043  0.1051  0.3967 -0.0854
 1330BOLB   C3B31907  20.236   7.133  34.247 -0.1666 -0.0104  0.3839
 1330BOLB   C4B31908  20.650   7.041  34.160  0.1718  0.3681  0.1237
 1330BOLB   NC231909  21.039   7.073  36.750 -0.0886  0.3162 -0.0816
 1330BOLB   PO231910  21.258   7.405  36.591 -0.2386 -0.2471  0.0809
 1330BOLB   GL331911  20.942   7.248  36.291 -0.0429  0.2072  0.2227
 1330BOLB   GL431912  20.704   7.023  36.376  0.0592  0.0898  0.1825
 1330BOLB   C1C31913  20.710   7.282  35.955  0.1426  0.4645 -0.0391
 1330BOLB   C2C31914  20.420   7.245  35.602 -0.0887  0.4623  0.1478
 1330BOLB   C3C31915  20.107   6.951  35.506  0.2861 -0.0915  0.1625
 1330BOLB   C4C31916  19.916   6.754  35.155  0.0151  0.2050 -0.1922
 1330BOLB   C1D31917  20.361   6.833  36.147 -0.0038 -0.1112 -0.0559
 1330BOLB   C2D31918  20.180   6.594  35.895 -0.1343 -0.1790 -0.4666
 1330BOLB   C3D31919  20.084   6.470  35.545  0.1824 -0.2128 -0.0948
 1330BOLB   C4D31920  20.267   6.109  35.319  0.2117 -0.3948 -0.4248
 1331BOLB   NC131921   7.143   6.387  25.928  0.4861 -0.0124 -0.0138
 1331BOLB   PO131922   7.090   5.965  25.713 -0.1051  0.0732  0.0657
 1331BOLB   GL131923   6.698   6.077  26.053 -0.1146  0.0451 -0.2059
 1331BOLB   GL231924   6.690   6.302  25.920  0.0388 -0.5258 -0.3016
 1331BOLB   C1A31925   6.334   5.893  26.077  0.0300  0.0565 -0.1675
 1331BOLB   C2A31926   5.914   5.592  26.089 -0.1812 -0.1151 -0.0276
 1331BOLB   C3A31927   5.504   5.521  26.039  0.0747  0.1322 -0.2837
 1331BOLB   C4A31928   5.064   5.345  25.941  0.1880 -0.1377  0.2898
 1331BOLB   C1B31929   6.299   6.461  26.102 -0.5184  0.0999 -0.0069
 1331BOLB   C2B31930   6.070   6.838  26.300  0.1344 -0.3449  0.2902
 1331BOLB   C3B31931   5.970   7.139  26.272  0.2019 -0.0528 -0.6442
 1331BOLB   C4B31932   5.779   7.521  25.970  0.3164 -0.3435  0.2204
 1331BOLB   NC231933   2.730   5.922  26.484  0.3797 -0.0726  0.0187
 1331BOLB   PO231934   2.625   5.551  26.608 -0.0311  0.1905 -0.0032
 1331BOLB   GL331935   3.149   5.330  26.615  0.3949  0.1723  0.1077
 1331BOLB   GL431936   3.175   5.069  26.351  0.1797  0.0526  0.2540
 1331BOLB   C1C31937   3.597   5.204  26.748  0.0338  0.2556  0.0228
 1331BOLB   C2C31938   3.973   5.149  26.440  0.0248  0.0939  0.0699
 1331BOLB   C3C31939   4.268   5.091  26.178 -0.0413 -0.0221 -0.0900
 1331BOLB   C4C31940   4.602   5.342  26.161 -0.1684  0.1050 -0.0891
 1331BOLB   C1D31941   3.471   5.301  26.162 -0.0626 -0.0863 -0.2023
 1331BOLB   C2D31942   3.853   5.197  25.940 -0.2453  0.1883  0.1474
 1331BOLB   C3D31943   4.271   5.337  25.760  0.0633  0.0990 -0.4518
 1331BOLB   C4D31944   4.632   5.620  25.686  0.0851 -0.0017  0.1494
 1332BOLB   NC131945  12.211  11.394  23.353  0.2923  0.1301 -0.3651
 1332BOLB   PO131946  12.158  11.351  22.975 -0.0809  0.2414  0.0567
 1332BOLB   GL131947  11.850  11.684  23.163 -0.0511  0.0336 -0.1140
 1332BOLB   GL231948  11.675  11.573  23.428  0.2714  0.2573  0.3997
 1332BOLB   C1A31949  11.728  12.145  23.103  0.1074  0.1163 -0.1672
 1332BOLB   C2A31950  12.038  12.429  23.188  0.0887 -0.6516 -0.0392
 1332BOLB   C3A31951  12.100  12.826  22.941 -0.0517 -0.0407 -0.0800
 1332BOLB   C4A31952  12.042  13.138  22.726 -0.4278  0.0041  0.1574
 1332BOLB   C1B31953  11.458  11.985  23.488 -0.2336  0.0517 -0.4007
 1332BOLB   C2B31954  11.476  12.392  23.521  0.0597 -0.3654  0.1388
 1332BOLB   C3B31955  11.460  12.762  23.393  0.2052  0.0980  0.1598
 1332BOLB   C4B31956  11.250  13.002  22.962  0.0812  0.0697 -0.0483
 1332BOLB   NC231957  10.851  15.678  23.528  0.1664  0.3506 -0.4178
 1332BOLB   PO231958  11.025  15.470  23.146  0.1104  0.0165  0.0652
 1332BOLB   GL331959  11.220  15.051  23.128 -0.2397  0.0072  0.0639
 1332BOLB   GL431960  11.418  15.180  23.433 -0.1177 -0.1289 -0.0691
 1332BOLB   C1C31961  11.165  14.579  22.999  0.2115  0.0567  0.2338
 1332BOLB   C2C31962  11.449  14.258  23.021 -0.1308  0.3106 -0.1789
 1332BOLB   C3C31963  11.883  14.060  22.807  0.0371  0.1681 -0.1639
 1332BOLB   C4C31964  11.969  13.628  22.667 -0.4280  0.4068  0.0616
 1332BOLB   C1D31965  11.258  14.858  23.574  0.0214 -0.1231  0.0307
 1332BOLB   C2D31966  11.187  14.396  23.563  0.0800  0.0960  0.0441
 1332BOLB   C3D31967  11.451  14.044  23.677  0.1013  0.1431  0.0068
 1332BOLB   C4D31968  11.638  13.603  23.740 -0.2034 -0.0364  0.0605
 1333BOLB   NC131969  12.195   2.115  32.959  0.1753  0.1055  0.1007
 1333BOLB   PO131970  11.796   2.352  33.023  0.0155  0.2674 -0.0503
 1333BOLB   GL131971  11.890   2.076  33.326 -0.0974 -0.0077  0.0711
 1333BOLB   GL231972  11.488   1.909  33.348 -0.1219 -0.1495 -0.2967
 1333BOLB   C1A31973  11.873   2.035  33.697 -0.1056 -0.2181 -0.0718
 1333BOLB   C2A31974  11.932   1.717  34.044  0.0592  0.3593 -0.2804
 1333BOLB   C3A31975  11.905   1.559  34.430 -0.0121 -0.1218 -0.0197
 1333BOLB   C4A31976  12.242   1.606  34.730 -0.4287  0.0281  0.2321
 1333BOLB   C1B31977  11.442   1.684  33.739  0.1829 -0.2786 -0.0732
 1333BOLB   C2B31978  11.468   1.506  34.160  0.0373  0.1541 -0.1151
 1333BOLB   C3B31979  11.447   1.580  34.633  0.6064 -0.3036 -0.2853
 1333BOLB   C4B31980  11.192   1.523  35.044  0.3505 -0.0219 -0.0062
 1333BOLB   NC231981  12.377   0.174  36.723  0.3265  0.1423  0.0303
 1333BOLB   PO231982  12.048   0.435  36.642  0.0068 -0.1801 -0.0592
 1333BOLB   GL331983  12.312   0.357  36.299  0.2742  0.2682  0.1117
 1333BOLB   GL431984  12.175   0.429  36.138 -0.1077 -0.0355 -0.1292
 1333BOLB   C1C31985  12.573   0.755  36.085  0.3281 -0.0578  0.0914
 1333BOLB   C2C31986  12.778   0.977  35.689  0.1175  0.1907  0.0846
 1333BOLB   C3C31987  12.697   1.304  35.358  0.4856 -0.0363  0.2514
 1333BOLB   C4C31988  12.601   1.562  35.042 -0.0005 -0.0326 -0.3116
 1333BOLB   C1D31989  11.823   0.596  35.932  0.0732 -0.1769 -0.2355
 1333BOLB   C2D31990  11.729   0.940  35.712  0.4172 -0.4184  0.0171
 1333BOLB   C3D31991  11.816   1.068  35.282 -0.1345  0.1177 -0.0798
 1333BOLB   C4D31992  12.197   1.243  35.176 -0.2239 -0.2220 -0.1420
 1334BOLB   NC131993  24.181   0.058  23.896 -0.0928  0.2822 -0.1160
 1334BOLB   PO131994  24.204  -0.153  24.286  0.1814 -0.1821  0.2735
 1334BOLB   GL131995  24.628  -0.096  24.047  0.0166 -0.0011  0.0951
 1334BOLB   GL231996  24.722  -0.014  24.337  0.0818 -0.1017 -0.0900
 1334BOLB   C1A31997  24.748  -0.305  23.772  0.2239 -0.1063  0.0825
 1334BOLB   C2A31998  24.891  -0.530  23.583 -0.1122 -0.1055 -0.1792
 1334BOLB   C3A31999  25.219  -0.861  23.501  0.1190 -0.1844 -0.1520
 1334BOLB   C4A32000  25.589  -1.020  23.095 -0.3130 -0.0943  0.0643
 1334BOLB   C1B32001  25.014  -0.294  24.386 -0.2757 -0.1228  0.1135
 1334BOLB   C2B32002  25.298  -0.528  24.508  0.1930  0.0898 -0.0380
 1334BOLB   C3B32003  25.779  -0.611  24.542 -0.0057 -0.1558 -0.0526
 1334BOLB   C4B32004  25.965  -1.083  24.484  0.2433  0.0249  0.2552
 1334BOLB   NC232005  27.519  -1.489  21.104  0.1988  0.1508 -0.0318
 1334BOLB   PO232006  27.602  -1.503  21.555  0.1280 -0.1837  0.2350
 1334BOLB   GL332007  27.090  -1.482  21.700  0.3666  0.0029  0.0525
 1334BOLB   GL432008  26.910  -1.682  21.776 -0.0926  0.0157 -0.2245
 1334BOLB   C1C32009  26.745  -1.162  21.798  0.2022 -0.0064  0.0233
 1334BOLB   C2C32010  26.285  -1.237  21.993 -0.0542 -0.1790  0.1899
 1334BOLB   C3C32011  26.092  -1.138  22.339  0.3252  0.4042  0.0346
 1334BOLB   C4C32012  25.787  -1.054  22.667 -0.0532  0.0988  0.1308
 1334BOLB   C1D32013  26.407  -1.739  21.844 -0.0506 -0.1169  0.1888
 1334BOLB   C2D32014  26.152  -1.525  21.595 -0.1664  0.0496  0.1344
 1334BOLB   C3D32015  25.742  -1.555  21.543 -0.6213  0.1442  0.0250
 1334BOLB   C4D32016  25.453  -1.853  21.338  0.1818  0.2190  0.0308
 1335BOLB   NC132017  11.581  12.388  27.488 -0.1601  0.3165 -0.2570
 1335BOLB   PO132018  11.929  12.180  27.662  0.1750 -0.0807  0.0490
 1335BOLB   GL132019  11.862  12.541  27.915  0.4237  0.5532 -0.0573
 1335BOLB   GL232020  11.910  12.747  27.791  0.0235 -0.2775  0.5224
 1335BOLB   C1A32021  11.821  12.698  28.357  0.1306 -0.0781 -0.1417
 1335BOLB   C2A32022  11.555  13.059  28.468 -0.1733  0.0305  0.0560
 1335BOLB   C3A32023  11.378  13.389  28.455 -0.1544  0.0061 -0.1107
 1335BOLB   C4A32024  11.292  13.531  28.829  0.1236  0.0012  0.0768
 1335BOLB   C1B32025  12.028  13.120  27.668 -0.0062  0.0931  0.2501
 1335BOLB   C2B32026  12.183  13.192  27.210 -0.0165  0.1123 -0.0967
 1335BOLB   C3B32027  12.359  13.566  26.864 -0.2855  0.4215 -0.1449
 1335BOLB   C4B32028  12.465  13.713  26.424  0.2870 -0.0965  0.0866
 1335BOLB   NC232029  11.129  15.464  30.625 -0.2478  0.1248 -0.1872
 1335BOLB   PO232030  10.893  15.074  30.711 -0.0681  0.2159 -0.2873
 1335BOLB   GL332031  10.930  14.722  30.418  0.0339 -0.1503 -0.0411
 1335BOLB   GL432032  10.847  14.363  30.453  0.0931 -0.1535 -0.0980
 1335BOLB   C1C32033  10.789  14.575  30.008 -0.0021 -0.0289  0.2106
 1335BOLB   C2C32034  10.936  14.249  29.734 -0.1414 -0.1685 -0.0296
 1335BOLB   C3C32035  11.135  13.950  29.491  0.0131 -0.2970 -0.4241
 1335BOLB   C4C32036  11.302  13.614  29.252 -0.0717 -0.1572  0.0687
 1335BOLB   C1D32037  11.005  14.018  30.128 -0.1071 -0.0617 -0.0319
 1335BOLB   C2D32038  10.799  13.763  29.891 -0.0572 -0.3718  0.0819
 1335BOLB   C3D32039  10.508  13.869  29.692 -0.0489  0.0831  0.0399
 1335BOLB   C4D32040  10.201  13.856  29.288 -0.1286 -0.1549  0.2365
 1336BOLB   NC132041  20.825  10.361  26.946  0.3748 -0.0686  0.1909
 1336BOLB   PO132042  21.093  10.624  26.828 -0.2934 -0.0464 -0.1513
 1336BOLB   GL132043  21.472  10.945  26.873 -0.1104  0.0297  0.0215
 1336BOLB   GL232044  21.129  11.105  27.002  0.0183 -0.1286 -0.2700
 1336BOLB   C1A32045  21.624  11.298  27.084 -0.0473 -0.0308  0.0398
 1336BOLB   C2A32046  21.889  11.584  27.297  0.1614 -0.2927 -0.1119
 1336BOLB   C3A32047  22.290  11.895  27.332 -0.2514 -0.0592 -0.0374
 1336BOLB   C4A32048  22.701  12.155  27.555 -0.1004 -0.1938  0.1355
 1336BOLB   C1B32049  21.210  11.526  27.196 -0.1797 -0.3337  0.1795
 1336BOLB   C2B32050  21.256  11.884  27.136  0.3629 -0.2829 -0.1643
 1336BOLB   C3B32051  21.313  12.275  27.036  0.1313  0.0482 -0.0391
 1336BOLB   C4B32052  21.280  12.619  26.901 -0.0021  0.0059 -0.0419
 1336BOLB   NC232053  23.791  14.407  27.091 -0.2926  0.6084  0.0160
 1336BOLB   PO232054  23.625  14.030  27.310 -0.1511 -0.0975  0.2027
 1336BOLB   GL332055  23.157  13.949  27.202  0.0621  0.6250  0.0118
 1336BOLB   GL432056  22.886  13.856  26.898  0.0290 -0.1340  0.0678
 1336BOLB   C1C32057  22.903  13.765  27.570 -0.1349 -0.5518  0.1336
 1336BOLB   C2C32058  22.702  13.362  27.649  0.0716  0.0641  0.2911
 1336BOLB   C3C32059  22.592  12.980  27.780 -0.1646 -0.1140  0.2309
 1336BOLB   C4C32060  22.650  12.550  27.793 -0.2245 -0.0092  0.1418
 1336BOLB   C1D32061  22.922  13.501  26.878 -0.1864  0.1605 -0.3117
 1336BOLB   C2D32062  22.837  13.110  27.136 -0.0236  0.3059 -0.1163
 1336BOLB   C3D32063  22.610  12.872  27.310 -0.2797  0.2595  0.0196
 1336BOLB   C4D32064  22.235  12.719  27.516  0.2293  0.1347 -0.1469
 1337BOLB   NC132065  16.418  -3.998  26.071  0.1531  0.1291  0.0322
 1337BOLB   PO132066  16.488  -4.376  26.408 -0.1543 -0.1023  0.2447
 1337BOLB   GL132067  16.508  -4.671  26.360 -0.3584 -0.0857 -0.1209
 1337BOLB   GL232068  16.787  -4.771  26.243  0.1570 -0.0314 -0.1507
 1337BOLB   C1A32069  16.279  -5.000  26.554 -0.0479 -0.1454 -0.0779
 1337BOLB   C2A32070  16.053  -5.288  26.651  0.1027 -0.2071 -0.5353
 1337BOLB   C3A32071  16.165  -5.799  26.786 -0.4523  0.2623 -0.0292
 1337BOLB   C4A32072  16.380  -6.047  27.151  0.0903  0.2834 -0.1007
 1337BOLB   C1B32073  16.745  -5.204  26.374  0.2850  0.0518 -0.0904
 1337BOLB   C2B32074  16.645  -5.619  26.365  0.1065 -0.2617 -0.1115
 1337BOLB   C3B32075  16.214  -5.770  26.267  0.0993  0.0470 -0.1759
 1337BOLB   C4B32076  16.137  -6.079  25.951 -0.0307 -0.2548 -0.0712
 1337BOLB   NC232077  15.659  -8.423  27.789  0.1377 -0.1216 -0.2785
 1337BOLB   PO232078  15.662  -8.071  28.018  0.1341 -0.0299  0.0120
 1337BOLB   GL332079  15.632  -7.702  27.860 -0.1661 -0.0920 -0.0524
 1337BOLB   GL432080  15.796  -7.486  28.113 -0.0803  0.5644  0.1504
 1337BOLB   C1C32081  15.813  -7.489  27.430 -0.1221  0.1574 -0.0426
 1337BOLB   C2C32082  16.126  -7.161  27.341 -0.0226 -0.0281 -0.1811
 1337BOLB   C3C32083  16.330  -6.839  27.166  0.1780  0.1570 -0.2396
 1337BOLB   C4C32084  16.614  -6.460  27.149 -0.1229 -0.1073  0.0749
 1337BOLB   C1D32085  15.917  -7.167  27.822  0.1132 -0.0607 -0.0237
 1337BOLB   C2D32086  16.005  -6.745  27.670 -0.1457 -0.2267 -0.3232
 1337BOLB   C3D32087  15.996  -6.365  27.921  0.0911  0.2031 -0.2961
 1337BOLB   C4D32088  16.030  -6.045  28.244 -0.1007  0.0300 -0.1956
 1338BOLB   NC132089  24.630   7.955  16.225  0.3628 -0.1527  0.0298
 1338BOLB   PO132090  24.205   7.834  16.120  0.1782 -0.0042  0.0124
 1338BOLB   GL132091  23.884   7.837  16.326  0.0328 -0.1124  0.0082
 1338BOLB   GL232092  23.591   7.731  16.257 -0.0551  0.3948  0.2110
 1338BOLB   C1A32093  23.789   7.762  16.753  0.0888  0.0888 -0.3934
 1338BOLB   C2A32094  23.626   7.839  17.114  0.2055  0.0868  0.4681
 1338BOLB   C3A32095  23.637   7.776  17.578  0.2507  0.0360 -0.0748
 1338BOLB   C4A32096  23.505   8.164  17.901 -0.1635 -0.0089 -0.1081
 1338BOLB   C1B32097  23.312   7.789  16.614  0.4228  0.3858  0.2922
 1338BOLB   C2B32098  22.880   7.636  16.573 -0.1590  0.0968  0.0971
 1338BOLB   C3B32099  22.589   7.466  16.421 -0.0731  0.2195  0.0608
 1338BOLB   C4B32100  22.175   7.362  16.247 -0.0374 -0.2607 -0.0102
 1338BOLB   NC232101  23.722  10.497  17.469  0.1651 -0.0845  0.0937
 1338BOLB   PO232102  24.085  10.125  17.296  0.1207  0.0669  0.1731
 1338BOLB   GL332103  24.024   9.873  17.633  0.1703  0.2765 -0.0185
 1338BOLB   GL432104  24.154   9.618  17.607 -0.2167 -0.0198 -0.0588
 1338BOLB   C1C32105  23.603   9.751  17.844  0.0426 -0.1668  0.2761
 1338BOLB   C2C32106  23.585   9.364  17.853 -0.1717 -0.0339 -0.1391
 1338BOLB   C3C32107  23.356   8.967  17.936  0.2271 -0.0851 -0.0236
 1338BOLB   C4C32108  23.504   8.587  17.882 -0.1388  0.3706 -0.0768
 1338BOLB   C1D32109  24.022   9.168  17.724  0.0506 -0.1882 -0.1847
 1338BOLB   C2D32110  23.897   8.926  17.933  0.3407  0.1902  0.1185
 1338BOLB   C3D32111  23.636   8.711  18.316 -0.0047  0.3115  0.1321
 1338BOLB   C4D32112  23.303   8.970  18.567 -0.2598  0.0779 -0.0302
 1339BOLB   NC132113  14.876  -3.839  22.190 -0.0711 -0.2038 -0.2135
 1339BOLB   PO132114  14.492  -4.034  22.365  0.0903  0.2842  0.1543
 1339BOLB   GL132115  14.576  -4.548  22.309 -0.1517 -0.0006  0.0817
 1339BOLB   GL232116  14.858  -4.621  22.301 -0.2385 -0.1277  0.0841
 1339BOLB   C1A32117  14.621  -5.059  22.398 -0.1996  0.5978 -0.2781
 1339BOLB   C2A32118  14.588  -5.497  22.212 -0.1641  0.1153 -0.0656
 1339BOLB   C3A32119  14.547  -5.939  22.273 -0.1355 -0.1218 -0.2991
 1339BOLB   C4A32120  14.720  -6.313  22.341 -0.0944  0.0088 -0.1209
 1339BOLB   C1B32121  15.077  -4.933  22.282 -0.0570 -0.2640  0.1662
 1339BOLB   C2B32122  15.094  -5.394  22.250  0.3008 -0.0436 -0.0077
 1339BOLB   C3B32123  15.013  -5.815  22.260  0.2694 -0.1390 -0.2273
 1339BOLB   C4B32124  15.162  -6.140  22.427 -0.1136 -0.2067 -0.7078
 1339BOLB   NC232125  15.036  -8.262  21.530  0.3944  0.1987 -0.3277
 1339BOLB   PO232126  14.634  -8.374  21.273 -0.0909  0.2805  0.0095
 1339BOLB   GL332127  14.624  -7.983  21.458 -0.1316 -0.1129  0.2865
 1339BOLB   GL432128  14.891  -7.777  21.514  0.2322  0.0495  0.3652
 1339BOLB   C1C32129  14.371  -7.598  21.400 -0.1496  0.4192 -0.1591
 1339BOLB   C2C32130  14.322  -7.116  21.605 -0.3669 -0.1078  0.0035
 1339BOLB   C3C32131  14.424  -6.753  21.767  0.1803  0.2581 -0.1685
 1339BOLB   C4C32132  14.541  -6.694  22.172  0.1016 -0.3207 -0.1109
 1339BOLB   C1D32133  14.802  -7.316  21.370  0.2327  0.3088  0.0342
 1339BOLB   C2D32134  14.798  -6.944  21.216 -0.1581  0.4825 -0.0688
 1339BOLB   C3D32135  14.990  -6.528  21.347  0.0099  0.0670 -0.1041
 1339BOLB   C4D32136  15.151  -6.164  21.475 -0.2694 -0.2020  0.1460
 1340BOLB   NC132137  10.994   7.323  31.371 -0.0683  0.2916 -0.3443
 1340BOLB   PO132138  11.114   7.260  31.831  0.0534 -0.0226  0.2551
 1340BOLB   GL132139  10.801   7.618  32.078 -0.2896 -0.1838  0.0630
 1340BOLB   GL232140  10.959   7.814  32.334 -0.1348  0.0874 -0.0311
 1340BOLB   C1A32141  10.528   7.397  32.155  0.2100 -0.1709  0.0876
 1340BOLB   C2A32142  10.165   7.335  32.465 -0.1098 -0.3374 -0.3980
 1340BOLB   C3A32143   9.975   7.187  32.861  0.1393  0.0412 -0.0690
 1340BOLB   C4A32144   9.635   7.323  33.201  0.0990 -0.2745  0.2295
 1340BOLB   C1B32145  10.690   8.176  32.286 -0.0188 -0.2203 -0.3161
 1340BOLB   C2B32146  10.468   8.359  32.640 -0.0333  0.1600 -0.0599
 1340BOLB   C3B32147  10.193   8.166  32.821 -0.0415  0.2514 -0.0067
 1340BOLB   C4B32148   9.864   8.163  33.084 -0.1343  0.1168  0.3353
 1340BOLB   NC232149   9.042   7.031  35.468  0.1534 -0.0365 -0.0502
 1340BOLB   PO232150   8.596   6.830  35.335  0.0122  0.1917 -0.0569
 1340BOLB   GL332151   8.500   6.920  34.979  0.0091  0.3651  0.2793
 1340BOLB   GL432152   8.803   7.096  34.997  0.0271  0.1584  0.0722
 1340BOLB   C1C32153   8.628   7.124  34.573 -0.0589 -0.0747  0.3202
 1340BOLB   C2C32154   8.876   7.316  34.328  0.0935 -0.2997 -0.2402
 1340BOLB   C3C32155   9.228   7.372  34.061  0.3359 -0.1344 -0.1872
 1340BOLB   C4C32156   9.436   7.536  33.615 -0.3839 -0.1919 -0.3927
 1340BOLB   C1D32157   9.107   7.140  34.742  0.3115  0.1011  0.1314
 1340BOLB   C2D32158   9.542   7.291  34.693  0.0247 -0.0562 -0.3470
 1340BOLB   C3D32159   9.751   7.427  34.416  0.1218  0.0014  0.1738
 1340BOLB   C4D32160  10.147   7.558  34.339 -0.2378  0.0632 -0.1977
 1341BOLB   NC132161  21.396   0.730  30.550  0.0308 -0.1171 -0.2568
 1341BOLB   PO132162  21.588   0.448  30.242 -0.0798 -0.2838  0.2173
 1341BOLB   GL132163  21.794   0.310  30.713 -0.0805 -0.1664  0.1686
 1341BOLB   GL232164  22.185   0.365  30.698 -0.2855  0.0687 -0.0639
 1341BOLB   C1A32165  21.879   0.003  30.931  0.1464 -0.2079  0.0756
 1341BOLB   C2A32166  21.753  -0.158  31.309 -0.0740 -0.2117 -0.2575
 1341BOLB   C3A32167  21.698  -0.318  31.720 -0.1071 -0.0678 -0.2807
 1341BOLB   C4A32168  21.651  -0.741  31.868 -0.2050  0.0101 -0.3521
 1341BOLB   C1B32169  22.554   0.106  30.840 -0.0673 -0.2809  0.0568
 1341BOLB   C2B32170  22.579  -0.267  30.949 -0.4022 -0.1273  0.2446
 1341BOLB   C3B32171  22.594  -0.497  31.340  0.2127 -0.3158 -0.0009
 1341BOLB   C4B32172  22.528  -0.764  31.685  0.1637 -0.1359  0.1891
 1341BOLB   NC232173  22.657  -3.022  33.536  0.1127 -0.2894  0.1531
 1341BOLB   PO232174  22.596  -2.598  33.376 -0.1313 -0.1677  0.0052
 1341BOLB   GL332175  22.450  -2.186  33.139 -0.1644 -0.1376  0.0508
 1341BOLB   GL432176  22.252  -2.004  32.987  0.1957 -0.0463 -0.1281
 1341BOLB   C1C32177  22.524  -2.071  32.607  0.1884  0.0025 -0.0852
 1341BOLB   C2C32178  22.347  -1.796  32.450 -0.0713 -0.4578  0.2807
 1341BOLB   C3C32179  22.151  -1.311  32.322  0.3179 -0.1913  0.1534
 1341BOLB   C4C32180  21.902  -0.953  32.135 -0.1310 -0.0149 -0.2209
 1341BOLB   C1D32181  21.981  -2.146  32.651  0.4018  0.3816 -0.2719
 1341BOLB   C2D32182  21.777  -1.982  32.267 -0.0663  0.3438 -0.1590
 1341BOLB   C3D32183  21.799  -1.639  32.244  0.1571  0.3603  0.0904
 1341BOLB   C4D32184  21.508  -1.303  32.031 -0.2248  0.0607  0.2251
 1342BOLB   NC132185  25.334   2.036  14.489 -0.1725  0.1479 -0.0645
 1342BOLB   PO132186  25.518   1.817  14.831 -0.2003 -0.0654 -0.4375
 1342BOLB   GL132187  25.274   1.799  15.132  0.0205 -0.1026 -0.0538
 1342BOLB   GL232188  24.943   2.004  15.091  0.0633 -0.3148  0.0622
 1342BOLB   C1A32189  24.938   1.530  15.242 -0.1136 -0.0635  0.1433
 1342BOLB   C2A32190  24.686   1.346  15.546 -0.1313 -0.2329  0.0003
 1342BOLB   C3A32191  24.513   1.071  15.604 -0.2550  0.1545 -0.1371
 1342BOLB   C4A32192  24.506   0.655  15.684 -0.2059 -0.2111  0.3397
 1342BOLB   C1B32193  24.561   1.955  14.836 -0.1501  0.1393 -0.0529
 1342BOLB   C2B32194  24.174   1.810  14.648  0.2175 -0.0719  0.2276
 1342BOLB   C3B32195  24.009   1.651  15.011 -0.2466 -0.3347 -0.1699
 1342BOLB   C4B32196  23.734   1.640  15.384 -0.1132 -0.1150  0.0868
 1342BOLB   NC232197  27.083   0.321  15.633  0.2202 -0.0653  0.2519
 1342BOLB   PO232198  26.589   0.391  15.833  0.1520  0.3306  0.2777
 1342BOLB   GL332199  26.157   0.295  16.094 -0.1099  0.0887 -0.0366
 1342BOLB   GL432200  26.265   0.138  16.380  0.0253  0.1562 -0.4075
 1342BOLB   C1C32201  25.747   0.203  16.243  0.1751 -0.2060  0.0764
 1342BOLB   C2C32202  25.409   0.040  15.946 -0.2405  0.0366 -0.2076
 1342BOLB   C3C32203  25.041   0.273  16.047  0.0716  0.2530  0.1056
 1342BOLB   C4C32204  24.719   0.377  15.848  0.0728  0.1375  0.2892
 1342BOLB   C1D32205  26.029  -0.185  16.348 -0.1117 -0.0013  0.0773
 1342BOLB   C2D32206  26.048  -0.600  16.145 -0.0993 -0.2615  0.1637
 1342BOLB   C3D32207  25.994  -1.020  16.336  0.0595  0.0401 -0.2316
 1342BOLB   C4D32208  25.780  -1.306  16.387  0.1655  0.2112  0.1988
 1343BOLB   NC132209   8.543  -1.398  24.312  0.2263 -0.2329  0.0309
 1343BOLB   PO132210   8.616  -1.466  24.821 -0.0319  0.0797  0.1234
 1343BOLB   GL132211   8.440  -1.785  24.628 -0.2955  0.0536 -0.0401
 1343BOLB   GL232212   8.566  -2.055  24.641 -0.2170  0.2923  0.3698
 1343BOLB   C1A32213   8.011  -1.871  24.553 -0.0860  0.1484  0.1434
 1343BOLB   C2A32214   7.619  -2.009  24.441  0.2240  0.0328 -0.0489
 1343BOLB   C3A32215   7.471  -2.358  24.651  0.1583 -0.1799  0.1124
 1343BOLB   C4A32216   7.748  -2.766  24.631 -0.0025 -0.0861  0.1292
 1343BOLB   C1B32217   8.386  -2.123  24.218 -0.2442  0.2648  0.0533
 1343BOLB   C2B32218   8.250  -2.378  23.819 -0.2504  0.1396  0.2509
 1343BOLB   C3B32219   8.414  -2.449  23.346 -0.1401 -0.1157  0.5350
 1343BOLB   C4B32220   8.330  -2.487  22.910 -0.0829  0.1689 -0.4516
 1343BOLB   NC232221   6.795  -5.102  24.875  0.1805 -0.3710 -0.0222
 1343BOLB   PO232222   6.929  -4.906  24.550 -0.3302  0.1271 -0.1189
 1343BOLB   GL332223   7.242  -4.830  24.906 -0.1222 -0.2546 -0.4516
 1343BOLB   GL432224   7.453  -4.936  25.171  0.2629  0.0609  0.0843
 1343BOLB   C1C32225   7.585  -4.442  25.040 -0.0219  0.2468  0.0533
 1343BOLB   C2C32226   7.705  -3.980  24.971 -0.1271 -0.2029  0.4028
 1343BOLB   C3C32227   7.813  -3.528  25.053 -0.0913 -0.2440 -0.1726
 1343BOLB   C4C32228   7.915  -3.105  24.835  0.0273  0.0746  0.1538
 1343BOLB   C1D32229   7.790  -4.915  24.922  0.0765  0.1999 -0.1757
 1343BOLB   C2D32230   8.127  -4.768  24.908 -0.2363 -0.1951  0.1244
 1343BOLB   C3D32231   8.071  -4.317  25.009  0.3775  0.2862  0.5944
 1343BOLB   C4D32232   8.217  -3.940  25.120 -0.1124 -0.3306  0.0414
 1344BOLB   NC132233  22.349   8.105  22.237  0.0567 -0.0018  0.0668
 1344BOLB   PO132234  22.160   8.234  21.744  0.0656  0.0248 -0.2687
 1344BOLB   GL132235  22.422   8.477  21.757 -0.0217  0.1241 -0.1184
 1344BOLB   GL232236  22.697   8.392  21.805  0.0734  0.2173 -0.0446
 1344BOLB   C1A32237  22.666   8.902  21.785  0.4442  0.0900  0.0742
 1344BOLB   C2A32238  22.903   9.246  21.755 -0.3770  0.2942 -0.0039
 1344BOLB   C3A32239  23.218   9.442  21.961 -0.1427 -0.0186 -0.0524
 1344BOLB   C4A32240  23.523   9.715  22.006 -0.0279 -0.0255  0.2796
 1344BOLB   C1B32241  22.935   8.401  21.452  0.2223 -0.1119  0.1067
 1344BOLB   C2B32242  23.217   8.494  21.015 -0.2455 -0.1884 -0.2278
 1344BOLB   C3B32243  23.455   8.562  20.808 -0.3464  0.1110 -0.0603
 1344BOLB   C4B32244  23.736   8.266  20.492 -0.0131  0.0516  0.0101
 1344BOLB   NC232245  25.730  11.007  21.755 -0.1646  0.1461  0.0800
 1344BOLB   PO232246  25.390  11.396  21.682 -0.2657 -0.2984  0.2762
 1344BOLB   GL332247  25.006  11.392  21.949  0.2627  0.4062  0.3216
 1344BOLB   GL432248  25.008  11.582  22.273  0.3420 -0.0469  0.3000
 1344BOLB   C1C32249  24.733  11.064  22.083 -0.0758 -0.1507  0.2339
 1344BOLB   C2C32250  24.440  10.698  22.201 -0.0129  0.3393 -0.0464
 1344BOLB   C3C32251  24.073  10.371  22.294 -0.0233 -0.3984 -0.0132
 1344BOLB   C4C32252  23.854  10.018  22.027  0.1489 -0.1500  0.0941
 1344BOLB   C1D32253  24.791  11.219  22.544  0.1439 -0.2133  0.0232
 1344BOLB   C2D32254  24.659  11.123  22.941 -0.1223 -0.0203 -0.1904
 1344BOLB   C3D32255  24.414  11.209  23.288  0.1598 -0.0921  0.0066
 1344BOLB   C4D32256  24.177  11.328  23.695 -0.2017  0.1108 -0.0123
 1345BOLB   NC132257  19.085  11.591  28.395  0.0090  0.0671 -0.0028
 1345BOLB   PO132258  18.700  11.887  28.385  0.1620 -0.1203 -0.1247
 1345BOLB   GL132259  18.983  12.136  28.589 -0.0060  0.2069 -0.0903
 1345BOLB   GL232260  18.727  12.278  28.794 -0.0823 -0.0202 -0.2567
 1345BOLB   C1A32261  19.353  12.114  28.907  0.2396  0.0383  0.1973
 1345BOLB   C2A32262  19.505  12.461  29.302 -0.0693 -0.1045  0.1692
 1345BOLB   C3A32263  19.501  12.954  29.573  0.2091  0.0953  0.2482
 1345BOLB   C4A32264  19.802  13.217  29.644 -0.1696  0.0921  0.0471
 1345BOLB   C1B32265  18.707  12.689  28.975  0.1375 -0.0485 -0.1036
 1345BOLB   C2B32266  18.803  13.071  28.766  0.1090  0.1545 -0.1219
 1345BOLB   C3B32267  19.131  13.209  28.621 -0.0015  0.0328  0.0332
 1345BOLB   C4B32268  19.326  13.093  28.249  0.0307 -0.0274  0.1684
 1345BOLB   NC232269  20.215  15.390  30.067  0.0132  0.0383  0.1682
 1345BOLB   PO232270  19.824  15.494  30.250  0.1623 -0.0117  0.0810
 1345BOLB   GL332271  19.521  15.055  30.185 -0.2397 -0.2035  0.1275
 1345BOLB   GL432272  19.236  15.108  29.914 -0.2861 -0.1628  0.2396
 1345BOLB   C1C32273  19.698  14.622  30.313  0.4133  0.1202 -0.2593
 1345BOLB   C2C32274  19.572  14.370  30.305  0.1378  0.0103 -0.2451
 1345BOLB   C3C32275  19.663  13.987  30.076  0.1938 -0.3896  0.3866
 1345BOLB   C4C32276  19.811  13.603  29.728 -0.0812 -0.3308 -0.1713
 1345BOLB   C1D32277  18.939  15.007  29.624  0.1128 -0.3726 -0.0081
 1345BOLB   C2D32278  18.472  15.067  29.505  0.2551  0.0727 -0.1417
 1345BOLB   C3D32279  18.027  14.898  29.452 -0.1460  0.0682 -0.0797
 1345BOLB   C4D32280  17.815  14.631  29.619  0.0116 -0.0450  0.2641
 1346BOLB   NC132281  11.534   3.183  17.826  0.2104  0.0008  0.0700
 1346BOLB   PO132282  11.746   3.455  17.564 -0.1194  0.0293  0.1401
 1346BOLB   GL132283  11.391   3.455  17.201 -0.2302 -0.2400  0.0351
 1346BOLB   GL232284  11.085   3.621  17.211 -0.1578 -0.1564  0.1992
 1346BOLB   C1A32285  11.486   3.269  16.797  0.1385  0.1499  0.2847
 1346BOLB   C2A32286  11.615   3.176  16.342 -0.1274  0.1980 -0.2309
 1346BOLB   C3A32287  11.508   3.227  15.906  0.0425  0.4171  0.0969
 1346BOLB   C4A32288  11.203   3.490  15.732 -0.4553 -0.0563  0.0239
 1346BOLB   C1B32289  10.920   3.461  16.793 -0.0876 -0.0582  0.0794
 1346BOLB   C2B32290  10.831   3.656  16.448  0.2221 -0.2227 -0.0103
 1346BOLB   C3B32291  11.065   3.752  16.098 -0.0278 -0.0737  0.1590
 1346BOLB   C4B32292  10.852   4.049  15.848 -0.4496  0.0782  0.1844
 1346BOLB   NC232293  10.173   3.365  13.872  0.2946  0.2480  0.3116
 1346BOLB   PO232294  10.005   3.734  13.892  0.0739 -0.2317 -0.1328
 1346BOLB   GL332295  10.072   3.692  14.325  0.1350 -0.0308  0.0566
 1346BOLB   GL432296   9.812   3.729  14.625 -0.0488 -0.1404  0.3451
 1346BOLB   C1C32297  10.304   3.954  14.661  0.1600 -0.2302 -0.1771
 1346BOLB   C2C32298  10.566   4.101  15.087  0.2110 -0.0460 -0.0484
 1346BOLB   C3C32299  10.946   4.090  15.329  0.0249  0.1277 -0.1738
 1346BOLB   C4C32300  11.066   3.792  15.436  0.2311 -0.0200  0.1369
 1346BOLB   C1D32301  10.004   3.614  14.925 -0.1597  0.0913  0.0123
 1346BOLB   C2D32302  10.353   3.618  15.170 -0.1420 -0.2410  0.2016
 1346BOLB   C3D32303  10.558   3.687  15.562 -0.2324 -0.1149  0.3202
 1346BOLB   C4D32304  10.609   3.430  15.943  0.0826  0.0612 -0.1696
 1347BOLB   NC132305  11.192   1.517  31.560 -0.1879 -0.0522  0.1915
 1347BOLB   PO132306  10.948   1.797  31.651  0.1175  0.1007  0.0589
 1347BOLB   GL132307  10.574   1.547  31.940 -0.1908  0.2338 -0.4850
 1347BOLB   GL232308  10.410   1.720  32.201  0.2965 -0.0834  0.0628
 1347BOLB   C1A32309  10.528   1.276  32.282 -0.1868  0.0344  0.0870
 1347BOLB   C2A32310  10.385   0.999  32.569  0.2638  0.2331 -0.0738
 1347BOLB   C3A32311  10.280   0.726  32.908  0.2571  0.2393 -0.2093
 1347BOLB   C4A32312   9.957   0.859  33.119  0.1990  0.0446 -0.3962
 1347BOLB   C1B32313  10.632   1.957  32.626  0.0801  0.2062 -0.2418
 1347BOLB   C2B32314  10.554   1.893  33.080 -0.0852  0.1150  0.1076
 1347BOLB   C3B32315  10.236   1.912  33.532 -0.0269  0.2489  0.0954
 1347BOLB   C4B32316   9.841   2.093  33.656 -0.1025 -0.0191  0.1515
 1347BOLB   NC232317   7.524  -0.339  33.916  0.1525 -0.2091  0.2547
 1347BOLB   PO232318   7.938  -0.223  34.042 -0.0984 -0.1444 -0.0635
 1347BOLB   GL332319   8.245  -0.073  33.740 -0.0473 -0.2710  0.3798
 1347BOLB   GL432320   8.506  -0.229  33.666 -0.0449 -0.0476 -0.1008
 1347BOLB   C1C32321   8.435   0.247  33.707 -0.5492 -0.1545 -0.1230
 1347BOLB   C2C32322   8.781   0.387  33.369  0.2085 -0.0973 -0.0795
 1347BOLB   C3C32323   9.174   0.601  33.391 -0.2590 -0.2136  0.2078
 1347BOLB   C4C32324   9.550   0.725  33.153 -0.1597  0.3815 -0.0072
 1347BOLB   C1D32325   8.829  -0.079  33.521  0.2914  0.1900 -0.2031
 1347BOLB   C2D32326   9.235   0.085  33.269  0.3187 -0.1245  0.0605
 1347BOLB   C3D32327   9.463   0.147  32.951 -0.3062 -0.3018 -0.0512
 1347BOLB   C4D32328   9.925   0.396  32.936  0.2060  0.1328  0.0316
 1348BOLB   NC132329   9.412  -1.261  26.093 -0.1986 -0.2107  0.2398
 1348BOLB   PO132330   9.263  -1.419  25.722  0.3824 -0.1461 -0.0954
 1348BOLB   GL132331   8.973  -1.759  25.740 -0.1959 -0.1101  0.0965
 1348BOLB   GL232332   8.650  -1.738  25.669 -0.5907  0.1161 -0.0896
 1348BOLB   C1A32333   8.774  -2.156  25.537  0.2855 -0.0834 -0.5114
 1348BOLB   C2A32334   8.502  -2.530  25.448 -0.1232 -0.0910 -0.2443
 1348BOLB   C3A32335   8.369  -2.962  25.436  0.1367 -0.1793 -0.2378
 1348BOLB   C4A32336   8.133  -3.308  25.409 -0.0657  0.2627  0.1311
 1348BOLB   C1B32337   8.567  -2.035  25.976  0.2008  0.1334 -0.1029
 1348BOLB   C2B32338   8.335  -2.197  26.186 -0.0032  0.2160  0.0746
 1348BOLB   C3B32339   8.100  -2.418  26.506 -0.0516 -0.2347 -0.0692
 1348BOLB   C4B32340   7.971  -2.833  26.381 -0.0888  0.0745 -0.0177
 1348BOLB   NC232341   6.524  -5.213  25.802 -0.0982  0.0604  0.0834
 1348BOLB   PO232342   6.787  -5.404  26.171 -0.1421  0.1228  0.2390
 1348BOLB   GL332343   7.144  -5.200  25.921 -0.1188  0.1803 -0.1249
 1348BOLB   GL432344   7.415  -5.097  26.116 -0.0253  0.1207 -0.0678
 1348BOLB   C1C32345   7.542  -4.998  25.667  0.5391  0.0387  0.0272
 1348BOLB   C2C32346   7.726  -4.602  25.505 -0.1415 -0.1100 -0.3707
 1348BOLB   C3C32347   7.882  -4.121  25.444 -0.0882 -0.1073  0.1472
 1348BOLB   C4C32348   7.920  -3.671  25.569 -0.1883  0.6420 -0.1210
 1348BOLB   C1D32349   7.774  -4.874  26.249  0.1471  0.2684 -0.4605
 1348BOLB   C2D32350   8.077  -4.880  26.605  0.1217  0.1621  0.0334
 1348BOLB   C3D32351   8.154  -4.582  26.866  0.4841  0.0415 -0.6197
 1348BOLB   C4D32352   8.108  -4.180  26.749 -0.4350 -0.1707 -0.0236
 1349BOLB   NC132353  15.132  10.671  30.712  0.1367  0.0113 -0.3917
 1349BOLB   PO132354  14.762  10.561  30.979  0.5161  0.2107 -0.0373
 1349BOLB   GL132355  14.545  10.936  31.299  0.0081  0.1880 -0.1238
 1349BOLB   GL232356  14.789  11.132  31.476 -0.1224  0.0343  0.1155
 1349BOLB   C1A32357  14.262  11.259  31.479  0.2418 -0.0068  0.0513
 1349BOLB   C2A32358  13.907  11.089  31.823 -0.1477  0.1499  0.1862
 1349BOLB   C3A32359  13.945  11.321  32.304 -0.0167 -0.1757  0.2471
 1349BOLB   C4A32360  13.945  11.416  32.746 -0.2518 -0.0747  0.2022
 1349BOLB   C1B32361  14.703  11.576  31.492 -0.0471  0.1498 -0.0633
 1349BOLB   C2B32362  14.489  12.006  31.600 -0.0045  0.1032  0.3168
 1349BOLB   C3B32363  14.071  12.059  31.742 -0.2268 -0.3044  0.0891
 1349BOLB   C4B32364  13.929  12.253  32.059 -0.0873 -0.0745  0.2892
 1349BOLB   NC232365  13.353  13.766  33.888  0.1693 -0.0165  0.0221
 1349BOLB   PO232366  13.453  13.374  33.968  0.0817  0.1828 -0.1235
 1349BOLB   GL332367  13.491  12.933  33.996 -0.0824  0.4963 -0.0710
 1349BOLB   GL432368  13.237  12.904  33.715 -0.0967 -0.1506 -0.0270
 1349BOLB   C1C32369  13.552  12.444  33.870  0.1057 -0.0640  0.1241
 1349BOLB   C2C32370  13.518  12.100  33.539  0.0446 -0.3264  0.1306
 1349BOLB   C3C32371  13.663  11.743  33.301  0.1921 -0.0858 -0.1720
 1349BOLB   C4C32372  13.992  11.476  33.235 -0.0146  0.1253  0.1929
 1349BOLB   C1D32373  13.331  12.543  33.387  0.0655 -0.3834 -0.0366
 1349BOLB   C2D32374  13.518  12.493  33.022 -0.3199 -0.3734 -0.1080
 1349BOLB   C3D32375  13.606  12.366  32.616  0.0288  0.0272  0.0013
 1349BOLB   C4D32376  13.815  12.710  32.411  0.2257 -0.1329 -0.2258
 1350BOLB   NC132377  10.898  10.301  23.514 -0.1147 -0.0836  0.2501
 1350BOLB   PO132378  10.867  10.752  23.393  0.0061  0.0717  0.2508
 1350BOLB   GL132379  10.642  11.167  23.344 -0.2727 -0.0998  0.1153
 1350BOLB   GL232380  10.577  11.347  23.617  0.0393  0.1057  0.1343
 1350BOLB   C1A32381  10.597  11.497  22.969  0.1068  0.1594  0.3425
 1350BOLB   C2A32382  10.655  11.900  22.815 -0.0070  0.2135  0.1061
 1350BOLB   C3A32383  10.594  12.237  22.790  0.0974  0.0281  0.1988
 1350BOLB   C4A32384  10.716  12.527  22.752 -0.2892 -0.0443  0.2886
 1350BOLB   C1B32385  10.441  11.677  23.534 -0.1064 -0.0255  0.1831
 1350BOLB   C2B32386  10.341  11.934  23.165  0.0715 -0.2219  0.2123
 1350BOLB   C3B32387  10.172  11.956  22.713 -0.1106  0.0973 -0.0437
 1350BOLB   C4B32388   9.978  11.805  22.349  0.1235 -0.0211  0.0772
 1350BOLB   NC232389  10.613  14.748  21.697 -0.0680 -0.2230  0.0171
 1350BOLB   PO232390  10.241  14.730  21.749  0.2099  0.0382  0.1020
 1350BOLB   GL332391  10.478  14.292  21.947 -0.2149  0.1317 -0.2162
 1350BOLB   GL432392  10.824  14.213  21.958 -0.0162 -0.3501 -0.1488
 1350BOLB   C1C32393  10.435  13.872  21.983 -0.1091  0.1175 -0.1618
 1350BOLB   C2C32394  10.471  13.543  22.030  0.1297  0.0978  0.2804
 1350BOLB   C3C32395  10.516  13.347  22.423  0.1913 -0.0740  0.2494
 1350BOLB   C4C32396  10.598  13.001  22.601  0.4609 -0.2407  0.2396
 1350BOLB   C1D32397  11.227  14.033  21.829 -0.0787 -0.1822 -0.2714
 1350BOLB   C2D32398  11.458  13.662  21.879 -0.1318 -0.1420 -0.4293
 1350BOLB   C3D32399  11.266  13.251  22.025 -0.0880  0.0846  0.1390
 1350BOLB   C4D32400  10.807  13.107  22.082 -0.2344  0.3067 -0.0065
 1351BOLB   NC132401   9.937   4.907  37.158 -0.0911  0.3333 -0.2909
 1351BOLB   PO132402  10.468   4.607  37.068  0.1492 -0.0138  0.3091
 1351BOLB   GL132403  10.526   4.582  36.588 -0.4062 -0.0277 -0.0028
 1351BOLB   GL232404  10.522   4.900  36.454  0.3381  0.0907  0.1066
 1351BOLB   C1A32405  10.657   4.451  36.127  0.3324  0.0576  0.0735
 1351BOLB   C2A32406  10.782   4.137  35.777  0.1521 -0.0707  0.0111
 1351BOLB   C3A32407  10.569   3.754  35.529 -0.1992 -0.0191 -0.1563
 1351BOLB   C4A32408  10.765   3.672  35.109  0.1049 -0.1790 -0.1008
 1351BOLB   C1B32409  10.882   4.924  36.228  0.3767 -0.0093  0.1530
 1351BOLB   C2B32410  11.056   4.925  35.944  0.0840 -0.3748 -0.2851
 1351BOLB   C3B32411  11.388   4.866  35.580  0.0366 -0.1507  0.0744
 1351BOLB   C4B32412  11.624   4.620  35.226 -0.1155  0.2937  0.2358
 1351BOLB   NC232413   9.014   3.787  35.776 -0.0495  0.1822  0.0706
 1351BOLB   PO232414   9.368   3.933  35.992 -0.1952  0.1906 -0.3639
 1351BOLB   GL332415   9.498   3.758  35.615  0.2686  0.1200 -0.1724
 1351BOLB   GL432416   9.251   3.545  35.429  0.1190 -0.2996 -0.4462
 1351BOLB   C1C32417   9.807   3.649  35.350  0.1733  0.0249 -0.0647
 1351BOLB   C2C32418   9.867   3.443  34.905  0.2897  0.0174 -0.2862
 1351BOLB   C3C32419  10.188   3.507  34.554 -0.0822  0.1338 -0.1345
 1351BOLB   C4C32420  10.578   3.607  34.751 -0.6774  0.0190 -0.3132
 1351BOLB   C1D32421   9.065   3.325  35.086 -0.1929 -0.2709  0.0369
 1351BOLB   C2D32422   8.900   3.255  34.638  0.1958  0.1076  0.3681
 1351BOLB   C3D32423   8.704   3.413  34.275  0.1762  0.0038 -0.0960
 1351BOLB   C4D32424   8.808   3.870  34.207 -0.3350 -0.0122  0.4222
 1352BOLB   NC132425   9.785   1.905  30.587  0.2215  0.0736 -0.1995
 1352BOLB   PO132426   9.551   2.061  30.919  0.2376 -0.0590 -0.0859
 1352BOLB   GL132427   9.355   2.052  31.271 -0.1999 -0.1940 -0.0479
 1352BOLB   GL232428   9.558   2.034  31.506 -0.0699  0.0398 -0.2726
 1352BOLB   C1A32429   9.024   1.824  31.474  0.1285  0.0581  0.0224
 1352BOLB   C2A32430   8.955   1.594  31.913 -0.4268 -0.0400 -0.0621
 1352BOLB   C3A32431   8.947   1.776  32.345  0.1716  0.0966  0.3320
 1352BOLB   C4A32432   8.604   1.758  32.600  0.1570 -0.2237 -0.1739
 1352BOLB   C1B32433   9.431   1.777  31.859 -0.0713  0.2996 -0.0899
 1352BOLB   C2B32434   9.396   1.588  32.228  0.0920 -0.2469 -0.1085
 1352BOLB   C3B32435   9.462   1.198  32.469  0.2025  0.3925 -0.2185
 1352BOLB   C4B32436   9.751   0.982  32.543 -0.0637 -0.1496  0.2532
 1352BOLB   NC232437   8.795   1.393  35.341  0.1398 -0.2244 -0.0206
 1352BOLB   PO232438   8.517   1.190  34.968  0.0879  0.1881 -0.1051
 1352BOLB   GL332439   8.491   1.098  34.601 -0.0662 -0.2333  0.0016
 1352BOLB   GL432440   8.527   0.752  34.614 -0.1803 -0.3786  0.0939
 1352BOLB   C1C32441   8.592   1.382  34.244 -0.1111 -0.1016  0.0931
 1352BOLB   C2C32442   8.746   1.608  33.828  0.0205 -0.0489  0.0728
 1352BOLB   C3C32443   8.522   1.821  33.438 -0.0733  0.1050 -0.2499
 1352BOLB   C4C32444   8.513   1.809  32.947  0.1923 -0.1429 -0.3080
 1352BOLB   C1D32445   8.887   0.973  34.331 -0.1546 -0.0158  0.0544
 1352BOLB   C2D32446   9.257   0.882  33.975 -0.0763 -0.3607 -0.1237
 1352BOLB   C3D32447   9.529   0.908  33.693 -0.1696 -0.0273 -0.2116
 1352BOLB   C4D32448   9.723   1.160  33.480  0.1659  0.0610  0.2076
 1353BOLB   NC132449   8.029   0.665  27.648 -0.0947 -0.0405 -0.0592
 1353BOLB   PO132450   8.228   0.675  28.016  0.2633  0.0838 -0.0289
 1353BOLB   GL132451   7.738   0.588  28.091  0.5214 -0.1619  0.1717
 1353BOLB   GL232452   7.695   0.905  28.060 -0.0886 -0.1970 -0.3684
 1353BOLB   C1A32453   7.339   0.237  28.108 -0.1046  0.0694 -0.0303
 1353BOLB   C2A32454   6.961   0.153  28.082 -0.1756  0.0557  0.1168
 1353BOLB   C3A32455   6.534   0.112  28.226  0.1737  0.1064  0.0612
 1353BOLB   C4A32456   6.227  -0.018  28.471  0.0814 -0.4261  0.3988
 1353BOLB   C1B32457   7.261   0.914  28.180  0.0240  0.1136 -0.3000
 1353BOLB   C2B32458   7.015   0.601  28.389 -0.0364 -0.0199 -0.0321
 1353BOLB   C3B32459   6.612   0.549  28.381 -0.0440 -0.0781  0.1071
 1353BOLB   C4B32460   6.141   0.610  28.367 -0.2853  0.3075 -0.2465
 1353BOLB   NC232461   4.211  -0.380  29.527 -0.1227 -0.2622  0.2542
 1353BOLB   PO232462   4.384  -0.699  29.828 -0.0469 -0.3569  0.1207
 1353BOLB   GL332463   4.689  -0.515  29.569  0.0978  0.1962  0.2234
 1353BOLB   GL432464   5.071  -0.427  29.612 -0.5517 -0.0209 -0.4762
 1353BOLB   C1C32465   4.942  -0.585  29.175  0.2172  0.1162  0.2414
 1353BOLB   C2C32466   5.329  -0.457  29.137 -0.1055 -0.2101 -0.0075
 1353BOLB   C3C32467   5.675  -0.474  28.842 -0.1916 -0.2692  0.1151
 1353BOLB   C4C32468   5.860  -0.155  28.611 -0.0863  0.3745  0.0138
 1353BOLB   C1D32469   5.317  -0.181  29.548  0.1262  0.3589 -0.0393
 1353BOLB   C2D32470   5.388   0.109  29.314 -0.1661  0.2575 -0.3615
 1353BOLB   C3D32471   5.590   0.410  29.325 -0.2067  0.1412 -0.0566
 1353BOLB   C4D32472   5.855   0.615  29.035  0.1972  0.2161  0.2973
 1354BOLB   NC132473  11.658   0.978  17.840  0.0779 -0.0707  0.0591
 1354BOLB   PO132474  11.811   0.712  18.134 -0.1978  0.1634  0.2295
 1354BOLB   GL132475  11.669   0.472  17.651  0.0653  0.2704  0.2304
 1354BOLB   GL232476  11.404   0.223  17.821  0.2423  0.0702  0.4001
 1354BOLB   C1A32477  11.654   0.293  17.198 -0.3634 -0.0600  0.0453
 1354BOLB   C2A32478  11.346   0.193  16.931  0.2732 -0.1886  0.1900
 1354BOLB   C3A32479  11.006  -0.042  16.685  0.0421  0.0962  0.1759
 1354BOLB   C4A32480  10.783  -0.364  16.597 -0.0936 -0.0057 -0.1217
 1354BOLB   C1B32481  11.266   0.023  17.495  0.1315  0.1422 -0.0175
 1354BOLB   C2B32482  11.015  -0.108  17.279  0.0093  0.1617  0.2608
 1354BOLB   C3B32483  10.755  -0.395  17.145 -0.1204 -0.2930  0.1802
 1354BOLB   C4B32484  10.429  -0.594  16.908  0.0434  0.0269  0.1229
 1354BOLB   NC232485   9.050  -0.294  14.727  0.0011  0.1024  0.2109
 1354BOLB   PO232486   9.105  -0.726  14.882  0.3147 -0.1754  0.0818
 1354BOLB   GL332487   9.382  -0.702  15.265 -0.1335  0.3872 -0.0861
 1354BOLB   GL432488   9.318  -0.569  15.511  0.0312  0.1486  0.0373
 1354BOLB   C1C32489   9.757  -0.435  15.448  0.1956 -0.3937 -0.1838
 1354BOLB   C2C32490  10.137  -0.538  15.657  0.2370 -0.1354 -0.0379
 1354BOLB   C3C32491  10.466  -0.516  15.847 -0.0841 -0.1039 -0.0060
 1354BOLB   C4C32492  10.764  -0.510  16.162 -0.0392  0.1060  0.4186
 1354BOLB   C1D32493   9.511  -0.430  15.895  0.3164 -0.0875 -0.2683
 1354BOLB   C2D32494   9.903  -0.543  16.120 -0.2686 -0.2470  0.2885
 1354BOLB   C3D32495  10.061  -0.694  16.562  0.4169 -0.0289 -0.2626
 1354BOLB   C4D32496  10.179  -1.019  16.835  0.0482  0.0887  0.0898
 1355BOLB   NC132497  12.965   4.042  32.444  0.0943  0.0694 -0.1254
 1355BOLB   PO132498  12.807   3.893  32.912  0.0270  0.1066 -0.0638
 1355BOLB   GL132499  12.693   3.942  33.433  0.2331 -0.2547 -0.3645
 1355BOLB   GL232500  12.369   4.027  33.580  0.0673  0.0851  0.0415
 1355BOLB   C1A32501  12.717   3.810  33.888  0.0680  0.0112  0.1260
 1355BOLB   C2A32502  12.516   3.964  34.332 -0.0762  0.4907  0.1301
 1355BOLB   C3A32503  12.568   4.144  34.755 -0.1182 -0.1285 -0.4041
 1355BOLB   C4A32504  12.410   4.290  35.229  0.1308  0.2800  0.1149
 1355BOLB   C1B32505  12.241   3.798  33.945 -0.0827  0.2535  0.1235
 1355BOLB   C2B32506  12.289   3.482  34.172  0.0228  0.2833  0.1637
 1355BOLB   C3B32507  12.017   3.212  34.454 -0.0091 -0.0836  0.1336
 1355BOLB   C4B32508  11.983   3.050  34.865  0.1699 -0.0353 -0.0723
 1355BOLB   NC232509  10.565   3.752  37.617 -0.0397  0.0436 -0.1320
 1355BOLB   PO232510  10.821   3.819  37.243 -0.0128  0.0998  0.4433
 1355BOLB   GL332511  11.181   3.877  36.869  0.0384 -0.3880 -0.1551
 1355BOLB   GL432512  11.004   3.932  36.665 -0.1158 -0.4173 -0.3012
 1355BOLB   C1C32513  11.443   3.938  36.494  0.0365 -0.1756  0.3954
 1355BOLB   C2C32514  11.614   4.265  36.135 -0.2601  0.0704  0.0703
 1355BOLB   C3C32515  11.814   4.330  35.752 -0.1987  0.1161  0.1286
 1355BOLB   C4C32516  12.074   4.267  35.528 -0.2103  0.1375  0.1499
 1355BOLB   C1D32517  11.015   3.983  36.205 -0.0075 -0.1051 -0.1300
 1355BOLB   C2D32518  11.230   3.951  35.900 -0.0001  0.1284  0.0363
 1355BOLB   C3D32519  11.524   3.867  35.802  0.1089  0.0790 -0.0392
 1355BOLB   C4D32520  12.028   3.847  35.911  0.1980 -0.2643 -0.1988
 1356BOLB   NC132521  14.894   4.415  33.568  0.0387  0.2237 -0.2277
 1356BOLB   PO132522  15.208   4.677  33.809 -0.0206 -0.1527  0.3935
 1356BOLB   GL132523  15.263   4.858  34.163 -0.0363 -0.0932  0.0203
 1356BOLB   GL232524  14.990   4.698  34.275 -0.0395 -0.1107 -0.1280
 1356BOLB   C1A32525  15.277   5.103  34.552  0.6232  0.0886  0.0221
 1356BOLB   C2A32526  15.393   4.828  34.925 -0.0506  0.0335 -0.0763
 1356BOLB   C3A32527  15.217   4.753  35.284  0.3998  0.1486 -0.0432
 1356BOLB   C4A32528  15.240   4.698  35.777  0.2257  0.1716 -0.2178
 1356BOLB   C1B32529  14.917   4.699  34.727 -0.1398 -0.2232  0.0702
 1356BOLB   C2B32530  14.808   4.852  35.062 -0.1142  0.2989 -0.1003
 1356BOLB   C3B32531  14.726   4.867  35.566 -0.0711  0.1127  0.0942
 1356BOLB   C4B32532  14.698   4.899  35.955 -0.0288  0.1091  0.3096
 1356BOLB   NC232533  14.429   3.723  37.988 -0.2296  0.2357 -0.1521
 1356BOLB   PO232534  14.203   4.090  38.121  0.3048 -0.1690 -0.2423
 1356BOLB   GL332535  14.125   4.112  37.621  0.0380  0.1883 -0.1797
 1356BOLB   GL432536  13.845   4.200  37.543 -0.0032  0.0848 -0.1871
 1356BOLB   C1C32537  14.375   4.242  37.257  0.0930  0.1499 -0.0532
 1356BOLB   C2C32538  14.563   4.224  36.886 -0.3866  0.2200  0.0663
 1356BOLB   C3C32539  14.770   4.260  36.477  0.1544 -0.0844  0.2212
 1356BOLB   C4C32540  14.939   4.413  36.064  0.2505 -0.1264  0.0606
 1356BOLB   C1D32541  13.803   4.380  37.132 -0.1488 -0.2113  0.0314
 1356BOLB   C2D32542  14.106   4.569  36.886  0.3979 -0.1877  0.0829
 1356BOLB   C3D32543  14.271   4.606  36.497 -0.0784 -0.1969  0.0621
 1356BOLB   C4D32544  14.569   4.664  36.339  0.1777 -0.2257  0.1563
 1357BOLB   NC132545  15.043  11.862  29.516 -0.0823 -0.1055  0.3094
 1357BOLB   PO132546  15.377  12.012  29.210  0.0638  0.2393 -0.1597
 1357BOLB   GL132547  15.463  12.454  29.352  0.1012  0.1259  0.1912
 1357BOLB   GL232548  15.672  12.502  29.518  0.2003 -0.2391  0.0547
 1357BOLB   C1A32549  15.255  12.760  29.384  0.0497  0.2626 -0.1358
 1357BOLB   C2A32550  15.303  13.202  29.507 -0.0786  0.1258 -0.1931
 1357BOLB   C3A32551  15.100  13.587  29.441 -0.1198  0.2096  0.1866
 1357BOLB   C4A32552  15.054  13.840  29.778  0.0874 -0.1172 -0.1093
 1357BOLB   C1B32553  15.461  12.757  29.800  0.1140  0.1860  0.0488
 1357BOLB   C2B32554  15.661  13.042  29.980  0.0239  0.2249 -0.0889
 1357BOLB   C3B32555  15.516  13.490  29.878  0.2570 -0.1880 -0.0279
 1357BOLB   C4B32556  15.372  13.575  30.201  0.2246  0.1146 -0.0545
 1357BOLB   NC232557  13.590  15.778  30.418 -0.0359 -0.2156 -0.1015
 1357BOLB   PO232558  13.693  15.489  30.793  0.0288  0.1846 -0.1982
 1357BOLB   GL332559  13.917  15.124  30.856 -0.1226  0.0967 -0.3037
 1357BOLB   GL432560  13.817  14.858  30.770 -0.2827  0.1262 -0.2409
 1357BOLB   C1C32561  14.402  14.978  30.864 -0.1050  0.0597  0.2599
 1357BOLB   C2C32562  14.696  14.712  30.619 -0.0607 -0.2557 -0.0785
 1357BOLB   C3C32563  14.835  14.587  30.214  0.1840  0.0377  0.1943
 1357BOLB   C4C32564  14.976  14.220  30.055  0.3336  0.1711 -0.2139
 1357BOLB   C1D32565  13.668  14.617  31.135  0.1731  0.1858 -0.1890
 1357BOLB   C2D32566  13.286  14.416  31.435 -0.2763  0.0213 -0.0023
 1357BOLB   C3D32567  13.304  14.012  31.554  0.1079 -0.1150 -0.2250
 1357BOLB   C4D32568  13.262  13.519  31.566  0.0219  0.2484  0.3422
 1358BOLB   NC132569  20.858   9.009  29.731 -0.2119 -0.1276 -0.0583
 1358BOLB   PO132570  20.755   9.403  29.731  0.2323 -0.1136  0.0916
 1358BOLB   GL132571  21.065   9.757  29.891  0.0947  0.1845  0.1244
 1358BOLB   GL232572  21.061  10.131  29.672  0.1166  0.2598  0.1506
 1358BOLB   C1A32573  21.491   9.995  30.061  0.4309  0.1653  0.1921
 1358BOLB   C2A32574  21.783  10.281  29.869 -0.0217  0.0708 -0.1470
 1358BOLB   C3A32575  21.801  10.692  29.953 -0.1967  0.0790  0.0101
 1358BOLB   C4A32576  22.179  11.045  30.094  0.2425  0.0175 -0.1463
 1358BOLB   C1B32577  20.921  10.230  30.192 -0.2808 -0.2340 -0.1745
 1358BOLB   C2B32578  21.130  10.222  30.551  0.1689 -0.0218  0.0539
 1358BOLB   C3B32579  21.189  10.599  30.809  0.0300  0.2610 -0.3276
 1358BOLB   C4B32580  21.090  10.979  30.836 -0.1314 -0.0004 -0.0277
 1358BOLB   NC232581  22.248  13.134  30.943 -0.1337  0.0823  0.0431
 1358BOLB   PO232582  22.690  13.074  30.929  0.2714  0.0134 -0.0414
 1358BOLB   GL332583  22.503  12.727  30.794 -0.0422 -0.1283  0.2388
 1358BOLB   GL432584  22.429  12.592  31.086  0.2286  0.2783  0.1388
 1358BOLB   C1C32585  22.465  12.243  30.633 -0.2267  0.1343 -0.0660
 1358BOLB   C2C32586  22.280  12.106  30.368 -0.1085  0.0758 -0.4076
 1358BOLB   C3C32587  22.253  11.702  30.229  0.1142  0.4796  0.0721
 1358BOLB   C4C32588  22.314  11.267  30.243  0.1367  0.0602 -0.1167
 1358BOLB   C1D32589  22.043  12.554  30.711 -0.0865  0.0641  0.0761
 1358BOLB   C2D32590  21.764  12.787  30.643  0.0061 -0.2676 -0.0260
 1358BOLB   C3D32591  21.431  12.811  30.312  0.2950  0.0036 -0.0549
 1358BOLB   C4D32592  21.339  12.619  29.993 -0.3132  0.0494 -0.2904
 1359BOLB   NC132593  11.163  -2.774  26.525  0.1329 -0.3595 -0.0712
 1359BOLB   PO132594  10.802  -2.838  26.300 -0.0708  0.2492  0.1529
 1359BOLB   GL132595  10.555  -3.206  26.467 -0.0105 -0.2479 -0.0138
 1359BOLB   GL232596  10.387  -3.451  26.236  0.0311  0.1038  0.2401
 1359BOLB   C1A32597  10.468  -3.498  26.815  0.1718  0.0643  0.0987
 1359BOLB   C2A32598  10.288  -3.829  27.043  0.1283 -0.0725  0.0180
 1359BOLB   C3A32599  10.043  -4.162  27.163 -0.0387 -0.0840  0.2740
 1359BOLB   C4A32600   9.859  -4.527  27.321 -0.2185 -0.1334 -0.1390
 1359BOLB   C1B32601  10.293  -3.804  26.440 -0.1035 -0.2756 -0.4424
 1359BOLB   C2B32602   9.943  -3.923  26.702  0.0889  0.0815  0.1076
 1359BOLB   C3B32603   9.561  -3.852  26.800  0.3824  0.0418  0.0291
 1359BOLB   C4B32604   9.098  -3.972  26.872  0.0973 -0.1387  0.1000
 1359BOLB   NC232605   9.000  -6.152  28.726  0.3080  0.2173  0.0184
 1359BOLB   PO232606   9.017  -6.224  28.158 -0.0266  0.0960  0.0410
 1359BOLB   GL332607   9.314  -6.087  27.914 -0.1065 -0.0698 -0.1389
 1359BOLB   GL432608   9.585  -6.180  27.782 -0.1149 -0.0586 -0.1087
 1359BOLB   C1C32609   9.316  -5.675  27.833 -0.0422  0.0485  0.1603
 1359BOLB   C2C32610   9.543  -5.294  28.015  0.1299  0.2913 -0.1249
 1359BOLB   C3C32611   9.375  -4.907  27.911  0.0374  0.1040  0.0134
 1359BOLB   C4C32612   9.466  -4.595  27.681  0.3181 -0.0571  0.2673
 1359BOLB   C1D32613   9.797  -5.852  28.034 -0.1290  0.0947 -0.0126
 1359BOLB   C2D32614  10.159  -5.575  28.011  0.0829  0.0446  0.2018
 1359BOLB   C3D32615  10.606  -5.543  28.101 -0.2690  0.0948  0.0132
 1359BOLB   C4D32616  10.802  -5.203  28.187 -0.0479  0.1433  0.2265
 1360BOLB   NC132617  12.769  -2.767  19.514 -0.3351 -0.1523 -0.4664
 1360BOLB   PO132618  12.661  -2.928  19.773  0.0625 -0.0445  0.2536
 1360BOLB   GL132619  12.624  -3.317  19.583  0.2906 -0.0197  0.1611
 1360BOLB   GL232620  12.794  -3.509  19.592  0.0424  0.2388  0.2062
 1360BOLB   C1A32621  12.310  -3.611  19.359 -0.1222 -0.2944 -0.0742
 1360BOLB   C2A32622  12.220  -3.817  18.943 -0.1591 -0.3386  0.0748
 1360BOLB   C3A32623  11.998  -3.807  18.636 -0.1709 -0.0746 -0.1002
 1360BOLB   C4A32624  11.698  -4.096  18.433 -0.0803 -0.0180  0.0573
 1360BOLB   C1B32625  12.706  -3.903  19.464  0.2857 -0.1952  0.2098
 1360BOLB   C2B32626  12.527  -4.100  19.135 -0.0168 -0.1269  0.0856
 1360BOLB   C3B32627  12.518  -4.248  18.681  0.1384  0.0050  0.0102
 1360BOLB   C4B32628  12.321  -4.457  18.318  0.1020 -0.3094 -0.1456
 1360BOLB   NC232629  10.735  -6.299  17.911 -0.2544 -0.1033  0.0752
 1360BOLB   PO232630  10.432  -5.961  18.088  0.1822  0.1786  0.2480
 1360BOLB   GL332631  10.679  -5.865  18.252  0.2342  0.0958  0.2251
 1360BOLB   GL432632  11.052  -5.986  18.208  0.1283 -0.0496  0.1052
 1360BOLB   C1C32633  10.888  -5.512  18.144 -0.0439 -0.1012  0.3993
 1360BOLB   C2C32634  10.953  -5.138  18.335  0.0903 -0.2408 -0.1051
 1360BOLB   C3C32635  11.097  -4.642  18.386  0.3105 -0.2081  0.0982
 1360BOLB   C4C32636  11.310  -4.279  18.334  0.2550 -0.1773  0.3704
 1360BOLB   C1D32637  11.340  -5.794  18.313  0.1125  0.2180 -0.0581
 1360BOLB   C2D32638  11.385  -5.381  18.457 -0.3216  0.0110  0.0535
 1360BOLB   C3D32639  11.382  -4.992  18.674 -0.1851 -0.3444 -0.1236
 1360BOLB   C4D32640  11.409  -4.556  18.746  0.0679 -0.0446 -0.1959
 1361BOLB   NC132641  15.688  11.220  21.608 -0.4941  0.3269 -0.3892
 1361BOLB   PO132642  15.302  10.919  21.477 -0.0379  0.0953 -0.2732
 1361BOLB   GL132643  14.982  11.035  21.302  0.0548 -0.1681 -0.2264
 1361BOLB   GL232644  14.890  10.876  21.111  0.1083 -0.1386  0.3219
 1361BOLB   C1A32645  14.883  11.437  21.192 -0.2628 -0.0485  0.1410
 1361BOLB   C2A32646  14.872  11.743  20.996 -0.0283  0.0892  0.1044
 1361BOLB   C3A32647  14.618  11.758  20.687  0.2997  0.1373 -0.0937
 1361BOLB   C4A32648  14.287  12.081  20.589 -0.0406  0.1449 -0.0538
 1361BOLB   C1B32649  14.837  11.228  20.718 -0.0670  0.3278  0.1456
 1361BOLB   C2B32650  14.966  11.478  20.448  0.0330  0.1430 -0.0257
 1361BOLB   C3B32651  14.849  11.586  20.040 -0.2220 -0.2275  0.1199
 1361BOLB   C4B32652  14.612  11.860  19.746  0.2396  0.3190  0.0653
 1361BOLB   NC232653  13.885  13.926  18.726 -0.3916 -0.0187 -0.0464
 1361BOLB   PO232654  13.892  14.108  19.159  0.1481  0.1148 -0.1463
 1361BOLB   GL332655  13.897  13.727  19.404 -0.5060  0.2372  0.0494
 1361BOLB   GL432656  13.941  13.332  19.329 -0.1845  0.0478  0.1364
 1361BOLB   C1C32657  14.015  13.419  19.765  0.2965 -0.2242 -0.1814
 1361BOLB   C2C32658  14.105  13.174  20.147  0.0507 -0.3426  0.1355
 1361BOLB   C3C32659  14.193  12.853  20.362 -0.0650  0.0060 -0.1453
 1361BOLB   C4C32660  14.153  12.412  20.367  0.0485 -0.2046 -0.1672
 1361BOLB   C1D32661  14.189  13.009  19.439  0.0063 -0.2362 -0.0711
 1361BOLB   C2D32662  14.226  12.616  19.747 -0.1320 -0.0867  0.1420
 1361BOLB   C3D32663  14.252  12.161  19.878  0.0845  0.1259  0.0705
 1361BOLB   C4D32664  13.998  11.840  19.796 -0.2083 -0.0618  0.1993
 1362BOLB   NC132665  23.901  -4.645  11.437 -0.3062  0.0967 -0.0917
 1362BOLB   PO132666  23.591  -4.588  11.776  0.2280 -0.0497  0.1457
 1362BOLB   GL132667  23.634  -4.624  12.205 -0.1246  0.3782  0.1535
 1362BOLB   GL232668  23.696  -4.865  12.491  0.1285  0.1292 -0.3797
 1362BOLB   C1A32669  23.692  -4.371  12.634 -0.3534 -0.1199  0.2689
 1362BOLB   C2A32670  23.799  -4.001  12.974 -0.2174  0.0265 -0.4589
 1362BOLB   C3A32671  23.744  -3.720  13.268 -0.1537 -0.1299  0.4499
 1362BOLB   C4A32672  23.837  -3.352  13.564 -0.0697 -0.0902  0.2509
 1362BOLB   C1B32673  23.415  -4.753  12.826 -0.0226  0.0755 -0.1279
 1362BOLB   C2B32674  23.360  -4.379  13.077  0.1594  0.5323  0.0423
 1362BOLB   C3B32675  23.000  -4.096  13.156  0.2929 -0.0972 -0.3130
 1362BOLB   C4B32676  22.863  -3.911  13.522 -0.0256 -0.1691  0.0655
 1362BOLB   NC232677  25.551  -3.254  12.281 -0.0719  0.0594 -0.0346
 1362BOLB   PO232678  25.216  -3.560  12.082 -0.1048  0.0503  0.3659
 1362BOLB   GL332679  25.110  -3.403  12.503 -0.0580 -0.0748  0.0083
 1362BOLB   GL432680  24.787  -3.564  12.462 -0.0184  0.0734 -0.2035
 1362BOLB   C1C32681  24.907  -3.138  12.900 -0.1008 -0.0929  0.2824
 1362BOLB   C2C32682  24.763  -3.299  13.326 -0.0350  0.2508 -0.3449
 1362BOLB   C3C32683  24.565  -3.567  13.597  0.0268  0.2343  0.1000
 1362BOLB   C4C32684  24.184  -3.588  13.632 -0.0626  0.1947 -0.0567
 1362BOLB   C1D32685  24.660  -3.573  12.854 -0.0701  0.2725  0.3824
 1362BOLB   C2D32686  24.287  -3.539  13.105  0.0965  0.2883  0.0232
 1362BOLB   C3D32687  23.921  -3.309  13.057  0.0058  0.0356 -0.1270
 1362BOLB   C4D32688  23.716  -3.517  12.778 -0.1004  0.1501 -0.3740
 1363BOLB   NC132689  16.244  10.817  30.078 -0.3408 -0.0329 -0.0248
 1363BOLB   PO132690  16.484  11.132  30.261 -0.1362  0.1608  0.0649
 1363BOLB   GL132691  16.455  11.505  30.457  0.0972 -0.4327  0.1447
 1363BOLB   GL232692  16.343  11.806  30.280  0.0841  0.1091  0.2072
 1363BOLB   C1A32693  16.624  11.882  30.644  0.0516  0.0934  0.0213
 1363BOLB   C2A32694  16.586  12.200  30.954  0.1343  0.1302  0.0507
 1363BOLB   C3A32695  16.506  12.662  30.988  0.1415  0.0621  0.0737
 1363BOLB   C4A32696  16.524  13.055  30.848 -0.1977 -0.1968 -0.0132
 1363BOLB   C1B32697  16.307  12.283  30.508 -0.2258 -0.0421 -0.1419
 1363BOLB   C2B32698  16.359  12.752  30.438 -0.3253 -0.0609 -0.0862
 1363BOLB   C3B32699  16.191  13.099  30.151  0.0081 -0.2168  0.0479
 1363BOLB   C4B32700  16.040  13.554  29.894  0.1370  0.2614 -0.1342
 1363BOLB   NC232701  17.057  15.247  30.968 -0.2108  0.1565  0.1255
 1363BOLB   PO232702  16.673  15.203  31.202  0.0337 -0.1426  0.0783
 1363BOLB   GL332703  16.545  14.835  31.385  0.0758 -0.0099  0.1932
 1363BOLB   GL432704  16.514  14.693  31.683  0.1880  0.1312 -0.2218
 1363BOLB   C1C32705  16.518  14.348  31.218  0.0529 -0.4419  0.0960
 1363BOLB   C2C32706  16.613  14.129  30.868 -0.0219 -0.1917  0.1061
 1363BOLB   C3C32707  16.694  13.733  30.664 -0.1628 -0.3972  0.1535
 1363BOLB   C4C32708  16.503  13.392  30.511  0.0276  0.2429 -0.1747
 1363BOLB   C1D32709  16.297  14.339  31.644 -0.1191  0.0415 -0.0391
 1363BOLB   C2D32710  15.941  14.120  31.584  0.2007  0.2763 -0.2062
 1363BOLB   C3D32711  15.797  13.894  31.178 -0.0488 -0.2497  0.1513
 1363BOLB   C4D32712  15.662  13.499  31.210  0.3481  0.0913 -0.0042
 1364BOLB   NC132713  11.115  -0.700  30.425  0.0368  0.2532 -0.0803
 1364BOLB   PO132714  11.381  -1.085  30.270  0.2376  0.2468 -0.0074
 1364BOLB   GL132715  11.085  -1.320  30.355  0.2172  0.1956 -0.1723
 1364BOLB   GL232716  10.948  -1.138  30.629  0.0811  0.1065  0.0339
 1364BOLB   C1A32717  10.683  -1.589  30.492  0.0077  0.2243 -0.5480
 1364BOLB   C2A32718  10.663  -1.852  30.723 -0.2496 -0.0809  0.0389
 1364BOLB   C3A32719  10.464  -2.183  30.622  0.1657  0.0580  0.2312
 1364BOLB   C4A32720  10.469  -2.612  30.519  0.0364 -0.0264 -0.3251
 1364BOLB   C1B32721  10.814  -1.269  30.947 -0.1090 -0.2781 -0.0736
 1364BOLB   C2B32722  10.507  -1.527  31.045  0.1882  0.2143  0.2559
 1364BOLB   C3B32723  10.287  -1.916  31.206 -0.2289  0.2067 -0.0033
 1364BOLB   C4B32724  10.206  -2.338  31.031 -0.3000  0.3241 -0.1821
 1364BOLB   NC232725   9.332  -5.108  30.675  0.0205  0.1412 -0.0645
 1364BOLB   PO232726   9.658  -4.829  30.879 -0.4191 -0.0903 -0.2963
 1364BOLB   GL332727   9.775  -4.416  30.747  0.1117  0.0074 -0.1993
 1364BOLB   GL432728   9.762  -4.090  31.028 -0.1592  0.0911 -0.0357
 1364BOLB   C1C32729  10.048  -4.134  30.542 -0.2221 -0.0227  0.0010
 1364BOLB   C2C32730  10.047  -3.697  30.484 -0.2254  0.2136 -0.3704
 1364BOLB   C3C32731  10.148  -3.342  30.270  0.0685 -0.1905 -0.1271
 1364BOLB   C4C32732  10.394  -2.987  30.271  0.2117  0.0418 -0.1865
 1364BOLB   C1D32733   9.796  -3.689  30.897 -0.0538  0.0395 -0.3267
 1364BOLB   C2D32734   9.926  -3.280  30.727  0.1279 -0.2756  0.0603
 1364BOLB   C3D32735   9.874  -2.938  30.449  0.0656 -0.3310  0.0164
 1364BOLB   C4D32736   9.944  -2.533  30.611 -0.0880  0.2311  0.0584
 1365BOLB   NC132737  16.320   8.385  18.354 -0.1595  0.0669  0.0825
 1365BOLB   PO132738  16.181   8.466  18.683  0.0180 -0.0567 -0.0789
 1365BOLB   GL132739  16.281   8.897  18.345 -0.0115 -0.0102 -0.1415
 1365BOLB   GL232740  16.381   8.786  18.012  0.1449  0.1518  0.0998
 1365BOLB   C1A32741  16.506   9.287  18.142 -0.0499 -0.0040  0.1389
 1365BOLB   C2A32742  16.521   9.658  17.991 -0.3899  0.0755  0.2516
 1365BOLB   C3A32743  16.427  10.004  17.782 -0.0893 -0.0118 -0.0628
 1365BOLB   C4A32744  16.464  10.462  17.715 -0.1807  0.1274 -0.1666
 1365BOLB   C1B32745  16.771   8.914  18.006 -0.2062 -0.0960 -0.2171
 1365BOLB   C2B32746  17.034   9.284  18.327  0.0416  0.1299 -0.3412
 1365BOLB   C3B32747  17.020   9.669  18.296  0.1307 -0.1488  0.1603
 1365BOLB   C4B32748  17.292  10.047  18.212  0.4982  0.4025 -0.0972
 1365BOLB   NC232749  18.232  12.051  17.050  0.0618 -0.0126  0.1601
 1365BOLB   PO232750  17.842  11.884  16.789  0.2810  0.0374 -0.0876
 1365BOLB   GL332751  17.844  11.744  17.203 -0.0123  0.0478  0.1653
 1365BOLB   GL432752  17.806  11.420  17.218 -0.0047  0.1669  0.0316
 1365BOLB   C1C32753  17.503  11.625  17.541  0.1057 -0.0122 -0.0496
 1365BOLB   C2C32754  17.360  11.379  17.734  0.0087 -0.1890  0.2387
 1365BOLB   C3C32755  16.947  11.076  17.610 -0.2228  0.0595 -0.1718
 1365BOLB   C4C32756  16.576  10.946  17.676  0.2412  0.1452 -0.1473
 1365BOLB   C1D32757  17.613  11.081  17.408  0.0850  0.1594 -0.0150
 1365BOLB   C2D32758  17.754  10.656  17.435 -0.0310  0.2748  0.0152
 1365BOLB   C3D32759  18.089  10.349  17.700 -0.1919 -0.0578  0.3496
 1365BOLB   C4D32760  18.174  10.132  18.083  0.0238 -0.1304 -0.2174
 1366BOLB   NC132761   9.210   2.960  30.630 -0.1132  0.1120 -0.0615
 1366BOLB   PO132762   8.809   2.807  30.645  0.2281 -0.3766 -0.1044
 1366BOLB   GL132763   8.430   2.657  30.629 -0.5154 -0.0934 -0.1247
 1366BOLB   GL232764   8.320   2.983  30.683 -0.2848  0.4267  0.2986
 1366BOLB   C1A32765   8.092   2.478  30.719 -0.2095  0.0353  0.3902
 1366BOLB   C2A32766   7.611   2.411  30.746 -0.0329 -0.0748  0.0053
 1366BOLB   C3A32767   7.215   2.526  30.831 -0.3359 -0.0473 -0.0407
 1366BOLB   C4A32768   6.893   2.740  30.613 -0.1843 -0.3968 -0.1325
 1366BOLB   C1B32769   7.988   2.914  30.958  0.0650  0.2227 -0.0217
 1366BOLB   C2B32770   7.550   2.772  31.216  0.1159 -0.1521 -0.0672
 1366BOLB   C3B32771   7.189   2.596  31.413  0.2693 -0.0571  0.2761
 1366BOLB   C4B32772   6.920   2.650  31.565  0.2037  0.2796 -0.4943
 1366BOLB   NC232773   4.867   1.682  31.743 -0.1295  0.3394  0.5635
 1366BOLB   PO232774   5.169   1.504  31.953 -0.0017  0.0512  0.2047
 1366BOLB   GL332775   5.443   1.828  31.667  0.0901  0.2451 -0.0605
 1366BOLB   GL432776   5.630   2.089  31.801  0.0825  0.0062  0.1018
 1366BOLB   C1C32777   5.625   2.161  31.230 -0.0927  0.0042 -0.0253
 1366BOLB   C2C32778   6.078   2.312  31.174  0.0925 -0.0175 -0.1540
 1366BOLB   C3C32779   6.325   2.420  30.944 -0.0635 -0.1863  0.0766
 1366BOLB   C4C32780   6.563   2.640  30.686 -0.0840  0.2326  0.1890
 1366BOLB   C1D32781   6.091   2.206  31.702 -0.1672  0.0717  0.0757
 1366BOLB   C2D32782   6.392   2.488  32.006  0.0618  0.0754 -0.1347
 1366BOLB   C3D32783   6.879   2.484  32.073 -0.0149 -0.4677  0.0783
 1366BOLB   C4D32784   7.293   2.688  32.054 -0.0737 -0.0681 -0.0357
 1367BOLB   NC132785  24.300   3.506  25.885  0.0081  0.0843  0.2396
 1367BOLB   PO132786  24.688   3.484  25.657 -0.2450  0.3199 -0.2580
 1367BOLB   GL132787  25.161   3.480  25.411  0.4505 -0.2663 -0.2491
 1367BOLB   GL232788  25.213   3.538  25.067  0.2772  0.2506  0.2450
 1367BOLB   C1A32789  25.616   3.546  25.487 -0.0888  0.0691  0.1947
 1367BOLB   C2A32790  26.037   3.419  25.603 -0.1685  0.1161 -0.0244
 1367BOLB   C3A32791  26.411   3.134  25.413 -0.1902  0.0367  0.1390
 1367BOLB   C4A32792  26.716   2.779  25.125 -0.0590  0.0933 -0.0483
 1367BOLB   C1B32793  25.607   3.834  25.096  0.2647  0.0101  0.3956
 1367BOLB   C2B32794  26.066   3.869  25.320 -0.2615  0.3646 -0.1120
 1367BOLB   C3B32795  26.218   4.085  25.616  0.1879  0.0309 -0.2630
 1367BOLB   C4B32796  26.604   4.063  25.756 -0.0078  0.1643  0.0022
 1367BOLB   NC232797  29.370   1.912  24.560  0.1428 -0.1044 -0.0288
 1367BOLB   PO232798  29.052   2.107  24.764 -0.1903 -0.2288 -0.0098
 1367BOLB   GL332799  28.711   2.280  24.713 -0.0802 -0.3017  0.0463
 1367BOLB   GL432800  28.660   2.357  24.431  0.1068 -0.0561  0.1355
 1367BOLB   C1C32801  28.345   2.548  24.853  0.0457 -0.0301 -0.0797
 1367BOLB   C2C32802  27.970   2.810  24.727  0.3120 -0.2012  0.1896
 1367BOLB   C3C32803  27.587   2.744  24.942 -0.1419 -0.1143 -0.0500
 1367BOLB   C4C32804  27.143   2.702  24.919  0.1418 -0.1889 -0.0677
 1367BOLB   C1D32805  28.229   2.077  24.495  0.1264  0.0801 -0.0071
 1367BOLB   C2D32806  27.874   1.855  24.613  0.0195 -0.2037 -0.0276
 1367BOLB   C3D32807  27.434   1.838  24.530 -0.0428  0.1619  0.1689
 1367BOLB   C4D32808  26.901   1.764  24.698  0.1466 -0.0341  0.0971
 1368BOLB   NC132809  19.273  11.077  24.422 -0.0464  0.1527 -0.1456
 1368BOLB   PO132810  19.570  11.441  24.464 -0.3328  0.0535 -0.3312
 1368BOLB   GL132811  19.691  11.806  24.370 -0.0875  0.1940  0.0281
 1368BOLB   GL232812  19.640  11.825  24.053  0.3583  0.0846  0.4149
 1368BOLB   C1A32813  19.955  12.234  24.502 -0.2141  0.2282  0.0933
 1368BOLB   C2A32814  20.166  12.557  24.548 -0.1040 -0.0113  0.0728
 1368BOLB   C3A32815  20.317  12.898  24.773  0.0005  0.2209  0.3630
 1368BOLB   C4A32816  20.155  13.308  24.968  0.2384  0.0487 -0.2426
 1368BOLB   C1B32817  19.569  12.104  23.802  0.2553 -0.2905  0.0809
 1368BOLB   C2B32818  19.382  12.168  23.341 -0.1659 -0.0724  0.0833
 1368BOLB   C3B32819  19.274  12.586  23.222  0.2446  0.2661  0.2133
 1368BOLB   C4B32820  19.206  12.825  22.986  0.2833  0.0064 -0.2464
 1368BOLB   NC232821  21.235  14.731  23.820 -0.0335 -0.1974  0.1003
 1368BOLB   PO232822  20.964  14.974  23.509  0.0735  0.0113  0.0014
 1368BOLB   GL332823  20.648  14.761  23.837  0.1636 -0.0904  0.1860
 1368BOLB   GL432824  20.607  14.507  23.907 -0.0819  0.1032 -0.1730
 1368BOLB   C1C32825  20.307  14.777  24.117 -0.0244 -0.0326 -0.1138
 1368BOLB   C2C32826  20.059  14.484  24.434  0.0546  0.2541 -0.1426
 1368BOLB   C3C32827  20.001  14.027  24.620  0.1841  0.2087 -0.1742
 1368BOLB   C4C32828  19.936  13.601  24.825  0.2176 -0.3726  0.2938
 1368BOLB   C1D32829  20.700  14.182  24.082  0.2579  0.0245 -0.1365
 1368BOLB   C2D32830  20.800  13.703  24.245  0.0572 -0.0356  0.0168
 1368BOLB   C3D32831  20.791  13.298  24.227 -0.0110 -0.0842  0.0313
 1368BOLB   C4D32832  20.805  13.015  23.822  0.1712  0.0702 -0.1017
 1369BOLB   NC132833  23.259   5.738  22.834 -0.1030  0.0339 -0.1429
 1369BOLB   PO132834  23.671   5.837  22.677  0.1738 -0.1336 -0.1578
 1369BOLB   GL132835  23.980   6.165  22.779 -0.1821  0.3918 -0.2719
 1369BOLB   GL232836  24.202   6.108  23.113  0.1473 -0.2701  0.3072
 1369BOLB   C1A32837  24.464   6.228  22.752  0.2409  0.1238  0.2289
 1369BOLB   C2A32838  24.864   6.373  22.701 -0.2753  0.0086 -0.0370
 1369BOLB   C3A32839  25.218   6.483  22.602  0.0357  0.0540 -0.0188
 1369BOLB   C4A32840  25.689   6.347  22.526 -0.1607 -0.0715 -0.0522
 1369BOLB   C1B32841  24.542   6.353  23.182  0.1504  0.0282 -0.1759
 1369BOLB   C2B32842  24.763   6.750  23.095  0.0186  0.0316 -0.0083
 1369BOLB   C3B32843  25.151   6.744  22.989 -0.3124  0.2258  0.0743
 1369BOLB   C4B32844  25.539   6.743  22.925 -0.1709  0.0090  0.1282
 1369BOLB   NC232845  27.717   7.064  22.455 -0.1000 -0.0356  0.2516
 1369BOLB   PO232846  27.913   6.732  22.373 -0.1748 -0.3295  0.0960
 1369BOLB   GL332847  27.632   6.484  22.127  0.2734 -0.4726 -0.1213
 1369BOLB   GL432848  27.466   6.816  22.043 -0.1596  0.0302 -0.0693
 1369BOLB   C1C32849  27.241   6.409  22.148  0.2753  0.0159 -0.1266
 1369BOLB   C2C32850  26.913   6.298  22.218  0.1011  0.2075  0.1723
 1369BOLB   C3C32851  26.507   6.209  22.131  0.3699  0.1557  0.2545
 1369BOLB   C4C32852  26.045   6.232  22.346  0.0822 -0.2242  0.3441
 1369BOLB   C1D32853  27.015   6.859  22.312 -0.3354  0.0817  0.5169
 1369BOLB   C2D32854  26.663   6.642  22.468  0.1689 -0.0351 -0.1850
 1369BOLB   C3D32855  26.527   6.330  22.686 -0.1708  0.1185  0.1328
 1369BOLB   C4D32856  26.430   5.918  22.535 -0.2844 -0.0957 -0.1009
 1370BOLB   NC132857   6.182  11.510  23.660  0.2189 -0.0619  0.1705
 1370BOLB   PO132858   6.093  11.847  23.297  0.2346  0.0652 -0.1149
 1370BOLB   GL132859   6.515  11.747  23.377  0.0094 -0.5144  0.1653
 1370BOLB   GL232860   6.676  11.682  23.102 -0.1682 -0.5126  0.2426
 1370BOLB   C1A32861   6.819  11.768  23.692  0.1532 -0.0949  0.0514
 1370BOLB   C2A32862   7.290  11.560  23.768 -0.2631  0.1089  0.2020
 1370BOLB   C3A32863   7.317  11.162  23.954 -0.1649 -0.0001 -0.0634
 1370BOLB   C4A32864   7.015  10.911  23.820  0.0318  0.0120  0.4667
 1370BOLB   C1B32865   6.941  11.471  23.320 -0.4539  0.3614 -0.3030
 1370BOLB   C2B32866   7.225  11.179  23.375  0.1930  0.3083 -0.0010
 1370BOLB   C3B32867   7.630  10.875  23.628  0.2355  0.1222 -0.1584
 1370BOLB   C4B32868   7.937  10.698  23.469  0.4509  0.1754 -0.4150
 1370BOLB   NC232869   5.231  11.211  22.739  0.0286 -0.0780  0.4258
 1370BOLB   PO232870   4.997  10.752  22.920 -0.0236  0.0502 -0.2746
 1370BOLB   GL332871   5.430  10.749  22.975  0.0462 -0.0540  0.1777
 1370BOLB   GL432872   5.641  10.906  22.713 -0.0581  0.0362  0.1325
 1370BOLB   C1C32873   5.904  10.579  22.979 -0.1156 -0.1750 -0.3568
 1370BOLB   C2C32874   6.068  10.472  23.354 -0.0706 -0.1332  0.1997
 1370BOLB   C3C32875   6.445  10.598  23.487 -0.1057 -0.3497  0.2813
 1370BOLB   C4C32876   6.790  10.617  23.557  0.2253 -0.1761 -0.3084
 1370BOLB   C1D32877   6.141  11.015  22.829 -0.0590  0.0906 -0.2418
 1370BOLB   C2D32878   6.474  11.050  23.080  0.0401  0.1375 -0.1933
 1370BOLB   C3D32879   6.578  11.047  23.400  0.1171 -0.3688  0.1582
 1370BOLB   C4D32880   6.714  11.291  23.769 -0.1303 -0.2022 -0.2861
 1371BOLB   NC132881  16.642   3.339  33.458 -0.0980  0.1188 -0.1134
 1371BOLB   PO132882  16.367   3.100  33.678  0.3096  0.1023  0.0375
 1371BOLB   GL132883  16.558   2.837  33.982 -0.0074  0.2204 -0.0588
 1371BOLB   GL232884  16.636   2.976  34.238 -0.0508 -0.2263  0.1158
 1371BOLB   C1A32885  16.962   2.612  34.160  0.0370  0.1720 -0.2114
 1371BOLB   C2A32886  17.158   2.258  34.271 -0.1584  0.1056 -0.1058
 1371BOLB   C3A32887  17.299   2.097  34.656 -0.0951 -0.1097  0.0707
 1371BOLB   C4A32888  17.427   2.094  35.069 -0.1845  0.0884 -0.3085
 1371BOLB   C1B32889  16.533   3.154  34.711  0.1795 -0.0922  0.2174
 1371BOLB   C2B32890  16.458   3.322  34.993  0.0719  0.0793 -0.1505
 1371BOLB   C3B32891  16.607   3.601  35.299  0.2478  0.2142  0.1710
 1371BOLB   C4B32892  16.985   3.494  35.464 -0.1338  0.2338  0.2680
 1371BOLB   NC232893  17.485   2.257  37.529  0.0562 -0.0388  0.0066
 1371BOLB   PO232894  17.900   2.332  37.305 -0.0645  0.0951  0.1880
 1371BOLB   GL332895  18.071   2.235  36.837 -0.1434 -0.2409  0.2636
 1371BOLB   GL432896  18.249   1.972  36.724 -0.1543 -0.1313  0.1165
 1371BOLB   C1C32897  17.868   2.168  36.429  0.1544 -0.1011  0.1708
 1371BOLB   C2C32898  17.791   2.171  36.062  0.2327  0.1172  0.0151
 1371BOLB   C3C32899  17.533   2.111  35.793  0.1973 -0.1834 -0.3491
 1371BOLB   C4C32900  17.529   2.251  35.382 -0.0435  0.0500  0.0779
 1371BOLB   C1D32901  18.277   2.448  36.419 -0.0493 -0.3807  0.1670
 1371BOLB   C2D32902  18.383   2.724  36.078 -0.0832 -0.0754  0.2381
 1371BOLB   C3D32903  18.517   2.850  35.752 -0.2126 -0.1528  0.0843
 1371BOLB   C4D32904  18.409   2.996  35.329  0.1231  0.0491  0.0052
 1372BOLB   NC132905  25.375   6.404  34.125 -0.1977 -0.0586  0.2683
 1372BOLB   PO132906  25.629   6.617  33.887  0.2808  0.2148  0.1831
 1372BOLB   GL132907  25.183   6.684  33.744 -0.2800 -0.1922 -0.1909
 1372BOLB   GL232908  24.867   6.600  33.880 -0.0917  0.2108  0.1503
 1372BOLB   C1A32909  24.932   6.382  33.398  0.2230 -0.0945  0.0404
 1372BOLB   C2A32910  24.535   6.540  33.355  0.1632 -0.2132  0.0738
 1372BOLB   C3A32911  24.310   6.699  33.660 -0.2102 -0.0672 -0.2075
 1372BOLB   C4A32912  24.093   6.883  33.951  0.1711  0.2665  0.2191
 1372BOLB   C1B32913  24.769   6.906  33.544 -0.1432 -0.1316  0.2974
 1372BOLB   C2B32914  24.694   7.002  33.164  0.0132  0.0720 -0.3384
 1372BOLB   C3B32915  24.620   6.764  32.878  0.0704 -0.2702 -0.0437
 1372BOLB   C4B32916  24.683   6.863  32.390 -0.1770 -0.0794 -0.1229
 1372BOLB   NC232917  23.779   9.122  34.146 -0.0408  0.2090  0.1371
 1372BOLB   PO232918  24.101   9.029  33.862 -0.1035  0.0383  0.1753
 1372BOLB   GL332919  23.927   8.686  33.722  0.2776 -0.2023  0.3661
 1372BOLB   GL432920  24.087   8.479  33.720 -0.2012 -0.1707 -0.2871
 1372BOLB   C1C32921  23.607   8.349  33.795 -0.0647  0.0801  0.0353
 1372BOLB   C2C32922  23.707   7.947  33.941 -0.1455 -0.2485 -0.2847
 1372BOLB   C3C32923  23.974   7.667  34.047 -0.0579 -0.1478  0.1151
 1372BOLB   C4C32924  24.090   7.248  34.128 -0.1385  0.1906 -0.0827
 1372BOLB   C1D32925  23.929   8.125  33.512  0.0002  0.0157  0.1004
 1372BOLB   C2D32926  23.583   7.822  33.465 -0.1564 -0.0250 -0.1533
 1372BOLB   C3D32927  23.433   7.558  33.315 -0.2025  0.2001  0.0469
 1372BOLB   C4D32928  23.184   7.206  33.446  0.1750  0.0557 -0.1368
 1373BOLB   NC132929   8.765   1.465  29.125  0.1460 -0.2203  0.0050
 1373BOLB   PO132930   8.575   1.193  29.433 -0.1667  0.0191  0.0765
 1373BOLB   GL132931   8.163   1.128  29.283  0.2045  0.0058 -0.1647
 1373BOLB   GL232932   8.081   0.990  28.985 -0.4143 -0.3309 -0.0101
 1373BOLB   C1A32933   7.762   1.069  29.606  0.0586  0.0632  0.0094
 1373BOLB   C2A32934   7.491   0.790  29.613  0.0209  0.0331 -0.1425
 1373BOLB   C3A32935   7.093   0.486  29.640 -0.1401 -0.1477  0.1146
 1373BOLB   C4A32936   7.163   0.091  29.679 -0.1101 -0.3156 -0.1025
 1373BOLB   C1B32937   7.668   0.880  29.137  0.3228  0.2890 -0.1235
 1373BOLB   C2B32938   7.243   0.658  29.207 -0.2785  0.0206  0.1223
 1373BOLB   C3B32939   6.890   0.687  29.035 -0.0458  0.3605 -0.1325
 1373BOLB   C4B32940   6.603   0.974  29.053  0.2316 -0.0912  0.2219
 1373BOLB   NC232941   5.261  -1.024  30.785 -0.0425 -0.0731 -0.2588
 1373BOLB   PO232942   5.397  -0.633  30.867  0.0677 -0.1981  0.0183
 1373BOLB   GL332943   5.466  -0.471  30.515 -0.0783 -0.0182 -0.2828
 1373BOLB   GL432944   5.236  -0.263  30.471 -0.0478  0.1820  0.2428
 1373BOLB   C1C32945   5.860  -0.581  30.295 -0.0123  0.1036 -0.1730
 1373BOLB   C2C32946   6.261  -0.317  30.366  0.0137  0.0823 -0.0353
 1373BOLB   C3C32947   6.684  -0.234  30.205 -0.0467  0.0819 -0.0499
 1373BOLB   C4C32948   7.018  -0.234  29.970  0.1522 -0.1645  0.1212
 1373BOLB   C1D32949   5.521  -0.084  30.191  0.0730 -0.0534  0.0940
 1373BOLB   C2D32950   5.976   0.085  30.127 -0.2189 -0.1480 -0.2030
 1373BOLB   C3D32951   6.325   0.036  29.921 -0.0754 -0.2467 -0.1447
 1373BOLB   C4D32952   6.662   0.170  29.682 -0.2892 -0.1912 -0.0493
 1374BOLB   NC132953   8.860   7.352  21.779 -0.3479 -0.4073 -0.0185
 1374BOLB   PO132954   8.543   7.520  21.986 -0.1192  0.1397  0.1571
 1374BOLB   GL132955   8.217   7.700  21.808 -0.0284 -0.2281 -0.0435
 1374BOLB   GL232956   8.006   7.480  21.879  0.2826  0.1390 -0.0914
 1374BOLB   C1A32957   7.983   8.118  21.793 -0.0492  0.1503 -0.2595
 1374BOLB   C2A32958   7.700   8.394  21.778 -0.1939 -0.4702 -0.0470
 1374BOLB   C3A32959   7.738   8.783  21.490  0.0721  0.3619 -0.0623
 1374BOLB   C4A32960   7.740   9.219  21.259  0.2072 -0.0813 -0.0543
 1374BOLB   C1B32961   7.616   7.760  21.711 -0.2540 -0.1246 -0.1514
 1374BOLB   C2B32962   7.341   8.085  21.675 -0.0404 -0.1330 -0.0794
 1374BOLB   C3B32963   7.029   8.352  21.525 -0.1600 -0.0800 -0.1838
 1374BOLB   C4B32964   6.970   8.664  21.237  0.4297 -0.1655 -0.2396
 1374BOLB   NC232965   6.931  11.404  19.669 -0.0924 -0.0675  0.1178
 1374BOLB   PO232966   7.078  11.035  19.522  0.2418  0.1380  0.0026
 1374BOLB   GL332967   7.351  10.720  19.812 -0.1276  0.2188  0.0822
 1374BOLB   GL432968   7.469  10.339  19.614  0.3269 -0.2575  0.2931
 1374BOLB   C1C32969   7.587  10.436  20.091 -0.3260  0.3592 -0.1525
 1374BOLB   C2C32970   7.647   9.964  20.135 -0.0505 -0.1699  0.3083
 1374BOLB   C3C32971   7.772   9.645  20.399  0.0069  0.1877  0.1169
 1374BOLB   C4C32972   7.789   9.422  20.848  0.0841  0.1399  0.1843
 1374BOLB   C1D32973   7.659   9.927  19.527  0.2600  0.1968 -0.0098
 1374BOLB   C2D32974   7.999   9.830  19.549  0.2331  0.0147 -0.2079
 1374BOLB   C3D32975   8.197   9.625  19.946 -0.1277 -0.0629 -0.1204
 1374BOLB   C4D32976   8.498   9.771  20.266  0.3105 -0.0501  0.2677
 1375BOLB   NC132977  22.481   8.350  24.345 -0.0247  0.2576  0.1578
 1375BOLB   PO132978  22.819   8.602  24.450  0.0194 -0.1863 -0.0873
 1375BOLB   GL132979  23.172   8.838  24.217 -0.2643 -0.0682 -0.1530
 1375BOLB   GL232980  23.224   8.769  23.868 -0.1125 -0.1517 -0.0792
 1375BOLB   C1A32981  23.621   8.986  24.202 -0.0169  0.0350 -0.1202
 1375BOLB   C2A32982  23.835   9.429  24.145 -0.2163  0.0687  0.0074
 1375BOLB   C3A32983  23.869   9.707  23.821  0.2209  0.1256 -0.0788
 1375BOLB   C4A32984  24.231   9.710  23.511 -0.1109 -0.4088 -0.0709
 1375BOLB   C1B32985  23.542   8.922  23.673 -0.1718  0.1882  0.1983
 1375BOLB   C2B32986  23.971   8.987  23.718 -0.0668  0.0915  0.0070
 1375BOLB   C3B32987  24.305   9.256  23.723  0.0769 -0.0101 -0.0196
 1375BOLB   C4B32988  24.671   9.519  23.874  0.0407  0.0464  0.3555
 1375BOLB   NC232989  26.904  10.288  22.943  0.1373 -0.1868  0.3909
 1375BOLB   PO232990  26.623  10.547  22.567  0.0678  0.1417  0.1284
 1375BOLB   GL332991  26.236  10.506  22.821 -0.1186  0.1263  0.1528
 1375BOLB   GL432992  26.144  10.768  23.003  0.0349 -0.2829  0.1681
 1375BOLB   C1C32993  25.876  10.262  22.928 -0.1229  0.1298 -0.2634
 1375BOLB   C2C32994  25.497  10.066  23.081 -0.0547 -0.1856  0.2188
 1375BOLB   C3C32995  25.100   9.926  23.221 -0.0086 -0.1182  0.0143
 1375BOLB   C4C32996  24.704   9.852  23.480  0.1377  0.1820 -0.0936
 1375BOLB   C1D32997  25.862  10.775  22.700 -0.0468 -0.0989 -0.0961
 1375BOLB   C2D32998  25.571  10.822  22.378 -0.1188 -0.1201 -0.2523
 1375BOLB   C3D32999  25.178  10.805  22.008 -0.2922 -0.0624 -0.0768
 1375BOLB   C4D33000  24.754  10.706  21.679 -0.0039  0.0512 -0.0220
 1376BOLB   NC133001  21.991   4.308  17.455  0.2059 -0.4062 -0.0364
 1376BOLB   PO133002  21.690   3.983  17.362 -0.2308 -0.3917  0.2797
 1376BOLB   GL133003  21.914   4.137  16.963 -0.0522  0.1826 -0.1540
 1376BOLB   GL233004  22.067   4.421  16.983 -0.3339  0.1494 -0.5005
 1376BOLB   C1A33005  22.245   4.088  16.621 -0.1388  0.1886  0.0830
 1376BOLB   C2A33006  22.542   3.856  16.779 -0.1941  0.1744 -0.2002
 1376BOLB   C3A33007  22.896   3.607  16.920  0.2758 -0.0812 -0.2666
 1376BOLB   C4A33008  23.335   3.570  16.769  0.1621 -0.3157  0.1493
 1376BOLB   C1B33009  22.039   4.546  16.661  0.1371 -0.0908  0.3375
 1376BOLB   C2B33010  22.135   4.371  16.219  0.3166 -0.2240 -0.0100
 1376BOLB   C3B33011  22.316   4.404  15.851  0.1136  0.4081  0.2500
 1376BOLB   C4B33012  22.312   3.985  15.566  0.1187  0.4384  0.1855
 1376BOLB   NC233013  24.482   3.732  14.541 -0.3299  0.1176  0.0917
 1376BOLB   PO233014  24.606   3.996  14.733 -0.1257  0.2792  0.1824
 1376BOLB   GL333015  24.559   3.625  15.026  0.3518 -0.0608 -0.1639
 1376BOLB   GL433016  24.399   3.323  14.889  0.0396  0.0127  0.0199
 1376BOLB   C1C33017  24.338   3.631  15.471 -0.1357  0.2463 -0.1576
 1376BOLB   C2C33018  24.207   3.507  15.982  0.1492  0.0378 -0.1999
 1376BOLB   C3C33019  23.938   3.550  16.270  0.2907  0.3098 -0.2421
 1376BOLB   C4C33020  23.703   3.760  16.634  0.0305  0.1573 -0.0713
 1376BOLB   C1D33021  24.151   3.194  15.299  0.1120 -0.0232  0.2503
 1376BOLB   C2D33022  24.061   3.163  15.691 -0.0994 -0.1894  0.4153
 1376BOLB   C3D33023  23.867   3.137  16.088  0.0787  0.1312  0.0129
 1376BOLB   C4D33024  23.762   3.151  16.547 -0.0851  0.2010 -0.0177
 1377BOLB   NC133025  19.071  10.441  29.333 -0.1788  0.2645 -0.1222
 1377BOLB   PO133026  19.378  10.764  29.182 -0.0938  0.0761  0.3044
 1377BOLB   GL133027  19.469  11.211  29.359  0.1339  0.1169  0.0787
 1377BOLB   GL233028  19.300  11.615  29.180  0.0511  0.3669  0.0775
 1377BOLB   C1A33029  19.604  11.464  29.592 -0.3121 -0.3185  0.4525
 1377BOLB   C2A33030  19.723  11.820  29.709  0.1159 -0.1748  0.0438
 1377BOLB   C3A33031  19.728  12.293  29.702  0.0504  0.2301 -0.5178
 1377BOLB   C4A33032  19.964  12.665  29.692 -0.3166 -0.0247 -0.0640
 1377BOLB   C1B33033  19.567  11.931  29.292 -0.0470  0.0105 -0.3965
 1377BOLB   C2B33034  19.995  12.108  29.261 -0.2184 -0.3667 -0.1381
 1377BOLB   C3B33035  20.073  12.477  29.135 -0.1477  0.0920  0.1692
 1377BOLB   C4B33036  20.387  12.835  28.893 -0.0384 -0.0480  0.2156
 1377BOLB   NC233037  21.441  14.507  30.991 -0.0439 -0.1296  0.1427
 1377BOLB   PO233038  21.046  14.498  30.724  0.0018  0.0689 -0.3076
 1377BOLB   GL333039  20.708  14.330  30.648  0.0087  0.1060  0.3649
 1377BOLB   GL433040  20.786  14.021  30.706  0.1157 -0.2015  0.1189
 1377BOLB   C1C33041  20.320  14.021  30.508 -0.0927 -0.0885  0.1343
 1377BOLB   C2C33042  20.327  13.490  30.548  0.2769 -0.4143  0.2237
 1377BOLB   C3C33043  20.238  13.112  30.297  0.1669 -0.0292  0.0993
 1377BOLB   C4C33044  20.348  12.828  29.927  0.3014  0.1133 -0.1733
 1377BOLB   C1D33045  20.727  13.713  30.404 -0.0542 -0.1078 -0.0995
 1377BOLB   C2D33046  20.611  13.379  30.119  0.1429  0.2368  0.0488
 1377BOLB   C3D33047  20.679  13.225  29.784  0.0844  0.0209 -0.2383
 1377BOLB   C4D33048  20.662  13.131  29.207 -0.2750  0.1768  0.0418
 1378BOLB   NC133049  21.931   6.658  31.488 -0.0617 -0.2194 -0.0814
 1378BOLB   PO133050  21.924   6.203  31.509  0.0012 -0.3524  0.2408
 1378BOLB   GL133051  22.351   6.062  31.553  0.4518 -0.4995 -0.1878
 1378BOLB   GL233052  22.470   5.799  31.793 -0.1107  0.4107 -0.2708
 1378BOLB   C1A33053  22.792   6.227  31.806  0.0400 -0.1169 -0.3570
 1378BOLB   C2A33054  22.834   6.229  32.254 -0.1539 -0.0571  0.3817
 1378BOLB   C3A33055  22.895   6.175  32.656 -0.5937  0.0499 -0.0978
 1378BOLB   C4A33056  23.165   6.348  32.981  0.1431 -0.1467  0.0661
 1378BOLB   C1B33057  22.452   5.809  32.263  0.0671  0.0186  0.1869
 1378BOLB   C2B33058  22.835   5.596  32.531 -0.1076 -0.0164 -0.1224
 1378BOLB   C3B33059  22.925   5.427  32.933  0.0345 -0.1170  0.2624
 1378BOLB   C4B33060  22.890   5.503  33.403 -0.0587  0.1055  0.1058
 1378BOLB   NC233061  24.331   7.807  34.719  0.0892  0.1984  0.3599
 1378BOLB   PO233062  24.553   7.921  34.366 -0.3438 -0.1411  0.0738
 1378BOLB   GL333063  24.440   7.884  33.851 -0.3181 -0.2519  0.0940
 1378BOLB   GL433064  24.444   7.745  33.669  0.3010 -0.0600 -0.1786
 1378BOLB   C1C33065  24.011   7.598  33.582  0.1532  0.4220 -0.0355
 1378BOLB   C2C33066  23.880   7.492  33.161 -0.1993  0.2756  0.1147
 1378BOLB   C3C33067  23.487   7.282  32.886 -0.1246  0.0420 -0.0752
 1378BOLB   C4C33068  23.382   6.848  32.925  0.1351 -0.2188  0.0896
 1378BOLB   C1D33069  24.759   7.714  33.356 -0.0620  0.2291  0.0581
 1378BOLB   C2D33070  24.829   7.844  32.977 -0.0866 -0.4475 -0.1630
 1378BOLB   C3D33071  25.113   7.801  32.598  0.1590  0.0729  0.0247
 1378BOLB   C4D33072  25.398   7.786  32.157  0.0097 -0.1777 -0.2500
 1379BOLB   NC133073  26.130  -1.845  13.156  0.3183 -0.0063  0.3015
 1379BOLB   PO133074  26.350  -2.015  13.531  0.3532  0.2206 -0.1713
 1379BOLB   GL133075  26.138  -2.442  13.658  0.0372  0.2552 -0.0948
 1379BOLB   GL233076  25.981  -2.525  13.444  0.2707 -0.2103  0.0379
 1379BOLB   C1A33077  25.816  -2.528  13.959 -0.1333 -0.1942 -0.1245
 1379BOLB   C2A33078  25.501  -2.303  14.037  0.1040 -0.1302 -0.0439
 1379BOLB   C3A33079  25.092  -2.297  14.301  0.0429  0.1244  0.2657
 1379BOLB   C4A33080  24.821  -1.884  14.276  0.1498  0.3342  0.0839
 1379BOLB   C1B33081  25.746  -2.113  13.627 -0.0185  0.0044 -0.0499
 1379BOLB   C2B33082  25.472  -1.741  13.495  0.0813  0.2383 -0.0481
 1379BOLB   C3B33083  25.016  -1.651  13.499 -0.0290  0.0400  0.3929
 1379BOLB   C4B33084  24.840  -1.311  13.730  0.2517 -0.1708  0.1395
 1379BOLB   NC233085  26.150   0.189  13.657 -0.0218 -0.2813 -0.0715
 1379BOLB   PO233086  26.287  -0.099  13.911  0.3963 -0.1330  0.3798
 1379BOLB   GL333087  25.800  -0.046  13.960 -0.3302  0.0856 -0.0360
 1379BOLB   GL433088  25.685   0.141  13.685  0.0913 -0.2681 -0.0685
 1379BOLB   C1C33089  25.418  -0.271  14.011 -0.1486 -0.0170  0.0350
 1379BOLB   C2C33090  25.337  -0.725  14.158 -0.0207  0.2485  0.0849
 1379BOLB   C3C33091  25.145  -1.124  14.112 -0.0342 -0.0683 -0.1871
 1379BOLB   C4C33092  24.961  -1.475  14.264 -0.1008  0.0126 -0.2648
 1379BOLB   C1D33093  25.464  -0.094  13.410  0.1826  0.0226  0.0999
 1379BOLB   C2D33094  25.104  -0.259  13.535 -0.2199  0.0415 -0.2473
 1379BOLB   C3D33095  24.688  -0.431  13.418  0.1596  0.1054  0.2260
 1379BOLB   C4D33096  24.562  -0.365  13.032  0.2753 -0.3442  0.4229
 1380BOLB   NC133097  18.544  -1.032  30.660 -0.1814 -0.2172  0.0951
 1380BOLB   PO133098  18.303  -0.913  31.019  0.1224 -0.1439  0.1211
 1380BOLB   GL133099  18.383  -0.870  31.408 -0.5021  0.1172 -0.1567
 1380BOLB   GL233100  18.290  -1.067  31.584 -0.0379 -0.1237  0.1941
 1380BOLB   C1A33101  18.651  -1.368  31.626 -0.0225 -0.1095  0.2430
 1380BOLB   C2A33102  18.665  -1.700  31.772 -0.1746 -0.3099 -0.1550
 1380BOLB   C3A33103  18.623  -2.164  31.923  0.0020  0.1176  0.2795
 1380BOLB   C4A33104  18.705  -2.518  32.137  0.2373  0.0500 -0.1792
 1380BOLB   C1B33105  18.157  -1.344  31.919 -0.3807 -0.1464 -0.0028
 1380BOLB   C2B33106  17.978  -1.726  31.919  0.3127  0.3543 -0.0166
 1380BOLB   C3B33107  17.882  -2.068  32.280  0.3903 -0.6104  0.0647
 1380BOLB   C4B33108  18.002  -2.382  32.564  0.0692  0.0035  0.1051
 1380BOLB   NC233109  18.887  -3.385  34.456  0.2396 -0.1306 -0.0004
 1380BOLB   PO233110  19.316  -3.240  34.232  0.3986 -0.0650 -0.0668
 1380BOLB   GL333111  18.949  -3.249  33.904  0.1216 -0.1661 -0.2165
 1380BOLB   GL433112  18.730  -3.005  33.880 -0.1101 -0.0433 -0.0112
 1380BOLB   C1C33113  19.019  -3.266  33.451  0.4293  0.3737  0.0423
 1380BOLB   C2C33114  19.044  -3.229  33.048  0.0959  0.0399 -0.1348
 1380BOLB   C3C33115  18.944  -2.991  32.656  0.1377  0.2296  0.0446
 1380BOLB   C4C33116  18.843  -2.686  32.467 -0.0046 -0.0532 -0.2940
 1380BOLB   C1D33117  18.554  -2.629  33.658 -0.1424  0.3008  0.2066
 1380BOLB   C2D33118  18.456  -2.361  33.423  0.0000  0.0232  0.0631
 1380BOLB   C3D33119  18.300  -2.067  33.065  0.3686  0.2867 -0.0778
 1380BOLB   C4D33120  17.938  -1.910  32.745 -0.0045 -0.2323 -0.2026
 1381BOLB   NC133121  23.869   0.802  22.793  0.1903  0.3909 -0.2695
 1381BOLB   PO133122  24.322   0.895  22.926 -0.0329  0.0339 -0.2154
 1381BOLB   GL133123  24.529   0.492  22.840  0.2343 -0.0710  0.3917
 1381BOLB   GL233124  24.367   0.195  22.768 -0.1080 -0.0294  0.1712
 1381BOLB   C1A33125  24.901   0.395  22.933  0.2775 -0.2164 -0.2102
 1381BOLB   C2A33126  25.359   0.171  23.000  0.0449  0.3160 -0.0844
 1381BOLB   C3A33127  25.706  -0.150  23.121 -0.2082 -0.1197  0.2131
 1381BOLB   C4A33128  26.124  -0.054  23.319 -0.1978  0.4630  0.3083
 1381BOLB   C1B33129  24.788  -0.026  22.708 -0.2798 -0.0670 -0.2323
 1381BOLB   C2B33130  25.188   0.052  22.462 -0.1370 -0.0894  0.3849
 1381BOLB   C3B33131  25.629  -0.234  22.507 -0.1466  0.1721 -0.2232
 1381BOLB   C4B33132  25.870  -0.533  22.866 -0.0564 -0.3229 -0.1189
 1381BOLB   NC233133  28.105  -0.037  23.700  0.0011 -0.2163 -0.0936
 1381BOLB   PO233134  28.238   0.420  23.560  0.1593  0.2425 -0.3172
 1381BOLB   GL333135  27.768   0.313  23.588  0.0201  0.0840 -0.2793
 1381BOLB   GL433136  27.564   0.017  23.627 -0.4468  0.0806  0.2236
 1381BOLB   C1C33137  27.494   0.611  23.415 -0.2916  0.1606 -0.0356
 1381BOLB   C2C33138  27.123   0.601  23.506  0.3798  0.2496 -0.0320
 1381BOLB   C3C33139  26.655   0.501  23.468  0.1011  0.1669  0.2783
 1381BOLB   C4C33140  26.359   0.209  23.324 -0.3720  0.1015  0.0555
 1381BOLB   C1D33141  27.317   0.165  23.361  0.3760 -0.0421  0.0052
 1381BOLB   C2D33142  27.140   0.466  23.033 -0.0600 -0.0998 -0.0949
 1381BOLB   C3D33143  26.825   0.599  22.760  0.5805 -0.1554 -0.0000
 1381BOLB   C4D33144  26.374   0.653  22.955  0.1294 -0.0071  0.0937
 1382BOLB   NC133145  10.582  10.577  24.427  0.0371 -0.1482  0.0091
 1382BOLB   PO133146  10.885  10.946  24.320  0.3113  0.0354 -0.1404
 1382BOLB   GL133147  10.522  11.153  24.164  0.3060  0.2241 -0.1767
 1382BOLB   GL233148  10.361  10.951  24.142 -0.0383  0.2350  0.0525
 1382BOLB   C1A33149  10.210  11.562  24.004  0.0216  0.0724 -0.0680
 1382BOLB   C2A33150   9.970  11.824  23.905 -0.0150  0.1554 -0.0268
 1382BOLB   C3A33151  10.005  12.151  23.515 -0.1643  0.1004 -0.0524
 1382BOLB   C4A33152   9.936  12.198  23.052 -0.1372  0.0555  0.3492
 1382BOLB   C1B33153   9.904  10.752  23.912  0.0079  0.2117 -0.5321
 1382BOLB   C2B33154   9.598  10.541  23.685 -0.3038 -0.0130  0.1685
 1382BOLB   C3B33155   9.384  10.655  23.387 -0.0116 -0.3449 -0.2643
 1382BOLB   C4B33156   9.091  10.753  23.034 -0.0435 -0.0774 -0.2009
 1382BOLB   NC233157   8.313  13.945  22.085 -0.1143 -0.0037  0.0101
 1382BOLB   PO233158   8.225  13.500  22.289  0.0135 -0.0415  0.3735
 1382BOLB   GL333159   8.285  13.074  22.368  0.3584 -0.0034 -0.1151
 1382BOLB   GL433160   8.179  12.794  22.137 -0.1791 -0.1103 -0.1441
 1382BOLB   C1C33161   8.725  12.828  22.489  0.0057 -0.0419  0.1887
 1382BOLB   C2C33162   9.076  12.692  22.316 -0.3482  0.2349 -0.0819
 1382BOLB   C3C33163   9.388  12.289  22.391  0.1425 -0.5157  0.0551
 1382BOLB   C4C33164   9.737  12.135  22.568 -0.2147  0.1876  0.3485
 1382BOLB   C1D33165   8.360  12.457  22.446  0.1325  0.1154  0.0155
 1382BOLB   C2D33166   8.536  12.020  22.524 -0.2002 -0.2346  0.1919
 1382BOLB   C3D33167   8.699  11.626  22.590  0.4314  0.1240 -0.1402
 1382BOLB   C4D33168   8.964  11.431  22.870  0.1533 -0.0564 -0.1891
 1383BOLB   NC133169  18.135  10.940  30.214 -0.1029 -0.1428  0.1107
 1383BOLB   PO133170  18.032  11.293  29.864 -0.0766 -0.1357 -0.2690
 1383BOLB   GL133171  18.126  11.497  30.205  0.0301 -0.0844 -0.1377
 1383BOLB   GL233172  18.491  11.335  30.268 -0.2336 -0.0867 -0.2710
 1383BOLB   C1A33173  18.235  11.597  30.662  0.3195 -0.0219 -0.0416
 1383BOLB   C2A33174  18.392  11.841  31.016  0.1862  0.1180 -0.0599
 1383BOLB   C3A33175  18.342  11.948  31.373  0.0817 -0.2571 -0.0828
 1383BOLB   C4A33176  18.662  12.171  31.596 -0.2612 -0.0183 -0.2647
 1383BOLB   C1B33177  18.649  11.763  30.445  0.2104 -0.1859 -0.0050
 1383BOLB   C2B33178  18.750  12.166  30.661 -0.1174  0.0703 -0.1835
 1383BOLB   C3B33179  18.885  12.581  30.776  0.2253 -0.3067  0.0278
 1383BOLB   C4B33180  19.190  12.842  30.900 -0.0856 -0.1447 -0.1283
 1383BOLB   NC233181  19.807  14.423  32.080 -0.3585 -0.4169 -0.3691
 1383BOLB   PO233182  19.838  14.376  31.637  0.0570  0.0673  0.2864
 1383BOLB   GL333183  19.589  13.984  31.646 -0.2470 -0.0639 -0.0376
 1383BOLB   GL433184  19.214  13.973  31.435  0.1918 -0.0986  0.0580
 1383BOLB   C1C33185  19.491  13.571  31.598  0.1769 -0.3046 -0.2411
 1383BOLB   C2C33186  19.373  13.176  31.532  0.1848 -0.1019  0.1109
 1383BOLB   C3C33187  19.315  12.734  31.633  0.0016  0.2733 -0.0096
 1383BOLB   C4C33188  19.041  12.414  31.729 -0.0431 -0.0159 -0.0882
 1383BOLB   C1D33189  19.089  13.568  31.097 -0.0300  0.5145 -0.3875
 1383BOLB   C2D33190  18.880  13.504  30.613 -0.1780 -0.3962 -0.2932
 1383BOLB   C3D33191  18.984  13.328  30.338  0.2193 -0.0794 -0.1675
 1383BOLB   C4D33192  19.300  13.211  29.902  0.2562 -0.2087 -0.1380
 1384BOLB   NC133193  14.682   2.644  15.957 -0.1584 -0.0679 -0.1713
 1384BOLB   PO133194  14.300   2.414  15.986  0.1457  0.1236  0.1609
 1384BOLB   GL133195  14.012   2.741  15.818 -0.4363 -0.1426  0.0914
 1384BOLB   GL233196  14.327   2.892  15.618  0.3441 -0.2481  0.0401
 1384BOLB   C1A33197  13.897   3.091  15.548 -0.1551  0.0530  0.2186
 1384BOLB   C2A33198  13.728   3.436  15.207  0.1044 -0.3753  0.0738
 1384BOLB   C3A33199  13.748   3.411  14.733  0.2854 -0.2471 -0.1500
 1384BOLB   C4A33200  13.807   3.623  14.463 -0.1722 -0.0931  0.0239
 1384BOLB   C1B33201  14.004   2.654  15.328  0.2284  0.2293  0.0241
 1384BOLB   C2B33202  13.991   2.410  14.943 -0.0367 -0.2125  0.0068
 1384BOLB   C3B33203  14.237   2.025  14.847 -0.1577  0.0958 -0.1658
 1384BOLB   C4B33204  14.647   1.816  14.692  0.0347 -0.2113  0.0814
 1384BOLB   NC233205  13.363   4.697  12.490 -0.1943 -0.0216 -0.1896
 1384BOLB   PO233206  13.546   5.045  12.320 -0.0019 -0.0096 -0.1398
 1384BOLB   GL333207  13.860   4.824  12.653 -0.1559 -0.1990  0.1187
 1384BOLB   GL433208  13.920   4.933  12.943  0.0473 -0.1450 -0.0280
 1384BOLB   C1C33209  13.875   4.410  12.971  0.2345  0.3828 -0.0220
 1384BOLB   C2C33210  13.755   4.204  13.298 -0.0941  0.0439  0.0315
 1384BOLB   C3C33211  13.795   4.072  13.713 -0.0057 -0.0359  0.3589
 1384BOLB   C4C33212  13.806   3.910  14.101  0.5059  0.1890  0.4127
 1384BOLB   C1D33213  14.042   4.765  13.389 -0.1758  0.3180  0.0204
 1384BOLB   C2D33214  13.910   4.690  13.804  0.2939  0.2998 -0.2012
 1384BOLB   C3D33215  13.930   4.636  14.221  0.2714  0.1098 -0.2357
 1384BOLB   C4D33216  13.855   4.672  14.708  0.0079 -0.2374 -0.3397
 1385BOLB   NC133217   8.631   1.311  20.196 -0.0056 -0.1202  0.0358
 1385BOLB   PO133218   8.552   0.863  20.040 -0.1763 -0.2952  0.0985
 1385BOLB   GL133219   8.106   0.809  19.944 -0.2930  0.0623 -0.2320
 1385BOLB   GL233220   7.900   0.477  20.104 -0.1556 -0.2526  0.0261
 1385BOLB   C1A33221   7.635   0.836  19.911 -0.0868  0.0448  0.1421
 1385BOLB   C2A33222   7.356   0.633  20.204 -0.0306  0.2976 -0.0909
 1385BOLB   C3A33223   7.067   0.645  20.533 -0.1198 -0.2733  0.0672
 1385BOLB   C4A33224   6.705   0.283  20.658 -0.0268 -0.3726 -0.1526
 1385BOLB   C1B33225   7.580   0.198  19.982 -0.2696  0.1861  0.0861
 1385BOLB   C2B33226   7.303  -0.063  19.782  0.1616  0.1552  0.3275
 1385BOLB   C3B33227   7.408  -0.412  19.528  0.0022  0.1023 -0.0442
 1385BOLB   C4B33228   7.720  -0.789  19.476  0.3522  0.0768  0.0503
 1385BOLB   NC233229   4.489   0.122  19.760 -0.0507  0.3016  0.0705
 1385BOLB   PO233230   4.809  -0.088  19.622  0.0283  0.1801 -0.1156
 1385BOLB   GL333231   4.988   0.242  19.694 -0.2539  0.0944  0.0365
 1385BOLB   GL433232   5.131   0.318  19.493 -0.1885 -0.0649  0.0673
 1385BOLB   C1C33233   5.216   0.327  20.076  0.0277 -0.0842  0.1651
 1385BOLB   C2C33234   5.462   0.413  20.395 -0.3914  0.2580  0.1300
 1385BOLB   C3C33235   5.826   0.503  20.439 -0.2878 -0.0635  0.0696
 1385BOLB   C4C33236   6.267   0.401  20.567 -0.0786 -0.0164  0.1530
 1385BOLB   C1D33237   5.521   0.394  19.702 -0.0089  0.4054 -0.2267
 1385BOLB   C2D33238   5.810   0.389  19.931 -0.0389 -0.1505 -0.1912
 1385BOLB   C3D33239   6.263   0.576  20.096 -0.3682  0.5232 -0.1911
 1385BOLB   C4D33240   6.456   0.596  19.680 -0.1270  0.1322 -0.3023
 1386BOLB   NC133241   7.716   5.135  28.803  0.2813 -0.0290 -0.0152
 1386BOLB   PO133242   7.911   4.950  29.228 -0.0228  0.0622  0.1735
 1386BOLB   GL133243   7.414   4.955  29.289  0.1938 -0.1032 -0.1460
 1386BOLB   GL233244   7.479   5.360  29.345 -0.3804 -0.0814 -0.0278
 1386BOLB   C1A33245   6.974   4.853  29.406 -0.0797  0.2034  0.5021
 1386BOLB   C2A33246   6.567   4.803  29.573  0.1502  0.1634  0.3176
 1386BOLB   C3A33247   6.261   4.988  29.769 -0.1623  0.0595  0.0556
 1386BOLB   C4A33248   6.220   5.158  30.187  0.0568 -0.0694 -0.0681
 1386BOLB   C1B33249   7.127   5.468  29.488  0.2881 -0.0391  0.2139
 1386BOLB   C2B33250   6.721   5.259  29.635 -0.4319  0.0459 -0.0801
 1386BOLB   C3B33251   6.465   5.574  29.623  0.1957  0.1243 -0.1139
 1386BOLB   C4B33252   6.488   6.091  29.739 -0.2148  0.0197  0.1595
 1386BOLB   NC233253   4.866   5.123  32.065 -0.1755 -0.2820  0.1647
 1386BOLB   PO233254   4.551   5.071  31.760 -0.0344 -0.1624 -0.3098
 1386BOLB   GL333255   4.930   5.134  31.564 -0.1284 -0.2191 -0.1727
 1386BOLB   GL433256   4.854   5.116  31.225  0.1513 -0.0066 -0.1215
 1386BOLB   C1C33257   5.303   5.370  31.665  0.1509  0.1370 -0.1179
 1386BOLB   C2C33258   5.682   5.422  31.459 -0.2072  0.4684  0.0446
 1386BOLB   C3C33259   5.882   5.110  31.038  0.4765 -0.2100  0.2221
 1386BOLB   C4C33260   6.204   5.045  30.656 -0.2327 -0.2356 -0.0505
 1386BOLB   C1D33261   5.106   5.419  31.177  0.1820  0.1803 -0.2323
 1386BOLB   C2D33262   5.495   5.508  31.038 -0.0260 -0.0627  0.1168
 1386BOLB   C3D33263   5.812   5.587  30.718  0.1739 -0.0811 -0.0594
 1386BOLB   C4D33264   6.228   5.542  30.662  0.3571 -0.1116 -0.0094
 1387BOLB   NC133265   7.241   1.627  27.309 -0.0679 -0.1337  0.4184
 1387BOLB   PO133266   7.033   1.999  27.422 -0.1461 -0.1608  0.0512
 1387BOLB   GL133267   6.670   1.786  27.510 -0.1038  0.1275  0.1093
 1387BOLB   GL233268   6.455   2.049  27.481  0.1344 -0.2922  0.0186
 1387BOLB   C1A33269   6.158   1.661  27.653 -0.0467 -0.2484  0.0430
 1387BOLB   C2A33270   6.038   1.496  28.070  0.0847  0.0093 -0.1938
 1387BOLB   C3A33271   5.956   1.132  28.422 -0.3192 -0.0462 -0.2418
 1387BOLB   C4A33272   5.654   0.792  28.484 -0.2188  0.2942  0.0328
 1387BOLB   C1B33273   6.292   2.107  27.903  0.4817 -0.2090 -0.1958
 1387BOLB   C2B33274   6.127   2.004  28.289 -0.0797  0.0377 -0.0992
 1387BOLB   C3B33275   5.847   1.761  28.428  0.3084  0.1700  0.5575
 1387BOLB   C4B33276   5.578   1.426  28.240  0.2289  0.1258 -0.1764
 1387BOLB   NC233277   3.931   0.070  29.158 -0.0265  0.1935 -0.0593
 1387BOLB   PO233278   3.885  -0.366  28.949 -0.0329 -0.0690 -0.0001
 1387BOLB   GL333279   4.287  -0.273  29.013 -0.0714 -0.1068 -0.0384
 1387BOLB   GL433280   4.470   0.018  29.086  0.0026 -0.0260  0.3166
 1387BOLB   C1C33281   4.658  -0.381  28.817 -0.2399 -0.2723 -0.0265
 1387BOLB   C2C33282   5.037  -0.224  28.749 -0.0836 -0.1390  0.5126
 1387BOLB   C3C33283   5.373   0.118  28.716 -0.2109  0.0435  0.0289
 1387BOLB   C4C33284   5.728   0.376  28.607 -0.1144  0.1309 -0.0333
 1387BOLB   C1D33285   4.665   0.089  28.680  0.1399 -0.1209 -0.1562
 1387BOLB   C2D33286   5.016   0.128  28.304  0.2663  0.2640  0.1424
 1387BOLB   C3D33287   4.916   0.345  27.996  0.0799 -0.0315 -0.0185
 1387BOLB   C4D33288   5.224   0.480  27.764  0.2288 -0.0296 -0.0179
 1388BOLB   NC133289  12.508   1.339  32.077 -0.2223 -0.1764 -0.0170
 1388BOLB   PO133290  12.083   1.197  32.268  0.2755  0.1594 -0.1004
 1388BOLB   GL133291  11.851   0.904  32.545 -0.5040  0.0265 -0.1297
 1388BOLB   GL233292  11.604   0.867  32.489 -0.1112 -0.2364 -0.3188
 1388BOLB   C1A33293  11.772   0.671  33.023  0.0656 -0.0109 -0.1124
 1388BOLB   C2A33294  11.904   0.381  33.297  0.1238  0.0383  0.1092
 1388BOLB   C3A33295  12.096  -0.030  33.484 -0.1854  0.0496 -0.1594
 1388BOLB   C4A33296  12.027  -0.331  33.683 -0.1411 -0.1718  0.0264
 1388BOLB   C1B33297  11.316   0.904  32.875  0.0735  0.3650  0.1703
 1388BOLB   C2B33298  11.452   0.788  33.355 -0.0607 -0.1441  0.1276
 1388BOLB   C3B33299  11.270   0.462  33.657  0.2734 -0.0880  0.0641
 1388BOLB   C4B33300  11.315  -0.011  33.752 -0.0931  0.1101  0.0487
 1388BOLB   NC233301  11.121  -1.727  35.322  0.1595  0.2986 -0.2494
 1388BOLB   PO233302  10.874  -1.231  35.391  0.0450 -0.1455  0.2405
 1388BOLB   GL333303  10.766  -1.109  34.943  0.0004  0.2713 -0.2454
 1388BOLB   GL433304  10.455  -1.161  34.825  0.0100  0.0384  0.1133
 1388BOLB   C1C33305  10.967  -1.069  34.513  0.1349 -0.2441  0.1748
 1388BOLB   C2C33306  11.051  -0.973  34.076  0.2533 -0.1269 -0.0516
 1388BOLB   C3C33307  11.292  -0.600  33.900  0.1139  0.1230 -0.1106
 1388BOLB   C4C33308  11.739  -0.496  33.924 -0.0549  0.3410 -0.3553
 1388BOLB   C1D33309  10.147  -1.287  34.430 -0.4287  0.5378  0.2980
 1388BOLB   C2D33310   9.858  -1.346  34.078 -0.1492 -0.2258  0.0823
 1388BOLB   C3D33311   9.779  -1.065  33.717 -0.1785 -0.3551  0.0013
 1388BOLB   C4D33312   9.956  -0.628  33.390  0.0881  0.2535  0.0347
 1389BOLB   NC133313  22.097   7.225  14.296  0.3772 -0.1383  0.3217
 1389BOLB   PO133314  22.502   7.265  14.544  0.0154 -0.1890 -0.4796
 1389BOLB   GL133315  22.385   7.025  14.786 -0.1809 -0.2741 -0.0600
 1389BOLB   GL233316  22.530   6.843  14.732  0.0731 -0.3347 -0.1720
 1389BOLB   C1A33317  21.962   6.994  14.858  0.1022 -0.0200  0.2999
 1389BOLB   C2A33318  21.727   6.755  14.905 -0.2016 -0.1287  0.0935
 1389BOLB   C3A33319  21.374   6.656  15.130 -0.0877 -0.1426  0.1822
 1389BOLB   C4A33320  21.165   6.339  15.335  0.0265 -0.2612  0.1899
 1389BOLB   C1B33321  22.301   6.494  14.955 -0.2169  0.0007  0.1000
 1389BOLB   C2B33322  22.213   6.043  14.998  0.0072  0.0536 -0.0419
 1389BOLB   C3B33323  22.045   5.619  15.334 -0.1778  0.2132 -0.1619
 1389BOLB   C4B33324  21.807   5.295  15.522 -0.0292  0.1536 -0.2309
 1389BOLB   NC233325  20.568   7.261  13.523 -0.2908  0.3337 -0.2429
 1389BOLB   PO233326  20.876   7.470  13.848  0.2818 -0.0922  0.2797
 1389BOLB   GL333327  20.854   7.283  14.178 -0.1043  0.4300 -0.0320
 1389BOLB   GL433328  21.143   7.350  14.364 -0.4912 -0.1946  0.0492
 1389BOLB   C1C33329  20.856   6.961  14.516  0.0767 -0.2641 -0.0694
 1389BOLB   C2C33330  20.657   6.678  14.673  0.2475  0.2134 -0.0159
 1389BOLB   C3C33331  20.556   6.302  14.929  0.0149  0.0896  0.2528
 1389BOLB   C4C33332  20.741   6.212  15.134  0.1049  0.0197  0.0394
 1389BOLB   C1D33333  21.123   7.669  14.700  0.0668  0.0889 -0.0514
 1389BOLB   C2D33334  21.025   7.745  15.116 -0.1234 -0.1348  0.2050
 1389BOLB   C3D33335  20.652   7.908  15.341 -0.0211 -0.1721 -0.0075
 1389BOLB   C4D33336  20.519   7.784  15.692 -0.0881 -0.2692 -0.2171
 1390BOLB   NC133337  16.012   5.858  33.785  0.0020 -0.0986  0.0581
 1390BOLB   PO133338  15.996   5.443  33.932  0.1346 -0.1274  0.0480
 1390BOLB   GL133339  16.149   5.365  34.275  0.2962  0.0369 -0.3863
 1390BOLB   GL233340  15.993   5.696  34.416  0.1777  0.0917 -0.1789
 1390BOLB   C1A33341  16.293   5.134  34.704  0.2505  0.0297 -0.0447
 1390BOLB   C2A33342  16.452   5.020  35.046 -0.0378 -0.0156 -0.1145
 1390BOLB   C3A33343  16.479   4.743  35.348 -0.3918 -0.1845  0.1127
 1390BOLB   C4A33344  16.670   4.608  35.763 -0.1561  0.1089  0.0956
 1390BOLB   C1B33345  16.042   5.515  34.757 -0.1061 -0.1731  0.0343
 1390BOLB   C2B33346  16.020   5.790  35.097 -0.3407  0.2176  0.4341
 1390BOLB   C3B33347  15.781   5.741  35.421  0.0526  0.0377 -0.1049
 1390BOLB   C4B33348  15.466   5.560  35.615 -0.0295 -0.0874  0.2529
 1390BOLB   NC233349  16.204   3.774  37.969  0.1071  0.1051  0.2495
 1390BOLB   PO233350  16.553   4.069  37.990  0.2823 -0.4128  0.5857
 1390BOLB   GL333351  16.751   4.045  37.579  0.0356  0.0136 -0.0770
 1390BOLB   GL433352  16.682   3.658  37.549 -0.0912 -0.3382 -0.2171
 1390BOLB   C1C33353  16.736   4.140  37.152  0.0368 -0.1707  0.2055
 1390BOLB   C2C33354  16.912   4.394  36.744  0.1626 -0.1421  0.0113
 1390BOLB   C3C33355  16.973   4.809  36.432  0.2571 -0.2588 -0.0174
 1390BOLB   C4C33356  16.767   4.820  36.218 -0.3044  0.0383  0.0322
 1390BOLB   C1D33357  16.912   3.474  37.068  0.2169  0.1665 -0.2019
 1390BOLB   C2D33358  16.736   3.481  36.714 -0.0082  0.1261  0.3120
 1390BOLB   C3D33359  16.235   3.453  36.660 -0.0729 -0.1213  0.0604
 1390BOLB   C4D33360  15.946   3.338  36.430 -0.2306 -0.4345 -0.0607
 1391BOLB   NC133361  15.680  -0.835  31.245  0.1528 -0.3243 -0.6408
 1391BOLB   PO133362  15.341  -0.983  31.544  0.3078  0.1030 -0.2097
 1391BOLB   GL133363  15.141  -1.379  31.682 -0.2868  0.4461 -0.2387
 1391BOLB   GL233364  14.737  -1.410  31.747  0.0504 -0.1086  0.0652
 1391BOLB   C1A33365  15.259  -1.719  31.869  0.4516 -0.0296  0.0088
 1391BOLB   C2A33366  15.133  -1.982  32.120  0.1149 -0.1043 -0.1037
 1391BOLB   C3A33367  15.083  -2.405  32.355  0.0549  0.1164 -0.2936
 1391BOLB   C4A33368  15.203  -2.467  32.843  0.0232 -0.1651 -0.1784
 1391BOLB   C1B33369  14.645  -1.731  32.046 -0.1449 -0.2423 -0.2841
 1391BOLB   C2B33370  14.646  -2.079  32.327  0.0831 -0.0437  0.0501
 1391BOLB   C3B33371  14.401  -2.167  32.629  0.1711 -0.2687 -0.2758
 1391BOLB   C4B33372  14.029  -2.107  32.686  0.1243 -0.3113  0.1138
 1391BOLB   NC233373  16.167  -3.406  34.509  0.0232 -0.1615 -0.0039
 1391BOLB   PO233374  16.042  -3.303  34.857  0.0448  0.3117  0.0838
 1391BOLB   GL333375  16.138  -2.916  34.604  0.0921  0.3082  0.2147
 1391BOLB   GL433376  16.052  -2.596  34.741  0.1223  0.1865  0.0800
 1391BOLB   C1C33377  16.006  -2.581  34.195  0.0755 -0.2820 -0.0288
 1391BOLB   C2C33378  15.876  -2.439  33.730 -0.0913  0.0711 -0.2999
 1391BOLB   C3C33379  15.803  -2.367  33.395  0.3867  0.0507  0.0597
 1391BOLB   C4C33380  15.468  -2.495  33.093 -0.0507  0.0770  0.1226
 1391BOLB   C1D33381  15.589  -2.319  34.693 -0.0799  0.0016  0.2097
 1391BOLB   C2D33382  15.604  -2.005  34.391  0.1835  0.1409 -0.0599
 1391BOLB   C3D33383  15.483  -1.619  34.184  0.2604  0.2365 -0.0425
 1391BOLB   C4D33384  15.317  -1.136  34.179  0.3031  0.0624  0.0683
 1392BOLB   NC133385  23.784   7.742  26.415  0.0574 -0.3913 -0.1338
 1392BOLB   PO133386  23.950   7.495  26.675  0.0986  0.0267  0.3908
 1392BOLB   GL133387  24.247   7.809  26.585 -0.3347  0.1803 -0.3650
 1392BOLB   GL233388  24.548   7.817  26.300 -0.1833 -0.2671 -0.2490
 1392BOLB   C1A33389  24.536   8.088  26.684 -0.1870  0.0172  0.3365
 1392BOLB   C2A33390  24.875   8.394  26.798 -0.2574  0.2063 -0.1064
 1392BOLB   C3A33391  25.122   8.723  26.912 -0.6865 -0.2326 -0.0080
 1392BOLB   C4A33392  25.359   8.935  27.244 -0.0563  0.1605 -0.3851
 1392BOLB   C1B33393  24.965   8.038  26.401  0.0929  0.0519  0.1884
 1392BOLB   C2B33394  25.342   8.316  26.471 -0.0883  0.3682  0.0582
 1392BOLB   C3B33395  25.667   8.628  26.376 -0.0714  0.3157 -0.1595
 1392BOLB   C4B33396  26.009   8.898  26.584 -0.2370  0.1716  0.1390
 1392BOLB   NC233397  27.009  10.560  27.664  0.2258  0.0547 -0.0834
 1392BOLB   PO233398  26.979  10.162  27.989  0.3672 -0.1212 -0.3421
 1392BOLB   GL333399  26.632  10.172  27.739  0.0667  0.3549 -0.2583
 1392BOLB   GL433400  26.437  10.398  27.694  0.2769 -0.0100  0.1039
 1392BOLB   C1C33401  26.329   9.861  27.792  0.4713  0.2393  0.1046
 1392BOLB   C2C33402  25.930   9.684  27.844  0.1929 -0.0242  0.0216
 1392BOLB   C3C33403  25.594   9.437  27.903 -0.2941  0.1236 -0.1703
 1392BOLB   C4C33404  25.558   9.124  27.594  0.0620  0.0225 -0.1921
 1392BOLB   C1D33405  25.964  10.232  27.765 -0.2205 -0.1010  0.1811
 1392BOLB   C2D33406  25.468  10.011  27.642 -0.0235  0.1265 -0.0042
 1392BOLB   C3D33407  25.205   9.649  27.815 -0.2179  0.0701  0.0972
 1392BOLB   C4D33408  25.038   9.191  27.611  0.0506  0.0466 -0.1938
 1393BOLB   NC133409  19.048  11.205  28.998  0.5137 -0.1671  0.3267
 1393BOLB   PO133410  19.322  11.347  28.732 -0.2988  0.1015 -0.1407
 1393BOLB   GL133411  19.718  11.534  28.962  0.3107  0.2516  0.5006
 1393BOLB   GL233412  19.744  11.793  28.825  0.0385  0.1243 -0.0722
 1393BOLB   C1A33413  20.036  11.630  29.330 -0.3379 -0.1427  0.0497
 1393BOLB   C2A33414  20.257  11.797  29.645 -0.0041  0.1502  0.0484
 1393BOLB   C3A33415  20.303  12.241  29.740 -0.0667  0.2024  0.0211
 1393BOLB   C4A33416  20.553  12.480  29.399  0.1056  0.1317 -0.0362
 1393BOLB   C1B33417  19.771  12.201  28.654 -0.0634  0.0477  0.1118
 1393BOLB   C2B33418  19.621  12.597  28.837  0.1570 -0.0451 -0.0578
 1393BOLB   C3B33419  19.789  12.915  29.185  0.0645  0.5029 -0.0427
 1393BOLB   C4B33420  20.158  12.967  29.399  0.0314 -0.2850  0.3777
 1393BOLB   NC233421  21.964  14.540  28.680 -0.3587 -0.0250 -0.1473
 1393BOLB   PO233422  21.710  14.282  28.914  0.3274 -0.1589 -0.2296
 1393BOLB   GL333423  21.456  14.006  28.900  0.1949  0.0401  0.0665
 1393BOLB   GL433424  21.304  13.986  28.562  0.1807 -0.0454  0.0485
 1393BOLB   C1C33425  21.167  13.773  28.962  0.5475 -0.1296 -0.0846
 1393BOLB   C2C33426  21.052  13.360  28.975 -0.2599  0.0736 -0.1004
 1393BOLB   C3C33427  21.099  12.992  28.893  0.0992  0.2358  0.1640
 1393BOLB   C4C33428  20.803  12.654  29.133 -0.0460 -0.1508  0.3458
 1393BOLB   C1D33429  21.235  13.550  28.426 -0.0464 -0.3518  0.0951
 1393BOLB   C2D33430  21.245  13.144  28.417 -0.2278 -0.0725  0.1412
 1393BOLB   C3D33431  21.073  12.757  28.344 -0.0318  0.1622 -0.1714
 1393BOLB   C4D33432  20.821  12.565  28.642  0.0823 -0.0051 -0.0929
 1394BOLB   NC133433  21.831  14.564  22.676 -0.1499  0.2463 -0.0410
 1394BOLB   PO133434  21.821  14.334  22.251 -0.0299  0.0274  0.5086
 1394BOLB   GL133435  21.380  14.252  22.440 -0.3274 -0.0876  0.2576
 1394BOLB   GL233436  21.485  14.150  22.850 -0.1475  0.1757  0.3023
 1394BOLB   C1A33437  20.883  14.131  22.517 -0.2774 -0.0357 -0.4844
 1394BOLB   C2A33438  20.820  13.639  22.498  0.1728  0.1612 -0.3468
 1394BOLB   C3A33439  20.982  13.198  22.462  0.0138 -0.0258  0.1603
 1394BOLB   C4A33440  20.763  12.914  22.181  0.2658  0.1141 -0.0092
 1394BOLB   C1B33441  21.162  13.916  22.865 -0.0282 -0.3078 -0.1156
 1394BOLB   C2B33442  20.913  13.679  23.001 -0.0136  0.2358  0.2486
 1394BOLB   C3B33443  20.554  13.370  22.873 -0.0267 -0.2427 -0.0936
 1394BOLB   C4B33444  20.146  13.174  22.815 -0.0468  0.0535  0.0039
 1394BOLB   NC233445  20.363  14.575  20.960  0.0106  0.1583 -0.0948
 1394BOLB   PO233446  20.186  14.515  20.632 -0.0404  0.0639  0.1565
 1394BOLB   GL333447  19.950  14.132  20.689 -0.1363  0.0522 -0.1329
 1394BOLB   GL433448  20.112  13.980  20.399  0.0455  0.2643  0.0159
 1394BOLB   C1C33449  19.985  13.847  21.013 -0.2096  0.6873 -0.3272
 1394BOLB   C2C33450  20.221  13.657  21.316  0.0647  0.1525  0.0664
 1394BOLB   C3C33451  20.350  13.473  21.633 -0.0277  0.2428  0.0713
 1394BOLB   C4C33452  20.541  13.044  21.714 -0.0602  0.0599 -0.0764
 1394BOLB   C1D33453  20.117  13.556  20.597  0.3279 -0.0538 -0.2100
 1394BOLB   C2D33454  20.171  13.320  20.960  0.0863 -0.1993 -0.1222
 1394BOLB   C3D33455  19.802  13.234  21.079 -0.1079  0.1800 -0.0893
 1394BOLB   C4D33456  19.546  12.975  21.332  0.0270  0.0132  0.2206
 1395BOLB   NC133457   7.077   2.259  26.042  0.1329  0.3476 -0.1767
 1395BOLB   PO133458   6.896   2.008  25.707  0.1647  0.0594  0.0856
 1395BOLB   GL133459   6.564   1.977  25.782 -0.2074 -0.4164  0.1581
 1395BOLB   GL233460   6.317   1.834  25.546  0.0878  0.0613  0.0855
 1395BOLB   C1A33461   6.260   1.768  26.004  0.0998 -0.1584  0.0332
 1395BOLB   C2A33462   5.839   1.664  26.168  0.1206  0.0540  0.2559
 1395BOLB   C3A33463   5.467   1.805  26.147 -0.0121  0.3185  0.0797
 1395BOLB   C4A33464   5.057   1.952  26.119 -0.0743 -0.1374 -0.3002
 1395BOLB   C1B33465   5.996   1.505  25.591  0.0229 -0.2659 -0.2776
 1395BOLB   C2B33466   5.643   1.268  25.804 -0.2167  0.0736  0.0909
 1395BOLB   C3B33467   5.225   1.278  26.027 -0.1577  0.1426 -0.1559
 1395BOLB   C4B33468   4.774   1.200  26.190  0.0253 -0.3678  0.0905
 1395BOLB   NC233469   2.589   1.779  25.859 -0.0662 -0.2411 -0.1789
 1395BOLB   PO233470   2.868   1.477  25.932  0.1113 -0.1056 -0.2604
 1395BOLB   GL333471   3.121   1.748  26.047  0.1457 -0.0699 -0.3093
 1395BOLB   GL433472   3.315   1.508  26.153 -0.1881  0.2254  0.0191
 1395BOLB   C1C33473   3.346   2.060  25.963  0.0144  0.1339  0.0068
 1395BOLB   C2C33474   3.866   2.065  26.126  0.0374 -0.1200  0.3007
 1395BOLB   C3C33475   4.215   1.991  25.831 -0.1590  0.1150 -0.1150
 1395BOLB   C4C33476   4.672   1.859  25.821 -0.0415 -0.1758 -0.0303
 1395BOLB   C1D33477   3.638   1.334  25.944  0.4056  0.2033  0.2141
 1395BOLB   C2D33478   3.933   1.100  25.809 -0.2189 -0.0968 -0.2344
 1395BOLB   C3D33479   4.334   1.186  25.765 -0.4108 -0.1403  0.0221
 1395BOLB   C4D33480   4.611   0.854  25.809 -0.0127  0.4265  0.0819
 1396BOLB   NC133481  15.203  12.092  24.304  0.1346 -0.0833 -0.0661
 1396BOLB   PO133482  15.552  12.383  24.326 -0.3320 -0.3597  0.1438
 1396BOLB   GL133483  15.531  12.761  24.333 -0.2158 -0.3641  0.1129
 1396BOLB   GL233484  15.795  12.843  24.243  0.1680  0.2619 -0.2666
 1396BOLB   C1A33485  15.471  13.262  24.464  0.0665  0.1912 -0.0040
 1396BOLB   C2A33486  15.163  13.618  24.367 -0.3163  0.2067  0.0262
 1396BOLB   C3A33487  15.298  14.018  24.332 -0.0956 -0.2147  0.1210
 1396BOLB   C4A33488  15.678  14.146  24.608  0.0957  0.2410 -0.0204
 1396BOLB   C1B33489  15.542  12.971  23.844  0.1606 -0.3466  0.1745
 1396BOLB   C2B33490  15.449  13.168  23.504 -0.0186  0.0233  0.1686
 1396BOLB   C3B33491  15.418  13.512  23.279 -0.0524  0.1391  0.2546
 1396BOLB   C4B33492  15.647  13.912  23.096  0.3790 -0.1652  0.1768
 1396BOLB   NC233493  15.687  16.244  23.686  0.0985 -0.0690 -0.0723
 1396BOLB   PO233494  16.116  16.095  23.570  0.2085 -0.0685 -0.0673
 1396BOLB   GL333495  16.233  15.745  23.728  0.0873  0.1721 -0.2300
 1396BOLB   GL433496  16.489  15.747  23.574 -0.1155 -0.1933 -0.6257
 1396BOLB   C1C33497  15.970  15.565  24.126  0.0958  0.1430 -0.3998
 1396BOLB   C2C33498  15.970  15.217  24.433  0.1669  0.2565 -0.2266
 1396BOLB   C3C33499  15.888  14.818  24.478  0.0494  0.1954  0.5662
 1396BOLB   C4C33500  15.825  14.503  24.786 -0.1109 -0.2831 -0.1643
 1396BOLB   C1D33501  16.390  15.301  23.484 -0.2576  0.0996 -0.2212
 1396BOLB   C2D33502  16.056  14.946  23.600 -0.4305 -0.0329  0.1929
 1396BOLB   C3D33503  15.917  14.514  23.640 -0.0119  0.0669  0.1433
 1396BOLB   C4D33504  15.719  14.109  23.766 -0.0414  0.2934  0.1360
 1397BOLB   NC133505  22.274   0.696  28.931 -0.1658 -0.2243 -0.2573
 1397BOLB   PO133506  22.427   0.324  28.728  0.1426  0.2908  0.0020
 1397BOLB   GL133507  22.840   0.132  28.990  0.0212  0.3051 -0.0936
 1397BOLB   GL233508  22.887  -0.200  29.150 -0.0786  0.4439  0.2851
 1397BOLB   C1A33509  23.277   0.060  29.269  0.1914 -0.1893 -0.1179
 1397BOLB   C2A33510  23.613  -0.264  29.391  0.6397  0.1504 -0.0423
 1397BOLB   C3A33511  23.723  -0.776  29.510  0.0096 -0.1213 -0.0444
 1397BOLB   C4A33512  23.905  -1.242  29.472 -0.2632  0.1225  0.1328
 1397BOLB   C1B33513  23.036  -0.526  29.219  0.3852  0.2072  0.1307
 1397BOLB   C2B33514  23.290  -0.846  29.393 -0.1219  0.1022 -0.0572
 1397BOLB   C3B33515  23.437  -1.262  29.305  0.2709 -0.1428  0.1947
 1397BOLB   C4B33516  23.558  -1.632  29.118  0.0897  0.2305  0.3827
 1397BOLB   NC233517  26.198  -3.051  29.756  0.0315  0.3243  0.0066
 1397BOLB   PO233518  26.067  -2.579  29.736 -0.0642 -0.1389  0.0070
 1397BOLB   GL333519  25.729  -2.171  29.701  0.2001  0.1156 -0.1233
 1397BOLB   GL433520  25.600  -2.433  29.495 -0.2109 -0.0781  0.0010
 1397BOLB   C1C33521  25.443  -1.889  29.709  0.1588 -0.1944  0.2266
 1397BOLB   C2C33522  25.078  -1.668  29.758  0.5605 -0.0393 -0.0860
 1397BOLB   C3C33523  24.587  -1.649  29.793  0.2501  0.1131  0.1135
 1397BOLB   C4C33524  24.219  -1.555  29.569 -0.0755 -0.3355 -0.1233
 1397BOLB   C1D33525  25.261  -2.290  29.420  0.0270 -0.0420 -0.0897
 1397BOLB   C2D33526  24.936  -2.006  29.382 -0.1351  0.2343  0.0063
 1397BOLB   C3D33527  24.641  -1.742  29.237 -0.1059 -0.0086  0.1294
 1397BOLB   C4D33528  24.381  -1.223  29.239 -0.2584  0.3331  0.0908
 1398BOLB   NC133529  22.845   0.322  28.122  0.3459  0.1379  0.0140
 1398BOLB   PO133530  22.964   0.361  28.554  0.1340 -0.0332  0.0572
 1398BOLB   GL133531  23.315   0.079  28.733  0.1668 -0.1806  0.3211
 1398BOLB   GL233532  23.227  -0.236  28.780  0.0563  0.0508 -0.2053
 1398BOLB   C1A33533  23.802  -0.008  28.792  0.3170  0.3639  0.1225
 1398BOLB   C2A33534  24.014  -0.181  29.090 -0.2438 -0.2774  0.0527
 1398BOLB   C3A33535  24.167  -0.564  29.385  0.2639  0.1413  0.2059
 1398BOLB   C4A33536  24.141  -0.899  29.711 -0.1772  0.1196 -0.2900
 1398BOLB   C1B33537  23.570  -0.527  28.880 -0.1196 -0.1376 -0.1510
 1398BOLB   C2B33538  23.938  -0.737  28.970  0.1313 -0.1456 -0.0670
 1398BOLB   C3B33539  24.314  -0.821  28.785  0.1793  0.0115  0.2941
 1398BOLB   C4B33540  24.802  -0.947  28.525  0.2173  0.0194 -0.0527
 1398BOLB   NC233541  25.680  -2.572  30.005  0.3462  0.0515  0.0084
 1398BOLB   PO233542  25.453  -2.824  30.281 -0.1827  0.2699 -0.1936
 1398BOLB   GL333543  25.253  -2.419  30.221 -0.1384  0.1033 -0.1872
 1398BOLB   GL433544  25.132  -2.291  29.942  0.0623 -0.4699 -0.1513
 1398BOLB   C1C33545  25.047  -1.866  30.264  0.1879 -0.2738  0.1225
 1398BOLB   C2C33546  24.722  -1.598  30.308 -0.3338 -0.1551 -0.0656
 1398BOLB   C3C33547  24.475  -1.289  30.165  0.0755  0.3976  0.0722
 1398BOLB   C4C33548  24.217  -1.107  29.927 -0.2446  0.2635  0.1088
 1398BOLB   C1D33549  24.754  -2.159  29.813 -0.1507  0.1331  0.3672
 1398BOLB   C2D33550  24.321  -2.055  29.703  0.3168 -0.0533  0.1817
 1398BOLB   C3D33551  24.153  -2.113  29.345 -0.1540 -0.1086 -0.1630
 1398BOLB   C4D33552  23.726  -2.207  29.107 -0.1966 -0.0139  0.0149
 1399BOLB   NC133553  11.745  -3.164  21.433  0.2069  0.2331  0.0069
 1399BOLB   PO133554  11.940  -3.542  21.245 -0.0932 -0.0208  0.0270
 1399BOLB   GL133555  11.827  -3.907  21.027 -0.0569  0.0429  0.2032
 1399BOLB   GL233556  11.797  -4.040  21.365 -0.1525  0.0576 -0.4355
 1399BOLB   C1A33557  11.630  -4.316  20.924  0.1036 -0.1035 -0.5408
 1399BOLB   C2A33558  11.661  -4.658  20.803  0.0620 -0.3787  0.3575
 1399BOLB   C3A33559  11.572  -4.805  20.324 -0.0004 -0.0342 -0.0154
 1399BOLB   C4A33560  11.392  -4.759  19.912 -0.0456  0.2235 -0.1050
 1399BOLB   C1B33561  12.046  -4.414  21.193 -0.1721 -0.1729  0.1463
 1399BOLB   C2B33562  12.160  -4.713  20.900  0.0291  0.0318 -0.2075
 1399BOLB   C3B33563  12.122  -5.108  20.665 -0.0886  0.0291 -0.1735
 1399BOLB   C4B33564  11.973  -5.349  20.555 -0.1143 -0.0831  0.2679
 1399BOLB   NC233565   9.832  -6.737  19.444 -0.2026 -0.0556 -0.1628
 1399BOLB   PO233566  10.064  -6.683  19.144 -0.1288 -0.0561  0.0213
 1399BOLB   GL333567  10.360  -6.510  19.270  0.1493 -0.1957 -0.2242
 1399BOLB   GL433568  10.574  -6.730  19.305 -0.3228 -0.1844 -0.1288
 1399BOLB   C1C33569  10.509  -6.048  19.199  0.4955  0.0008 -0.0035
 1399BOLB   C2C33570  10.831  -5.653  19.301  0.0682 -0.4544 -0.0072
 1399BOLB   C3C33571  11.128  -5.329  19.279  0.1991  0.0081  0.0699
 1399BOLB   C4C33572  11.199  -5.015  19.613 -0.1113  0.3559  0.1243
 1399BOLB   C1D33573  11.010  -6.488  19.153  0.3445  0.1684 -0.0406
 1399BOLB   C2D33574  11.099  -6.077  19.150  0.1476 -0.2558 -0.1432
 1399BOLB   C3D33575  11.338  -5.770  19.395 -0.1183  0.2108 -0.0249
 1399BOLB   C4D33576  11.671  -5.558  19.421 -0.1793  0.1086  0.0955
 1400BOLB   NC133577  10.511  -1.852  20.287 -0.1183  0.0295 -0.2077
 1400BOLB   PO133578  10.584  -1.529  19.894 -0.1766  0.0011  0.4441
 1400BOLB   GL133579  10.227  -1.480  19.813  0.0849  0.1452 -0.0829
 1400BOLB   GL233580  10.156  -1.728  19.977  0.0025  0.1171 -0.1785
 1400BOLB   C1A33581   9.810  -1.666  19.594  0.1437 -0.0991 -0.0899
 1400BOLB   C2A33582   9.607  -1.776  19.106 -0.3332 -0.0145 -0.2186
 1400BOLB   C3A33583   9.619  -1.858  18.669 -0.2550  0.0961  0.0092
 1400BOLB   C4A33584   9.735  -2.148  18.348  0.0995 -0.1812 -0.3609
 1400BOLB   C1B33585  10.206  -2.101  19.723  0.0712 -0.1589 -0.4252
 1400BOLB   C2B33586  10.307  -2.486  19.893  0.2130  0.0252  0.0638
 1400BOLB   C3B33587  10.621  -2.753  19.769  0.3044  0.2409  0.2248
 1400BOLB   C4B33588  10.608  -3.132  19.776 -0.2262 -0.1742 -0.1270
 1400BOLB   NC233589   7.965  -3.052  16.687  0.3964  0.3068  0.0329
 1400BOLB   PO233590   8.379  -2.816  16.662 -0.0638  0.0273  0.1554
 1400BOLB   GL333591   8.645  -2.653  16.812 -0.1285  0.2104  0.2089
 1400BOLB   GL433592   8.896  -2.470  16.649 -0.0654  0.0478  0.1884
 1400BOLB   C1C33593   8.804  -2.509  17.148 -0.0825  0.1212 -0.0379
 1400BOLB   C2C33594   8.951  -2.542  17.440 -0.3254  0.1156  0.0714
 1400BOLB   C3C33595   9.266  -2.411  17.708  0.0189 -0.0498  0.0976
 1400BOLB   C4C33596   9.502  -2.406  18.062 -0.2999 -0.3987  0.2660
 1400BOLB   C1D33597   9.085  -2.144  16.845 -0.0634 -0.1158  0.0451
 1400BOLB   C2D33598   9.225  -1.839  17.148  0.0627  0.1188 -0.0401
 1400BOLB   C3D33599   9.598  -1.808  17.453 -0.1012  0.3089  0.4067
 1400BOLB   C4D33600  10.085  -1.858  17.385  0.0212  0.0812 -0.0917
 1401BOLB   NC133601   8.743   5.970  30.811  0.0222  0.0206 -0.0940
 1401BOLB   PO133602   8.816   5.774  30.487 -0.1249  0.1353  0.2618
 1401BOLB   GL133603   8.355   5.739  30.581  0.1088 -0.0671  0.1198
 1401BOLB   GL233604   8.320   5.517  30.875  0.2492  0.1387 -0.1578
 1401BOLB   C1A33605   7.880   5.908  30.692  0.0964  0.1336  0.0338
 1401BOLB   C2A33606   7.521   5.806  30.835 -0.1401  0.0875 -0.2018
 1401BOLB   C3A33607   7.207   5.535  31.168  0.0932  0.2747  0.0234
 1401BOLB   C4A33608   6.889   5.161  31.323 -0.3135 -0.1990  0.4904
 1401BOLB   C1B33609   7.904   5.643  31.175 -0.2697 -0.2379  0.0579
 1401BOLB   C2B33610   7.530   5.680  31.533  0.0574 -0.2228 -0.4612
 1401BOLB   C3B33611   7.087   5.789  31.640  0.3821 -0.0619  0.0123
 1401BOLB   C4B33612   6.870   6.175  31.692  0.0707 -0.0083 -0.1298
 1401BOLB   NC233613   5.887   5.974  33.325  0.3052  0.0516 -0.1400
 1401BOLB   PO233614   5.731   6.067  32.944  0.2792  0.1226  0.1689
 1401BOLB   GL333615   5.983   5.908  32.821  0.1555  0.2600  0.3127
 1401BOLB   GL433616   6.383   5.948  32.789  0.2292 -0.1069  0.0172
 1401BOLB   C1C33617   5.961   5.466  32.704  0.0147 -0.2199 -0.3111
 1401BOLB   C2C33618   6.035   5.332  32.374  0.3143 -0.1680  0.5127
 1401BOLB   C3C33619   6.232   5.241  32.007  0.1939  0.3102 -0.0698
 1401BOLB   C4C33620   6.574   5.079  31.733  0.1308 -0.1723  0.0115
 1401BOLB   C1D33621   6.792   6.178  32.938  0.1325  0.0734 -0.0084
 1401BOLB   C2D33622   7.270   6.089  32.788  0.0223  0.1674  0.0146
 1401BOLB   C3D33623   7.710   6.139  32.679 -0.2703  0.0304  0.0022
 1401BOLB   C4D33624   7.876   5.949  32.358 -0.0771 -0.0070 -0.5179
 1402BOLB   NC133625  14.392  -0.810  17.547 -0.0891 -0.1725 -0.2198
 1402BOLB   PO133626  14.321  -0.637  17.160  0.0589 -0.0729  0.1359
 1402BOLB   GL133627  14.074  -0.772  16.755 -0.2027 -0.1551 -0.2144
 1402BOLB   GL233628  13.695  -0.734  16.632  0.1575  0.3585 -0.1474
 1402BOLB   C1A33629  14.156  -0.892  16.284 -0.0403  0.1694 -0.1160
 1402BOLB   C2A33630  14.050  -0.984  15.786  0.2905 -0.0642 -0.3390
 1402BOLB   C3A33631  13.806  -0.788  15.491  0.0228 -0.0406  0.1434
 1402BOLB   C4A33632  13.761  -0.705  15.086 -0.3100  0.1551  0.2069
 1402BOLB   C1B33633  13.397  -0.559  16.337 -0.1054 -0.1214  0.0617
 1402BOLB   C2B33634  13.256  -0.752  15.986 -0.0269 -0.2714 -0.3496
 1402BOLB   C3B33635  13.286  -0.824  15.516  0.0612  0.2581  0.2184
 1402BOLB   C4B33636  13.237  -1.264  15.378  0.1586 -0.1653  0.1756
 1402BOLB   NC233637  12.931  -0.476  12.886 -0.4687 -0.1198 -0.3573
 1402BOLB   PO233638  12.955  -0.891  13.030  0.0606  0.1003 -0.2068
 1402BOLB   GL333639  13.137  -0.839  13.420 -0.0904  0.4080 -0.3116
 1402BOLB   GL433640  12.776  -0.769  13.542  0.2611 -0.0137 -0.2979
 1402BOLB   C1C33641  13.382  -0.624  13.709  0.1853 -0.3247  0.0213
 1402BOLB   C2C33642  13.491  -0.375  14.013 -0.0242  0.3596 -0.2846
 1402BOLB   C3C33643  13.519  -0.600  14.337  0.2963 -0.2773 -0.1592
 1402BOLB   C4C33644  13.732  -0.666  14.655  0.0503  0.4664  0.3802
 1402BOLB   C1D33645  12.913  -0.516  13.873 -0.2499  0.1239 -0.1411
 1402BOLB   C2D33646  13.010  -0.377  14.281 -0.0393 -0.1162  0.2870
 1402BOLB   C3D33647  12.947  -0.374  14.702  0.1794  0.3675  0.0979
 1402BOLB   C4D33648  13.126  -0.548  15.152 -0.1487  0.0315  0.0561
 1403BOLB   NC133649  12.587  11.207  29.205 -0.0354  0.2599 -0.0156
 1403BOLB   PO133650  12.953  11.400  29.524  0.1391 -0.0676  0.0783
 1403BOLB   GL133651  12.982  11.780  29.680  0.1461  0.1315 -0.2539
 1403BOLB   GL233652  12.768  11.905  29.873 -0.1837  0.0196 -0.1649
 1403BOLB   C1A33653  13.077  12.285  29.675 -0.2289  0.2507 -0.0087
 1403BOLB   C2A33654  13.082  12.675  29.860  0.0525  0.2266  0.1502
 1403BOLB   C3A33655  12.957  13.089  29.929 -0.2504 -0.0519  0.1101
 1403BOLB   C4A33656  12.921  13.485  30.071  0.2844  0.3751  0.0240
 1403BOLB   C1B33657  12.821  12.212  30.195  0.0327  0.1137  0.4344
 1403BOLB   C2B33658  12.886  12.337  30.565 -0.1306 -0.1847  0.2240
 1403BOLB   C3B33659  12.735  12.319  30.894  0.1749  0.0241  0.2708
 1403BOLB   C4B33660  12.555  12.483  31.279 -0.1579  0.1221  0.0777
 1403BOLB   NC233661  11.754  15.456  31.233  0.1655 -0.4836 -0.0186
 1403BOLB   PO233662  11.932  15.251  31.593  0.1012  0.0401  0.0702
 1403BOLB   GL333663  12.113  14.855  31.339  0.1240 -0.1662  0.2304
 1403BOLB   GL433664  12.285  14.820  31.639 -0.1591 -0.2751  0.0772
 1403BOLB   C1C33665  12.314  14.670  30.945  0.3416  0.0305  0.2127
 1403BOLB   C2C33666  12.242  14.353  30.705 -0.1775 -0.1881  0.0630
 1403BOLB   C3C33667  12.470  13.926  30.578 -0.0602 -0.2706  0.3209
 1403BOLB   C4C33668  12.529  13.591  30.366 -0.1563 -0.2188  0.1832
 1403BOLB   C1D33669  12.277  14.349  31.391 -0.1662 -0.0094 -0.0317
 1403BOLB   C2D33670  12.442  14.048  31.117  0.2176 -0.1400  0.1923
 1403BOLB   C3D33671  12.397  13.702  31.066 -0.4085  0.0042 -0.1943
 1403BOLB   C4D33672  12.434  13.362  31.249  0.1157  0.1102 -0.1122
 1404BOLB   NC133673  15.270   2.210  16.552  0.1871 -0.0814  0.1745
 1404BOLB   PO133674  15.104   2.465  16.201  0.0305  0.1271 -0.2901
 1404BOLB   GL133675  15.159   2.684  15.780  0.0279 -0.0420 -0.2929
 1404BOLB   GL233676  15.132   2.488  15.627 -0.1547 -0.0023 -0.2744
 1404BOLB   C1A33677  15.012   2.970  15.521 -0.0088  0.0831  0.0436
 1404BOLB   C2A33678  14.581   3.158  15.337  0.1927 -0.0868 -0.0189
 1404BOLB   C3A33679  14.235   3.269  15.190  0.4652  0.1729 -0.0095
 1404BOLB   C4A33680  13.934   3.019  14.971  0.3080  0.2361  0.1749
 1404BOLB   C1B33681  15.388   2.637  15.302 -0.2442 -0.1222 -0.0672
 1404BOLB   C2B33682  15.358   2.803  14.932  0.1284  0.0008 -0.1660
 1404BOLB   C3B33683  14.933   2.788  14.912 -0.0686  0.0468 -0.2850
 1404BOLB   C4B33684  14.694   2.640  15.236  0.1628 -0.2744 -0.1697
 1404BOLB   NC233685  13.520   3.353  12.408  0.0914 -0.2053 -0.0767
 1404BOLB   PO233686  13.687   2.993  12.735 -0.3183  0.0600 -0.0133
 1404BOLB   GL333687  13.678   2.939  13.099  0.2644 -0.0073 -0.2405
 1404BOLB   GL433688  13.899   2.962  13.252 -0.0419 -0.2318 -0.1981
 1404BOLB   C1C33689  13.529   2.672  13.412 -0.2306  0.1773 -0.1058
 1404BOLB   C2C33690  13.386   2.751  13.795  0.1514  0.0610 -0.0381
 1404BOLB   C3C33691  13.576   2.907  14.237  0.1921  0.1711  0.0586
 1404BOLB   C4C33692  13.844   2.955  14.542  0.2074  0.0040  0.0307
 1404BOLB   C1D33693  13.882   2.949  13.680 -0.0733  0.1968  0.1120
 1404BOLB   C2D33694  14.110   2.879  14.141 -0.1343 -0.1524  0.0908
 1404BOLB   C3D33695  14.367   2.836  14.501  0.3654  0.1728 -0.2000
 1404BOLB   C4D33696  14.369   2.876  14.942 -0.0913  0.0277  0.1076
 1405BOLB   NC133697  13.975   0.935  16.655 -0.1206 -0.0355  0.3004
 1405BOLB   PO133698  14.194   1.129  16.355 -0.0076  0.3032 -0.3093
 1405BOLB   GL133699  14.115   1.081  15.922 -0.0755  0.1038  0.2564
 1405BOLB   GL233700  14.038   1.409  15.768  0.1352  0.1870 -0.0689
 1405BOLB   C1A33701  13.872   0.915  15.574 -0.1001 -0.0930 -0.1899
 1405BOLB   C2A33702  13.690   0.697  15.257 -0.3817  0.0029  0.0286
 1405BOLB   C3A33703  13.555   0.443  15.045 -0.1147 -0.0868 -0.4269
 1405BOLB   C4A33704  13.263   0.266  14.864  0.0802  0.1129 -0.3703
 1405BOLB   C1B33705  14.202   1.281  15.458  0.1985  0.1826 -0.3709
 1405BOLB   C2B33706  14.519   1.312  15.136 -0.0821  0.1083  0.1484
 1405BOLB   C3B33707  14.840   1.428  15.005  0.0033 -0.1074 -0.0424
 1405BOLB   C4B33708  15.145   1.800  14.810  0.2059  0.0162 -0.0601
 1405BOLB   NC233709  12.399  -1.114  13.463  0.0066 -0.0508  0.0822
 1405BOLB   PO233710  12.072  -1.261  13.600 -0.1958  0.1903 -0.0613
 1405BOLB   GL333711  12.117  -1.096  13.882  0.2610 -0.0443 -0.1754
 1405BOLB   GL433712  11.902  -1.177  14.080  0.1819 -0.2018 -0.0449
 1405BOLB   C1C33713  12.061  -0.635  14.023 -0.2400  0.0934  0.1275
 1405BOLB   C2C33714  12.357  -0.348  14.004 -0.0842 -0.1568  0.0010
 1405BOLB   C3C33715  12.585  -0.040  14.321 -0.2744  0.0749 -0.1238
 1405BOLB   C4C33716  12.866   0.181  14.612  0.0847  0.1622 -0.0709
 1405BOLB   C1D33717  12.180  -0.992  14.330  0.2215 -0.2854  0.1193
 1405BOLB   C2D33718  12.565  -0.978  14.627  0.1627 -0.3002 -0.4478
 1405BOLB   C3D33719  12.739  -1.044  15.086 -0.4275 -0.4473 -0.1222
 1405BOLB   C4D33720  12.820  -1.026  15.534 -0.0303  0.0505 -0.1568
 1406BOLB   NC133721  14.164   8.357  19.024 -0.0373 -0.0176 -0.3555
 1406BOLB   PO133722  14.433   8.322  18.651 -0.2649 -0.2588 -0.0324
 1406BOLB   GL133723  14.302   8.618  18.216  0.0728  0.0566 -0.0485
 1406BOLB   GL233724  14.251   8.453  17.964  0.1317 -0.1318  0.0243
 1406BOLB   C1A33725  13.856   8.763  18.141 -0.0567  0.1377 -0.1466
 1406BOLB   C2A33726  13.614   8.931  17.791  0.0606  0.0539  0.4396
 1406BOLB   C3A33727  13.234   9.226  17.673 -0.1408 -0.0438 -0.2342
 1406BOLB   C4A33728  12.753   9.330  17.656  0.0609 -0.1732 -0.1100
 1406BOLB   C1B33729  14.186   8.851  17.803  0.1771 -0.1210 -0.2016
 1406BOLB   C2B33730  13.914   9.116  17.416 -0.0558  0.2556 -0.0256
 1406BOLB   C3B33731  14.101   9.304  17.134  0.0422  0.2637  0.0407
 1406BOLB   C4B33732  14.534   9.489  17.076 -0.0914  0.0731  0.0111
 1406BOLB   NC233733  11.970  10.305  15.924  0.1534  0.2111  0.0712
 1406BOLB   PO233734  11.463  10.307  15.857 -0.0895  0.0289  0.2379
 1406BOLB   GL333735  11.751  10.191  16.323  0.2292  0.0431 -0.1150
 1406BOLB   GL433736  11.916  10.368  16.579 -0.0788  0.1007  0.0863
 1406BOLB   C1C33737  12.205  10.036  16.426  0.1551 -0.5135 -0.0246
 1406BOLB   C2C33738  12.474   9.929  16.808 -0.0537 -0.1058  0.0945
 1406BOLB   C3C33739  12.651   9.793  17.147  0.1460 -0.1477 -0.1729
 1406BOLB   C4C33740  12.490   9.488  17.411 -0.0135  0.3538  0.1506
 1406BOLB   C1D33741  12.119  10.206  17.000 -0.0635 -0.3527  0.1875
 1406BOLB   C2D33742  12.142   9.772  17.185  0.1232  0.0055  0.0997
 1406BOLB   C3D33743  11.834   9.535  17.386 -0.1489  0.0961 -0.2209
 1406BOLB   C4D33744  11.849   9.098  17.347 -0.1337  0.2666 -0.3300
 1407BOLB   NC133745  13.866   4.987  16.776  0.0404 -0.0198 -0.0955
 1407BOLB   PO133746  13.632   5.278  16.929  0.1610  0.1389  0.0239
 1407BOLB   GL133747  13.518   5.244  16.513 -0.1285  0.2238  0.0421
 1407BOLB   GL233748  13.238   5.130  16.506  0.2262  0.0698  0.0937
 1407BOLB   C1A33749  13.662   5.349  16.055 -0.1382 -0.0244 -0.3104
 1407BOLB   C2A33750  13.836   5.306  15.693 -0.0098  0.2309  0.3776
 1407BOLB   C3A33751  13.874   5.567  15.171 -0.2630 -0.0527 -0.0432
 1407BOLB   C4A33752  14.140   5.747  14.895  0.0161  0.0210 -0.1437
 1407BOLB   C1B33753  13.142   5.306  16.098  0.0440 -0.1859 -0.0340
 1407BOLB   C2B33754  13.289   5.291  15.662 -0.3867  0.1744  0.2726
 1407BOLB   C3B33755  13.190   5.469  15.212 -0.1372  0.1681  0.1415
 1407BOLB   C4B33756  13.419   5.725  14.996 -0.2489 -0.0060  0.0022
 1407BOLB   NC233757  14.558   6.690  12.359  0.0861 -0.1848 -0.1794
 1407BOLB   PO233758  14.885   6.761  12.749  0.2663  0.0469  0.3574
 1407BOLB   GL333759  14.764   6.622  13.063  0.0798  0.0616 -0.1754
 1407BOLB   GL433760  14.898   6.286  13.211  0.0326 -0.1143 -0.2505
 1407BOLB   C1C33761  14.501   6.438  13.435  0.0932 -0.3473  0.2778
 1407BOLB   C2C33762  14.470   6.340  13.851 -0.4059 -0.1325 -0.4366
 1407BOLB   C3C33763  14.461   6.297  14.339 -0.2063 -0.0271  0.2627
 1407BOLB   C4C33764  14.356   5.987  14.603  0.1469 -0.2021 -0.0241
 1407BOLB   C1D33765  14.920   6.113  13.586 -0.1033 -0.0139 -0.0376
 1407BOLB   C2D33766  15.244   6.069  13.929  0.0780 -0.1502  0.1336
 1407BOLB   C3D33767  15.533   5.824  14.183  0.0728  0.0075 -0.0410
 1407BOLB   C4D33768  15.973   5.672  14.402 -0.1288  0.0462 -0.2964
 1408BOLB   NC133769  23.824   7.901  26.898  0.1932 -0.0978 -0.0828
 1408BOLB   PO133770  23.719   8.251  26.600  0.5711  0.0032  0.2914
 1408BOLB   GL133771  24.081   8.543  26.603  0.1108  0.0178 -0.0148
 1408BOLB   GL233772  24.374   8.536  26.741 -0.2840  0.3052 -0.0303
 1408BOLB   C1A33773  24.283   8.789  26.320  0.0168 -0.1218  0.3489
 1408BOLB   C2A33774  24.624   8.781  25.947  0.2608  0.2685 -0.0358
 1408BOLB   C3A33775  24.774   8.958  25.597 -0.3031  0.0719  0.2012
 1408BOLB   C4A33776  24.948   9.129  25.294  0.1777 -0.0703 -0.1777
 1408BOLB   C1B33777  24.625   8.714  27.086  0.1731  0.2388  0.0039
 1408BOLB   C2B33778  24.834   9.013  27.178  0.1252 -0.3279  0.1103
 1408BOLB   C3B33779  25.003   9.493  27.139 -0.1074  0.1513  0.0159
 1408BOLB   C4B33780  24.991   9.866  27.032 -0.2127 -0.0307 -0.0253
 1408BOLB   NC233781  27.326  10.150  25.749 -0.1156  0.3128 -0.2542
 1408BOLB   PO233782  26.988  10.235  25.482  0.1408  0.1468  0.1111
 1408BOLB   GL333783  26.608   9.947  25.595 -0.1715 -0.4559 -0.0250
 1408BOLB   GL433784  26.288  10.024  25.674 -0.0367  0.0415  0.0142
 1408BOLB   C1C33785  26.342   9.767  25.243  0.2072 -0.1721 -0.3342
 1408BOLB   C2C33786  25.882   9.759  25.173  0.2066 -0.2457  0.1333
 1408BOLB   C3C33787  25.599   9.525  25.130  0.2168 -0.2409 -0.0737
 1408BOLB   C4C33788  25.325   9.304  25.104  0.1591  0.0440 -0.2292
 1408BOLB   C1D33789  25.828   9.910  25.673 -0.0406  0.0642  0.2926
 1408BOLB   C2D33790  25.490   9.527  25.615 -0.0058  0.0872  0.0063
 1408BOLB   C3D33791  25.267   9.408  25.874  0.3192 -0.4376 -0.0843
 1408BOLB   C4D33792  24.913   9.207  26.165  0.1647 -0.1662  0.2617
 1409BOLB   NC133793  11.266   7.766  31.957 -0.0257 -0.0342  0.1566
 1409BOLB   PO133794  11.707   7.946  31.868 -0.4044 -0.2873  0.0637
 1409BOLB   GL133795  11.631   8.027  32.317  0.1904  0.4817 -0.1838
 1409BOLB   GL233796  11.443   7.723  32.446  0.0055  0.1873  0.4935
 1409BOLB   C1A33797  11.649   8.224  32.806 -0.1027  0.3331  0.3512
 1409BOLB   C2A33798  11.433   8.141  33.226  0.1401 -0.1341 -0.1044
 1409BOLB   C3A33799  11.168   8.350  33.601  0.1390 -0.2213  0.4519
 1409BOLB   C4A33800  11.202   8.292  34.043 -0.0325  0.1167 -0.0945
 1409BOLB   C1B33801  11.131   7.842  32.829 -0.0010  0.1309 -0.1463
 1409BOLB   C2B33802  10.745   7.904  32.765  0.1721  0.1791 -0.0042
 1409BOLB   C3B33803  10.435   7.759  32.488 -0.0531  0.2644 -0.1165
 1409BOLB   C4B33804   9.949   7.794  32.356 -0.1050  0.0408 -0.0668
 1409BOLB   NC233805   9.645   8.012  35.487  0.2784 -0.0551 -0.1929
 1409BOLB   PO233806   9.820   8.512  35.714  0.0044  0.0776 -0.1319
 1409BOLB   GL333807  10.173   8.560  35.475 -0.2984 -0.1987  0.2859
 1409BOLB   GL433808  10.435   8.544  35.570 -0.1397 -0.0688  0.0521
 1409BOLB   C1C33809  10.444   8.273  35.127 -0.1639  0.0957 -0.2426
 1409BOLB   C2C33810  10.715   8.003  35.029  0.1159 -0.1299  0.1667
 1409BOLB   C3C33811  10.837   7.848  34.691 -0.0529  0.0693  0.0415
 1409BOLB   C4C33812  10.987   8.000  34.342  0.2218  0.0647  0.0834
 1409BOLB   C1D33813  10.795   8.487  35.465 -0.0337 -0.1244  0.1499
 1409BOLB   C2D33814  11.140   8.484  35.482 -0.3832  0.4554  0.1491
 1409BOLB   C3D33815  11.469   8.378  35.134 -0.0662 -0.0573  0.0454
 1409BOLB   C4D33816  11.532   8.227  34.716 -0.0053 -0.0735  0.4013
 1410BOLB   NC133817  21.086  -8.070  19.988  0.4746  0.1701 -0.0182
 1410BOLB   PO133818  21.342  -8.227  19.738 -0.0326 -0.4478 -0.0546
 1410BOLB   GL133819  21.201  -7.933  19.466 -0.1585 -0.2213  0.0476
 1410BOLB   GL233820  20.909  -7.985  19.406 -0.3293  0.0096  0.1570
 1410BOLB   C1A33821  21.336  -7.822  19.028 -0.1203 -0.1705 -0.0869
 1410BOLB   C2A33822  21.509  -7.906  18.569  0.0175 -0.0209 -0.2557
 1410BOLB   C3A33823  21.668  -7.754  18.055 -0.1943 -0.1839 -0.0913
 1410BOLB   C4A33824  22.000  -7.437  18.005 -0.0116 -0.1952  0.1743
 1410BOLB   C1B33825  20.849  -7.720  19.057  0.1253 -0.3422  0.0868
 1410BOLB   C2B33826  20.875  -7.446  18.878 -0.2630 -0.0921  0.0495
 1410BOLB   C3B33827  21.325  -7.348  18.808 -0.2301  0.2313 -0.0311
 1410BOLB   C4B33828  21.669  -7.334  18.748  0.0322 -0.0224 -0.0987
 1410BOLB   NC233829  23.600  -8.810  17.261 -0.1905 -0.1419 -0.0085
 1410BOLB   PO233830  23.742  -8.719  17.707  0.5022 -0.0418  0.0473
 1410BOLB   GL333831  23.521  -8.303  17.827 -0.0035 -0.0882  0.0811
 1410BOLB   GL433832  23.572  -8.048  17.666 -0.2377  0.0318 -0.3500
 1410BOLB   C1C33833  23.127  -8.165  17.855 -0.1957  0.0200  0.2250
 1410BOLB   C2C33834  23.002  -7.739  17.975  0.0992 -0.3154  0.0097
 1410BOLB   C3C33835  22.807  -7.312  17.804  0.1459  0.1649  0.0892
 1410BOLB   C4C33836  22.425  -7.294  17.786  0.1087 -0.1250  0.3485
 1410BOLB   C1D33837  23.416  -7.629  17.769  0.0727  0.0392  0.1726
 1410BOLB   C2D33838  23.225  -7.250  18.007  0.1439 -0.2687  0.0558
 1410BOLB   C3D33839  23.253  -6.933  18.233 -0.5086 -0.1597 -0.1645
 1410BOLB   C4D33840  23.085  -6.556  18.194  0.1363  0.0571  0.0294
 1411BOLB   NC133841  12.754  -3.656  26.406  0.1779 -0.0123  0.1660
 1411BOLB   PO133842  12.596  -3.708  26.823 -0.1405 -0.1155 -0.1308
 1411BOLB   GL133843  12.673  -3.827  27.177  0.4524 -0.1903 -0.0527
 1411BOLB   GL233844  12.899  -4.011  27.387  0.1901  0.2379  0.2398
 1411BOLB   C1A33845  12.339  -4.138  27.483 -0.4849  0.2782 -0.0196
 1411BOLB   C2A33846  12.153  -4.416  27.774  0.1726 -0.0915 -0.0353
 1411BOLB   C3A33847  12.189  -4.937  27.929 -0.2768  0.3605 -0.1390
 1411BOLB   C4A33848  11.986  -5.055  28.239  0.2455  0.0676  0.1009
 1411BOLB   C1B33849  12.790  -4.394  27.537  0.1247  0.1900  0.1583
 1411BOLB   C2B33850  12.565  -4.738  27.507 -0.0270  0.2039 -0.0438
 1411BOLB   C3B33851  12.545  -5.138  27.569  0.0197 -0.1051  0.0473
 1411BOLB   C4B33852  12.559  -5.502  27.508 -0.0302  0.0197  0.0600
 1411BOLB   NC233853  10.995  -6.526  30.300  0.1095  0.2349 -0.2686
 1411BOLB   PO233854  10.887  -6.162  30.039 -0.1299  0.2096 -0.1630
 1411BOLB   GL333855  11.208  -6.103  29.790 -0.2290 -0.1444 -0.1919
 1411BOLB   GL433856  11.240  -5.796  29.665  0.2622  0.0505 -0.2204
 1411BOLB   C1C33857  11.394  -6.144  29.345  0.0248  0.2831 -0.2101
 1411BOLB   C2C33858  11.566  -5.992  29.034  0.4003 -0.1567  0.0826
 1411BOLB   C3C33859  11.633  -5.691  28.747  0.0474 -0.0453 -0.0291
 1411BOLB   C4C33860  11.791  -5.438  28.385  0.2156 -0.1060  0.3461
 1411BOLB   C1D33861  11.393  -5.510  29.462 -0.4149  0.0509 -0.3103
 1411BOLB   C2D33862  11.563  -5.088  29.440 -0.0375  0.5644 -0.2025
 1411BOLB   C3D33863  11.609  -4.645  29.636  0.3612 -0.2252 -0.2236
 1411BOLB   C4D33864  11.529  -4.270  29.306 -0.0232  0.0369  0.0241
 1412BOLB   NC133865   9.272  14.791  25.245 -0.1482  0.4808  0.1175
 1412BOLB   PO133866   8.999  14.753  25.633  0.0912  0.0259 -0.2820
 1412BOLB   GL133867   9.343  14.436  25.594  0.0254 -0.0455 -0.1753
 1412BOLB   GL233868   9.160  14.258  25.389 -0.0227 -0.1180 -0.0122
 1412BOLB   C1A33869   9.515  14.023  25.663 -0.0993 -0.0029 -0.1803
 1412BOLB   C2A33870   9.878  13.872  25.787  0.1070 -0.0167 -0.0820
 1412BOLB   C3A33871  10.222  13.788  25.597 -0.0768  0.3383  0.1595
 1412BOLB   C4A33872  10.339  13.943  25.122  0.2183 -0.1603  0.2678
 1412BOLB   C1B33873   9.095  13.889  25.633  0.1283 -0.0458  0.0701
 1412BOLB   C2B33874   9.148  13.512  25.961  0.0550  0.0440 -0.1707
 1412BOLB   C3B33875   9.320  13.216  26.300  0.1330  0.0262  0.1103
 1412BOLB   C4B33876   9.502  12.878  26.558  0.0817 -0.1396 -0.1089
 1412BOLB   NC233877  11.112  16.171  25.100  0.2169 -0.0518  0.1644
 1412BOLB   PO233878  10.997  16.099  24.711  0.0139 -0.0465  0.0788
 1412BOLB   GL333879  11.083  15.645  24.694 -0.2375 -0.0404 -0.2240
 1412BOLB   GL433880  11.103  15.633  25.012 -0.0878 -0.2984 -0.1175
 1412BOLB   C1C33881  11.191  15.250  24.638  0.2695  0.1446 -0.3096
 1412BOLB   C2C33882  11.026  14.838  24.706  0.0877  0.1795  0.0322
 1412BOLB   C3C33883  10.926  14.407  24.794 -0.2369 -0.4117 -0.3528
 1412BOLB   C4C33884  10.684  14.030  24.913  0.1812 -0.1234  0.0182
 1412BOLB   C1D33885  11.170  15.239  25.152  0.0967  0.2372 -0.0207
 1412BOLB   C2D33886  11.067  14.882  25.278 -0.1935  0.1522 -0.0307
 1412BOLB   C3D33887  11.103  14.528  25.234 -0.0409 -0.0182  0.2155
 1412BOLB   C4D33888  11.030  14.170  25.232 -0.2984  0.0964  0.1206
 1413BOLB   NC133889  16.952   4.658  16.585 -0.2630 -0.0315  0.5205
 1413BOLB   PO133890  17.116   4.339  16.447  0.2350 -0.1270 -0.1710
 1413BOLB   GL133891  17.146   4.268  15.999  0.1127 -0.0829 -0.1339
 1413BOLB   GL233892  17.533   4.361  15.899  0.1335 -0.0026 -0.0451
 1413BOLB   C1A33893  16.971   4.182  15.524  0.0054  0.0585 -0.0900
 1413BOLB   C2A33894  16.855   4.090  15.146  0.2112  0.0533  0.0327
 1413BOLB   C3A33895  17.179   4.214  14.822 -0.2737  0.1781  0.0565
 1413BOLB   C4A33896  17.292   4.419  14.468  0.1963 -0.0880  0.0115
 1413BOLB   C1B33897  17.494   4.283  15.438  0.1403  0.1848 -0.1263
 1413BOLB   C2B33898  17.565   4.023  15.051 -0.3602 -0.3080 -0.2138
 1413BOLB   C3B33899  17.443   3.836  14.639  0.1916 -0.0289 -0.5048
 1413BOLB   C4B33900  17.189   3.552  14.388 -0.1711 -0.0322 -0.3361
 1413BOLB   NC233901  19.078   4.762  12.537  0.1744  0.0979 -0.2406
 1413BOLB   PO233902  18.752   4.816  12.411  0.1438  0.0305 -0.1868
 1413BOLB   GL333903  18.680   4.810  12.908  0.2769  0.3414 -0.0172
 1413BOLB   GL433904  18.750   4.464  12.970 -0.0589  0.3461 -0.5111
 1413BOLB   C1C33905  18.227   4.903  13.057 -0.1302  0.1695 -0.2638
 1413BOLB   C2C33906  18.062   4.916  13.504  0.1557  0.2810 -0.0811
 1413BOLB   C3C33907  17.761   4.574  13.724  0.0764 -0.1549  0.2368
 1413BOLB   C4C33908  17.538   4.492  14.092  0.0588  0.1764  0.1282
 1413BOLB   C1D33909  18.598   4.725  13.441  0.0504  0.2776  0.1333
 1413BOLB   C2D33910  18.385   4.718  13.757 -0.3401  0.1035 -0.0367
 1413BOLB   C3D33911  18.244   4.849  14.013  0.0822  0.2980 -0.1609
 1413BOLB   C4D33912  17.915   5.064  13.955  0.1737  0.0497 -0.1006
 1414BOLB   NC133913  21.577  10.313  23.547  0.1435  0.1158  0.1066
 1414BOLB   PO133914  21.151  10.488  23.687 -0.2172  0.0375 -0.1924
 1414BOLB   GL133915  21.355  10.896  23.598  0.1549  0.0226  0.2227
 1414BOLB   GL233916  21.699  10.813  23.475 -0.1038  0.3028 -0.0945
 1414BOLB   C1A33917  21.331  11.289  23.335 -0.0255  0.2258 -0.1504
 1414BOLB   C2A33918  21.586  11.309  23.035  0.0603  0.4085  0.2842
 1414BOLB   C3A33919  21.668  11.549  22.709  0.0906  0.3636  0.3252
 1414BOLB   C4A33920  22.058  11.702  22.518  0.2315 -0.0916 -0.1974
 1414BOLB   C1B33921  21.964  10.965  23.148  0.0086 -0.0419 -0.2802
 1414BOLB   C2B33922  22.327  10.938  23.081 -0.2087 -0.2424  0.0601
 1414BOLB   C3B33923  22.777  10.905  23.031  0.3336 -0.1136  0.1517
 1414BOLB   C4B33924  23.122  10.675  22.833  0.0947  0.3101 -0.0151
 1414BOLB   NC233925  23.665  13.371  22.203  0.1310  0.2012 -0.0284
 1414BOLB   PO233926  23.485  13.638  22.506  0.0655 -0.1813 -0.0534
 1414BOLB   GL333927  23.179  13.429  22.708 -0.2202 -0.0567  0.0183
 1414BOLB   GL433928  23.168  13.467  23.127 -0.0752  0.0574 -0.0814
 1414BOLB   C1C33929  23.047  13.018  22.828  0.0956 -0.1692 -0.0782
 1414BOLB   C2C33930  22.914  12.489  22.779  0.1007  0.2495  0.2949
 1414BOLB   C3C33931  22.866  12.132  22.855  0.0368 -0.0689 -0.0715
 1414BOLB   C4C33932  22.523  11.835  22.704  0.1137 -0.1590 -0.0244
 1414BOLB   C1D33933  23.037  13.104  23.343  0.0791 -0.4171 -0.1235
 1414BOLB   C2D33934  22.791  12.754  23.566  0.0196 -0.0207 -0.0859
 1414BOLB   C3D33935  22.721  12.338  23.546 -0.2053  0.3255  0.1983
 1414BOLB   C4D33936  22.974  11.968  23.598 -0.1319 -0.3000 -0.0059
 1415BOLB   NC133937  19.391   7.503  32.187 -0.1487 -0.0979  0.1632
 1415BOLB   PO133938  19.355   7.815  32.373 -0.0780 -0.0825 -0.2747
 1415BOLB   GL133939  19.520   7.780  32.810 -0.0387 -0.1810 -0.2633
 1415BOLB   GL233940  19.752   7.600  32.767  0.0946  0.1737  0.1579
 1415BOLB   C1A33941  19.558   7.655  33.253 -0.1105 -0.0152 -0.0830
 1415BOLB   C2A33942  19.451   7.593  33.567  0.2537  0.1219 -0.0010
 1415BOLB   C3A33943  19.545   7.941  33.924 -0.3251  0.1597  0.5125
 1415BOLB   C4A33944  19.606   8.159  34.299  0.0551  0.1771 -0.0003
 1415BOLB   C1B33945  19.962   7.885  33.002  0.0147 -0.4019 -0.2578
 1415BOLB   C2B33946  20.231   8.152  33.322 -0.0038 -0.0796  0.0692
 1415BOLB   C3B33947  20.482   8.108  33.728 -0.3910 -0.0064  0.2377
 1415BOLB   C4B33948  20.904   7.872  33.985  0.1245 -0.2820 -0.1141
 1415BOLB   NC233949  20.778   9.497  36.320 -0.0360  0.1170  0.2461
 1415BOLB   PO233950  20.719   9.089  36.109 -0.3421  0.1112  0.1731
 1415BOLB   GL333951  20.623   9.255  35.730 -0.1081 -0.0478 -0.2836
 1415BOLB   GL433952  20.850   9.458  35.606 -0.0097 -0.1158  0.2911
 1415BOLB   C1C33953  20.326   9.161  35.452 -0.0496  0.0475 -0.2823
 1415BOLB   C2C33954  20.222   8.986  34.995 -0.0226 -0.0900  0.1006
 1415BOLB   C3C33955  20.018   8.591  34.780 -0.4646  0.1140  0.0749
 1415BOLB   C4C33956  19.794   8.509  34.412 -0.0885  0.2686  0.2956
 1415BOLB   C1D33957  20.762   9.148  35.231  0.3177  0.1200 -0.2696
 1415BOLB   C2D33958  20.816   8.835  35.158  0.0962  0.1534 -0.1413
 1415BOLB   C3D33959  20.772   8.412  35.345 -0.0120 -0.0202  0.1273
 1415BOLB   C4D33960  20.599   7.980  35.333  0.1758  0.0317 -0.1108
 1416BOLB   NC133961  15.106   9.792  32.064 -0.0364 -0.1040 -0.2317
 1416BOLB   PO133962  15.242   9.333  32.079  0.0820  0.2355 -0.1273
 1416BOLB   GL133963  15.316   9.553  32.541 -0.1568 -0.3137 -0.1262
 1416BOLB   GL233964  14.991   9.721  32.579  0.0617  0.3479 -0.0400
 1416BOLB   C1A33965  15.399   9.822  32.927 -0.2249 -0.1656 -0.0041
 1416BOLB   C2A33966  15.371   9.960  33.304 -0.0535 -0.1150 -0.0898
 1416BOLB   C3A33967  15.221  10.412  33.350  0.1183 -0.1252 -0.0956
 1416BOLB   C4A33968  14.942  10.540  33.664 -0.1219  0.2315  0.1058
 1416BOLB   C1B33969  14.953   9.935  32.964  0.2764 -0.1238  0.0585
 1416BOLB   C2B33970  14.811  10.140  33.344  0.3031  0.1647 -0.1092
 1416BOLB   C3B33971  14.668  10.114  33.741  0.1646  0.2516  0.3137
 1416BOLB   C4B33972  14.720   9.705  34.001 -0.0325  0.0629  0.1582
 1416BOLB   NC233973  13.832  12.134  35.027 -0.1850 -0.1651  0.2815
 1416BOLB   PO233974  14.027  11.918  35.189  0.1997 -0.0481  0.1323
 1416BOLB   GL333975  14.235  11.744  34.957  0.0785  0.1158  0.0521
 1416BOLB   GL433976  14.090  11.893  34.662  0.0837  0.0326 -0.2376
 1416BOLB   C1C33977  14.453  11.341  34.807 -0.1629  0.1413  0.2557
 1416BOLB   C2C33978  14.627  11.103  34.444 -0.2276 -0.1596  0.0275
 1416BOLB   C3C33979  14.620  10.935  34.169  0.0150  0.1679 -0.1131
 1416BOLB   C4C33980  14.777  10.612  34.105  0.4424  0.0849  0.2066
 1416BOLB   C1D33981  14.360  11.703  34.486 -0.1011 -0.0401  0.2459
 1416BOLB   C2D33982  14.773  11.564  34.311  0.1360 -0.0404 -0.0151
 1416BOLB   C3D33983  14.947  11.353  33.989  0.2898  0.4019 -0.0097
 1416BOLB   C4D33984  15.074  11.073  33.632 -0.2307 -0.3028 -0.0758
 1417BOLB   NC133985  19.111   3.450  16.659  0.1997 -0.2829 -0.1320
 1417BOLB   PO133986  19.164   3.324  16.295 -0.1818 -0.2069 -0.2345
 1417BOLB   GL133987  18.931   3.248  15.865 -0.0425  0.0122  0.0642
 1417BOLB   GL233988  18.610   3.175  15.805 -0.3180 -0.2743 -0.1437
 1417BOLB   C1A33989  18.955   3.317  15.358  0.0136 -0.0332 -0.1770
 1417BOLB   C2A33990  18.949   3.239  14.931  0.0235  0.1298 -0.0965
 1417BOLB   C3A33991  19.179   3.145  14.495 -0.0756  0.2939  0.0843
 1417BOLB   C4A33992  19.417   3.256  14.143  0.3199 -0.0525 -0.0011
 1417BOLB   C1B33993  18.467   2.837  15.793  0.0638  0.2516  0.2103
 1417BOLB   C2B33994  18.366   2.533  15.596 -0.1549 -0.2458 -0.1216
 1417BOLB   C3B33995  18.236   2.609  15.244  0.0121 -0.2863 -0.1776
 1417BOLB   C4B33996  17.925   2.460  15.012  0.3364  0.1101 -0.0357
 1417BOLB   NC233997  19.677   4.258  12.409 -0.1280 -0.1354  0.0691
 1417BOLB   PO233998  19.209   4.308  12.327  0.0997  0.2010  0.2920
 1417BOLB   GL333999  19.247   4.046  12.633  0.1791 -0.1838  0.0026
 1417BOLB   GL434000  18.953   3.983  12.804  0.2213 -0.1576  0.6005
 1417BOLB   C1C34001  19.480   3.983  13.041 -0.2203 -0.1691 -0.0190
 1417BOLB   C2C34002  19.580   4.069  13.424 -0.0013 -0.1302 -0.0980
 1417BOLB   C3C34003  19.663   4.078  13.849  0.1105  0.0631 -0.0032
 1417BOLB   C4C34004  19.607   3.636  13.917 -0.1127 -0.1470 -0.0706
 1417BOLB   C1D34005  19.090   3.718  13.100 -0.0586 -0.0417  0.0023
 1417BOLB   C2D34006  19.279   3.602  13.478  0.0246  0.0549  0.0069
 1417BOLB   C3D34007  19.082   3.529  13.922 -0.2605 -0.0717 -0.0761
 1417BOLB   C4D34008  18.788   3.244  14.240 -0.0908 -0.0213  0.0557
 1418BOLB   NC134009   7.863   4.678  22.212  0.0536 -0.5737 -0.2669
 1418BOLB   PO134010   7.727   4.282  22.248 -0.0134 -0.0211 -0.0695
 1418BOLB   GL134011   7.429   4.527  22.318 -0.2365 -0.0431  0.2476
 1418BOLB   GL234012   7.380   4.653  22.006  0.2208  0.3165 -0.0584
 1418BOLB   C1A34013   6.956   4.426  22.376  0.1503 -0.0917  0.2240
 1418BOLB   C2A34014   6.618   4.549  22.325 -0.0198 -0.3294  0.2705
 1418BOLB   C3A34015   6.125   4.584  22.224  0.0093  0.0815  0.1325
 1418BOLB   C4A34016   5.890   4.600  21.889 -0.0524 -0.0731 -0.4877
 1418BOLB   C1B34017   6.969   4.836  21.913  0.2033  0.1242 -0.0565
 1418BOLB   C2B34018   6.652   5.031  21.727  0.2076  0.3876 -0.0198
 1418BOLB   C3B34019   6.310   4.804  21.652 -0.4139  0.0906 -0.1138
 1418BOLB   C4B34020   6.174   4.517  21.360  0.0287 -0.1634 -0.2805
 1418BOLB   NC234021   3.389   4.428  21.455 -0.3349  0.1266 -0.0901
 1418BOLB   PO234022   3.681   4.344  20.997  0.1163  0.2375 -0.2250
 1418BOLB   GL334023   4.028   4.390  21.204 -0.1746 -0.1740  0.0643
 1418BOLB   GL434024   4.218   4.320  20.879  0.1185  0.4608 -0.4456
 1418BOLB   C1C34025   4.354   4.518  21.450  0.2009 -0.0667  0.1456
 1418BOLB   C2C34026   4.787   4.622  21.712 -0.1871  0.1714 -0.0350
 1418BOLB   C3C34027   5.119   4.473  21.614  0.0548 -0.3563 -0.0100
 1418BOLB   C4C34028   5.572   4.447  21.613  0.2820  0.1823  0.2748
 1418BOLB   C1D34029   4.535   4.157  21.168 -0.2195 -0.0705  0.0975
 1418BOLB   C2D34030   4.987   4.208  21.232  0.0343 -0.0137  0.2854
 1418BOLB   C3D34031   5.378   4.056  21.318 -0.1799 -0.3406  0.0550
 1418BOLB   C4D34032   5.826   3.876  21.564  0.1690 -0.0340 -0.3087
 1419BOLB   NC134033  12.125  -3.151  27.597 -0.1462 -0.2368 -0.1353
 1419BOLB   PO134034  12.066  -2.743  27.846  0.0942  0.1035 -0.4135
 1419BOLB   GL134035  12.036  -3.091  28.211 -0.1656  0.0649  0.0069
 1419BOLB   GL234036  11.817  -2.956  28.331  0.1550 -0.4417 -0.1165
 1419BOLB   C1A34037  11.753  -3.436  28.471 -0.0971 -0.1152  0.0634
 1419BOLB   C2A34038  11.904  -3.728  28.693  0.2307 -0.0732  0.0138
 1419BOLB   C3A34039  11.880  -4.145  28.960  0.2006 -0.0334  0.2409
 1419BOLB   C4A34040  12.050  -4.318  29.376 -0.1439  0.0661  0.2340
 1419BOLB   C1B34041  11.532  -3.057  28.660  0.0752  0.1397  0.1181
 1419BOLB   C2B34042  11.540  -3.405  28.977  0.0705 -0.2608  0.0012
 1419BOLB   C3B34043  11.540  -3.739  29.206  0.0589 -0.1511  0.1998
 1419BOLB   C4B34044  11.355  -3.881  29.553  0.0021  0.0703 -0.0590
 1419BOLB   NC234045  12.773  -5.961  31.225 -0.3442  0.2176 -0.0556
 1419BOLB   PO234046  12.394  -6.069  30.904 -0.0751 -0.3260 -0.0331
 1419BOLB   GL334047  12.306  -5.568  30.814 -0.1857 -0.1729 -0.0033
 1419BOLB   GL434048  12.014  -5.496  30.653 -0.2787  0.2615  0.2169
 1419BOLB   C1C34049  12.377  -5.158  30.607 -0.2693 -0.0528 -0.0520
 1419BOLB   C2C34050  12.599  -4.809  30.424  0.3035 -0.1818  0.1219
 1419BOLB   C3C34051  12.517  -4.454  30.086  0.0767  0.0937  0.1750
 1419BOLB   C4C34052  12.294  -4.182  29.692  0.3118 -0.1633  0.1681
 1419BOLB   C1D34053  11.923  -5.159  30.393  0.1553  0.0470  0.1347
 1419BOLB   C2D34054  12.097  -4.906  30.170  0.0200  0.1003  0.2013
 1419BOLB   C3D34055  12.463  -4.955  29.879  0.1689 -0.1539 -0.1115
 1419BOLB   C4D34056  12.795  -4.762  29.688  0.1531 -0.0090  0.1382
 1420BOLB   NC134057  16.428  12.213  24.705  0.0620  0.0267 -0.2942
 1420BOLB   PO134058  16.595  12.284  25.181 -0.1227  0.2807 -0.0385
 1420BOLB   GL134059  16.742  12.553  24.883 -0.1339 -0.0218 -0.0450
 1420BOLB   GL234060  17.124  12.551  24.749 -0.1536  0.1264 -0.0908
 1420BOLB   C1A34061  16.701  12.850  24.549  0.2033  0.2723 -0.2231
 1420BOLB   C2A34062  16.825  13.270  24.332  0.1551 -0.1937  0.0025
 1420BOLB   C3A34063  16.570  13.538  24.168  0.1587 -0.1617 -0.1139
 1420BOLB   C4A34064  16.762  13.876  23.915  0.5237 -0.2112 -0.1073
 1420BOLB   C1B34065  17.220  12.788  24.416 -0.0242  0.0104  0.2294
 1420BOLB   C2B34066  17.319  13.061  24.038  0.3910  0.1988  0.1799
 1420BOLB   C3B34067  17.474  13.232  23.680  0.0383 -0.3546 -0.0320
 1420BOLB   C4B34068  17.543  13.721  23.531 -0.1527 -0.1922  0.0996
 1420BOLB   NC234069  16.945  16.363  24.075  0.0534  0.1869 -0.4990
 1420BOLB   PO234070  17.105  16.298  24.485  0.2369 -0.2868  0.0158
 1420BOLB   GL334071  17.010  15.858  24.505 -0.0365 -0.1326 -0.1716
 1420BOLB   GL434072  16.887  15.894  24.668  0.0188 -0.0202  0.3818
 1420BOLB   C1C34073  16.991  15.464  24.405  0.0496  0.0039 -0.1378
 1420BOLB   C2C34074  16.989  14.964  24.306 -0.1240 -0.3808  0.0774
 1420BOLB   C3C34075  16.813  14.618  24.224 -0.2444  0.2660 -0.0462
 1420BOLB   C4C34076  16.831  14.271  24.054 -0.0853  0.1866 -0.0246
 1420BOLB   C1D34077  16.912  15.547  24.948  0.0294  0.3330  0.2274
 1420BOLB   C2D34078  17.039  15.150  24.950 -0.2864 -0.0603  0.2341
 1420BOLB   C3D34079  16.836  14.727  24.875  0.2100  0.1018  0.2196
 1420BOLB   C4D34080  16.824  14.240  24.642 -0.2014  0.4100 -0.0080
 1421BOLB   NC134081  12.189   6.455  18.624 -0.1754 -0.0295  0.0296
 1421BOLB   PO134082  12.582   6.587  18.369  0.0776 -0.3233  0.3139
 1421BOLB   GL134083  12.665   6.979  18.039  0.0092 -0.1497 -0.0052
 1421BOLB   GL234084  12.666   6.834  17.743 -0.0619  0.0568 -0.0310
 1421BOLB   C1A34085  12.352   7.311  17.790 -0.0557  0.2612 -0.3219
 1421BOLB   C2A34086  11.979   7.451  17.454 -0.1222 -0.2640 -0.1664
 1421BOLB   C3A34087  11.581   7.593  17.295  0.0911  0.0831  0.1230
 1421BOLB   C4A34088  11.317   7.697  16.944 -0.0442  0.5408 -0.4108
 1421BOLB   C1B34089  12.373   6.887  17.447 -0.2240 -0.1568 -0.3570
 1421BOLB   C2B34090  12.202   7.120  17.095  0.0762  0.1151  0.4041
 1421BOLB   C3B34091  12.264   7.113  16.565  0.1555 -0.0349 -0.1943
 1421BOLB   C4B34092  12.234   7.124  16.152  0.1203 -0.0621  0.2989
 1421BOLB   NC234093   9.869   8.453  15.277  0.2021  0.1224  0.1319
 1421BOLB   PO234094   9.947   8.471  15.665  0.3510  0.0541 -0.0164
 1421BOLB   GL334095  10.341   8.150  15.819  0.2433 -0.2793  0.1375
 1421BOLB   GL434096  10.613   8.318  15.879  0.2080 -0.0063 -0.0541
 1421BOLB   C1C34097  10.512   7.827  16.071  0.2577 -0.0929  0.1588
 1421BOLB   C2C34098  10.811   7.639  16.001 -0.0885 -0.0885 -0.2562
 1421BOLB   C3C34099  11.047   7.513  16.325  0.1368 -0.1043  0.4830
 1421BOLB   C4C34100  11.270   7.504  16.565  0.2211 -0.3760 -0.0218
 1421BOLB   C1D34101  11.033   8.096  16.063  0.2099  0.0608 -0.1205
 1421BOLB   C2D34102  11.387   8.024  16.373 -0.1297 -0.1920  0.1454
 1421BOLB   C3D34103  11.770   7.777  16.738  0.1738 -0.1269 -0.0344
 1421BOLB   C4D34104  12.107   7.562  16.844  0.2058  0.0865  0.2951
 1422BOLB   NC134105  16.015  12.342  26.244  0.0546  0.1193  0.3514
 1422BOLB   PO134106  15.935  12.720  26.350  0.0552 -0.1104  0.0371
 1422BOLB   GL134107  15.816  13.133  26.434  0.0373 -0.0651 -0.3729
 1422BOLB   GL234108  15.648  13.173  26.217 -0.1049  0.0340 -0.0727
 1422BOLB   C1A34109  15.837  13.465  26.660  0.0008 -0.1763 -0.0130
 1422BOLB   C2A34110  15.769  13.839  26.527 -0.0767 -0.1131 -0.1250
 1422BOLB   C3A34111  15.571  14.287  26.582 -0.0253 -0.2598 -0.3983
 1422BOLB   C4A34112  15.395  14.527  26.235 -0.0647 -0.1775  0.1312
 1422BOLB   C1B34113  15.610  13.648  26.138  0.2673 -0.1391 -0.3397
 1422BOLB   C2B34114  15.341  14.048  26.258  0.3047 -0.0778  0.1182
 1422BOLB   C3B34115  14.982  14.270  26.120  0.1036  0.0463  0.4556
 1422BOLB   C4B34116  14.822  14.455  25.716 -0.0358 -0.1839  0.0566
 1422BOLB   NC234117  14.106  16.531  26.056  0.2361 -0.0991  0.1624
 1422BOLB   PO234118  14.301  16.286  25.668  0.2190 -0.3869 -0.1340
 1422BOLB   GL334119  14.182  15.869  25.498 -0.1259  0.1321 -0.3342
 1422BOLB   GL434120  13.870  15.915  25.625 -0.1885  0.1372 -0.1374
 1422BOLB   C1C34121  14.406  15.537  25.446  0.0518 -0.1247 -0.1198
 1422BOLB   C2C34122  14.537  15.163  25.698  0.3429 -0.1334 -0.0967
 1422BOLB   C3C34123  14.709  14.927  26.086 -0.1536  0.1281  0.1457
 1422BOLB   C4C34124  15.096  14.752  26.188 -0.0238 -0.2108 -0.0079
 1422BOLB   C1D34125  13.877  15.479  25.563 -0.1218  0.4305 -0.0592
 1422BOLB   C2D34126  14.024  15.078  25.489  0.3083  0.1166 -0.0800
 1422BOLB   C3D34127  14.095  14.690  25.471 -0.0856 -0.3406 -0.0911
 1422BOLB   C4D34128  13.909  14.308  25.443 -0.0607 -0.2405  0.0573
 1423BOLB   NC134129  12.992  -1.544  17.831  0.2468 -0.0496 -0.2652
 1423BOLB   PO134130  13.023  -1.984  17.757  0.4385  0.0660 -0.2639
 1423BOLB   GL134131  13.032  -2.196  17.417 -0.0111 -0.4019 -0.0611
 1423BOLB   GL234132  12.851  -2.409  17.339 -0.1883 -0.1643 -0.0141
 1423BOLB   C1A34133  13.270  -2.128  16.993  0.0731  0.0590 -0.1288
 1423BOLB   C2A34134  13.105  -1.986  16.501 -0.0155  0.0083  0.2327
 1423BOLB   C3A34135  12.963  -1.643  16.327 -0.0957 -0.1958  0.2971
 1423BOLB   C4A34136  12.666  -1.620  16.115  0.1362 -0.2066  0.3391
 1423BOLB   C1B34137  12.770  -2.270  16.941  0.0582  0.0823 -0.0486
 1423BOLB   C2B34138  12.593  -2.397  16.542 -0.0057 -0.0027 -0.1270
 1423BOLB   C3B34139  12.370  -2.698  16.294  0.2224  0.1050  0.0925
 1423BOLB   C4B34140  12.345  -2.949  15.917  0.1533 -0.0216 -0.0977
 1423BOLB   NC234141  12.351  -2.000  13.745  0.2575 -0.4208 -0.0709
 1423BOLB   PO234142  12.784  -2.019  13.841 -0.0300  0.1292 -0.2227
 1423BOLB   GL334143  12.992  -2.084  14.100  0.0396  0.1911 -0.1062
 1423BOLB   GL434144  13.131  -2.291  14.138  0.0561 -0.2721 -0.3452
 1423BOLB   C1C34145  12.960  -1.919  14.537  0.1412 -0.0638  0.0147
 1423BOLB   C2C34146  12.914  -1.903  14.979 -0.0924 -0.2385  0.1471
 1423BOLB   C3C34147  12.983  -1.708  15.362 -0.0693 -0.2508  0.2805
 1423BOLB   C4C34148  12.921  -1.575  15.754  0.0035 -0.1012 -0.0380
 1423BOLB   C1D34149  13.265  -2.314  14.548  0.2235  0.0831  0.3122
 1423BOLB   C2D34150  13.345  -2.198  14.912 -0.1140 -0.2155  0.0367
 1423BOLB   C3D34151  13.389  -1.965  15.265 -0.1524 -0.0517  0.1704
 1423BOLB   C4D34152  13.536  -1.639  15.623 -0.0997  0.0490 -0.0040
 1424BOLB   NC134153  11.640  11.528  29.208 -0.2664  0.0885  0.0647
 1424BOLB   PO134154  11.232  11.408  29.360 -0.1110 -0.3007 -0.0345
 1424BOLB   GL134155  11.029  11.872  29.426  0.2108 -0.2079  0.4679
 1424BOLB   GL234156  10.673  11.899  29.573 -0.1725 -0.2181  0.4068
 1424BOLB   C1A34157  10.868  12.421  29.370  0.2856  0.1189 -0.1535
 1424BOLB   C2A34158  10.611  12.719  29.096 -0.0087  0.0598 -0.4284
 1424BOLB   C3A34159  10.182  12.967  29.179  0.1803 -0.3291 -0.1758
 1424BOLB   C4A34160   9.869  13.206  29.283  0.1371  0.1797 -0.0600
 1424BOLB   C1B34161  10.561  12.303  29.765  0.1808 -0.1152  0.2565
 1424BOLB   C2B34162  10.197  12.515  29.743  0.0342  0.0438 -0.1082
 1424BOLB   C3B34163   9.847  12.505  30.101 -0.2474  0.1030 -0.0787
 1424BOLB   C4B34164   9.651  12.116  30.012 -0.1233  0.1614 -0.2066
 1424BOLB   NC234165   7.852  13.162  30.512 -0.0343 -0.0280 -0.0820
 1424BOLB   PO234166   7.864  13.317  30.023 -0.4677 -0.0363 -0.2676
 1424BOLB   GL334167   8.250  13.198  30.159  0.0971  0.3160 -0.1566
 1424BOLB   GL434168   8.298  12.920  30.430  0.2269  0.1591 -0.2015
 1424BOLB   C1C34169   8.553  13.079  29.914 -0.0627 -0.1440 -0.1462
 1424BOLB   C2C34170   8.782  13.126  29.565 -0.2918  0.2856 -0.0964
 1424BOLB   C3C34171   9.069  13.052  29.156 -0.1803 -0.0753  0.0504
 1424BOLB   C4C34172   9.471  13.124  29.177 -0.0947  0.2808 -0.0241
 1424BOLB   C1D34173   8.412  12.664  30.102  0.2488 -0.0312  0.1851
 1424BOLB   C2D34174   8.515  12.215  29.911  0.1903 -0.4765  0.1123
 1424BOLB   C3D34175   8.738  11.785  29.857 -0.0754  0.1045  0.1360
 1424BOLB   C4D34176   9.011  11.418  29.842 -0.0970 -0.0644 -0.0894
 1425BOLB   NC134177  28.276   3.002  20.484 -0.0242  0.0690 -0.0185
 1425BOLB   PO134178  27.828   2.865  20.476  0.0495  0.4414 -0.1674
 1425BOLB   GL134179  27.433   2.749  20.613 -0.2436  0.2548  0.4135
 1425BOLB   GL234180  27.333   2.909  20.271 -0.1413 -0.1802 -0.0755
 1425BOLB   C1A34181  26.999   2.744  20.650  0.2555  0.0248 -0.0837
 1425BOLB   C2A34182  26.612   2.525  20.521 -0.0719  0.2339 -0.0101
 1425BOLB   C3A34183  26.294   2.374  20.836  0.0595 -0.3125  0.1720
 1425BOLB   C4A34184  26.283   2.015  21.085 -0.0305  0.0297 -0.1927
 1425BOLB   C1B34185  26.752   2.998  20.267 -0.0354  0.0863  0.3148
 1425BOLB   C2B34186  26.437   2.892  20.145 -0.0614  0.2129 -0.0498
 1425BOLB   C3B34187  25.933   3.007  20.237 -0.1585  0.3059  0.0980
 1425BOLB   C4B34188  25.540   3.032  20.180  0.0818 -0.0078  0.0938
 1425BOLB   NC234189  28.276   0.991  19.942 -0.0354 -0.2291  0.2297
 1425BOLB   PO234190  27.831   0.878  19.846 -0.2240 -0.2355 -0.0029
 1425BOLB   GL334191  27.766   1.043  20.272  0.1481 -0.1689  0.1745
 1425BOLB   GL434192  27.663   0.823  20.494  0.0743  0.4206  0.0665
 1425BOLB   C1C34193  27.418   1.306  20.541  0.0443 -0.4539 -0.2320
 1425BOLB   C2C34194  27.095   1.227  20.930 -0.0371  0.0792 -0.2171
 1425BOLB   C3C34195  26.867   1.473  21.228  0.2668  0.3845  0.1944
 1425BOLB   C4C34196  26.518   1.623  21.309 -0.3512 -0.3848  0.3931
 1425BOLB   C1D34197  27.161   0.915  20.531  0.2612  0.3299 -0.0024
 1425BOLB   C2D34198  26.956   1.278  20.473  0.1486  0.1391 -0.1815
 1425BOLB   C3D34199  26.644   1.423  20.177  0.4463  0.0194  0.0476
 1425BOLB   C4D34200  26.320   1.762  20.039  0.1358 -0.2893  0.0432
 1426BOLB   NC134201  12.105   2.510  32.600 -0.2141  0.1199 -0.2123
 1426BOLB   PO134202  12.382   2.650  32.871  0.1021  0.6938  0.0574
 1426BOLB   GL134203  12.189   2.514  33.271  0.0315 -0.1470 -0.0022
 1426BOLB   GL234204  12.389   2.388  33.518  0.0374  0.4403 -0.2748
 1426BOLB   C1A34205  11.826   2.577  33.607 -0.0306 -0.0339  0.1111
 1426BOLB   C2A34206  11.504   2.469  33.863 -0.3869  0.0187  0.1111
 1426BOLB   C3A34207  11.142   2.497  34.070 -0.2493 -0.1061 -0.2345
 1426BOLB   C4A34208  11.005   2.492  34.511  0.1118 -0.3474 -0.1547
 1426BOLB   C1B34209  12.384   1.974  33.721 -0.0722  0.0063 -0.0560
 1426BOLB   C2B34210  12.389   1.689  34.142  0.2299 -0.0544  0.1906
 1426BOLB   C3B34211  12.647   1.587  34.454  0.2459  0.3131  0.0922
 1426BOLB   C4B34212  12.643   1.989  34.742  0.1350 -0.0575  0.0201
 1426BOLB   NC234213  11.015   3.411  36.964 -0.0664 -0.0019 -0.0949
 1426BOLB   PO234214  10.702   3.199  36.716 -0.1137 -0.0206 -0.0096
 1426BOLB   GL334215  10.979   2.963  36.465 -0.0156 -0.0034 -0.3524
 1426BOLB   GL434216  10.829   3.097  36.206 -0.0051  0.3007 -0.0872
 1426BOLB   C1C34217  11.038   2.605  36.251  0.1404 -0.0136  0.0193
 1426BOLB   C2C34218  11.047   2.563  35.787  0.3159  0.1600  0.0127
 1426BOLB   C3C34219  10.934   2.329  35.354  0.0014 -0.1445  0.1262
 1426BOLB   C4C34220  10.918   2.454  34.989 -0.2223 -0.2715  0.0022
 1426BOLB   C1D34221  10.933   3.059  35.849 -0.4046  0.3873  0.1730
 1426BOLB   C2D34222  11.160   3.146  35.521  0.1745 -0.1102 -0.0725
 1426BOLB   C3D34223  11.114   3.251  35.100 -0.2575  0.0909 -0.0250
 1426BOLB   C4D34224  11.004   3.407  34.646  0.0943  0.1155  0.1708
 1427BOLB   NC134225  17.982   9.607  31.210 -0.1425 -0.0192 -0.1056
 1427BOLB   PO134226  18.136   9.943  31.452  0.2067 -0.1611  0.1625
 1427BOLB   GL134227  18.278  10.275  31.644  0.1438  0.2064 -0.0911
 1427BOLB   GL234228  18.074  10.510  31.717 -0.5068  0.1973  0.0530
 1427BOLB   C1A34229  18.601  10.481  31.870  0.1259 -0.3887 -0.1911
 1427BOLB   C2A34230  18.720  10.681  32.267  0.0804  0.1316  0.1489
 1427BOLB   C3A34231  18.886  11.038  32.508  0.1995  0.1469  0.2697
 1427BOLB   C4A34232  18.738  11.458  32.744  0.2346 -0.1256  0.0676
 1427BOLB   C1B34233  18.187  10.696  32.018 -0.1266 -0.0914  0.2678
 1427BOLB   C2B34234  18.374  11.100  32.244  0.1906 -0.0277  0.2353
 1427BOLB   C3B34235  18.440  11.560  32.342  0.1653 -0.2482 -0.0324
 1427BOLB   C4B34236  18.781  11.796  32.413 -0.0373 -0.3000 -0.0389
 1427BOLB   NC234237  19.776  13.227  33.496  0.1476 -0.1120  0.0471
 1427BOLB   PO234238  19.845  13.412  33.114 -0.0823  0.0180 -0.1935
 1427BOLB   GL334239  19.812  13.114  32.918  0.1454  0.1098 -0.0518
 1427BOLB   GL434240  19.638  12.997  32.744 -0.0085  0.0620 -0.0697
 1427BOLB   C1C34241  19.644  12.708  33.116  0.0791  0.1171  0.2277
 1427BOLB   C2C34242  19.267  12.425  33.283 -0.0040 -0.3604 -0.0064
 1427BOLB   C3C34243  18.916  12.110  33.430 -0.1734  0.2826  0.2073
 1427BOLB   C4C34244  18.729  11.734  33.087 -0.1791  0.0404 -0.1539
 1427BOLB   C1D34245  19.404  12.905  32.363  0.0785 -0.0280  0.1110
 1427BOLB   C2D34246  19.105  12.687  32.194  0.0297 -0.2661  0.1612
 1427BOLB   C3D34247  18.735  12.284  32.258 -0.1795 -0.3048  0.0461
 1427BOLB   C4D34248  18.361  12.100  32.199  0.2793  0.2814 -0.1435
 1428BOLB   NC134249  15.433  12.105  25.390  0.2699 -0.3100  0.0469
 1428BOLB   PO134250  15.672  12.482  25.233 -0.1593  0.3748  0.0531
 1428BOLB   GL134251  15.893  12.872  25.271  0.1140 -0.0482 -0.0030
 1428BOLB   GL234252  15.684  12.972  25.482  0.0806  0.2636  0.0055
 1428BOLB   C1A34253  16.263  13.227  25.338 -0.2201  0.2007 -0.0054
 1428BOLB   C2A34254  16.357  13.619  25.310 -0.2331 -0.1953  0.1883
 1428BOLB   C3A34255  16.346  14.005  25.279 -0.1111  0.0238 -0.2666
 1428BOLB   C4A34256  16.684  14.183  25.518 -0.1770 -0.1564  0.2382
 1428BOLB   C1B34257  15.527  13.347  25.590 -0.1270 -0.1580 -0.0316
 1428BOLB   C2B34258  15.290  13.774  25.738 -0.2589  0.2554  0.0524
 1428BOLB   C3B34259  14.948  13.742  26.079  0.2522  0.0316 -0.1462
 1428BOLB   C4B34260  14.735  13.820  26.489  0.0772 -0.0007  0.1657
 1428BOLB   NC234261  17.209  16.293  26.273 -0.0319 -0.1125 -0.1595
 1428BOLB   PO234262  16.933  16.212  25.994 -0.0424 -0.3051  0.0205
 1428BOLB   GL334263  17.044  15.887  25.943  0.2053  0.1088 -0.2683
 1428BOLB   GL434264  17.173  15.756  26.169 -0.0789  0.1721 -0.2194
 1428BOLB   C1C34265  16.853  15.565  25.789  0.0081 -0.0325 -0.2042
 1428BOLB   C2C34266  16.812  15.244  25.679 -0.0882 -0.1336 -0.2278
 1428BOLB   C3C34267  16.823  14.862  25.893 -0.0131 -0.1113  0.3433
 1428BOLB   C4C34268  16.702  14.496  25.838 -0.3033 -0.0319 -0.4234
 1428BOLB   C1D34269  17.095  15.362  26.440 -0.1949  0.0649  0.4406
 1428BOLB   C2D34270  17.027  14.990  26.503  0.2389  0.0335  0.2001
 1428BOLB   C3D34271  17.144  14.622  26.224 -0.1829 -0.1756  0.1037
 1428BOLB   C4D34272  17.006  14.159  26.078  0.3431 -0.0470  0.1875
 1429BOLB   NC134273  14.490   1.451  16.127 -0.2734 -0.2561  0.0565
 1429BOLB   PO134274  14.850   1.305  16.083 -0.0654  0.2775  0.1757
 1429BOLB   GL134275  14.896   1.096  15.686  0.2475 -0.2269  0.1889
 1429BOLB   GL234276  15.162   1.037  15.507 -0.3274  0.3431 -0.2471
 1429BOLB   C1A34277  14.697   0.820  15.404  0.0339  0.1825 -0.1354
 1429BOLB   C2A34278  14.763   0.865  15.039 -0.1785 -0.1265  0.0676
 1429BOLB   C3A34279  14.929   0.951  14.702  0.1834  0.3766  0.2800
 1429BOLB   C4A34280  15.030   0.774  14.420  0.4984  0.0698  0.1891
 1429BOLB   C1B34281  15.115   0.639  15.392 -0.0273 -0.1630  0.3310
 1429BOLB   C2B34282  15.058   0.317  14.940  0.1953  0.1341 -0.2001
 1429BOLB   C3B34283  15.214   0.060  14.652  0.2326 -0.2971  0.1447
 1429BOLB   C4B34284  15.210  -0.049  14.228  0.1993 -0.1579 -0.0800
 1429BOLB   NC234285  13.884  -0.698  12.772  0.0777 -0.2679 -0.3271
 1429BOLB   PO234286  13.724  -0.222  12.819  0.0334  0.0212 -0.0714
 1429BOLB   GL334287  14.085  -0.366  13.106  0.0357  0.0878 -0.2179
 1429BOLB   GL434288  14.165  -0.640  13.226 -0.1023  0.1601  0.2579
 1429BOLB   C1C34289  14.427  -0.197  13.329 -0.1701  0.2528  0.4076
 1429BOLB   C2C34290  14.717  -0.098  13.614  0.0583  0.0541  0.0200
 1429BOLB   C3C34291  14.959   0.169  13.829  0.0432  0.3553  0.0897
 1429BOLB   C4C34292  14.950   0.475  14.106  0.2711  0.2297 -0.2604
 1429BOLB   C1D34293  14.370  -0.675  13.664 -0.0436  0.1372 -0.1292
 1429BOLB   C2D34294  14.462  -0.502  14.005  0.0551 -0.3896  0.2075
 1429BOLB   C3D34295  14.455  -0.368  14.458  0.1654  0.2121 -0.3146
 1429BOLB   C4D34296  14.282   0.006  14.566 -0.0038  0.0390  0.1061
 1430BOLB   NC134297  20.495   7.603  19.462 -0.0744 -0.0698  0.4959
 1430BOLB   PO134298  20.884   7.879  19.492  0.0794 -0.3469 -0.1830
 1430BOLB   GL134299  21.281   7.976  19.183 -0.0922 -0.0655 -0.0141
 1430BOLB   GL234300  21.463   8.151  19.417  0.0201  0.2706 -0.4217
 1430BOLB   C1A34301  21.373   8.243  18.917 -0.3982  0.1015 -0.2121
 1430BOLB   C2A34302  21.579   8.507  18.635 -0.1949  0.1686  0.0306
 1430BOLB   C3A34303  21.547   8.580  18.226 -0.0290 -0.0511 -0.0261
 1430BOLB   C4A34304  21.690   8.845  17.936 -0.1870 -0.0299  0.0077
 1430BOLB   C1B34305  21.785   8.345  19.275 -0.0004 -0.1975 -0.0176
 1430BOLB   C2B34306  22.029   8.714  19.371  0.2141 -0.1700  0.0504
 1430BOLB   C3B34307  22.411   8.883  19.441  0.3058  0.0909  0.0243
 1430BOLB   C4B34308  22.715   9.231  19.402 -0.3660  0.0093 -0.0005
 1430BOLB   NC234309  21.942  10.203  15.452 -0.3399  0.1852  0.1503
 1430BOLB   PO234310  22.127   9.926  15.824 -0.1651  0.1366 -0.1694
 1430BOLB   GL334311  22.096   9.652  16.243 -0.2253  0.1826 -0.1051
 1430BOLB   GL434312  21.795   9.572  16.465 -0.0563  0.1072 -0.0943
 1430BOLB   C1C34313  22.329   9.311  16.525  0.3050 -0.2707  0.1289
 1430BOLB   C2C34314  22.236   8.843  16.808  0.1292  0.0336 -0.0498
 1430BOLB   C3C34315  22.111   8.956  17.214 -0.2581 -0.1569 -0.3182
 1430BOLB   C4C34316  21.818   9.010  17.532 -0.0907  0.1239 -0.1806
 1430BOLB   C1D34317  21.631   9.193  16.425 -0.7372  0.0888 -0.0654
 1430BOLB   C2D34318  21.382   8.847  16.610  0.0843  0.0258  0.3358
 1430BOLB   C3D34319  21.148   8.541  16.927 -0.0363 -0.1514  0.3487
 1430BOLB   C4D34320  21.231   8.223  17.136 -0.0441 -0.0948 -0.1930
 1431BOLB   NC134321   8.869   3.241  30.844  0.0426 -0.2938 -0.2168
 1431BOLB   PO134322   9.293   3.290  31.048 -0.1091 -0.1081  0.1413
 1431BOLB   GL134323   8.944   3.326  31.340 -0.0312  0.1378 -0.1400
 1431BOLB   GL234324   8.884   3.081  31.588  0.0301 -0.7126  0.4028
 1431BOLB   C1A34325   8.650   3.528  31.633  0.0708 -0.2021  0.1247
 1431BOLB   C2A34326   8.565   3.769  32.009  0.0344  0.2686 -0.1836
 1431BOLB   C3A34327   8.387   3.900  32.355  0.0947  0.1365  0.0664
 1431BOLB   C4A34328   8.244   3.507  32.599 -0.1994  0.1743  0.0990
 1431BOLB   C1B34329   8.528   2.774  31.574  0.4178  0.0095 -0.2234
 1431BOLB   C2B34330   8.325   2.422  31.973 -0.1770  0.2041  0.1439
 1431BOLB   C3B34331   8.149   2.606  32.374  0.0461  0.1793  0.0042
 1431BOLB   C4B34332   7.924   2.621  32.726 -0.0552 -0.0887 -0.1444
 1431BOLB   NC234333   6.190   2.296  33.490  0.1453  0.0140  0.2225
 1431BOLB   PO234334   6.394   2.617  33.764  0.1531  0.0872 -0.4230
 1431BOLB   GL334335   6.757   2.659  33.582 -0.2575  0.1757  0.2276
 1431BOLB   GL434336   6.970   2.503  33.899 -0.4526 -0.0987 -0.1129
 1431BOLB   C1C34337   7.111   2.923  33.606  0.1228  0.2491 -0.0829
 1431BOLB   C2C34338   7.545   2.938  33.354  0.2045  0.2890 -0.1971
 1431BOLB   C3C34339   7.843   3.027  33.137 -0.0667 -0.2031  0.1508
 1431BOLB   C4C34340   8.000   3.282  32.718  0.0048 -0.0619 -0.2210
 1431BOLB   C1D34341   7.250   2.254  33.576  0.1336  0.1821  0.2863
 1431BOLB   C2D34342   7.555   2.028  33.428  0.0151 -0.1720 -0.0303
 1431BOLB   C3D34343   7.514   2.019  33.031  0.3130 -0.1627  0.0080
 1431BOLB   C4D34344   7.239   1.953  32.625  0.4265  0.1099  0.0355
 1432BOLB   NC134345  13.512   9.099  19.640  0.1446 -0.2113 -0.1091
 1432BOLB   PO134346  13.620   9.256  19.252 -0.5291 -0.1319  0.1103
 1432BOLB   GL134347  13.463   9.441  18.782 -0.1072  0.0059  0.0852
 1432BOLB   GL234348  13.194   9.215  18.843  0.3183 -0.1308  0.0265
 1432BOLB   C1A34349  13.258   9.807  18.457 -0.1452  0.2709 -0.3404
 1432BOLB   C2A34350  13.284  10.223  18.533 -0.0400  0.1508  0.0612
 1432BOLB   C3A34351  13.244  10.645  18.508  0.1399  0.2175  0.1191
 1432BOLB   C4A34352  13.276  10.889  18.094 -0.2882 -0.2332  0.3981
 1432BOLB   C1B34353  12.937   9.386  18.542 -0.0622  0.0166 -0.1101
 1432BOLB   C2B34354  12.688   9.532  18.249 -0.2625 -0.0922  0.0775
 1432BOLB   C3B34355  12.355   9.812  18.218  0.1525 -0.1150 -0.0154
 1432BOLB   C4B34356  12.200  10.126  17.983 -0.0110  0.0079  0.2465
 1432BOLB   NC234357  11.459  11.896  16.441  0.0844 -0.0124 -0.3952
 1432BOLB   PO234358  11.889  11.801  16.672 -0.2347  0.0011 -0.2096
 1432BOLB   GL334359  11.852  11.507  16.949 -0.1182  0.2127 -0.1848
 1432BOLB   GL434360  11.785  11.666  17.292 -0.1533 -0.0137  0.0601
 1432BOLB   C1C34361  12.008  11.181  17.222 -0.0934  0.0573 -0.4426
 1432BOLB   C2C34362  12.379  11.135  17.505  0.1051 -0.0910  0.1396
 1432BOLB   C3C34363  12.649  11.209  17.783  0.0005  0.0176 -0.1322
 1432BOLB   C4C34364  13.051  11.054  17.814  0.1199 -0.0103 -0.0423
 1432BOLB   C1D34365  11.970  11.473  17.616  0.2636 -0.2463 -0.1828
 1432BOLB   C2D34366  12.119  11.195  17.930  0.0568  0.2931  0.2142
 1432BOLB   C3D34367  12.319  10.895  18.009  0.0835  0.2447  0.2287
 1432BOLB   C4D34368  12.500  10.518  17.838 -0.1726 -0.2281 -0.2777
 1433BOLB   NC134369  11.258  11.844  26.827 -0.0447  0.4259  0.0162
 1433BOLB   PO134370  10.930  11.732  26.454 -0.3140 -0.0758  0.2221
 1433BOLB   GL134371  10.981  12.137  26.213 -0.0158 -0.3083  0.0719
 1433BOLB   GL234372  10.876  12.293  26.535 -0.0141  0.2417 -0.1753
 1433BOLB   C1A34373  10.915  12.590  26.012  0.0131  0.2050 -0.1094
 1433BOLB   C2A34374  10.771  12.968  25.853  0.1670 -0.0229  0.0211
 1433BOLB   C3A34375  10.784  13.285  26.026 -0.0911 -0.0476  0.1665
 1433BOLB   C4A34376  10.913  13.657  26.270  0.1515  0.3853  0.0224
 1433BOLB   C1B34377  10.785  12.804  26.521 -0.2993  0.2533  0.0917
 1433BOLB   C2B34378  10.840  13.238  26.739  0.2322 -0.1959  0.2842
 1433BOLB   C3B34379  10.672  13.624  26.831 -0.0541 -0.0713  0.0475
 1433BOLB   C4B34380  10.706  14.042  26.639  0.0696  0.1649  0.0292
 1433BOLB   NC234381   9.498  15.307  26.093 -0.2123  0.0844  0.1104
 1433BOLB   PO234382   9.837  15.548  25.843 -0.1537  0.2901  0.1906
 1433BOLB   GL334383   9.926  15.165  25.931  0.0653  0.3131 -0.0933
 1433BOLB   GL434384  10.118  15.246  26.195  0.1910  0.0469 -0.1046
 1433BOLB   C1C34385  10.028  14.866  25.666 -0.0274 -0.2309 -0.0282
 1433BOLB   C2C34386  10.406  14.737  25.675 -0.1188  0.1700  0.0980
 1433BOLB   C3C34387  10.681  14.571  26.050  0.0890  0.0018  0.3430
 1433BOLB   C4C34388  10.790  14.122  26.189  0.0260 -0.0435  0.1622
 1433BOLB   C1D34389  10.304  14.829  26.326 -0.2536 -0.2918 -0.0998
 1433BOLB   C2D34390  10.531  14.584  26.697  0.1317 -0.1338  0.4042
 1433BOLB   C3D34391  10.264  14.248  26.824 -0.1429  0.1841 -0.0789
 1433BOLB   C4D34392  10.052  14.023  27.201  0.3713  0.0481 -0.0294
 1434BOLB   NC134393  23.285   1.495  29.129 -0.1442  0.0582  0.1607
 1434BOLB   PO134394  23.112   1.050  29.187  0.2001  0.0944 -0.0733
 1434BOLB   GL134395  23.273   0.950  29.629 -0.1093  0.1061 -0.1256
 1434BOLB   GL234396  23.298   0.836  29.995 -0.1168  0.0040 -0.1516
 1434BOLB   C1A34397  23.547   0.552  29.648 -0.0186  0.0539  0.0649
 1434BOLB   C2A34398  23.847   0.464  29.812  0.0440  0.0194  0.0239
 1434BOLB   C3A34399  24.104   0.260  30.017 -0.1592 -0.0260  0.1823
 1434BOLB   C4A34400  24.471  -0.034  30.031  0.1912 -0.0910 -0.1446
 1434BOLB   C1B34401  23.554   0.806  30.291 -0.1322  0.4195  0.1261
 1434BOLB   C2B34402  23.830   0.431  30.339  0.0766  0.3083 -0.1997
 1434BOLB   C3B34403  23.908  -0.045  30.343  0.0612 -0.1337 -0.0407
 1434BOLB   C4B34404  24.162  -0.328  30.423 -0.0515  0.2170 -0.0280
 1434BOLB   NC234405  26.974  -0.641  30.456 -0.0858  0.5010 -0.1256
 1434BOLB   PO234406  26.568  -0.803  30.610  0.4015  0.1661 -0.2083
 1434BOLB   GL334407  26.332  -0.634  30.316 -0.1022  0.2344  0.2520
 1434BOLB   GL434408  26.604  -0.688  30.019 -0.1884  0.3804  0.1439
 1434BOLB   C1C34409  25.977  -0.482  30.132  0.3086  0.0802 -0.1156
 1434BOLB   C2C34410  25.754  -0.145  29.937  0.0347  0.0137 -0.0097
 1434BOLB   C3C34411  25.353   0.002  29.848  0.0836  0.1209  0.0702
 1434BOLB   C4C34412  24.939   0.092  30.195 -0.5533  0.3296 -0.0549
 1434BOLB   C1D34413  26.632  -0.715  29.558 -0.4312 -0.4115 -0.0546
 1434BOLB   C2D34414  26.770  -0.692  29.135 -0.0814  0.0391 -0.3600
 1434BOLB   C3D34415  27.167  -0.713  28.993 -0.0095 -0.1892 -0.0172
 1434BOLB   C4D34416  27.574  -0.614  29.084 -0.1225 -0.3579  0.0077
 1435BOLB   NC134417  26.478   1.790  16.202 -0.5240  0.1592  0.0687
 1435BOLB   PO134418  26.442   1.943  16.606  0.0742  0.0880  0.1291
 1435BOLB   GL134419  25.972   2.027  16.711  0.0009  0.4442  0.0831
 1435BOLB   GL234420  26.062   2.325  16.675 -0.1560  0.1951  0.1203
 1435BOLB   C1A34421  25.639   2.179  17.007 -0.0614 -0.2389  0.2530
 1435BOLB   C2A34422  25.361   2.111  17.344  0.4266 -0.1348  0.0921
 1435BOLB   C3A34423  24.913   2.137  17.548 -0.2311  0.0403  0.1817
 1435BOLB   C4A34424  24.581   2.125  17.365  0.0497  0.0813 -0.1930
 1435BOLB   C1B34425  25.825   2.657  16.844 -0.1435 -0.4711  0.1105
 1435BOLB   C2B34426  25.495   2.883  16.908  0.1888  0.2783 -0.1050
 1435BOLB   C3B34427  25.148   2.957  17.057 -0.3310 -0.0043 -0.1432
 1435BOLB   C4B34428  24.821   3.015  17.380  0.0981 -0.0016  0.3038
 1435BOLB   NC234429  25.259   3.525  15.185 -0.0750 -0.1965  0.2263
 1435BOLB   PO234430  25.334   3.129  15.280  0.2261 -0.2268  0.0068
 1435BOLB   GL334431  25.026   2.873  15.595  0.3644 -0.0550 -0.0943
 1435BOLB   GL434432  25.244   2.670  15.873  0.2361 -0.1357 -0.0109
 1435BOLB   C1C34433  24.758   2.562  15.859 -0.1162  0.1130  0.0844
 1435BOLB   C2C34434  24.531   2.417  16.132 -0.0775  0.2305  0.1559
 1435BOLB   C3C34435  24.437   2.156  16.581  0.1838  0.0300 -0.2483
 1435BOLB   C4C34436  24.516   2.144  16.966 -0.0833  0.4435 -0.1601
 1435BOLB   C1D34437  25.122   2.423  16.218  0.2300 -0.2554  0.0225
 1435BOLB   C2D34438  24.951   2.096  16.442  0.2450  0.1037  0.0521
 1435BOLB   C3D34439  24.683   1.708  16.467  0.1449 -0.1103  0.2489
 1435BOLB   C4D34440  24.470   1.348  16.635 -0.1596 -0.1367 -0.1040
 1436BOLB   NC134441  24.469   5.367  28.130  0.0712  0.0369 -0.1003
 1436BOLB   PO134442  24.774   5.013  28.002 -0.0912 -0.1133 -0.0478
 1436BOLB   GL134443  25.159   5.212  28.220 -0.1456  0.0680  0.4121
 1436BOLB   GL234444  25.294   4.925  28.044 -0.1603 -0.0100 -0.3841
 1436BOLB   C1A34445  25.583   5.237  28.349 -0.0015  0.2027  0.1478
 1436BOLB   C2A34446  26.059   5.143  28.160  0.1845  0.1017 -0.1017
 1436BOLB   C3A34447  26.476   4.896  28.098 -0.2441 -0.1349  0.0970
 1436BOLB   C4A34448  26.825   4.882  28.352  0.0213 -0.0707  0.0456
 1436BOLB   C1B34449  25.679   4.979  27.846 -0.0570  0.0179  0.3899
 1436BOLB   C2B34450  26.152   4.878  27.772  0.0275 -0.0757  0.2820
 1436BOLB   C3B34451  26.650   4.747  27.612  0.0133 -0.1172  0.0658
 1436BOLB   C4B34452  26.866   4.749  27.155  0.0718 -0.3928  0.0165
 1436BOLB   NC234453  28.535   5.079  29.688 -0.2372 -0.1562 -0.2599
 1436BOLB   PO234454  28.645   5.401  29.347 -0.1661  0.2861  0.3354
 1436BOLB   GL334455  28.230   5.490  29.290 -0.1415 -0.1218 -0.1940
 1436BOLB   GL434456  27.937   5.782  29.191  0.2966 -0.0873 -0.0556
 1436BOLB   C1C34457  27.820   5.330  29.242  0.4972 -0.0116 -0.0680
 1436BOLB   C2C34458  27.591   5.186  28.937  0.2936  0.1893  0.3664
 1436BOLB   C3C34459  27.347   4.817  28.964 -0.3474  0.0454  0.2828
 1436BOLB   C4C34460  27.107   4.780  28.665 -0.2497  0.2908 -0.0861
 1436BOLB   C1D34461  27.477   5.735  29.013  0.1051 -0.0686  0.1024
 1436BOLB   C2D34462  27.064   5.839  28.894  0.2832  0.0367  0.0330
 1436BOLB   C3D34463  26.942   6.264  28.877  0.2393 -0.2948  0.0106
 1436BOLB   C4D34464  26.672   6.657  28.587  0.0401  0.2030  0.3250
 1437BOLB   NC134465  14.525  -4.273  11.845 -0.0829  0.0196  0.0249
 1437BOLB   PO134466  14.548  -4.137  12.368  0.0907 -0.0941  0.2300
 1437BOLB   GL134467  14.865  -3.972  12.566 -0.0654  0.2334 -0.1117
 1437BOLB   GL234468  15.215  -4.061  12.382 -0.0100 -0.0928 -0.2141
 1437BOLB   C1A34469  15.098  -3.989  13.054  0.0538 -0.1710  0.0607
 1437BOLB   C2A34470  15.118  -4.090  13.400  0.2197 -0.3123  0.2228
 1437BOLB   C3A34471  15.322  -4.258  13.731 -0.2244 -0.4651 -0.0343
 1437BOLB   C4A34472  15.564  -4.195  14.217  0.0363  0.1859  0.1567
 1437BOLB   C1B34473  15.529  -3.890  12.652  0.0831  0.0252  0.2619
 1437BOLB   C2B34474  15.865  -3.802  12.674 -0.0005  0.2720  0.0233
 1437BOLB   C3B34475  16.146  -3.890  13.064  0.0643 -0.0126  0.3401
 1437BOLB   C4B34476  16.205  -3.961  13.549  0.0267 -0.1147 -0.1483
 1437BOLB   NC234477  13.840  -6.147  14.166  0.2874 -0.0018  0.1346
 1437BOLB   PO234478  13.979  -5.765  14.200 -0.2590 -0.2739 -0.2556
 1437BOLB   GL334479  14.359  -5.612  14.136 -0.0557 -0.2569 -0.0404
 1437BOLB   GL434480  14.579  -5.769  14.074 -0.1222 -0.0704 -0.0600
 1437BOLB   C1C34481  14.549  -5.275  14.208  0.0659 -0.1363 -0.0462
 1437BOLB   C2C34482  14.858  -4.971  14.375  0.2132  0.1055 -0.3227
 1437BOLB   C3C34483  15.133  -4.697  14.653 -0.0117 -0.4473  0.1084
 1437BOLB   C4C34484  15.600  -4.409  14.652  0.0431 -0.0138  0.1633
 1437BOLB   C1D34485  15.008  -5.738  14.292 -0.2060  0.0946  0.1112
 1437BOLB   C2D34486  15.392  -5.537  14.218 -0.1767 -0.3014  0.0202
 1437BOLB   C3D34487  15.818  -5.524  14.026  0.2062  0.3282 -0.2308
 1437BOLB   C4D34488  15.967  -5.332  13.699 -0.1796 -0.0801  0.1354
 1438BOLB   NC134489  13.119  -2.728  35.654  0.0868 -0.3191 -0.1682
 1438BOLB   PO134490  13.019  -2.318  35.412  0.0458 -0.0393  0.2280
 1438BOLB   GL134491  13.304  -2.160  35.137 -0.0104  0.0879 -0.1621
 1438BOLB   GL234492  13.256  -2.155  34.870  0.1675  0.3559 -0.0697
 1438BOLB   C1A34493  13.720  -2.247  35.101  0.0480  0.5254  0.0075
 1438BOLB   C2A34494  13.995  -1.946  35.011 -0.0569  0.1627  0.1013
 1438BOLB   C3A34495  14.013  -1.524  34.856  0.0698  0.1018  0.2309
 1438BOLB   C4A34496  13.709  -1.239  34.820  0.2050  0.1195 -0.3456
 1438BOLB   C1B34497  13.149  -2.048  34.443  0.1445 -0.0012 -0.0023
 1438BOLB   C2B34498  12.948  -1.739  34.159  0.1573  0.4248  0.0312
 1438BOLB   C3B34499  12.970  -1.511  33.845 -0.0961  0.4846 -0.3783
 1438BOLB   C4B34500  13.110  -1.409  33.380  0.2463 -0.0463 -0.1385
 1438BOLB   NC234501  11.748  -1.271  35.907 -0.1803 -0.1990 -0.1005
 1438BOLB   PO234502  12.075  -1.288  36.250 -0.0925  0.0177  0.2214
 1438BOLB   GL334503  12.202  -1.028  35.841  0.3819  0.1789 -0.1753
 1438BOLB   GL434504  12.311  -0.707  35.849  0.3042 -0.0778  0.1573
 1438BOLB   C1C34505  12.413  -0.974  35.464  0.2838 -0.0634 -0.2449
 1438BOLB   C2C34506  12.593  -1.029  35.144 -0.0533  0.1716 -0.0099
 1438BOLB   C3C34507  12.797  -1.189  34.960  0.1571  0.1826 -0.0390
 1438BOLB   C4C34508  13.279  -1.241  34.805 -0.1063 -0.1338 -0.3105
 1438BOLB   C1D34509  12.444  -0.454  35.524  0.0688  0.1308 -0.1817
 1438BOLB   C2D34510  12.336  -0.242  35.158 -0.1445 -0.0589 -0.0248
 1438BOLB   C3D34511  12.263  -0.125  34.788 -0.1391  0.1139  0.0289
 1438BOLB   C4D34512  12.123   0.243  34.555 -0.1837 -0.2167 -0.1349
 1439BOLB   NC134513  23.571   0.251  28.195 -0.0709 -0.0433  0.1137
 1439BOLB   PO134514  23.798   0.604  28.191  0.1005  0.2810 -0.1577
 1439BOLB   GL134515  24.077   0.286  28.469 -0.1245 -0.0527  0.1286
 1439BOLB   GL234516  24.361   0.517  28.450 -0.1777 -0.0059 -0.2554
 1439BOLB   C1A34517  24.194  -0.069  28.476 -0.3328  0.0834  0.2521
 1439BOLB   C2A34518  24.426  -0.343  28.722  0.1703  0.1932  0.0599
 1439BOLB   C3A34519  24.602  -0.457  29.091  0.1288  0.3716  0.1567
 1439BOLB   C4A34520  24.675  -0.661  29.466  0.2424 -0.0582 -0.1019
 1439BOLB   C1B34521  24.444   0.121  28.799  0.1902 -0.0920 -0.0034
 1439BOLB   C2B34522  24.860  -0.019  29.123 -0.5481 -0.1294 -0.0887
 1439BOLB   C3B34523  25.050  -0.397  29.226 -0.0262 -0.0099  0.0799
 1439BOLB   C4B34524  25.216  -0.575  29.165  0.0539  0.0835 -0.0248
 1439BOLB   NC234525  26.126  -2.862  28.865  0.2205 -0.4202  0.0359
 1439BOLB   PO234526  25.705  -2.863  28.917 -0.0875 -0.4262 -0.1852
 1439BOLB   GL334527  25.538  -2.418  28.865 -0.1365 -0.1015 -0.1245
 1439BOLB   GL434528  25.543  -2.453  28.520 -0.0244 -0.0874  0.0151
 1439BOLB   C1C34529  25.393  -1.991  28.990  0.3848 -0.0606 -0.0227
 1439BOLB   C2C34530  25.298  -1.707  29.273  0.0509  0.0752 -0.0403
 1439BOLB   C3C34531  24.968  -1.306  29.402  0.0454  0.1010 -0.1465
 1439BOLB   C4C34532  24.648  -1.157  29.653  0.0427  0.0191 -0.2812
 1439BOLB   C1D34533  25.168  -2.271  28.466  0.1401 -0.2519 -0.0049
 1439BOLB   C2D34534  24.918  -2.041  28.320  0.1683 -0.0727  0.1515
 1439BOLB   C3D34535  24.630  -1.797  28.077 -0.1565  0.0110  0.0960
 1439BOLB   C4D34536  24.542  -1.397  27.860 -0.0786  0.1855 -0.3959
 1440BOLB   NC134537  21.241   9.095  22.147  0.2116 -0.2370 -0.1427
 1440BOLB   PO134538  21.228   9.256  21.796  0.1646  0.0622 -0.1511
 1440BOLB   GL134539  21.501   9.571  21.460 -0.0269  0.1797 -0.2436
 1440BOLB   GL234540  21.530   9.448  21.232 -0.3918  0.3655  0.1301
 1440BOLB   C1A34541  21.941   9.700  21.196  0.3362 -0.0402  0.1339
 1440BOLB   C2A34542  22.332   9.890  21.052 -0.0061 -0.1340  0.0570
 1440BOLB   C3A34543  22.652  10.140  20.947  0.3343  0.1548  0.1119
 1440BOLB   C4A34544  22.874  10.547  21.167 -0.0075 -0.1279  0.1308
 1440BOLB   C1B34545  21.687   9.409  20.887 -0.5840  0.3451 -0.0251
 1440BOLB   C2B34546  21.989   9.625  20.652 -0.0621  0.4006  0.1099
 1440BOLB   C3B34547  22.438   9.704  20.608 -0.2701  0.0740 -0.0817
 1440BOLB   C4B34548  22.890   9.835  20.614 -0.1208 -0.0139 -0.0901
 1440BOLB   NC234549  24.504  12.302  20.972  0.2388 -0.1625 -0.1639
 1440BOLB   PO234550  24.257  12.465  21.303  0.0102 -0.1113 -0.3086
 1440BOLB   GL334551  24.396  12.012  21.448  0.0529  0.2395  0.2458
 1440BOLB   GL434552  24.412  11.702  21.286 -0.0893 -0.0124  0.2317
 1440BOLB   C1C34553  24.221  11.646  21.750 -0.2012 -0.1633 -0.0093
 1440BOLB   C2C34554  23.907  11.371  21.528  0.1404 -0.0604  0.1302
 1440BOLB   C3C34555  23.517  11.214  21.283  0.2131  0.1838  0.0038
 1440BOLB   C4C34556  23.176  10.840  21.252 -0.0684  0.0632 -0.0640
 1440BOLB   C1D34557  24.290  11.355  21.229 -0.2694 -0.2293  0.1823
 1440BOLB   C2D34558  24.032  10.972  21.212 -0.2434 -0.2359  0.5399
 1440BOLB   C3D34559  23.692  10.679  21.419 -0.0489  0.0510 -0.0770
 1440BOLB   C4D34560  23.341  10.645  21.728 -0.0977 -0.1499  0.0678
 1441BOLB   NC134561   7.819   3.244  22.486  0.3771 -0.5350 -0.0736
 1441BOLB   PO134562   7.750   3.705  22.435  0.0437 -0.0356 -0.1632
 1441BOLB   GL134563   7.374   3.943  22.246  0.0720 -0.0658 -0.0815
 1441BOLB   GL234564   7.227   3.669  22.146 -0.0303 -0.0745  0.0556
 1441BOLB   C1A34565   6.895   3.977  22.311  0.0909 -0.1284  0.1852
 1441BOLB   C2A34566   6.509   4.047  22.289  0.1593 -0.1893  0.1628
 1441BOLB   C3A34567   6.079   3.927  22.441 -0.1421 -0.3739 -0.4336
 1441BOLB   C4A34568   5.633   3.934  22.412  0.1606  0.0435 -0.2021
 1441BOLB   C1B34569   6.733   3.478  22.167 -0.1705  0.3326 -0.0693
 1441BOLB   C2B34570   6.299   3.313  22.234  0.3361  0.2748 -0.1980
 1441BOLB   C3B34571   5.951   3.095  22.293 -0.1002 -0.2178 -0.2048
 1441BOLB   C4B34572   5.660   2.792  22.317  0.0013  0.1448 -0.0823
 1441BOLB   NC234573   3.251   5.012  22.026 -0.0206  0.1091 -0.1769
 1441BOLB   PO234574   3.620   5.220  21.936 -0.1123 -0.1364  0.2972
 1441BOLB   GL334575   4.032   4.986  21.934 -0.2543 -0.2419  0.4542
 1441BOLB   GL434576   4.256   4.999  21.585  0.0714 -0.0297 -0.0615
 1441BOLB   C1C34577   4.257   4.813  22.306  0.2197  0.1622 -0.0465
 1441BOLB   C2C34578   4.585   4.632  22.435  0.0823 -0.0450 -0.1132
 1441BOLB   C3C34579   4.908   4.364  22.458 -0.1752  0.1150 -0.2832
 1441BOLB   C4C34580   5.259   4.126  22.446 -0.4180  0.0514 -0.1556
 1441BOLB   C1D34581   4.495   5.187  21.879  0.0307  0.2135 -0.0656
 1441BOLB   C2D34582   4.779   5.019  22.243 -0.0951 -0.0604 -0.2485
 1441BOLB   C3D34583   5.149   4.666  22.148 -0.1751  0.0425  0.0357
 1441BOLB   C4D34584   5.475   4.416  22.136 -0.3081  0.2066  0.3555
 1442BOLB   NC134585  21.187   4.212  17.338  0.2603 -0.0123  0.3907
 1442BOLB   PO134586  21.469   4.467  17.208  0.0305  0.1190 -0.0105
 1442BOLB   GL134587  21.505   4.500  16.815 -0.0563  0.2154 -0.3107
 1442BOLB   GL234588  21.410   4.148  16.790  0.1536  0.0740 -0.2904
 1442BOLB   C1A34589  21.257   4.652  16.531 -0.0954 -0.2483 -0.2352
 1442BOLB   C2A34590  21.344   4.874  16.139  0.2332 -0.0216  0.1138
 1442BOLB   C3A34591  21.508   4.932  15.721  0.1438  0.1868 -0.2349
 1442BOLB   C4A34592  21.491   5.000  15.221 -0.0398  0.1232  0.2545
 1442BOLB   C1B34593  21.763   4.148  16.486  0.1002  0.0687 -0.0227
 1442BOLB   C2B34594  21.987   3.906  16.099  0.0592 -0.3468  0.2339
 1442BOLB   C3B34595  22.023   3.603  15.809 -0.1052  0.1682  0.0468
 1442BOLB   C4B34596  21.874   3.179  15.830 -0.1290 -0.1516 -0.0592
 1442BOLB   NC234597  21.919   4.687  13.081  0.1456 -0.3416 -0.1998
 1442BOLB   PO234598  21.526   4.715  13.322 -0.4073  0.2319 -0.3730
 1442BOLB   GL334599  21.552   4.680  13.751 -0.1029  0.0963  0.1968
 1442BOLB   GL434600  21.729   4.935  13.953  0.0693  0.1469 -0.2941
 1442BOLB   C1C34601  21.262   4.510  13.990  0.0297  0.3279 -0.0935
 1442BOLB   C2C34602  21.023   4.526  14.265  0.0713  0.0274 -0.1156
 1442BOLB   C3C34603  20.973   4.822  14.595 -0.0634  0.0145 -0.0579
 1442BOLB   C4C34604  21.150   5.038  14.805 -0.4283  0.0710  0.2281
 1442BOLB   C1D34605  21.612   4.786  14.340 -0.3222  0.2108  0.1798
 1442BOLB   C2D34606  21.405   4.603  14.638  0.0203 -0.1713  0.1940
 1442BOLB   C3D34607  21.212   4.556  15.049  0.1076  0.2761  0.2005
 1442BOLB   C4D34608  20.799   4.531  15.285  0.0539 -0.1085 -0.0344
 1443BOLB   NC134609  10.857  -3.427  25.481  0.2357 -0.1152 -0.4643
 1443BOLB   PO134610  11.119  -3.595  25.224 -0.1215 -0.1191  0.1460
 1443BOLB   GL134611  10.973  -3.984  25.380 -0.0495  0.0234  0.0218
 1443BOLB   GL234612  10.663  -3.920  25.549 -0.1845  0.0684 -0.0072
 1443BOLB   C1A34613  10.872  -4.463  25.269  0.1163  0.1540 -0.1005
 1443BOLB   C2A34614  10.532  -4.629  25.530 -0.0649  0.0264  0.0238
 1443BOLB   C3A34615  10.101  -4.743  25.405 -0.2823 -0.0568 -0.1149
 1443BOLB   C4A34616   9.697  -5.073  25.567 -0.2429 -0.1711 -0.0476
 1443BOLB   C1B34617  10.813  -4.267  25.747 -0.0163 -0.4484 -0.0767
 1443BOLB   C2B34618  10.974  -4.714  25.739 -0.0306 -0.0080  0.0776
 1443BOLB   C3B34619  11.106  -5.161  25.540  0.1403  0.2834  0.0025
 1443BOLB   C4B34620  10.856  -5.181  25.891  0.1533  0.3773  0.1578
 1443BOLB   NC234621   8.340  -6.028  26.495  0.3718  0.0629  0.0084
 1443BOLB   PO234622   8.643  -6.376  26.436 -0.2212 -0.0669  0.3281
 1443BOLB   GL334623   8.624  -6.177  26.087  0.1814  0.0217 -0.0854
 1443BOLB   GL434624   8.771  -6.296  25.797  0.4581 -0.0605 -0.2701
 1443BOLB   C1C34625   8.808  -5.770  26.111 -0.0015  0.0201  0.1026
 1443BOLB   C2C34626   8.858  -5.369  26.182  0.0633  0.2498 -0.1046
 1443BOLB   C3C34627   9.187  -5.257  25.928  0.1114 -0.0824  0.0654
 1443BOLB   C4C34628   9.559  -5.148  25.886  0.1854 -0.0905  0.0652
 1443BOLB   C1D34629   9.136  -6.214  25.951  0.1356 -0.1680 -0.0142
 1443BOLB   C2D34630   9.229  -6.041  26.243 -0.1766 -0.2362  0.1893
 1443BOLB   C3D34631   9.258  -5.576  26.321 -0.0343 -0.2429  0.4305
 1443BOLB   C4D34632   9.292  -5.328  26.667  0.2160  0.2866  0.2708
 1444BOLB   NC134633  20.201   3.665  36.974 -0.4146 -0.1263 -0.3439
 1444BOLB   PO134634  20.169   3.373  36.601  0.2462  0.0388 -0.1018
 1444BOLB   GL134635  19.887   3.478  36.509  0.1746 -0.1168  0.0685
 1444BOLB   GL234636  19.588   3.367  36.616  0.2588 -0.2953 -0.1092
 1444BOLB   C1A34637  19.757   3.444  36.062  0.1423 -0.1992 -0.3156
 1444BOLB   C2A34638  19.607   3.129  35.783 -0.2410 -0.1458  0.1113
 1444BOLB   C3A34639  19.434   2.955  35.382  0.0878  0.0971  0.0943
 1444BOLB   C4A34640  19.262   2.631  35.132 -0.2367 -0.3061 -0.0937
 1444BOLB   C1B34641  19.379   3.682  36.367 -0.1056 -0.2957 -0.0301
 1444BOLB   C2B34642  19.458   3.762  35.846 -0.2412 -0.2152  0.0016
 1444BOLB   C3B34643  19.430   3.669  35.421  0.0561  0.2101 -0.0764
 1444BOLB   C4B34644  19.181   3.361  35.100 -0.1691 -0.2576 -0.2779
 1444BOLB   NC234645  18.643   3.970  33.509  0.1860 -0.2583 -0.2581
 1444BOLB   PO234646  18.623   3.559  33.287 -0.3895  0.0095 -0.0708
 1444BOLB   GL334647  18.904   3.585  33.637 -0.3982  0.1739 -0.0575
 1444BOLB   GL434648  18.761   3.802  33.931  0.1085  0.1161  0.1211
 1444BOLB   C1C34649  19.205   3.302  33.888 -0.1752 -0.2361  0.0276
 1444BOLB   C2C34650  19.489   3.053  34.188  0.0288 -0.3721  0.1383
 1444BOLB   C3C34651  19.511   2.719  34.409  0.1992 -0.1402 -0.1692
 1444BOLB   C4C34652  19.308   2.460  34.749 -0.1981 -0.2706  0.0198
 1444BOLB   C1D34653  18.810   3.628  34.319 -0.1192  0.0878 -0.0786
 1444BOLB   C2D34654  18.808   3.450  34.682 -0.0034 -0.0528 -0.1504
 1444BOLB   C3D34655  18.695   3.457  35.152 -0.0031 -0.1177 -0.0935
 1444BOLB   C4D34656  18.743   3.375  35.618  0.1807  0.2408  0.1306
 1445BOLB   NC134657   7.554   1.841  27.790  0.3839 -0.1309  0.1037
 1445BOLB   PO134658   7.935   1.693  27.874  0.1722 -0.1928 -0.3117
 1445BOLB   GL134659   7.616   1.489  28.195 -0.1627 -0.1544  0.0893
 1445BOLB   GL234660   7.264   1.470  28.227  0.2290  0.0460  0.1427
 1445BOLB   C1A34661   7.615   1.264  28.506 -0.0617  0.0873  0.3464
 1445BOLB   C2A34662   7.686   1.373  28.940 -0.0706  0.0700  0.1629
 1445BOLB   C3A34663   7.414   1.226  29.293 -0.3233  0.1077 -0.0377
 1445BOLB   C4A34664   7.057   1.010  29.481  0.3984  0.0638 -0.2354
 1445BOLB   C1B34665   6.801   1.507  28.345 -0.0623 -0.1318  0.3071
 1445BOLB   C2B34666   6.386   1.488  28.480  0.3480 -0.1915  0.0850
 1445BOLB   C3B34667   6.116   1.454  28.762 -0.3405  0.0804 -0.1064
 1445BOLB   C4B34668   5.679   1.380  28.797  0.1396  0.0666 -0.0101
 1445BOLB   NC234669   5.476  -0.199  31.081 -0.2340 -0.2506 -0.1063
 1445BOLB   PO234670   5.190   0.178  30.953 -0.2301 -0.1982 -0.3856
 1445BOLB   GL334671   5.555   0.193  30.697  0.1527  0.3901 -0.0329
 1445BOLB   GL434672   5.906  -0.047  30.653 -0.2334 -0.2102 -0.2776
 1445BOLB   C1C34673   5.728   0.509  30.458  0.1974  0.1786 -0.3334
 1445BOLB   C2C34674   6.145   0.502  30.185 -0.2377  0.0004 -0.1528
 1445BOLB   C3C34675   6.482   0.595  29.872  0.0583  0.0984  0.0301
 1445BOLB   C4C34676   6.705   0.863  29.578  0.0266 -0.1717 -0.1150
 1445BOLB   C1D34677   6.313   0.133  30.513  0.1382  0.3619  0.2483
 1445BOLB   C2D34678   6.629   0.335  30.308 -0.3550  0.3014  0.3984
 1445BOLB   C3D34679   6.996   0.288  30.108  0.0072 -0.2739 -0.0728
 1445BOLB   C4D34680   7.491   0.343  29.977 -0.3052 -0.1442  0.1057
 1446BOLB   NC134681  13.811   1.306  32.105  0.1241 -0.2327 -0.1887
 1446BOLB   PO134682  13.981   1.382  32.504  0.0389 -0.1146  0.0285
 1446BOLB   GL134683  14.009   1.488  32.975 -0.0735  0.1776 -0.0146
 1446BOLB   GL234684  13.791   1.652  33.247  0.2796 -0.4544 -0.2584
 1446BOLB   C1A34685  14.201   1.190  33.341 -0.0437  0.0329  0.4327
 1446BOLB   C2A34686  14.091   1.024  33.773  0.1007  0.3988  0.1338
 1446BOLB   C3A34687  14.006   0.997  34.189 -0.1368  0.0930 -0.0824
 1446BOLB   C4A34688  14.010   1.189  34.620  0.1361 -0.0929 -0.2950
 1446BOLB   C1B34689  13.939   1.488  33.617 -0.4057 -0.1937  0.0729
 1446BOLB   C2B34690  13.778   1.408  33.934  0.0453  0.0262  0.1533
 1446BOLB   C3B34691  13.726   1.548  34.373  0.1215 -0.0529 -0.1033
 1446BOLB   C4B34692  13.582   1.633  34.749  0.3669 -0.1728  0.2256
 1446BOLB   NC234693  13.626   1.286  37.298 -0.1206 -0.2274 -0.4222
 1446BOLB   PO234694  13.160   1.351  37.194  0.0781 -0.0298 -0.1139
 1446BOLB   GL334695  13.337   1.280  36.717 -0.0519 -0.0991 -0.0650
 1446BOLB   GL434696  13.526   1.067  36.884  0.0668  0.0660  0.1218
 1446BOLB   C1C34697  13.471   1.278  36.239 -0.1523 -0.3241 -0.0344
 1446BOLB   C2C34698  13.708   1.327  35.863 -0.0732 -0.0001 -0.2094
 1446BOLB   C3C34699  13.716   1.161  35.509 -0.1169  0.0124  0.1826
 1446BOLB   C4C34700  13.924   1.184  35.046  0.1351  0.3295 -0.4524
 1446BOLB   C1D34701  13.870   1.013  36.653  0.1888 -0.2764 -0.1571
 1446BOLB   C2D34702  14.218   0.733  36.581  0.3443  0.1645  0.0511
 1446BOLB   C3D34703  14.601   0.441  36.575  0.2287 -0.1647  0.0053
 1446BOLB   C4D34704  14.913   0.163  36.308  0.0427  0.0771 -0.2260
 1447BOLB   NC134705   7.797   3.615  27.913 -0.2020 -0.2295  0.0986
 1447BOLB   PO134706   7.628   3.234  28.076  0.0552 -0.1947 -0.3250
 1447BOLB   GL134707   7.266   3.231  28.223  0.0045 -0.0382  0.0417
 1447BOLB   GL234708   7.169   2.951  28.444 -0.0644 -0.1725  0.1299
 1447BOLB   C1A34709   6.770   3.361  28.337 -0.2212  0.0663 -0.1589
 1447BOLB   C2A34710   6.550   3.018  28.649 -0.2742 -0.1922  0.0243
 1447BOLB   C3A34711   6.390   2.963  29.192 -0.0961  0.1605  0.3080
 1447BOLB   C4A34712   6.146   2.679  29.345 -0.1674 -0.1237  0.0281
 1447BOLB   C1B34713   7.029   3.185  28.765  0.1792 -0.0525 -0.1250
 1447BOLB   C2B34714   6.928   3.218  29.218 -0.0101 -0.1101  0.2373
 1447BOLB   C3B34715   6.636   3.231  29.574  0.0818  0.0942  0.0470
 1447BOLB   C4B34716   6.533   2.957  29.862  0.0355  0.1821  0.3318
 1447BOLB   NC234717   4.035   2.226  30.159  0.0783  0.3658 -0.0896
 1447BOLB   PO234718   3.775   2.135  29.953 -0.2124  0.1923  0.1799
 1447BOLB   GL334719   4.171   2.296  29.674 -0.2422 -0.3172 -0.2731
 1447BOLB   GL434720   4.435   2.312  29.817  0.2974  0.3108  0.1102
 1447BOLB   C1C34721   4.402   2.641  29.482  0.0257  0.1823  0.2821
 1447BOLB   C2C34722   4.830   2.752  29.279  0.0762  0.2623 -0.1425
 1447BOLB   C3C34723   5.266   2.765  29.423  0.0260 -0.0734 -0.1309
 1447BOLB   C4C34724   5.734   2.686  29.411  0.0648 -0.1093 -0.0996
 1447BOLB   C1D34725   4.903   2.567  29.839 -0.2665  0.2223  0.2216
 1447BOLB   C2D34726   5.420   2.488  29.836  0.0934 -0.0242 -0.0266
 1447BOLB   C3D34727   5.694   2.303  30.207  0.2214 -0.2045  0.2733
 1447BOLB   C4D34728   5.450   2.204  30.565  0.2522 -0.0620 -0.1812
 1448BOLB   NC134729  15.535  15.361  21.182 -0.0035  0.2454 -0.1551
 1448BOLB   PO134730  15.222  15.186  21.257  0.1939  0.1976  0.1758
 1448BOLB   GL134731  15.426  14.810  21.244  0.2660 -0.4095 -0.2610
 1448BOLB   GL234732  15.084  14.680  21.105  0.1351 -0.0104 -0.0492
 1448BOLB   C1A34733  15.411  14.449  21.420 -0.3749 -0.1389  0.0642
 1448BOLB   C2A34734  15.422  14.054  21.468 -0.1788 -0.2553  0.1969
 1448BOLB   C3A34735  15.385  13.694  21.630  0.1866 -0.1258 -0.3868
 1448BOLB   C4A34736  15.107  13.755  21.757  0.2745  0.1950  0.1296
 1448BOLB   C1B34737  14.952  14.247  21.083  0.3812 -0.0202  0.1162
 1448BOLB   C2B34738  15.012  13.805  21.190  0.3047 -0.1124  0.1415
 1448BOLB   C3B34739  14.582  13.697  21.387  0.2476  0.5041 -0.0985
 1448BOLB   C4B34740  14.321  13.603  21.682 -0.2194 -0.0443 -0.1627
 1448BOLB   NC234741  13.671  15.107  20.636 -0.0191  0.2275  0.3070
 1448BOLB   PO234742  13.886  15.338  20.901  0.1621 -0.0097  0.0075
 1448BOLB   GL334743  13.748  15.031  21.124  0.0124 -0.2073 -0.3140
 1448BOLB   GL434744  13.682  14.749  20.948 -0.0951  0.0668  0.0248
 1448BOLB   C1C34745  14.032  14.696  21.404  0.0084  0.1920 -0.0207
 1448BOLB   C2C34746  14.081  14.528  21.719  0.0799  0.0215  0.1480
 1448BOLB   C3C34747  14.284  14.205  21.805  0.0931  0.3078  0.0924
 1448BOLB   C4C34748  14.668  13.920  21.820 -0.0128  0.0193  0.2158
 1448BOLB   C1D34749  13.502  14.518  21.258  0.3054 -0.0845  0.2615
 1448BOLB   C2D34750  13.460  14.139  21.406  0.3765 -0.2956 -0.1363
 1448BOLB   C3D34751  13.450  13.818  21.626 -0.2474 -0.1438 -0.0124
 1448BOLB   C4D34752  13.342  13.729  21.995  0.1311 -0.1121  0.1376
 1449BOLB   NC134753   5.940  -3.796  22.109  0.0941  0.0747 -0.2893
 1449BOLB   PO134754   5.536  -3.536  22.051 -0.1497  0.0593 -0.1533
 1449BOLB   GL134755   5.546  -3.114  22.255 -0.1025  0.4125  0.0431
 1449BOLB   GL234756   5.625  -3.108  22.492  0.0601  0.0318 -0.0791
 1449BOLB   C1A34757   5.842  -2.805  22.162  0.2243 -0.0743 -0.2073
 1449BOLB   C2A34758   6.117  -2.749  21.710 -0.0466  0.1865 -0.0659
 1449BOLB   C3A34759   6.478  -2.562  21.724  0.2971 -0.4169 -0.0723
 1449BOLB   C4A34760   6.718  -2.353  22.046 -0.1277 -0.2857 -0.2927
 1449BOLB   C1B34761   5.646  -2.651  22.736  0.0071 -0.2086  0.2328
 1449BOLB   C2B34762   5.963  -2.480  22.938 -0.0074 -0.1123 -0.2340
 1449BOLB   C3B34763   6.273  -2.272  23.068  0.0566  0.0074 -0.1712
 1449BOLB   C4B34764   6.679  -2.089  22.836 -0.0612  0.2690 -0.0596
 1449BOLB   NC234765   5.246  -3.481  22.494 -0.1605 -0.0067 -0.0216
 1449BOLB   PO234766   5.263  -3.685  22.827  0.0727 -0.0299  0.2069
 1449BOLB   GL334767   5.548  -3.352  22.985 -0.0939  0.0148 -0.2919
 1449BOLB   GL434768   5.729  -3.438  23.206  0.0575 -0.1430  0.2001
 1449BOLB   C1C34769   5.960  -3.047  22.942 -0.1490  0.0107 -0.0454
 1449BOLB   C2C34770   6.289  -2.929  22.662 -0.0158 -0.0909  0.0415
 1449BOLB   C3C34771   6.471  -2.543  22.672  0.2370  0.0992 -0.1826
 1449BOLB   C4C34772   6.676  -2.324  22.410  0.0867 -0.2147 -0.1802
 1449BOLB   C1D34773   6.027  -3.342  23.494  0.2772  0.0402  0.1024
 1449BOLB   C2D34774   6.312  -3.022  23.733 -0.0220 -0.1073  0.0338
 1449BOLB   C3D34775   6.583  -2.887  24.036 -0.6360 -0.1164 -0.0166
 1449BOLB   C4D34776   6.518  -2.562  24.282 -0.0451 -0.2142 -0.2731
 1450BOLB   NC134777  24.623   2.060  27.201  0.1399  0.2948 -0.0088
 1450BOLB   PO134778  24.510   1.997  26.755  0.0378 -0.0106 -0.1064
 1450BOLB   GL134779  24.890   1.894  26.475  0.2280 -0.0171 -0.1279
 1450BOLB   GL234780  24.931   1.622  26.271 -0.4737  0.3252 -0.4156
 1450BOLB   C1A34781  25.321   1.994  26.438  0.0290 -0.0351  0.0828
 1450BOLB   C2A34782  25.775   2.072  26.437  0.1559  0.1374  0.1149
 1450BOLB   C3A34783  26.130   2.077  26.154 -0.2262 -0.0361 -0.0190
 1450BOLB   C4A34784  26.430   2.109  25.818 -0.1464  0.1987 -0.2854
 1450BOLB   C1B34785  25.352   1.699  26.033  0.2296  0.0733 -0.0229
 1450BOLB   C2B34786  25.760   1.704  26.087 -0.1398  0.1191 -0.1089
 1450BOLB   C3B34787  26.110   1.573  26.400  0.1303 -0.1338  0.0150
 1450BOLB   C4B34788  26.427   1.202  26.575  0.1894 -0.0433 -0.3226
 1450BOLB   NC234789  28.944   1.057  26.066  0.1621 -0.0112  0.0494
 1450BOLB   PO234790  28.716   1.252  26.354  0.2315  0.1889 -0.0022
 1450BOLB   GL334791  28.312   1.381  26.127  0.0182 -0.2874  0.0011
 1450BOLB   GL434792  28.242   1.207  25.989  0.0112  0.4333  0.0771
 1450BOLB   C1C34793  27.913   1.521  25.933 -0.2435  0.1301 -0.1295
 1450BOLB   C2C34794  27.614   1.724  25.965  0.0404 -0.1364 -0.0909
 1450BOLB   C3C34795  27.213   2.042  25.905 -0.1783  0.1179 -0.4072
 1450BOLB   C4C34796  26.828   2.205  25.870  0.1420 -0.0651 -0.2342
 1450BOLB   C1D34797  28.049   1.041  25.619 -0.0595  0.2179 -0.1954
 1450BOLB   C2D34798  27.972   1.010  25.179 -0.2044  0.0555  0.1076
 1450BOLB   C3D34799  27.663   0.972  24.752 -0.0304 -0.0918  0.0731
 1450BOLB   C4D34800  27.332   0.786  24.517  0.0876  0.0333  0.2297
 1451BOLB   NC134801  23.606   1.193  29.322 -0.0431 -0.3331 -0.3123
 1451BOLB   PO134802  23.684   1.544  29.450 -0.0569  0.1531  0.0831
 1451BOLB   GL134803  23.872   1.299  29.764  0.0822  0.4220 -0.0563
 1451BOLB   GL234804  23.830   0.999  29.814  0.1519  0.3894 -0.0200
 1451BOLB   C1A34805  24.269   1.250  29.901 -0.3001 -0.1901 -0.2617
 1451BOLB   C2A34806  24.414   1.102  30.246  0.0210 -0.0537 -0.1205
 1451BOLB   C3A34807  24.715   0.945  30.505 -0.0954  0.3369 -0.1924
 1451BOLB   C4A34808  25.088   0.835  30.755 -0.2032 -0.0029 -0.2528
 1451BOLB   C1B34809  24.068   0.751  30.096 -0.1213  0.0553  0.1238
 1451BOLB   C2B34810  24.485   0.495  30.260  0.1686 -0.1716  0.3211
 1451BOLB   C3B34811  24.535   0.069  30.492 -0.2981  0.1508 -0.0605
 1451BOLB   C4B34812  24.710  -0.331  30.387  0.2499  0.1301 -0.0017
 1451BOLB   NC234813  27.212   0.813  31.774 -0.1420  0.1229  0.2248
 1451BOLB   PO234814  26.885   0.519  32.001 -0.3376 -0.0558  0.0770
 1451BOLB   GL334815  26.807   0.544  31.577  0.3072  0.1492  0.3509
 1451BOLB   GL434816  26.680   0.872  31.640 -0.0394  0.1877  0.6523
 1451BOLB   C1C34817  26.430   0.343  31.368  0.2697 -0.4638 -0.1157
 1451BOLB   C2C34818  26.293   0.470  30.968 -0.2133  0.0700  0.2304
 1451BOLB   C3C34819  25.887   0.586  30.842 -0.0320  0.2205  0.2537
 1451BOLB   C4C34820  25.448   0.683  30.911 -0.1081  0.0089 -0.0029
 1451BOLB   C1D34821  26.599   0.908  31.275 -0.1117 -0.2615  0.0613
 1451BOLB   C2D34822  26.545   1.208  30.982  0.2322  0.1034  0.0835
 1451BOLB   C3D34823  26.900   1.074  30.706  0.3798 -0.0139  0.1499
 1451BOLB   C4D34824  27.120   0.849  30.380  0.0679 -0.0396 -0.1612
 1452BOLB   NC134825  24.384   6.873  25.035  0.2736 -0.2063  0.2036
 1452BOLB   PO134826  24.179   7.228  24.741  0.2056  0.2510  0.3141
 1452BOLB   GL134827  24.661   7.317  24.683  0.0929 -0.0740  0.1008
 1452BOLB   GL234828  24.786   7.220  24.991 -0.2446  0.0543 -0.0657
 1452BOLB   C1A34829  24.966   7.531  24.555 -0.0327  0.2054  0.3136
 1452BOLB   C2A34830  25.111   8.039  24.537 -0.1909  0.2027  0.3759
 1452BOLB   C3A34831  25.482   8.318  24.560  0.0957 -0.1995 -0.1066
 1452BOLB   C4A34832  25.754   8.152  24.742  0.1653  0.1668  0.0009
 1452BOLB   C1B34833  25.228   7.281  25.029  0.0672  0.2617  0.0675
 1452BOLB   C2B34834  25.563   7.148  25.277  0.0385  0.4416 -0.1552
 1452BOLB   C3B34835  25.958   7.224  25.258  0.2927 -0.0170 -0.0268
 1452BOLB   C4B34836  26.306   7.424  25.227  0.1163 -0.0311  0.3661
 1452BOLB   NC234837  28.158   9.416  24.670  0.0614  0.1785 -0.0085
 1452BOLB   PO234838  27.875   9.184  24.703  0.2971 -0.1585  0.0817
 1452BOLB   GL334839  27.625   9.005  24.938  0.1537  0.0127  0.0521
 1452BOLB   GL434840  27.592   8.934  25.291  0.1799 -0.0973 -0.1630
 1452BOLB   C1C34841  27.171   8.850  24.881  0.1654  0.3990  0.1096
 1452BOLB   C2C34842  26.867   8.612  24.478 -0.5239 -0.5683 -0.0822
 1452BOLB   C3C34843  26.392   8.543  24.513 -0.2690  0.0066  0.0135
 1452BOLB   C4C34844  26.167   8.276  24.735  0.0339 -0.2305 -0.0720
 1452BOLB   C1D34845  27.116   9.090  25.323  0.1805  0.3062  0.0548
 1452BOLB   C2D34846  26.693   9.089  25.332 -0.1881  0.3322 -0.2093
 1452BOLB   C3D34847  26.287   9.022  25.307  0.1626  0.1077  0.2005
 1452BOLB   C4D34848  25.803   9.097  25.152  0.3029 -0.4217  0.2142
 1453BOLB   NC134849  11.421   2.389  18.200  0.1731 -0.1170  0.2995
 1453BOLB   PO134850  11.294   2.775  17.949  0.0894 -0.4191 -0.0693
 1453BOLB   GL134851  10.997   2.781  17.658 -0.1352  0.0021  0.1556
 1453BOLB   GL234852  11.227   3.080  17.478  0.1481 -0.0349  0.1853
 1453BOLB   C1A34853  10.666   2.679  17.264  0.2670  0.0313 -0.0775
 1453BOLB   C2A34854  10.425   2.483  17.023  0.4102  0.3514 -0.2551
 1453BOLB   C3A34855  10.365   2.367  16.679 -0.0073  0.2738 -0.1985
 1453BOLB   C4A34856  10.023   2.426  16.330  0.3106 -0.1579  0.1929
 1453BOLB   C1B34857  10.977   3.102  17.174  0.0594 -0.1445 -0.2361
 1453BOLB   C2B34858  10.659   2.981  16.858 -0.2177  0.1211 -0.1786
 1453BOLB   C3B34859  10.309   2.855  16.695  0.0318 -0.0792  0.0864
 1453BOLB   C4B34860   9.898   3.047  16.678  0.2092  0.2828  0.1904
 1453BOLB   NC234861   9.456   1.924  13.911  0.3127 -0.2261  0.1677
 1453BOLB   PO234862   9.112   1.775  14.193  0.1773  0.0137 -0.0421
 1453BOLB   GL334863   9.028   1.958  14.572  0.0997 -0.1500 -0.1825
 1453BOLB   GL434864   9.000   2.156  14.509  0.0484  0.2238 -0.3832
 1453BOLB   C1C34865   9.204   1.929  15.039  0.1434  0.2019 -0.3095
 1453BOLB   C2C34866   9.500   1.983  15.261 -0.0935 -0.0600 -0.0599
 1453BOLB   C3C34867   9.636   1.955  15.718 -0.1255 -0.0178 -0.0199
 1453BOLB   C4C34868   9.812   2.152  16.064 -0.0688 -0.0137  0.1316
 1453BOLB   C1D34869   9.506   2.223  14.578  0.1940 -0.0745 -0.1316
 1453BOLB   C2D34870   9.751   2.169  14.906  0.1206  0.0959 -0.0141
 1453BOLB   C3D34871   9.971   2.183  15.332  0.1579  0.5006 -0.1864
 1453BOLB   C4D34872  10.081   2.589  15.618 -0.0946  0.0613 -0.2024
 1454BOLB   NC134873   8.352   4.939  23.482 -0.1032 -0.0814  0.1095
 1454BOLB   PO134874   8.022   4.996  23.218 -0.0337 -0.1168  0.0898
 1454BOLB   GL134875   7.561   4.944  23.137  0.0935  0.2069 -0.0905
 1454BOLB   GL234876   7.303   5.065  23.468 -0.3636  0.2915 -0.1544
 1454BOLB   C1A34877   7.241   5.023  22.937  0.1395  0.0340 -0.3963
 1454BOLB   C2A34878   6.834   5.211  22.870 -0.1607  0.1198  0.0815
 1454BOLB   C3A34879   6.437   5.446  22.540  0.0737 -0.0750  0.3692
 1454BOLB   C4A34880   6.013   5.364  22.535  0.0148  0.0190 -0.0993
 1454BOLB   C1B34881   7.036   5.246  23.350  0.0306 -0.0569  0.0269
 1454BOLB   C2B34882   6.639   5.425  23.361  0.0956  0.1207  0.1573
 1454BOLB   C3B34883   6.336   5.491  23.086  0.0748  0.0683  0.0002
 1454BOLB   C4B34884   5.923   5.470  23.082  0.3444 -0.2893  0.0371
 1454BOLB   NC234885   3.878   6.633  21.937 -0.0546  0.1026 -0.0937
 1454BOLB   PO234886   3.854   6.325  21.578  0.3142 -0.1045 -0.1129
 1454BOLB   GL334887   4.206   6.076  21.701  0.4252 -0.0582  0.0659
 1454BOLB   GL434888   4.156   5.793  21.476  0.1621 -0.3246 -0.0509
 1454BOLB   C1C34889   4.710   6.216  21.576  0.1235 -0.0554 -0.1675
 1454BOLB   C2C34890   5.188   5.979  21.724  0.2683 -0.0323  0.1451
 1454BOLB   C3C34891   5.502   5.808  21.919 -0.5191 -0.1243 -0.2445
 1454BOLB   C4C34892   5.669   5.454  22.170  0.3712 -0.1126 -0.2667
 1454BOLB   C1D34893   4.531   5.716  21.611  0.0698 -0.0106  0.0168
 1454BOLB   C2D34894   4.919   5.502  21.640  0.0630  0.0349 -0.1138
 1454BOLB   C3D34895   5.410   5.418  21.614 -0.1526  0.1778  0.2339
 1454BOLB   C4D34896   5.841   5.625  21.560 -0.1815  0.0480 -0.1805
 1455BOLB   NC134897   8.804   6.520  30.276  0.0825  0.1122 -0.3246
 1455BOLB   PO134898   8.476   6.324  30.576 -0.1091  0.2756 -0.3712
 1455BOLB   GL134899   8.303   6.531  30.895  0.1644 -0.0514  0.2335
 1455BOLB   GL234900   7.990   6.384  30.700 -0.0234 -0.1479 -0.0337
 1455BOLB   C1A34901   7.988   6.653  31.230 -0.4018 -0.0052  0.0405
 1455BOLB   C2A34902   7.962   7.031  31.604 -0.2330 -0.4660 -0.0141
 1455BOLB   C3A34903   8.043   7.194  32.011 -0.0059  0.0261 -0.2340
 1455BOLB   C4A34904   7.661   7.424  32.255 -0.1317 -0.0443 -0.1866
 1455BOLB   C1B34905   7.661   6.469  30.930 -0.0678 -0.0601  0.1340
 1455BOLB   C2B34906   7.514   6.628  31.274 -0.0068 -0.0633  0.2487
 1455BOLB   C3B34907   7.347   6.465  31.701  0.4863 -0.0794  0.0153
 1455BOLB   C4B34908   7.097   6.635  32.066 -0.0089  0.1805 -0.0158
 1455BOLB   NC234909   7.907   7.465  34.936 -0.0421 -0.0497  0.1097
 1455BOLB   PO234910   7.528   7.654  34.601 -0.2338 -0.4064  0.4441
 1455BOLB   GL334911   7.536   7.577  34.220 -0.0309 -0.0924 -0.0149
 1455BOLB   GL434912   7.762   7.864  34.036 -0.0084  0.1689  0.0319
 1455BOLB   C1C34913   7.494   7.491  33.808  0.0413 -0.1256 -0.3701
 1455BOLB   C2C34914   7.373   7.275  33.528 -0.2689 -0.2546 -0.0283
 1455BOLB   C3C34915   7.468   7.392  33.145  0.0561  0.1803 -0.0580
 1455BOLB   C4C34916   7.665   7.567  32.681 -0.4536 -0.0108 -0.3203
 1455BOLB   C1D34917   8.075   7.620  33.729  0.6606  0.2717 -0.2090
 1455BOLB   C2D34918   8.346   7.320  33.481 -0.1931 -0.0179  0.0680
 1455BOLB   C3D34919   8.606   7.437  33.083  0.2511 -0.1737 -0.0109
 1455BOLB   C4D34920   8.831   7.219  32.829  0.2819 -0.3028  0.0653
 1456BOLB   NC134921   8.060   6.541  23.047  0.1717 -0.1554 -0.0253
 1456BOLB   PO134922   8.199   6.667  22.619 -0.0412 -0.2553 -0.1350
 1456BOLB   GL134923   8.065   6.985  22.411 -0.0025 -0.0218 -0.1071
 1456BOLB   GL234924   8.218   6.842  22.135  0.0903  0.0204  0.1086
 1456BOLB   C1A34925   7.695   7.121  22.336 -0.1692 -0.2572 -0.0646
 1456BOLB   C2A34926   7.219   7.146  22.428  0.1279 -0.1491 -0.0062
 1456BOLB   C3A34927   6.841   7.278  22.531 -0.4927  0.3725 -0.0698
 1456BOLB   C4A34928   6.404   7.593  22.593 -0.3564  0.1013  0.1464
 1456BOLB   C1B34929   7.908   6.999  21.892  0.2949 -0.2844  0.2854
 1456BOLB   C2B34930   7.805   7.154  21.563 -0.0410 -0.2420  0.1267
 1456BOLB   C3B34931   7.365   7.399  21.359  0.1185  0.0182 -0.1590
 1456BOLB   C4B34932   7.084   7.714  21.469  0.0798 -0.2214 -0.3061
 1456BOLB   NC234933   3.910   8.284  21.322  0.2540  0.0589 -0.0736
 1456BOLB   PO234934   4.112   8.564  21.710  0.0665  0.2752  0.0647
 1456BOLB   GL334935   4.541   8.402  21.764 -0.1312  0.5051  0.1585
 1456BOLB   GL434936   4.532   8.247  21.983 -0.1518  0.0631  0.0931
 1456BOLB   C1C34937   5.009   8.376  21.815 -0.1451  0.1002 -0.1866
 1456BOLB   C2C34938   5.447   8.221  21.982  0.2082 -0.2353  0.0674
 1456BOLB   C3C34939   5.772   8.075  22.307 -0.2365 -0.0179 -0.0510
 1456BOLB   C4C34940   6.041   7.791  22.387  0.2204  0.1023  0.1252
 1456BOLB   C1D34941   4.790   7.951  21.725  0.3983 -0.0070 -0.3662
 1456BOLB   C2D34942   5.146   7.629  21.801 -0.0356  0.0002 -0.0967
 1456BOLB   C3D34943   5.475   7.670  22.127  0.2037 -0.2058 -0.2559
 1456BOLB   C4D34944   5.751   7.382  22.178 -0.2294  0.0474 -0.1098
 1457BOLB   NC134945  18.288   9.039  32.379 -0.0865  0.1076 -0.0531
 1457BOLB   PO134946  18.176   9.350  32.087  0.3138 -0.0539 -0.1331
 1457BOLB   GL134947  18.279   9.636  32.357 -0.1028 -0.1829 -0.1352
 1457BOLB   GL234948  18.387   9.454  32.625 -0.1684 -0.0672 -0.2249
 1457BOLB   C1A34949  18.675   9.789  32.421  0.3628  0.1682 -0.0300
 1457BOLB   C2A34950  18.894  10.188  32.489 -0.1960 -0.0359 -0.2317
 1457BOLB   C3A34951  19.016  10.572  32.693 -0.2183  0.3021 -0.2467
 1457BOLB   C4A34952  19.277  10.827  33.002 -0.1889 -0.0102 -0.0359
 1457BOLB   C1B34953  18.338   9.719  32.872 -0.2693  0.1524 -0.0878
 1457BOLB   C2B34954  18.558  10.133  32.876 -0.4078 -0.3704 -0.3635
 1457BOLB   C3B34955  18.618  10.483  33.179  0.0546  0.1581  0.0739
 1457BOLB   C4B34956  18.513  10.591  33.650  0.1124 -0.0417  0.1003
 1457BOLB   NC234957  20.785  11.837  34.621  0.1892 -0.0271 -0.3896
 1457BOLB   PO234958  20.724  11.835  34.152  0.0607 -0.1012 -0.1156
 1457BOLB   GL334959  20.604  11.398  34.103  0.1073 -0.1889 -0.0933
 1457BOLB   GL434960  20.883  11.214  33.943  0.0706  0.2864 -0.1387
 1457BOLB   C1C34961  20.244  11.108  33.936 -0.1606 -0.1286 -0.0170
 1457BOLB   C2C34962  19.787  11.108  33.916  0.2476 -0.1570  0.1188
 1457BOLB   C3C34963  19.541  11.009  33.655 -0.2949  0.0482  0.0659
 1457BOLB   C4C34964  19.322  11.112  33.270  0.0603 -0.0068  0.0418
 1457BOLB   C1D34965  20.665  11.208  33.623 -0.0283  0.0641  0.2290
 1457BOLB   C2D34966  20.639  10.933  33.290 -0.0795  0.3328 -0.2339
 1457BOLB   C3D34967  20.333  10.541  33.261  0.0022 -0.3534  0.1173
 1457BOLB   C4D34968  20.403  10.133  33.052  0.4250 -0.0852 -0.3395
 1458BOLB   NC134969  19.536  -2.519  27.802  0.0328 -0.1283 -0.2288
 1458BOLB   PO134970  19.493  -2.284  28.184 -0.0611  0.1195  0.1312
 1458BOLB   GL134971  19.449  -2.499  28.466 -0.0079 -0.1443 -0.0491
 1458BOLB   GL234972  19.492  -2.836  28.319  0.0735 -0.1557 -0.1786
 1458BOLB   C1A34973  19.553  -2.763  28.861 -0.0494  0.1672 -0.0631
 1458BOLB   C2A34974  19.916  -2.977  29.055  0.0172  0.0870 -0.2530
 1458BOLB   C3A34975  20.276  -3.196  29.267  0.0802  0.1227 -0.2043
 1458BOLB   C4A34976  20.698  -3.421  29.296  0.1562 -0.0351 -0.4054
 1458BOLB   C1B34977  19.267  -3.365  28.292 -0.0189 -0.0739 -0.0944
 1458BOLB   C2B34978  19.463  -3.878  28.163 -0.1191  0.0203  0.0133
 1458BOLB   C3B34979  19.552  -4.333  28.195 -0.0611  0.2820 -0.0978
 1458BOLB   C4B34980  20.012  -4.583  28.179 -0.0433  0.2825 -0.1639
 1458BOLB   NC234981  22.561  -4.832  30.541  0.0823  0.0313 -0.0902
 1458BOLB   PO234982  22.070  -4.887  30.563  0.1569  0.2583  0.3435
 1458BOLB   GL334983  21.972  -4.546  30.445 -0.2662  0.0001 -0.0302
 1458BOLB   GL434984  22.290  -4.415  30.321  0.3389 -0.1685  0.0807
 1458BOLB   C1C34985  21.668  -4.252  30.301 -0.0037 -0.2335  0.1988
 1458BOLB   C2C34986  21.646  -3.870  30.040 -0.4260 -0.0169  0.2474
 1458BOLB   C3C34987  21.305  -3.682  29.759  0.0705  0.2233  0.0848
 1458BOLB   C4C34988  20.894  -3.632  29.637 -0.0535  0.0456  0.1288
 1458BOLB   C1D34989  22.069  -4.277  29.890 -0.0268  0.2406 -0.1821
 1458BOLB   C2D34990  22.434  -4.004  29.651 -0.0814 -0.0451  0.1866
 1458BOLB   C3D34991  22.924  -3.926  29.604 -0.1965  0.1497  0.3199
 1458BOLB   C4D34992  23.307  -3.617  29.791 -0.2281  0.0126  0.0050
 1459BOLB   NC134993  19.699  11.214  23.110 -0.3133 -0.0708  0.0213
 1459BOLB   PO134994  19.396  11.018  22.929 -0.1204  0.1329 -0.2160
 1459BOLB   GL134995  19.548  11.243  22.645 -0.0420  0.1108 -0.1169
 1459BOLB   GL234996  19.400  11.458  22.465  0.1121  0.0173  0.2556
 1459BOLB   C1A34997  19.904  11.476  22.590  0.0826 -0.1201  0.2611
 1459BOLB   C2A34998  20.192  11.753  22.509 -0.1536 -0.1953 -0.1978
 1459BOLB   C3A34999  20.441  11.944  22.222 -0.0663  0.0497  0.1274
 1459BOLB   C4A35000  20.455  12.191  21.745 -0.0386  0.1272  0.0967
 1459BOLB   C1B35001  19.531  11.909  22.458 -0.1582  0.0070  0.6005
 1459BOLB   C2B35002  19.857  12.206  22.547  0.3358 -0.0929 -0.0101
 1459BOLB   C3B35003  19.764  12.613  22.311  0.0501  0.0093 -0.0899
 1459BOLB   C4B35004  19.435  12.762  22.097  0.0412 -0.2181  0.0525
 1459BOLB   NC235005  21.977  13.505  20.526 -0.2912  0.0427  0.0799
 1459BOLB   PO235006  21.515  13.652  20.448 -0.0372 -0.1480  0.0408
 1459BOLB   GL335007  21.526  13.350  20.711 -0.2329 -0.0762  0.1924
 1459BOLB   GL435008  21.169  13.389  20.690 -0.2725  0.0410 -0.0457
 1459BOLB   C1C35009  21.611  12.948  20.972 -0.1181  0.1628 -0.0612
 1459BOLB   C2C35010  21.346  12.691  21.091 -0.0764  0.2617  0.2650
 1459BOLB   C3C35011  20.936  12.521  21.113  0.1427 -0.0037 -0.1031
 1459BOLB   C4C35012  20.686  12.382  21.441 -0.0666  0.2299  0.1233
 1459BOLB   C1D35013  20.936  13.157  21.002  0.0851 -0.2237  0.0261
 1459BOLB   C2D35014  20.915  13.017  21.306 -0.4016 -0.0449  0.2630
 1459BOLB   C3D35015  20.993  12.814  21.684  0.4091  0.1494 -0.0019
 1459BOLB   C4D35016  21.222  12.777  22.108  0.1120  0.2788  0.0611
 1460BOLB   NC135017  14.452  -3.060  27.883  0.4065  0.0271  0.1375
 1460BOLB   PO135018  14.511  -3.472  27.775  0.0422  0.0027  0.3182
 1460BOLB   GL135019  14.450  -3.862  27.971  0.2749  0.2983 -0.4994
 1460BOLB   GL235020  14.525  -3.988  28.269 -0.2537  0.1678  0.0616
 1460BOLB   C1A35021  14.443  -4.374  27.846 -0.0260  0.0738  0.0635
 1460BOLB   C2A35022  14.605  -4.786  27.750  0.0669  0.1217  0.1350
 1460BOLB   C3A35023  14.677  -5.091  27.896  0.0838  0.0999  0.0584
 1460BOLB   C4A35024  14.910  -5.392  28.139  0.3554 -0.0191  0.1122
 1460BOLB   C1B35025  14.539  -4.335  28.320  0.2095  0.4507 -0.2105
 1460BOLB   C2B35026  14.499  -4.745  28.280 -0.1219 -0.2968  0.0238
 1460BOLB   C3B35027  14.407  -5.185  28.323 -0.0503 -0.0366 -0.2691
 1460BOLB   C4B35028  14.343  -5.528  28.058  0.0004  0.0893 -0.0243
 1460BOLB   NC235029  15.557  -7.778  28.463  0.1619 -0.0666 -0.1001
 1460BOLB   PO235030  15.066  -7.607  28.476  0.1483 -0.0843  0.1616
 1460BOLB   GL335031  15.218  -7.190  28.459  0.1872  0.1767  0.1080
 1460BOLB   GL435032  15.507  -7.257  28.479 -0.1201 -0.0032  0.3553
 1460BOLB   C1C35033  15.313  -6.829  28.354 -0.2549 -0.1977  0.1473
 1460BOLB   C2C35034  15.063  -6.401  28.381 -0.3098 -0.1362  0.2785
 1460BOLB   C3C35035  15.141  -6.076  28.363 -0.4989 -0.2713 -0.5254
 1460BOLB   C4C35036  15.184  -5.733  28.273 -0.1199 -0.0510 -0.3412
 1460BOLB   C1D35037  15.397  -7.188  27.986 -0.1157  0.0532  0.3762
 1460BOLB   C2D35038  15.130  -7.008  27.710 -0.0807  0.0038  0.2758
 1460BOLB   C3D35039  15.262  -6.562  27.513  0.4338  0.3099 -0.1214
 1460BOLB   C4D35040  15.512  -6.107  27.542  0.3012  0.1967 -0.1386
 1461BOLB   NC135041  20.857   9.673  22.605 -0.3140  0.3752  0.2579
 1461BOLB   PO135042  21.102   9.561  22.263 -0.4732  0.2152  0.2520
 1461BOLB   GL135043  21.462   9.559  22.059 -0.1758  0.0340  0.0102
 1461BOLB   GL235044  21.620   9.653  22.292 -0.2936 -0.1269  0.2912
 1461BOLB   C1A35045  21.691   9.905  21.838  0.2219 -0.2049  0.0330
 1461BOLB   C2A35046  21.862  10.159  21.542 -0.2080  0.1935 -0.0065
 1461BOLB   C3A35047  21.968  10.182  21.130 -0.0109 -0.0048 -0.1776
 1461BOLB   C4A35048  22.023  10.172  20.701 -0.2302  0.0533 -0.0159
 1461BOLB   C1B35049  21.714  10.101  22.324  0.3454 -0.1176  0.1471
 1461BOLB   C2B35050  22.099  10.243  22.548 -0.1517 -0.0131  0.2864
 1461BOLB   C3B35051  22.207  10.728  22.683  0.0264  0.1442 -0.0420
 1461BOLB   C4B35052  22.546  10.912  22.625  0.2267  0.3176 -0.2377
 1461BOLB   NC235053  23.323  11.547  18.349  0.1182  0.2406 -0.0047
 1461BOLB   PO235054  23.197  11.552  18.755 -0.0436 -0.2148 -0.1824
 1461BOLB   GL335055  22.957  11.326  19.105  0.0203  0.1449  0.1240
 1461BOLB   GL435056  22.956  11.534  19.373 -0.1999  0.0630  0.0490
 1461BOLB   C1C35057  22.601  11.201  19.438  0.1917 -0.0470 -0.0551
 1461BOLB   C2C35058  22.531  11.018  19.887  0.3831 -0.2536 -0.1248
 1461BOLB   C3C35059  22.313  10.757  20.272  0.3728 -0.3122  0.0175
 1461BOLB   C4C35060  22.279  10.319  20.431  0.1621  0.0333 -0.2489
 1461BOLB   C1D35061  23.077  11.125  19.541 -0.0182 -0.1291 -0.0391
 1461BOLB   C2D35062  22.937  10.713  19.604 -0.5104  0.0799 -0.1239
 1461BOLB   C3D35063  22.792  10.503  19.952  0.0578  0.5167  0.0597
 1461BOLB   C4D35064  22.869  10.287  20.337  0.0365  0.2363  0.2774
 1462BOLB   NC135065   7.534   7.488  24.997  0.2250  0.1298 -0.1271
 1462BOLB   PO135066   7.574   7.268  25.327  0.2863 -0.1192  0.4467
 1462BOLB   GL135067   7.220   7.445  25.582  0.2619  0.4744 -0.1133
 1462BOLB   GL235068   7.279   7.632  25.988  0.0992  0.1595 -0.0265
 1462BOLB   C1A35069   6.793   7.723  25.423  0.5523 -0.0797 -0.0010
 1462BOLB   C2A35070   6.441   8.115  25.447 -0.1278 -0.2043  0.2844
 1462BOLB   C3A35071   6.325   8.592  25.226  0.0263 -0.0406 -0.2465
 1462BOLB   C4A35072   6.172   8.836  25.388 -0.2242  0.0725  0.0381
 1462BOLB   C1B35073   6.883   7.728  25.924 -0.0027 -0.2920  0.1544
 1462BOLB   C2B35074   6.706   7.863  26.228  0.1651  0.2770 -0.1481
 1462BOLB   C3B35075   6.439   7.982  26.538 -0.4550 -0.3607 -0.4495
 1462BOLB   C4B35076   6.255   8.288  26.653 -0.0349  0.2421 -0.0649
 1462BOLB   NC235077   4.564  11.142  25.723 -0.0396 -0.1232  0.1097
 1462BOLB   PO235078   4.983  10.990  25.610  0.2028  0.1796 -0.0715
 1462BOLB   GL335079   5.293  10.578  25.457  0.1368 -0.1909 -0.4475
 1462BOLB   GL435080   5.598  10.501  25.615  0.0225  0.5759 -0.4156
 1462BOLB   C1C35081   5.372  10.064  25.486  0.0766  0.2689 -0.1184
 1462BOLB   C2C35082   5.149   9.661  25.592  0.1088 -0.2752  0.0154
 1462BOLB   C3C35083   5.519   9.264  25.705  0.1699  0.0717  0.2884
 1462BOLB   C4C35084   5.847   8.934  25.586  0.4822 -0.0673  0.2235
 1462BOLB   C1D35085   5.901  10.685  25.342 -0.2724 -0.3048  0.2111
 1462BOLB   C2D35086   6.196  10.976  25.334  0.2370  0.2066 -0.3021
 1462BOLB   C3D35087   6.366  11.174  25.044 -0.1386  0.1926  0.1246
 1462BOLB   C4D35088   6.726  11.350  24.799  0.2372  0.0064 -0.0470
 1463BOLB   NC135089  16.648  -2.646  29.049  0.0411  0.3568  0.1548
 1463BOLB   PO135090  16.399  -2.851  28.675 -0.0015 -0.0061  0.2127
 1463BOLB   GL135091  16.546  -3.169  28.840 -0.0013 -0.2643 -0.0030
 1463BOLB   GL235092  16.731  -3.275  28.643  0.1944  0.2022 -0.0706
 1463BOLB   C1A35093  16.449  -3.328  29.204 -0.0959  0.2932 -0.1052
 1463BOLB   C2A35094  16.495  -3.669  29.371 -0.0473 -0.2419  0.0236
 1463BOLB   C3A35095  16.513  -4.057  29.582  0.0115  0.1357  0.1241
 1463BOLB   C4A35096  16.406  -4.413  29.784 -0.0876 -0.2992 -0.0565
 1463BOLB   C1B35097  16.835  -3.595  28.999 -0.0884 -0.2692  0.0265
 1463BOLB   C2B35098  16.962  -3.970  29.191  0.0351 -0.0529 -0.0651
 1463BOLB   C3B35099  17.222  -4.194  29.534  0.0189 -0.1490 -0.0334
 1463BOLB   C4B35100  17.569  -3.926  29.801  0.0852  0.0057 -0.0153
 1463BOLB   NC235101  16.229  -6.024  31.582 -0.1612  0.2031 -0.2886
 1463BOLB   PO235102  16.690  -5.848  31.569 -0.2778 -0.1167 -0.0531
 1463BOLB   GL335103  16.604  -5.748  31.190 -0.1477 -0.0939 -0.0017
 1463BOLB   GL435104  16.988  -5.990  31.192 -0.1107 -0.0679 -0.1206
 1463BOLB   C1C35105  16.850  -5.536  30.987 -0.3279  0.0921 -0.0767
 1463BOLB   C2C35106  16.641  -5.187  30.781 -0.1957  0.1360 -0.3521
 1463BOLB   C3C35107  16.601  -4.877  30.463  0.2467  0.1641  0.1484
 1463BOLB   C4C35108  16.531  -4.702  30.021  0.0425  0.2695  0.0151
 1463BOLB   C1D35109  16.859  -5.963  30.794 -0.2508  0.0470 -0.1091
 1463BOLB   C2D35110  16.553  -5.660  30.562  0.1615 -0.2663  0.1801
 1463BOLB   C3D35111  16.366  -5.569  30.226  0.0095 -0.1901  0.2790
 1463BOLB   C4D35112  16.408  -5.168  30.051  0.3826 -0.0782 -0.1592
 1464BOLB   NC135113  16.861  -4.308  26.032  0.0609  0.1209 -0.0626
 1464BOLB   PO135114  16.653  -4.293  25.791 -0.1688 -0.0910  0.0509
 1464BOLB   GL135115  16.628  -4.757  25.820  0.1134  0.3540 -0.0211
 1464BOLB   GL235116  16.448  -4.773  25.614  0.0219  0.2368  0.1877
 1464BOLB   C1A35117  16.724  -5.193  25.871  0.0667 -0.0479  0.1693
 1464BOLB   C2A35118  17.053  -5.558  26.057  0.1918  0.0916  0.0372
 1464BOLB   C3A35119  17.160  -5.910  26.164 -0.2583 -0.0446  0.3551
 1464BOLB   C4A35120  17.011  -6.333  26.196  0.0664  0.4068  0.1541
 1464BOLB   C1B35121  16.264  -5.181  25.621 -0.0214  0.1246  0.2168
 1464BOLB   C2B35122  16.379  -5.532  25.421  0.3886 -0.1424 -0.1543
 1464BOLB   C3B35123  16.398  -5.958  25.462 -0.1531 -0.3545  0.2571
 1464BOLB   C4B35124  16.643  -6.217  25.380 -0.2231 -0.1956 -0.1273
 1464BOLB   NC235125  17.589  -8.029  27.878  0.0216 -0.1481  0.1702
 1464BOLB   PO235126  17.163  -7.958  27.747 -0.1950  0.0004 -0.1613
 1464BOLB   GL335127  16.890  -7.668  27.437 -0.0072  0.0204 -0.2399
 1464BOLB   GL435128  17.086  -7.444  27.372 -0.1031  0.3590 -0.3174
 1464BOLB   C1C35129  16.606  -7.584  27.039 -0.1431  0.2274  0.0140
 1464BOLB   C2C35130  16.878  -7.560  26.769  0.1313  0.3390  0.3304
 1464BOLB   C3C35131  16.928  -7.118  26.508  0.0344  0.0623 -0.0089
 1464BOLB   C4C35132  16.854  -6.713  26.304  0.3588 -0.0393 -0.0482
 1464BOLB   C1D35133  16.718  -7.138  27.348  0.0085  0.0843 -0.0971
 1464BOLB   C2D35134  16.656  -6.759  27.646  0.1973 -0.0549  0.1860
 1464BOLB   C3D35135  16.420  -6.293  27.705  0.0720 -0.1678  0.3982
 1464BOLB   C4D35136  16.504  -6.158  28.120 -0.0108 -0.1654 -0.3004
 1465BOLB   NC135137  21.061  10.661  27.337 -0.0308  0.2814 -0.1142
 1465BOLB   PO135138  20.680  10.786  27.692  0.3777 -0.0732  0.1078
 1465BOLB   GL135139  20.746  10.843  28.101 -0.1371  0.2004  0.2141
 1465BOLB   GL235140  20.411  10.975  28.117  0.1132  0.1687  0.0604
 1465BOLB   C1A35141  21.011  11.158  28.308 -0.3674  0.2082  0.0882
 1465BOLB   C2A35142  21.135  11.522  28.525  0.2716 -0.2216 -0.0815
 1465BOLB   C3A35143  21.223  11.963  28.717  0.2295  0.2925 -0.2201
 1465BOLB   C4A35144  21.570  12.078  29.007 -0.2060  0.3044  0.3393
 1465BOLB   C1B35145  20.317  11.306  28.052  0.0556  0.1136  0.0775
 1465BOLB   C2B35146  20.374  11.658  27.991 -0.1536 -0.0406 -0.1445
 1465BOLB   C3B35147  20.544  12.071  27.755  0.0445 -0.2660  0.2213
 1465BOLB   C4B35148  20.668  12.468  27.759  0.1475 -0.1896 -0.2280
 1465BOLB   NC235149  23.024  13.620  30.385 -0.1758  0.1159  0.2344
 1465BOLB   PO235150  23.175  13.720  29.877  0.0385  0.0457  0.0890
 1465BOLB   GL335151  22.856  13.378  29.808 -0.0169 -0.3135 -0.1483
 1465BOLB   GL435152  22.728  13.316  30.015 -0.0936  0.1029 -0.0989
 1465BOLB   C1C35153  22.631  13.208  29.457 -0.0331  0.4078  0.1072
 1465BOLB   C2C35154  22.232  12.991  29.420  0.0652 -0.0475 -0.1049
 1465BOLB   C3C35155  21.967  12.624  29.157 -0.1423 -0.0046 -0.3520
 1465BOLB   C4C35156  21.827  12.352  28.896 -0.0842  0.0665  0.3568
 1465BOLB   C1D35157  22.468  13.121  29.946  0.3236 -0.0753 -0.0288
 1465BOLB   C2D35158  22.251  12.688  29.874 -0.2415  0.2607  0.1333
 1465BOLB   C3D35159  22.273  12.352  29.526 -0.2991  0.2124  0.0940
 1465BOLB   C4D35160  22.075  12.048  29.285 -0.3923 -0.0344 -0.1236
 1466BOLB   NC135161   8.379   6.424  29.377 -0.1485 -0.2587 -0.0974
 1466BOLB   PO135162   8.172   6.132  29.782 -0.3108 -0.0112 -0.1795
 1466BOLB   GL135163   7.975   6.394  29.779 -0.3906 -0.3727  0.2333
 1466BOLB   GL235164   8.098   6.681  29.654 -0.0274 -0.0313 -0.1805
 1466BOLB   C1A35165   7.533   6.256  29.802 -0.1062 -0.1782 -0.2863
 1466BOLB   C2A35166   7.163   6.172  29.986  0.2332  0.0961 -0.0798
 1466BOLB   C3A35167   6.762   6.095  30.186 -0.3344  0.3273 -0.0415
 1466BOLB   C4A35168   6.604   5.890  30.525  0.0571  0.0330 -0.2906
 1466BOLB   C1B35169   7.618   6.808  29.758  0.1172  0.0522  0.0341
 1466BOLB   C2B35170   7.226   6.901  30.008 -0.1321 -0.1701  0.0745
 1466BOLB   C3B35171   6.794   7.021  30.041 -0.1268  0.0818  0.1607
 1466BOLB   C4B35172   6.537   7.268  30.266  0.1334 -0.1693 -0.2221
 1466BOLB   NC235173   4.762   5.916  32.016  0.0533  0.2036 -0.1311
 1466BOLB   PO235174   4.676   5.538  31.822 -0.1447 -0.0425 -0.2125
 1466BOLB   GL335175   4.932   5.714  31.546 -0.2000 -0.3780  0.0829
 1466BOLB   GL435176   4.875   5.974  31.529 -0.3943  0.1025 -0.3105
 1466BOLB   C1C35177   5.398   5.910  31.646 -0.0377 -0.0973 -0.4415
 1466BOLB   C2C35178   5.825   5.967  31.451  0.1207  0.3182  0.0184
 1466BOLB   C3C35179   6.098   5.806  31.164  0.0238  0.0391 -0.0069
 1466BOLB   C4C35180   6.462   5.859  30.947 -0.1177  0.2966  0.0880
 1466BOLB   C1D35181   5.202   5.971  31.180  0.0911  0.0521  0.2040
 1466BOLB   C2D35182   5.590   5.987  30.992  0.3553  0.0037 -0.0361
 1466BOLB   C3D35183   5.892   6.082  30.757  0.0491  0.0471  0.0008
 1466BOLB   C4D35184   6.226   6.171  30.634 -0.0231 -0.0408 -0.2134
 1467BOLB   NC135185  15.955   4.983  33.550 -0.2137  0.0252  0.0722
 1467BOLB   PO135186  15.698   4.538  33.611  0.3521  0.1083 -0.1337
 1467BOLB   GL135187  15.706   4.508  33.975  0.2090 -0.0532  0.0360
 1467BOLB   GL235188  15.726   4.177  33.958 -0.1159 -0.0994 -0.4948
 1467BOLB   C1A35189  15.671   4.600  34.421 -0.1405  0.0894  0.1886
 1467BOLB   C2A35190  15.711   4.422  34.806  0.1046 -0.0072  0.1747
 1467BOLB   C3A35191  15.624   4.428  35.271 -0.3191 -0.0993  0.2644
 1467BOLB   C4A35192  15.795   4.425  35.621  0.3408  0.1307 -0.2725
 1467BOLB   C1B35193  15.619   4.083  34.340 -0.4869  0.4546  0.0497
 1467BOLB   C2B35194  15.560   3.858  34.733 -0.0734  0.0333  0.1689
 1467BOLB   C3B35195  15.564   3.903  35.108  0.2287  0.0540 -0.1415
 1467BOLB   C4B35196  15.629   3.973  35.534 -0.2611  0.0634  0.1701
 1467BOLB   NC235197  15.684   4.268  38.311 -0.1368 -0.3016 -0.0969
 1467BOLB   PO235198  15.590   4.478  37.874  0.1262  0.1216 -0.0657
 1467BOLB   GL335199  15.776   4.440  37.500  0.1886  0.0515  0.0891
 1467BOLB   GL435200  15.998   4.673  37.370  0.3086  0.4152 -0.1098
 1467BOLB   C1C35201  15.758   4.493  37.010  0.1014 -0.1653  0.1108
 1467BOLB   C2C35202  15.965   4.491  36.702 -0.1171 -0.0715 -0.1493
 1467BOLB   C3C35203  16.024   4.340  36.287  0.0454 -0.1186  0.0434
 1467BOLB   C4C35204  16.100   4.400  35.852 -0.1365 -0.1944  0.0058
 1467BOLB   C1D35205  16.118   4.251  37.156  0.1691  0.1179 -0.3627
 1467BOLB   C2D35206  15.999   3.962  36.816 -0.0934 -0.1667 -0.0517
 1467BOLB   C3D35207  16.204   3.849  36.309 -0.0408 -0.0832  0.0331
 1467BOLB   C4D35208  16.340   4.042  36.033  0.0634  0.0769  0.1811
 1468BOLB   NC135209  18.428   7.567  33.231 -0.1203 -0.0105  0.0161
 1468BOLB   PO135210  18.850   7.393  33.205 -0.1524 -0.3476  0.2142
 1468BOLB   GL135211  18.891   7.561  33.656  0.3158  0.1531 -0.1335
 1468BOLB   GL235212  18.763   7.883  33.791 -0.0940 -0.0653 -0.0428
 1468BOLB   C1A35213  19.116   7.600  34.002 -0.0736  0.0614  0.2018
 1468BOLB   C2A35214  19.375   7.721  34.343 -0.1474 -0.0161  0.0427
 1468BOLB   C3A35215  19.637   7.589  34.751  0.1349 -0.0221  0.0954
 1468BOLB   C4A35216  19.620   7.546  35.127 -0.2443 -0.4120 -0.3679
 1468BOLB   C1B35217  19.137   8.227  34.068 -0.1008 -0.0605  0.1730
 1468BOLB   C2B35218  19.202   8.682  34.125  0.2086 -0.2706  0.1001
 1468BOLB   C3B35219  19.021   9.114  34.276  0.2709 -0.0381 -0.3658
 1468BOLB   C4B35220  19.166   9.542  34.169 -0.1655  0.0029  0.1394
 1468BOLB   NC235221  19.694   8.186  37.546  0.0518 -0.1395  0.0865
 1468BOLB   PO235222  19.537   7.824  37.255 -0.0807 -0.1938 -0.1402
 1468BOLB   GL335223  19.193   7.757  36.955  0.0802  0.0066 -0.1586
 1468BOLB   GL435224  18.882   7.862  36.882 -0.1974 -0.1926 -0.0106
 1468BOLB   C1C35225  19.260   7.802  36.538  0.3956  0.0253 -0.2648
 1468BOLB   C2C35226  19.157   7.640  36.170 -0.0542  0.1851  0.1216
 1468BOLB   C3C35227  19.280   7.495  35.800  0.3183  0.0490  0.0565
 1468BOLB   C4C35228  19.305   7.564  35.458 -0.4198 -0.0897 -0.1074
 1468BOLB   C1D35229  18.708   7.719  36.417 -0.1062  0.0059 -0.0156
 1468BOLB   C2D35230  18.658   7.476  36.084  0.0513 -0.1708 -0.0474
 1468BOLB   C3D35231  18.747   7.524  35.703  0.2675 -0.1632  0.0313
 1468BOLB   C4D35232  18.410   7.752  35.405  0.0079 -0.1374  0.2690
 1469BOLB   NC135233  13.695  -2.172  18.959 -0.0391 -0.0395 -0.0011
 1469BOLB   PO135234  13.734  -2.651  18.805 -0.1617 -0.1212  0.3030
 1469BOLB   GL135235  13.607  -2.968  18.373  0.0964 -0.1472  0.0018
 1469BOLB   GL235236  13.842  -3.257  18.217 -0.3415 -0.2242  0.0108
 1469BOLB   C1A35237  13.366  -3.311  18.409  0.2209 -0.1530  0.2638
 1469BOLB   C2A35238  13.111  -3.721  18.495  0.0404  0.2362 -0.0055
 1469BOLB   C3A35239  12.951  -4.038  18.370  0.1172  0.3173 -0.0732
 1469BOLB   C4A35240  12.828  -4.460  18.076 -0.3976  0.1691  0.1758
 1469BOLB   C1B35241  13.603  -3.295  17.810  0.6388  0.4844  0.0392
 1469BOLB   C2B35242  13.691  -3.202  17.257 -0.3391  0.0220 -0.1768
 1469BOLB   C3B35243  13.837  -3.601  17.009  0.0012  0.1166  0.0437
 1469BOLB   C4B35244  13.911  -3.836  16.713 -0.1371 -0.2210  0.1263
 1469BOLB   NC235245  11.602  -6.449  17.615 -0.0201 -0.4402  0.3192
 1469BOLB   PO235246  12.064  -6.468  17.472 -0.0448  0.1200 -0.3581
 1469BOLB   GL335247  12.144  -6.271  17.793 -0.0428  0.0813 -0.3214
 1469BOLB   GL435248  11.978  -6.355  18.094 -0.2943 -0.1778 -0.0472
 1469BOLB   C1C35249  12.336  -5.978  18.090 -0.2127  0.0842  0.2906
 1469BOLB   C2C35250  12.436  -5.627  18.272  0.3136  0.1044  0.1514
 1469BOLB   C3C35251  12.599  -5.226  18.317  0.0661  0.0761 -0.2943
 1469BOLB   C4C35252  12.661  -4.788  18.170  0.2629  0.1269  0.2638
 1469BOLB   C1D35253  12.140  -6.247  18.484 -0.0643 -0.0939 -0.0530
 1469BOLB   C2D35254  12.478  -6.073  18.713  0.1056  0.0979  0.1144
 1469BOLB   C3D35255  12.876  -6.114  18.799 -0.2109  0.3660 -0.0500
 1469BOLB   C4D35256  13.180  -5.895  19.118  0.3704  0.2068  0.1416
 1470BOLB   NC135257   9.942  10.901  29.273 -0.0244 -0.0540  0.0122
 1470BOLB   PO135258  10.057  10.533  29.484 -0.0200 -0.3465 -0.2211
 1470BOLB   GL135259   9.610  10.633  29.529  0.1053 -0.1066 -0.2707
 1470BOLB   GL235260   9.345  10.471  29.292  0.2248 -0.3293  0.1296
 1470BOLB   C1A35261   9.418  10.979  29.606  0.0985 -0.0675  0.0565
 1470BOLB   C2A35262   9.601  11.293  29.894 -0.1795  0.1710 -0.0168
 1470BOLB   C3A35263   9.639  11.575  30.107  0.2716 -0.1479 -0.0841
 1470BOLB   C4A35264   9.375  11.903  30.315  0.0330  0.4340 -0.2452
 1470BOLB   C1B35265   9.018  10.732  29.360  0.2215  0.0691  0.1238
 1470BOLB   C2B35266   9.036  10.896  29.848  0.0141  0.1632  0.0428
 1470BOLB   C3B35267   9.195  11.107  30.294 -0.0885  0.1316  0.0319
 1470BOLB   C4B35268   9.503  10.904  30.594 -0.1335  0.0818  0.3102
 1470BOLB   NC235269   8.468  13.272  32.270  0.0110  0.1962  0.1724
 1470BOLB   PO235270   8.180  12.928  32.179 -0.3036 -0.0851  0.1679
 1470BOLB   GL335271   8.299  12.714  31.797  0.3228  0.4383  0.2108
 1470BOLB   GL435272   8.333  12.485  32.036  0.3430  0.1027 -0.0059
 1470BOLB   C1C35273   8.364  12.350  31.448 -0.0688  0.1203  0.0228
 1470BOLB   C2C35274   8.640  12.408  31.146 -0.2148 -0.4201 -0.1899
 1470BOLB   C3C35275   8.811  12.097  30.831  0.4093 -0.0276  0.2296
 1470BOLB   C4C35276   9.239  11.993  30.660 -0.1970 -0.6474  0.0692
 1470BOLB   C1D35277   8.771  12.469  31.805 -0.1168 -0.2059  0.1430
 1470BOLB   C2D35278   9.016  12.253  31.433  0.0971  0.1826 -0.1765
 1470BOLB   C3D35279   9.054  11.856  31.169  0.0797 -0.0938  0.1211
 1470BOLB   C4D35280   9.319  11.471  31.078 -0.0911 -0.3381  0.0302
 1471BOLB   NC135281  13.632   6.470  33.444 -0.3386  0.0161  0.1027
 1471BOLB   PO135282  13.467   6.832  33.383 -0.1686 -0.2149 -0.2780
 1471BOLB   GL135283  13.287   6.660  33.730 -0.1682  0.1279 -0.0727
 1471BOLB   GL235284  13.399   6.385  33.951 -0.3010  0.0717  0.2995
 1471BOLB   C1A35285  13.028   6.648  34.004  0.1645  0.2252  0.2535
 1471BOLB   C2A35286  12.866   6.445  34.381  0.2535 -0.0594  0.2497
 1471BOLB   C3A35287  12.585   6.309  34.645  0.1793 -0.0213 -0.1863
 1471BOLB   C4A35288  12.310   6.052  34.976 -0.3251 -0.3472  0.2722
 1471BOLB   C1B35289  13.338   6.202  34.365 -0.2689 -0.1031 -0.2818
 1471BOLB   C2B35290  13.094   6.123  34.724 -0.3831 -0.0315  0.2038
 1471BOLB   C3B35291  13.280   5.835  35.025 -0.2466 -0.0983  0.1471
 1471BOLB   C4B35292  13.395   5.517  35.276 -0.0614 -0.2395 -0.2818
 1471BOLB   NC235293  11.552   6.020  37.641  0.1978  0.0933 -0.0017
 1471BOLB   PO235294  11.262   5.989  37.202 -0.2672  0.3071 -0.0617
 1471BOLB   GL335295  11.369   5.841  36.704  0.0030  0.0415 -0.5652
 1471BOLB   GL435296  11.542   6.079  36.795 -0.1354 -0.2809  0.1691
 1471BOLB   C1C35297  11.488   5.736  36.315 -0.1528 -0.0285 -0.2439
 1471BOLB   C2C35298  11.575   5.766  35.909 -0.0558 -0.4085  0.1845
 1471BOLB   C3C35299  11.874   5.934  35.685 -0.0855 -0.0267  0.3648
 1471BOLB   C4C35300  12.023   5.915  35.239 -0.0500  0.1372 -0.1215
 1471BOLB   C1D35301  12.055   5.856  36.715  0.1363 -0.0798 -0.2024
 1471BOLB   C2D35302  12.502   5.792  36.563  0.0417  0.1725  0.0199
 1471BOLB   C3D35303  12.846   5.879  36.370 -0.3769  0.2235  0.3566
 1471BOLB   C4D35304  12.917   5.979  35.895 -0.3299 -0.1992  0.1517
 1472BOLB   NC135305  11.516  -7.778  25.896  0.0418  0.4201  0.2431
 1472BOLB   PO135306  11.864  -7.956  26.224 -0.0167  0.2348 -0.0381
 1472BOLB   GL135307  11.840  -7.487  26.221 -0.2628 -0.0023  0.2408
 1472BOLB   GL235308  11.577  -7.315  26.336  0.2545  0.1619  0.3216
 1472BOLB   C1A35309  12.035  -7.128  26.261 -0.2189 -0.2426 -0.0538
 1472BOLB   C2A35310  12.005  -6.727  26.277 -0.4281  0.0550 -0.4188
 1472BOLB   C3A35311  12.134  -6.420  26.685  0.0180  0.0677 -0.3160
 1472BOLB   C4A35312  11.817  -6.047  26.865 -0.1611 -0.1361 -0.1669
 1472BOLB   C1B35313  11.508  -6.995  26.299 -0.0250  0.0280 -0.3825
 1472BOLB   C2B35314  11.511  -6.693  25.998 -0.0371 -0.2685 -0.1505
 1472BOLB   C3B35315  11.580  -6.236  25.960 -0.0666  0.0469  0.0029
 1472BOLB   C4B35316  11.555  -5.789  25.782  0.1165  0.0167 -0.1970
 1472BOLB   NC235317  10.895  -7.197  27.744 -0.2271 -0.0203 -0.0943
 1472BOLB   PO235318  10.504  -7.319  27.623 -0.0447 -0.2333  0.0818
 1472BOLB   GL335319  10.582  -6.856  27.515  0.1382  0.1905 -0.0643
 1472BOLB   GL435320  11.035  -6.872  27.392 -0.0215 -0.6428  0.1112
 1472BOLB   C1C35321  10.569  -6.502  27.681  0.0691 -0.2684 -0.1601
 1472BOLB   C2C35322  10.891  -6.235  27.733 -0.1012 -0.2885  0.1486
 1472BOLB   C3C35323  11.281  -6.150  27.610  0.2412 -0.0952 -0.0871
 1472BOLB   C4C35324  11.637  -5.948  27.223  0.2901  0.0166 -0.1306
 1472BOLB   C1D35325  11.145  -6.545  27.436  0.2823 -0.1565 -0.1102
 1472BOLB   C2D35326  11.215  -6.186  27.150  0.0847  0.2234 -0.1252
 1472BOLB   C3D35327  11.343  -6.002  26.801  0.1714 -0.1972 -0.0243
 1472BOLB   C4D35328  11.249  -5.571  26.553  0.1477 -0.2396 -0.0332
 1473BOLB   NC135329  24.298   4.895  26.637 -0.0564 -0.0578  0.0405
 1473BOLB   PO135330  24.695   5.078  26.673 -0.1293 -0.0937  0.0471
 1473BOLB   GL135331  25.081   5.226  26.687 -0.0117  0.0455  0.1261
 1473BOLB   GL235332  25.156   5.602  26.628 -0.1228 -0.0387  0.0955
 1473BOLB   C1A35333  25.456   5.311  26.890  0.0260  0.0420 -0.0095
 1473BOLB   C2A35334  25.697   5.680  26.629  0.0805  0.1026  0.2890
 1473BOLB   C3A35335  25.939   5.851  26.255  0.2235 -0.2567 -0.1504
 1473BOLB   C4A35336  26.381   6.125  26.212 -0.0341 -0.3132  0.3517
 1473BOLB   C1B35337  25.459   5.251  26.400 -0.2961 -0.0273  0.2635
 1473BOLB   C2B35338  25.458   4.819  26.354 -0.2479  0.1980 -0.3008
 1473BOLB   C3B35339  25.684   4.523  26.527 -0.1876  0.0077 -0.3135
 1473BOLB   C4B35340  25.990   4.318  26.672  0.0944 -0.0736  0.2190
 1473BOLB   NC235341  28.939   6.388  26.053 -0.2185 -0.1543 -0.3588
 1473BOLB   PO235342  28.823   6.319  25.652  0.3505 -0.0978  0.0050
 1473BOLB   GL335343  28.435   6.366  26.027 -0.2187 -0.1076  0.0811
 1473BOLB   GL435344  28.176   6.261  25.728  0.0974 -0.0820 -0.2090
 1473BOLB   C1C35345  28.068   6.469  26.165 -0.0728 -0.3241 -0.0076
 1473BOLB   C2C35346  27.619   6.296  26.289  0.0217 -0.3957  0.1602
 1473BOLB   C3C35347  27.239   6.239  26.242  0.0715  0.2925  0.2593
 1473BOLB   C4C35348  26.771   6.281  26.129 -0.1120  0.1296 -0.1055
 1473BOLB   C1D35349  27.807   6.232  25.800 -0.1560  0.1091 -0.1798
 1473BOLB   C2D35350  27.438   6.079  25.805  0.1489 -0.2692  0.0916
 1473BOLB   C3D35351  27.020   6.097  25.764 -0.0469 -0.2869 -0.0216
 1473BOLB   C4D35352  26.719   5.801  25.966  0.0702 -0.1189  0.1573
 1474BOLB   NC135353  20.238  -0.568  30.242  0.3332  0.0006 -0.3174
 1474BOLB   PO135354  20.613  -0.467  30.227 -0.1476 -0.1576  0.1033
 1474BOLB   GL135355  20.638  -0.734  30.554  0.1037 -0.3758 -0.3109
 1474BOLB   GL235356  20.778  -0.981  30.421  0.0882  0.0186  0.0160
 1474BOLB   C1A35357  20.545  -1.111  30.844  0.1683 -0.1092  0.0880
 1474BOLB   C2A35358  20.861  -1.321  30.892  0.1777  0.0805 -0.1643
 1474BOLB   C3A35359  21.239  -1.433  31.081 -0.0620 -0.1546 -0.0010
 1474BOLB   C4A35360  21.649  -1.460  31.227 -0.3165  0.1090 -0.0989
 1474BOLB   C1B35361  21.177  -1.034  30.558 -0.0109 -0.0497  0.0540
 1474BOLB   C2B35362  21.597  -1.200  30.788  0.2697 -0.2659 -0.0736
 1474BOLB   C3B35363  21.956  -0.971  31.154  0.1441 -0.2042 -0.0998
 1474BOLB   C4B35364  22.360  -0.955  31.223 -0.0770  0.2624  0.0799
 1474BOLB   NC235365  24.044  -2.023  32.319  0.0377  0.4459 -0.2083
 1474BOLB   PO235366  23.848  -2.334  32.063  0.1130  0.1085  0.0075
 1474BOLB   GL335367  23.475  -2.210  31.847 -0.1286 -0.0248 -0.1367
 1474BOLB   GL435368  23.289  -2.403  32.024 -0.2977 -0.0259 -0.1452
 1474BOLB   C1C35369  23.309  -1.856  31.661 -0.0314 -0.2523 -0.1925
 1474BOLB   C2C35370  23.045  -1.619  31.588  0.0879  0.2330  0.0895
 1474BOLB   C3C35371  22.596  -1.540  31.298 -0.2168  0.0676 -0.1954
 1474BOLB   C4C35372  22.127  -1.496  31.344  0.0652  0.0842 -0.1266
 1474BOLB   C1D35373  22.958  -2.280  31.712 -0.1272 -0.1183 -0.1366
 1474BOLB   C2D35374  22.732  -2.022  31.469  0.3118  0.0821 -0.0499
 1474BOLB   C3D35375  22.375  -2.007  31.263 -0.0387  0.2306  0.0775
 1474BOLB   C4D35376  22.156  -2.361  31.219 -0.0454  0.0488  0.1323
 1475BOLB   NC135377  23.143  -8.056  20.856  0.0065  0.1544 -0.2548
 1475BOLB   PO135378  23.149  -7.649  20.536  0.2692  0.1297  0.4378
 1475BOLB   GL135379  23.038  -7.293  20.363 -0.3881  0.0648  0.2080
 1475BOLB   GL235380  23.137  -6.971  20.504 -0.0471 -0.2246 -0.0591
 1475BOLB   C1A35381  22.702  -6.960  20.211  0.1997  0.3139 -0.1834
 1475BOLB   C2A35382  22.544  -6.752  19.798 -0.0387  0.3105 -0.0023
 1475BOLB   C3A35383  22.137  -6.697  19.517  0.3346  0.1345  0.0369
 1475BOLB   C4A35384  22.055  -7.065  19.324  0.0019  0.1927 -0.1030
 1475BOLB   C1B35385  23.052  -6.595  20.144 -0.3114 -0.1354  0.1277
 1475BOLB   C2B35386  23.131  -6.333  19.845 -0.3808  0.2098  0.2230
 1475BOLB   C3B35387  23.016  -6.237  19.386  0.1465  0.0496  0.1924
 1475BOLB   C4B35388  22.880  -5.753  19.362 -0.1790 -0.0139 -0.0387
 1475BOLB   NC235389  24.049  -8.323  19.024  0.1140  0.0448 -0.0131
 1475BOLB   PO235390  23.777  -8.229  19.294  0.1823 -0.2953 -0.0568
 1475BOLB   GL335391  23.477  -8.076  19.065 -0.3028  0.1272  0.1767
 1475BOLB   GL435392  23.254  -8.172  18.922  0.4669 -0.0649 -0.2448
 1475BOLB   C1C35393  23.427  -7.629  18.898 -0.1563  0.0753 -0.1964
 1475BOLB   C2C35394  23.129  -7.373  18.826  0.3309 -0.1724 -0.1601
 1475BOLB   C3C35395  22.629  -7.430  18.810  0.1353 -0.4158  0.2187
 1475BOLB   C4C35396  22.217  -7.358  18.942  0.1759 -0.0878 -0.0081
 1475BOLB   C1D35397  22.982  -7.887  18.598 -0.1287  0.0619  0.1566
 1475BOLB   C2D35398  22.874  -7.406  18.383 -0.1627 -0.1125  0.0755
 1475BOLB   C3D35399  22.696  -7.039  18.571 -0.1337 -0.3226 -0.0111
 1475BOLB   C4D35400  22.431  -6.902  18.888 -0.3623 -0.4377  0.0336
 1476BOLB   NC135401  10.260  -2.740  26.711  0.0897  0.0451  0.1978
 1476BOLB   PO135402  10.283  -2.686  26.257  0.5733  0.1671  0.0515
 1476BOLB   GL135403  10.059  -3.064  26.277  0.1781  0.1041  0.0959
 1476BOLB   GL235404   9.936  -3.242  25.984 -0.1274  0.2778 -0.2465
 1476BOLB   C1A35405   9.931  -3.401  26.506 -0.0725 -0.1241  0.0860
 1476BOLB   C2A35406   9.548  -3.617  26.372  0.2844 -0.2889  0.0767
 1476BOLB   C3A35407   9.373  -3.807  26.075  0.2692 -0.1824 -0.0074
 1476BOLB   C4A35408   8.873  -3.916  25.955 -0.2212 -0.2176  0.3184
 1476BOLB   C1B35409   9.571  -3.095  25.928 -0.1092  0.1707  0.2962
 1476BOLB   C2B35410   9.393  -3.382  25.842 -0.0320 -0.2250 -0.0532
 1476BOLB   C3B35411   8.923  -3.488  25.732  0.0222 -0.2849 -0.2163
 1476BOLB   C4B35412   8.481  -3.609  25.749  0.1691  0.1136  0.0007
 1476BOLB   NC235413   7.736  -6.047  25.135 -0.0567  0.0790 -0.0566
 1476BOLB   PO235414   7.578  -5.786  25.349 -0.4098  0.0721 -0.1758
 1476BOLB   GL335415   7.902  -5.436  25.443  0.4721 -0.0967  0.3396
 1476BOLB   GL435416   7.978  -5.282  25.193  0.1783 -0.1605  0.1642
 1476BOLB   C1C35417   8.028  -5.020  25.594 -0.0567  0.0447 -0.3308
 1476BOLB   C2C35418   8.298  -4.674  25.442  0.2946  0.2182 -0.0762
 1476BOLB   C3C35419   8.362  -4.281  25.536 -0.3272  0.2805 -0.0363
 1476BOLB   C4C35420   8.435  -4.147  25.850  0.0358 -0.0285 -0.1150
 1476BOLB   C1D35421   8.426  -5.234  25.371 -0.0358  0.1938  0.1713
 1476BOLB   C2D35422   8.864  -5.304  25.486  0.1479  0.4389 -0.3054
 1476BOLB   C3D35423   9.315  -5.311  25.278 -0.2028  0.2905 -0.1537
 1476BOLB   C4D35424   9.493  -5.218  24.995 -0.2722  0.5076  0.0221
 1477BOLB   NC135425   9.804   8.124  30.773 -0.0865  0.3086  0.0173
 1477BOLB   PO135426   9.585   7.826  30.915  0.0910 -0.1719 -0.0380
 1477BOLB   GL135427   9.314   8.120  31.133 -0.1344  0.1355 -0.1716
 1477BOLB   GL235428   9.620   8.231  31.400  0.0230 -0.0034  0.0985
 1477BOLB   C1A35429   8.968   8.261  31.285 -0.4158 -0.1651 -0.0073
 1477BOLB   C2A35430   8.573   8.502  31.304 -0.1303  0.2425 -0.2307
 1477BOLB   C3A35431   8.237   8.801  31.350  0.1574 -0.0051 -0.0931
 1477BOLB   C4A35432   8.008   8.902  31.759 -0.0529 -0.0955 -0.1357
 1477BOLB   C1B35433   9.259   8.211  31.740 -0.0265  0.0107 -0.3608
 1477BOLB   C2B35434   8.942   8.391  31.990  0.1335 -0.0821 -0.2479
 1477BOLB   C3B35435   8.796   8.313  32.453 -0.3374  0.1927  0.6795
 1477BOLB   C4B35436   9.006   8.309  32.866 -0.0218 -0.0621 -0.0542
 1477BOLB   NC235437   6.211  10.841  32.148  0.1120  0.3387  0.0726
 1477BOLB   PO235438   6.571  10.816  32.290  0.0017  0.0129 -0.2156
 1477BOLB   GL335439   6.822  10.451  32.224 -0.1023  0.2962  0.0064
 1477BOLB   GL435440   6.640  10.327  32.011 -0.1511  0.0570 -0.5334
 1477BOLB   C1C35441   7.087  10.088  32.368 -0.0692  0.3249  0.2753
 1477BOLB   C2C35442   7.190   9.641  32.197 -0.3294  0.0704 -0.1784
 1477BOLB   C3C35443   7.326   9.225  32.220  0.0095  0.4182 -0.1329
 1477BOLB   C4C35444   7.762   9.104  32.068  0.1275 -0.1456 -0.2328
 1477BOLB   C1D35445   6.980  10.205  31.720 -0.1339  0.2346 -0.2893
 1477BOLB   C2D35446   7.112   9.778  31.523  0.1607 -0.0096  0.3207
 1477BOLB   C3D35447   7.327   9.383  31.294 -0.0536 -0.0376  0.1675
 1477BOLB   C4D35448   7.086   8.924  31.281 -0.2417 -0.2943  0.0528
 1478BOLB   NC135449  24.064   1.887  23.195 -0.0493 -0.0026 -0.0532
 1478BOLB   PO135450  24.419   1.710  23.332 -0.0279 -0.0775  0.2443
 1478BOLB   GL135451  24.895   1.681  23.108 -0.1582 -0.4445  0.0254
 1478BOLB   GL235452  24.891   1.818  22.682  0.2377 -0.2337 -0.2253
 1478BOLB   C1A35453  25.382   1.768  23.107  0.0843  0.0306 -0.0547
 1478BOLB   C2A35454  25.724   1.571  23.132  0.1095 -0.1569 -0.2425
 1478BOLB   C3A35455  26.161   1.414  23.073  0.0698 -0.0889 -0.0615
 1478BOLB   C4A35456  26.606   1.324  22.921  0.2024 -0.3602  0.0100
 1478BOLB   C1B35457  25.320   1.913  22.466  0.0794 -0.0379 -0.2590
 1478BOLB   C2B35458  25.626   1.798  22.199 -0.0054  0.0885 -0.2275
 1478BOLB   C3B35459  25.752   1.362  22.285  0.1619 -0.0129 -0.0389
 1478BOLB   C4B35460  25.670   0.961  22.410 -0.1471 -0.0315 -0.0967
 1478BOLB   NC235461  28.647   1.462  22.752  0.4624  0.0757 -0.0352
 1478BOLB   PO235462  28.657   2.036  22.718 -0.2280 -0.0189  0.0450
 1478BOLB   GL335463  28.231   1.947  22.582  0.0796 -0.0356  0.0415
 1478BOLB   GL435464  28.184   1.645  22.587  0.0211  0.3319 -0.1493
 1478BOLB   C1C35465  27.843   2.023  22.650  0.1579  0.1415 -0.1674
 1478BOLB   C2C35466  27.505   2.054  22.786  0.2439 -0.1249  0.3386
 1478BOLB   C3C35467  27.081   1.809  22.858 -0.3066  0.0222  0.0197
 1478BOLB   C4C35468  26.879   1.599  22.680  0.0689  0.3101 -0.2089
 1478BOLB   C1D35469  27.874   1.554  22.975  0.1523  0.0084 -0.1273
 1478BOLB   C2D35470  27.440   1.576  23.159 -0.0727 -0.3200  0.4515
 1478BOLB   C3D35471  27.031   1.426  23.267  0.0660  0.1695  0.1850
 1478BOLB   C4D35472  26.572   1.475  23.399  0.0151  0.0559  0.2752
 1479BOLB   NC135473  16.467   5.727  33.562 -0.2153 -0.0080  0.0825
 1479BOLB   PO135474  16.483   6.148  33.675  0.0234  0.2256 -0.0794
 1479BOLB   GL135475  16.450   6.033  34.081 -0.1766 -0.4031 -0.0886
 1479BOLB   GL235476  16.559   5.714  34.047 -0.0321  0.2337 -0.0144
 1479BOLB   C1A35477  16.327   6.198  34.527 -0.0187 -0.2732  0.0819
 1479BOLB   C2A35478  16.543   6.201  34.932  0.0589 -0.1139  0.2638
 1479BOLB   C3A35479  16.499   6.454  35.274 -0.1908  0.1309 -0.0471
 1479BOLB   C4A35480  16.509   6.891  35.543  0.2662 -0.0617 -0.1975
 1479BOLB   C1B35481  16.909   5.984  34.235 -0.1486 -0.2258  0.2545
 1479BOLB   C2B35482  16.931   5.885  34.700 -0.1840 -0.0767  0.2710
 1479BOLB   C3B35483  17.013   5.971  35.124 -0.0254 -0.3523 -0.0231
 1479BOLB   C4B35484  17.054   6.312  35.466 -0.0372 -0.0918  0.2340
 1479BOLB   NC235485  16.620   8.077  37.378  0.3549 -0.0875  0.0003
 1479BOLB   PO235486  16.170   7.932  37.400 -0.0691  0.1046 -0.2057
 1479BOLB   GL335487  16.235   8.200  36.985 -0.3000 -0.3106 -0.1615
 1479BOLB   GL435488  16.505   8.293  36.820  0.1821 -0.2946 -0.0144
 1479BOLB   C1C35489  16.281   8.033  36.540 -0.1696  0.2754 -0.1050
 1479BOLB   C2C35490  16.586   7.756  36.408 -0.0046 -0.0814 -0.0242
 1479BOLB   C3C35491  16.751   7.344  36.259  0.1271 -0.3040 -0.0604
 1479BOLB   C4C35492  16.717   7.023  35.938  0.1245  0.3069  0.0225
 1479BOLB   C1D35493  16.504   8.443  36.406 -0.0593  0.0157 -0.1043
 1479BOLB   C2D35494  16.503   8.302  35.960 -0.5738  0.0529  0.1311
 1479BOLB   C3D35495  16.555   8.182  35.532 -0.3733  0.2239  0.1376
 1479BOLB   C4D35496  16.765   8.246  35.171 -0.0455 -0.2023  0.2036
 1480BOLB   NC135497  17.270   8.132  18.015 -0.0614  0.0390  0.3937
 1480BOLB   PO135498  16.888   8.050  17.820 -0.1267 -0.0898 -0.0146
 1480BOLB   GL135499  16.931   7.995  17.347 -0.2513  0.0933  0.0760
 1480BOLB   GL235500  16.984   7.694  17.267 -0.2650 -0.1204  0.0645
 1480BOLB   C1A35501  16.976   8.242  16.894 -0.1775 -0.1294  0.1276
 1480BOLB   C2A35502  17.191   8.419  16.538 -0.1921  0.1129  0.1547
 1480BOLB   C3A35503  17.376   8.709  16.140  0.1686 -0.2605 -0.2847
 1480BOLB   C4A35504  17.551   8.945  15.896 -0.1134  0.2186  0.0541
 1480BOLB   C1B35505  16.784   7.717  16.955 -0.0908 -0.0885  0.1633
 1480BOLB   C2B35506  16.914   7.839  16.551  0.0921 -0.0418 -0.1092
 1480BOLB   C3B35507  16.607   7.794  16.224  0.0526 -0.1326  0.2359
 1480BOLB   C4B35508  16.560   7.935  15.779 -0.0110  0.0624  0.1752
 1480BOLB   NC235509  19.168  10.708  15.495 -0.0253  0.0431 -0.2691
 1480BOLB   PO235510  19.084  10.437  15.157 -0.0290  0.0702 -0.3165
 1480BOLB   GL335511  19.106  10.067  15.262  0.1697  0.1223  0.2453
 1480BOLB   GL435512  19.245   9.831  15.111  0.2396  0.1113  0.2053
 1480BOLB   C1C35513  18.727   9.892  15.335 -0.1489 -0.0364  0.0407
 1480BOLB   C2C35514  18.351   9.544  15.323 -0.1900  0.1839  0.0729
 1480BOLB   C3C35515  18.047   9.282  15.417 -0.0113 -0.1627 -0.0806
 1480BOLB   C4C35516  17.700   9.214  15.597  0.0858  0.0158  0.0955
 1480BOLB   C1D35517  18.984   9.478  15.279  0.2819 -0.3651 -0.1238
 1480BOLB   C2D35518  18.716   9.302  15.544 -0.6431 -0.0177 -0.0797
 1480BOLB   C3D35519  18.619   9.052  15.850 -0.0478  0.1318 -0.0538
 1480BOLB   C4D35520  18.582   8.861  16.216 -0.0104  0.0266  0.1060
 1481BOLB   NC135521  24.778   6.486  27.759 -0.0757  0.2423  0.0865
 1481BOLB   PO135522  24.676   6.225  27.406 -0.0652 -0.3512  0.0318
 1481BOLB   GL135523  25.146   6.262  27.540 -0.4935 -0.0563 -0.2215
 1481BOLB   GL235524  25.268   6.207  27.366  0.0544 -0.3360 -0.1551
 1481BOLB   C1A35525  25.455   6.569  27.824 -0.0825 -0.2395  0.0964
 1481BOLB   C2A35526  25.544   6.765  28.145 -0.2332 -0.3511  0.0712
 1481BOLB   C3A35527  25.909   6.920  28.328 -0.3101 -0.0003  0.0806
 1481BOLB   C4A35528  26.089   6.607  28.372  0.2102 -0.0900 -0.1159
 1481BOLB   C1B35529  25.700   6.449  27.400 -0.2222  0.0526  0.0647
 1481BOLB   C2B35530  25.952   6.495  27.894 -0.1735 -0.3565 -0.0615
 1481BOLB   C3B35531  26.268   6.776  27.931 -0.0400 -0.0054 -0.1030
 1481BOLB   C4B35532  26.531   7.174  28.244 -0.1445  0.2943 -0.1582
 1481BOLB   NC235533  28.256   7.537  28.628 -0.1051  0.0358 -0.0166
 1481BOLB   PO235534  27.991   7.124  28.676 -0.1115 -0.2847  0.2370
 1481BOLB   GL335535  27.631   6.929  28.868 -0.2254  0.0286  0.0211
 1481BOLB   GL435536  27.799   6.651  28.854 -0.0870  0.0000  0.0272
 1481BOLB   C1C35537  27.211   6.986  29.012 -0.0605 -0.0711 -0.0086
 1481BOLB   C2C35538  26.864   6.784  29.008 -0.1196  0.2378  0.0747
 1481BOLB   C3C35539  26.444   6.591  29.024 -0.3157 -0.0370 -0.1685
 1481BOLB   C4C35540  26.293   6.355  28.687  0.0427  0.2374 -0.1102
 1481BOLB   C1D35541  27.431   6.391  28.966  0.2238 -0.0815 -0.2358
 1481BOLB   C2D35542  27.204   6.312  29.321  0.4490 -0.0931  0.0015
 1481BOLB   C3D35543  26.768   6.402  29.387  0.0407 -0.0230  0.1555
 1481BOLB   C4D35544  26.394   6.384  29.561 -0.3245  0.0367 -0.2297
 1482BOLB   NC135545  12.185   6.009  17.798  0.1023  0.1715 -0.0692
 1482BOLB   PO135546  12.082   5.523  17.839  0.2328 -0.4029  0.2014
 1482BOLB   GL135547  11.935   5.737  17.432  0.0369  0.0973 -0.1521
 1482BOLB   GL235548  12.197   5.966  17.232 -0.4731 -0.3337 -0.0163
 1482BOLB   C1A35549  11.722   5.773  17.054 -0.3126 -0.2999 -0.0590
 1482BOLB   C2A35550  11.483   6.019  16.801 -0.0875 -0.1794 -0.1232
 1482BOLB   C3A35551  11.222   6.237  16.477  0.0908  0.0904  0.2067
 1482BOLB   C4A35552  10.853   6.144  16.272 -0.1590  0.1271 -0.2856
 1482BOLB   C1B35553  11.991   6.184  16.912 -0.1651  0.2729 -0.3480
 1482BOLB   C2B35554  11.758   6.237  16.429 -0.0218  0.1592  0.1003
 1482BOLB   C3B35555  12.020   6.356  16.161  0.1831 -0.0573 -0.4242
 1482BOLB   C4B35556  12.180   6.677  16.007 -0.0061 -0.1486 -0.2019
 1482BOLB   NC235557   8.350   5.735  15.772 -0.0042  0.5233  0.0656
 1482BOLB   PO235558   8.578   5.397  15.475  0.3114  0.1935 -0.1542
 1482BOLB   GL335559   9.026   5.431  15.662 -0.3187 -0.4865 -0.2165
 1482BOLB   GL435560   9.120   5.164  15.829  0.1714  0.0808 -0.0096
 1482BOLB   C1C35561   9.412   5.542  15.892  0.1143  0.1049 -0.2834
 1482BOLB   C2C35562   9.779   5.685  16.046  0.2246  0.3287 -0.0376
 1482BOLB   C3C35563  10.114   5.836  16.266  0.2694  0.1751 -0.0684
 1482BOLB   C4C35564  10.498   6.083  16.290  0.0602 -0.0837 -0.0326
 1482BOLB   C1D35565   9.363   5.039  16.278 -0.2818 -0.1029  0.2819
 1482BOLB   C2D35566   9.614   4.928  16.626  0.3017 -0.2623 -0.1161
 1482BOLB   C3D35567   9.756   5.073  17.047  0.2002 -0.0978 -0.5743
 1482BOLB   C4D35568  10.084   5.289  17.297 -0.2293 -0.2817  0.1670
 1483BOLB   NC135569  14.905  12.180  29.043  0.3083 -0.2108 -0.1079
 1483BOLB   PO135570  14.477  12.199  28.917  0.1983  0.1269 -0.1659
 1483BOLB   GL135571  14.533  12.617  29.136 -0.2042 -0.0070 -0.0631
 1483BOLB   GL235572  14.807  12.554  29.391 -0.2256  0.1449 -0.2278
 1483BOLB   C1A35573  14.779  13.045  29.263 -0.0328 -0.1057 -0.1122
 1483BOLB   C2A35574  14.739  13.318  29.596  0.0096  0.2711  0.0473
 1483BOLB   C3A35575  14.780  13.490  30.033  0.0470 -0.0544  0.2199
 1483BOLB   C4A35576  14.944  13.777  30.311  0.1527  0.6311 -0.2202
 1483BOLB   C1B35577  14.783  12.814  29.725  0.3117 -0.0979  0.0497
 1483BOLB   C2B35578  15.060  13.084  29.975  0.0470  0.1706  0.0459
 1483BOLB   C3B35579  14.969  13.250  30.367  0.3397  0.2294 -0.0031
 1483BOLB   C4B35580  14.881  12.951  30.776 -0.2487 -0.2122 -0.1165
 1483BOLB   NC235581  15.262  14.531  32.674  0.2580  0.2572  0.0104
 1483BOLB   PO235582  15.624  14.591  32.403 -0.1323 -0.1959  0.1433
 1483BOLB   GL335583  15.371  14.274  32.118 -0.3144  0.2637  0.0209
 1483BOLB   GL435584  15.010  14.241  32.337 -0.1438  0.1386  0.1054
 1483BOLB   C1C35585  15.475  14.078  31.746  0.0502  0.0383 -0.4118
 1483BOLB   C2C35586  15.337  13.767  31.507 -0.0101 -0.4081 -0.1910
 1483BOLB   C3C35587  15.291  13.781  31.028  0.0570 -0.0794 -0.1048
 1483BOLB   C4C35588  15.187  13.643  30.708  0.0846  0.1094  0.2285
 1483BOLB   C1D35589  15.020  13.941  32.000  0.2283 -0.1635  0.0436
 1483BOLB   C2D35590  15.276  13.545  31.952  0.1826 -0.0832 -0.4376
 1483BOLB   C3D35591  15.199  13.047  31.888  0.2167  0.3038 -0.1258
 1483BOLB   C4D35592  15.492  12.691  32.075 -0.3591 -0.0250  0.0827
 1484BOLB   NC135593  20.716   7.961  18.991 -0.1146  0.0384 -0.3057
 1484BOLB   PO135594  20.362   7.893  18.736 -0.0761 -0.0987 -0.1326
 1484BOLB   GL135595  20.606   8.252  18.577  0.3529  0.0675  0.1044
 1484BOLB   GL235596  20.969   8.212  18.655  0.2005 -0.1838 -0.1233
 1484BOLB   C1A35597  20.665   8.624  18.321  0.0770 -0.2317 -0.3519
 1484BOLB   C2A35598  20.678   9.012  18.237 -0.2790 -0.2745  0.4417
 1484BOLB   C3A35599  20.575   9.531  18.304 -0.0955 -0.0811  0.1333
 1484BOLB   C4A35600  20.794   9.838  18.128 -0.0929  0.0909 -0.0966
 1484BOLB   C1B35601  21.130   8.323  18.308  0.2478  0.1334  0.1748
 1484BOLB   C2B35602  21.238   8.302  17.843  0.0882 -0.1052 -0.1074
 1484BOLB   C3B35603  21.482   8.627  17.585 -0.4419  0.0294 -0.1042
 1484BOLB   C4B35604  21.502   8.752  17.186  0.2691 -0.0233 -0.2179
 1484BOLB   NC235605  22.779  10.224  16.969 -0.0010  0.1861 -0.1767
 1484BOLB   PO235606  22.753  10.556  17.277  0.2588  0.1202 -0.1650
 1484BOLB   GL335607  22.536  10.488  17.642 -0.0207  0.1088  0.1375
 1484BOLB   GL435608  22.368  10.655  17.877 -0.1437 -0.0615 -0.0206
 1484BOLB   C1C35609  22.163  10.160  17.802  0.0343  0.1274 -0.1145
 1484BOLB   C2C35610  21.828  10.161  18.011  0.0674 -0.1201  0.0136
 1484BOLB   C3C35611  21.464  10.412  18.085 -0.1030  0.0591  0.1492
 1484BOLB   C4C35612  21.147  10.224  17.997  0.0617  0.3324 -0.1054
 1484BOLB   C1D35613  22.124  10.555  18.211 -0.0317  0.1532  0.1565
 1484BOLB   C2D35614  21.923  10.345  18.497  0.2969  0.0859 -0.3051
 1484BOLB   C3D35615  21.737  10.109  18.823  0.0141  0.0554 -0.2193
 1484BOLB   C4D35616  21.253  10.010  19.003 -0.1464  0.3602  0.3463
 1485BOLB   NC135617  21.778  -0.254  29.443 -0.1726 -0.1612 -0.2185
 1485BOLB   PO135618  22.146  -0.391  29.755  0.0393 -0.1714  0.1108
 1485BOLB   GL135619  22.135  -0.320  30.168  0.1460  0.5167 -0.0880
 1485BOLB   GL235620  21.941  -0.558  30.202 -0.0217  0.2610  0.1063
 1485BOLB   C1A35621  22.134  -0.331  30.645  0.0848 -0.2374  0.1162
 1485BOLB   C2A35622  22.043  -0.456  31.037 -0.0899  0.2538  0.0598
 1485BOLB   C3A35623  22.092  -0.557  31.413  0.0792  0.2327 -0.1000
 1485BOLB   C4A35624  22.139  -0.512  31.906 -0.1062 -0.3541 -0.2191
 1485BOLB   C1B35625  22.374  -0.740  30.268 -0.3736  0.0153 -0.1408
 1485BOLB   C2B35626  22.507  -0.700  30.695 -0.3448 -0.1509  0.2453
 1485BOLB   C3B35627  22.894  -0.863  31.118 -0.5304  0.0656  0.0814
 1485BOLB   C4B35628  22.950  -1.030  31.445 -0.1943 -0.1406 -0.3592
 1485BOLB   NC235629  23.823  -0.405  33.913  0.2254  0.2575 -0.1154
 1485BOLB   PO235630  23.796  -0.749  33.609 -0.5381 -0.0826  0.1168
 1485BOLB   GL335631  23.505  -0.687  33.342 -0.0869  0.1220  0.1089
 1485BOLB   GL435632  23.657  -0.610  33.157  0.1052 -0.2099  0.2428
 1485BOLB   C1C35633  23.158  -0.597  33.082  0.1928  0.3408  0.0667
 1485BOLB   C2C35634  22.948  -0.472  32.762 -0.0174  0.1349  0.2568
 1485BOLB   C3C35635  22.991  -0.492  32.339 -0.3196  0.2207  0.1806
 1485BOLB   C4C35636  22.579  -0.428  32.143 -0.2370 -0.0913  0.0323
 1485BOLB   C1D35637  23.358  -0.164  33.145 -0.2548 -0.0392 -0.1471
 1485BOLB   C2D35638  23.102   0.121  33.018  0.3723  0.1662  0.0404
 1485BOLB   C3D35639  22.802   0.393  32.816  0.0466 -0.0593  0.1418
 1485BOLB   C4D35640  22.594   0.737  32.606 -0.1796  0.1575 -0.1624
 1486BOLB   NC135641  17.421   4.079  16.783 -0.1382  0.0049 -0.1499
 1486BOLB   PO135642  17.380   3.920  16.351 -0.1149  0.0768  0.2028
 1486BOLB   GL135643  17.409   3.861  15.925 -0.1241 -0.0269 -0.2164
 1486BOLB   GL235644  17.107   3.729  15.802  0.0478 -0.0824  0.3135
 1486BOLB   C1A35645  17.542   3.738  15.579 -0.1840 -0.1588  0.1858
 1486BOLB   C2A35646  17.970   4.007  15.386  0.3715 -0.0411 -0.0002
 1486BOLB   C3A35647  18.220   4.202  14.909  0.2828  0.1753 -0.0312
 1486BOLB   C4A35648  18.422   4.015  14.431 -0.2250 -0.0129  0.0812
 1486BOLB   C1B35649  17.045   3.714  15.363  0.0951 -0.3785 -0.1223
 1486BOLB   C2B35650  17.217   3.702  15.033 -0.2312  0.1310 -0.1414
 1486BOLB   C3B35651  17.172   3.187  14.736 -0.3360 -0.1812 -0.1026
 1486BOLB   C4B35652  17.205   2.800  14.631  0.1137  0.0530  0.2453
 1486BOLB   NC235653  18.250   3.632  12.389  0.1232  0.1385 -0.1910
 1486BOLB   PO235654  18.206   3.232  12.198 -0.1476 -0.1093  0.0521
 1486BOLB   GL335655  18.277   3.126  12.521  0.1787  0.0957 -0.0493
 1486BOLB   GL435656  18.538   2.866  12.534  0.1953  0.1096  0.0358
 1486BOLB   C1C35657  18.506   3.387  12.966  0.3390 -0.2905  0.1728
 1486BOLB   C2C35658  18.642   3.487  13.318  0.4253  0.0313 -0.3175
 1486BOLB   C3C35659  18.627   3.770  13.666 -0.0093 -0.1517  0.0395
 1486BOLB   C4C35660  18.686   3.861  14.059 -0.1112  0.0244  0.2642
 1486BOLB   C1D35661  18.635   2.865  12.969  0.1485 -0.0766 -0.0978
 1486BOLB   C2D35662  18.444   2.917  13.308 -0.2162 -0.0112 -0.1928
 1486BOLB   C3D35663  18.493   3.128  13.668  0.2741 -0.1438  0.1575
 1486BOLB   C4D35664  18.559   2.873  14.023 -0.1250  0.1530  0.2862
 1487BOLB   NC135665  11.355   0.975  18.286 -0.0740  0.0692 -0.1126
 1487BOLB   PO135666  11.142   1.242  17.973 -0.1626 -0.1663  0.2462
 1487BOLB   GL135667  10.753   1.190  17.947  0.0426 -0.0924 -0.2442
 1487BOLB   GL235668  10.543   1.095  18.110  0.1030  0.0052  0.1975
 1487BOLB   C1A35669  10.445   1.141  17.539  0.3906  0.1567 -0.0405
 1487BOLB   C2A35670  10.131   0.994  17.224  0.0907  0.0285 -0.1293
 1487BOLB   C3A35671   9.745   0.831  17.238 -0.0754 -0.1863  0.0389
 1487BOLB   C4A35672   9.314   1.059  17.140  0.1986 -0.3931 -0.0330
 1487BOLB   C1B35673  10.110   1.153  18.014 -0.0815 -0.2227  0.0146
 1487BOLB   C2B35674   9.868   1.238  17.592 -0.3676 -0.1177 -0.3537
 1487BOLB   C3B35675   9.662   1.375  17.220 -0.1267  0.0522  0.1467
 1487BOLB   C4B35676   9.710   1.155  16.857  0.2232  0.4814 -0.0184
 1487BOLB   NC235677   7.282   1.884  15.693  0.1443  0.1112  0.0184
 1487BOLB   PO235678   7.277   1.404  15.873 -0.0828 -0.1873 -0.1224
 1487BOLB   GL335679   7.529   1.232  16.177 -0.2210  0.4629  0.2276
 1487BOLB   GL435680   7.303   1.243  16.437  0.1655 -0.0969  0.2710
 1487BOLB   C1C35681   7.908   1.122  16.395  0.4086  0.0095  0.1988
 1487BOLB   C2C35682   8.075   0.905  16.740 -0.0735  0.0847 -0.0668
 1487BOLB   C3C35683   8.544   0.747  16.848  0.0105 -0.0512  0.2560
 1487BOLB   C4C35684   8.983   1.024  16.784  0.0955  0.0205 -0.2596
 1487BOLB   C1D35685   7.657   1.318  16.747 -0.1330  0.2796  0.3205
 1487BOLB   C2D35686   7.865   1.373  17.045  0.3873 -0.0528 -0.0643
 1487BOLB   C3D35687   8.033   1.504  17.482 -0.3331  0.2206 -0.0912
 1487BOLB   C4D35688   8.225   1.605  17.806 -0.0107  0.0159 -0.2213
 1488BOLB   NC135689  14.814   6.512  33.040 -0.0147 -0.3231  0.2507
 1488BOLB   PO135690  14.678   6.399  33.397  0.2779  0.0525  0.0429
 1488BOLB   GL135691  14.718   6.277  33.874 -0.1349 -0.3365 -0.1484
 1488BOLB   GL235692  14.991   6.527  34.095  0.0793  0.1183  0.3032
 1488BOLB   C1A35693  14.399   6.400  34.253 -0.1777 -0.2275  0.2992
 1488BOLB   C2A35694  14.516   6.421  34.723  0.0536  0.1929 -0.0604
 1488BOLB   C3A35695  14.318   6.656  35.206 -0.3223  0.0987  0.0277
 1488BOLB   C4A35696  14.246   6.571  35.619  0.3154  0.0246 -0.0696
 1488BOLB   C1B35697  14.995   6.574  34.485  0.0466 -0.0295  0.0058
 1488BOLB   C2B35698  14.881   6.765  34.906  0.1693  0.0839 -0.0603
 1488BOLB   C3B35699  14.712   7.056  35.143 -0.0713 -0.0652 -0.0245
 1488BOLB   C4B35700  14.308   7.125  35.322  0.0071  0.1807  0.0992
 1488BOLB   NC235701  14.315   6.162  37.591  0.3143 -0.1430 -0.4480
 1488BOLB   PO235702  14.740   6.247  37.738 -0.0019  0.1958 -0.0020
 1488BOLB   GL335703  14.796   6.224  37.404  0.0374 -0.1032  0.2170
 1488BOLB   GL435704  15.005   5.971  37.366  0.0439  0.2512 -0.1115
 1488BOLB   C1C35705  14.768   6.190  37.019  0.1806 -0.0955 -0.0992
 1488BOLB   C2C35706  14.958   6.353  36.580 -0.4249  0.1668 -0.3192
 1488BOLB   C3C35707  14.786   6.402  36.233  0.1172 -0.2616  0.2218
 1488BOLB   C4C35708  14.289   6.644  36.023  0.3284 -0.1099 -0.1464
 1488BOLB   C1D35709  15.124   5.694  37.062 -0.3024 -0.2407  0.0380
 1488BOLB   C2D35710  15.126   5.377  36.822  0.1973  0.0786  0.1085
 1488BOLB   C3D35711  14.711   5.300  36.581  0.1633 -0.2412 -0.0515
 1488BOLB   C4D35712  14.752   5.467  36.103 -0.3557  0.1721 -0.1243
 1489BOLB   NC135713  23.289   0.097  21.473 -0.3374 -0.1119 -0.0038
 1489BOLB   PO135714  23.188  -0.136  21.761  0.2301  0.0721  0.1918
 1489BOLB   GL135715  23.476  -0.427  21.633  0.4428  0.1105 -0.0628
 1489BOLB   GL235716  23.742  -0.130  21.573  0.2086  0.1048  0.3928
 1489BOLB   C1A35717  23.513  -0.809  21.525 -0.1706  0.1967 -0.1344
 1489BOLB   C2A35718  23.853  -0.971  21.220 -0.3723  0.2854 -0.0218
 1489BOLB   C3A35719  24.150  -1.045  20.867  0.0378  0.1748 -0.4309
 1489BOLB   C4A35720  24.589  -1.056  21.035  0.2397 -0.2179 -0.1521
 1489BOLB   C1B35721  24.083  -0.180  21.539 -0.1126  0.1510  0.2321
 1489BOLB   C2B35722  24.465  -0.267  21.561  0.1791 -0.0856  0.0995
 1489BOLB   C3B35723  24.863  -0.511  21.712 -0.1690 -0.1846  0.0156
 1489BOLB   C4B35724  25.116  -0.859  21.901 -0.1343 -0.1017  0.2472
 1489BOLB   NC235725  26.411  -1.108  19.190 -0.1672  0.1719  0.0562
 1489BOLB   PO235726  26.617  -0.921  19.509  0.1296  0.0249 -0.1010
 1489BOLB   GL335727  26.339  -0.834  19.916  0.0704  0.0610  0.1224
 1489BOLB   GL435728  26.340  -0.528  20.079  0.0401 -0.1429  0.2244
 1489BOLB   C1C35729  26.012  -0.931  20.047  0.2076 -0.0408  0.2641
 1489BOLB   C2C35730  25.545  -0.874  20.194  0.0837 -0.3074  0.0843
 1489BOLB   C3C35731  25.397  -0.871  20.625 -0.2380  0.2474  0.2531
 1489BOLB   C4C35732  24.986  -1.011  20.843  0.2530  0.2521  0.1673
 1489BOLB   C1D35733  25.914  -0.470  20.093 -0.0423 -0.0498  0.1089
 1489BOLB   C2D35734  25.550  -0.243  19.997  0.0828 -0.1821 -0.1887
 1489BOLB   C3D35735  25.288   0.153  19.991 -0.0408  0.0512  0.0917
 1489BOLB   C4D35736  25.189   0.592  20.190 -0.1638 -0.1910  0.4179
 1490BOLB   NC135737  16.417  12.823  27.453 -0.1197 -0.1101 -0.1814
 1490BOLB   PO135738  16.053  12.888  27.236  0.2057 -0.0363  0.1631
 1490BOLB   GL135739  16.095  13.229  27.325 -0.0710 -0.1321  0.2979
 1490BOLB   GL235740  15.860  13.325  27.121  0.2573 -0.3123  0.0654
 1490BOLB   C1A35741  16.248  13.549  27.468  0.1349  0.0031 -0.1427
 1490BOLB   C2A35742  16.359  14.011  27.614 -0.0199  0.2976  0.2427
 1490BOLB   C3A35743  16.727  14.314  27.645 -0.0497  0.0543  0.0714
 1490BOLB   C4A35744  17.054  14.597  27.766  0.2531  0.0174  0.0612
 1490BOLB   C1B35745  15.917  13.690  27.156  0.4598 -0.2641  0.0679
 1490BOLB   C2B35746  15.983  14.103  27.315  0.4235  0.3628  0.3141
 1490BOLB   C3B35747  16.047  14.522  27.548  0.3132 -0.4310  0.2441
 1490BOLB   C4B35748  16.051  14.926  27.917 -0.0865  0.0053 -0.0241
 1490BOLB   NC235749  17.602  17.023  26.754 -0.2516  0.1752 -0.0594
 1490BOLB   PO235750  17.307  16.750  26.551  0.0879 -0.0090 -0.0124
 1490BOLB   GL335751  17.257  16.296  26.831 -0.0926  0.0858  0.1944
 1490BOLB   GL435752  16.971  16.148  26.737 -0.0911 -0.2991 -0.1915
 1490BOLB   C1C35753  17.361  15.814  26.691 -0.1665  0.1141  0.1431
 1490BOLB   C2C35754  17.491  15.563  27.086  0.1561 -0.1365  0.0929
 1490BOLB   C3C35755  17.244  15.321  27.383  0.1355 -0.0495  0.2251
 1490BOLB   C4C35756  17.207  14.931  27.558  0.2143  0.0082 -0.2899
 1490BOLB   C1D35757  16.714  15.840  26.775 -0.1793 -0.0122 -0.1721
 1490BOLB   C2D35758  16.253  15.767  26.724  0.0088  0.2677  0.2557
 1490BOLB   C3D35759  15.980  15.673  26.380  0.0637  0.0961  0.1103
 1490BOLB   C4D35760  15.693  15.695  26.084  0.0861 -0.0335 -0.0850
 1491BOLB   NC135761  22.513   7.606  22.753 -0.1881 -0.1881  0.1520
 1491BOLB   PO135762  22.605   7.668  22.369 -0.2878 -0.0055 -0.3220
 1491BOLB   GL135763  22.864   7.976  22.274 -0.0070  0.1065 -0.0338
 1491BOLB   GL235764  23.029   8.038  21.931  0.0803 -0.0529  0.0981
 1491BOLB   C1A35765  23.020   8.435  22.201 -0.1539  0.1352  0.0506
 1491BOLB   C2A35766  23.176   8.645  21.855 -0.1735  0.0224 -0.0634
 1491BOLB   C3A35767  23.331   8.758  21.452 -0.2285  0.0549  0.0080
 1491BOLB   C4A35768  23.692   8.896  21.306  0.0419  0.3828  0.2044
 1491BOLB   C1B35769  23.472   8.276  22.100  0.0032 -0.1897  0.1215
 1491BOLB   C2B35770  23.659   8.616  22.234  0.2225  0.3150 -0.2405
 1491BOLB   C3B35771  24.005   8.989  22.301  0.0282 -0.0346  0.1031
 1491BOLB   C4B35772  23.902   9.401  22.097 -0.2230 -0.2526 -0.2049
 1491BOLB   NC235773  25.361   9.822  19.934  0.2054 -0.0202 -0.1484
 1491BOLB   PO235774  25.221   9.619  19.570  0.2992  0.1423  0.0844
 1491BOLB   GL335775  24.832   9.399  19.685 -0.2125 -0.4942  0.3839
 1491BOLB   GL435776  24.789   9.743  19.924 -0.0192  0.1320  0.0426
 1491BOLB   C1C35777  24.370   9.462  19.900 -0.1641  0.0496  0.0704
 1491BOLB   C2C35778  24.145   9.217  20.192  0.4313  0.0468  0.0641
 1491BOLB   C3C35779  23.989   9.196  20.647  0.1990  0.1416 -0.1542
 1491BOLB   C4C35780  23.700   9.150  21.059  0.1021 -0.0274 -0.1116
 1491BOLB   C1D35781  24.701   9.416  20.267  0.1041  0.2084 -0.1007
 1491BOLB   C2D35782  24.510   9.074  20.573 -0.0837 -0.1916 -0.3232
 1491BOLB   C3D35783  24.304   8.924  21.037  0.1668  0.2432 -0.4338
 1491BOLB   C4D35784  24.111   8.588  21.351  0.4556 -0.4110 -0.5169
 1492BOLB   NC135785  21.578  -1.505  26.726 -0.1771  0.2957  0.1770
 1492BOLB   PO135786  21.688  -1.673  27.095 -0.1091 -0.2681  0.4371
 1492BOLB   GL135787  21.883  -1.886  27.368 -0.0309  0.0063  0.0034
 1492BOLB   GL235788  21.875  -2.207  27.430  0.4073  0.1584 -0.0953
 1492BOLB   C1A35789  22.231  -1.910  27.678 -0.0675  0.0756 -0.3772
 1492BOLB   C2A35790  22.486  -2.082  28.010 -0.2048 -0.0792 -0.3006
 1492BOLB   C3A35791  22.658  -2.393  28.337  0.2404  0.2560  0.2873
 1492BOLB   C4A35792  22.739  -2.745  28.503  0.0931  0.0981  0.2822
 1492BOLB   C1B35793  22.115  -2.628  27.560  0.2783 -0.0122  0.0123
 1492BOLB   C2B35794  22.284  -3.069  27.704  0.1515  0.0917 -0.1287
 1492BOLB   C3B35795  22.329  -3.477  27.571  0.1664  0.1975 -0.0194
 1492BOLB   C4B35796  22.233  -3.750  27.927 -0.1771  0.0789 -0.2625
 1492BOLB   NC235797  23.335  -5.010  28.650 -0.0245 -0.0113  0.0549
 1492BOLB   PO235798  23.677  -4.948  28.930 -0.1010  0.0799 -0.0451
 1492BOLB   GL335799  23.696  -4.525  28.988 -0.0741 -0.4850  0.2056
 1492BOLB   GL435800  23.923  -4.288  28.743 -0.3711  0.1550 -0.0848
 1492BOLB   C1C35801  23.537  -4.155  29.003 -0.1251  0.0243  0.4947
 1492BOLB   C2C35802  23.275  -3.808  28.715  0.0208 -0.0935 -0.1364
 1492BOLB   C3C35803  22.930  -3.541  28.676  0.0447  0.0124  0.0240
 1492BOLB   C4C35804  22.740  -3.176  28.730  0.1350  0.1606 -0.1563
 1492BOLB   C1D35805  23.685  -3.982  28.431  0.1840 -0.0701 -0.0104
 1492BOLB   C2D35806  23.279  -3.712  28.185  0.1697  0.0681 -0.1113
 1492BOLB   C3D35807  23.229  -3.540  27.912  0.1125 -0.1044  0.3311
 1492BOLB   C4D35808  23.368  -3.028  27.776 -0.3118  0.1966  0.2974
 1493BOLB   NC135809  23.294   6.933  22.464 -0.3987  0.1130 -0.1594
 1493BOLB   PO135810  23.535   6.544  22.362  0.1449 -0.0521 -0.0487
 1493BOLB   GL135811  23.749   6.759  22.197  0.2034  0.2128 -0.0440
 1493BOLB   GL235812  23.696   6.879  21.869 -0.1359 -0.0947 -0.2428
 1493BOLB   C1A35813  24.302   6.714  22.152  0.1284 -0.0095  0.0597
 1493BOLB   C2A35814  24.760   6.963  22.108  0.3351  0.1076  0.4801
 1493BOLB   C3A35815  24.963   7.112  21.735  0.2225  0.2069 -0.0103
 1493BOLB   C4A35816  25.144   7.230  21.364 -0.1540  0.1690 -0.1484
 1493BOLB   C1B35817  24.075   7.152  21.931 -0.0595 -0.1102 -0.2075
 1493BOLB   C2B35818  24.454   7.230  21.696 -0.4266  0.0873 -0.0658
 1493BOLB   C3B35819  24.609   7.461  21.287  0.2062  0.0021  0.2132
 1493BOLB   C4B35820  24.384   7.288  20.999 -0.0320 -0.3147  0.2426
 1493BOLB   NC235821  27.188   8.797  20.290  0.1222  0.1885  0.2134
 1493BOLB   PO235822  26.839   8.765  20.633  0.1666  0.0607  0.0518
 1493BOLB   GL335823  26.404   8.531  20.825  0.2666 -0.2526  0.1595
 1493BOLB   GL435824  26.368   8.541  21.122 -0.1823  0.0915 -0.1607
 1493BOLB   C1C35825  26.271   8.121  20.731 -0.0122 -0.0664  0.1792
 1493BOLB   C2C35826  26.008   7.598  20.777 -0.0233 -0.1163  0.0700
 1493BOLB   C3C35827  25.878   7.288  21.146  0.1322 -0.1393 -0.0444
 1493BOLB   C4C35828  25.484   7.285  21.233  0.1903 -0.1413  0.0351
 1493BOLB   C1D35829  25.967   8.673  21.176  0.0543  0.0712  0.3370
 1493BOLB   C2D35830  25.658   8.890  21.365 -0.1521  0.0478  0.2280
 1493BOLB   C3D35831  25.279   9.135  21.373  0.0638 -0.3669  0.0583
 1493BOLB   C4D35832  24.931   9.056  21.684  0.0002  0.0606 -0.1693
 1494BOLB   NC135833   9.077   6.445  20.947  0.0461  0.2939  0.2207
 1494BOLB   PO135834   8.769   6.195  20.998  0.1107  0.0227 -0.2273
 1494BOLB   GL135835   8.452   6.230  20.718  0.1353 -0.0602  0.0150
 1494BOLB   GL235836   8.112   6.271  20.668 -0.1281 -0.0878  0.1434
 1494BOLB   C1A35837   8.352   6.185  20.264  0.1848  0.5116  0.0575
 1494BOLB   C2A35838   8.350   6.194  19.835 -0.0299 -0.0080  0.0717
 1494BOLB   C3A35839   8.177   6.381  19.525 -0.0137 -0.0623 -0.0755
 1494BOLB   C4A35840   7.967   6.778  19.390  0.0806 -0.0628 -0.1102
 1494BOLB   C1B35841   7.821   6.493  20.428  0.0298  0.0718  0.3087
 1494BOLB   C2B35842   7.613   6.299  20.043  0.1381  0.1738 -0.3323
 1494BOLB   C3B35843   7.400   5.903  20.043 -0.0427  0.0465 -0.2179
 1494BOLB   C4B35844   7.329   5.811  20.403 -0.1740 -0.1679 -0.0614
 1494BOLB   NC235845   6.148   7.480  18.710  0.0484  0.2263  0.2067
 1494BOLB   PO235846   6.480   7.794  18.587 -0.2266  0.1679 -0.3103
 1494BOLB   GL335847   6.644   7.584  18.849  0.1008  0.1572  0.2762
 1494BOLB   GL435848   6.606   7.272  18.769 -0.0967 -0.0383 -0.2270
 1494BOLB   C1C35849   6.778   7.696  19.183  0.1458 -0.0449  0.0639
 1494BOLB   C2C35850   7.005   7.472  19.512 -0.0051 -0.0857 -0.0839
 1494BOLB   C3C35851   7.311   7.263  19.342 -0.1756  0.0537  0.1069
 1494BOLB   C4C35852   7.780   7.153  19.422 -0.1561 -0.2831  0.0257
 1494BOLB   C1D35853   6.883   7.161  19.092  0.1346  0.2568 -0.0924
 1494BOLB   C2D35854   6.911   6.928  19.490 -0.1187  0.0154  0.0781
 1494BOLB   C3D35855   6.973   6.553  19.726  0.1293 -0.0533  0.0276
 1494BOLB   C4D35856   7.085   6.331  20.133 -0.0599 -0.2041  0.2025
 1495BOLB   NC135857  21.731   8.844  28.443 -0.0830  0.0252 -0.1981
 1495BOLB   PO135858  22.025   9.230  28.461 -0.0221 -0.0713  0.2495
 1495BOLB   GL135859  22.129   9.535  28.717  0.5538 -0.2673 -0.3233
 1495BOLB   GL235860  21.926   9.757  28.942 -0.0202  0.0355 -0.2176
 1495BOLB   C1A35861  22.415   9.916  28.829 -0.0491 -0.2830  0.1196
 1495BOLB   C2A35862  22.695  10.111  28.607  0.0842 -0.2488 -0.0656
 1495BOLB   C3A35863  22.855  10.533  28.570 -0.0920 -0.4376 -0.1116
 1495BOLB   C4A35864  23.225  10.658  28.805 -0.2117 -0.2111 -0.0521
 1495BOLB   C1B35865  22.227   9.801  29.312  0.2190  0.1404  0.2484
 1495BOLB   C2B35866  22.688   9.952  29.335 -0.0901 -0.1855 -0.3709
 1495BOLB   C3B35867  22.994  10.098  29.116 -0.4361 -0.1934 -0.0587
 1495BOLB   C4B35868  23.184  10.180  28.733 -0.0228  0.2735 -0.1730
 1495BOLB   NC235869  24.449  12.562  29.505  0.0409  0.0884 -0.5644
 1495BOLB   PO235870  24.533  12.287  29.281 -0.0795 -0.2269 -0.0322
 1495BOLB   GL335871  24.472  11.947  29.051 -0.0108 -0.0147 -0.0130
 1495BOLB   GL435872  24.780  11.768  29.143 -0.0990 -0.0103 -0.1891
 1495BOLB   C1C35873  24.329  11.486  29.110 -0.0695 -0.1934  0.2371
 1495BOLB   C2C35874  24.258  11.116  29.205  0.1025 -0.3166  0.0996
 1495BOLB   C3C35875  23.960  10.900  29.019  0.2043  0.0662  0.1499
 1495BOLB   C4C35876  23.627  10.528  28.878 -0.2413  0.0915  0.1264
 1495BOLB   C1D35877  24.652  11.341  29.452 -0.1979  0.1502  0.0009
 1495BOLB   C2D35878  24.462  11.239  29.794 -0.2183 -0.0272  0.2158
 1495BOLB   C3D35879  24.203  10.874  29.821  0.1350 -0.0312 -0.2454
 1495BOLB   C4D35880  24.047  10.553  29.585 -0.0743 -0.1755  0.1399
 1496BOLB   NC135881  21.763   3.504  32.068  0.0021 -0.5305  0.0723
 1496BOLB   PO135882  21.886   3.929  32.014  0.0685  0.1831  0.0033
 1496BOLB   GL135883  22.292   3.822  32.115  0.2044 -0.1463 -0.0668
 1496BOLB   GL235884  22.450   3.933  32.058 -0.0595  0.3334 -0.0632
 1496BOLB   C1A35885  22.401   3.762  32.503  0.0457  0.3153 -0.0091
 1496BOLB   C2A35886  22.455   3.997  32.846  0.1812  0.2715  0.0224
 1496BOLB   C3A35887  22.682   4.098  33.238 -0.2691  0.2674  0.0674
 1496BOLB   C4A35888  23.049   4.271  33.313 -0.1422  0.2175  0.0852
 1496BOLB   C1B35889  22.748   3.571  32.203 -0.2232  0.0960 -0.0381
 1496BOLB   C2B35890  22.879   3.562  32.638 -0.2497 -0.1109  0.0405
 1496BOLB   C3B35891  22.748   3.647  33.014 -0.0145 -0.4462  0.3399
 1496BOLB   C4B35892  22.849   3.608  33.459 -0.3224  0.2214 -0.4123
 1496BOLB   NC235893  25.347   3.651  34.006  0.1585 -0.0394 -0.2794
 1496BOLB   PO235894  25.029   3.857  34.357 -0.1526  0.0508  0.1445
 1496BOLB   GL335895  24.898   3.856  33.857 -0.4311 -0.1283 -0.4173
 1496BOLB   GL435896  24.987   3.768  33.607 -0.0374 -0.2161  0.1768
 1496BOLB   C1C35897  24.435   4.007  33.760  0.0239  0.0262  0.1476
 1496BOLB   C2C35898  24.295   4.232  33.457 -0.1785  0.1004  0.1449
 1496BOLB   C3C35899  23.925   4.256  33.429  0.2518 -0.1167 -0.1701
 1496BOLB   C4C35900  23.516   4.461  33.376  0.2016  0.2598 -0.4175
 1496BOLB   C1D35901  24.581   3.584  33.490 -0.0451 -0.1110 -0.1574
 1496BOLB   C2D35902  24.157   3.767  33.265  0.2439  0.1949 -0.3331
 1496BOLB   C3D35903  23.895   3.989  32.993 -0.1736  0.1978 -0.0850
 1496BOLB   C4D35904  23.874   4.463  32.808 -0.2549  0.1717 -0.0320
 1497BOLB   NC135905  12.850   0.334  17.134  0.0028  0.1923 -0.0932
 1497BOLB   PO135906  12.581   0.655  17.098  0.1402 -0.2217 -0.0273
 1497BOLB   GL135907  12.361   0.607  16.777 -0.4331  0.0818  0.1666
 1497BOLB   GL235908  12.273   0.834  16.538  0.1391  0.0716  0.2463
 1497BOLB   C1A35909  11.985   0.512  16.596 -0.0340  0.0893 -0.1461
 1497BOLB   C2A35910  11.531   0.552  16.657  0.0445  0.0682  0.1264
 1497BOLB   C3A35911  11.190   0.630  16.463  0.3106 -0.0308 -0.1143
 1497BOLB   C4A35912  11.133   0.552  16.140  0.2004  0.3355 -0.2417
 1497BOLB   C1B35913  12.203   1.121  16.190 -0.1145  0.0117 -0.0074
 1497BOLB   C2B35914  12.073   1.342  15.743 -0.0211 -0.5001 -0.1516
 1497BOLB   C3B35915  11.718   1.261  15.464 -0.0292 -0.0001 -0.2738
 1497BOLB   C4B35916  11.501   1.397  15.014  0.1658 -0.0560 -0.0239
 1497BOLB   NC235917   9.277  -1.146  14.905  0.0542  0.1287  0.1578
 1497BOLB   PO235918   9.530  -0.808  14.643 -0.4638  0.0428 -0.0906
 1497BOLB   GL335919   9.806  -0.685  14.900 -0.3282  0.1740  0.2651
 1497BOLB   GL435920   9.838  -0.891  15.192  0.0101  0.1921  0.0561
 1497BOLB   C1C35921  10.117  -0.447  15.103 -0.1845 -0.0444  0.2201
 1497BOLB   C2C35922  10.423  -0.235  15.383 -0.0125  0.5224  0.0536
 1497BOLB   C3C35923  10.733   0.041  15.542 -0.1285 -0.0585  0.2307
 1497BOLB   C4C35924  11.036   0.291  15.742  0.1818  0.0625 -0.1097
 1497BOLB   C1D35925  10.111  -1.046  15.403  0.1626 -0.0860 -0.2366
 1497BOLB   C2D35926  10.211  -0.988  15.866  0.0151 -0.2011  0.0981
 1497BOLB   C3D35927  10.469  -0.978  16.221  0.0505  0.2786  0.3391
 1497BOLB   C4D35928  10.566  -0.833  16.537 -0.3221 -0.0963  0.0639
 1498BOLB   NC135929  10.879   4.491  18.654  0.0601  0.0178  0.1137
 1498BOLB   PO135930  10.613   4.388  19.063 -0.1764  0.0622 -0.0086
 1498BOLB   GL135931  10.329   4.622  18.743 -0.1888  0.1766  0.2518
 1498BOLB   GL235932  10.230   4.414  18.364  0.0878 -0.1185 -0.0703
 1498BOLB   C1A35933  10.023   4.857  18.479 -0.0646  0.1733 -0.0824
 1498BOLB   C2A35934   9.684   5.035  18.149  0.2032 -0.2290  0.1851
 1498BOLB   C3A35935   9.396   5.229  17.981 -0.2292 -0.0255  0.1517
 1498BOLB   C4A35936   9.187   5.336  17.715 -0.1733  0.1500 -0.2000
 1498BOLB   C1B35937  10.043   4.198  17.902 -0.0418 -0.3548  0.1753
 1498BOLB   C2B35938   9.624   4.260  17.847 -0.0837  0.0766 -0.0678
 1498BOLB   C3B35939   9.283   4.262  17.675 -0.1008  0.1094  0.1380
 1498BOLB   C4B35940   8.938   4.461  17.406 -0.0640  0.1859  0.2329
 1498BOLB   NC235941   6.801   6.014  17.082 -0.3948  0.1710 -0.1775
 1498BOLB   PO235942   7.054   5.860  16.657  0.1171 -0.0112  0.1337
 1498BOLB   GL335943   7.412   5.835  16.883  0.0840  0.0983  0.2279
 1498BOLB   GL435944   7.248   5.809  17.213  0.0980 -0.1185 -0.0352
 1498BOLB   C1C35945   7.832   5.593  16.928  0.0599  0.2455  0.2306
 1498BOLB   C2C35946   8.199   5.506  17.205 -0.1369 -0.2996  0.0099
 1498BOLB   C3C35947   8.571   5.673  17.499  0.1229 -0.2919 -0.1150
 1498BOLB   C4C35948   8.991   5.601  17.571 -0.1932  0.2098 -0.0467
 1498BOLB   C1D35949   7.285   5.430  17.557 -0.1009 -0.0134 -0.2629
 1498BOLB   C2D35950   7.440   5.070  17.963  0.0152 -0.1141  0.3806
 1498BOLB   C3D35951   7.560   4.709  18.051  0.1286  0.0306  0.0479
 1498BOLB   C4D35952   7.638   4.448  18.348 -0.3429 -0.0216 -0.0869
 1499BOLB   NC135953   8.905  -0.842  21.638 -0.0904 -0.0516 -0.2095
 1499BOLB   PO135954   8.794  -0.567  21.987  0.0282 -0.1090 -0.0733
 1499BOLB   GL135955   8.629  -1.047  22.100 -0.0683  0.1299 -0.2530
 1499BOLB   GL235956   8.324  -1.042  22.216 -0.0578 -0.2800 -0.2440
 1499BOLB   C1A35957   8.475  -1.324  21.824 -0.0977  0.2004  0.1407
 1499BOLB   C2A35958   8.119  -1.321  21.534  0.0044  0.0343 -0.1230
 1499BOLB   C3A35959   7.930  -1.569  21.292 -0.2314  0.4220 -0.1244
 1499BOLB   C4A35960   7.787  -1.407  20.834 -0.1703  0.1226  0.0900
 1499BOLB   C1B35961   7.941  -1.304  22.166 -0.1033  0.1386  0.0210
 1499BOLB   C2B35962   7.521  -1.467  22.236 -0.2004 -0.0867 -0.0282
 1499BOLB   C3B35963   7.518  -1.780  22.269 -0.1433  0.1166 -0.2465
 1499BOLB   C4B35964   7.850  -2.039  22.257 -0.3158  0.0512  0.1326
 1499BOLB   NC235965   9.763   0.331  20.498 -0.0503  0.0988 -0.1530
 1499BOLB   PO235966   9.373   0.102  20.379  0.1604  0.3496  0.2064
 1499BOLB   GL335967   8.985  -0.182  20.124  0.1718  0.1308 -0.0484
 1499BOLB   GL435968   8.613  -0.121  20.195 -0.1383  0.4174 -0.0678
 1499BOLB   C1C35969   8.757  -0.545  20.000 -0.0148  0.0833 -0.0681
 1499BOLB   C2C35970   8.448  -0.962  20.059  0.3163  0.1683 -0.0113
 1499BOLB   C3C35971   8.088  -1.071  20.267  0.1243 -0.1796  0.1910
 1499BOLB   C4C35972   7.701  -1.253  20.526 -0.1599  0.1961  0.2593
 1499BOLB   C1D35973   8.492  -0.023  19.780 -0.2462  0.2737 -0.0540
 1499BOLB   C2D35974   8.516  -0.438  19.528  0.1204 -0.0851 -0.3099
 1499BOLB   C3D35975   8.664  -0.576  19.161 -0.0612 -0.0607 -0.0562
 1499BOLB   C4D35976   8.466  -0.626  18.829 -0.4285 -0.4192  0.0565
 1500BOLB   NC135977  11.128   6.057  31.809 -0.2147 -0.4056  0.1347
 1500BOLB   PO135978  11.241   6.501  31.672 -0.3276  0.0027  0.1649
 1500BOLB   GL135979  11.012   6.716  32.035  0.0253  0.0855  0.0356
 1500BOLB   GL235980  10.869   6.441  32.267  0.1181 -0.1863  0.2493
 1500BOLB   C1A35981  10.827   7.041  32.353  0.1383 -0.1806  0.1617
 1500BOLB   C2A35982  10.805   7.374  32.557 -0.0912 -0.0186  0.0011
 1500BOLB   C3A35983  10.533   7.462  32.900 -0.2880 -0.1979  0.0114
 1500BOLB   C4A35984  10.457   7.466  33.413 -0.0094 -0.0829  0.2299
 1500BOLB   C1B35985  10.788   6.412  32.725 -0.0051 -0.2126  0.1979
 1500BOLB   C2B35986  10.595   6.377  33.117  0.3444 -0.0894  0.0219
 1500BOLB   C3B35987  10.446   6.534  33.445 -0.4922  0.0275  0.2659
 1500BOLB   C4B35988  10.354   6.971  33.613  0.0894  0.0097  0.0198
 1500BOLB   NC235989   9.501   7.243  36.011  0.0721  0.0270 -0.2175
 1500BOLB   PO235990   9.484   6.986  35.710 -0.3692 -0.1412  0.2533
 1500BOLB   GL335991   9.764   6.868  35.364  0.2062  0.1325  0.0836
 1500BOLB   GL435992   9.834   6.550  35.233  0.1402 -0.2184  0.0885
 1500BOLB   C1C35993   9.823   6.880  34.872 -0.0003 -0.4970  0.0988
 1500BOLB   C2C35994   9.928   6.871  34.471 -0.0037 -0.1980  0.1139
 1500BOLB   C3C35995  10.053   7.123  34.161  0.5054  0.3827 -0.1432
 1500BOLB   C4C35996  10.258   7.431  33.870  0.2745  0.0021 -0.0532
 1500BOLB   C1D35997   9.816   6.459  34.718 -0.0024  0.2212  0.1803
 1500BOLB   C2D35998   9.950   6.297  34.426 -0.1525  0.7502 -0.0656
 1500BOLB   C3D35999  10.255   6.092  34.039  0.1275 -0.3237 -0.1348
 1500BOLB   C4D36000  10.135   6.205  33.608 -0.1384  0.0375  0.0043
 1501BOLB   NC136001  20.649   9.960  21.427  0.0822  0.0835 -0.0918
 1501BOLB   PO136002  20.252   9.883  21.685  0.1188  0.3959  0.2924
 1501BOLB   GL136003  20.271  10.311  21.522  0.2761  0.2080  0.0085
 1501BOLB   GL236004  20.469  10.531  21.328 -0.0096 -0.0148 -0.0313
 1501BOLB   C1A36005  20.178  10.788  21.576 -0.3350 -0.1655  0.3204
 1501BOLB   C2A36006  20.307  11.176  21.560 -0.0506  0.0075  0.3341
 1501BOLB   C3A36007  20.470  11.563  21.492  0.3001 -0.0236 -0.0297
 1501BOLB   C4A36008  20.546  11.962  21.122  0.1290  0.3939  0.0784
 1501BOLB   C1B36009  20.687  10.852  21.500 -0.1787 -0.0342  0.1741
 1501BOLB   C2B36010  20.864  11.236  21.487 -0.1103 -0.1510 -0.1025
 1501BOLB   C3B36011  21.255  11.550  21.256  0.0420  0.0404  0.1662
 1501BOLB   C4B36012  21.716  11.527  21.183  0.0672  0.1091  0.2050
 1501BOLB   NC236013  21.391  13.658  19.933  0.1660 -0.0542 -0.0509
 1501BOLB   PO236014  21.153  13.796  19.665 -0.3746  0.0551  0.2586
 1501BOLB   GL336015  20.823  13.513  19.754 -0.0376  0.2798 -0.2457
 1501BOLB   GL436016  20.890  13.512  20.076  0.0854 -0.2088 -0.0756
 1501BOLB   C1C36017  20.657  13.147  19.897 -0.1707  0.0536 -0.0195
 1501BOLB   C2C36018  20.594  12.821  20.249  0.1531 -0.0438  0.0167
 1501BOLB   C3C36019  20.318  12.566  20.541  0.1091 -0.1949  0.0086
 1501BOLB   C4C36020  20.485  12.361  20.894  0.1814 -0.2855  0.1638
 1501BOLB   C1D36021  21.023  13.099  20.245  0.1397  0.0630 -0.0485
 1501BOLB   C2D36022  21.118  12.751  20.088  0.0481 -0.3028  0.0833
 1501BOLB   C3D36023  21.282  12.304  19.836  0.1758  0.1481  0.4962
 1501BOLB   C4D36024  21.330  11.971  19.664 -0.0024  0.0719 -0.1129
 1502BOLB   NC136025  16.672  10.963  21.638 -0.2661 -0.1873  0.1115
 1502BOLB   PO136026  16.922  11.047  22.020  0.1084  0.1528  0.4294
 1502BOLB   GL136027  16.859  11.424  21.865  0.0728 -0.0992 -0.1980
 1502BOLB   GL236028  17.026  11.658  21.625  0.0262  0.1743  0.2951
 1502BOLB   C1A36029  16.522  11.786  21.854 -0.0017  0.3163 -0.1095
 1502BOLB   C2A36030  16.337  12.241  21.906  0.1142  0.2040 -0.2046
 1502BOLB   C3A36031  16.255  12.496  21.580  0.3432  0.2791 -0.2573
 1502BOLB   C4A36032  16.329  12.830  21.349  0.0719  0.0130  0.2245
 1502BOLB   C1B36033  17.426  11.996  21.710 -0.0652  0.1723  0.1906
 1502BOLB   C2B36034  17.770  12.263  21.616  0.0261  0.0624 -0.1557
 1502BOLB   C3B36035  18.097  12.596  21.626  0.1298  0.0859  0.0051
 1502BOLB   C4B36036  18.318  12.971  21.620  0.4660  0.3244  0.1768
 1502BOLB   NC236037  16.810  15.324  21.061 -0.3356 -0.1921  0.0259
 1502BOLB   PO236038  16.476  15.319  21.279  0.0568  0.0047 -0.1710
 1502BOLB   GL336039  16.303  14.917  21.146  0.0141  0.4831 -0.0893
 1502BOLB   GL436040  15.932  14.963  21.077 -0.0784 -0.0326 -0.1960
 1502BOLB   C1C36041  16.382  14.492  21.331  0.1667  0.3929  0.2879
 1502BOLB   C2C36042  16.470  14.058  21.225  0.1123 -0.2046 -0.0335
 1502BOLB   C3C36043  16.656  13.679  21.316 -0.1265  0.3020  0.2711
 1502BOLB   C4C36044  16.540  13.214  21.087 -0.0336  0.2936 -0.0379
 1502BOLB   C1D36045  15.871  14.505  21.176 -0.0268 -0.2875 -0.3093
 1502BOLB   C2D36046  15.922  14.106  21.357  0.1801 -0.0966  0.2279
 1502BOLB   C3D36047  15.884  13.670  21.493 -0.0033  0.4619 -0.2090
 1502BOLB   C4D36048  15.796  13.336  21.701  0.1484  0.3924 -0.2787
 1503BOLB   NC136049   9.081   2.098  30.803  0.1776  0.0005 -0.0863
 1503BOLB   PO136050   9.176   1.816  30.535 -0.0872 -0.2125  0.0513
 1503BOLB   GL136051   8.728   1.710  30.571 -0.0934 -0.0755  0.2898
 1503BOLB   GL236052   8.521   1.485  30.304 -0.0745  0.1223  0.0277
 1503BOLB   C1A36053   8.338   1.656  30.816  0.1519  0.2147 -0.0801
 1503BOLB   C2A36054   7.894   1.345  30.817 -0.3801 -0.0664 -0.0056
 1503BOLB   C3A36055   7.492   1.266  30.999 -0.2136 -0.0370 -0.1417
 1503BOLB   C4A36056   7.257   0.763  31.046  0.1054  0.0560  0.1236
 1503BOLB   C1B36057   8.293   1.100  30.418  0.2690 -0.2745  0.0989
 1503BOLB   C2B36058   8.082   0.864  30.706  0.0546  0.0084  0.3374
 1503BOLB   C3B36059   7.757   0.653  30.885 -0.0645  0.0268 -0.2258
 1503BOLB   C4B36060   7.606   0.300  30.937 -0.0336 -0.2865 -0.0135
 1503BOLB   NC236061   5.937  -0.669  31.714  0.0316  0.5667  0.2886
 1503BOLB   PO236062   5.682  -0.558  31.306 -0.1307 -0.0536 -0.0658
 1503BOLB   GL336063   6.083  -0.426  31.311  0.1731 -0.4413 -0.0610
 1503BOLB   GL436064   6.008  -0.148  31.241 -0.0538 -0.1076  0.0763
 1503BOLB   C1C36065   6.491  -0.571  31.204 -0.1704 -0.1811  0.1046
 1503BOLB   C2C36066   6.880  -0.225  31.191 -0.0026 -0.1044  0.2135
 1503BOLB   C3C36067   6.882   0.160  31.307  0.0694 -0.1275 -0.0811
 1503BOLB   C4C36068   7.132   0.385  31.115 -0.4413 -0.0427 -0.1129
 1503BOLB   C1D36069   6.267   0.077  31.011 -0.0574  0.2166 -0.1172
 1503BOLB   C2D36070   6.457   0.391  31.026 -0.1467  0.1807 -0.0672
 1503BOLB   C3D36071   6.748   0.713  31.184  0.2080  0.1096  0.2527
 1503BOLB   C4D36072   6.872   1.113  31.146 -0.1942  0.0508 -0.0625
 1504BOLB   NC136073  15.215   8.716  13.411 -0.1561 -0.0330 -0.1704
 1504BOLB   PO136074  14.916   8.368  13.373  0.3211  0.3176  0.1831
 1504BOLB   GL136075  14.847   8.117  13.784  0.0713 -0.1138  0.1210
 1504BOLB   GL236076  15.024   7.850  13.929 -0.0571  0.1376  0.1660
 1504BOLB   C1A36077  15.007   8.229  14.221 -0.0550  0.1395 -0.0260
 1504BOLB   C2A36078  15.180   8.458  14.697  0.0620  0.4070 -0.0459
 1504BOLB   C3A36079  15.149   8.313  15.163  0.2027 -0.3624 -0.2014
 1504BOLB   C4A36080  14.833   8.378  15.407 -0.2928  0.0167 -0.0266
 1504BOLB   C1B36081  15.212   7.550  14.204 -0.0063 -0.4189 -0.3930
 1504BOLB   C2B36082  15.346   7.349  14.600  0.2312  0.1003  0.1069
 1504BOLB   C3B36083  15.281   6.934  14.830  0.1231  0.0129  0.0285
 1504BOLB   C4B36084  15.255   6.472  14.808 -0.1242 -0.0843  0.3742
 1504BOLB   NC236085  14.032   9.935  14.507  0.1825  0.4310 -0.0688
 1504BOLB   PO236086  14.376   9.898  14.259 -0.0881 -0.2478  0.0955
 1504BOLB   GL336087  14.493   9.927  14.710 -0.2080 -0.2864 -0.2008
 1504BOLB   GL436088  14.379  10.097  14.953 -0.0736  0.0762  0.0734
 1504BOLB   C1C36089  14.717   9.631  14.809  0.2672  0.0348 -0.1377
 1504BOLB   C2C36090  14.844   9.312  15.157 -0.1454 -0.2732 -0.1257
 1504BOLB   C3C36091  14.642   9.018  15.481  0.2573  0.2125  0.1988
 1504BOLB   C4C36092  14.603   8.651  15.421  0.1146  0.0463 -0.1194
 1504BOLB   C1D36093  14.559   9.971  15.293 -0.2024 -0.0859  0.5267
 1504BOLB   C2D36094  14.778   9.752  15.589 -0.0344  0.2301 -0.1799
 1504BOLB   C3D36095  15.008   9.723  15.983  0.2140 -0.4224 -0.0415
 1504BOLB   C4D36096  15.109  10.043  16.099 -0.1641 -0.3161 -0.3079
 1505BOLB   NC136097  17.176  -4.049  24.976 -0.1409 -0.2354  0.0495
 1505BOLB   PO136098  16.837  -4.218  24.593  0.2013 -0.1386  0.3901
 1505BOLB   GL136099  17.117  -4.475  24.519 -0.1902 -0.3788 -0.0500
 1505BOLB   GL236100  17.165  -4.686  24.713  0.1344  0.1517  0.0990
 1505BOLB   C1A36101  17.466  -4.877  24.452 -0.0215  0.0480 -0.0586
 1505BOLB   C2A36102  17.708  -5.206  24.655 -0.1097  0.3352 -0.1584
 1505BOLB   C3A36103  18.071  -5.427  24.673 -0.1429 -0.1102  0.0640
 1505BOLB   C4A36104  18.229  -5.824  24.702  0.2073 -0.0447 -0.0817
 1505BOLB   C1B36105  17.063  -5.000  24.758 -0.0694 -0.1573  0.1421
 1505BOLB   C2B36106  17.070  -5.379  24.485 -0.0830  0.0501 -0.0561
 1505BOLB   C3B36107  17.037  -5.865  24.465 -0.0533 -0.0267 -0.0383
 1505BOLB   C4B36108  17.040  -6.192  24.091  0.1503  0.0686  0.2547
 1505BOLB   NC236109  19.260  -8.605  25.061 -0.3151 -0.4569 -0.0086
 1505BOLB   PO236110  19.259  -8.294  24.747  0.0846  0.1786 -0.2764
 1505BOLB   GL336111  19.227  -7.804  24.514 -0.0294  0.3785  0.0131
 1505BOLB   GL436112  18.931  -7.801  24.309  0.1863  0.4501 -0.0837
 1505BOLB   C1C36113  19.143  -7.401  24.566 -0.2730 -0.1034  0.0476
 1505BOLB   C2C36114  18.846  -6.997  24.540  0.0097 -0.2969 -0.0185
 1505BOLB   C3C36115  18.640  -6.593  24.641  0.1284 -0.1219 -0.0787
 1505BOLB   C4C36116  18.355  -6.247  24.660  0.2050 -0.0616  0.0720
 1505BOLB   C1D36117  18.601  -7.474  24.496 -0.0843  0.2891  0.0582
 1505BOLB   C2D36118  18.308  -7.110  24.393 -0.0829  0.1764 -0.1479
 1505BOLB   C3D36119  18.206  -6.725  24.462  0.1658  0.0408 -0.2571
 1505BOLB   C4D36120  17.879  -6.375  24.664  0.1095  0.0661  0.3653
 1506BOLB   NC136121  17.953   5.305  16.643  0.0825 -0.0153  0.1073
 1506BOLB   PO136122  17.634   5.639  16.473  0.0800  0.0914 -0.0565
 1506BOLB   GL136123  17.789   5.782  16.094  0.1785  0.3289  0.0493
 1506BOLB   GL236124  17.791   6.152  16.203  0.0434  0.2400  0.0574
 1506BOLB   C1A36125  17.917   5.867  15.713 -0.3736  0.0142 -0.2474
 1506BOLB   C2A36126  17.780   5.741  15.344  0.4579  0.2688  0.0320
 1506BOLB   C3A36127  17.591   5.885  15.039  0.0952 -0.2007  0.5007
 1506BOLB   C4A36128  17.708   6.214  14.703  0.1401  0.0605 -0.2807
 1506BOLB   C1B36129  17.953   6.442  15.957  0.3681  0.0910  0.0339
 1506BOLB   C2B36130  18.219   6.801  15.784 -0.0711  0.0317  0.1586
 1506BOLB   C3B36131  18.247   7.180  15.556 -0.0652 -0.0721 -0.0160
 1506BOLB   C4B36132  18.377   7.610  15.761  0.0348 -0.0241  0.1147
 1506BOLB   NC236133  18.231   6.470  12.352 -0.1979 -0.0613  0.0799
 1506BOLB   PO236134  17.902   6.784  12.477  0.0918 -0.4331 -0.1465
 1506BOLB   GL336135  17.723   6.840  12.863  0.0382  0.1533  0.0138
 1506BOLB   GL436136  17.841   6.712  13.072  0.2518  0.0061  0.3800
 1506BOLB   C1C36137  17.435   6.982  13.290  0.1643 -0.3187  0.1621
 1506BOLB   C2C36138  17.370   6.813  13.704 -0.3020 -0.1568 -0.3929
 1506BOLB   C3C36139  17.469   6.691  14.107 -0.2140  0.1078  0.1116
 1506BOLB   C4C36140  17.817   6.534  14.406  0.0592 -0.0775 -0.0015
 1506BOLB   C1D36141  17.781   6.506  13.485 -0.0830  0.1690  0.2046
 1506BOLB   C2D36142  17.996   6.350  13.833 -0.1154 -0.1692  0.2472
 1506BOLB   C3D36143  18.206   6.328  14.253 -0.2076  0.2936  0.0279
 1506BOLB   C4D36144  18.510   6.575  14.473 -0.2513  0.0902 -0.0498
 1507BOLB   NC136145  24.724   3.208  24.491 -0.0895 -0.0649  0.0260
 1507BOLB   PO136146  24.949   2.990  24.230 -0.0512 -0.0908  0.0233
 1507BOLB   GL136147  25.306   2.917  24.047 -0.3269  0.1103 -0.2575
 1507BOLB   GL236148  25.436   2.974  24.286 -0.2171  0.1818  0.1825
 1507BOLB   C1A36149  25.627   3.049  23.638 -0.1607  0.2845  0.4393
 1507BOLB   C2A36150  25.676   2.930  23.243  0.2262 -0.2301  0.1246
 1507BOLB   C3A36151  25.779   2.597  22.970  0.0949  0.2888  0.0606
 1507BOLB   C4A36152  26.081   2.347  22.937  0.2382  0.3703  0.4994
 1507BOLB   C1B36153  25.854   2.810  24.179  0.1464 -0.0007  0.2706
 1507BOLB   C2B36154  26.108   2.463  24.141  0.2236  0.3186  0.1792
 1507BOLB   C3B36155  26.430   2.415  23.728  0.1427 -0.1204  0.0584
 1507BOLB   C4B36156  26.291   2.247  23.393 -0.3686  0.3797 -0.2340
 1507BOLB   NC236157  28.359   3.224  22.305  0.0029  0.2552  0.0999
 1507BOLB   PO236158  28.471   2.996  22.676 -0.2614  0.0050  0.0551
 1507BOLB   GL336159  27.995   2.883  22.550 -0.0644 -0.1953  0.1677
 1507BOLB   GL436160  28.082   2.755  22.295  0.1580  0.4455 -0.3349
 1507BOLB   C1C36161  27.754   2.544  22.650  0.0467 -0.0233 -0.0438
 1507BOLB   C2C36162  27.370   2.522  22.950  0.0505  0.1180 -0.3321
 1507BOLB   C3C36163  26.936   2.342  22.867 -0.2044 -0.1671 -0.1642
 1507BOLB   C4C36164  26.506   2.326  22.982  0.1222  0.1515  0.2827
 1507BOLB   C1D36165  27.589   2.952  22.167  0.1947  0.0597 -0.0004
 1507BOLB   C2D36166  27.080   3.076  22.046  0.0196 -0.2409 -0.2176
 1507BOLB   C3D36167  26.692   3.254  21.809  0.1633  0.1905  0.0223
 1507BOLB   C4D36168  26.183   3.093  21.958 -0.0037  0.3918  0.2048
 1508BOLB   NC136169  21.302  -0.863  28.439  0.1325 -0.2182 -0.0782
 1508BOLB   PO136170  21.566  -1.059  28.784 -0.2955 -0.1016  0.1710
 1508BOLB   GL136171  21.772  -1.343  28.574 -0.2104  0.0119  0.0042
 1508BOLB   GL236172  21.966  -1.364  28.886  0.0411  0.1457 -0.0890
 1508BOLB   C1A36173  21.933  -1.850  28.594  0.1239 -0.4646 -0.2451
 1508BOLB   C2A36174  22.231  -2.204  28.498 -0.2074 -0.0803  0.0271
 1508BOLB   C3A36175  22.188  -2.664  28.521 -0.3207 -0.1213 -0.0715
 1508BOLB   C4A36176  22.227  -3.139  28.697 -0.0820 -0.3648 -0.2731
 1508BOLB   C1B36177  22.330  -1.615  28.835 -0.0870 -0.2207  0.0348
 1508BOLB   C2B36178  22.589  -1.926  28.691 -0.0844  0.0781  0.3268
 1508BOLB   C3B36179  22.924  -2.368  28.787  0.1979 -0.2462 -0.1473
 1508BOLB   C4B36180  22.566  -2.593  28.892 -0.0692  0.0511 -0.2600
 1508BOLB   NC236181  21.880  -5.210  30.172 -0.1544  0.0249 -0.0714
 1508BOLB   PO236182  22.342  -4.965  30.122  0.2952  0.0646  0.2001
 1508BOLB   GL336183  22.085  -4.744  29.881  0.2321 -0.0349  0.0077
 1508BOLB   GL436184  21.815  -4.746  30.072 -0.1406  0.1405  0.0273
 1508BOLB   C1C36185  21.802  -4.615  29.522  0.0392  0.2159  0.1858
 1508BOLB   C2C36186  21.805  -4.321  29.122 -0.1476  0.0734  0.2574
 1508BOLB   C3C36187  22.111  -3.967  28.979  0.0680  0.1034  0.1766
 1508BOLB   C4C36188  22.098  -3.537  28.837  0.4744 -0.0242 -0.2028
 1508BOLB   C1D36189  21.541  -4.499  29.892  0.0611  0.0318  0.5083
 1508BOLB   C2D36190  21.520  -4.127  29.616 -0.0370  0.3559  0.0204
 1508BOLB   C3D36191  21.172  -3.955  29.369  0.1768 -0.3256  0.2680
 1508BOLB   C4D36192  20.975  -3.754  28.990 -0.1841  0.1371 -0.1329
 1509BOLB   NC136193  18.333  11.819  28.688 -0.1821 -0.1372 -0.3217
 1509BOLB   PO136194  18.096  11.662  29.066  0.0569 -0.1178  0.0441
 1509BOLB   GL136195  18.062  12.041  29.233  0.1171 -0.2179 -0.1277
 1509BOLB   GL236196  18.175  12.204  28.948  0.3059 -0.3769 -0.1955
 1509BOLB   C1A36197  18.283  12.302  29.519  0.0711 -0.0159 -0.1639
 1509BOLB   C2A36198  18.476  12.689  29.425  0.2980 -0.1852  0.1935
 1509BOLB   C3A36199  18.679  13.111  29.258 -0.0303  0.1688 -0.1092
 1509BOLB   C4A36200  18.962  13.438  29.089 -0.0958  0.2402  0.5123
 1509BOLB   C1B36201  18.147  12.620  28.913 -0.1753 -0.2717 -0.3782
 1509BOLB   C2B36202  18.195  13.017  29.150 -0.3831  0.2352 -0.2413
 1509BOLB   C3B36203  17.909  13.291  28.802  0.1459  0.1301  0.2545
 1509BOLB   C4B36204  18.066  13.669  28.608  0.2013  0.1183 -0.4654
 1509BOLB   NC236205  20.894  14.741  29.514  0.1697 -0.2358  0.1841
 1509BOLB   PO236206  20.868  15.001  29.213  0.2020  0.1075  0.0607
 1509BOLB   GL336207  20.440  14.803  29.231  0.1148 -0.0285  0.3028
 1509BOLB   GL436208  20.089  14.919  29.217  0.3632  0.2244 -0.0629
 1509BOLB   C1C36209  20.191  14.466  29.068  0.3491  0.2057 -0.3049
 1509BOLB   C2C36210  19.840  14.184  28.984  0.1515 -0.4781  0.1316
 1509BOLB   C3C36211  19.546  13.898  28.734  0.4308  0.0266 -0.1655
 1509BOLB   C4C36212  19.112  13.706  28.750 -0.1096  0.1756 -0.2074
 1509BOLB   C1D36213  19.781  14.861  28.895  0.3375  0.0681 -0.0105
 1509BOLB   C2D36214  19.497  14.543  28.720 -0.3056  0.2804 -0.3700
 1509BOLB   C3D36215  19.241  14.663  28.362 -0.2131 -0.1554 -0.0240
 1509BOLB   C4D36216  19.433  15.035  28.008  0.1622 -0.0973  0.0492
 1510BOLB   NC136217  14.888  -4.222  22.588  0.0781  0.1489  0.1315
 1510BOLB   PO136218  15.143  -4.340  22.915 -0.0482  0.0234  0.3808
 1510BOLB   GL136219  15.099  -4.733  22.813  0.4485 -0.0448  0.0060
 1510BOLB   GL236220  14.761  -4.760  22.901  0.0011 -0.0663  0.0093
 1510BOLB   C1A36221  15.006  -5.159  22.712  0.3335  0.1685 -0.1042
 1510BOLB   C2A36222  14.905  -5.497  22.942  0.1780  0.0510 -0.2163
 1510BOLB   C3A36223  14.806  -5.785  23.175  0.0035  0.1519 -0.0422
 1510BOLB   C4A36224  14.661  -6.150  23.242  0.1330 -0.0663  0.2225
 1510BOLB   C1B36225  14.499  -5.199  22.869  0.1024 -0.1031 -0.0112
 1510BOLB   C2B36226  14.400  -5.597  22.773  0.1888 -0.0835  0.1369
 1510BOLB   C3B36227  14.310  -5.903  22.953 -0.1566 -0.3034  0.1061
 1510BOLB   C4B36228  14.346  -6.316  22.705  0.0603  0.1911  0.3233
 1510BOLB   NC236229  13.865  -8.647  22.621 -0.1677 -0.2628 -0.3273
 1510BOLB   PO236230  14.119  -8.474  22.888 -0.3320  0.3890 -0.0669
 1510BOLB   GL336231  14.305  -8.151  23.180  0.0843  0.1674 -0.2584
 1510BOLB   GL436232  14.053  -8.043  23.528  0.2065 -0.0467  0.1806
 1510BOLB   C1C36233  14.464  -7.703  23.440 -0.1105  0.1195  0.0569
 1510BOLB   C2C36234  14.485  -7.312  23.607  0.0009  0.1028  0.0490
 1510BOLB   C3C36235  14.345  -6.957  23.563 -0.0731  0.0842 -0.1093
 1510BOLB   C4C36236  14.604  -6.525  23.434  0.1778  0.0528  0.0555
 1510BOLB   C1D36237  14.157  -7.803  23.955 -0.2020  0.1660 -0.0770
 1510BOLB   C2D36238  14.427  -7.573  24.005  0.1285 -0.0309 -0.2966
 1510BOLB   C3D36239  14.810  -7.620  24.033  0.2199  0.0208 -0.1553
 1510BOLB   C4D36240  15.127  -7.887  24.054 -0.2175 -0.1692 -0.0202
 1511BOLB   NC136241  17.067  -3.969  27.568 -0.3010 -0.2289 -0.0599
 1511BOLB   PO136242  17.397  -3.780  27.184  0.0103  0.0558 -0.0533
 1511BOLB   GL136243  17.565  -4.087  27.434  0.0530  0.0580 -0.1083
 1511BOLB   GL236244  17.514  -4.094  27.728  0.2641 -0.1638  0.1783
 1511BOLB   C1A36245  17.844  -4.444  27.404 -0.4325 -0.2628 -0.1440
 1511BOLB   C2A36246  18.070  -4.892  27.338 -0.0673 -0.2368  0.1034
 1511BOLB   C3A36247  18.335  -5.033  26.993  0.0181 -0.0172  0.1583
 1511BOLB   C4A36248  18.435  -5.385  26.660 -0.3963  0.1846 -0.1779
 1511BOLB   C1B36249  17.700  -4.441  27.895  0.0894  0.1002  0.2563
 1511BOLB   C2B36250  17.732  -4.680  28.331 -0.1334 -0.1037 -0.0270
 1511BOLB   C3B36251  17.967  -5.023  28.491  0.2329 -0.2246 -0.1479
 1511BOLB   C4B36252  18.314  -5.239  28.401 -0.2225 -0.1269  0.2749
 1511BOLB   NC236253  19.596  -7.822  27.801  0.1369  0.0836 -0.0153
 1511BOLB   PO236254  19.596  -7.363  27.823  0.2486  0.0719 -0.0744
 1511BOLB   GL336255  19.462  -7.044  27.537 -0.2799  0.3381 -0.4135
 1511BOLB   GL436256  19.288  -6.833  27.741  0.0797 -0.0744 -0.0565
 1511BOLB   C1C36257  19.279  -6.827  27.214 -0.0748  0.1267  0.0692
 1511BOLB   C2C36258  18.893  -6.667  26.990 -0.2070  0.1466 -0.1002
 1511BOLB   C3C36259  18.714  -6.293  26.793 -0.1425 -0.1379 -0.1735
 1511BOLB   C4C36260  18.635  -5.859  26.587  0.1265  0.0176 -0.1273
 1511BOLB   C1D36261  19.542  -6.469  27.729 -0.0384 -0.0011 -0.0680
 1511BOLB   C2D36262  19.522  -6.119  27.891  0.0870  0.2763  0.1663
 1511BOLB   C3D36263  19.670  -5.796  28.081 -0.0084  0.1091 -0.2787
 1511BOLB   C4D36264  19.569  -5.353  28.103 -0.1676 -0.0569 -0.0965
 1512BOLB   NC136265   9.829   7.041  20.725  0.2984 -0.0851 -0.0282
 1512BOLB   PO136266  10.056   7.276  20.997  0.1124  0.4823  0.1708
 1512BOLB   GL136267  10.007   7.628  20.631 -0.0021 -0.2670  0.0677
 1512BOLB   GL236268   9.868   7.476  20.321  0.2825  0.0277  0.1046
 1512BOLB   C1A36269   9.631   7.885  20.472 -0.0857  0.2196  0.0403
 1512BOLB   C2A36270   9.501   7.664  19.981 -0.3037 -0.1880 -0.2342
 1512BOLB   C3A36271   9.622   7.850  19.647  0.2331 -0.0305 -0.1921
 1512BOLB   C4A36272   9.594   8.127  19.362 -0.3664  0.2383 -0.2856
 1512BOLB   C1B36273   9.998   7.893  20.109  0.1792 -0.1991 -0.3590
 1512BOLB   C2B36274  10.061   8.150  19.728 -0.0489 -0.1984 -0.0771
 1512BOLB   C3B36275   9.876   8.446  19.556 -0.0360  0.0738  0.1476
 1512BOLB   C4B36276   9.853   8.714  19.101 -0.0218 -0.1315  0.2843
 1512BOLB   NC236277   8.357   9.202  17.822  0.0998 -0.0362  0.2174
 1512BOLB   PO236278   7.893   9.102  17.851 -0.0535 -0.0404  0.0303
 1512BOLB   GL336279   8.095   8.848  18.171 -0.0235 -0.1440 -0.1630
 1512BOLB   GL436280   8.019   8.899  18.569  0.0544  0.1239  0.1470
 1512BOLB   C1C36281   8.394   8.701  18.371  0.2839  0.1942 -0.0292
 1512BOLB   C2C36282   8.688   8.469  18.606 -0.1662  0.0001 -0.1236
 1512BOLB   C3C36283   9.059   8.533  18.905 -0.0889  0.4074 -0.1816
 1512BOLB   C4C36284   9.413   8.336  19.047  0.0791 -0.1281  0.1990
 1512BOLB   C1D36285   8.318   8.686  18.859 -0.0029  0.1702  0.3331
 1512BOLB   C2D36286   8.624   8.373  19.105 -0.2508 -0.3287  0.5180
 1512BOLB   C3D36287   9.056   8.290  19.375 -0.0477 -0.0736 -0.3807
 1512BOLB   C4D36288   9.115   7.971  19.687 -0.1622 -0.3098  0.2207
 1513BOLB   NC136289   7.005   4.802  25.186  0.3834  0.1076 -0.3794
 1513BOLB   PO136290   7.074   5.235  25.055 -0.2492  0.1194 -0.1198
 1513BOLB   GL136291   6.635   5.201  25.265  0.0215  0.0942  0.1484
 1513BOLB   GL236292   6.618   5.527  25.214 -0.4775 -0.0816 -0.0280
 1513BOLB   C1A36293   6.255   5.255  25.290  0.0569  0.2199  0.2371
 1513BOLB   C2A36294   5.863   5.497  25.205 -0.0732 -0.0331 -0.0458
 1513BOLB   C3A36295   5.404   5.653  25.139  0.0436  0.3078 -0.3038
 1513BOLB   C4A36296   5.050   6.036  25.306  0.4789  0.4855 -0.2768
 1513BOLB   C1B36297   6.324   5.782  25.171  0.2716 -0.2283  0.3593
 1513BOLB   C2B36298   5.921   6.002  25.169 -0.1449  0.1250 -0.1326
 1513BOLB   C3B36299   5.662   6.170  25.425  0.2339 -0.1774  0.3765
 1513BOLB   C4B36300   5.348   6.257  25.783 -0.2749  0.3026  0.1560
 1513BOLB   NC236301   2.649   4.978  26.131 -0.0619 -0.3549 -0.3388
 1513BOLB   PO236302   2.785   5.134  25.729 -0.2571 -0.1197 -0.0170
 1513BOLB   GL336303   3.189   5.242  25.800 -0.0021 -0.1148 -0.0742
 1513BOLB   GL436304   3.215   4.889  25.851  0.1629  0.0169  0.0357
 1513BOLB   C1C36305   3.487   5.553  25.716  0.0913 -0.3072 -0.2544
 1513BOLB   C2C36306   3.870   5.660  25.627 -0.2608 -0.0377  0.1518
 1513BOLB   C3C36307   4.151   6.073  25.625 -0.4837 -0.3184 -0.0829
 1513BOLB   C4C36308   4.621   6.085  25.487  0.1093 -0.3482 -0.1487
 1513BOLB   C1D36309   3.660   4.795  25.817 -0.1220 -0.0475 -0.0753
 1513BOLB   C2D36310   3.887   4.398  25.770  0.3146  0.3048  0.2351
 1513BOLB   C3D36311   4.254   4.292  25.622  0.2213 -0.0747 -0.0879
 1513BOLB   C4D36312   4.594   4.189  25.410 -0.1765 -0.2483  0.3996
 1514BOLB   NC136313   9.011   5.055  31.188 -0.2142  0.5173 -0.0581
 1514BOLB   PO136314   9.429   5.019  31.324 -0.2909 -0.2390  0.2471
 1514BOLB   GL136315   9.292   4.908  31.715  0.2793  0.0054  0.2145
 1514BOLB   GL236316   9.035   5.094  31.723  0.2097  0.4033  0.1311
 1514BOLB   C1A36317   9.036   4.728  32.021 -0.0545 -0.0087 -0.1961
 1514BOLB   C2A36318   8.704   4.815  32.328  0.1076 -0.0992  0.0863
 1514BOLB   C3A36319   8.447   5.267  32.465  0.1777  0.0702 -0.0138
 1514BOLB   C4A36320   8.059   5.428  32.591  0.2917 -0.1321  0.3638
 1514BOLB   C1B36321   8.773   5.196  32.002  0.0674 -0.3948  0.1910
 1514BOLB   C2B36322   8.350   5.427  31.904  0.0857  0.0169  0.1327
 1514BOLB   C3B36323   7.917   5.340  31.609  0.3501 -0.1480 -0.1301
 1514BOLB   C4B36324   7.580   5.138  31.352  0.0324 -0.0571  0.1925
 1514BOLB   NC236325   6.209   4.901  34.025  0.0330 -0.0559 -0.2789
 1514BOLB   PO236326   6.533   5.098  34.305 -0.3482 -0.0768  0.0331
 1514BOLB   GL336327   6.826   5.148  33.994  0.1005  0.1408 -0.0623
 1514BOLB   GL436328   6.823   5.525  33.934  0.0394 -0.1614 -0.0010
 1514BOLB   C1C36329   7.164   4.953  33.878  0.0390 -0.0722  0.0958
 1514BOLB   C2C36330   7.579   5.064  33.742 -0.0085  0.0402 -0.1326
 1514BOLB   C3C36331   7.671   5.343  33.406  0.1475 -0.1097  0.1773
 1514BOLB   C4C36332   7.910   5.454  32.994 -0.2406 -0.1394 -0.1084
 1514BOLB   C1D36333   6.851   5.325  33.527  0.1086  0.4801  0.0444
 1514BOLB   C2D36334   7.176   5.174  33.413 -0.0878  0.2022 -0.0105
 1514BOLB   C3D36335   7.330   5.389  33.009 -0.4376 -0.0354  0.1301
 1514BOLB   C4D36336   7.495   5.598  32.653  0.0862 -0.4664 -0.2077
 1515BOLB   NC136337  25.473   8.248  17.603 -0.2979 -0.1120 -0.2656
 1515BOLB   PO136338  25.278   8.076  17.851 -0.2845  0.4912  0.0854
 1515BOLB   GL136339  24.992   8.167  18.182  0.1199  0.3355 -0.2926
 1515BOLB   GL236340  24.711   8.158  17.994 -0.3467 -0.1848 -0.1863
 1515BOLB   C1A36341  24.584   8.233  18.508  0.1098 -0.0138  0.0202
 1515BOLB   C2A36342  24.637   8.234  18.850  0.0312 -0.0907 -0.0796
 1515BOLB   C3A36343  24.372   8.518  19.279  0.3022  0.2891  0.1684
 1515BOLB   C4A36344  24.215   8.629  19.686  0.0471  0.0015 -0.1194
 1515BOLB   C1B36345  24.340   8.048  18.144 -0.3453 -0.1181 -0.0292
 1515BOLB   C2B36346  23.900   7.897  18.086  0.4718  0.0026 -0.1717
 1515BOLB   C3B36347  23.596   7.623  18.045  0.0257 -0.2061  0.1413
 1515BOLB   C4B36348  23.393   7.244  18.285  0.3272 -0.0610  0.0398
 1515BOLB   NC236349  26.288   8.962  20.498  0.4981  0.1193  0.1665
 1515BOLB   PO236350  26.048   9.107  20.063 -0.0101  0.0234  0.0343
 1515BOLB   GL336351  25.860   8.699  20.292  0.0045 -0.1414  0.0817
 1515BOLB   GL436352  25.617   8.872  20.259  0.1776  0.1219 -0.2416
 1515BOLB   C1C36353  25.456   8.419  20.340  0.1397 -0.0915  0.0341
 1515BOLB   C2C36354  25.063   8.350  20.128  0.0866 -0.0307  0.0905
 1515BOLB   C3C36355  24.602   8.363  20.245  0.1505  0.0118  0.0249
 1515BOLB   C4C36356  24.209   8.306  19.954 -0.2206  0.2302 -0.0203
 1515BOLB   C1D36357  25.371   8.789  20.651  0.0402  0.6553 -0.2261
 1515BOLB   C2D36358  25.210   8.679  21.052  0.0855  0.0677 -0.1906
 1515BOLB   C3D36359  25.056   8.657  21.325  0.0839  0.1430 -0.2650
 1515BOLB   C4D36360  24.643   8.635  21.469 -0.2809 -0.4379  0.1751
 1516BOLB   NC136361  22.900  -0.841  26.985  0.0102 -0.2935 -0.0708
 1516BOLB   PO136362  23.144  -0.785  26.837 -0.0859  0.2275 -0.0980
 1516BOLB   GL136363  23.516  -1.092  26.988  0.2716 -0.2059  0.0590
 1516BOLB   GL236364  23.492  -1.193  26.655 -0.0651  0.1556  0.1908
 1516BOLB   C1A36365  23.511  -1.280  27.292  0.1759  0.1736 -0.0598
 1516BOLB   C2A36366  23.679  -1.647  27.331 -0.1483  0.2725  0.0629
 1516BOLB   C3A36367  23.781  -2.172  27.401  0.3506 -0.0492  0.0778
 1516BOLB   C4A36368  23.919  -2.610  27.386 -0.2359  0.0525  0.3265
 1516BOLB   C1B36369  23.380  -1.613  26.803  0.2680  0.2638  0.0434
 1516BOLB   C2B36370  23.723  -1.945  26.877  0.0749  0.0165  0.1013
 1516BOLB   C3B36371  23.905  -2.392  26.821 -0.0056  0.0512  0.0657
 1516BOLB   C4B36372  23.817  -2.796  26.790 -0.1826  0.4545  0.3469
 1516BOLB   NC236373  23.183  -5.510  27.884 -0.3188  0.0058  0.0568
 1516BOLB   PO236374  23.416  -5.134  28.155 -0.2068 -0.4056 -0.1603
 1516BOLB   GL336375  23.401  -4.660  28.148 -0.0813  0.2518  0.5287
 1516BOLB   GL436376  23.650  -4.558  28.412 -0.0621 -0.3543  0.1355
 1516BOLB   C1C36377  23.513  -4.252  27.997  0.0541  0.1063  0.2068
 1516BOLB   C2C36378  23.614  -3.811  27.824 -0.2131 -0.0598 -0.2184
 1516BOLB   C3C36379  23.805  -3.355  27.847 -0.1777 -0.0143  0.0786
 1516BOLB   C4C36380  23.844  -2.965  27.618 -0.0656  0.2824 -0.0443
 1516BOLB   C1D36381  23.281  -4.281  28.501  0.1101 -0.2018 -0.0425
 1516BOLB   C2D36382  22.932  -4.074  28.416 -0.1544  0.0999 -0.0818
 1516BOLB   C3D36383  22.531  -4.071  28.250 -0.2811 -0.0495 -0.1735
 1516BOLB   C4D36384  22.193  -4.367  28.127 -0.1303 -0.2628 -0.1495
 1517BOLB   NC136385  15.064  -2.386  29.151 -0.2868 -0.2108  0.0678
 1517BOLB   PO136386  15.305  -2.397  29.607  0.0441  0.2432 -0.0958
 1517BOLB   GL136387  15.488  -2.715  29.762 -0.1567 -0.3312  0.1022
 1517BOLB   GL236388  15.343  -3.060  29.741  0.0771 -0.0522 -0.0308
 1517BOLB   C1A36389  15.644  -2.908  30.092  0.0481  0.0597 -0.1772
 1517BOLB   C2A36390  15.752  -3.225  30.367  0.1504  0.1800 -0.0125
 1517BOLB   C3A36391  15.672  -3.558  30.617  0.2716  0.1624  0.2471
 1517BOLB   C4A36392  15.613  -3.937  30.696  0.1102  0.4974 -0.1656
 1517BOLB   C1B36393  15.416  -3.380  30.030 -0.2920 -0.2296 -0.1316
 1517BOLB   C2B36394  15.333  -3.705  30.300  0.0666  0.4404  0.0279
 1517BOLB   C3B36395  15.244  -4.076  30.234 -0.3757  0.0366 -0.0505
 1517BOLB   C4B36396  15.088  -4.315  29.793  0.1638  0.2340  0.1536
 1517BOLB   NC236397  14.957  -5.201  33.281 -0.1026 -0.1592  0.5373
 1517BOLB   PO236398  15.150  -4.852  32.899 -0.0065  0.1606 -0.0523
 1517BOLB   GL336399  15.234  -4.657  32.550  0.2758 -0.1534 -0.2387
 1517BOLB   GL436400  15.392  -4.454  32.531  0.1754  0.1489  0.0786
 1517BOLB   C1C36401  15.229  -4.777  32.120  0.2035  0.1526  0.2294
 1517BOLB   C2C36402  15.341  -4.625  31.712 -0.0866 -0.2727  0.3192
 1517BOLB   C3C36403  15.393  -4.340  31.380 -0.1695  0.1564 -0.1279
 1517BOLB   C4C36404  15.444  -4.143  31.010 -0.1000  0.1309 -0.0374
 1517BOLB   C1D36405  15.425  -4.105  32.244 -0.2738  0.2654 -0.0437
 1517BOLB   C2D36406  15.703  -3.847  32.141 -0.1205 -0.1041 -0.1290
 1517BOLB   C3D36407  15.988  -3.488  32.293 -0.1373  0.0076 -0.1916
 1517BOLB   C4D36408  16.309  -3.540  32.603 -0.3378 -0.1131 -0.3325
 1518BOLB   NC136409  21.295   2.354  31.884  0.1122 -0.1083  0.0380
 1518BOLB   PO136410  21.015   1.977  32.000  0.2667  0.1644 -0.0164
 1518BOLB   GL136411  21.285   1.830  32.095  0.2258  0.0228 -0.2869
 1518BOLB   GL236412  21.634   2.026  31.986  0.2702  0.1800  0.1428
 1518BOLB   C1A36413  21.572   1.829  32.445  0.2510  0.2262  0.1442
 1518BOLB   C2A36414  21.652   1.750  32.846  0.0703 -0.2772  0.1204
 1518BOLB   C3A36415  21.750   1.637  33.298  0.0223 -0.0570  0.0906
 1518BOLB   C4A36416  21.601   1.450  33.615  0.1953 -0.0018 -0.1370
 1518BOLB   C1B36417  22.093   1.940  32.017 -0.0979  0.3611 -0.0702
 1518BOLB   C2B36418  22.412   2.115  32.295  0.3237  0.1419  0.0094
 1518BOLB   C3B36419  22.634   1.977  32.655 -0.0682 -0.2095 -0.0039
 1518BOLB   C4B36420  22.930   2.140  32.952  0.0428 -0.1393 -0.3797
 1518BOLB   NC236421  22.497   0.113  35.006  0.0773  0.2288  0.0497
 1518BOLB   PO236422  22.153  -0.137  35.104  0.3679  0.0028  0.1136
 1518BOLB   GL336423  21.789   0.091  34.910 -0.2013 -0.2005 -0.2664
 1518BOLB   GL436424  21.924   0.514  34.941  0.0539  0.3806  0.2026
 1518BOLB   C1C36425  21.565   0.347  34.534  0.1658 -0.0429 -0.2202
 1518BOLB   C2C36426  21.494   0.751  34.360  0.0419 -0.0542 -0.2716
 1518BOLB   C3C36427  21.220   0.838  34.069  0.0273  0.0006  0.1303
 1518BOLB   C4C36428  21.380   1.103  33.780 -0.0369 -0.1871  0.0543
 1518BOLB   C1D36429  21.721   0.908  35.001 -0.1450 -0.0564 -0.0546
 1518BOLB   C2D36430  21.667   1.300  35.058 -0.0612 -0.1657  0.0702
 1518BOLB   C3D36431  21.635   1.759  35.211 -0.2553 -0.0781  0.0506
 1518BOLB   C4D36432  21.281   2.126  35.138 -0.1576  0.4863 -0.0039
 1519BOLB   NC136433  20.039   6.074  32.602  0.1534 -0.0780 -0.0552
 1519BOLB   PO136434  20.225   5.606  32.507 -0.2158  0.0070 -0.3054
 1519BOLB   GL136435  20.432   5.805  32.770  0.0235 -0.1204  0.0297
 1519BOLB   GL236436  20.576   5.993  32.571  0.3149 -0.0924 -0.1245
 1519BOLB   C1A36437  20.526   5.955  33.153 -0.0909  0.1051 -0.1921
 1519BOLB   C2A36438  20.649   6.203  33.543  0.2943 -0.0951 -0.4537
 1519BOLB   C3A36439  20.927   6.059  33.879 -0.0063 -0.1283 -0.1812
 1519BOLB   C4A36440  21.260   5.906  34.189  0.1982 -0.1671 -0.0556
 1519BOLB   C1B36441  20.914   6.234  32.913  0.0416  0.1073 -0.0276
 1519BOLB   C2B36442  21.087   6.403  33.178  0.1186  0.1291 -0.1418
 1519BOLB   C3B36443  21.065   6.471  33.516  0.0587  0.2332 -0.0363
 1519BOLB   C4B36444  21.300   6.709  33.689 -0.3783  0.1630 -0.0968
 1519BOLB   NC236445  22.562   5.256  35.852 -0.0229  0.1188 -0.1972
 1519BOLB   PO236446  22.323   5.288  36.313 -0.1626  0.2156  0.1360
 1519BOLB   GL336447  22.050   5.317  35.932 -0.3124  0.1568  0.0516
 1519BOLB   GL436448  22.119   5.428  35.668 -0.2302  0.2052  0.3371
 1519BOLB   C1C36449  21.785   5.074  35.605 -0.1010 -0.4022 -0.1590
 1519BOLB   C2C36450  21.697   5.392  35.251  0.2961 -0.1047 -0.0497
 1519BOLB   C3C36451  21.539   5.627  34.967 -0.1486 -0.3003  0.4257
 1519BOLB   C4C36452  21.269   5.636  34.606  0.0413 -0.1930  0.0973
 1519BOLB   C1D36453  22.151   5.226  35.344 -0.2470 -0.1579 -0.3876
 1519BOLB   C2D36454  21.945   5.117  34.976  0.0026  0.2557 -0.1395
 1519BOLB   C3D36455  21.659   5.175  34.726  0.0391  0.0756 -0.0328
 1519BOLB   C4D36456  21.143   5.058  34.622  0.2120  0.1406  0.4239
 1520BOLB   NC136457  20.875   9.429  28.615 -0.0310 -0.0786 -0.0860
 1520BOLB   PO136458  20.893   9.692  28.931  0.0319  0.2048  0.0103
 1520BOLB   GL136459  21.259   9.844  29.183 -0.2590  0.0051  0.0400
 1520BOLB   GL236460  21.364   9.778  29.438  0.0573  0.1132 -0.2702
 1520BOLB   C1A36461  21.414  10.295  29.332  0.2058  0.3219 -0.2972
 1520BOLB   C2A36462  21.740  10.562  29.364  0.0907 -0.2676  0.2106
 1520BOLB   C3A36463  21.914  10.992  29.455  0.0629 -0.6833  0.5562
 1520BOLB   C4A36464  22.246  11.280  29.215  0.2631  0.0139  0.1216
 1520BOLB   C1B36465  21.769   9.964  29.474 -0.1512 -0.0887  0.1810
 1520BOLB   C2B36466  22.228  10.194  29.544 -0.0217  0.0980  0.0740
 1520BOLB   C3B36467  22.624  10.389  29.678  0.1194  0.0452  0.3058
 1520BOLB   C4B36468  22.741  10.847  29.755  0.0114 -0.1093  0.1739
 1520BOLB   NC236469  23.814  12.606  30.611  0.2320 -0.0755  0.3370
 1520BOLB   PO236470  24.022  12.663  30.280 -0.1574 -0.0654 -0.1172
 1520BOLB   GL336471  23.712  12.502  30.020 -0.3049 -0.1051  0.2142
 1520BOLB   GL436472  23.650  12.759  29.825 -0.0979 -0.0162  0.1595
 1520BOLB   C1C36473  23.260  12.411  29.871 -0.0118  0.4132 -0.1700
 1520BOLB   C2C36474  23.032  12.090  29.746  0.3850  0.1070 -0.3858
 1520BOLB   C3C36475  22.872  11.677  29.595  0.0488  0.1969  0.2808
 1520BOLB   C4C36476  22.517  11.581  29.308  0.2451 -0.3059  0.0756
 1520BOLB   C1D36477  23.477  12.629  29.409 -0.0493 -0.1277  0.3175
 1520BOLB   C2D36478  23.092  12.427  29.345 -0.4282  0.0477 -0.2624
 1520BOLB   C3D36479  22.730  12.080  29.159  0.1686 -0.2765  0.0016
 1520BOLB   C4D36480  22.363  12.040  28.852 -0.0841 -0.2339 -0.1233
 1521BOLB   NC136481  10.674  10.893  29.112 -0.0547  0.1627  0.0084
 1521BOLB   PO136482  10.889  11.221  28.997  0.2112 -0.1022  0.3419
 1521BOLB   GL136483  10.774  11.669  28.984  0.2883 -0.3660  0.2449
 1521BOLB   GL236484  10.419  11.823  29.155  0.3298  0.1569  0.0393
 1521BOLB   C1A36485  10.801  12.012  28.562 -0.1722  0.0633 -0.0139
 1521BOLB   C2A36486  10.452  12.261  28.396 -0.2425  0.1218 -0.1600
 1521BOLB   C3A36487  10.162  12.577  28.350 -0.0489 -0.0209  0.0971
 1521BOLB   C4A36488   9.942  12.935  28.154 -0.0468 -0.0124  0.0090
 1521BOLB   C1B36489  10.488  12.175  29.109  0.1521  0.0033  0.1176
 1521BOLB   C2B36490  10.272  12.513  28.835  0.4891  0.5138  0.2380
 1521BOLB   C3B36491   9.834  12.795  28.645 -0.0329  0.0785 -0.1759
 1521BOLB   C4B36492   9.318  12.762  28.821 -0.1344 -0.1991 -0.0918
 1521BOLB   NC236493   9.208  15.198  28.700 -0.2681 -0.1540 -0.0352
 1521BOLB   PO236494   9.255  15.211  28.157 -0.2063 -0.2744 -0.0778
 1521BOLB   GL336495   9.260  14.855  28.369  0.0363 -0.0691  0.1966
 1521BOLB   GL436496   9.538  14.830  28.604  0.1083  0.0482  0.0219
 1521BOLB   C1C36497   9.317  14.372  28.448  0.1326  0.0147  0.0327
 1521BOLB   C2C36498   9.481  14.098  28.087  0.2126 -0.0932  0.0237
 1521BOLB   C3C36499   9.711  13.712  28.022 -0.1121 -0.0215  0.1693
 1521BOLB   C4C36500   9.805  13.316  28.207 -0.3515  0.0993  0.0580
 1521BOLB   C1D36501   9.718  14.626  28.220 -0.1761 -0.0311 -0.2059
 1521BOLB   C2D36502   9.880  14.543  27.808  0.3300 -0.0168  0.1799
 1521BOLB   C3D36503   9.880  14.493  27.240 -0.0885 -0.1521  0.1178
 1521BOLB   C4D36504   9.565  14.282  27.017  0.5151  0.1418 -0.1039
 1522BOLB   NC136505  18.042  10.747  21.407 -0.5006 -0.1857 -0.3504
 1522BOLB   PO136506  17.619  10.970  21.399  0.5105 -0.2489 -0.0902
 1522BOLB   GL136507  17.820  11.207  21.085  0.0502 -0.0107 -0.6259
 1522BOLB   GL236508  17.650  11.189  20.831 -0.1029  0.0238 -0.0064
 1522BOLB   C1A36509  18.000  11.585  21.042 -0.3178 -0.0144 -0.1262
 1522BOLB   C2A36510  18.111  11.947  20.869 -0.2407  0.2061  0.0158
 1522BOLB   C3A36511  18.152  12.196  20.470 -0.0478  0.0715 -0.1577
 1522BOLB   C4A36512  17.985  12.404  20.194  0.3668 -0.0252  0.0250
 1522BOLB   C1B36513  17.551  11.626  20.874 -0.1386  0.1209 -0.0334
 1522BOLB   C2B36514  17.372  12.076  20.926 -0.1185  0.1544  0.3733
 1522BOLB   C3B36515  17.397  12.321  21.291 -0.1051  0.1117 -0.2569
 1522BOLB   C4B36516  17.246  12.611  21.598 -0.2090  0.2732  0.0417
 1522BOLB   NC236517  16.907  13.915  18.482  0.0393  0.2101  0.1938
 1522BOLB   PO236518  17.081  13.716  18.175  0.2025 -0.0845  0.0758
 1522BOLB   GL336519  17.457  13.301  18.353 -0.3581  0.0110  0.1341
 1522BOLB   GL436520  17.503  13.126  18.080  0.3129  0.0234  0.1413
 1522BOLB   C1C36521  17.416  13.074  18.708 -0.0091 -0.1988 -0.0178
 1522BOLB   C2C36522  17.616  12.973  19.078  0.2406  0.1435  0.0924
 1522BOLB   C3C36523  17.686  12.746  19.472  0.3408  0.0275 -0.0133
 1522BOLB   C4C36524  17.968  12.644  19.737  0.6365  0.2058 -0.3423
 1522BOLB   C1D36525  17.665  12.765  18.227 -0.0224 -0.0218  0.0942
 1522BOLB   C2D36526  17.605  12.545  18.623  0.1642  0.1364  0.1501
 1522BOLB   C3D36527  17.606  12.377  19.113 -0.1610  0.2064 -0.1729
 1522BOLB   C4D36528  17.507  12.320  19.545  0.1303 -0.2796  0.1818
 1523BOLB   NC136529  25.002   0.302  33.702  0.0267 -0.0236  0.0475
 1523BOLB   PO136530  24.865  -0.111  33.453  0.3697  0.1326 -0.3119
 1523BOLB   GL136531  24.815   0.124  33.095 -0.5574  0.3905  0.1841
 1523BOLB   GL236532  24.741  -0.029  32.763  0.2259  0.2426 -0.0744
 1523BOLB   C1A36533  24.439   0.286  32.943  0.1097 -0.0392  0.0010
 1523BOLB   C2A36534  24.166   0.563  32.676 -0.3897  0.2341 -0.1347
 1523BOLB   C3A36535  23.873   0.683  32.343  0.2247 -0.1543 -0.2405
 1523BOLB   C4A36536  23.696   0.711  31.898 -0.0317  0.1317  0.0974
 1523BOLB   C1B36537  24.362   0.033  32.460  0.1834 -0.2853  0.0197
 1523BOLB   C2B36538  24.405   0.194  31.982  0.2321 -0.1262  0.0451
 1523BOLB   C3B36539  24.441   0.109  31.510 -0.0264 -0.1879  0.3395
 1523BOLB   C4B36540  24.640   0.014  30.987 -0.4607  0.0065  0.1822
 1523BOLB   NC236541  22.365   1.621  30.632  0.0821 -0.0483 -0.5701
 1523BOLB   PO236542  22.736   1.524  30.432 -0.2359  0.3893 -0.2418
 1523BOLB   GL336543  22.941   1.198  30.581 -0.2161 -0.0126  0.0877
 1523BOLB   GL436544  23.230   1.250  30.360  0.2113 -0.4935 -0.2120
 1523BOLB   C1C36545  23.059   0.918  30.707 -0.3680  0.6313 -0.3993
 1523BOLB   C2C36546  23.378   0.779  31.054  0.0325  0.0919 -0.0221
 1523BOLB   C3C36547  23.576   0.459  31.133  0.1548 -0.1721  0.0038
 1523BOLB   C4C36548  23.714   0.480  31.540  0.0216  0.1216  0.2859
 1523BOLB   C1D36549  23.513   1.120  30.683 -0.0138 -0.1736 -0.0420
 1523BOLB   C2D36550  23.892   0.992  30.976 -0.0926 -0.0882 -0.3840
 1523BOLB   C3D36551  24.086   0.634  31.107  0.1321  0.0893  0.1198
 1523BOLB   C4D36552  24.048   0.218  31.220  0.0122 -0.2815 -0.2317
 1524BOLB   NC136553  23.329   8.987  25.147 -0.0992 -0.1030  0.0445
 1524BOLB   PO136554  23.021   8.977  24.753 -0.0322  0.3785  0.0047
 1524BOLB   GL136555  23.261   9.165  24.576 -0.0961  0.2675 -0.0078
 1524BOLB   GL236556  23.012   9.437  24.389  0.1054  0.1509 -0.2547
 1524BOLB   C1A36557  23.501   9.544  24.597 -0.2033  0.1562  0.1709
 1524BOLB   C2A36558  23.638   9.911  24.810 -0.0074  0.0699 -0.0140
 1524BOLB   C3A36559  23.985  10.056  24.817  0.0199 -0.1278  0.2474
 1524BOLB   C4A36560  24.402  10.351  24.807  0.0879  0.0296  0.1557
 1524BOLB   C1B36561  23.137   9.883  24.450  0.0686  0.0831  0.1520
 1524BOLB   C2B36562  23.321  10.217  24.538 -0.4024 -0.0062  0.0043
 1524BOLB   C3B36563  23.613  10.414  24.400  0.2397 -0.1205  0.1075
 1524BOLB   C4B36564  23.908  10.588  24.494  0.1960 -0.1997 -0.0879
 1524BOLB   NC236565  25.712  12.376  25.739  0.1512 -0.3231  0.2503
 1524BOLB   PO236566  25.615  11.907  25.636 -0.0638 -0.1546  0.1120
 1524BOLB   GL336567  25.416  11.583  25.565 -0.1989 -0.1345 -0.0175
 1524BOLB   GL436568  25.192  11.629  25.273  0.4901  0.0701  0.2861
 1524BOLB   C1C36569  25.245  11.173  25.601 -0.3219 -0.1577 -0.2013
 1524BOLB   C2C36570  25.079  11.027  25.296  0.0712 -0.1066 -0.0745
 1524BOLB   C3C36571  25.095  10.776  24.778 -0.1506  0.1571  0.3354
 1524BOLB   C4C36572  24.903  10.478  24.637  0.0045  0.5218  0.3738
 1524BOLB   C1D36573  24.755  11.550  25.160  0.2045  0.1081  0.1377
 1524BOLB   C2D36574  24.305  11.412  25.080 -0.0946 -0.1716  0.0610
 1524BOLB   C3D36575  23.957  11.202  25.014  0.7180  0.1452 -0.4695
 1524BOLB   C4D36576  23.629  10.852  25.206  0.0984 -0.1853  0.2081
 1525BOLB   NC136577   7.933   7.341  23.581  0.4668 -0.1030  0.1526
 1525BOLB   PO136578   7.949   6.954  23.479 -0.1209 -0.0845  0.0703
 1525BOLB   GL136579   7.587   7.240  23.289 -0.2147 -0.1484 -0.1667
 1525BOLB   GL236580   7.392   7.296  23.494 -0.0205 -0.0574 -0.1311
 1525BOLB   C1A36581   7.160   7.373  23.070 -0.0269 -0.4284 -0.2132
 1525BOLB   C2A36582   6.694   7.595  23.109  0.3091  0.2398 -0.2011
 1525BOLB   C3A36583   6.393   7.842  23.414 -0.0971 -0.1510  0.1528
 1525BOLB   C4A36584   6.357   8.173  23.227 -0.0636 -0.1429  0.0001
 1525BOLB   C1B36585   6.904   7.348  23.603 -0.2374 -0.0080 -0.0114
 1525BOLB   C2B36586   6.637   7.704  23.850 -0.2018  0.3059  0.0296
 1525BOLB   C3B36587   6.362   7.954  23.942 -0.4017 -0.0628 -0.1256
 1525BOLB   C4B36588   6.279   8.265  23.710  0.2715  0.0221  0.1480
 1525BOLB   NC236589   3.669   8.957  22.848  0.0858  0.1768 -0.0645
 1525BOLB   PO236590   3.994   8.746  22.830  0.1020 -0.0183 -0.0942
 1525BOLB   GL336591   4.343   8.738  22.778  0.1999  0.2875  0.4704
 1525BOLB   GL436592   4.615   8.608  22.545  0.0034  0.0602 -0.1015
 1525BOLB   C1C36593   4.714   8.806  22.990 -0.0390  0.0190  0.1484
 1525BOLB   C2C36594   5.164   8.679  22.954 -0.4121  0.0363 -0.2487
 1525BOLB   C3C36595   5.643   8.630  22.883 -0.3171 -0.1092  0.1420
 1525BOLB   C4C36596   5.959   8.519  23.025 -0.5378  0.2034  0.1031
 1525BOLB   C1D36597   4.923   8.387  22.276 -0.0130 -0.0830 -0.0299
 1525BOLB   C2D36598   5.026   7.969  22.147  0.1709 -0.1639  0.1423
 1525BOLB   C3D36599   4.878   7.623  22.339  0.0571  0.1150  0.2529
 1525BOLB   C4D36600   4.553   7.386  22.341  0.0038 -0.1712 -0.2057
 1526BOLB   NC136601  24.216   5.241  24.262  0.2784 -0.0265 -0.3247
 1526BOLB   PO136602  24.083   5.657  24.258 -0.0302 -0.2592 -0.2089
 1526BOLB   GL136603  24.520   5.791  24.299  0.0989 -0.1043 -0.2134
 1526BOLB   GL236604  24.770   5.457  24.355  0.2146 -0.1588  0.0677
 1526BOLB   C1A36605  24.797   6.051  24.133  0.2188 -0.0956 -0.3398
 1526BOLB   C2A36606  25.183   6.098  24.045  0.0810 -0.4302 -0.0176
 1526BOLB   C3A36607  25.498   6.319  23.829 -0.0052  0.0980  0.6008
 1526BOLB   C4A36608  25.834   6.644  23.762  0.1739 -0.2118 -0.6521
 1526BOLB   C1B36609  25.025   5.634  24.137 -0.3250 -0.0816 -0.3301
 1526BOLB   C2B36610  25.396   5.693  23.930  0.1337 -0.2070  0.1632
 1526BOLB   C3B36611  25.855   5.711  23.848 -0.0182 -0.1559 -0.1782
 1526BOLB   C4B36612  26.286   5.588  23.909  0.1220  0.0714 -0.4969
 1526BOLB   NC236613  28.510   7.694  23.552  0.0445  0.3526 -0.1470
 1526BOLB   PO236614  28.167   7.481  23.689  0.0970  0.1204 -0.0415
 1526BOLB   GL336615  27.799   7.234  23.756 -0.1439  0.2884 -0.0252
 1526BOLB   GL436616  27.730   6.909  23.797  0.1505 -0.1317 -0.1756
 1526BOLB   C1C36617  27.383   7.270  23.943  0.3226 -0.0527 -0.1488
 1526BOLB   C2C36618  26.932   7.167  23.900 -0.0183 -0.1837 -0.0842
 1526BOLB   C3C36619  26.472   7.105  23.743 -0.0770 -0.1534  0.3706
 1526BOLB   C4C36620  26.103   6.988  23.590  0.1457 -0.1358 -0.1897
 1526BOLB   C1D36621  27.378   6.664  24.057  0.2095 -0.0635 -0.1374
 1526BOLB   C2D36622  27.056   6.322  24.119 -0.2188  0.0313  0.3749
 1526BOLB   C3D36623  26.802   6.096  24.392  0.3579 -0.2314  0.1826
 1526BOLB   C4D36624  26.626   6.113  24.752  0.2337  0.0979  0.1088
 1527BOLB   NC136625   6.838   4.067  25.700 -0.0898  0.0825 -0.3539
 1527BOLB   PO136626   6.506   4.013  25.354  0.1421  0.0245  0.3842
 1527BOLB   GL136627   6.250   4.154  25.053  0.1979  0.0795  0.3040
 1527BOLB   GL236628   6.259   4.520  24.842  0.1246  0.0015 -0.1269
 1527BOLB   C1A36629   5.825   4.011  24.832  0.1393  0.1516  0.0200
 1527BOLB   C2A36630   5.345   3.874  24.698  0.1406 -0.0321  0.3603
 1527BOLB   C3A36631   5.028   3.841  24.290  0.0008 -0.1546 -0.1204
 1527BOLB   C4A36632   4.883   4.002  24.019  0.1065  0.0103 -0.0885
 1527BOLB   C1B36633   5.859   4.766  24.670  0.1152 -0.3783 -0.1870
 1527BOLB   C2B36634   5.589   5.058  24.716 -0.0585 -0.2125  0.0243
 1527BOLB   C3B36635   5.179   5.380  24.730  0.1528  0.0703 -0.2401
 1527BOLB   C4B36636   5.185   5.787  24.736 -0.0483 -0.0692 -0.6132
 1527BOLB   NC236637   2.535   5.306  24.694 -0.0553 -0.5454  0.1470
 1527BOLB   PO236638   2.949   5.340  24.517  0.0744 -0.1817 -0.3281
 1527BOLB   GL336639   3.364   5.105  24.374 -0.2654  0.2973 -0.0589
 1527BOLB   GL436640   3.563   5.221  24.479 -0.1234 -0.0983 -0.0014
 1527BOLB   C1C36641   3.641   4.779  24.201  0.0827  0.2174  0.2961
 1527BOLB   C2C36642   3.944   4.667  23.961 -0.0913  0.2055 -0.3686
 1527BOLB   C3C36643   4.250   4.424  23.891 -0.2199 -0.0397 -0.0769
 1527BOLB   C4C36644   4.658   4.248  23.721  0.0723  0.0760  0.1691
 1527BOLB   C1D36645   4.018   5.142  24.510  0.1622 -0.2029 -0.2670
 1527BOLB   C2D36646   4.183   4.996  24.809  0.3689 -0.1977 -0.1681
 1527BOLB   C3D36647   4.400   4.767  25.081  0.1653 -0.3118  0.1581
 1527BOLB   C4D36648   4.825   4.672  25.206  0.0405 -0.1835  0.1076
 1528BOLB   NC136649   8.504   4.745  20.708  0.0428 -0.1240  0.0789
 1528BOLB   PO136650   8.998   4.921  20.714  0.1211 -0.1518 -0.0456
 1528BOLB   GL136651   8.747   4.996  20.402 -0.1203 -0.0716  0.1202
 1528BOLB   GL236652   8.634   5.375  20.303 -0.2290  0.4692  0.1812
 1528BOLB   C1A36653   8.367   4.939  20.095  0.1118 -0.0458 -0.0691
 1528BOLB   C2A36654   8.110   4.733  19.729 -0.1086 -0.2468  0.1397
 1528BOLB   C3A36655   7.708   4.832  19.631 -0.1394  0.2405 -0.0796
 1528BOLB   C4A36656   7.425   4.972  19.382 -0.1405 -0.1452  0.0429
 1528BOLB   C1B36657   8.202   5.397  20.109  0.0290  0.1946  0.0632
 1528BOLB   C2B36658   7.887   5.006  20.169 -0.1134 -0.2363  0.2290
 1528BOLB   C3B36659   7.661   4.663  20.163  0.3861  0.4076  0.2410
 1528BOLB   C4B36660   7.358   4.540  19.898 -0.0590  0.1886 -0.0357
 1528BOLB   NC236661   6.273   4.706  17.314 -0.0963 -0.0796  0.0023
 1528BOLB   PO236662   5.918   4.894  17.567  0.2645 -0.1867  0.1450
 1528BOLB   GL336663   6.179   4.976  17.864 -0.0767 -0.0868 -0.0081
 1528BOLB   GL436664   6.448   4.886  17.733 -0.1208 -0.1220 -0.0272
 1528BOLB   C1C36665   6.305   5.182  18.285  0.0720 -0.1284 -0.0463
 1528BOLB   C2C36666   6.540   5.096  18.572  0.0200 -0.3357 -0.2943
 1528BOLB   C3C36667   6.851   5.075  18.748 -0.1482 -0.1570 -0.0590
 1528BOLB   C4C36668   7.224   4.943  18.960  0.0391 -0.0775 -0.2069
 1528BOLB   C1D36669   6.680   4.871  18.149 -0.1042  0.0734  0.3004
 1528BOLB   C2D36670   7.114   4.764  18.312 -0.2228 -0.0910 -0.1815
 1528BOLB   C3D36671   7.476   4.866  18.550 -0.0956  0.4728  0.1130
 1528BOLB   C4D36672   7.669   5.162  18.799 -0.1860 -0.0742 -0.0247
 1529BOLB   NC136673  21.241   7.384  19.278  0.1263  0.3134 -0.3454
 1529BOLB   PO136674  21.018   7.531  18.941 -0.1347  0.1402  0.0492
 1529BOLB   GL136675  21.108   7.708  18.614  0.3306 -0.0027 -0.1992
 1529BOLB   GL236676  21.263   7.424  18.353  0.0860 -0.2231  0.2395
 1529BOLB   C1A36677  21.477   7.990  18.533  0.2859 -0.3788  0.0194
 1529BOLB   C2A36678  21.618   8.094  18.190 -0.0035  0.0629  0.3286
 1529BOLB   C3A36679  21.876   8.140  17.843 -0.1431  0.0580 -0.0494
 1529BOLB   C4A36680  22.259   8.030  17.553  0.0737 -0.0159 -0.0455
 1529BOLB   C1B36681  21.472   7.651  18.055  0.2907  0.0604 -0.1098
 1529BOLB   C2B36682  21.324   7.873  17.652  0.0653 -0.2098 -0.1012
 1529BOLB   C3B36683  21.349   7.646  17.257  0.0122  0.0757 -0.3048
 1529BOLB   C4B36684  21.529   7.319  16.946 -0.0692  0.1751  0.1046
 1529BOLB   NC236685  22.612   8.424  15.182 -0.0217 -0.0130 -0.1081
 1529BOLB   PO236686  22.790   8.642  15.389  0.1661  0.1055 -0.4485
 1529BOLB   GL336687  22.576   8.717  15.844  0.2220  0.2480  0.0440
 1529BOLB   GL436688  22.313   8.801  15.786 -0.1144  0.2077  0.1410
 1529BOLB   C1C36689  22.523   8.436  16.140 -0.2664  0.2015 -0.1257
 1529BOLB   C2C36690  22.307   8.296  16.515 -0.2592  0.1260  0.2249
 1529BOLB   C3C36691  22.188   8.138  16.891 -0.0967 -0.0267 -0.0617
 1529BOLB   C4C36692  22.237   8.001  17.222 -0.0561 -0.1498 -0.0552
 1529BOLB   C1D36693  21.947   8.510  15.832 -0.0160  0.1444 -0.0002
 1529BOLB   C2D36694  21.898   8.242  16.224 -0.3096 -0.1304  0.0396
 1529BOLB   C3D36695  21.790   7.973  16.589  0.1964  0.4086 -0.3225
 1529BOLB   C4D36696  21.358   7.825  16.806 -0.1768  0.3648 -0.2912
 1530BOLB   NC136697  15.814  -2.405  29.525  0.4105 -0.0863  0.0858
 1530BOLB   PO136698  15.739  -1.945  29.693 -0.1278  0.0387  0.0459
 1530BOLB   GL136699  15.691  -2.254  30.018 -0.0654  0.2105  0.2451
 1530BOLB   GL236700  15.351  -2.388  30.138  0.1218 -0.0750  0.0421
 1530BOLB   C1A36701  15.938  -2.387  30.205  0.2944  0.0919 -0.1663
 1530BOLB   C2A36702  16.095  -2.682  30.307  0.0340 -0.4040  0.4136
 1530BOLB   C3A36703  16.195  -3.005  30.594 -0.1968  0.1583  0.2661
 1530BOLB   C4A36704  16.189  -3.311  30.737 -0.0381  0.0579  0.1237
 1530BOLB   C1B36705  15.491  -2.565  30.455  0.1781  0.0533 -0.1194
 1530BOLB   C2B36706  15.724  -2.793  30.663  0.2308  0.2744 -0.3031
 1530BOLB   C3B36707  15.621  -3.120  30.880 -0.4202 -0.2726 -0.4525
 1530BOLB   C4B36708  15.692  -3.530  31.080 -0.1122 -0.2041  0.0370
 1530BOLB   NC236709  15.466  -5.649  32.515 -0.0073 -0.1186  0.0278
 1530BOLB   PO236710  15.499  -5.396  32.067 -0.1128 -0.1361  0.1955
 1530BOLB   GL336711  15.583  -4.981  31.895  0.5440  0.0477  0.1367
 1530BOLB   GL436712  15.805  -4.708  31.979  0.0035 -0.1842 -0.0543
 1530BOLB   C1C36713  15.843  -4.838  31.528  0.1437  0.3692 -0.3129
 1530BOLB   C2C36714  15.800  -4.455  31.237  0.1379  0.2036 -0.1070
 1530BOLB   C3C36715  15.856  -3.956  31.210 -0.1817 -0.0576  0.1036
 1530BOLB   C4C36716  16.191  -3.587  31.052 -0.1295 -0.0706  0.0091
 1530BOLB   C1D36717  15.708  -4.327  31.835  0.0732  0.0719 -0.1139
 1530BOLB   C2D36718  15.953  -3.895  31.721  0.0918  0.4191  0.0646
 1530BOLB   C3D36719  15.930  -3.493  31.496  0.2341 -0.0991  0.0386
 1530BOLB   C4D36720  15.855  -3.031  31.351  0.2683 -0.0353  0.3667
 1531BOLB   NC136721  11.762  11.699  27.725 -0.2351 -0.0608 -0.2953
 1531BOLB   PO136722  11.346  12.003  27.776  0.0272 -0.2095 -0.1499
 1531BOLB   GL136723  11.268  12.426  27.827 -0.2307 -0.1144  0.0009
 1531BOLB   GL236724  11.426  12.423  28.207 -0.1877  0.1397  0.3684
 1531BOLB   C1A36725  11.333  12.870  27.966  0.0302  0.1979 -0.0965
 1531BOLB   C2A36726  11.612  13.261  27.942 -0.0635 -0.0347 -0.0709
 1531BOLB   C3A36727  11.906  13.556  27.872  0.2024 -0.0589 -0.1580
 1531BOLB   C4A36728  12.071  13.937  27.867  0.1697 -0.2294 -0.0631
 1531BOLB   C1B36729  11.246  12.710  28.445 -0.0780  0.4579 -0.0770
 1531BOLB   C2B36730  10.963  13.079  28.388 -0.0609  0.0938 -0.4280
 1531BOLB   C3B36731  10.639  13.424  28.371 -0.0362  0.0575  0.0938
 1531BOLB   C4B36732  10.262  13.375  28.093 -0.1245  0.2696 -0.1941
 1531BOLB   NC236733  11.776  16.157  28.579 -0.2672 -0.0193 -0.4995
 1531BOLB   PO236734  12.180  16.427  28.485  0.0047 -0.1832 -0.0375
 1531BOLB   GL336735  12.413  15.988  28.210 -0.1214 -0.0030  0.1261
 1531BOLB   GL436736  12.579  16.078  27.835  0.0006  0.2348 -0.2280
 1531BOLB   C1C36737  12.299  15.514  28.088 -0.0506 -0.2496 -0.2049
 1531BOLB   C2C36738  12.509  15.093  28.022 -0.3111  0.0449 -0.0613
 1531BOLB   C3C36739  12.597  14.582  27.924 -0.1122 -0.1942  0.2779
 1531BOLB   C4C36740  12.409  14.214  28.055  0.0993 -0.0622 -0.1868
 1531BOLB   C1D36741  12.856  15.735  27.749 -0.0509  0.0425 -0.0111
 1531BOLB   C2D36742  12.983  15.327  27.561 -0.0877 -0.2715 -0.1531
 1531BOLB   C3D36743  12.950  14.892  27.741 -0.1671 -0.0660 -0.0964
 1531BOLB   C4D36744  13.165  14.542  27.541  0.1209  0.2710 -0.1542
 1532BOLB   NC136745   3.780   1.417  20.273 -0.1851 -0.1489 -0.1085
 1532BOLB   PO136746   4.155   1.324  20.500  0.0625  0.0148  0.2758
 1532BOLB   GL136747   4.265   1.503  20.816 -0.0299  0.0969  0.1057
 1532BOLB   GL236748   4.238   1.918  20.759 -0.0240 -0.0499 -0.0981
 1532BOLB   C1A36749   4.715   1.482  21.017  0.3084 -0.2047 -0.1323
 1532BOLB   C2A36750   4.966   1.243  21.368  0.1179 -0.0886 -0.2231
 1532BOLB   C3A36751   5.320   1.094  21.596 -0.2453  0.0519 -0.3568
 1532BOLB   C4A36752   5.446   0.823  21.902 -0.2743  0.2064 -0.2515
 1532BOLB   C1B36753   4.709   1.907  20.857 -0.0343  0.0782  0.3752
 1532BOLB   C2B36754   4.986   1.719  20.647  0.1131  0.0172  0.1729
 1532BOLB   C3B36755   5.126   1.357  20.537 -0.1953  0.0605  0.0630
 1532BOLB   C4B36756   4.935   1.313  20.121 -0.1465  0.1436  0.2221
 1532BOLB   NC236757   3.388  -0.250  20.577  0.1243 -0.1389 -0.1112
 1532BOLB   PO236758   3.856  -0.411  20.719  0.0672 -0.0419  0.0642
 1532BOLB   GL336759   4.221  -0.321  20.988  0.2764  0.2222  0.1433
 1532BOLB   GL436760   4.165  -0.391  21.276  0.2147 -0.0460 -0.2346
 1532BOLB   C1C36761   4.601  -0.101  21.228 -0.0317 -0.0930  0.1207
 1532BOLB   C2C36762   4.758   0.239  21.425 -0.0136 -0.0261 -0.1159
 1532BOLB   C3C36763   5.068   0.350  21.738  0.3075 -0.2039 -0.1181
 1532BOLB   C4C36764   5.419   0.433  21.895  0.3301  0.2982 -0.0374
 1532BOLB   C1D36765   4.476  -0.432  21.601  0.1804  0.0209 -0.1834
 1532BOLB   C2D36766   4.929  -0.274  21.534 -0.0639  0.1234 -0.0748
 1532BOLB   C3D36767   5.085  -0.216  21.866  0.1769 -0.0493 -0.1855
 1532BOLB   C4D36768   5.312  -0.512  22.069  0.1395  0.0959 -0.2049
 1533BOLB   NC136769  18.390   9.986  21.160  0.2030 -0.0695  0.2097
 1533BOLB   PO136770  18.350  10.444  21.142 -0.0571  0.1161 -0.2019
 1533BOLB   GL136771  18.357  10.792  20.848  0.0535  0.0150  0.0154
 1533BOLB   GL236772  18.504  10.636  20.478  0.0129 -0.0448 -0.3324
 1533BOLB   C1A36773  18.380  11.244  20.821  0.2824 -0.0924 -0.1168
 1533BOLB   C2A36774  18.457  11.654  20.605 -0.0682 -0.0297 -0.3151
 1533BOLB   C3A36775  18.448  11.918  20.200 -0.1083  0.2794  0.0466
 1533BOLB   C4A36776  18.151  11.957  20.005 -0.1548  0.0305  0.0516
 1533BOLB   C1B36777  18.596  10.685  20.035  0.0048 -0.1233  0.1225
 1533BOLB   C2B36778  18.609  10.982  19.724  0.3184 -0.3230 -0.2925
 1533BOLB   C3B36779  18.570  11.225  19.382 -0.1369 -0.0304  0.2777
 1533BOLB   C4B36780  18.522  11.276  18.946  0.0906  0.0617  0.1438
 1533BOLB   NC236781  17.551  13.478  17.469 -0.1768  0.0086 -0.4422
 1533BOLB   PO236782  17.846  13.491  17.818 -0.0366 -0.3513 -0.2234
 1533BOLB   GL336783  17.984  13.224  18.215 -0.0199 -0.2704 -0.2636
 1533BOLB   GL436784  18.322  13.239  18.414  0.0365  0.2295  0.2829
 1533BOLB   C1C36785  17.973  12.910  18.574  0.2078  0.1264  0.2942
 1533BOLB   C2C36786  18.064  12.513  18.871 -0.1774 -0.0784  0.0916
 1533BOLB   C3C36787  18.087  12.352  19.275 -0.0823  0.0702 -0.2376
 1533BOLB   C4C36788  18.182  12.206  19.722 -0.2499  0.0154  0.0179
 1533BOLB   C1D36789  18.524  13.055  18.744 -0.0990  0.1220 -0.0700
 1533BOLB   C2D36790  18.460  12.811  19.202  0.0459  0.3040  0.0816
 1533BOLB   C3D36791  18.503  12.678  19.606 -0.0146  0.0301 -0.1058
 1533BOLB   C4D36792  18.491  12.397  20.057 -0.1290  0.0680  0.2062
 1534BOLB   NC136793  10.048   2.629  31.934  0.1994  0.2151  0.4929
 1534BOLB   PO136794  10.030   2.227  31.787  0.1800 -0.4407  0.1702
 1534BOLB   GL136795   9.993   1.814  31.987  0.1843 -0.1074  0.1029
 1534BOLB   GL236796  10.117   1.421  31.810 -0.4450 -0.1865 -0.4322
 1534BOLB   C1A36797   9.987   1.428  32.376 -0.2171 -0.0317 -0.1098
 1534BOLB   C2A36798  10.038   1.359  32.849  0.1858  0.2733  0.0656
 1534BOLB   C3A36799   9.971   1.569  33.222 -0.2753  0.2055 -0.0047
 1534BOLB   C4A36800   9.712   1.589  33.606  0.0569 -0.3836  0.2770
 1534BOLB   C1B36801   9.856   1.158  31.960  0.0426 -0.2330 -0.1106
 1534BOLB   C2B36802   9.599   0.811  32.058 -0.1086 -0.0994 -0.2866
 1534BOLB   C3B36803   9.264   0.766  32.266  0.3098  0.4019 -0.1331
 1534BOLB   C4B36804   8.964   0.413  32.269  0.0811  0.2697 -0.1421
 1534BOLB   NC236805   9.361   0.886  35.972  0.3060 -0.0970  0.4013
 1534BOLB   PO236806   9.250   1.210  35.691 -0.0201 -0.1644  0.3630
 1534BOLB   GL336807   9.316   1.501  35.408  0.2899 -0.2195 -0.1136
 1534BOLB   GL436808   9.193   1.772  35.299  0.2521  0.0095 -0.2163
 1534BOLB   C1C36809   9.657   1.711  35.100  0.0758  0.1664 -0.1825
 1534BOLB   C2C36810   9.728   1.825  34.787 -0.1912  0.1673  0.1299
 1534BOLB   C3C36811   9.520   1.669  34.442 -0.0879 -0.3657 -0.0103
 1534BOLB   C4C36812   9.683   1.664  34.101 -0.2455 -0.0600 -0.0699
 1534BOLB   C1D36813   9.210   1.489  34.890 -0.1693  0.4742 -0.0271
 1534BOLB   C2D36814   9.138   1.326  34.547  0.0214 -0.3666 -0.2492
 1534BOLB   C3D36815   9.160   1.437  34.109  0.0081  0.0861  0.0158
 1534BOLB   C4D36816   9.209   1.605  33.782 -0.2221 -0.2250 -0.0318
 1535BOLB   NC136817  14.609   9.985  31.656  0.4005 -0.0014 -0.0031
 1535BOLB   PO136818  14.453  10.084  31.918 -0.3373 -0.0932  0.2863
 1535BOLB   GL136819  14.531  10.406  31.898 -0.3392 -0.1934  0.1360
 1535BOLB   GL236820  14.789  10.532  31.826  0.1332  0.0333 -0.2496
 1535BOLB   C1A36821  14.405  10.830  31.727 -0.0459 -0.2610  0.2205
 1535BOLB   C2A36822  14.473  11.277  31.898  0.1859  0.0250 -0.1889
 1535BOLB   C3A36823  14.310  11.544  32.061  0.2523 -0.1007 -0.2254
 1535BOLB   C4A36824  14.501  11.766  32.358 -0.3163 -0.0347 -0.0204
 1535BOLB   C1B36825  14.876  10.921  32.014  0.2463  0.1276 -0.2554
 1535BOLB   C2B36826  14.797  11.231  32.212 -0.2717  0.2202  0.0937
 1535BOLB   C3B36827  14.871  11.539  32.470 -0.2553 -0.0326 -0.0903
 1535BOLB   C4B36828  14.938  11.950  32.433  0.1791  0.1510  0.1466
 1535BOLB   NC236829  14.303  13.488  34.120 -0.0326  0.0945 -0.2253
 1535BOLB   PO236830  14.713  13.550  34.231 -0.2197 -0.2670 -0.3037
 1535BOLB   GL336831  14.638  13.208  33.920  0.3378  0.2362  0.3309
 1535BOLB   GL436832  14.930  12.999  33.779  0.1832  0.2073  0.3371
 1535BOLB   C1C36833  14.432  12.926  33.680  0.2037  0.0649 -0.0148
 1535BOLB   C2C36834  14.362  12.671  33.468 -0.1626  0.1047 -0.2477
 1535BOLB   C3C36835  14.406  12.338  33.099 -0.0856 -0.0780  0.1080
 1535BOLB   C4C36836  14.594  12.118  32.711  0.0993  0.0283  0.1257
 1535BOLB   C1D36837  14.696  12.560  33.899 -0.0631 -0.0887  0.1330
 1535BOLB   C2D36838  14.519  12.208  33.640 -0.1539  0.1105  0.2229
 1535BOLB   C3D36839  14.651  11.928  33.246 -0.0016  0.0443 -0.0992
 1535BOLB   C4D36840  14.861  11.801  33.005 -0.0946 -0.2476  0.2302
 1536BOLB   NC136841  14.148   0.458  32.590  0.2570 -0.1045  0.1437
 1536BOLB   PO136842  13.712   0.534  32.577 -0.1584 -0.0745 -0.0981
 1536BOLB   GL136843  13.707   0.391  32.974 -0.1727  0.1912 -0.1103
 1536BOLB   GL236844  14.002   0.231  32.984 -0.1396  0.2753 -0.1138
 1536BOLB   C1A36845  13.451   0.240  33.243 -0.2133  0.0562 -0.1072
 1536BOLB   C2A36846  13.378   0.067  33.631 -0.0649  0.0133 -0.1379
 1536BOLB   C3A36847  13.315  -0.096  34.095  0.1485  0.2630 -0.0148
 1536BOLB   C4A36848  13.146  -0.300  34.544 -0.3171  0.1855  0.0239
 1536BOLB   C1B36849  14.327   0.081  33.207 -0.1415  0.2116 -0.1351
 1536BOLB   C2B36850  14.417   0.014  33.741 -0.2504 -0.2499  0.1254
 1536BOLB   C3B36851  14.445   0.027  34.182 -0.3515  0.0626  0.0792
 1536BOLB   C4B36852  14.567   0.397  34.337 -0.2553  0.0434  0.2694
 1536BOLB   NC236853  11.384  -0.720  36.004 -0.0331 -0.0373 -0.1016
 1536BOLB   PO236854  11.825  -0.866  36.156  0.0007  0.2341 -0.0698
 1536BOLB   GL336855  11.826  -0.716  35.713 -0.1023 -0.2201 -0.3528
 1536BOLB   GL436856  11.606  -0.879  35.573 -0.0445 -0.2046  0.1156
 1536BOLB   C1C36857  12.017  -0.644  35.417 -0.2267 -0.0367 -0.1805
 1536BOLB   C2C36858  12.199  -0.655  35.028  0.2429 -0.2983 -0.4227
 1536BOLB   C3C36859  12.548  -0.631  34.827  0.0808  0.2677  0.1446
 1536BOLB   C4C36860  12.743  -0.444  34.485 -0.0554  0.0967 -0.0505
 1536BOLB   C1D36861  11.513  -1.107  35.234  0.0526 -0.3445 -0.3078
 1536BOLB   C2D36862  11.864  -1.139  34.954 -0.1606 -0.0950  0.2189
 1536BOLB   C3D36863  11.966  -0.971  34.534  0.1241 -0.0134 -0.1103
 1536BOLB   C4D36864  12.130  -0.577  34.493 -0.1619  0.0297  0.2518
 1537BOLB   NC136865  14.799  -0.733  31.030  0.2667  0.2810 -0.1196
 1537BOLB   PO136866  15.217  -1.029  31.041  0.0537 -0.4449  0.0244
 1537BOLB   GL136867  15.180  -1.502  31.086 -0.0423 -0.1148 -0.0857
 1537BOLB   GL236868  15.359  -1.797  30.828  0.1880  0.2776 -0.4339
 1537BOLB   C1A36869  14.925  -1.808  31.471 -0.2109 -0.0380  0.2547
 1537BOLB   C2A36870  14.796  -2.142  31.821  0.0180  0.0347 -0.5157
 1537BOLB   C3A36871  14.757  -2.509  31.973 -0.0572 -0.1389  0.0346
 1537BOLB   C4A36872  14.862  -2.890  32.226 -0.5906 -0.5060 -0.1337
 1537BOLB   C1B36873  15.344  -1.967  31.258  0.0428  0.0749  0.0204
 1537BOLB   C2B36874  15.267  -2.198  31.675 -0.2591 -0.2798 -0.1415
 1537BOLB   C3B36875  15.559  -2.217  31.981  0.0550  0.2310  0.2703
 1537BOLB   C4B36876  15.564  -2.311  32.433 -0.3335 -0.2319  0.0527
 1537BOLB   NC236877  13.484  -4.639  33.010 -0.0825  0.0205  0.0152
 1537BOLB   PO236878  13.851  -4.643  33.261 -0.1726 -0.2396  0.0021
 1537BOLB   GL336879  13.726  -4.180  33.108 -0.0378 -0.0020 -0.0068
 1537BOLB   GL436880  13.356  -4.072  33.156 -0.0365  0.0236  0.0929
 1537BOLB   C1C36881  14.024  -3.906  33.123  0.0122  0.1406  0.1980
 1537BOLB   C2C36882  14.474  -3.759  32.985 -0.2266 -0.1163 -0.3702
 1537BOLB   C3C36883  14.801  -3.562  32.646 -0.0892  0.2123  0.0519
 1537BOLB   C4C36884  14.739  -3.248  32.386  0.0911 -0.1080 -0.0992
 1537BOLB   C1D36885  13.513  -3.647  32.845  0.0019 -0.1470  0.0007
 1537BOLB   C2D36886  13.481  -3.585  32.387  0.0984 -0.0599 -0.3600
 1537BOLB   C3D36887  13.868  -3.345  32.208  0.0252 -0.2827  0.1402
 1537BOLB   C4D36888  13.812  -2.899  31.965  0.0865  0.1449  0.6002
 1538BOLB   NC136889   9.563  -1.211  27.787  0.0877 -0.0053 -0.1579
 1538BOLB   PO136890   9.162  -1.313  27.862 -0.1739 -0.3267  0.4036
 1538BOLB   GL136891   8.991  -1.520  28.105  0.1301 -0.1263 -0.0013
 1538BOLB   GL236892   8.876  -1.818  27.824 -0.1502 -0.2382 -0.1188
 1538BOLB   C1A36893   8.615  -1.603  28.319  0.2313  0.0917  0.1763
 1538BOLB   C2A36894   8.283  -1.881  28.446 -0.0150  0.0214  0.0875
 1538BOLB   C3A36895   8.240  -2.297  28.418  0.0575  0.4544  0.2666
 1538BOLB   C4A36896   8.044  -2.674  28.316  0.2391  0.2486  0.1298
 1538BOLB   C1B36897   8.455  -1.902  27.787 -0.2880 -0.2836  0.2289
 1538BOLB   C2B36898   8.159  -2.206  27.878 -0.0868 -0.1607 -0.1228
 1538BOLB   C3B36899   7.769  -2.489  27.796 -0.4425  0.0449  0.1871
 1538BOLB   C4B36900   7.554  -2.816  27.533 -0.1896 -0.1747 -0.3776
 1538BOLB   NC236901   7.153  -4.146  29.852 -0.3057 -0.0870 -0.0849
 1538BOLB   PO236902   6.952  -4.224  29.555  0.3055  0.2871 -0.0589
 1538BOLB   GL336903   6.909  -3.852  29.329  0.1650  0.1918  0.1231
 1538BOLB   GL436904   7.136  -3.718  29.502  0.0809  0.1877  0.0202
 1538BOLB   C1C36905   6.949  -3.449  29.088  0.1222  0.4339 -0.0996
 1538BOLB   C2C36906   7.236  -3.163  28.975 -0.3347  0.2197 -0.2642
 1538BOLB   C3C36907   7.669  -3.197  28.868 -0.1203  0.0844 -0.0109
 1538BOLB   C4C36908   7.867  -3.050  28.565 -0.0923  0.3083  0.1739
 1538BOLB   C1D36909   7.299  -3.351  29.446  0.1757  0.0133  0.1312
 1538BOLB   C2D36910   7.565  -3.042  29.407 -0.1740  0.0118 -0.0067
 1538BOLB   C3D36911   7.711  -2.658  29.161 -0.1322 -0.0557  0.0081
 1538BOLB   C4D36912   7.901  -2.544  28.835 -0.2019  0.1982 -0.0103
 1539BOLB   NC136913  12.851   4.782  18.074 -0.4011  0.3226  0.2532
 1539BOLB   PO136914  12.508   4.851  17.795 -0.0670  0.3504  0.3759
 1539BOLB   GL136915  12.479   4.768  17.303 -0.0362 -0.1165 -0.2773
 1539BOLB   GL236916  12.560   4.408  17.157 -0.1043 -0.3056 -0.1129
 1539BOLB   C1A36917  12.094   4.884  17.051 -0.1313  0.1317  0.0897
 1539BOLB   C2A36918  11.878   4.802  16.711 -0.0629  0.1411 -0.0304
 1539BOLB   C3A36919  11.677   4.771  16.361 -0.3035 -0.0742 -0.0126
 1539BOLB   C4A36920  11.439   4.927  16.135 -0.1369  0.3282  0.0745
 1539BOLB   C1B36921  12.319   4.496  16.862  0.0570 -0.0805  0.3871
 1539BOLB   C2B36922  12.099   4.410  16.451 -0.1527  0.0686  0.1882
 1539BOLB   C3B36923  11.792   4.362  16.051  0.0094 -0.2743  0.2923
 1539BOLB   C4B36924  11.863   4.068  15.646  0.0100 -0.4274  0.1164
 1539BOLB   NC236925   9.827   4.654  14.168  0.1679 -0.0468  0.1182
 1539BOLB   PO236926  10.096   4.455  13.904  0.0894  0.0928  0.0835
 1539BOLB   GL336927  10.322   4.655  14.310  0.0400  0.0626 -0.1780
 1539BOLB   GL436928  10.150   4.494  14.563 -0.0809 -0.0038  0.2323
 1539BOLB   C1C36929  10.540   4.853  14.618  0.0525 -0.3274 -0.0749
 1539BOLB   C2C36930  10.852   4.885  14.971  0.1784 -0.1728  0.0928
 1539BOLB   C3C36931  10.995   5.010  15.331  0.0137 -0.1525 -0.2365
 1539BOLB   C4C36932  11.183   4.925  15.811  0.2099 -0.0541 -0.1439
 1539BOLB   C1D36933  10.630   4.313  14.690  0.2003 -0.3078 -0.1220
 1539BOLB   C2D36934  10.940   4.158  14.561 -0.2081 -0.0635 -0.1685
 1539BOLB   C3D36935  11.315   4.014  14.907  0.0795  0.1649 -0.1041
 1539BOLB   C4D36936  11.528   4.158  15.203 -0.0582  0.4121  0.0569
 1540BOLB   NC136937  13.829   2.196  16.080 -0.1308  0.0585 -0.0451
 1540BOLB   PO136938  13.757   2.638  16.310  0.2299  0.0978 -0.4016
 1540BOLB   GL136939  13.396   2.509  16.121 -0.3579 -0.0947 -0.0667
 1540BOLB   GL236940  13.572   2.529  15.778  0.0254  0.2473  0.0629
 1540BOLB   C1A36941  13.041   2.749  15.985  0.0388  0.0059  0.4354
 1540BOLB   C2A36942  12.587   2.665  15.943 -0.0051  0.0330  0.0780
 1540BOLB   C3A36943  12.213   2.715  15.735  0.1758  0.0632 -0.2161
 1540BOLB   C4A36944  12.169   2.751  15.284 -0.0550 -0.2518 -0.0603
 1540BOLB   C1B36945  13.143   2.524  15.581  0.1935 -0.0966  0.2357
 1540BOLB   C2B36946  12.750   2.586  15.490 -0.0354  0.2279  0.0436
 1540BOLB   C3B36947  12.515   2.440  15.097  0.2064  0.0253  0.1897
 1540BOLB   C4B36948  12.271   2.532  14.739  0.1293  0.0880  0.0681
 1540BOLB   NC236949  11.134   3.874  13.381  0.3073  0.0183  0.2771
 1540BOLB   PO236950  11.390   3.521  13.209  0.3292  0.0748  0.2149
 1540BOLB   GL336951  11.580   3.574  13.661 -0.0637  0.1503 -0.0090
 1540BOLB   GL436952  11.651   3.879  13.561 -0.1774 -0.1151 -0.0229
 1540BOLB   C1C36953  11.567   3.567  14.119  0.4784 -0.1348  0.5141
 1540BOLB   C2C36954  11.913   3.357  14.281 -0.0700 -0.1973 -0.0997
 1540BOLB   C3C36955  11.972   3.163  14.579  0.1120 -0.1428  0.0132
 1540BOLB   C4C36956  11.991   2.960  14.999 -0.1452  0.1117  0.0349
 1540BOLB   C1D36957  11.974   3.813  13.867  0.0644  0.2026 -0.0065
 1540BOLB   C2D36958  12.155   3.860  14.197 -0.0185  0.1295  0.0234
 1540BOLB   C3D36959  12.494   3.780  14.257 -0.0949 -0.0903  0.0744
 1540BOLB   C4D36960  12.835   3.525  13.960 -0.1447 -0.0498 -0.2016
 1541BOLB   NC136961  21.643   3.513  17.657 -0.2874 -0.1293  0.3419
 1541BOLB   PO136962  21.499   3.108  17.760  0.1135  0.2560  0.0920
 1541BOLB   GL136963  21.637   3.070  17.422 -0.0418  0.1903  0.3056
 1541BOLB   GL236964  21.874   2.817  17.411  0.0582  0.0744 -0.0083
 1541BOLB   C1A36965  21.653   3.032  17.032  0.2844  0.0353 -0.0399
 1541BOLB   C2A36966  21.895   3.081  16.583  0.0416 -0.1709  0.1996
 1541BOLB   C3A36967  22.026   3.378  16.272 -0.2040  0.2155  0.0750
 1541BOLB   C4A36968  22.412   3.614  16.184  0.2780  0.0797 -0.0825
 1541BOLB   C1B36969  22.238   2.846  17.516 -0.0343 -0.0025 -0.2815
 1541BOLB   C2B36970  22.587   2.599  17.744 -0.2984  0.0583 -0.1887
 1541BOLB   C3B36971  22.702   2.158  17.650 -0.0503 -0.2310  0.0513
 1541BOLB   C4B36972  23.048   1.928  17.757 -0.1591 -0.1749 -0.1426
 1541BOLB   NC236973  23.854   4.512  14.474 -0.1109 -0.1786 -0.1013
 1541BOLB   PO236974  23.553   4.405  14.270 -0.0511  0.1712  0.4176
 1541BOLB   GL336975  23.256   4.302  14.554 -0.1112 -0.0951 -0.3095
 1541BOLB   GL436976  23.523   4.080  14.645 -0.0444  0.1792 -0.2340
 1541BOLB   C1C36977  22.890   4.461  14.846 -0.1058 -0.1412  0.2527
 1541BOLB   C2C36978  22.779   4.434  15.228 -0.3074 -0.1988  0.1348
 1541BOLB   C3C36979  22.758   4.203  15.626  0.4678 -0.1769 -0.0384
 1541BOLB   C4C36980  22.560   4.019  15.984  0.1640  0.1560 -0.1951
 1541BOLB   C1D36981  23.557   3.884  15.105 -0.2080  0.1685  0.1996
 1541BOLB   C2D36982  23.225   3.686  15.392 -0.3103  0.0259 -0.0143
 1541BOLB   C3D36983  23.148   3.759  15.860 -0.1548  0.0211  0.0991
 1541BOLB   C4D36984  23.240   4.148  16.050 -0.2411 -0.1362  0.0105
 1542BOLB   NC136985  22.525   6.161  21.329  0.2216 -0.0465 -0.2299
 1542BOLB   PO136986  22.891   6.486  21.071 -0.1405  0.4120 -0.2243
 1542BOLB   GL136987  23.124   6.711  20.877  0.0010  0.0644 -0.1258
 1542BOLB   GL236988  23.103   7.024  20.977 -0.1071 -0.4161  0.1197
 1542BOLB   C1A36989  23.377   6.846  20.483 -0.1838 -0.1494  0.0527
 1542BOLB   C2A36990  23.402   6.969  20.046 -0.0705  0.0735 -0.3048
 1542BOLB   C3A36991  23.687   6.963  19.789 -0.2828 -0.1575  0.1998
 1542BOLB   C4A36992  23.962   6.823  19.441 -0.3756  0.2181  0.1711
 1542BOLB   C1B36993  23.492   6.806  21.191  0.0473  0.2084  0.3815
 1542BOLB   C2B36994  23.865   6.876  21.277 -0.1508  0.1030 -0.0913
 1542BOLB   C3B36995  24.219   6.775  21.128 -0.2982  0.1538 -0.3759
 1542BOLB   C4B36996  24.457   6.458  21.126  0.4332  0.1182  0.2172
 1542BOLB   NC236997  25.977   7.272  18.495 -0.3353  0.1416  0.1197
 1542BOLB   PO236998  26.025   7.518  18.868 -0.3875 -0.1274 -0.1599
 1542BOLB   GL336999  25.630   7.270  18.872  0.0402  0.0355  0.3854
 1542BOLB   GL437000  25.372   7.481  18.773  0.1058 -0.1266 -0.2512
 1542BOLB   C1C37001  25.368   7.159  19.179 -0.1057 -0.2461  0.0821
 1542BOLB   C2C37002  25.052   6.895  19.098  0.2671  0.2312 -0.0842
 1542BOLB   C3C37003  24.651   6.811  19.065  0.1527  0.0542  0.0961
 1542BOLB   C4C37004  24.250   6.858  19.151  0.2349  0.0573 -0.0442
 1542BOLB   C1D37005  24.989   7.456  18.958  0.1215 -0.1737 -0.0099
 1542BOLB   C2D37006  24.617   7.408  19.287 -0.1090 -0.3548 -0.2188
 1542BOLB   C3D37007  24.500   7.220  19.647 -0.0625  0.1300 -0.4163
 1542BOLB   C4D37008  24.327   6.858  19.728  0.1366 -0.0878 -0.3083
 1543BOLB   NC137009  17.687   7.443  17.849  0.0264  0.1783 -0.1457
 1543BOLB   PO137010  17.769   7.058  17.784 -0.2026  0.2945 -0.2612
 1543BOLB   GL137011  17.947   7.222  17.442  0.0269 -0.1151  0.1243
 1543BOLB   GL237012  17.649   7.225  17.297  0.0478 -0.2188 -0.0471
 1543BOLB   C1A37013  18.207   7.416  17.146  0.0059 -0.1836  0.0343
 1543BOLB   C2A37014  18.414   7.609  16.805  0.0184  0.0113 -0.1767
 1543BOLB   C3A37015  18.694   7.834  16.605  0.1645  0.1403 -0.0744
 1543BOLB   C4A37016  18.734   8.233  16.518 -0.1537 -0.2947 -0.0145
 1543BOLB   C1B37017  17.738   7.599  17.149  0.2854  0.0054  0.0355
 1543BOLB   C2B37018  17.955   7.801  16.835  0.3723  0.3026 -0.1014
 1543BOLB   C3B37019  18.215   8.165  16.626  0.1398  0.1853 -0.0104
 1543BOLB   C4B37020  18.315   8.410  16.323 -0.2784 -0.0396 -0.0109
 1543BOLB   NC237021  19.516  10.211  15.058  0.0971 -0.1518  0.0252
 1543BOLB   PO237022  19.607   9.902  14.752 -0.0267  0.0258 -0.2995
 1543BOLB   GL337023  19.388   9.487  14.722  0.1846  0.0310  0.3517
 1543BOLB   GL437024  19.165   9.307  14.458  0.0364  0.0443 -0.1419
 1543BOLB   C1C37025  19.276   9.161  14.994 -0.0078 -0.0786  0.1091
 1543BOLB   C2C37026  19.079   8.991  15.396 -0.4017  0.1126 -0.0901
 1543BOLB   C3C37027  19.014   8.739  15.781  0.2415 -0.0420  0.0167
 1543BOLB   C4C37028  18.923   8.469  16.244 -0.0171  0.1892  0.1495
 1543BOLB   C1D37029  18.880   9.000  14.687 -0.0161  0.1312  0.2031
 1543BOLB   C2D37030  18.617   9.102  15.018 -0.0914  0.1665 -0.0181
 1543BOLB   C3D37031  18.412   8.927  15.389  0.0222  0.0711 -0.0197
 1543BOLB   C4D37032  18.291   8.679  15.760  0.3799 -0.3994 -0.3217
 1544BOLB   NC137033  12.555  -0.577  30.376  0.2715 -0.1318  0.2334
 1544BOLB   PO137034  12.525  -0.657  30.927  0.0626  0.2630  0.0815
 1544BOLB   GL137035  12.197  -0.921  31.143  0.2266  0.2378  0.0991
 1544BOLB   GL237036  11.937  -1.146  31.135  0.1270  0.1821  0.2113
 1544BOLB   C1A37037  12.242  -1.043  31.498  0.1574 -0.1699  0.0706
 1544BOLB   C2A37038  12.137  -1.375  31.849  0.1515  0.0279 -0.1780
 1544BOLB   C3A37039  11.917  -1.386  32.305  0.1611  0.2178 -0.1399
 1544BOLB   C4A37040  11.796  -1.618  32.663 -0.2523 -0.0113  0.0160
 1544BOLB   C1B37041  11.812  -1.290  31.461  0.3070 -0.2444 -0.0791
 1544BOLB   C2B37042  11.506  -1.520  31.396 -0.0236 -0.0116 -0.2686
 1544BOLB   C3B37043  11.026  -1.446  31.453  0.3150  0.1541  0.1589
 1544BOLB   C4B37044  10.667  -1.709  31.541 -0.1608  0.0777 -0.1506
 1544BOLB   NC237045  11.598  -2.802  34.721  0.1256 -0.0226  0.1207
 1544BOLB   PO237046  11.998  -2.735  34.492 -0.1719  0.0896  0.2544
 1544BOLB   GL337047  12.018  -2.332  34.290 -0.0612  0.0069 -0.1156
 1544BOLB   GL437048  12.071  -1.995  34.432 -0.1221 -0.4011  0.0065
 1544BOLB   C1C37049  11.892  -2.287  33.840 -0.1080  0.0977 -0.2492
 1544BOLB   C2C37050  11.696  -2.417  33.400 -0.2353  0.1692  0.1459
 1544BOLB   C3C37051  11.417  -2.238  33.013  0.2487 -0.3256  0.0338
 1544BOLB   C4C37052  11.573  -1.953  32.641  0.0446 -0.3123 -0.0589
 1544BOLB   C1D37053  12.186  -1.849  34.008 -0.1223  0.1036  0.2346
 1544BOLB   C2D37054  12.216  -1.600  33.664 -0.2077  0.0098  0.0702
 1544BOLB   C3D37055  12.130  -1.395  33.252 -0.1033  0.2631 -0.0148
 1544BOLB   C4D37056  11.974  -1.183  32.943  0.4049  0.1323  0.4526
 1545BOLB   NC137057   8.779   7.919  22.154  0.2671 -0.0269  0.1250
 1545BOLB   PO137058   8.642   7.720  22.646 -0.0981 -0.0807 -0.0433
 1545BOLB   GL137059   8.233   7.724  22.754  0.1586  0.0864  0.2844
 1545BOLB   GL237060   8.056   8.005  22.751  0.1276 -0.0001 -0.3344
 1545BOLB   C1A37061   7.953   7.546  22.502 -0.2467  0.0677  0.1204
 1545BOLB   C2A37062   7.559   7.570  22.136 -0.3543  0.2130  0.1385
 1545BOLB   C3A37063   7.113   7.687  21.927 -0.2422  0.0422 -0.0735
 1545BOLB   C4A37064   6.821   7.965  21.749  0.3678  0.3293 -0.0638
 1545BOLB   C1B37065   7.805   7.988  22.296 -0.1230  0.1115  0.1294
 1545BOLB   C2B37066   7.357   8.102  22.185 -0.0849 -0.1818  0.0431
 1545BOLB   C3B37067   7.073   8.558  22.042 -0.0021 -0.0836 -0.4061
 1545BOLB   C4B37068   6.764   8.819  21.978 -0.1299 -0.2447  0.2005
 1545BOLB   NC237069   4.184   8.149  20.096  0.0032 -0.1299  0.1988
 1545BOLB   PO237070   4.426   8.040  20.434  0.1586  0.0337 -0.1295
 1545BOLB   GL337071   4.925   8.101  20.548 -0.1929  0.0115 -0.3749
 1545BOLB   GL437072   5.019   7.826  20.412 -0.2150  0.3283 -0.4247
 1545BOLB   C1C37073   5.281   8.258  20.784 -0.1762  0.2061 -0.1841
 1545BOLB   C2C37074   5.582   8.204  21.120 -0.1426  0.0187 -0.1364
 1545BOLB   C3C37075   5.982   8.060  21.420  0.0930  0.2103 -0.1131
 1545BOLB   C4C37076   6.422   8.037  21.559  0.1005 -0.3958  0.0785
 1545BOLB   C1D37077   5.059   7.683  20.813 -0.1442 -0.0951  0.0009
 1545BOLB   C2D37078   5.463   7.738  20.978  0.1994  0.0166  0.0066
 1545BOLB   C3D37079   5.755   7.686  21.216 -0.2442  0.0631 -0.2915
 1545BOLB   C4D37080   6.202   7.620  21.323 -0.4373  0.0169  0.2160
 1546BOLB   NC137081  21.261   6.581  18.581  0.0408  0.5253 -0.1110
 1546BOLB   PO137082  21.127   6.430  18.207 -0.0194  0.0732 -0.1434
 1546BOLB   GL137083  21.356   6.463  17.795 -0.0539 -0.3565  0.0264
 1546BOLB   GL237084  21.517   6.210  17.641 -0.1607  0.3373  0.1914
 1546BOLB   C1A37085  21.424   6.694  17.466 -0.0652  0.3023  0.0186
 1546BOLB   C2A37086  21.689   6.840  17.118 -0.3976  0.1800  0.3124
 1546BOLB   C3A37087  21.943   6.625  16.883 -0.0308  0.0438  0.1881
 1546BOLB   C4A37088  22.163   6.519  16.546 -0.0236 -0.1720  0.2644
 1546BOLB   C1B37089  21.830   6.391  17.425  0.1635  0.2839  0.0440
 1546BOLB   C2B37090  22.101   6.731  17.328 -0.1420 -0.0754  0.1509
 1546BOLB   C3B37091  22.327   6.933  17.062  0.0124  0.0313  0.0008
 1546BOLB   C4B37092  22.554   7.280  16.946 -0.0434 -0.1000 -0.0427
 1546BOLB   NC237093  23.718   6.706  14.610 -0.0088 -0.0269 -0.0855
 1546BOLB   PO237094  23.420   7.141  14.598 -0.2620 -0.0202  0.0379
 1546BOLB   GL337095  23.416   7.014  15.034  0.0393 -0.3687 -0.2350
 1546BOLB   GL437096  23.235   7.318  15.248 -0.0889 -0.0479  0.0854
 1546BOLB   C1C37097  23.158   6.737  15.312 -0.1407 -0.1549  0.3162
 1546BOLB   C2C37098  22.957   6.546  15.683 -0.1503 -0.0348 -0.0723
 1546BOLB   C3C37099  22.535   6.500  15.810  0.0570 -0.0240  0.2130
 1546BOLB   C4C37100  22.248   6.572  16.179 -0.1675 -0.2970  0.4495
 1546BOLB   C1D37101  22.933   7.164  15.400 -0.2873  0.0805  0.1990
 1546BOLB   C2D37102  22.730   7.004  15.788 -0.2704  0.0456  0.1369
 1546BOLB   C3D37103  22.588   7.016  16.230  0.2230  0.4610  0.1433
 1546BOLB   C4D37104  22.334   7.034  16.551 -0.0136  0.2203 -0.0634
 1547BOLB   NC137105  13.558   7.655  18.677  0.0141 -0.0272 -0.2902
 1547BOLB   PO137106  13.423   8.046  18.544  0.0132  0.0252 -0.4953
 1547BOLB   GL137107  13.127   8.162  18.332 -0.4123  0.0789  0.1184
 1547BOLB   GL237108  13.166   7.928  18.080  0.0259 -0.3298 -0.0564
 1547BOLB   C1A37109  12.796   8.489  18.254 -0.0125  0.1108 -0.2489
 1547BOLB   C2A37110  12.440   8.663  18.055  0.2630 -0.1123  0.0832
 1547BOLB   C3A37111  12.037   8.825  17.946 -0.0277  0.1111 -0.0181
 1547BOLB   C4A37112  11.859   9.195  17.786 -0.0217 -0.2393 -0.1094
 1547BOLB   C1B37113  12.959   8.252  17.860 -0.1659  0.2276 -0.1025
 1547BOLB   C2B37114  12.834   8.510  17.704  0.1752  0.3094  0.1577
 1547BOLB   C3B37115  12.961   8.886  17.522 -0.0921 -0.0560  0.0963
 1547BOLB   C4B37116  13.038   9.217  17.189 -0.1623 -0.2048 -0.0432
 1547BOLB   NC237117  10.465  10.631  16.764 -0.0664 -0.0416 -0.0696
 1547BOLB   PO237118  10.765  10.928  16.582  0.0940 -0.1006 -0.0331
 1547BOLB   GL337119  11.044  10.608  16.716  0.1269  0.0158 -0.0936
 1547BOLB   GL437120  11.437  10.631  16.682  0.2818  0.2175 -0.1455
 1547BOLB   C1C37121  11.063  10.331  16.940 -0.0754  0.1316  0.0081
 1547BOLB   C2C37122  10.896   9.950  17.198 -0.1855 -0.0316 -0.1337
 1547BOLB   C3C37123  11.145   9.682  17.479  0.2097 -0.1081 -0.1740
 1547BOLB   C4C37124  11.433   9.305  17.517  0.3122 -0.0843  0.1530
 1547BOLB   C1D37125  11.578  10.241  16.867 -0.1424 -0.0266 -0.0023
 1547BOLB   C2D37126  11.822   9.898  16.790  0.0301 -0.1389 -0.1131
 1547BOLB   C3D37127  11.791   9.421  16.913 -0.0596 -0.4116  0.0384
 1547BOLB   C4D37128  11.472   9.079  16.965  0.1885  0.0108 -0.0648
 1548BOLB   NC137129  11.942  -3.132  26.701  0.1959 -0.0929 -0.2150
 1548BOLB   PO137130  11.752  -3.188  27.102  0.1311 -0.0166  0.2225
 1548BOLB   GL137131  11.851  -3.528  27.348  0.0750  0.1865 -0.2779
 1548BOLB   GL237132  12.005  -3.778  27.324 -0.0489 -0.0586 -0.1411
 1548BOLB   C1A37133  11.740  -3.683  27.820  0.0969 -0.2671  0.0646
 1548BOLB   C2A37134  11.444  -3.996  27.969  0.1886 -0.0233 -0.0276
 1548BOLB   C3A37135  11.134  -4.306  28.174 -0.2868 -0.0454  0.1166
 1548BOLB   C4A37136  10.969  -4.595  28.474 -0.3050  0.3746  0.2059
 1548BOLB   C1B37137  11.782  -4.104  27.561 -0.2074  0.0071 -0.1034
 1548BOLB   C2B37138  11.638  -4.430  27.912  0.0881  0.1211 -0.0345
 1548BOLB   C3B37139  11.647  -4.614  28.277  0.3262  0.2176  0.2215
 1548BOLB   C4B37140  11.618  -4.516  28.706 -0.0217  0.2752 -0.3768
 1548BOLB   NC237141   9.478  -6.488  28.278 -0.0811  0.2109  0.0452
 1548BOLB   PO237142   9.444  -6.318  28.660 -0.1599  0.1563  0.0868
 1548BOLB   GL337143   9.518  -5.954  28.410 -0.4057 -0.1084 -0.2575
 1548BOLB   GL437144   9.196  -5.836  28.362 -0.1146  0.1972 -0.4028
 1548BOLB   C1C37145   9.725  -5.586  28.422  0.1549 -0.0326  0.4803
 1548BOLB   C2C37146   9.932  -5.125  28.233 -0.1266 -0.4035 -0.0090
 1548BOLB   C3C37147  10.361  -5.082  28.345  0.1923 -0.0904  0.0213
 1548BOLB   C4C37148  10.642  -4.903  28.597 -0.0455 -0.1725  0.1026
 1548BOLB   C1D37149   9.111  -5.462  28.193  0.2452  0.0501  0.1905
 1548BOLB   C2D37150   8.891  -5.127  28.042  0.1019  0.3455  0.2241
 1548BOLB   C3D37151   8.685  -4.830  28.326  0.1515  0.0389 -0.1900
 1548BOLB   C4D37152   8.861  -4.999  28.686 -0.0491  0.0471  0.2266
 1549BOLB   NC137153  11.155   5.199  31.835  0.2278  0.0333 -0.1093
 1549BOLB   PO137154  11.039   5.619  31.926  0.1798 -0.0271  0.1325
 1549BOLB   GL137155  10.774   5.926  32.190 -0.1203 -0.0015  0.0906
 1549BOLB   GL237156  10.744   5.638  32.440 -0.2636  0.2139 -0.0894
 1549BOLB   C1A37157  10.509   6.103  32.385 -0.2849 -0.1033 -0.0231
 1549BOLB   C2A37158  10.241   6.397  32.650  0.5573  0.0380  0.1171
 1549BOLB   C3A37159   9.990   6.613  32.876  0.1076 -0.1151  0.0756
 1549BOLB   C4A37160   9.945   6.769  33.351  0.1001  0.0307  0.3252
 1549BOLB   C1B37161  10.292   5.673  32.571 -0.5643  0.1003 -0.0467
 1549BOLB   C2B37162   9.964   5.666  32.834  0.1186  0.1451 -0.1958
 1549BOLB   C3B37163   9.669   5.849  33.089  0.1635 -0.6106 -0.0831
 1549BOLB   C4B37164   9.295   5.777  33.316  0.1029 -0.0696 -0.1251
 1549BOLB   NC237165   9.229   6.092  35.702  0.0883  0.3129 -0.3287
 1549BOLB   PO237166   8.827   6.051  35.423  0.2374 -0.0712  0.1791
 1549BOLB   GL337167   9.009   6.218  35.057  0.0185  0.0707 -0.1702
 1549BOLB   GL437168   8.856   6.493  34.883 -0.1809  0.1840  0.2592
 1549BOLB   C1C37169   9.140   6.168  34.686  0.1511 -0.1423 -0.1332
 1549BOLB   C2C37170   9.397   6.247  34.418  0.3354 -0.1038 -0.1122
 1549BOLB   C3C37171   9.694   6.561  34.120  0.1930 -0.1063  0.1000
 1549BOLB   C4C37172   9.911   6.710  33.783  0.0266  0.0751 -0.1003
 1549BOLB   C1D37173   8.974   6.685  34.469  0.0533 -0.1525 -0.0548
 1549BOLB   C2D37174   8.972   6.904  34.111 -0.4104  0.0045 -0.0050
 1549BOLB   C3D37175   9.094   6.740  33.682 -0.1284 -0.1976 -0.0476
 1549BOLB   C4D37176   9.434   6.871  33.486  0.2494 -0.0672 -0.2224
 1550BOLB   NC137177   6.960   1.002  23.995 -0.0733  0.0032 -0.1989
 1550BOLB   PO137178   6.785   1.347  24.190  0.0350  0.1543  0.2213
 1550BOLB   GL137179   6.466   1.072  24.324  0.1065  0.0749  0.0418
 1550BOLB   GL237180   6.233   1.425  24.308  0.1834 -0.0101  0.3459
 1550BOLB   C1A37181   6.097   0.863  24.128  0.1497 -0.1329  0.3677
 1550BOLB   C2A37182   5.911   0.509  24.149 -0.1282 -0.3146  0.0750
 1550BOLB   C3A37183   5.962   0.195  24.233 -0.0523 -0.2766  0.1357
 1550BOLB   C4A37184   5.817  -0.198  24.458 -0.0978 -0.1351 -0.0765
 1550BOLB   C1B37185   5.921   1.613  24.260 -0.2680  0.1554  0.0518
 1550BOLB   C2B37186   5.537   1.403  24.203  0.3267  0.3423  0.5602
 1550BOLB   C3B37187   5.088   1.574  24.187  0.0334 -0.2552  0.0603
 1550BOLB   C4B37188   4.831   1.835  23.858  0.0063 -0.3306 -0.1375
 1550BOLB   NC237189   4.028  -1.869  24.458 -0.2495  0.2142  0.2059
 1550BOLB   PO237190   4.209  -2.087  24.181 -0.2887  0.0661  0.0327
 1550BOLB   GL337191   4.433  -1.735  24.187  0.1718  0.1521 -0.1564
 1550BOLB   GL437192   4.214  -1.557  24.135 -0.1483 -0.0752  0.2043
 1550BOLB   C1C37193   4.769  -1.450  24.485 -0.1923 -0.0682  0.1285
 1550BOLB   C2C37194   5.082  -1.191  24.432 -0.2716  0.0718 -0.1698
 1550BOLB   C3C37195   5.285  -0.781  24.551  0.0984  0.3145 -0.0424
 1550BOLB   C4C37196   5.621  -0.461  24.626  0.2115  0.2084 -0.0998
 1550BOLB   C1D37197   4.583  -1.254  24.002 -0.2423  0.3336  0.0949
 1550BOLB   C2D37198   4.893  -1.052  24.030 -0.0061 -0.3352  0.1572
 1550BOLB   C3D37199   5.226  -1.230  23.707 -0.0173  0.1429  0.2969
 1550BOLB   C4D37200   5.314  -1.351  23.342 -0.3641  0.1679 -0.0936
 1551BOLB   NC137201  21.573   4.197  32.264  0.0468 -0.1063 -0.1936
 1551BOLB   PO137202  21.135   4.375  32.341 -0.1749  0.3378 -0.0864
 1551BOLB   GL137203  21.333   4.256  32.724  0.0417 -0.1007  0.0194
 1551BOLB   GL237204  21.516   4.499  32.752  0.0532  0.1301 -0.0074
 1551BOLB   C1A37205  21.210   4.099  33.002 -0.0237 -0.0400 -0.1439
 1551BOLB   C2A37206  21.439   4.128  33.395 -0.0480 -0.3619  0.0350
 1551BOLB   C3A37207  21.851   4.007  33.615  0.1010 -0.1515 -0.3046
 1551BOLB   C4A37208  21.922   3.960  33.962  0.1031 -0.3815  0.0268
 1551BOLB   C1B37209  21.712   4.269  33.038 -0.1446  0.0096  0.2900
 1551BOLB   C2B37210  21.788   3.872  33.136  0.1969 -0.4033  0.1174
 1551BOLB   C3B37211  21.780   3.504  33.307 -0.2007  0.3647  0.3536
 1551BOLB   C4B37212  22.009   3.168  33.425 -0.1029  0.2371 -0.0588
 1551BOLB   NC237213  23.358   3.849  35.673 -0.0292  0.3225 -0.0336
 1551BOLB   PO237214  23.122   3.418  35.666  0.0174  0.1098  0.0130
 1551BOLB   GL337215  22.906   3.550  35.363 -0.0501  0.0941 -0.2215
 1551BOLB   GL437216  22.878   3.920  35.573 -0.2508  0.2017 -0.2893
 1551BOLB   C1C37217  22.494   3.747  35.246 -0.3945 -0.0395  0.0138
 1551BOLB   C2C37218  22.382   3.835  34.782 -0.1975 -0.0680  0.2837
 1551BOLB   C3C37219  22.474   3.994  34.490  0.1437  0.0487 -0.0705
 1551BOLB   C4C37220  22.291   4.135  34.144 -0.0508  0.0878 -0.1412
 1551BOLB   C1D37221  22.627   4.204  35.415 -0.0113  0.2969  0.4654
 1551BOLB   C2D37222  22.351   4.280  34.986  0.2796  0.0024  0.2461
 1551BOLB   C3D37223  22.082   4.209  34.664 -0.0800  0.2670 -0.0765
 1551BOLB   C4D37224  21.926   3.868  34.446 -0.0239 -0.1427  0.0291
 1552BOLB   NC137225  10.506   3.986  31.502 -0.2254  0.1803 -0.0224
 1552BOLB   PO137226  10.241   4.185  31.844 -0.3992 -0.1163 -0.0975
 1552BOLB   GL137227  10.029   4.211  32.214 -0.3788 -0.0602  0.6061
 1552BOLB   GL237228  10.000   4.603  32.193 -0.2386  0.1098 -0.1100
 1552BOLB   C1A37229   9.793   4.267  32.590 -0.0503 -0.1482  0.2401
 1552BOLB   C2A37230   9.599   3.881  32.686  0.1121 -0.2318  0.2906
 1552BOLB   C3A37231   9.208   3.866  32.820  0.0505 -0.0354  0.2118
 1552BOLB   C4A37232   8.928   4.069  33.113  0.3420 -0.2408  0.2266
 1552BOLB   C1B37233   9.766   4.772  32.633 -0.4589  0.2794  0.0813
 1552BOLB   C2B37234   9.888   4.705  33.070 -0.2423  0.1700 -0.1752
 1552BOLB   C3B37235   9.662   4.780  33.414 -0.0994 -0.3392  0.0880
 1552BOLB   C4B37236   9.591   5.043  33.719 -0.1840 -0.0223  0.1701
 1552BOLB   NC237237   8.035   3.137  35.097 -0.2779 -0.2015 -0.0055
 1552BOLB   PO237238   8.261   2.740  35.130 -0.1046  0.3039 -0.0605
 1552BOLB   GL337239   8.210   2.892  34.697 -0.2744 -0.0193  0.0998
 1552BOLB   GL437240   8.346   3.243  34.616 -0.0593  0.1293 -0.0628
 1552BOLB   C1C37241   7.875   3.129  34.364 -0.1334 -0.0048  0.1346
 1552BOLB   C2C37242   8.139   3.413  34.141 -0.1302  0.1696  0.1056
 1552BOLB   C3C37243   8.364   3.714  33.924  0.1390 -0.0115  0.0379
 1552BOLB   C4C37244   8.553   3.954  33.502 -0.0190 -0.1783  0.0713
 1552BOLB   C1D37245   8.421   2.972  34.217 -0.0196 -0.0242  0.0554
 1552BOLB   C2D37246   8.483   3.170  33.802  0.0640 -0.2066 -0.2005
 1552BOLB   C3D37247   8.493   3.099  33.364  0.1868  0.2046  0.0564
 1552BOLB   C4D37248   8.353   3.198  32.988  0.2381 -0.0929  0.3975
 1553BOLB   NC137249   8.665   6.934  22.189 -0.2577  0.3129  0.2722
 1553BOLB   PO137250   8.665   6.824  21.884  0.2986  0.1480  0.0855
 1553BOLB   GL137251   8.463   7.076  21.603  0.0606  0.1382 -0.0715
 1553BOLB   GL237252   8.245   6.914  21.439  0.0237 -0.2927 -0.0753
 1553BOLB   C1A37253   8.194   7.454  21.355  0.2852  0.1794  0.3034
 1553BOLB   C2A37254   7.878   7.765  21.297 -0.0082 -0.2291  0.3152
 1553BOLB   C3A37255   7.496   7.949  21.195  0.0873 -0.0143 -0.1554
 1553BOLB   C4A37256   7.073   7.937  21.022  0.0488 -0.0232 -0.2950
 1553BOLB   C1B37257   7.967   6.993  21.105  0.2366  0.0458  0.2727
 1553BOLB   C2B37258   7.803   7.087  20.558  0.0347  0.3457 -0.0612
 1553BOLB   C3B37259   7.506   7.263  20.337  0.2461 -0.3019 -0.1044
 1553BOLB   C4B37260   7.229   7.345  19.954  0.1972  0.1793 -0.1105
 1553BOLB   NC237261   5.428   9.630  20.509  0.3640 -0.1304  0.1466
 1553BOLB   PO237262   5.330   9.511  20.882 -0.0341 -0.1562 -0.1162
 1553BOLB   GL337263   5.683   9.239  20.884 -0.1100  0.1148 -0.2496
 1553BOLB   GL437264   5.945   9.390  21.074 -0.1527 -0.1187  0.0699
 1553BOLB   C1C37265   5.746   8.842  21.031  0.1873  0.2679 -0.2936
 1553BOLB   C2C37266   6.054   8.482  21.203 -0.2533 -0.3178 -0.0131
 1553BOLB   C3C37267   6.349   8.233  21.048 -0.4407  0.2698 -0.1517
 1553BOLB   C4C37268   6.740   8.148  21.142 -0.0562  0.0902 -0.0070
 1553BOLB   C1D37269   5.994   9.478  21.617 -0.1073  0.0951  0.0912
 1553BOLB   C2D37270   5.862   9.725  21.983  0.3388 -0.2132  0.1178
 1553BOLB   C3D37271   5.706  10.113  22.209  0.1528 -0.0685 -0.2347
 1553BOLB   C4D37272   5.606  10.445  22.563 -0.2289  0.0850  0.1283
 1554BOLB   NC137273  12.323   5.622  32.706 -0.0321 -0.4204  0.2432
 1554BOLB   PO137274  12.025   5.839  32.711  0.1928  0.2433  0.0432
 1554BOLB   GL137275  11.801   5.963  33.126 -0.0394  0.0362  0.0217
 1554BOLB   GL237276  11.448   5.851  33.077  0.2854  0.2260 -0.0046
 1554BOLB   C1A37277  11.545   6.219  33.312  0.0247 -0.0787 -0.0391
 1554BOLB   C2A37278  11.517   6.419  33.626  0.0372  0.0669 -0.3076
 1554BOLB   C3A37279  11.154   6.687  33.674  0.3106  0.0679 -0.0309
 1554BOLB   C4A37280  10.868   6.926  33.834  0.2880  0.0919  0.3170
 1554BOLB   C1B37281  11.229   5.916  33.534 -0.1113  0.4029  0.3945
 1554BOLB   C2B37282  11.016   5.910  33.969  0.1755 -0.2675 -0.3289
 1554BOLB   C3B37283  10.912   6.133  34.352 -0.0352 -0.0964  0.1169
 1554BOLB   C4B37284  10.871   6.228  34.810  0.0823 -0.0260 -0.1278
 1554BOLB   NC237285  10.128   7.509  36.006 -0.1737  0.1443 -0.1560
 1554BOLB   PO237286   9.830   7.877  35.990 -0.0730 -0.2564 -0.1019
 1554BOLB   GL337287   9.803   7.531  35.664 -0.4057 -0.2464 -0.0528
 1554BOLB   GL437288  10.104   7.379  35.555 -0.0742 -0.2034  0.0399
 1554BOLB   C1C37289   9.852   7.417  35.137  0.2380 -0.2959 -0.0549
 1554BOLB   C2C37290  10.149   7.274  34.739  0.0753 -0.0821 -0.1481
 1554BOLB   C3C37291  10.436   6.978  34.526 -0.2561  0.0812  0.1263
 1554BOLB   C4C37292  10.542   6.984  34.122 -0.0374  0.0022  0.0747
 1554BOLB   C1D37293  10.220   7.013  35.212  0.1425 -0.3678  0.1733
 1554BOLB   C2D37294  10.222   6.634  34.940 -0.0389  0.2497  0.2328
 1554BOLB   C3D37295  10.484   6.447  34.508 -0.0286  0.0950 -0.0880
 1554BOLB   C4D37296  10.250   6.583  34.203  0.0290 -0.0319  0.0680
 1555BOLB   NC137297  14.173  -3.536  26.135 -0.1462  0.0698 -0.0733
 1555BOLB   PO137298  13.896  -3.549  26.465 -0.0397 -0.2034  0.2118
 1555BOLB   GL137299  13.749  -3.910  26.699 -0.2570 -0.0428 -0.2400
 1555BOLB   GL237300  13.576  -3.849  26.908  0.0274 -0.1015  0.0710
 1555BOLB   C1A37301  13.460  -4.356  26.644 -0.1730  0.0578 -0.1192
 1555BOLB   C2A37302  13.126  -4.636  26.652 -0.2564 -0.0382  0.1304
 1555BOLB   C3A37303  13.042  -5.037  26.809  0.1573 -0.1286  0.2741
 1555BOLB   C4A37304  12.992  -5.409  26.667 -0.2348 -0.1013  0.0705
 1555BOLB   C1B37305  13.410  -4.207  27.138 -0.1171  0.2389 -0.1112
 1555BOLB   C2B37306  13.257  -4.406  27.366 -0.0129 -0.2373 -0.4050
 1555BOLB   C3B37307  13.065  -4.798  27.417 -0.3747 -0.0903 -0.3757
 1555BOLB   C4B37308  13.011  -5.293  27.252  0.0885  0.2446 -0.1699
 1555BOLB   NC237309  13.095  -7.270  28.078  0.0455  0.2232  0.0321
 1555BOLB   PO237310  12.688  -7.349  27.949 -0.0701 -0.0595  0.0286
 1555BOLB   GL337311  12.903  -7.204  27.617 -0.1518  0.1162 -0.0867
 1555BOLB   GL437312  13.190  -7.424  27.438  0.1756 -0.0696  0.3413
 1555BOLB   C1C37313  12.886  -6.866  27.422  0.2073 -0.0519 -0.1158
 1555BOLB   C2C37314  12.951  -6.547  27.371 -0.0178 -0.0728  0.2906
 1555BOLB   C3C37315  13.063  -6.282  26.992 -0.0197  0.4913  0.0650
 1555BOLB   C4C37316  13.240  -5.762  26.905  0.4673  0.2691  0.0323
 1555BOLB   C1D37317  13.296  -7.082  27.237 -0.1262  0.0210  0.0772
 1555BOLB   C2D37318  13.413  -6.617  27.141 -0.2040  0.0842  0.1064
 1555BOLB   C3D37319  13.535  -6.260  27.359 -0.0006 -0.0926 -0.1864
 1555BOLB   C4D37320  13.491  -5.762  27.381  0.0007 -0.1789 -0.0479
 1556BOLB   NC137321   8.261   0.790  26.908  0.1931  0.0245  0.2076
 1556BOLB   PO137322   7.880   0.822  27.185 -0.0001 -0.1977 -0.0137
 1556BOLB   GL137323   7.518   0.793  27.525  0.2110  0.0685 -0.1433
 1556BOLB   GL237324   7.270   0.964  27.251  0.0311 -0.2508 -0.1264
 1556BOLB   C1A37325   7.165   0.620  27.764 -0.0161  0.0816 -0.0360
 1556BOLB   C2A37326   6.686   0.645  27.911 -0.3699 -0.1581 -0.2397
 1556BOLB   C3A37327   6.305   0.433  27.873  0.3987 -0.1788  0.1045
 1556BOLB   C4A37328   5.923   0.284  27.500 -0.2565  0.1064 -0.1235
 1556BOLB   C1B37329   6.985   0.716  27.311  0.0091  0.1290  0.2483
 1556BOLB   C2B37330   6.591   0.471  27.420  0.1377  0.0019 -0.1907
 1556BOLB   C3B37331   6.340   0.188  27.215  0.2106 -0.2019  0.0740
 1556BOLB   C4B37332   6.326  -0.060  26.873 -0.4253  0.0375  0.4143
 1556BOLB   NC237333   3.581   0.039  27.774 -0.0639 -0.4302 -0.0770
 1556BOLB   PO237334   3.541  -0.245  27.331  0.1771 -0.0531  0.1903
 1556BOLB   GL337335   3.956  -0.220  27.173  0.0904 -0.2320  0.1214
 1556BOLB   GL437336   4.013  -0.223  26.845  0.2510  0.0732 -0.0979
 1556BOLB   C1C37337   4.294  -0.224  27.485 -0.2484  0.3303 -0.0343
 1556BOLB   C2C37338   4.650  -0.300  27.526 -0.0186  0.0656 -0.2965
 1556BOLB   C3C37339   5.118  -0.143  27.478  0.3810  0.1606 -0.2652
 1556BOLB   C4C37340   5.500   0.162  27.518  0.0089 -0.0088 -0.3419
 1556BOLB   C1D37341   4.164   0.055  26.609 -0.0361  0.0379  0.2355
 1556BOLB   C2D37342   4.331   0.478  26.587 -0.1229  0.0756  0.3192
 1556BOLB   C3D37343   4.709   0.571  26.791 -0.0522  0.2645 -0.2109
 1556BOLB   C4D37344   5.101   0.693  26.854 -0.4078  0.0984  0.2093
 1557BOLB   NC137345  10.796   9.204  21.208  0.3448  0.0438 -0.0221
 1557BOLB   PO137346  10.551   8.856  21.094  0.0282 -0.2267  0.2047
 1557BOLB   GL137347  10.479   9.082  20.724 -0.0163 -0.3360  0.2521
 1557BOLB   GL237348  10.262   9.414  20.822  0.2997  0.5293 -0.1796
 1557BOLB   C1A37349  10.474   9.452  20.393  0.0139 -0.1933  0.0148
 1557BOLB   C2A37350  10.172   9.621  20.258 -0.0423 -0.1644  0.1701
 1557BOLB   C3A37351  10.032   9.809  19.847  0.2158 -0.1149  0.1195
 1557BOLB   C4A37352  10.124  10.082  19.540 -0.2068  0.0209 -0.0390
 1557BOLB   C1B37353   9.890   9.693  20.703 -0.3187  0.1061  0.0846
 1557BOLB   C2B37354   9.751  10.159  20.831 -0.1822  0.2074 -0.3159
 1557BOLB   C3B37355  10.066  10.462  20.934  0.2451  0.0633  0.0113
 1557BOLB   C4B37356   9.873  10.846  21.083  0.0602  0.1950  0.1757
 1557BOLB   NC237357   9.406  10.686  17.325 -0.1076 -0.1351  0.1034
 1557BOLB   PO237358   9.521  11.050  17.680  0.1941 -0.1553  0.0025
 1557BOLB   GL337359   9.777  10.948  18.021 -0.1392  0.2673 -0.1265
 1557BOLB   GL437360  10.000  10.658  18.035 -0.0524  0.2453  0.1953
 1557BOLB   C1C37361   9.618  10.787  18.376  0.0640 -0.2010 -0.0584
 1557BOLB   C2C37362   9.532  10.360  18.581 -0.0004 -0.3235 -0.6022
 1557BOLB   C3C37363   9.907  10.170  18.777  0.0025  0.1445 -0.2547
 1557BOLB   C4C37364   9.909   9.959  19.255 -0.2617  0.0882  0.0705
 1557BOLB   C1D37365  10.160  10.435  18.396 -0.0927  0.1911 -0.1008
 1557BOLB   C2D37366  10.300  10.432  18.879 -0.0728  0.0236 -0.1184
 1557BOLB   C3D37367  10.293  10.478  19.262  0.1437 -0.1769 -0.2141
 1557BOLB   C4D37368  10.413  10.547  19.697 -0.0777 -0.1217  0.0100
 1558BOLB   NC137369   6.862   1.260  24.703  0.3592 -0.0360 -0.0630
 1558BOLB   PO137370   6.996   1.431  25.115 -0.0620  0.0981 -0.0342
 1558BOLB   GL137371   6.529   1.429  25.236 -0.2444 -0.0927  0.1551
 1558BOLB   GL237372   6.398   1.150  25.549 -0.1530 -0.1421 -0.0340
 1558BOLB   C1A37373   6.094   1.243  25.182 -0.0361 -0.0206 -0.0196
 1558BOLB   C2A37374   5.630   1.035  25.127 -0.3401 -0.1251 -0.0125
 1558BOLB   C3A37375   5.445   1.140  24.822 -0.1376 -0.0025 -0.3301
 1558BOLB   C4A37376   5.121   1.132  24.545 -0.0411  0.0917  0.0266
 1558BOLB   C1B37377   6.111   0.882  25.866  0.1680 -0.0949  0.0912
 1558BOLB   C2B37378   5.834   0.661  26.005  0.2994 -0.0548  0.0319
 1558BOLB   C3B37379   5.401   0.730  26.080 -0.2989  0.2862  0.4530
 1558BOLB   C4B37380   5.086   0.847  25.858  0.2071 -0.0065  0.1327
 1558BOLB   NC237381   2.527   1.961  25.042  0.0897  0.3844 -0.1376
 1558BOLB   PO237382   2.772   2.134  24.680  0.0276  0.2634  0.0147
 1558BOLB   GL337383   3.115   1.819  24.670 -0.0788 -0.3353 -0.2073
 1558BOLB   GL437384   3.051   1.797  24.992  0.2075 -0.1647 -0.1991
 1558BOLB   C1C37385   3.388   1.772  24.405 -0.2606 -0.5009  0.3373
 1558BOLB   C2C37386   3.852   1.674  24.511  0.0065  0.0672  0.0382
 1558BOLB   C3C37387   4.290   1.372  24.464 -0.2051  0.0247 -0.2201
 1558BOLB   C4C37388   4.682   1.235  24.367 -0.1326 -0.2227  0.0891
 1558BOLB   C1D37389   3.418   2.010  25.194  0.0586 -0.0590  0.1891
 1558BOLB   C2D37390   3.869   2.176  25.136 -0.0189  0.0271 -0.0611
 1558BOLB   C3D37391   4.217   2.018  25.315 -0.1026  0.0315  0.2783
 1558BOLB   C4D37392   4.701   1.968  25.284  0.1522 -0.0105  0.3199
 1559BOLB   NC137393  22.668   6.496  21.721 -0.1734  0.1280 -0.0381
 1559BOLB   PO137394  23.021   6.223  21.544 -0.2991  0.2334  0.1823
 1559BOLB   GL137395  23.392   6.322  21.380 -0.1197  0.0974  0.1705
 1559BOLB   GL237396  23.425   6.230  21.129  0.0475  0.1914 -0.2210
 1559BOLB   C1A37397  23.744   6.436  21.576  0.0259 -0.0090 -0.0157
 1559BOLB   C2A37398  24.086   6.691  21.690 -0.1390  0.0814 -0.1414
 1559BOLB   C3A37399  24.510   6.774  21.627 -0.4389  0.0929  0.0364
 1559BOLB   C4A37400  24.729   6.931  21.263  0.3387  0.0516 -0.1499
 1559BOLB   C1B37401  23.815   6.308  21.145 -0.3735  0.0155 -0.3022
 1559BOLB   C2B37402  24.152   5.998  21.129  0.1637 -0.1627  0.0842
 1559BOLB   C3B37403  24.414   5.707  21.339  0.1941  0.0809 -0.1811
 1559BOLB   C4B37404  24.833   5.713  21.561 -0.0937 -0.0870  0.1643
 1559BOLB   NC237405  26.016   7.865  19.221  0.0255  0.0406 -0.2916
 1559BOLB   PO237406  26.017   8.173  19.488 -0.1038  0.1488  0.0937
 1559BOLB   GL337407  25.685   7.771  19.621  0.2062  0.3007 -0.0200
 1559BOLB   GL437408  25.554   7.625  19.283 -0.2839 -0.0514  0.0086
 1559BOLB   C1C37409  25.526   7.605  20.018  0.0837 -0.1812  0.2428
 1559BOLB   C2C37410  25.058   7.502  20.175 -0.0856  0.1547  0.2094
 1559BOLB   C3C37411  24.771   7.423  20.570 -0.1014 -0.1212  0.0178
 1559BOLB   C4C37412  24.931   7.248  20.891  0.2766  0.0597 -0.1774
 1559BOLB   C1D37413  25.328   7.454  19.556 -0.1446 -0.0292 -0.1239
 1559BOLB   C2D37414  25.053   7.106  19.561  0.0111 -0.1279  0.0341
 1559BOLB   C3D37415  24.789   6.755  19.528  0.1059 -0.0138 -0.1917
 1559BOLB   C4D37416  24.811   6.394  19.307  0.1017 -0.4285 -0.1342
 1560BOLB   NC137417  17.024   8.743  19.097  0.2689  0.1052  0.0721
 1560BOLB   PO137418  16.820   9.054  19.027  0.0640 -0.0176  0.0281
 1560BOLB   GL137419  17.050   9.434  18.821  0.0420  0.1629 -0.3195
 1560BOLB   GL237420  17.097   9.692  19.025 -0.3862  0.2672 -0.0702
 1560BOLB   C1A37421  17.413   9.747  18.630  0.1089  0.1211 -0.0867
 1560BOLB   C2A37422  17.678   9.760  18.233 -0.0286  0.0451 -0.0588
 1560BOLB   C3A37423  17.713   9.972  17.858 -0.0311 -0.2678 -0.0139
 1560BOLB   C4A37424  17.603  10.205  17.554 -0.0665 -0.2239 -0.0187
 1560BOLB   C1B37425  17.024  10.139  19.103 -0.1226  0.0186  0.0326
 1560BOLB   C2B37426  17.109  10.564  18.996  0.1451 -0.0103  0.0600
 1560BOLB   C3B37427  16.757  10.939  18.793  0.0966 -0.2279  0.1541
 1560BOLB   C4B37428  16.501  11.317  18.714 -0.0638  0.2314 -0.3032
 1560BOLB   NC237429  18.062  11.340  14.987 -0.1088  0.0688  0.1381
 1560BOLB   PO237430  17.828  11.135  15.356  0.3134  0.2605  0.0511
 1560BOLB   GL337431  17.671  10.871  15.653  0.2377 -0.0303  0.0706
 1560BOLB   GL437432  17.542  11.004  15.999  0.1636  0.1513 -0.2254
 1560BOLB   C1C37433  17.453  10.513  15.906  0.3148 -0.2851 -0.1638
 1560BOLB   C2C37434  17.421  10.327  16.261  0.2018 -0.3007 -0.1731
 1560BOLB   C3C37435  17.413  10.297  16.765 -0.1696 -0.3014  0.0558
 1560BOLB   C4C37436  17.608  10.249  17.160 -0.0083  0.1327  0.0905
 1560BOLB   C1D37437  17.296  10.838  16.301  0.1466 -0.2349 -0.0382
 1560BOLB   C2D37438  17.451  10.728  16.593 -0.2058 -0.0210 -0.0882
 1560BOLB   C3D37439  17.338  10.748  17.070  0.0078  0.0109  0.2219
 1560BOLB   C4D37440  17.234  10.592  17.435  0.0211 -0.1695  0.2330
 1561BOLB   NC137441  14.032   7.310  17.647 -0.2892  0.2085 -0.2059
 1561BOLB   PO137442  13.938   7.718  17.827 -0.2882 -0.1092  0.2686
 1561BOLB   GL137443  13.971   7.773  17.403 -0.1422 -0.1658  0.2210
 1561BOLB   GL237444  13.672   7.476  17.320  0.0269 -0.0190  0.2394
 1561BOLB   C1A37445  13.823   8.140  17.348  0.3739 -0.1400 -0.0141
 1561BOLB   C2A37446  13.695   8.556  17.234 -0.0750 -0.2296  0.0955
 1561BOLB   C3A37447  13.397   8.778  16.895 -0.2513  0.2307  0.2252
 1561BOLB   C4A37448  12.948   8.949  16.731 -0.0658  0.0357  0.3866
 1561BOLB   C1B37449  13.496   7.845  17.146  0.2495 -0.3796  0.1865
 1561BOLB   C2B37450  13.393   8.222  17.050  0.0692 -0.1628 -0.1450
 1561BOLB   C3B37451  13.612   8.321  16.578  0.0319  0.4040 -0.0861
 1561BOLB   C4B37452  13.821   8.620  16.342 -0.0080 -0.0030  0.0422
 1561BOLB   NC237453  13.117  10.688  15.016  0.1052  0.1100  0.0268
 1561BOLB   PO237454  12.797  10.299  15.039 -0.0907  0.2872  0.0324
 1561BOLB   GL337455  12.688   9.972  15.265  0.2034  0.3224  0.0922
 1561BOLB   GL437456  12.699   9.690  15.052 -0.1190 -0.1293  0.0719
 1561BOLB   C1C37457  12.660   9.819  15.632  0.0705  0.0305 -0.0836
 1561BOLB   C2C37458  12.547   9.832  16.056  0.0200 -0.0772 -0.4086
 1561BOLB   C3C37459  12.586   9.632  16.435  0.0004  0.0320 -0.0903
 1561BOLB   C4C37460  12.850   9.330  16.708  0.0956  0.1450 -0.3963
 1561BOLB   C1D37461  12.902   9.472  15.361  0.1427 -0.2114  0.1714
 1561BOLB   C2D37462  12.878   9.402  15.808  0.0771  0.2654 -0.0132
 1561BOLB   C3D37463  13.005   9.649  16.075  0.0742  0.0480 -0.0230
 1561BOLB   C4D37464  13.400   9.596  16.296  0.1002 -0.1906 -0.1096
 1562BOLB   NC137465  18.896   9.802  20.416  0.0209  0.0756 -0.0375
 1562BOLB   PO137466  18.601   9.572  20.218 -0.0414  0.1216  0.1561
 1562BOLB   GL137467  18.646   9.795  19.930  0.2059  0.1626  0.0743
 1562BOLB   GL237468  18.958   9.786  19.757 -0.1439 -0.1823 -0.2178
 1562BOLB   C1A37469  18.625  10.241  19.781 -0.1126  0.0108 -0.0987
 1562BOLB   C2A37470  18.418  10.610  19.589 -0.1840  0.0688  0.1895
 1562BOLB   C3A37471  18.079  10.688  19.208  0.0025  0.1651 -0.0485
 1562BOLB   C4A37472  18.111  10.717  18.832 -0.1267  0.0071  0.0727
 1562BOLB   C1B37473  19.251  10.014  19.608  0.0206 -0.2240  0.0959
 1562BOLB   C2B37474  19.546  10.278  19.409 -0.0334  0.0941 -0.1442
 1562BOLB   C3B37475  19.702  10.587  19.160 -0.0531  0.3901 -0.0804
 1562BOLB   C4B37476  19.458  10.884  19.143 -0.1586  0.0608  0.0878
 1562BOLB   NC237477  18.144  12.831  17.400 -0.1915 -0.1255  0.4426
 1562BOLB   PO237478  18.320  12.554  17.155 -0.0037  0.2416  0.1292
 1562BOLB   GL337479  18.500  12.252  17.459  0.1942 -0.2256 -0.0042
 1562BOLB   GL437480  18.223  12.325  17.619  0.0538 -0.3017  0.1665
 1562BOLB   C1C37481  18.392  11.891  17.807  0.0257 -0.0472 -0.1782
 1562BOLB   C2C37482  18.375  11.834  18.257  0.0606 -0.0137 -0.2049
 1562BOLB   C3C37483  18.373  11.520  18.547 -0.5474 -0.0286  0.2899
 1562BOLB   C4C37484  18.115  11.076  18.668 -0.0246 -0.0166 -0.0740
 1562BOLB   C1D37485  18.567  12.379  17.960  0.1073 -0.2545  0.2107
 1562BOLB   C2D37486  18.762  11.999  18.082 -0.0314 -0.2470  0.0108
 1562BOLB   C3D37487  19.183  11.982  18.127  0.0345  0.2410  0.1194
 1562BOLB   C4D37488  19.290  11.777  18.478 -0.0458 -0.0521 -0.1377
 1563BOLB   NC137489  21.653   9.851  28.356  0.1065  0.3244  0.2278
 1563BOLB   PO137490  21.479   9.759  28.704 -0.2027  0.0405 -0.0345
 1563BOLB   GL137491  21.647  10.139  28.849  0.1892 -0.0544  0.1882
 1563BOLB   GL237492  21.698  10.376  28.545 -0.0320 -0.1873 -0.2528
 1563BOLB   C1A37493  22.141  10.287  28.988  0.1514  0.0447  0.0617
 1563BOLB   C2A37494  22.568  10.337  29.026  0.2192 -0.0106 -0.3086
 1563BOLB   C3A37495  22.798  10.627  29.189 -0.0143  0.4559 -0.0044
 1563BOLB   C4A37496  23.084  10.573  29.471  0.1256 -0.1564  0.0007
 1563BOLB   C1B37497  21.706  10.661  28.854 -0.6514  0.2595  0.1076
 1563BOLB   C2B37498  22.132  10.804  29.043  0.0469 -0.3332  0.1664
 1563BOLB   C3B37499  22.394  10.801  29.387 -0.1457  0.0998 -0.0662
 1563BOLB   C4B37500  22.241  10.719  29.715 -0.1379  0.0997 -0.0063
 1563BOLB   NC237501  24.365  11.941  30.472 -0.1243 -0.3294  0.1477
 1563BOLB   PO237502  24.555  11.690  30.869 -0.1594  0.1103 -0.0026
 1563BOLB   GL337503  24.234  11.454  30.622  0.3768  0.0755 -0.0447
 1563BOLB   GL437504  23.961  11.703  30.731  0.1212 -0.0477 -0.0378
 1563BOLB   C1C37505  24.065  10.943  30.683  0.3954 -0.0733  0.0544
 1563BOLB   C2C37506  23.772  10.744  30.444 -0.0856 -0.0042 -0.1748
 1563BOLB   C3C37507  23.739  10.835  30.005 -0.1164  0.0407 -0.2926
 1563BOLB   C4C37508  23.477  10.588  29.719  0.0534 -0.0057 -0.3492
 1563BOLB   C1D37509  23.704  11.364  30.643 -0.1770  0.0308  0.0772
 1563BOLB   C2D37510  23.417  11.073  30.352 -0.0895 -0.0639 -0.0721
 1563BOLB   C3D37511  23.184  10.984  30.059 -0.0135  0.0730  0.1695
 1563BOLB   C4D37512  22.996  11.219  29.914 -0.0907 -0.1894  0.0415
 1564BOLB   NC137513  20.124  11.503  24.612  0.3312 -0.0139 -0.5708
 1564BOLB   PO137514  20.385  11.217  24.413  0.2111 -0.1105 -0.1113
 1564BOLB   GL137515  20.422  11.558  24.228  0.1102  0.4898  0.2697
 1564BOLB   GL237516  20.241  11.880  24.241  0.2662  0.0711 -0.3057
 1564BOLB   C1A37517  20.718  11.849  24.165 -0.2721 -0.0794  0.0023
 1564BOLB   C2A37518  20.931  12.183  24.109  0.1032 -0.1230  0.0805
 1564BOLB   C3A37519  21.378  12.289  23.972  0.1535 -0.0341 -0.0776
 1564BOLB   C4A37520  21.833  12.473  24.045  0.0171 -0.0430  0.3118
 1564BOLB   C1B37521  20.418  12.272  24.234  0.1411  0.1596  0.1124
 1564BOLB   C2B37522  20.569  12.639  23.997 -0.0434  0.1170  0.1216
 1564BOLB   C3B37523  21.036  12.626  23.895 -0.2931  0.1454 -0.0243
 1564BOLB   C4B37524  21.379  12.837  23.890 -0.0362  0.0978 -0.2589
 1564BOLB   NC237525  22.635  14.234  22.737  0.0556  0.0718 -0.2012
 1564BOLB   PO237526  22.144  14.197  22.802 -0.3270 -0.0345 -0.0354
 1564BOLB   GL337527  21.863  13.840  22.820 -0.2909 -0.2077  0.0170
 1564BOLB   GL437528  21.804  13.734  22.560 -0.3150  0.0882  0.1836
 1564BOLB   C1C37529  21.580  13.601  23.076 -0.3398  0.0096 -0.0883
 1564BOLB   C2C37530  21.442  13.257  23.318 -0.1062  0.0200 -0.0652
 1564BOLB   C3C37531  21.702  13.088  23.606  0.0450 -0.1116 -0.0786
 1564BOLB   C4C37532  21.948  12.835  24.003 -0.0096 -0.4301 -0.0942
 1564BOLB   C1D37533  21.732  13.304  22.595  0.1009 -0.0137 -0.0017
 1564BOLB   C2D37534  21.473  12.984  22.823  0.1141  0.0286 -0.0417
 1564BOLB   C3D37535  21.137  12.698  22.796  0.3736  0.1645  0.3948
 1564BOLB   C4D37536  20.690  12.841  22.651 -0.0768 -0.4888 -0.0143
 1565BOLB   NC137537  20.675  10.645  23.546  0.0007 -0.3031 -0.0024
 1565BOLB   PO137538  20.905  10.743  23.216 -0.6323  0.2101 -0.1767
 1565BOLB   GL137539  20.883  11.207  23.401 -0.1561 -0.1226  0.1547
 1565BOLB   GL237540  20.633  11.348  23.467 -0.1637 -0.3264 -0.2446
 1565BOLB   C1A37541  20.958  11.646  23.301 -0.1405 -0.4931  0.3057
 1565BOLB   C2A37542  20.946  12.075  23.266  0.1130 -0.0356  0.1033
 1565BOLB   C3A37543  20.757  12.467  23.037  0.0665 -0.0881  0.1326
 1565BOLB   C4A37544  20.786  12.951  23.100  0.1144  0.1272 -0.0319
 1565BOLB   C1B37545  20.572  11.780  23.713 -0.2678 -0.4973 -0.2002
 1565BOLB   C2B37546  20.656  12.227  23.665  0.1090  0.0322  0.1089
 1565BOLB   C3B37547  20.740  12.612  23.505  0.1905  0.0922 -0.2294
 1565BOLB   C4B37548  21.143  12.907  23.467  0.1774  0.0009  0.2565
 1565BOLB   NC237549  20.507  14.620  21.463 -0.0564  0.1937  0.0815
 1565BOLB   PO237550  20.694  14.260  21.300 -0.4000  0.0503 -0.0287
 1565BOLB   GL337551  20.930  13.993  21.557  0.3510 -0.2757 -0.0990
 1565BOLB   GL437552  20.612  13.888  21.647 -0.2123 -0.2835  0.0764
 1565BOLB   C1C37553  21.064  13.848  21.976 -0.1248 -0.0825 -0.0140
 1565BOLB   C2C37554  21.265  13.778  22.298 -0.1611 -0.0029  0.1583
 1565BOLB   C3C37555  21.324  13.480  22.689 -0.0335 -0.2627 -0.5474
 1565BOLB   C4C37556  21.084  13.223  22.934 -0.0209  0.1503 -0.1010
 1565BOLB   C1D37557  20.241  14.084  21.808  0.4176 -0.1645 -0.1400
 1565BOLB   C2D37558  19.990  13.874  22.010  0.4167  0.4393 -0.1405
 1565BOLB   C3D37559  20.054  13.457  22.015 -0.1268  0.1045  0.1641
 1565BOLB   C4D37560  19.894  12.978  21.981 -0.1429 -0.5395  0.1078
 1566BOLB   NC137561  27.685   8.933  27.980 -0.1123  0.1129  0.3412
 1566BOLB   PO137562  27.654   9.111  27.499  0.2667  0.2951 -0.2406
 1566BOLB   GL137563  27.317   9.237  27.601 -0.1883 -0.0700  0.0470
 1566BOLB   GL237564  27.306   9.482  27.432 -0.2889  0.1912  0.2522
 1566BOLB   C1A37565  26.872   9.028  27.695 -0.3106  0.1426  0.2869
 1566BOLB   C2A37566  26.471   8.962  27.691 -0.5038  0.2497  0.0541
 1566BOLB   C3A37567  26.312   8.555  27.891  0.1910 -0.0635 -0.0267
 1566BOLB   C4A37568  26.423   8.284  28.254 -0.0657  0.2487  0.3860
 1566BOLB   C1B37569  26.920   9.316  27.219 -0.0080 -0.1606 -0.1332
 1566BOLB   C2B37570  26.689   9.175  26.935  0.1984 -0.2323 -0.2071
 1566BOLB   C3B37571  26.536   8.911  26.700  0.1213  0.0830  0.1041
 1566BOLB   C4B37572  26.280   8.532  26.770  0.0872  0.0472  0.2342
 1566BOLB   NC237573  27.890   8.884  29.398  0.2082 -0.1431 -0.1279
 1566BOLB   PO237574  27.652   9.088  29.062  0.0554  0.0752 -0.1962
 1566BOLB   GL337575  27.259   8.922  29.245  0.0719 -0.1615  0.2445
 1566BOLB   GL437576  27.440   8.743  29.393 -0.1134  0.0813  0.1886
 1566BOLB   C1C37577  26.875   8.710  29.095 -0.4071 -0.0225 -0.2213
 1566BOLB   C2C37578  26.753   8.389  29.120  0.0925 -0.1686  0.2002
 1566BOLB   C3C37579  26.588   8.098  28.889  0.0451 -0.1952 -0.0996
 1566BOLB   C4C37580  26.406   7.978  28.548 -0.1071 -0.1897 -0.0140
 1566BOLB   C1D37581  27.254   8.404  29.204 -0.1130 -0.0789  0.6306
 1566BOLB   C2D37582  27.047   8.068  28.899 -0.0920  0.2668 -0.0369
 1566BOLB   C3D37583  26.894   8.046  28.518 -0.2920  0.1685 -0.2076
 1566BOLB   C4D37584  26.886   8.011  28.168 -0.2162  0.0245 -0.0366
 1567BOLB   NC137585  11.182  11.285  24.673  0.1874 -0.1165  0.0348
 1567BOLB   PO137586  11.607  11.237  24.685 -0.0976 -0.1050 -0.1169
 1567BOLB   GL137587  11.439  11.688  24.542  0.0931  0.0581  0.1262
 1567BOLB   GL237588  11.155  11.791  24.810 -0.4608  0.1051 -0.1670
 1567BOLB   C1A37589  11.112  11.967  24.335 -0.3170 -0.2314  0.1297
 1567BOLB   C2A37590  10.729  12.249  24.138  0.1462 -0.2693 -0.2682
 1567BOLB   C3A37591  10.307  12.330  24.106 -0.3428  0.3077 -0.1344
 1567BOLB   C4A37592  10.209  12.592  23.851 -0.3449 -0.5094 -0.2244
 1567BOLB   C1B37593  11.293  12.280  24.650 -0.1360  0.0100  0.0111
 1567BOLB   C2B37594  11.212  12.628  24.833 -0.3617 -0.1053 -0.0216
 1567BOLB   C3B37595  11.209  12.953  24.619 -0.1109 -0.2479  0.2581
 1567BOLB   C4B37596  11.217  13.385  24.455  0.1640 -0.1184 -0.1346
 1567BOLB   NC237597   9.444  15.202  24.216  0.1578  0.2163 -0.0008
 1567BOLB   PO237598   9.206  14.847  24.084 -0.1438 -0.0021  0.2874
 1567BOLB   GL337599   9.258  14.379  24.038 -0.2377 -0.1958  0.0959
 1567BOLB   GL437600   9.382  14.420  24.375 -0.0996 -0.1231 -0.2768
 1567BOLB   C1C37601   9.319  13.941  23.779 -0.5015 -0.1395 -0.2074
 1567BOLB   C2C37602   9.588  13.620  23.903  0.0914  0.0405  0.0482
 1567BOLB   C3C37603   9.681  13.218  24.023  0.0213  0.0019 -0.2650
 1567BOLB   C4C37604   9.860  12.808  24.038  0.0637  0.1111  0.3337
 1567BOLB   C1D37605   9.664  14.213  24.664  0.2310 -0.4458 -0.1021
 1567BOLB   C2D37606   9.788  13.850  24.816  0.0967  0.2040  0.1331
 1567BOLB   C3D37607  10.111  13.542  24.903 -0.2291  0.0447  0.1243
 1567BOLB   C4D37608  10.334  13.439  25.171 -0.2971 -0.1517  0.1074
 1568BOLB   NC137609  10.258   0.573  19.318 -0.1689 -0.1266  0.6408
 1568BOLB   PO137610  10.583   0.666  19.031 -0.0374 -0.2006  0.0801
 1568BOLB   GL137611  10.299   0.465  18.714  0.1844  0.0019  0.4153
 1568BOLB   GL237612  10.269   0.087  18.588 -0.1901 -0.1289 -0.2127
 1568BOLB   C1A37613   9.881   0.435  18.458  0.0788  0.0320 -0.1380
 1568BOLB   C2A37614   9.522   0.545  18.090  0.1818  0.0471 -0.3190
 1568BOLB   C3A37615   9.263   0.508  17.804 -0.1980  0.4552 -0.1484
 1568BOLB   C4A37616   8.827   0.433  17.713  0.2024  0.1767 -0.1303
 1568BOLB   C1B37617  10.202  -0.247  18.427 -0.1881  0.0965 -0.1537
 1568BOLB   C2B37618   9.874  -0.540  18.334 -0.1497  0.0934  0.2649
 1568BOLB   C3B37619   9.854  -0.957  18.134 -0.1784  0.1498 -0.1729
 1568BOLB   C4B37620   9.718  -0.983  17.734 -0.1350 -0.3271  0.0518
 1568BOLB   NC237621   6.998  -1.170  17.084 -0.1254 -0.2219 -0.1350
 1568BOLB   PO237622   6.750  -1.019  17.450 -0.0154  0.0500 -0.3055
 1568BOLB   GL337623   7.216  -1.055  17.475  0.0553 -0.0550  0.4102
 1568BOLB   GL437624   7.379  -1.418  17.269 -0.1353 -0.0580  0.2112
 1568BOLB   C1C37625   7.592  -0.818  17.347  0.0536 -0.0318 -0.0899
 1568BOLB   C2C37626   8.007  -0.603  17.449 -0.0905 -0.0180 -0.0403
 1568BOLB   C3C37627   8.229  -0.216  17.418 -0.0776  0.0570  0.3618
 1568BOLB   C4C37628   8.519   0.148  17.507  0.0843 -0.0227 -0.2251
 1568BOLB   C1D37629   7.768  -1.300  17.308 -0.0477 -0.0143  0.0806
 1568BOLB   C2D37630   8.111  -1.164  17.407 -0.0116  0.0004  0.1969
 1568BOLB   C3D37631   8.557  -1.202  17.523  0.1602  0.0714 -0.0395
 1568BOLB   C4D37632   8.824  -1.176  17.901 -0.0442 -0.0442  0.1393
 1569BOLB   NC137633  24.478  -7.290  20.348 -0.1387  0.4105 -0.0934
 1569BOLB   PO137634  24.671  -6.949  20.059  0.1536 -0.1224 -0.0309
 1569BOLB   GL137635  24.275  -6.801  20.091 -0.0019 -0.0893  0.1467
 1569BOLB   GL237636  24.199  -6.431  20.112 -0.0448  0.0950  0.0643
 1569BOLB   C1A37637  23.950  -6.842  19.708  0.2450  0.2843  0.0408
 1569BOLB   C2A37638  23.693  -7.013  19.439  0.1775 -0.2023 -0.0489
 1569BOLB   C3A37639  23.282  -7.203  19.243 -0.1249  0.2076  0.2531
 1569BOLB   C4A37640  22.915  -7.162  19.252 -0.1862  0.0323 -0.0707
 1569BOLB   C1B37641  24.083  -6.352  19.675 -0.1641  0.3351  0.1012
 1569BOLB   C2B37642  23.745  -6.444  19.356  0.0460  0.3055 -0.0740
 1569BOLB   C3B37643  23.370  -6.348  19.005  0.0448 -0.1906 -0.2785
 1569BOLB   C4B37644  23.429  -6.513  18.580  0.1795 -0.4538  0.0730
 1569BOLB   NC237645  21.482  -9.376  19.513 -0.1596  0.2842  0.2652
 1569BOLB   PO237646  21.655  -9.022  19.274  0.2207  0.1718  0.0374
 1569BOLB   GL337647  21.713  -8.729  18.911 -0.0455 -0.1290 -0.2602
 1569BOLB   GL437648  21.569  -8.639  18.580 -0.0519  0.1029 -0.1966
 1569BOLB   C1C37649  21.780  -8.265  18.922 -0.1841 -0.2290  0.0453
 1569BOLB   C2C37650  22.186  -8.185  19.205  0.3412  0.0713  0.0709
 1569BOLB   C3C37651  22.595  -7.868  19.059  0.1868 -0.1908 -0.2454
 1569BOLB   C4C37652  22.645  -7.538  19.285  0.0219 -0.3692 -0.2882
 1569BOLB   C1D37653  21.941  -8.424  18.501  0.0554 -0.0567  0.2944
 1569BOLB   C2D37654  22.029  -8.043  18.394  0.1338 -0.0806  0.1721
 1569BOLB   C3D37655  22.005  -7.606  18.474  0.2211 -0.1175 -0.2466
 1569BOLB   C4D37656  22.368  -7.287  18.358  0.2889 -0.1236  0.1725
 1570BOLB   NC137657  15.135   1.141  32.534 -0.0234  0.0150 -0.0260
 1570BOLB   PO137658  14.838   1.178  32.881  0.1284  0.0485  0.1626
 1570BOLB   GL137659  14.474   0.894  33.065 -0.0814 -0.0103 -0.0921
 1570BOLB   GL237660  14.402   0.526  33.007  0.0125 -0.1702  0.0563
 1570BOLB   C1A37661  14.596   0.907  33.571  0.1605 -0.1403  0.0582
 1570BOLB   C2A37662  14.575   0.830  34.036  0.0859  0.1931 -0.3833
 1570BOLB   C3A37663  14.482   1.005  34.549  0.0107 -0.2484 -0.3153
 1570BOLB   C4A37664  14.443   1.055  34.971 -0.0405 -0.0010 -0.2195
 1570BOLB   C1B37665  14.288   0.562  33.439 -0.2482 -0.4390  0.1169
 1570BOLB   C2B37666  14.227   0.464  33.893 -0.0672 -0.2633 -0.2035
 1570BOLB   C3B37667  14.007   0.249  34.223  0.1381  0.1904 -0.0087
 1570BOLB   C4B37668  14.087   0.158  34.627  0.1596 -0.2793 -0.1843
 1570BOLB   NC237669  13.945  -0.193  36.766  0.1635 -0.0269  0.3794
 1570BOLB   PO237670  14.386  -0.196  36.823 -0.0080 -0.4376  0.1973
 1570BOLB   GL337671  14.253   0.096  36.528  0.0109 -0.0803  0.1353
 1570BOLB   GL437672  14.095  -0.065  36.286 -0.1360 -0.4479 -0.0699
 1570BOLB   C1C37673  14.273   0.417  36.178 -0.1199  0.2865 -0.1704
 1570BOLB   C2C37674  14.321   0.845  36.038 -0.0900  0.0292 -0.1911
 1570BOLB   C3C37675  14.173   1.182  35.770 -0.1699 -0.1977  0.0233
 1570BOLB   C4C37676  14.299   1.177  35.392  0.0583 -0.0436  0.0834
 1570BOLB   C1D37677  14.545  -0.006  35.984 -0.3671 -0.1842 -0.2250
 1570BOLB   C2D37678  14.743   0.053  35.537 -0.0810 -0.0986  0.2010
 1570BOLB   C3D37679  14.744   0.300  35.112  0.0767 -0.0601 -0.1566
 1570BOLB   C4D37680  14.801   0.665  34.808  0.0574 -0.1420  0.2646
 1571BOLB   NC137681  14.167   2.342  16.447  0.2879 -0.0906 -0.2156
 1571BOLB   PO137682  14.246   1.874  16.154 -0.2535 -0.4623  0.2374
 1571BOLB   GL137683  14.123   1.886  15.711  0.0438 -0.4722 -0.0026
 1571BOLB   GL237684  13.964   2.184  15.609 -0.2158 -0.5803  0.1912
 1571BOLB   C1A37685  13.778   1.748  15.515 -0.0953 -0.1565  0.1162
 1571BOLB   C2A37686  13.365   1.600  15.290 -0.1491 -0.1211  0.1906
 1571BOLB   C3A37687  13.024   1.516  15.380 -0.2757  0.0542  0.0090
 1571BOLB   C4A37688  12.703   1.505  15.104  0.3975 -0.2357  0.3022
 1571BOLB   C1B37689  14.401   2.246  15.303  0.1443  0.0574 -0.0642
 1571BOLB   C2B37690  14.705   2.206  14.983 -0.0489  0.1246  0.3292
 1571BOLB   C3B37691  15.113   2.271  15.045 -0.2676 -0.0589 -0.3513
 1571BOLB   C4B37692  15.548   2.177  14.976  0.1447  0.1861 -0.1790
 1571BOLB   NC237693  11.559   2.468  12.781 -0.3697  0.1796 -0.1425
 1571BOLB   PO237694  11.922   2.791  13.022  0.1875 -0.0493 -0.1314
 1571BOLB   GL337695  11.980   2.633  13.453 -0.3231  0.2741  0.1033
 1571BOLB   GL437696  11.722   2.587  13.428 -0.0430  0.0916  0.1111
 1571BOLB   C1C37697  12.004   2.408  13.848  0.0951  0.0964  0.2339
 1571BOLB   C2C37698  12.381   2.296  14.231 -0.1841  0.2293 -0.2007
 1571BOLB   C3C37699  12.384   1.983  14.557  0.0345 -0.0794  0.1527
 1571BOLB   C4C37700  12.480   1.807  14.907  0.0642 -0.2739 -0.3837
 1571BOLB   C1D37701  11.661   2.861  13.841 -0.0245 -0.0222  0.0130
 1571BOLB   C2D37702  11.612   2.631  14.150 -0.3324  0.0344 -0.1428
 1571BOLB   C3D37703  11.430   2.414  14.434  0.0027  0.0017  0.0070
 1571BOLB   C4D37704  11.231   2.343  14.915  0.2191 -0.2522 -0.2178
 1572BOLB   NC137705  23.273   5.775  30.036 -0.1404 -0.0567  0.1913
 1572BOLB   PO137706  23.530   6.193  29.903 -0.1548 -0.1151  0.0032
 1572BOLB   GL137707  23.920   6.236  29.859 -0.0979  0.1470  0.1402
 1572BOLB   GL237708  24.102   6.218  29.599 -0.0005 -0.1452  0.1697
 1572BOLB   C1A37709  24.315   6.215  30.032  0.2561 -0.1593 -0.2443
 1572BOLB   C2A37710  24.634   6.455  30.387  0.0589  0.1455  0.0665
 1572BOLB   C3A37711  24.823   6.485  30.681  0.0712 -0.0174  0.0927
 1572BOLB   C4A37712  25.070   6.490  31.045 -0.0031  0.1021 -0.1071
 1572BOLB   C1B37713  24.493   6.193  29.503 -0.0011  0.0555 -0.0716
 1572BOLB   C2B37714  24.759   6.517  29.725  0.0346  0.1711  0.2479
 1572BOLB   C3B37715  24.773   6.863  30.016  0.1367 -0.0075 -0.2822
 1572BOLB   C4B37716  25.050   6.831  30.427  0.0100  0.2773  0.0038
 1572BOLB   NC237717  26.952   7.077  32.532 -0.1954  0.2016 -0.2408
 1572BOLB   PO237718  26.968   6.726  32.494 -0.0965 -0.0601 -0.1704
 1572BOLB   GL337719  26.549   6.853  32.384  0.1086  0.0886  0.2587
 1572BOLB   GL437720  26.457   7.084  32.502 -0.1229  0.0050  0.2552
 1572BOLB   C1C37721  26.342   6.709  32.007  0.0903 -0.1512  0.0682
 1572BOLB   C2C37722  26.103   6.493  31.783 -0.0630  0.0579 -0.0059
 1572BOLB   C3C37723  25.692   6.422  31.575  0.1509 -0.1384  0.0159
 1572BOLB   C4C37724  25.283   6.516  31.426 -0.1032  0.0451 -0.0958
 1572BOLB   C1D37725  26.218   7.203  32.103 -0.3525 -0.0282  0.0825
 1572BOLB   C2D37726  25.998   7.446  31.803 -0.1402  0.0575  0.0252
 1572BOLB   C3D37727  25.570   7.426  31.737  0.1651  0.2615  0.2780
 1572BOLB   C4D37728  25.108   7.596  31.772 -0.1309  0.0528 -0.1894
 1573BOLB   NC137729  23.629   3.884  20.709 -0.1075 -0.1118 -0.1093
 1573BOLB   PO137730  23.413   3.610  20.360 -0.1690  0.2657  0.2395
 1573BOLB   GL137731  23.545   3.298  19.985  0.4182 -0.0089 -0.0910
 1573BOLB   GL237732  23.437   3.135  19.685  0.3320 -0.0037 -0.0454
 1573BOLB   C1A37733  23.941   3.324  19.606  0.5370 -0.0984  0.1470
 1573BOLB   C2A37734  24.314   3.496  19.322 -0.2462  0.2052 -0.2513
 1573BOLB   C3A37735  24.702   3.610  19.218 -0.0015 -0.2774 -0.1495
 1573BOLB   C4A37736  25.008   3.825  18.947  0.0547  0.2530 -0.1926
 1573BOLB   C1B37737  23.671   2.936  19.398  0.0501  0.2621  0.0847
 1573BOLB   C2B37738  24.019   2.921  18.987  0.0973 -0.1509 -0.1689
 1573BOLB   C3B37739  24.282   2.784  18.736  0.1182  0.3678 -0.0545
 1573BOLB   C4B37740  24.529   2.997  18.365  0.0857 -0.0105  0.4765
 1573BOLB   NC237741  27.047   4.022  17.179 -0.0518  0.1818 -0.2283
 1573BOLB   PO237742  27.085   3.740  17.540 -0.1242  0.1681 -0.0629
 1573BOLB   GL337743  26.928   3.785  18.004  0.0995  0.3068  0.1236
 1573BOLB   GL437744  26.595   4.071  18.019 -0.4056 -0.0272 -0.0109
 1573BOLB   C1C37745  26.623   3.595  18.175 -0.3121 -0.0540  0.1973
 1573BOLB   C2C37746  26.247   3.486  18.298 -0.1049  0.0918  0.3237
 1573BOLB   C3C37747  25.716   3.623  18.502 -0.2049 -0.0445  0.1722
 1573BOLB   C4C37748  25.374   3.757  18.714 -0.1393  0.1779  0.2055
 1573BOLB   C1D37749  26.224   3.765  17.873  0.3298  0.1844 -0.0349
 1573BOLB   C2D37750  25.854   3.590  18.024 -0.1740 -0.0942  0.2683
 1573BOLB   C3D37751  25.427   3.436  17.995  0.3440  0.1541  0.2523
 1573BOLB   C4D37752  25.110   3.224  18.110  0.3969 -0.1524  0.1064
 1574BOLB   NC137753  17.312  -9.769  17.165 -0.1129 -0.0700 -0.2574
 1574BOLB   PO137754  17.569  -9.517  17.336 -0.1919  0.5594  0.1857
 1574BOLB   GL137755  17.650  -9.047  17.481  0.2133 -0.3163 -0.0846
 1574BOLB   GL237756  17.369  -8.807  17.521 -0.2083 -0.1439 -0.3798
 1574BOLB   C1A37757  17.837  -8.635  17.344 -0.1412  0.1942  0.1817
 1574BOLB   C2A37758  17.801  -8.231  17.260 -0.0828 -0.0658  0.0673
 1574BOLB   C3A37759  17.829  -8.059  16.908  0.1014 -0.4554  0.0028
 1574BOLB   C4A37760  18.240  -8.085  16.646 -0.0110  0.0120 -0.0788
 1574BOLB   C1B37761  17.472  -8.418  17.697 -0.1428  0.0735  0.0248
 1574BOLB   C2B37762  17.572  -7.977  17.691 -0.1364  0.0878 -0.0266
 1574BOLB   C3B37763  17.462  -7.564  17.750 -0.2874  0.1670 -0.0688
 1574BOLB   C4B37764  17.423  -7.148  17.805  0.0362  0.2467  0.1191
 1574BOLB   NC237765  18.007  -9.384  14.722 -0.2373 -0.2851 -0.2357
 1574BOLB   PO237766  17.957  -9.486  15.155  0.0207  0.1934 -0.0157
 1574BOLB   GL337767  18.187  -9.213  15.466  0.0602  0.3863  0.3524
 1574BOLB   GL437768  18.014  -9.137  15.796 -0.1616  0.0162 -0.1819
 1574BOLB   C1C37769  18.343  -8.756  15.370  0.1687 -0.2065  0.1097
 1574BOLB   C2C37770  18.159  -8.414  15.585  0.3329  0.0263  0.1131
 1574BOLB   C3C37771  18.112  -8.141  15.918 -0.1453 -0.2899  0.2466
 1574BOLB   C4C37772  18.339  -8.145  16.292  0.3098 -0.0351  0.1440
 1574BOLB   C1D37773  18.095  -9.031  16.258 -0.1157  0.1662  0.0323
 1574BOLB   C2D37774  18.138  -8.788  16.666  0.0951 -0.4780 -0.0974
 1574BOLB   C3D37775  18.185  -8.462  16.986  0.2205 -0.2464  0.1322
 1574BOLB   C4D37776  18.234  -8.027  17.177 -0.2854 -0.0918  0.2458
 1575BOLB   NC137777  12.591  -7.131  17.060  0.1699  0.0594  0.0986
 1575BOLB   PO137778  12.677  -6.777  17.226  0.2240 -0.0128  0.1875
 1575BOLB   GL137779  12.831  -6.499  17.549  0.0264  0.2435  0.1447
 1575BOLB   GL237780  13.027  -6.642  17.795  0.0556 -0.2384  0.3177
 1575BOLB   C1A37781  12.840  -6.138  17.798  0.0877  0.1701 -0.2236
 1575BOLB   C2A37782  13.188  -5.894  17.954  0.1789  0.0154  0.0070
 1575BOLB   C3A37783  13.502  -5.563  18.127 -0.1265  0.2933  0.0188
 1575BOLB   C4A37784  13.901  -5.325  18.067  0.0755  0.1023 -0.0759
 1575BOLB   C1B37785  13.118  -6.296  18.233 -0.0302  0.2574 -0.1188
 1575BOLB   C2B37786  13.305  -5.995  18.590 -0.0369  0.4477  0.1239
 1575BOLB   C3B37787  13.597  -5.709  18.753 -0.0193 -0.0113  0.0394
 1575BOLB   C4B37788  13.839  -5.579  19.165  0.2083  0.1065  0.3386
 1575BOLB   NC237789  14.103  -7.308  17.479 -0.0082  0.0397 -0.0807
 1575BOLB   PO237790  14.490  -7.537  17.666  0.0931  0.1983  0.1079
 1575BOLB   GL337791  14.478  -7.080  17.700 -0.2622 -0.1537 -0.0316
 1575BOLB   GL437792  14.161  -6.999  17.884  0.0160 -0.1323 -0.0998
 1575BOLB   C1C37793  14.603  -6.716  17.821  0.0829  0.1254  0.0641
 1575BOLB   C2C37794  14.768  -6.289  17.863 -0.0968 -0.0414  0.0434
 1575BOLB   C3C37795  14.592  -5.881  17.701  0.0806 -0.1809 -0.0692
 1575BOLB   C4C37796  14.192  -5.638  17.885 -0.3751  0.0748 -0.1655
 1575BOLB   C1D37797  14.080  -6.980  18.302  0.0388 -0.2145 -0.1886
 1575BOLB   C2D37798  13.844  -6.809  18.603  0.0605  0.2314 -0.0897
 1575BOLB   C3D37799  13.778  -6.599  18.988 -0.0652  0.0828  0.3073
 1575BOLB   C4D37800  13.891  -6.798  19.487  0.0849  0.0965 -0.2488
 1576BOLB   NC137801  12.470  -0.690  17.815  0.1731 -0.2594  0.0858
 1576BOLB   PO137802  12.735  -1.051  17.760  0.0847  0.0145  0.1183
 1576BOLB   GL137803  12.547  -0.967  17.382  0.1062 -0.1400 -0.1974
 1576BOLB   GL237804  12.214  -1.060  17.353  0.0239 -0.0399  0.1720
 1576BOLB   C1A37805  12.439  -0.977  16.865 -0.2256 -0.0102  0.1425
 1576BOLB   C2A37806  12.149  -1.127  16.590  0.0447  0.1351 -0.2531
 1576BOLB   C3A37807  11.801  -0.979  16.501  0.0301  0.3227 -0.1165
 1576BOLB   C4A37808  11.445  -1.126  16.305 -0.1920 -0.1198 -0.1633
 1576BOLB   C1B37809  11.968  -1.450  17.163 -0.4768  0.1734 -0.1042
 1576BOLB   C2B37810  11.854  -1.855  16.896 -0.2567 -0.1268 -0.1383
 1576BOLB   C3B37811  11.775  -1.844  16.490  0.0551  0.0325 -0.2439
 1576BOLB   C4B37812  11.869  -1.974  15.997 -0.0957 -0.3022  0.1100
 1576BOLB   NC237813   9.614  -2.175  15.117  0.2976  0.2104 -0.1347
 1576BOLB   PO237814   9.843  -2.222  15.442 -0.3146 -0.3054 -0.1071
 1576BOLB   GL337815  10.066  -1.974  15.739 -0.1663  0.0388  0.0520
 1576BOLB   GL437816   9.834  -1.948  15.937  0.0991 -0.4594  0.0743
 1576BOLB   C1C37817  10.364  -1.983  16.173 -0.1967  0.0301 -0.1761
 1576BOLB   C2C37818  10.600  -1.908  16.659 -0.1329  0.2832  0.0299
 1576BOLB   C3C37819  10.952  -1.646  16.735 -0.0783  0.1414  0.1411
 1576BOLB   C4C37820  11.278  -1.483  16.490  0.0242  0.2260 -0.1010
 1576BOLB   C1D37821   9.934  -1.751  16.263  0.1587  0.1473  0.2860
 1576BOLB   C2D37822  10.086  -1.291  16.298  0.0243 -0.1270 -0.0465
 1576BOLB   C3D37823   9.753  -1.078  16.163 -0.3783  0.1718  0.2211
 1576BOLB   C4D37824   9.693  -0.901  15.754  0.0705  0.0960  0.1227
 1577BOLB   NC137825  22.449   3.122  18.662 -0.2200 -0.1470  0.3186
 1577BOLB   PO137826  22.570   3.566  18.651 -0.0760 -0.0762 -0.3658
 1577BOLB   GL137827  22.996   3.749  18.553 -0.0989  0.3594  0.1120
 1577BOLB   GL237828  23.113   3.700  18.861 -0.1511  0.0497 -0.0464
 1577BOLB   C1A37829  23.438   3.930  18.501 -0.1162 -0.4123  0.1643
 1577BOLB   C2A37830  23.535   4.259  18.277  0.0911 -0.2131  0.0062
 1577BOLB   C3A37831  23.830   4.307  18.080 -0.1502  0.1025  0.2175
 1577BOLB   C4A37832  24.040   4.342  17.650  0.0903  0.1198  0.0958
 1577BOLB   C1B37833  23.530   3.783  19.034  0.0073  0.0162 -0.0566
 1577BOLB   C2B37834  23.852   3.772  18.725 -0.1000 -0.0478 -0.2091
 1577BOLB   C3B37835  24.132   3.591  18.389  0.2458 -0.0632 -0.0497
 1577BOLB   C4B37836  24.207   3.406  17.939  0.3648  0.0403  0.2777
 1577BOLB   NC237837  25.379   4.380  15.374 -0.0270 -0.1128  0.0395
 1577BOLB   PO237838  25.515   4.666  15.728 -0.0084  0.1836 -0.3358
 1577BOLB   GL337839  25.161   4.838  15.982 -0.0448 -0.0267 -0.0576
 1577BOLB   GL437840  24.977   5.070  15.854 -0.1755 -0.0227 -0.1309
 1577BOLB   C1C37841  25.009   4.906  16.305  0.0847 -0.1007  0.1206
 1577BOLB   C2C37842  24.676   4.656  16.612 -0.1078 -0.0253  0.4485
 1577BOLB   C3C37843  24.317   4.648  16.869  0.0946  0.4356 -0.0365
 1577BOLB   C4C37844  24.124   4.508  17.309  0.1374 -0.0338 -0.2451
 1577BOLB   C1D37845  24.540   5.079  16.125 -0.3232 -0.0268 -0.2393
 1577BOLB   C2D37846  24.294   4.818  16.284 -0.3459 -0.1627 -0.1586
 1577BOLB   C3D37847  24.223   5.005  16.569  0.2270  0.0812  0.2064
 1577BOLB   C4D37848  23.985   4.983  17.114 -0.0491 -0.0300 -0.2303
 1578BOLB   NC137849  21.933  -1.842  25.865 -0.0895  0.0420  0.2497
 1578BOLB   PO137850  21.961  -1.522  25.495  0.1973 -0.0013 -0.1782
 1578BOLB   GL137851  22.410  -1.726  25.694 -0.0326 -0.1104 -0.0857
 1578BOLB   GL237852  22.668  -1.541  25.583 -0.2328 -0.1543 -0.1292
 1578BOLB   C1A37853  22.663  -2.026  25.777  0.0723 -0.2440 -0.3495
 1578BOLB   C2A37854  22.596  -2.482  25.848 -0.2423  0.1538  0.0575
 1578BOLB   C3A37855  22.516  -2.870  25.875  0.0544 -0.2595  0.0562
 1578BOLB   C4A37856  22.737  -3.302  25.999  0.2120 -0.0572  0.3707
 1578BOLB   C1B37857  23.031  -1.706  25.764  0.0432 -0.1220  0.0245
 1578BOLB   C2B37858  23.150  -1.988  25.529 -0.0681  0.3589 -0.5618
 1578BOLB   C3B37859  23.067  -2.412  25.750 -0.0605  0.0253 -0.1933
 1578BOLB   C4B37860  22.973  -2.885  25.676 -0.0228  0.1819  0.0802
 1578BOLB   NC237861  25.262  -5.077  26.309 -0.1107  0.2522  0.1552
 1578BOLB   PO237862  24.868  -4.824  26.381 -0.1803  0.0545 -0.0054
 1578BOLB   GL337863  24.456  -4.699  26.196  0.0528 -0.1954 -0.1118
 1578BOLB   GL437864  24.380  -4.777  25.798 -0.0098  0.0117  0.0148
 1578BOLB   C1C37865  24.030  -4.467  26.208 -0.0951  0.1448  0.0889
 1578BOLB   C2C37866  23.843  -4.093  26.004 -0.1036 -0.0045 -0.2906
 1578BOLB   C3C37867  23.532  -3.948  25.965 -0.0819 -0.1945  0.2593
 1578BOLB   C4C37868  23.067  -3.738  26.079 -0.3239  0.2688 -0.1677
 1578BOLB   C1D37869  24.451  -4.407  25.569 -0.2746 -0.2000  0.4051
 1578BOLB   C2D37870  24.522  -4.123  25.195  0.0338  0.3478 -0.0559
 1578BOLB   C3D37871  24.204  -3.750  25.189 -0.3856  0.1728  0.0439
 1578BOLB   C4D37872  24.116  -3.348  25.159  0.2619 -0.3424 -0.2246
 1579BOLB   NC137873  13.180  -2.461  28.843  0.0159  0.2134  0.1462
 1579BOLB   PO137874  12.793  -2.600  28.616 -0.1862  0.0221  0.0154
 1579BOLB   GL137875  12.840  -2.818  28.924  0.0875 -0.2636 -0.0138
 1579BOLB   GL237876  13.041  -2.990  29.026 -0.0736  0.0983  0.1306
 1579BOLB   C1A37877  12.484  -3.063  29.106 -0.0502 -0.2819 -0.0842
 1579BOLB   C2A37878  12.421  -3.493  29.324  0.2117  0.1413  0.1095
 1579BOLB   C3A37879  11.992  -3.747  29.424  0.2701 -0.1966  0.1682
 1579BOLB   C4A37880  11.828  -4.021  29.724  0.1297 -0.0628 -0.0062
 1579BOLB   C1B37881  12.909  -3.228  29.290 -0.1651  0.0467  0.3075
 1579BOLB   C2B37882  12.875  -3.578  29.292 -0.2130 -0.1501  0.4265
 1579BOLB   C3B37883  12.685  -3.905  29.510 -0.2117  0.1702  0.0628
 1579BOLB   C4B37884  12.842  -4.303  29.579 -0.3242 -0.2619 -0.3624
 1579BOLB   NC237885  10.732  -5.783  30.530 -0.1021 -0.1699  0.2702
 1579BOLB   PO237886  11.046  -6.072  30.568  0.1185  0.3844  0.1893
 1579BOLB   GL337887  11.176  -5.758  30.192  0.0866  0.1344 -0.0345
 1579BOLB   GL437888  11.424  -5.876  30.144 -0.0891  0.1926 -0.0613
 1579BOLB   C1C37889  11.187  -5.385  29.962 -0.0970 -0.0970 -0.1295
 1579BOLB   C2C37890  11.267  -4.968  29.804 -0.1300 -0.0291  0.1359
 1579BOLB   C3C37891  11.219  -4.614  29.926 -0.1340  0.0155  0.4810
 1579BOLB   C4C37892  11.442  -4.275  29.889 -0.0624  0.0424 -0.1242
 1579BOLB   C1D37893  11.706  -5.598  29.923  0.0272  0.2035 -0.3507
 1579BOLB   C2D37894  11.733  -5.197  29.859 -0.1149 -0.2515 -0.2616
 1579BOLB   C3D37895  12.022  -4.933  29.687  0.2155 -0.0357 -0.1503
 1579BOLB   C4D37896  11.916  -4.778  29.277 -0.4906 -0.1621  0.0623
 1580BOLB   NC137897   9.090   1.203  29.596  0.0290  0.0677 -0.1622
 1580BOLB   PO137898   8.898   0.857  29.725  0.1109 -0.0987  0.0910
 1580BOLB   GL137899   8.431   0.768  29.618  0.4465  0.0697 -0.0555
 1580BOLB   GL237900   8.506   0.712  29.341 -0.1951  0.0742 -0.1599
 1580BOLB   C1A37901   8.048   0.765  29.951  0.1363 -0.2485  0.1268
 1580BOLB   C2A37902   7.778   0.625  30.317  0.1059  0.0663  0.2408
 1580BOLB   C3A37903   7.377   0.476  30.527  0.1799  0.0850  0.0937
 1580BOLB   C4A37904   7.253   0.062  30.714 -0.2024  0.2088 -0.0826
 1580BOLB   C1B37905   8.083   0.540  29.377  0.0263 -0.1672  0.1117
 1580BOLB   C2B37906   7.961   0.251  29.544 -0.3455  0.0639  0.5339
 1580BOLB   C3B37907   7.652  -0.012  29.573  0.0067 -0.0257 -0.3063
 1580BOLB   C4B37908   7.425  -0.398  29.803  0.2689  0.1251 -0.2482
 1580BOLB   NC237909   5.713  -1.966  30.182  0.2076  0.1002  0.0179
 1580BOLB   PO237910   5.498  -1.873  30.583 -0.1362 -0.4464  0.1672
 1580BOLB   GL337911   5.680  -1.473  30.582 -0.0135  0.4919 -0.0965
 1580BOLB   GL437912   6.042  -1.609  30.607  0.4562 -0.1472 -0.1402
 1580BOLB   C1C37913   5.990  -1.168  30.337 -0.3309  0.1506 -0.1155
 1580BOLB   C2C37914   6.298  -0.874  30.224 -0.3549  0.1801  0.1691
 1580BOLB   C3C37915   6.711  -0.704  30.381  0.0761  0.0115  0.0232
 1580BOLB   C4C37916   7.055  -0.322  30.522  0.0344  0.1177 -0.0241
 1580BOLB   C1D37917   6.165  -1.238  30.828  0.3280 -0.3804  0.1118
 1580BOLB   C2D37918   6.351  -0.699  30.707  0.1526 -0.0514  0.0076
 1580BOLB   C3D37919   6.438  -0.335  30.810  0.1135 -0.1119  0.0045
 1580BOLB   C4D37920   6.739   0.070  30.771  0.0069 -0.0110 -0.1497
 1581BOLB   NC137921  16.153  -1.154  31.384  0.3269 -0.1174  0.0408
 1581BOLB   PO137922  16.217  -0.728  31.585  0.1478  0.0059 -0.0965
 1581BOLB   GL137923  15.990  -1.074  31.844 -0.1328  0.1435 -0.2698
 1581BOLB   GL237924  16.134  -1.476  31.792 -0.1930  0.0029  0.1367
 1581BOLB   C1A37925  15.942  -1.310  32.274 -0.2208 -0.2074 -0.0738
 1581BOLB   C2A37926  16.077  -1.573  32.593 -0.1036  0.0924 -0.1803
 1581BOLB   C3A37927  16.229  -1.868  32.760 -0.0496  0.1086  0.0678
 1581BOLB   C4A37928  16.651  -1.897  32.990  0.0134  0.2295  0.0377
 1581BOLB   C1B37929  16.321  -1.707  32.176 -0.0181 -0.2742 -0.0177
 1581BOLB   C2B37930  16.590  -2.087  31.921 -0.1674  0.1027  0.1583
 1581BOLB   C3B37931  16.681  -2.507  32.019 -0.1209  0.1415 -0.2987
 1581BOLB   C4B37932  16.464  -2.676  32.287 -0.0872 -0.2373 -0.1239
 1581BOLB   NC237933  16.923  -2.239  35.229 -0.2167  0.2939 -0.0847
 1581BOLB   PO237934  16.973  -2.638  35.076 -0.3657  0.0707  0.0359
 1581BOLB   GL337935  16.810  -2.389  34.765 -0.0819  0.0593 -0.3244
 1581BOLB   GL437936  16.532  -2.638  34.777  0.0337  0.2250  0.0467
 1581BOLB   C1C37937  16.669  -2.149  34.586 -0.1401  0.3070  0.3577
 1581BOLB   C2C37938  16.612  -2.062  34.232  0.0047  0.1136 -0.1505
 1581BOLB   C3C37939  16.830  -1.993  33.767  0.3876  0.0888  0.3169
 1581BOLB   C4C37940  16.764  -1.847  33.351  0.2846 -0.1810 -0.2744
 1581BOLB   C1D37941  16.495  -2.644  34.309 -0.0579 -0.2213  0.1378
 1581BOLB   C2D37942  16.897  -2.450  34.159  0.2001  0.1682 -0.1692
 1581BOLB   C3D37943  17.304  -2.254  34.015  0.1730 -0.0275 -0.2687
 1581BOLB   C4D37944  17.543  -2.286  33.668 -0.2357  0.0872 -0.0059
 1582BOLB   NC137945  19.547   9.194  30.403 -0.1722  0.0215 -0.0149
 1582BOLB   PO137946  19.914   9.449  30.546  0.0903 -0.5026 -0.2687
 1582BOLB   GL137947  20.398   9.502  30.580  0.0235 -0.0197  0.4895
 1582BOLB   GL237948  20.428   9.444  30.869  0.0669 -0.1160 -0.3488
 1582BOLB   C1A37949  20.850   9.616  30.765  0.1946  0.0326 -0.3354
 1582BOLB   C2A37950  20.870   9.858  31.107  0.0392 -0.0908 -0.0470
 1582BOLB   C3A37951  21.145  10.228  31.223  0.3887 -0.2454 -0.3952
 1582BOLB   C4A37952  21.515  10.152  31.502 -0.0517 -0.3898 -0.0986
 1582BOLB   C1B37953  20.412   9.793  31.174  0.1637 -0.1955 -0.1624
 1582BOLB   C2B37954  20.481  10.160  31.457 -0.0982 -0.1154 -0.1810
 1582BOLB   C3B37955  20.517  10.144  31.874  0.1484 -0.2953  0.1017
 1582BOLB   C4B37956  20.511  10.281  32.271  0.0751 -0.2240  0.0970
 1582BOLB   NC237957  21.862  11.321  33.677  0.2626 -0.2793  0.0691
 1582BOLB   PO237958  22.255  11.466  33.467 -0.3040  0.0702  0.0856
 1582BOLB   GL337959  22.298  11.119  33.152  0.0336 -0.0914  0.0180
 1582BOLB   GL437960  22.528  11.031  32.880  0.1017  0.0905  0.3087
 1582BOLB   C1C37961  21.983  11.001  32.789 -0.1370  0.1843 -0.1102
 1582BOLB   C2C37962  22.003  10.720  32.394  0.2085 -0.2139 -0.3138
 1582BOLB   C3C37963  21.967  10.365  32.245 -0.2224 -0.0570 -0.0697
 1582BOLB   C4C37964  21.843  10.096  31.869  0.0483 -0.2301 -0.2858
 1582BOLB   C1D37965  22.251  10.632  32.852  0.2129 -0.2078 -0.0584
 1582BOLB   C2D37966  22.299  10.311  32.634 -0.1230  0.0703  0.1172
 1582BOLB   C3D37967  22.300   9.856  32.606  0.2073 -0.2929 -0.0201
 1582BOLB   C4D37968  22.187   9.390  32.490  0.2561 -0.1415  0.0668
 1583BOLB   NC137969  22.768   8.130  23.174  0.0420  0.0070  0.0735
 1583BOLB   PO137970  22.878   8.507  22.873 -0.1092  0.1934 -0.1370
 1583BOLB   GL137971  23.175   8.672  22.898 -0.2713  0.1303 -0.1274
 1583BOLB   GL237972  23.267   8.684  22.576  0.0098 -0.0292  0.1737
 1583BOLB   C1A37973  23.614   8.735  23.127 -0.0531 -0.1013 -0.1056
 1583BOLB   C2A37974  24.008   8.897  23.164  0.1641  0.0344 -0.1383
 1583BOLB   C3A37975  24.406   8.831  23.374  0.1851 -0.1352 -0.3363
 1583BOLB   C4A37976  24.715   8.929  23.617  0.4440  0.0247  0.2521
 1583BOLB   C1B37977  23.516   9.039  22.444 -0.0414  0.0454 -0.3123
 1583BOLB   C2B37978  23.405   9.502  22.469  0.1841 -0.1314 -0.1456
 1583BOLB   C3B37979  23.590   9.850  22.475  0.0215  0.2491  0.2195
 1583BOLB   C4B37980  23.841  10.097  22.705  0.2357  0.0638 -0.1329
 1583BOLB   NC237981  27.417   9.403  23.779 -0.0163 -0.0866  0.1510
 1583BOLB   PO237982  27.303   9.657  23.447  0.0427  0.1969  0.0147
 1583BOLB   GL337983  26.864   9.490  23.564  0.0795 -0.1243 -0.1801
 1583BOLB   GL437984  26.872   9.195  23.642 -0.3984 -0.1640 -0.4140
 1583BOLB   C1C37985  26.378   9.496  23.411  0.0868  0.4268  0.1750
 1583BOLB   C2C37986  25.912   9.363  23.552 -0.1418 -0.1550 -0.0442
 1583BOLB   C3C37987  25.577   9.108  23.603  0.1628 -0.0907 -0.2051
 1583BOLB   C4C37988  25.113   9.036  23.780  0.0742 -0.0455  0.1562
 1583BOLB   C1D37989  26.430   9.014  23.585 -0.0295  0.0412  0.1608
 1583BOLB   C2D37990  26.008   8.903  23.680  0.3663 -0.1968  0.1455
 1583BOLB   C3D37991  25.625   8.623  23.607 -0.3314  0.1974  0.3596
 1583BOLB   C4D37992  25.139   8.530  23.505 -0.2758 -0.0356  0.0187
 1584BOLB   NC137993  23.718   0.452  22.040 -0.0993 -0.0223 -0.4204
 1584BOLB   PO137994  24.028   0.886  22.109  0.4559 -0.1221 -0.1839
 1584BOLB   GL137995  24.492   0.763  21.928  0.1900  0.1152 -0.1010
 1584BOLB   GL237996  24.521   0.536  21.913  0.0147  0.1090 -0.1825
 1584BOLB   C1A37997  24.809   0.934  22.039  0.1900  0.1565 -0.1037
 1584BOLB   C2A37998  25.193   0.990  22.094  0.0774 -0.0559  0.1247
 1584BOLB   C3A37999  25.597   1.035  21.929 -0.1991  0.0473  0.1873
 1584BOLB   C4A38000  25.990   1.073  21.893 -0.2351 -0.0475 -0.1457
 1584BOLB   C1B38001  24.885   0.568  21.696 -0.1626  0.2046  0.1439
 1584BOLB   C2B38002  25.256   0.865  21.533  0.0338  0.0261 -0.1559
 1584BOLB   C3B38003  25.677   0.792  21.447 -0.1347 -0.0121  0.1880
 1584BOLB   C4B38004  26.023   0.646  21.603  0.0777 -0.1799  0.2555
 1584BOLB   NC238005  27.969   0.119  21.443  0.2890 -0.2527 -0.0761
 1584BOLB   PO238006  28.029  -0.238  21.808  0.0128  0.0886  0.0034
 1584BOLB   GL338007  27.798   0.101  21.877  0.2088 -0.3428 -0.3694
 1584BOLB   GL438008  27.511  -0.010  22.173  0.1514 -0.4712  0.0702
 1584BOLB   C1C38009  27.583   0.461  21.963  0.6346 -0.0061 -0.2061
 1584BOLB   C2C38010  27.201   0.753  22.012  0.0414  0.1984 -0.0371
 1584BOLB   C3C38011  26.851   0.948  21.976  0.3032 -0.0660  0.1332
 1584BOLB   C4C38012  26.472   0.910  21.935  0.1005 -0.3257  0.3383
 1584BOLB   C1D38013  27.148   0.217  21.898 -0.2196 -0.1801 -0.0878
 1584BOLB   C2D38014  26.884   0.469  21.728  0.0033  0.0124 -0.0933
 1584BOLB   C3D38015  26.473   0.604  21.493 -0.3695 -0.0398  0.0623
 1584BOLB   C4D38016  26.332   0.893  21.310  0.2131  0.0801 -0.2085
 1585BOLB   NC138017  13.028   1.489  16.688 -0.0040 -0.3862 -0.0596
 1585BOLB   PO138018  13.332   1.645  16.312  0.0182  0.0659  0.0444
 1585BOLB   GL138019  13.177   1.988  16.012  0.0873  0.4221  0.1790
 1585BOLB   GL238020  12.933   2.234  16.136  0.3965 -0.0383  0.3459
 1585BOLB   C1A38021  13.211   2.057  15.566  0.0015 -0.2281  0.2001
 1585BOLB   C2A38022  13.477   2.021  15.159 -0.0622 -0.0515  0.1299
 1585BOLB   C3A38023  13.751   2.044  14.714 -0.0181 -0.0605  0.0805
 1585BOLB   C4A38024  14.095   1.905  14.340  0.1769  0.2625  0.2436
 1585BOLB   C1B38025  12.615   2.123  15.803  0.0995  0.2910 -0.1695
 1585BOLB   C2B38026  12.648   1.993  15.395  0.1395 -0.0260 -0.4016
 1585BOLB   C3B38027  12.941   1.909  15.005  0.0296  0.1045 -0.2527
 1585BOLB   C4B38028  13.338   1.738  14.832  0.4033  0.1774 -0.1697
 1585BOLB   NC238029  13.925   1.499  12.719  0.0407 -0.0159 -0.1245
 1585BOLB   PO238030  13.892   1.077  12.630  0.1067 -0.0158  0.0508
 1585BOLB   GL338031  14.231   1.055  12.846 -0.1939 -0.2333 -0.2426
 1585BOLB   GL438032  13.994   1.060  13.136 -0.3023 -0.1223  0.0635
 1585BOLB   C1C38033  14.365   1.459  13.126 -0.0412  0.4254  0.0626
 1585BOLB   C2C38034  14.658   1.581  13.455 -0.0273 -0.0073  0.0454
 1585BOLB   C3C38035  14.598   1.452  13.831 -0.1662  0.0237  0.0490
 1585BOLB   C4C38036  14.455   1.486  14.265  0.0037  0.2425 -0.2237
 1585BOLB   C1D38037  13.701   0.880  13.602 -0.0537  0.2036 -0.0834
 1585BOLB   C2D38038  13.552   1.032  14.041  0.2783 -0.1512 -0.2142
 1585BOLB   C3D38039  13.231   0.883  14.349 -0.1264  0.1421  0.0554
 1585BOLB   C4D38040  13.176   0.715  14.731 -0.3195 -0.0188  0.0113
 1586BOLB   NC138041  18.332  11.984  26.712 -0.1629  0.2518 -0.1681
 1586BOLB   PO138042  18.610  12.111  26.453 -0.2152  0.0937 -0.0926
 1586BOLB   GL138043  18.631  12.517  26.289  0.0192  0.2207 -0.1638
 1586BOLB   GL238044  18.517  12.668  26.601 -0.0299 -0.0923 -0.4287
 1586BOLB   C1A38045  18.807  12.883  26.071  0.2361  0.0366  0.1022
 1586BOLB   C2A38046  18.810  13.254  26.221 -0.1268  0.0730  0.3723
 1586BOLB   C3A38047  18.629  13.561  26.576 -0.0489  0.2770  0.0584
 1586BOLB   C4A38048  18.524  13.981  26.789  0.1178 -0.2492 -0.0318
 1586BOLB   C1B38049  18.438  13.062  26.727  0.0089  0.1106 -0.1062
 1586BOLB   C2B38050  18.495  13.378  27.073 -0.2301 -0.0315 -0.1700
 1586BOLB   C3B38051  18.703  13.423  27.373  0.0993 -0.0243  0.1238
 1586BOLB   C4B38052  18.838  13.726  27.692  0.0491  0.2858  0.0605
 1586BOLB   NC238053  19.017  16.198  27.890  0.3209  0.0589  0.0475
 1586BOLB   PO238054  18.697  16.014  27.556  0.3290 -0.1470  0.3936
 1586BOLB   GL338055  18.616  15.655  27.432  0.1544  0.0210  0.0433
 1586BOLB   GL438056  18.353  15.569  27.724 -0.1476  0.1482 -0.0082
 1586BOLB   C1C38057  18.316  15.420  27.202 -0.1829  0.1796  0.1070
 1586BOLB   C2C38058  18.294  15.030  27.098  0.2013  0.1705  0.0559
 1586BOLB   C3C38059  18.298  14.638  27.065 -0.1830 -0.3448 -0.3654
 1586BOLB   C4C38060  18.286  14.285  27.029 -0.0211 -0.2361  0.0804
 1586BOLB   C1D38061  18.136  15.201  27.648 -0.2541  0.1394 -0.1363
 1586BOLB   C2D38062  18.127  14.758  27.565 -0.1212  0.0977 -0.2839
 1586BOLB   C3D38063  18.210  14.265  27.568  0.2607 -0.0105 -0.0544
 1586BOLB   C4D38064  18.330  13.983  27.770  0.0113  0.1645  0.2436
 1587BOLB   NC138065  13.273  -2.627  19.093  0.1577  0.1565 -0.0423
 1587BOLB   PO138066  12.912  -2.395  19.193 -0.0044 -0.0045  0.1564
 1587BOLB   GL138067  12.856  -2.890  18.950 -0.0508 -0.1477 -0.0070
 1587BOLB   GL238068  12.975  -3.119  19.198 -0.1665  0.0436 -0.2204
 1587BOLB   C1A38069  12.863  -3.253  18.683 -0.0833  0.1085 -0.1462
 1587BOLB   C2A38070  12.664  -3.337  18.241 -0.0924 -0.0338 -0.2739
 1587BOLB   C3A38071  12.383  -3.586  18.010 -0.2082  0.2257 -0.0134
 1587BOLB   C4A38072  11.931  -3.673  18.120 -0.0681  0.0635  0.0218
 1587BOLB   C1B38073  12.745  -3.451  19.125 -0.2720 -0.1851  0.1611
 1587BOLB   C2B38074  12.652  -3.730  18.818 -0.1137  0.1501 -0.2655
 1587BOLB   C3B38075  12.359  -3.896  18.357  0.0919  0.0288 -0.1019
 1587BOLB   C4B38076  12.268  -4.068  18.008  0.0669 -0.1160 -0.0231
 1587BOLB   NC238077  10.914  -5.307  15.925  0.0716  0.2615 -0.4019
 1587BOLB   PO238078  11.116  -5.195  16.284  0.2529 -0.4902 -0.2014
 1587BOLB   GL338079  11.201  -4.907  16.612 -0.0050  0.0287 -0.1489
 1587BOLB   GL438080  10.933  -4.634  16.752  0.0264  0.2623 -0.1118
 1587BOLB   C1C38081  11.346  -4.588  17.008  0.4888 -0.2338 -0.0721
 1587BOLB   C2C38082  11.350  -4.206  17.227 -0.0960 -0.4511 -0.3448
 1587BOLB   C3C38083  11.382  -3.896  17.589 -0.2344  0.0631 -0.0131
 1587BOLB   C4C38084  11.560  -3.793  18.011  0.2009 -0.2131  0.2752
 1587BOLB   C1D38085  10.864  -5.037  16.979 -0.0922  0.0912  0.0457
 1587BOLB   C2D38086  11.108  -5.148  17.255 -0.1243  0.0276 -0.1180
 1587BOLB   C3D38087  11.442  -4.962  17.387 -0.3560 -0.2234 -0.3817
 1587BOLB   C4D38088  11.754  -4.655  17.268 -0.0815  0.1352  0.0677
 1588BOLB   NC138089  18.669  -3.334  27.371 -0.2257  0.4659 -0.0223
 1588BOLB   PO138090  18.998  -3.170  27.195  0.1622  0.1347  0.1715
 1588BOLB   GL138091  19.195  -3.542  27.432  0.1977  0.2022 -0.1979
 1588BOLB   GL238092  19.273  -3.817  27.309 -0.1670  0.0954  0.0467
 1588BOLB   C1A38093  19.565  -3.740  27.680 -0.1459  0.3238 -0.1724
 1588BOLB   C2A38094  19.916  -4.093  27.746  0.1332  0.0672 -0.0297
 1588BOLB   C3A38095  20.043  -4.118  28.086  0.1542 -0.1378  0.1900
 1588BOLB   C4A38096  20.272  -4.222  28.449  0.2287 -0.1929 -0.1707
 1588BOLB   C1B38097  19.274  -4.271  27.313  0.1192 -0.0593 -0.0088
 1588BOLB   C2B38098  19.386  -4.558  26.956 -0.2279 -0.0614  0.1915
 1588BOLB   C3B38099  19.729  -4.848  26.977 -0.0470  0.0786  0.0456
 1588BOLB   C4B38100  19.924  -5.068  26.721  0.1438  0.0786 -0.0538
 1588BOLB   NC238101  21.149  -6.353  29.029 -0.2761 -0.0329 -0.1719
 1588BOLB   PO238102  21.266  -6.223  28.554  0.2444  0.1456  0.6078
 1588BOLB   GL338103  21.063  -5.919  28.791  0.1153 -0.0591 -0.0146
 1588BOLB   GL438104  21.227  -5.653  28.578 -0.0296  0.1297  0.1458
 1588BOLB   C1C38105  20.742  -5.786  28.673 -0.1968 -0.3698  0.1383
 1588BOLB   C2C38106  20.533  -5.397  28.665  0.2435 -0.0362  0.2780
 1588BOLB   C3C38107  20.695  -4.967  28.616  0.1856 -0.2074  0.0438
 1588BOLB   C4C38108  20.500  -4.678  28.391  0.1282 -0.0490 -0.1359
 1588BOLB   C1D38109  20.975  -5.285  28.339 -0.0044 -0.0323  0.0582
 1588BOLB   C2D38110  20.862  -4.908  28.138  0.0348  0.2446 -0.4151
 1588BOLB   C3D38111  20.754  -4.747  27.762 -0.0638 -0.0695  0.0307
 1588BOLB   C4D38112  20.776  -4.303  27.518  0.0521  0.1104  0.2814
 1589BOLB   NC138113  11.122  11.405  28.589 -0.0103 -0.3025  0.2451
 1589BOLB   PO138114  11.238  11.506  28.102  0.1734 -0.1497 -0.1319
 1589BOLB   GL138115  10.902  11.904  28.019  0.0012  0.0803 -0.1101
 1589BOLB   GL238116  10.836  12.022  27.725  0.1035  0.2634  0.1490
 1589BOLB   C1A38117  10.863  12.336  28.150 -0.0594  0.5447 -0.0978
 1589BOLB   C2A38118  10.879  12.720  27.950 -0.1225  0.1785 -0.1076
 1589BOLB   C3A38119  10.578  12.845  27.583  0.1119  0.2477  0.0732
 1589BOLB   C4A38120  10.333  13.197  27.649  0.1325 -0.2572 -0.1024
 1589BOLB   C1B38121  10.850  12.405  27.539 -0.3276  0.0157  0.0603
 1589BOLB   C2B38122  11.047  12.760  27.354 -0.2388  0.2943 -0.2179
 1589BOLB   C3B38123  11.079  13.149  27.171 -0.0632 -0.1301  0.3849
 1589BOLB   C4B38124  10.840  13.494  27.331  0.0145 -0.0470  0.0047
 1589BOLB   NC238125   8.981  15.185  27.716 -0.0278 -0.1729 -0.0203
 1589BOLB   PO238126   8.742  15.296  27.322 -0.4091 -0.1076 -0.2640
 1589BOLB   GL338127   8.933  14.861  27.229 -0.2478 -0.0933  0.0633
 1589BOLB   GL438128   8.739  14.849  26.962 -0.1650  0.0450 -0.3151
 1589BOLB   C1C38129   9.258  14.571  27.307 -0.2634  0.0912  0.0659
 1589BOLB   C2C38130   9.555  14.302  27.575 -0.3472 -0.1289 -0.1039
 1589BOLB   C3C38131   9.880  14.000  27.693  0.1662 -0.1318 -0.1496
 1589BOLB   C4C38132  10.133  13.623  27.688 -0.0191  0.3169 -0.4703
 1589BOLB   C1D38133   9.094  14.834  26.744  0.0812  0.0995  0.1372
 1589BOLB   C2D38134   9.402  14.566  26.598  0.3811  0.1976  0.1674
 1589BOLB   C3D38135   9.770  14.297  26.535 -0.1766  0.0055 -0.0327
 1589BOLB   C4D38136   9.958  13.974  26.453 -0.2959  0.0379 -0.0366
 1590BOLB   NC138137   4.323  -1.175  28.721 -0.0540 -0.1735 -0.0695
 1590BOLB   PO138138   4.250  -1.558  28.720 -0.3464 -0.2336 -0.0451
 1590BOLB   GL138139   4.673  -1.407  28.506 -0.0562 -0.0316 -0.0781
 1590BOLB   GL238140   4.741  -1.458  28.207  0.1439  0.0717 -0.0871
 1590BOLB   C1A38141   5.084  -1.362  28.602  0.2070 -0.0781  0.1774
 1590BOLB   C2A38142   5.523  -1.241  28.349  0.0823 -0.1816  0.1552
 1590BOLB   C3A38143   5.834  -0.958  28.307  0.0932 -0.0882  0.1653
 1590BOLB   C4A38144   6.047  -0.615  28.496  0.0921  0.1394  0.1054
 1590BOLB   C1B38145   5.089  -1.224  28.114  0.3507  0.2454  0.0265
 1590BOLB   C2B38146   5.286  -0.826  28.038 -0.0786 -0.0551  0.1617
 1590BOLB   C3B38147   5.525  -0.533  27.764 -0.3770  0.0698 -0.1270
 1590BOLB   C4B38148   5.782  -0.213  27.599 -0.1161  0.0657 -0.0149
 1590BOLB   NC238149   5.154  -1.432  30.502  0.1831 -0.3014 -0.0259
 1590BOLB   PO238150   5.267  -1.073  30.267  0.1491 -0.1649  0.0244
 1590BOLB   GL338151   5.494  -0.885  30.088 -0.0256  0.2513  0.0769
 1590BOLB   GL438152   5.301  -0.568  30.035 -0.2262 -0.0473  0.3190
 1590BOLB   C1C38153   5.922  -0.858  29.837  0.2985  0.0929 -0.0740
 1590BOLB   C2C38154   6.241  -0.441  29.672 -0.0383  0.1148 -0.2694
 1590BOLB   C3C38155   6.333  -0.195  29.335 -0.0469  0.0037 -0.0511
 1590BOLB   C4C38156   6.185  -0.431  28.885 -0.3620  0.0014  0.0886
 1590BOLB   C1D38157   5.709  -0.398  29.894 -0.0134  0.1641  0.0551
 1590BOLB   C2D38158   5.832   0.010  29.637 -0.0961 -0.0748 -0.2121
 1590BOLB   C3D38159   6.080   0.296  29.458 -0.2830  0.0186  0.0887
 1590BOLB   C4D38160   6.320   0.659  29.339 -0.0359  0.1975 -0.2340
 1591BOLB   NC138161  12.603   7.096  32.569  0.0804  0.1203  0.1579
 1591BOLB   PO138162  12.186   7.401  32.633 -0.1631  0.3523  0.0587
 1591BOLB   GL138163  12.118   7.306  32.998 -0.3013  0.2030 -0.0052
 1591BOLB   GL238164  12.407   7.127  33.098 -0.1242 -0.4440  0.1848
 1591BOLB   C1A38165  11.945   7.477  33.315  0.1888  0.2647  0.2300
 1591BOLB   C2A38166  11.735   7.412  33.760 -0.3513  0.0220  0.1731
 1591BOLB   C3A38167  11.839   7.457  34.222 -0.0616  0.1842  0.5340
 1591BOLB   C4A38168  11.903   7.710  34.532  0.1838 -0.1232 -0.1634
 1591BOLB   C1B38169  12.315   7.257  33.517  0.0883 -0.1050  0.1979
 1591BOLB   C2B38170  12.212   7.219  33.900 -0.1363 -0.0333 -0.1424
 1591BOLB   C3B38171  12.175   7.042  34.322  0.0330 -0.0715  0.0864
 1591BOLB   C4B38172  12.003   7.023  34.783  0.2695 -0.0319  0.0125
 1591BOLB   NC238173  11.242   8.080  36.800  0.2250 -0.0753 -0.1452
 1591BOLB   PO238174  11.283   7.665  36.676 -0.2041 -0.0641  0.1844
 1591BOLB   GL338175  11.653   7.587  36.524  0.1292  0.3551  0.1080
 1591BOLB   GL438176  11.919   7.799  36.540  0.0295  0.0287  0.2466
 1591BOLB   C1C38177  11.693   7.493  36.119  0.0610  0.0985 -0.0612
 1591BOLB   C2C38178  11.626   7.724  35.696 -0.2451 -0.0774  0.0141
 1591BOLB   C3C38179  11.638   7.948  35.309  0.2843 -0.3198 -0.2043
 1591BOLB   C4C38180  11.771   7.816  34.950 -0.0732 -0.2569 -0.0013
 1591BOLB   C1D38181  12.231   7.698  36.377 -0.0818 -0.2041 -0.1681
 1591BOLB   C2D38182  12.370   7.583  36.013  0.1581 -0.3308 -0.2203
 1591BOLB   C3D38183  12.469   7.551  35.622  0.1607 -0.0277  0.0554
 1591BOLB   C4D38184  12.770   7.863  35.359  0.2429 -0.0917  0.0692
 1592BOLB   NC138185  23.655   8.406  28.026 -0.0339 -0.2950  0.0765
 1592BOLB   PO138186  23.544   8.755  27.796  0.0141  0.0739  0.0926
 1592BOLB   GL138187  23.729   8.979  27.883  0.2564 -0.1871 -0.2018
 1592BOLB   GL238188  23.756   9.034  28.185 -0.2072  0.1100 -0.0656
 1592BOLB   C1A38189  23.835   9.439  27.848  0.0311 -0.0413 -0.1114
 1592BOLB   C2A38190  23.720   9.841  28.016  0.1101 -0.0492 -0.0537
 1592BOLB   C3A38191  23.721  10.218  28.205  0.0230 -0.1268 -0.0923
 1592BOLB   C4A38192  23.951  10.527  28.406 -0.3009 -0.2853 -0.1097
 1592BOLB   C1B38193  24.166   8.841  28.203 -0.0304 -0.1457 -0.0232
 1592BOLB   C2B38194  24.481   8.428  28.053 -0.2141 -0.0775  0.4217
 1592BOLB   C3B38195  24.943   8.434  28.165 -0.1229  0.0522  0.1531
 1592BOLB   C4B38196  25.147   8.739  28.265  0.0357  0.1447  0.0479
 1592BOLB   NC238197  25.749  11.292  29.583 -0.0745  0.1810  0.0919
 1592BOLB   PO238198  25.997  10.884  29.485  0.2054 -0.1941 -0.0745
 1592BOLB   GL338199  25.937  10.608  29.163 -0.2273  0.1958 -0.1381
 1592BOLB   GL438200  26.126  10.368  29.121  0.0783 -0.0584 -0.2115
 1592BOLB   C1C38201  25.583  10.431  28.957  0.0960  0.0442  0.0861
 1592BOLB   C2C38202  25.170  10.194  29.028  0.0872  0.0980 -0.4166
 1592BOLB   C3C38203  24.820  10.237  28.922  0.2682 -0.0364  0.2630
 1592BOLB   C4C38204  24.364  10.487  28.719 -0.2918  0.1650 -0.0191
 1592BOLB   C1D38205  26.128   9.929  29.333 -0.3816 -0.1894  0.0087
 1592BOLB   C2D38206  25.910   9.541  29.331 -0.1092  0.1423 -0.1743
 1592BOLB   C3D38207  25.572   9.319  29.416 -0.2200 -0.1471 -0.0660
 1592BOLB   C4D38208  25.275   8.980  29.302 -0.1850  0.2760 -0.0642
 1593BOLB   NC138209  19.330   7.822  18.910 -0.1203 -0.0685  0.3031
 1593BOLB   PO138210  19.500   7.745  18.620 -0.0354  0.1117  0.0198
 1593BOLB   GL138211  19.802   7.869  18.282 -0.1518 -0.0862  0.0174
 1593BOLB   GL238212  20.124   7.810  18.163  0.0206 -0.0355 -0.4099
 1593BOLB   C1A38213  19.978   8.222  17.989  0.0036  0.1664  0.0222
 1593BOLB   C2A38214  19.968   8.575  17.766 -0.1822 -0.1643  0.2747
 1593BOLB   C3A38215  20.171   8.868  17.621  0.1983  0.1281  0.1870
 1593BOLB   C4A38216  20.006   9.325  17.462  0.1215  0.3784  0.0985
 1593BOLB   C1B38217  20.207   7.840  17.714 -0.0810 -0.3887  0.2452
 1593BOLB   C2B38218  20.393   8.200  17.481  0.0604  0.1829  0.3911
 1593BOLB   C3B38219  20.305   8.469  17.358  0.0076  0.3526  0.3154
 1593BOLB   C4B38220  19.850   8.572  17.244 -0.0144  0.0403  0.1902
 1593BOLB   NC238221  19.799  11.220  15.853 -0.0251  0.0524  0.0020
 1593BOLB   PO238222  19.453  10.960  15.901  0.0341 -0.3019  0.0686
 1593BOLB   GL338223  19.437  10.556  16.148 -0.2289  0.1719  0.0565
 1593BOLB   GL438224  19.643  10.255  16.106  0.0536 -0.0477  0.2952
 1593BOLB   C1C38225  19.449  10.508  16.593  0.1385 -0.1040 -0.3660
 1593BOLB   C2C38226  19.564  10.218  16.989  0.0159  0.1149 -0.2093
 1593BOLB   C3C38227  19.828   9.937  17.073  0.1647  0.0004 -0.0098
 1593BOLB   C4C38228  19.874   9.596  17.134 -0.3728  0.0241  0.2205
 1593BOLB   C1D38229  19.376   9.983  16.164  0.2103  0.1920  0.3219
 1593BOLB   C2D38230  19.047   9.649  16.280 -0.3050  0.0578  0.0435
 1593BOLB   C3D38231  19.118   9.348  16.728 -0.3378 -0.0450  0.2228
 1593BOLB   C4D38232  19.475   9.357  16.978  0.2865  0.2695  0.2072
 1594BOLB   NC138233  24.829   1.240  25.935 -0.1172 -0.1588  0.1100
 1594BOLB   PO138234  24.734   1.000  25.528 -0.1984 -0.1794 -0.0638
 1594BOLB   GL138235  25.108   0.783  25.210  0.0147  0.1232 -0.2328
 1594BOLB   GL238236  24.943   0.442  25.217  0.1275  0.0465 -0.4606
 1594BOLB   C1A38237  25.426   0.649  25.035  0.1403  0.2265 -0.1053
 1594BOLB   C2A38238  25.745   0.361  24.836  0.1320 -0.1222  0.0029
 1594BOLB   C3A38239  26.103   0.362  24.548  0.0566  0.1415 -0.3096
 1594BOLB   C4A38240  26.322   0.425  24.059  0.3155  0.3440  0.1502
 1594BOLB   C1B38241  25.356   0.085  25.176 -0.3923  0.0465 -0.2174
 1594BOLB   C2B38242  25.828  -0.153  25.358 -0.1293 -0.0560 -0.2014
 1594BOLB   C3B38243  26.128   0.011  25.723 -0.2445  0.3000  0.1411
 1594BOLB   C4B38244  26.094  -0.028  26.200  0.2408  0.0465  0.1780
 1594BOLB   NC238245  28.302  -1.009  23.438 -0.2861 -0.3468  0.0531
 1594BOLB   PO238246  27.929  -0.779  23.226  0.0044 -0.1868  0.0773
 1594BOLB   GL338247  27.557  -0.852  23.108 -0.1261 -0.1509 -0.0872
 1594BOLB   GL438248  27.378  -0.613  22.843  0.1012  0.0186  0.0389
 1594BOLB   C1C38249  27.193  -0.812  23.246  0.0284 -0.1059 -0.2142
 1594BOLB   C2C38250  26.772  -0.667  23.332 -0.2084  0.0964 -0.3311
 1594BOLB   C3C38251  26.563  -0.211  23.518 -0.1958  0.1994  0.2184
 1594BOLB   C4C38252  26.481   0.158  23.801  0.1313  0.1260  0.0243
 1594BOLB   C1D38253  27.000  -0.297  23.027 -0.1287 -0.0722  0.0203
 1594BOLB   C2D38254  26.852   0.063  23.206  0.0875  0.5224  0.3682
 1594BOLB   C3D38255  26.996   0.187  23.732 -0.3277 -0.2361  0.4979
 1594BOLB   C4D38256  26.828   0.276  24.157 -0.0220  0.2237 -0.0087
 1595BOLB   NC138257  15.753   7.229  33.766  0.2415 -0.0581  0.2029
 1595BOLB   PO138258  15.406   7.047  33.780 -0.3242 -0.0465  0.0214
 1595BOLB   GL138259  15.503   7.047  34.189 -0.0409 -0.0513 -0.1519
 1595BOLB   GL238260  15.864   7.165  34.304  0.1664  0.0264 -0.0015
 1595BOLB   C1A38261  15.412   7.039  34.565  0.0005  0.3323 -0.0465
 1595BOLB   C2A38262  15.453   6.780  34.853 -0.3531  0.0466 -0.0791
 1595BOLB   C3A38263  15.630   6.659  35.183 -0.0491  0.1770 -0.0996
 1595BOLB   C4A38264  15.707   6.316  35.510 -0.1212 -0.1184 -0.0469
 1595BOLB   C1B38265  15.707   7.380  34.733  0.1961  0.3027 -0.1240
 1595BOLB   C2B38266  15.514   7.655  35.114 -0.1028  0.0588  0.1347
 1595BOLB   C3B38267  15.180   7.505  35.378  0.0999 -0.3149  0.1126
 1595BOLB   C4B38268  15.041   7.113  35.545  0.2747 -0.0452 -0.0241
 1595BOLB   NC238269  14.795   7.157  37.439  0.0129 -0.2061  0.0298
 1595BOLB   PO238270  14.957   6.770  37.567 -0.1897  0.3285  0.0953
 1595BOLB   GL338271  15.037   6.656  37.098 -0.0821 -0.0233  0.1197
 1595BOLB   GL438272  15.283   6.785  36.763 -0.0354 -0.3980  0.0401
 1595BOLB   C1C38273  15.324   6.267  36.905  0.1671  0.0888 -0.2543
 1595BOLB   C2C38274  15.651   6.424  36.584  0.0522  0.1632  0.0064
 1595BOLB   C3C38275  15.837   6.481  36.256  0.3200  0.0930  0.0247
 1595BOLB   C4C38276  15.950   6.303  35.859  0.0259  0.1729  0.0696
 1595BOLB   C1D38277  15.398   6.849  36.407 -0.2216  0.0131 -0.1013
 1595BOLB   C2D38278  15.659   6.965  36.019  0.3381  0.0818 -0.2329
 1595BOLB   C3D38279  15.786   7.075  35.596 -0.0226 -0.1818  0.1276
 1595BOLB   C4D38280  16.208   7.286  35.428  0.0099 -0.1677 -0.1152
 1596BOLB   NC138281   8.184  -0.526  22.764  0.0941  0.0930 -0.2478
 1596BOLB   PO138282   8.029  -0.678  23.244  0.1427  0.0856  0.1599
 1596BOLB   GL138283   7.659  -0.717  22.947  0.2243  0.0740 -0.0805
 1596BOLB   GL238284   7.695  -0.480  22.809 -0.0073 -0.1832  0.1041
 1596BOLB   C1A38285   7.307  -0.865  22.822 -0.4748  0.4479  0.1483
 1596BOLB   C2A38286   6.908  -0.887  22.777  0.0381  0.3987 -0.1502
 1596BOLB   C3A38287   6.488  -0.920  22.662 -0.1923 -0.1501  0.2387
 1596BOLB   C4A38288   6.257  -0.955  22.231  0.0708  0.3454  0.1981
 1596BOLB   C1B38289   7.307  -0.356  23.030 -0.2105 -0.2714 -0.2183
 1596BOLB   C2B38290   6.989  -0.647  23.192  0.0994 -0.2122 -0.5018
 1596BOLB   C3B38291   6.643  -0.917  23.227  0.1129  0.2310  0.0313
 1596BOLB   C4B38292   6.267  -1.113  23.110 -0.1105 -0.0770  0.0432
 1596BOLB   NC238293   4.129  -2.092  22.154 -0.3767  0.3103  0.0002
 1596BOLB   PO238294   4.262  -1.966  21.748  0.2550 -0.2214 -0.1952
 1596BOLB   GL338295   4.505  -1.782  22.002 -0.1629 -0.1402 -0.2006
 1596BOLB   GL438296   4.477  -1.446  21.799  0.0675  0.0465  0.3418
 1596BOLB   C1C38297   4.903  -1.673  22.077 -0.0016  0.3319 -0.3216
 1596BOLB   C2C38298   5.272  -1.472  22.188  0.1074 -0.2955 -0.1550
 1596BOLB   C3C38299   5.665  -1.475  22.090 -0.0874 -0.1057  0.1550
 1596BOLB   C4C38300   6.011  -1.215  22.079  0.2088  0.0329  0.0695
 1596BOLB   C1D38301   4.786  -1.150  21.831  0.0699  0.2485 -0.2048
 1596BOLB   C2D38302   4.718  -0.784  21.972 -0.2566 -0.0770  0.1703
 1596BOLB   C3D38303   4.778  -0.516  22.234  0.1239 -0.1299 -0.2778
 1596BOLB   C4D38304   5.134  -0.580  22.540  0.3866 -0.1292 -0.2386
 1597BOLB   NC138305  18.593   4.753  17.468 -0.1796 -0.0637  0.0732
 1597BOLB   PO138306  18.705   5.088  17.009 -0.1227  0.1727 -0.1561
 1597BOLB   GL138307  18.865   5.463  16.643 -0.1851  0.2060 -0.2127
 1597BOLB   GL238308  18.748   5.411  16.324 -0.0216 -0.3279  0.1716
 1597BOLB   C1A38309  19.200   5.738  16.319 -0.3213  0.0000 -0.0781
 1597BOLB   C2A38310  19.141   6.047  16.019 -0.3766 -0.0195  0.0501
 1597BOLB   C3A38311  19.381   6.174  15.563 -0.2470  0.4255 -0.1926
 1597BOLB   C4A38312  19.746   6.223  15.373  0.2117  0.1408 -0.1382
 1597BOLB   C1B38313  18.742   5.691  15.996  0.1631 -0.1256  0.1138
 1597BOLB   C2B38314  18.808   5.755  15.666 -0.0226 -0.0062 -0.0477
 1597BOLB   C3B38315  18.823   5.609  15.233  0.3191  0.1316 -0.0399
 1597BOLB   C4B38316  18.413   5.639  14.955  0.0207 -0.0428 -0.1508
 1597BOLB   NC238317  20.917   6.956  13.788  0.0232 -0.0765  0.0454
 1597BOLB   PO238318  21.303   7.119  13.894 -0.2707 -0.1651  0.2863
 1597BOLB   GL338319  21.221   6.728  14.118  0.0781 -0.2187 -0.0897
 1597BOLB   GL438320  21.343   6.408  14.240  0.1306  0.1708 -0.3895
 1597BOLB   C1C38321  20.859   6.497  14.253 -0.2892 -0.1707 -0.4214
 1597BOLB   C2C38322  20.431   6.333  14.384  0.2462 -0.1752 -0.1514
 1597BOLB   C3C38323  20.259   6.091  14.597 -0.0120 -0.1358  0.2151
 1597BOLB   C4C38324  20.053   6.156  14.940 -0.0332 -0.2730  0.1114
 1597BOLB   C1D38325  21.538   6.391  14.615 -0.2065  0.3237  0.0180
 1597BOLB   C2D38326  21.645   6.145  14.963 -0.0694 -0.2146 -0.1837
 1597BOLB   C3D38327  21.623   5.897  15.356  0.0737 -0.0183  0.1448
 1597BOLB   C4D38328  21.680   6.202  15.661  0.0309  0.1063  0.2734
 1598BOLB   NC138329  18.636   4.089  16.078 -0.2367 -0.1928  0.0731
 1598BOLB   PO138330  18.409   4.476  16.058  0.0784 -0.1512  0.0013
 1598BOLB   GL138331  18.624   4.662  15.712  0.2129  0.0424 -0.0077
 1598BOLB   GL238332  18.802   4.360  15.636  0.2031  0.1033  0.2708
 1598BOLB   C1A38333  18.830   4.776  15.307 -0.0223 -0.1142 -0.0383
 1598BOLB   C2A38334  19.057   4.823  14.958  0.0641  0.2178  0.0904
 1598BOLB   C3A38335  19.262   4.997  14.640 -0.0508 -0.0179 -0.1757
 1598BOLB   C4A38336  19.275   4.840  14.166  0.3202  0.3370  0.0365
 1598BOLB   C1B38337  19.139   4.411  15.417 -0.0474  0.0595  0.1066
 1598BOLB   C2B38338  19.421   4.285  15.016  0.4429  0.2700  0.1470
 1598BOLB   C3B38339  19.381   3.962  14.670  0.0841  0.1675  0.1578
 1598BOLB   C4B38340  19.661   3.779  14.397 -0.1421  0.0038 -0.2489
 1598BOLB   NC238341  18.421   5.587  12.511  0.1889 -0.1482  0.1388
 1598BOLB   PO238342  18.784   5.616  12.211  0.0607 -0.2536  0.0511
 1598BOLB   GL338343  18.943   5.462  12.595  0.0759  0.3629  0.0059
 1598BOLB   GL438344  18.886   5.249  12.731 -0.0891  0.3609 -0.2517
 1598BOLB   C1C38345  18.898   5.603  13.088 -0.2712 -0.0332  0.0152
 1598BOLB   C2C38346  18.674   5.661  13.484 -0.1638 -0.0622  0.0810
 1598BOLB   C3C38347  18.818   5.281  13.709 -0.0113 -0.3976  0.2742
 1598BOLB   C4C38348  18.913   4.817  13.872 -0.2311 -0.1747  0.2648
 1598BOLB   C1D38349  18.550   5.269  13.046 -0.1412  0.2559 -0.2315
 1598BOLB   C2D38350  18.446   5.238  13.377 -0.2577 -0.4985 -0.1531
 1598BOLB   C3D38351  18.306   5.374  13.842 -0.2278 -0.0819 -0.2777
 1598BOLB   C4D38352  18.208   5.350  14.260  0.1319  0.2857  0.0305
 1599BOLB   NC138353  17.806   6.313  33.013  0.0984 -0.4347  0.1046
 1599BOLB   PO138354  18.025   5.867  33.211  0.1618  0.2223  0.2106
 1599BOLB   GL138355  18.056   5.791  33.688  0.1393 -0.1416  0.0706
 1599BOLB   GL238356  18.461   5.772  33.655 -0.0365  0.0113  0.0699
 1599BOLB   C1A38357  18.002   5.682  34.104 -0.0218  0.0070 -0.1418
 1599BOLB   C2A38358  17.796   5.697  34.600  0.0601 -0.0860  0.0517
 1599BOLB   C3A38359  17.664   5.561  35.030 -0.0215 -0.0174  0.2028
 1599BOLB   C4A38360  17.505   5.714  35.371  0.1537 -0.2118 -0.0152
 1599BOLB   C1B38361  18.690   5.999  33.921 -0.2626  0.0993 -0.1720
 1599BOLB   C2B38362  18.942   5.921  34.213  0.1084 -0.1646  0.1087
 1599BOLB   C3B38363  19.245   5.632  34.382  0.0707  0.2571  0.0040
 1599BOLB   C4B38364  19.282   5.270  34.494  0.3576  0.1450  0.1897
 1599BOLB   NC238365  17.492   6.066  38.038  0.1499 -0.0819 -0.0749
 1599BOLB   PO238366  17.391   6.453  37.762  0.0647  0.0580 -0.1622
 1599BOLB   GL338367  17.241   6.427  37.393 -0.0835  0.2457  0.1321
 1599BOLB   GL438368  16.902   6.302  37.403 -0.0643 -0.0796  0.1938
 1599BOLB   C1C38369  17.345   6.376  36.926 -0.1576  0.3354 -0.0967
 1599BOLB   C2C38370  17.676   6.188  36.650  0.1998 -0.1462 -0.0833
 1599BOLB   C3C38371  17.561   5.964  36.229  0.0004 -0.0106 -0.0806
 1599BOLB   C4C38372  17.386   5.783  35.799 -0.3826  0.1051  0.1635
 1599BOLB   C1D38373  16.708   6.454  37.030 -0.1560  0.1125 -0.0580
 1599BOLB   C2D38374  16.806   6.246  36.650 -0.1424  0.1928  0.1738
 1599BOLB   C3D38375  17.176   6.272  36.286  0.0850 -0.1258 -0.0173
 1599BOLB   C4D38376  17.132   6.506  35.894  0.0259 -0.0471 -0.0626
 1600BOLB   NC138377  15.139   9.038  32.501 -0.2801  0.0111 -0.2747
 1600BOLB   PO138378  14.742   8.937  32.738  0.4380 -0.3023  0.0890
 1600BOLB   GL138379  14.843   9.298  32.891  0.1702  0.4082 -0.2203
 1600BOLB   GL238380  15.168   9.374  33.076  0.2484 -0.0168  0.1821
 1600BOLB   C1A38381  14.695   9.603  33.285  0.3563  0.0694  0.2372
 1600BOLB   C2A38382  14.951   9.739  33.594 -0.1719  0.1861 -0.2234
 1600BOLB   C3A38383  15.117  10.113  33.845 -0.1084 -0.0124  0.1637
 1600BOLB   C4A38384  15.430  10.505  33.855  0.0387  0.2149  0.1314
 1600BOLB   C1B38385  15.389   9.504  33.392 -0.0417 -0.0492  0.2016
 1600BOLB   C2B38386  15.630   9.714  33.712 -0.0472  0.0889  0.1449
 1600BOLB   C3B38387  15.902  10.075  33.764  0.2057  0.1851  0.0641
 1600BOLB   C4B38388  15.808  10.341  33.512  0.4124  0.0599  0.1519
 1600BOLB   NC238389  15.784  12.353  35.500 -0.0731 -0.0888  0.1152
 1600BOLB   PO238390  15.849  11.940  35.641  0.0647 -0.2548 -0.0046
 1600BOLB   GL338391  15.541  11.902  35.351  0.0384 -0.1229 -0.3225
 1600BOLB   GL438392  15.702  12.040  35.119 -0.0904  0.0068  0.1231
 1600BOLB   C1C38393  15.454  11.673  34.908 -0.3161 -0.1065  0.1851
 1600BOLB   C2C38394  15.371  11.217  34.784 -0.2808 -0.1955  0.1549
 1600BOLB   C3C38395  15.116  10.977  34.461 -0.0913 -0.2296  0.1294
 1600BOLB   C4C38396  15.208  10.874  34.065  0.1281  0.4099  0.0039
 1600BOLB   C1D38397  15.801  11.956  34.769  0.0393  0.1332 -0.0884
 1600BOLB   C2D38398  15.742  11.605  34.473 -0.1858  0.2921  0.1368
 1600BOLB   C3D38399  16.045  11.389  34.151  0.2072 -0.0029  0.0698
 1600BOLB   C4D38400  16.176  11.050  33.839  0.2496  0.0789  0.2829
 1601BOLB   NC138401  16.087  -4.407  21.563 -0.0569  0.1676  0.0898
 1601BOLB   PO138402  15.646  -4.268  21.586  0.2876 -0.3414 -0.0303
 1601BOLB   GL138403  15.687  -4.641  21.436  0.3268  0.0072  0.0992
 1601BOLB   GL238404  15.462  -4.885  21.550  0.1150 -0.0539  0.0408
 1601BOLB   C1A38405  15.726  -5.188  21.166  0.0686  0.0068 -0.1184
 1601BOLB   C2A38406  15.926  -5.561  21.108 -0.2740 -0.0412 -0.2520
 1601BOLB   C3A38407  16.071  -5.973  21.411  0.0985  0.0578  0.1521
 1601BOLB   C4A38408  15.706  -6.234  21.616  0.4151 -0.0527  0.2443
 1601BOLB   C1B38409  15.284  -5.250  21.687  0.1513 -0.1430 -0.0695
 1601BOLB   C2B38410  15.268  -5.612  21.821 -0.0478 -0.0999 -0.1981
 1601BOLB   C3B38411  15.422  -5.973  21.902 -0.3458 -0.3298  0.3545
 1601BOLB   C4B38412  15.455  -6.325  22.129  0.3459  0.0573 -0.0063
 1601BOLB   NC238413  14.582  -8.399  21.773  0.0396  0.0209  0.2293
 1601BOLB   PO238414  14.912  -8.356  22.034 -0.1848 -0.3088 -0.3323
 1601BOLB   GL338415  14.826  -7.961  22.191  0.0371 -0.0730  0.2451
 1601BOLB   GL438416  14.492  -7.912  21.958  0.2253 -0.2179 -0.0630
 1601BOLB   C1C38417  14.985  -7.588  22.393 -0.3311 -0.2682 -0.1041
 1601BOLB   C2C38418  15.229  -7.166  22.248 -0.2241  0.1925  0.3357
 1601BOLB   C3C38419  15.444  -6.852  22.046  0.2286  0.2369 -0.0767
 1601BOLB   C4C38420  15.433  -6.538  21.659 -0.0313  0.1752 -0.0072
 1601BOLB   C1D38421  14.623  -7.463  21.938 -0.3005  0.2094  0.3463
 1601BOLB   C2D38422  14.767  -7.072  22.013  0.0781  0.0609  0.0450
 1601BOLB   C3D38423  14.934  -6.653  21.798  0.0399 -0.0348 -0.3290
 1601BOLB   C4D38424  14.940  -6.183  21.909  0.3667 -0.2096 -0.0353
 1602BOLB   NC138425  18.313  -0.391  31.752 -0.0285  0.0988 -0.3341
 1602BOLB   PO138426  18.703  -0.076  31.550 -0.2663  0.0275  0.2058
 1602BOLB   GL138427  18.769  -0.263  32.000 -0.2764 -0.0521 -0.3181
 1602BOLB   GL238428  19.039  -0.142  32.131 -0.3354  0.2508  0.1612
 1602BOLB   C1A38429  18.851  -0.643  32.180  0.0779  0.0048 -0.2526
 1602BOLB   C2A38430  18.798  -0.856  32.520  0.1203  0.1305  0.0144
 1602BOLB   C3A38431  18.549  -0.768  32.985 -0.3228  0.1356  0.3087
 1602BOLB   C4A38432  18.324  -0.999  33.303  0.2008  0.1100  0.1429
 1602BOLB   C1B38433  19.564  -0.348  32.186  0.0016  0.1145  0.0947
 1602BOLB   C2B38434  19.774  -0.565  32.561 -0.2302  0.0185  0.1822
 1602BOLB   C3B38435  19.978  -0.570  32.940 -0.2040  0.2030 -0.0645
 1602BOLB   C4B38436  20.237  -0.593  33.356  0.0266  0.0744  0.1179
 1602BOLB   NC238437  18.999  -1.726  35.557  0.0339 -0.1406  0.0788
 1602BOLB   PO238438  18.670  -1.701  35.321  0.1663 -0.1595  0.0426
 1602BOLB   GL338439  18.601  -1.587  34.946 -0.0576 -0.1400  0.1987
 1602BOLB   GL438440  18.543  -1.727  34.762 -0.1843 -0.0121  0.0812
 1602BOLB   C1C38441  18.236  -1.344  34.719 -0.2999  0.2994  0.2791
 1602BOLB   C2C38442  18.108  -1.143  34.421  0.0900 -0.0721 -0.1927
 1602BOLB   C3C38443  18.103  -1.037  34.021  0.1627 -0.1933 -0.1600
 1602BOLB   C4C38444  18.211  -0.759  33.637  0.0912  0.0199 -0.1745
 1602BOLB   C1D38445  18.829  -1.417  34.530 -0.2189  0.0415 -0.3697
 1602BOLB   C2D38446  18.564  -1.251  34.194 -0.0196 -0.1973  0.1222
 1602BOLB   C3D38447  18.499  -1.229  33.760 -0.1661 -0.3970 -0.0999
 1602BOLB   C4D38448  18.745  -1.208  33.280 -0.0502 -0.0726 -0.0073
 1603BOLB   NC138449  24.724   2.109  27.889 -0.1595 -0.1920  0.2398
 1603BOLB   PO138450  24.658   2.480  27.523  0.2153  0.1437 -0.1329
 1603BOLB   GL138451  25.206   2.357  27.595 -0.1978  0.2279  0.3136
 1603BOLB   GL238452  25.338   2.305  27.231 -0.3013  0.0913  0.2842
 1603BOLB   C1A38453  25.594   2.136  27.621 -0.1132  0.1514  0.0571
 1603BOLB   C2A38454  25.974   1.898  27.732  0.1110  0.0181 -0.2661
 1603BOLB   C3A38455  26.397   2.023  27.768  0.0311  0.2491 -0.1255
 1603BOLB   C4A38456  26.821   1.860  27.826  0.3638 -0.1537 -0.0975
 1603BOLB   C1B38457  25.595   1.884  27.118  0.1405 -0.2043  0.0088
 1603BOLB   C2B38458  25.887   1.626  27.308 -0.0420 -0.2888 -0.0165
 1603BOLB   C3B38459  26.352   1.536  27.677 -0.0834  0.0517 -0.0182
 1603BOLB   C4B38460  26.599   1.212  27.862  0.0912  0.0694 -0.0611
 1603BOLB   NC238461  28.693   0.547  27.957  0.3699  0.1257  0.0729
 1603BOLB   PO238462  28.503   0.828  28.366  0.0220  0.2331 -0.1272
 1603BOLB   GL338463  28.320   0.920  28.018 -0.2700  0.3073  0.0054
 1603BOLB   GL438464  28.239   1.355  27.992 -0.0486  0.3381 -0.0558
 1603BOLB   C1C38465  27.887   0.912  27.939 -0.0336  0.3474 -0.0006
 1603BOLB   C2C38466  27.471   0.887  27.687  0.2266 -0.1063  0.1050
 1603BOLB   C3C38467  27.156   1.212  27.760 -0.2821 -0.1291 -0.0317
 1603BOLB   C4C38468  26.953   1.554  27.860  0.1135  0.0580  0.1751
 1603BOLB   C1D38469  27.749   1.489  27.823  0.0191 -0.0573 -0.0469
 1603BOLB   C2D38470  27.391   1.774  27.799 -0.0442 -0.2340 -0.1383
 1603BOLB   C3D38471  27.244   2.239  27.973 -0.0753  0.0677  0.1155
 1603BOLB   C4D38472  26.926   2.362  27.723 -0.0719  0.1920 -0.0327
 1604BOLB   NC138473  13.749   4.618  33.397 -0.2581 -0.2923 -0.0193
 1604BOLB   PO138474  13.208   4.584  33.311  0.0171 -0.0870 -0.2350
 1604BOLB   GL138475  12.886   4.470  33.646 -0.0818  0.0152 -0.0531
 1604BOLB   GL238476  12.828   4.760  33.765  0.1836 -0.2591 -0.2564
 1604BOLB   C1A38477  12.738   4.344  34.018 -0.0629 -0.0753 -0.1456
 1604BOLB   C2A38478  12.637   4.586  34.351 -0.2346 -0.2138  0.0142
 1604BOLB   C3A38479  12.703   5.003  34.495 -0.0239 -0.0209  0.2604
 1604BOLB   C4A38480  12.449   5.194  34.848 -0.1789 -0.3098 -0.1213
 1604BOLB   C1B38481  12.868   5.054  34.035 -0.1384 -0.0869  0.0473
 1604BOLB   C2B38482  13.254   5.243  34.215  0.1673  0.1506 -0.0943
 1604BOLB   C3B38483  13.572   5.368  34.490 -0.0067  0.1262 -0.2840
 1604BOLB   C4B38484  13.689   5.392  34.936  0.3213 -0.2383  0.2753
 1604BOLB   NC238485  11.378   5.468  37.100 -0.1907 -0.0529 -0.0806
 1604BOLB   PO238486  11.624   5.200  37.104  0.0741  0.1932 -0.1000
 1604BOLB   GL338487  11.891   5.365  36.762  0.4367 -0.1420  0.0147
 1604BOLB   GL438488  12.201   5.385  36.730  0.1512 -0.2105 -0.2124
 1604BOLB   C1C38489  11.784   5.287  36.313  0.1764 -0.0692 -0.0525
 1604BOLB   C2C38490  11.968   5.347  35.935  0.1485  0.0624  0.1021
 1604BOLB   C3C38491  12.107   5.497  35.561  0.2012 -0.2289 -0.3569
 1604BOLB   C4C38492  12.106   5.467  35.106  0.1698  0.0202 -0.2648
 1604BOLB   C1D38493  12.287   5.388  36.316  0.0067 -0.1694  0.0221
 1604BOLB   C2D38494  12.664   5.467  36.068  0.0139 -0.2144  0.2571
 1604BOLB   C3D38495  12.958   5.453  35.680  0.0201 -0.2371  0.1805
 1604BOLB   C4D38496  13.030   5.872  35.436 -0.1062 -0.1641 -0.0715
 1605BOLB   NC138497  12.744  -3.243  26.855  0.1912  0.0723 -0.3967
 1605BOLB   PO138498  12.362  -3.323  26.619  0.0902  0.0455  0.3302
 1605BOLB   GL138499  12.032  -3.610  26.718  0.1052  0.1982  0.1859
 1605BOLB   GL238500  11.903  -3.780  26.413  0.0059  0.0545  0.2782
 1605BOLB   C1A38501  11.794  -3.920  26.913 -0.2090  0.4181  0.2272
 1605BOLB   C2A38502  11.724  -4.280  27.013 -0.2190  0.1429 -0.3574
 1605BOLB   C3A38503  11.540  -4.724  27.085 -0.2167  0.1644  0.2440
 1605BOLB   C4A38504  11.190  -4.996  27.280 -0.0731 -0.1175 -0.1692
 1605BOLB   C1B38505  11.771  -4.200  26.393 -0.0510  0.4306  0.1686
 1605BOLB   C2B38506  11.557  -4.522  26.625 -0.0666  0.0592  0.2368
 1605BOLB   C3B38507  11.234  -4.757  26.597 -0.0552 -0.2211 -0.3570
 1605BOLB   C4B38508  11.287  -5.120  26.799  0.2189  0.0041  0.0490
 1605BOLB   NC238509  10.249  -6.478  28.700  0.2455 -0.1106  0.0201
 1605BOLB   PO238510   9.950  -6.748  28.361 -0.0074 -0.0343  0.3657
 1605BOLB   GL338511  10.179  -6.459  28.194 -0.3452 -0.1098 -0.0589
 1605BOLB   GL438512   9.980  -6.222  28.264  0.1443 -0.0173  0.0348
 1605BOLB   C1C38513  10.372  -6.039  27.962  0.1104  0.3721 -0.0182
 1605BOLB   C2C38514  10.632  -5.798  27.670  0.0366 -0.0680  0.2077
 1605BOLB   C3C38515  10.762  -5.342  27.675 -0.3937  0.1383  0.0521
 1605BOLB   C4C38516  10.973  -4.991  27.543  0.0581  0.1996  0.1406
 1605BOLB   C1D38517  10.088  -5.869  28.471  0.2643 -0.1686 -0.0705
 1605BOLB   C2D38518  10.191  -5.514  28.536  0.2374  0.2691  0.0013
 1605BOLB   C3D38519  10.253  -5.188  28.779 -0.0583 -0.2936  0.1931
 1605BOLB   C4D38520  10.158  -5.036  29.121 -0.1936 -0.0338  0.0225
 1606BOLB   NC138521  19.933  -3.467  22.901  0.0507 -0.0428  0.2943
 1606BOLB   PO138522  20.150  -3.383  23.187 -0.3689 -0.2286  0.1222
 1606BOLB   GL138523  20.476  -3.478  23.394 -0.1105  0.1872  0.3314
 1606BOLB   GL238524  20.393  -3.613  23.651 -0.3119  0.0795 -0.3337
 1606BOLB   C1A38525  20.859  -3.622  23.490  0.2981 -0.2717 -0.5522
 1606BOLB   C2A38526  21.173  -3.712  23.620 -0.3627 -0.0959  0.0799
 1606BOLB   C3A38527  21.486  -3.939  23.309 -0.1067 -0.2735  0.0405
 1606BOLB   C4A38528  21.685  -4.293  23.190 -0.0040 -0.0227 -0.2215
 1606BOLB   C1B38529  20.482  -4.049  23.593  0.0633 -0.0669 -0.1109
 1606BOLB   C2B38530  20.706  -4.381  23.673 -0.0782 -0.2104  0.2622
 1606BOLB   C3B38531  20.855  -4.813  23.500  0.2009  0.0804  0.1334
 1606BOLB   C4B38532  20.964  -5.045  23.148  0.0370 -0.0434  0.2832
 1606BOLB   NC238533  23.440  -6.424  23.759  0.0221 -0.0297 -0.1800
 1606BOLB   PO238534  23.475  -6.052  23.793 -0.1473 -0.0703  0.1186
 1606BOLB   GL338535  23.514  -5.649  23.674  0.2509  0.2435  0.0529
 1606BOLB   GL438536  23.729  -5.416  23.761  0.0818  0.1439 -0.0282
 1606BOLB   C1C38537  23.127  -5.287  23.656 -0.2291  0.2503 -0.0073
 1606BOLB   C2C38538  22.710  -5.280  23.470  0.1637 -0.0969 -0.1200
 1606BOLB   C3C38539  22.262  -4.990  23.510 -0.1069  0.0911  0.0730
 1606BOLB   C4C38540  21.889  -4.692  23.363  0.1534 -0.2786  0.1320
 1606BOLB   C1D38541  23.587  -4.987  23.890 -0.1485  0.1331  0.2522
 1606BOLB   C2D38542  23.477  -4.610  23.911 -0.2167  0.1470  0.1094
 1606BOLB   C3D38543  23.390  -4.219  23.974 -0.3103  0.1019 -0.1384
 1606BOLB   C4D38544  23.513  -4.086  23.647 -0.1451  0.3960  0.0667
 1607BOLB   NC138545  24.562   3.207  23.989 -0.2829 -0.0638 -0.1918
 1607BOLB   PO138546  24.476   3.504  23.652 -0.1552  0.0869  0.0783
 1607BOLB   GL138547  24.874   3.534  23.464 -0.0427 -0.1858  0.2757
 1607BOLB   GL238548  24.911   3.519  23.123 -0.0058  0.1765 -0.0560
 1607BOLB   C1A38549  25.355   3.402  23.379  0.1871  0.2134 -0.1004
 1607BOLB   C2A38550  25.791   3.427  23.435 -0.0092 -0.1176 -0.0180
 1607BOLB   C3A38551  26.143   3.194  23.630 -0.1364  0.3649  0.0494
 1607BOLB   C4A38552  26.251   2.917  23.868  0.1973 -0.0132  0.0278
 1607BOLB   C1B38553  25.232   3.842  23.230  0.1491 -0.0331 -0.1185
 1607BOLB   C2B38554  25.702   3.898  23.144  0.0748  0.1853 -0.1672
 1607BOLB   C3B38555  26.047   3.850  23.206 -0.3339 -0.1428 -0.2179
 1607BOLB   C4B38556  26.448   4.111  23.220  0.0376 -0.1504  0.1740
 1607BOLB   NC238557  28.820   3.198  23.434  0.0475  0.1102  0.4477
 1607BOLB   PO238558  28.592   3.065  23.861  0.0870 -0.0989 -0.1626
 1607BOLB   GL338559  28.216   3.014  23.949  0.2196 -0.0284 -0.1811
 1607BOLB   GL438560  28.076   3.298  23.909  0.3109 -0.0739  0.1159
 1607BOLB   C1C38561  27.846   2.922  24.249  0.0724 -0.0831  0.1971
 1607BOLB   C2C38562  27.420   2.802  24.437 -0.2202  0.0993  0.4513
 1607BOLB   C3C38563  26.952   2.950  24.303 -0.0630  0.3371  0.2202
 1607BOLB   C4C38564  26.536   2.857  24.095  0.2600 -0.0383 -0.0705
 1607BOLB   C1D38565  27.604   3.221  23.982  0.0712  0.0896 -0.1404
 1607BOLB   C2D38566  27.234   3.166  23.957 -0.2705 -0.0624  0.1970
 1607BOLB   C3D38567  26.873   2.955  23.703 -0.1021 -0.0901 -0.0273
 1607BOLB   C4D38568  26.570   2.909  23.413  0.0355  0.0984 -0.3207
 1608BOLB   NC138569  10.141  -2.710  25.720 -0.0804  0.2371  0.0323
 1608BOLB   PO138570  10.364  -3.070  25.405 -0.0547 -0.1842 -0.1513
 1608BOLB   GL138571  10.182  -3.391  25.212  0.1760 -0.1328 -0.4199
 1608BOLB   GL238572  10.047  -3.280  24.859  0.2817  0.2541 -0.0883
 1608BOLB   C1A38573  10.016  -3.678  25.184 -0.1714  0.0051  0.3860
 1608BOLB   C2A38574   9.746  -3.941  25.127 -0.0284  0.0976  0.0313
 1608BOLB   C3A38575   9.611  -4.163  24.755  0.2017  0.0355  0.0535
 1608BOLB   C4A38576   9.398  -4.392  24.433 -0.1997  0.2322  0.1086
 1608BOLB   C1B38577   9.852  -3.567  24.684 -0.1833  0.0675 -0.2254
 1608BOLB   C2B38578   9.595  -3.929  24.306  0.0792 -0.7009  0.3435
 1608BOLB   C3B38579   9.351  -4.088  23.993 -0.3063 -0.0355 -0.0483
 1608BOLB   C4B38580   9.101  -4.373  23.628 -0.2320 -0.1450 -0.1245
 1608BOLB   NC238581   7.304  -5.921  23.915 -0.0432 -0.0054 -0.0506
 1608BOLB   PO238582   7.200  -5.543  24.226 -0.1992 -0.2280  0.3329
 1608BOLB   GL338583   7.480  -5.179  24.103 -0.0242  0.1360 -0.0959
 1608BOLB   GL438584   7.432  -4.867  24.155 -0.0004 -0.0152  0.1137
 1608BOLB   C1C38585   7.830  -5.148  24.369  0.0850 -0.1410 -0.2971
 1608BOLB   C2C38586   8.253  -4.938  24.496  0.4007  0.2625 -0.1452
 1608BOLB   C3C38587   8.678  -4.913  24.496  0.0478 -0.1169  0.1244
 1608BOLB   C4C38588   9.163  -4.680  24.435  0.1149  0.1212 -0.0975
 1608BOLB   C1D38589   7.882  -4.760  24.063 -0.1690 -0.0554  0.3207
 1608BOLB   C2D38590   8.270  -4.755  24.031 -0.2294 -0.1766  0.1594
 1608BOLB   C3D38591   8.470  -5.180  24.078  0.1558 -0.0513  0.0391
 1608BOLB   C4D38592   8.728  -5.428  24.419  0.1121 -0.0363  0.0814
 1609BOLB   NC138593   7.672   0.745  25.750 -0.1605  0.0380  0.2704
 1609BOLB   PO138594   7.481   0.330  25.753 -0.0918  0.1018  0.3078
 1609BOLB   GL138595   7.340   0.009  26.077  0.0907  0.2313  0.1105
 1609BOLB   GL238596   7.412  -0.321  26.235 -0.2582  0.0252  0.1467
 1609BOLB   C1A38597   6.983  -0.089  26.182  0.2441  0.0357  0.0324
 1609BOLB   C2A38598   6.803  -0.295  25.877  0.1358  0.1146 -0.5122
 1609BOLB   C3A38599   6.417  -0.466  25.748 -0.1592  0.1825  0.2158
 1609BOLB   C4A38600   6.040  -0.618  25.920  0.0872 -0.0053  0.1948
 1609BOLB   C1B38601   7.071  -0.596  26.380  0.2030 -0.0957 -0.3416
 1609BOLB   C2B38602   6.936  -0.871  26.669  0.2052  0.1643  0.1258
 1609BOLB   C3B38603   6.774  -0.905  26.982  0.3117 -0.1958 -0.1345
 1609BOLB   C4B38604   6.978  -1.085  27.402  0.1519  0.0397  0.1739
 1609BOLB   NC238605   4.086  -1.437  26.390 -0.2307  0.3508  0.0577
 1609BOLB   PO238606   4.044  -1.222  26.877  0.3690 -0.0058 -0.0016
 1609BOLB   GL338607   4.313  -0.965  26.630  0.1743  0.0516 -0.0058
 1609BOLB   GL438608   4.528  -1.245  26.641  0.3500 -0.2732  0.1278
 1609BOLB   C1C38609   4.619  -0.733  26.385 -0.2835 -0.3759  0.0712
 1609BOLB   C2C38610   4.838  -0.584  26.113 -0.0235  0.0405  0.3665
 1609BOLB   C3C38611   5.230  -0.504  25.950 -0.0675 -0.1206 -0.0650
 1609BOLB   C4C38612   5.564  -0.758  25.933  0.4127  0.1245 -0.1090
 1609BOLB   C1D38613   4.869  -0.916  26.801  0.3613  0.0044 -0.0425
 1609BOLB   C2D38614   5.371  -0.722  26.780  0.0471 -0.1747 -0.2755
 1609BOLB   C3D38615   5.850  -0.759  26.778  0.3097 -0.0983 -0.1431
 1609BOLB   C4D38616   6.176  -0.591  27.102  0.1047  0.0013  0.3161
 1610BOLB   NC138617  12.333  12.325  28.134  0.0614 -0.4808  0.1236
 1610BOLB   PO138618  12.459  12.049  28.331  0.0493 -0.0227 -0.1757
 1610BOLB   GL138619  12.622  12.426  28.534 -0.0394  0.1682  0.1784
 1610BOLB   GL238620  13.020  12.455  28.413 -0.1302 -0.1978  0.2152
 1610BOLB   C1A38621  12.561  12.755  28.597  0.0185  0.3423 -0.1649
 1610BOLB   C2A38622  12.446  13.112  28.728 -0.2204  0.0737 -0.4170
 1610BOLB   C3A38623  12.054  13.205  28.696  0.0164 -0.1984 -0.1080
 1610BOLB   C4A38624  11.832  13.288  28.985 -0.0410 -0.3626 -0.3036
 1610BOLB   C1B38625  13.025  12.833  28.360  0.3182 -0.1314 -0.1008
 1610BOLB   C2B38626  12.932  12.970  28.804 -0.2988 -0.0880  0.0787
 1610BOLB   C3B38627  12.757  13.103  29.166 -0.1371 -0.0580  0.1140
 1610BOLB   C4B38628  12.689  13.107  29.503  0.1676  0.0017  0.1020
 1610BOLB   NC238629  10.976  15.964  28.619 -0.0845  0.0257 -0.1007
 1610BOLB   PO238630  11.451  15.848  28.856 -0.0055  0.2277 -0.2924
 1610BOLB   GL338631  11.510  15.429  29.121 -0.1709 -0.0637 -0.3403
 1610BOLB   GL438632  11.785  15.295  29.206 -0.0478  0.3669 -0.0355
 1610BOLB   C1C38633  11.346  14.992  29.222  0.0124 -0.0888 -0.1410
 1610BOLB   C2C38634  11.394  14.471  29.340 -0.0849  0.1419  0.3804
 1610BOLB   C3C38635  11.576  14.074  29.246  0.1837  0.0021 -0.1436
 1610BOLB   C4C38636  11.775  13.676  29.216 -0.0151 -0.1220  0.0432
 1610BOLB   C1D38637  11.781  15.027  28.919  0.0699  0.2996 -0.0292
 1610BOLB   C2D38638  11.699  14.514  28.988  0.0436  0.0105 -0.1600
 1610BOLB   C3D38639  11.649  14.149  28.721 -0.0621  0.0545 -0.3160
 1610BOLB   C4D38640  11.919  13.724  28.759  0.2728 -0.2707  0.2111
 1611BOLB   NC138641   7.871   3.257  28.508 -0.1568  0.0199 -0.0309
 1611BOLB   PO138642   7.993   3.080  28.922  0.1998  0.1011 -0.0905
 1611BOLB   GL138643   7.735   3.375  28.974  0.0564  0.3289 -0.0454
 1611BOLB   GL238644   7.438   3.421  28.875  0.0194  0.1603 -0.1599
 1611BOLB   C1A38645   7.492   3.763  29.259  0.1260  0.3660 -0.0818
 1611BOLB   C2A38646   7.056   3.863  29.168  0.2285 -0.1232  0.2185
 1611BOLB   C3A38647   6.632   3.849  29.300  0.1739  0.0096 -0.0449
 1611BOLB   C4A38648   6.240   3.561  29.388 -0.2528 -0.2753  0.1425
 1611BOLB   C1B38649   7.377   3.299  29.352  0.2469 -0.0945 -0.1261
 1611BOLB   C2B38650   7.173   3.150  29.746 -0.1149  0.0923  0.0117
 1611BOLB   C3B38651   6.965   2.905  30.011  0.0125 -0.4404  0.1865
 1611BOLB   C4B38652   6.694   2.610  30.192  0.1822  0.2780 -0.1158
 1611BOLB   NC238653   3.625   4.234  30.387 -0.0461 -0.2005 -0.0017
 1611BOLB   PO238654   3.856   3.936  30.329  0.0219 -0.0191 -0.0863
 1611BOLB   GL338655   4.187   3.713  30.042  0.5057 -0.2948  0.2974
 1611BOLB   GL438656   4.070   3.531  29.729  0.0221 -0.0969  0.1771
 1611BOLB   C1C38657   4.640   3.786  30.114  0.1291 -0.0412 -0.2163
 1611BOLB   C2C38658   5.026   3.741  29.905 -0.0606  0.0016 -0.0559
 1611BOLB   C3C38659   5.473   3.518  29.867 -0.2253 -0.0987  0.2033
 1611BOLB   C4C38660   5.896   3.503  29.686  0.1253  0.0767 -0.0160
 1611BOLB   C1D38661   4.499   3.465  29.641 -0.0494 -0.2089 -0.1683
 1611BOLB   C2D38662   4.940   3.370  29.538 -0.4136  0.0923  0.0162
 1611BOLB   C3D38663   5.345   3.316  29.300  0.1591  0.0512  0.2843
 1611BOLB   C4D38664   5.741   3.233  29.250  0.0097 -0.2844  0.0239
 1612BOLB   NC138665  23.194   8.397  24.812 -0.0343  0.0598  0.1569
 1612BOLB   PO138666  23.552   8.482  25.072  0.0566 -0.1494  0.1720
 1612BOLB   GL138667  23.647   8.776  24.757  0.0830  0.3658  0.1205
 1612BOLB   GL238668  23.585   8.570  24.454  0.0679 -0.1583 -0.0274
 1612BOLB   C1A38669  23.815   9.175  24.666 -0.1866  0.0228  0.0389
 1612BOLB   C2A38670  24.034   9.558  24.629 -0.0059  0.0177 -0.2294
 1612BOLB   C3A38671  24.469   9.710  24.673 -0.1458  0.2183 -0.0026
 1612BOLB   C4A38672  24.697   9.992  24.654 -0.1109  0.1528  0.4258
 1612BOLB   C1B38673  24.178   8.782  24.488  0.1119 -0.0354  0.2084
 1612BOLB   C2B38674  24.202   9.155  24.305  0.1189  0.1505 -0.2648
 1612BOLB   C3B38675  24.308   9.557  24.229  0.2576 -0.0808 -0.0195
 1612BOLB   C4B38676  24.265   9.927  23.974 -0.3063 -0.2105 -0.2798
 1612BOLB   NC238677  25.678  11.865  25.168 -0.6240  0.1218  0.1295
 1612BOLB   PO238678  26.144  11.609  25.112  0.1333 -0.2011  0.1099
 1612BOLB   GL338679  25.882  11.300  24.972  0.1352 -0.1274 -0.2231
 1612BOLB   GL438680  25.563  11.280  25.199 -0.1173  0.4467 -0.0823
 1612BOLB   C1C38681  25.825  11.064  24.644  0.2111 -0.0412 -0.0294
 1612BOLB   C2C38682  25.648  10.800  24.614 -0.1741 -0.0580 -0.0801
 1612BOLB   C3C38683  25.405  10.413  24.472 -0.1764 -0.3353 -0.1656
 1612BOLB   C4C38684  25.101  10.040  24.477  0.1815 -0.1196 -0.0237
 1612BOLB   C1D38685  25.688  10.857  25.143 -0.0262  0.2181  0.1161
 1612BOLB   C2D38686  25.473  10.495  24.976 -0.3462  0.1335 -0.1624
 1612BOLB   C3D38687  25.125  10.317  25.057 -0.0712 -0.2809 -0.0396
 1612BOLB   C4D38688  24.779  10.075  25.122  0.4180 -0.1309 -0.3828
 1613BOLB   NC138689  22.902   7.279  29.948  0.0668  0.0122  0.0430
 1613BOLB   PO138690  22.953   7.092  30.377  0.2026 -0.0506  0.1112
 1613BOLB   GL138691  23.155   7.121  30.788 -0.0015  0.0633 -0.0346
 1613BOLB   GL238692  23.223   6.847  30.748 -0.1380  0.0238 -0.0638
 1613BOLB   C1A38693  23.221   7.300  31.191 -0.4015 -0.0553 -0.3569
 1613BOLB   C2A38694  23.560   7.408  31.573  0.0342  0.3968 -0.1605
 1613BOLB   C3A38695  23.655   7.603  31.976  0.2568 -0.0486 -0.0605
 1613BOLB   C4A38696  23.817   7.744  32.280 -0.0167 -0.1646  0.4658
 1613BOLB   C1B38697  23.348   6.760  31.079 -0.1335 -0.1248  0.0163
 1613BOLB   C2B38698  23.576   6.932  31.314 -0.2469 -0.0927  0.3336
 1613BOLB   C3B38699  23.912   7.072  31.594 -0.1961 -0.0341 -0.1966
 1613BOLB   C4B38700  24.034   7.016  31.992  0.2588 -0.3193 -0.1690
 1613BOLB   NC238701  25.481   9.248  32.987 -0.1664 -0.2584 -0.0418
 1613BOLB   PO238702  25.314   9.668  32.759 -0.3768  0.3122  0.0389
 1613BOLB   GL338703  25.205   9.284  32.423 -0.0555 -0.1110 -0.2277
 1613BOLB   GL438704  24.876   9.322  32.163 -0.0869  0.1811 -0.2284
 1613BOLB   C1C38705  24.875   9.081  32.620 -0.2141  0.0533 -0.0100
 1613BOLB   C2C38706  24.584   8.813  32.818 -0.2098  0.4240  0.0155
 1613BOLB   C3C38707  24.258   8.500  32.698  0.0260 -0.1328  0.0836
 1613BOLB   C4C38708  23.927   8.176  32.519 -0.2762  0.0297  0.2630
 1613BOLB   C1D38709  24.711   9.232  31.806 -0.1191 -0.2551  0.1485
 1613BOLB   C2D38710  24.382   8.924  31.638  0.0491 -0.2654 -0.1142
 1613BOLB   C3D38711  24.356   8.493  31.368  0.2116 -0.0354 -0.0360
 1613BOLB   C4D38712  23.989   8.366  31.342 -0.0544  0.0316  0.2293
 1614BOLB   NC138713  10.156   9.769  22.564  0.1806 -0.5307 -0.0092
 1614BOLB   PO138714  10.460  10.017  22.545 -0.1609  0.0661  0.1946
 1614BOLB   GL138715  10.122  10.289  22.476 -0.0699 -0.1916 -0.0960
 1614BOLB   GL238716  10.077  10.417  22.787  0.0529 -0.3520  0.2957
 1614BOLB   C1A38717  10.020  10.584  22.083  0.3258 -0.1970  0.0480
 1614BOLB   C2A38718   9.907  10.987  21.923 -0.2693  0.0753  0.2451
 1614BOLB   C3A38719  10.056  11.455  21.884  0.2253  0.1571  0.3319
 1614BOLB   C4A38720  10.365  11.856  21.869  0.3119  0.0078 -0.2965
 1614BOLB   C1B38721   9.976  10.723  22.855 -0.1734  0.1157 -0.1853
 1614BOLB   C2B38722   9.686  11.037  23.032  0.0109  0.1019 -0.3369
 1614BOLB   C3B38723   9.433  11.369  23.109 -0.1262 -0.0442 -0.1363
 1614BOLB   C4B38724   9.210  11.804  23.138  0.2338 -0.0994  0.1506
 1614BOLB   NC238725   9.653  14.053  21.050 -0.1352  0.1050 -0.1587
 1614BOLB   PO238726   9.521  13.673  21.052 -0.0669  0.2801  0.1990
 1614BOLB   GL338727   9.778  13.588  21.335 -0.2125  0.1329  0.1242
 1614BOLB   GL438728   9.571  13.455  21.611 -0.2282 -0.0147 -0.0298
 1614BOLB   C1C38729  10.124  13.410  21.611 -0.2875 -0.3472 -0.2524
 1614BOLB   C2C38730  10.345  13.068  21.668 -0.0095 -0.0909 -0.1486
 1614BOLB   C3C38731  10.307  12.687  21.736 -0.1439  0.2509  0.2878
 1614BOLB   C4C38732  10.258  12.318  21.838 -0.2725  0.0675  0.0281
 1614BOLB   C1D38733   9.769  13.440  22.015  0.2662  0.1283 -0.0377
 1614BOLB   C2D38734  10.078  13.492  22.304 -0.2016  0.0045  0.1907
 1614BOLB   C3D38735  10.016  13.081  22.597 -0.2400  0.2122 -0.0336
 1614BOLB   C4D38736  10.243  12.672  22.613 -0.0665 -0.2464 -0.2636
 1615BOLB   NC138737  13.427   9.093  31.964 -0.1303 -0.0046 -0.2125
 1615BOLB   PO138738  13.037   9.307  31.829 -0.4559  0.2726  0.1083
 1615BOLB   GL138739  13.072   9.596  32.255 -0.1134 -0.0234  0.1508
 1615BOLB   GL238740  12.844   9.468  32.268  0.0149  0.0834  0.0676
 1615BOLB   C1A38741  13.128   9.941  32.478 -0.1699 -0.2095 -0.1291
 1615BOLB   C2A38742  13.287  10.244  32.791  0.1232 -0.1445 -0.0652
 1615BOLB   C3A38743  13.277  10.637  32.928 -0.1011 -0.0881  0.1481
 1615BOLB   C4A38744  13.265  10.916  33.296  0.0745  0.0048  0.1072
 1615BOLB   C1B38745  12.526   9.760  32.407 -0.5372 -0.1270  0.4126
 1615BOLB   C2B38746  12.475  10.155  32.589 -0.1346 -0.2804 -0.2161
 1615BOLB   C3B38747  12.453  10.520  32.857 -0.0621 -0.1607  0.0300
 1615BOLB   C4B38748  12.323  10.549  33.279 -0.0071 -0.1101  0.2334
 1615BOLB   NC238749  13.047  12.588  35.287 -0.3082 -0.0436 -0.3018
 1615BOLB   PO238750  12.794  12.287  35.008  0.0059  0.0499  0.1341
 1615BOLB   GL338751  13.046  12.240  34.668 -0.2967  0.1126  0.2031
 1615BOLB   GL438752  13.069  11.941  34.724  0.1137 -0.1339 -0.0753
 1615BOLB   C1C38753  13.353  12.164  34.254 -0.0156 -0.3205 -0.0602
 1615BOLB   C2C38754  13.488  11.851  33.943 -0.0533  0.0485 -0.1536
 1615BOLB   C3C38755  13.748  11.549  33.759 -0.3981  0.0176 -0.0760
 1615BOLB   C4C38756  13.578  11.241  33.485  0.0004  0.1913 -0.0335
 1615BOLB   C1D38757  13.191  11.730  34.355  0.3985  0.1580  0.2334
 1615BOLB   C2D38758  13.189  11.437  33.979  0.3464 -0.1257  0.2116
 1615BOLB   C3D38759  13.134  11.029  33.772 -0.0758 -0.0560  0.3885
 1615BOLB   C4D38760  12.859  10.709  33.828  0.1983  0.0288 -0.1698
 1616BOLB   NC138761  24.531  -4.026  30.402  0.2211 -0.0792 -0.0316
 1616BOLB   PO138762  24.143  -3.971  30.661  0.3620  0.1729 -0.0508
 1616BOLB   GL138763  23.900  -3.848  30.312 -0.1644  0.1421 -0.0456
 1616BOLB   GL238764  24.204  -3.719  30.116 -0.1004  0.0969 -0.0424
 1616BOLB   C1A38765  23.458  -3.899  30.237 -0.0689  0.1436 -0.0372
 1616BOLB   C2A38766  23.063  -3.952  30.184 -0.0214  0.1550  0.0941
 1616BOLB   C3A38767  22.832  -3.566  29.963 -0.0401  0.0987 -0.0132
 1616BOLB   C4A38768  22.778  -3.508  29.504 -0.0123  0.1086 -0.1793
 1616BOLB   C1B38769  23.944  -3.728  29.727  0.2100  0.0189 -0.1413
 1616BOLB   C2B38770  23.649  -3.531  29.428  0.0656 -0.1359 -0.0354
 1616BOLB   C3B38771  23.305  -3.816  29.275 -0.1127  0.1119  0.0228
 1616BOLB   C4B38772  23.238  -4.276  29.475  0.0450  0.1002 -0.0384
 1616BOLB   NC238773  24.676  -3.652  29.923  0.5235  0.1197 -0.0796
 1616BOLB   PO238774  24.615  -3.839  29.540 -0.0035 -0.0319  0.2049
 1616BOLB   GL338775  24.266  -3.651  29.243 -0.0693  0.2060  0.1433
 1616BOLB   GL438776  24.130  -3.916  29.034 -0.2028 -0.1539  0.0265
 1616BOLB   C1C38777  24.021  -3.279  29.085 -0.0559  0.0730 -0.0003
 1616BOLB   C2C38778  23.695  -3.028  29.168  0.0842  0.1173  0.1291
 1616BOLB   C3C38779  23.313  -3.186  29.307 -0.2150 -0.1562 -0.0344
 1616BOLB   C4C38780  22.965  -3.322  29.156 -0.1696 -0.0776  0.2341
 1616BOLB   C1D38781  23.734  -3.663  28.950 -0.1822 -0.0371 -0.0349
 1616BOLB   C2D38782  23.528  -3.338  28.746  0.2472 -0.2345 -0.1163
 1616BOLB   C3D38783  23.243  -3.018  28.777 -0.0730 -0.0590  0.2560
 1616BOLB   C4D38784  23.103  -2.782  29.025 -0.0927 -0.2208  0.1908
 1617BOLB   NC138785  13.274  -1.089  30.720  0.0621  0.4023 -0.0438
 1617BOLB   PO138786  13.448  -1.454  30.527  0.1034 -0.3429 -0.3440
 1617BOLB   GL138787  13.395  -1.846  30.643  0.0854 -0.1823 -0.1049
 1617BOLB   GL238788  13.597  -2.082  30.691  0.1755 -0.0660 -0.1724
 1617BOLB   C1A38789  13.081  -2.075  30.924 -0.1218  0.0505  0.1202
 1617BOLB   C2A38790  12.989  -2.442  31.150 -0.1714 -0.1736 -0.0825
 1617BOLB   C3A38791  12.804  -2.683  31.147 -0.0709 -0.2552  0.1959
 1617BOLB   C4A38792  12.911  -3.169  31.154 -0.1499 -0.1772 -0.1860
 1617BOLB   C1B38793  13.458  -2.302  31.088 -0.3767  0.0476 -0.0462
 1617BOLB   C2B38794  13.404  -2.187  31.534  0.1846 -0.0185  0.0487
 1617BOLB   C3B38795  13.382  -2.127  31.915  0.3677  0.3178  0.0051
 1617BOLB   C4B38796  13.088  -2.011  32.184  0.0937 -0.0671  0.5978
 1617BOLB   NC238797  12.215  -5.718  31.295 -0.3768 -0.1028  0.1391
 1617BOLB   PO238798  12.531  -5.607  31.583  0.1796 -0.1664 -0.2743
 1617BOLB   GL338799  12.623  -5.165  31.489  0.0856  0.0779 -0.2166
 1617BOLB   GL438800  12.400  -5.131  31.166 -0.1915 -0.0905  0.3675
 1617BOLB   C1C38801  12.704  -4.703  31.432  0.0581 -0.1081  0.2070
 1617BOLB   C2C38802  12.850  -4.342  31.134 -0.2798  0.1180  0.1130
 1617BOLB   C3C38803  12.959  -3.982  30.920  0.2901  0.1036  0.1362
 1617BOLB   C4C38804  13.088  -3.595  31.021 -0.0956  0.0096  0.1554
 1617BOLB   C1D38805  12.654  -4.872  30.960  0.3091  0.1001  0.1692
 1617BOLB   C2D38806  12.976  -4.584  30.695 -0.3150 -0.1002 -0.0036
 1617BOLB   C3D38807  13.028  -4.283  30.298  0.0655 -0.1230  0.4620
 1617BOLB   C4D38808  12.780  -3.986  29.962 -0.2345  0.2578 -0.1532
 1618BOLB   NC138809   8.841   0.656  28.697 -0.0874  0.0567  0.1979
 1618BOLB   PO138810   8.604   0.981  28.867  0.1512  0.2246  0.0645
 1618BOLB   GL138811   8.339   0.530  28.887 -0.4201  0.0013  0.1067
 1618BOLB   GL238812   8.551   0.273  28.955 -0.1883 -0.1504 -0.3357
 1618BOLB   C1A38813   7.903   0.391  28.928 -0.3223  0.1812  0.1650
 1618BOLB   C2A38814   7.548   0.322  29.128 -0.1277  0.1032  0.2938
 1618BOLB   C3A38815   7.107   0.208  29.071  0.1179 -0.3823 -0.2876
 1618BOLB   C4A38816   6.856  -0.111  29.276 -0.4212 -0.1203  0.0380
 1618BOLB   C1B38817   8.249   0.133  29.174 -0.3438  0.1035  0.1572
 1618BOLB   C2B38818   7.870  -0.063  29.059  0.1414 -0.3174 -0.0286
 1618BOLB   C3B38819   7.773  -0.329  28.792  0.1919 -0.4692  0.0484
 1618BOLB   C4B38820   7.549  -0.592  28.623  0.1895  0.0759  0.0711
 1618BOLB   NC238821   4.931  -1.968  29.469  0.0834 -0.3221 -0.1453
 1618BOLB   PO238822   5.342  -1.831  29.745  0.2030 -0.3059 -0.0564
 1618BOLB   GL338823   5.860  -1.667  29.807  0.0302 -0.0638 -0.2372
 1618BOLB   GL438824   6.095  -1.627  30.098  0.0448 -0.1602 -0.1736
 1618BOLB   C1C38825   6.253  -1.441  29.687  0.0406 -0.1345  0.2616
 1618BOLB   C2C38826   6.595  -1.366  29.330  0.0588  0.0066 -0.0197
 1618BOLB   C3C38827   6.821  -1.029  29.336  0.1571  0.0398  0.0966
 1618BOLB   C4C38828   6.622  -0.585  29.257 -0.0248  0.0892 -0.5208
 1618BOLB   C1D38829   6.480  -1.320  30.107 -0.3475  0.2744 -0.4506
 1618BOLB   C2D38830   6.840  -1.300  29.879  0.2142  0.0412  0.0755
 1618BOLB   C3D38831   7.156  -1.015  29.660  0.5287 -0.1510 -0.1724
 1618BOLB   C4D38832   7.137  -0.643  29.496  0.0780  0.1052  0.1974
 1619BOLB   NC138833  14.010   2.539  33.189  0.0971  0.0497  0.0102
 1619BOLB   PO138834  13.589   2.488  33.222 -0.0298 -0.1823 -0.1681
 1619BOLB   GL138835  13.601   2.327  33.547 -0.2211  0.1718 -0.2155
 1619BOLB   GL238836  13.487   2.498  33.868 -0.0975 -0.1424 -0.0339
 1619BOLB   C1A38837  13.652   1.990  33.767 -0.0383  0.2099 -0.1967
 1619BOLB   C2A38838  13.601   1.979  34.282  0.0505 -0.1693  0.0837
 1619BOLB   C3A38839  13.813   2.103  34.527  0.1196  0.2718 -0.0293
 1619BOLB   C4A38840  13.941   2.206  34.903  0.1442  0.0149  0.3216
 1619BOLB   C1B38841  13.243   2.424  34.261  0.0036 -0.1452  0.0990
 1619BOLB   C2B38842  12.947   2.385  34.620 -0.1665 -0.0282 -0.2302
 1619BOLB   C3B38843  12.523   2.501  34.659 -0.0234  0.1687 -0.2694
 1619BOLB   C4B38844  12.119   2.711  34.483  0.2381  0.1229 -0.1000
 1619BOLB   NC238845  14.504   1.261  37.429 -0.1085 -0.0679  0.0031
 1619BOLB   PO238846  14.460   1.558  37.185  0.2904 -0.1875  0.0502
 1619BOLB   GL338847  14.297   1.644  36.753  0.3055  0.0290  0.3011
 1619BOLB   GL438848  14.305   1.353  36.604  0.0084  0.0367  0.0158
 1619BOLB   C1C38849  14.410   1.821  36.411 -0.1287  0.2869  0.1573
 1619BOLB   C2C38850  14.513   1.890  35.991 -0.0935 -0.0083 -0.3759
 1619BOLB   C3C38851  14.442   2.037  35.601 -0.4251  0.1456 -0.0109
 1619BOLB   C4C38852  14.179   2.150  35.306 -0.1153  0.0056 -0.1642
 1619BOLB   C1D38853  14.495   1.338  36.156  0.0884  0.2274  0.4799
 1619BOLB   C2D38854  14.562   1.550  35.671  0.2314  0.1086 -0.0600
 1619BOLB   C3D38855  14.887   1.522  35.451  0.1412 -0.0177  0.2277
 1619BOLB   C4D38856  15.181   1.410  35.259 -0.3377  0.0544  0.1525
 1620BOLB   NC138857  10.519   0.167  30.408 -0.0297 -0.1923  0.3908
 1620BOLB   PO138858  10.404  -0.024  30.059  0.4191 -0.2197 -0.0978
 1620BOLB   GL138859  10.375  -0.317  30.409  0.0890  0.0224 -0.2664
 1620BOLB   GL238860  10.239  -0.488  30.409 -0.2768 -0.0131  0.1794
 1620BOLB   C1A38861  10.284  -0.389  30.862  0.0907  0.0951 -0.2767
 1620BOLB   C2A38862   9.941  -0.548  31.042 -0.2221 -0.1824 -0.0729
 1620BOLB   C3A38863   9.634  -0.933  30.996 -0.0949 -0.0539 -0.1599
 1620BOLB   C4A38864   9.579  -1.205  31.281 -0.2476 -0.2099 -0.0840
 1620BOLB   C1B38865  10.058  -0.820  30.571  0.0434 -0.1744 -0.3082
 1620BOLB   C2B38866   9.738  -1.076  30.442  0.0233  0.1841 -0.1358
 1620BOLB   C3B38867   9.507  -1.406  30.605  0.1191 -0.1937 -0.1938
 1620BOLB   C4B38868   9.130  -1.509  30.456  0.0659 -0.0003  0.1525
 1620BOLB   NC238869   7.347  -2.690  32.310  0.0579  0.2359  0.1284
 1620BOLB   PO238870   7.719  -2.581  32.416  0.0261  0.2317 -0.2833
 1620BOLB   GL338871   8.024  -2.227  32.187 -0.1667  0.1497 -0.2049
 1620BOLB   GL438872   8.338  -2.339  32.239 -0.1147  0.2710  0.0497
 1620BOLB   C1C38873   8.243  -1.900  32.085 -0.0045  0.1171  0.1429
 1620BOLB   C2C38874   8.592  -1.687  31.867  0.1276 -0.1322 -0.4078
 1620BOLB   C3C38875   9.022  -1.598  31.709  0.1674 -0.0713  0.0564
 1620BOLB   C4C38876   9.433  -1.413  31.619 -0.0499  0.2423 -0.2541
 1620BOLB   C1D38877   8.625  -2.186  31.938 -0.1407  0.0133  0.0216
 1620BOLB   C2D38878   8.758  -2.001  31.515 -0.2008  0.0919 -0.0902
 1620BOLB   C3D38879   8.646  -2.148  31.186 -0.2201  0.2456 -0.2105
 1620BOLB   C4D38880   8.978  -2.303  30.840 -0.2527 -0.3388 -0.0587
 1621BOLB   NC138881  10.903  -2.746  22.804  0.0663  0.2275  0.1542
 1621BOLB   PO138882  10.755  -2.899  22.441 -0.0107 -0.2152  0.1320
 1621BOLB   GL138883  10.394  -3.115  22.401 -0.0557  0.3154  0.0121
 1621BOLB   GL238884  10.190  -3.051  22.175 -0.1327 -0.0602 -0.2065
 1621BOLB   C1A38885  10.195  -3.450  22.491  0.0720  0.0484  0.1246
 1621BOLB   C2A38886   9.926  -3.846  22.438  0.0600 -0.0771 -0.2294
 1621BOLB   C3A38887   9.806  -4.168  22.727 -0.0210 -0.0820 -0.4098
 1621BOLB   C4A38888   9.591  -4.488  22.665  0.1145  0.0616  0.1106
 1621BOLB   C1B38889   9.810  -3.186  22.074  0.1375  0.0283  0.0562
 1621BOLB   C2B38890   9.563  -3.334  21.770 -0.0128 -0.0337  0.1968
 1621BOLB   C3B38891   9.327  -3.615  21.483 -0.3776 -0.3989 -0.0129
 1621BOLB   C4B38892   9.017  -3.994  21.428  0.0147 -0.1218  0.0707
 1621BOLB   NC238893   8.287  -6.003  21.782  0.1174 -0.1906  0.3368
 1621BOLB   PO238894   8.335  -6.190  22.159  0.0128 -0.0984 -0.0591
 1621BOLB   GL338895   8.546  -5.818  22.139 -0.1728 -0.0079  0.0843
 1621BOLB   GL438896   8.760  -5.895  21.964 -0.3189 -0.0174 -0.1199
 1621BOLB   C1C38897   8.856  -5.485  22.180 -0.0201  0.2698 -0.2028
 1621BOLB   C2C38898   8.961  -5.204  22.329  0.1033 -0.0795 -0.0170
 1621BOLB   C3C38899   9.009  -4.794  22.392  0.1070 -0.0426  0.4356
 1621BOLB   C4C38900   9.403  -4.541  22.405 -0.0223 -0.1610  0.0114
 1621BOLB   C1D38901   8.917  -5.968  22.452 -0.3953  0.0040 -0.0243
 1621BOLB   C2D38902   9.191  -5.904  22.744 -0.1788  0.2919 -0.0036
 1621BOLB   C3D38903   9.589  -5.857  22.813 -0.0820 -0.1050  0.1494
 1621BOLB   C4D38904   9.939  -5.604  23.073  0.0268  0.4993 -0.2300
 1622BOLB   NC138905   9.914   3.644  19.455  0.0874  0.1591  0.0345
 1622BOLB   PO138906   9.816   3.255  19.189 -0.1856 -0.2828 -0.4024
 1622BOLB   GL138907   9.432   3.430  18.850  0.0983  0.1850 -0.3331
 1622BOLB   GL238908   9.300   3.630  19.001 -0.2077  0.0194  0.0763
 1622BOLB   C1A38909   9.182   3.491  18.467  0.3487 -0.0601 -0.2895
 1622BOLB   C2A38910   9.209   3.773  18.057  0.1348  0.1093 -0.1073
 1622BOLB   C3A38911   9.097   3.754  17.634  0.2203  0.0626 -0.2332
 1622BOLB   C4A38912   8.695   3.641  17.408 -0.2087  0.0410  0.2717
 1622BOLB   C1B38913   9.434   3.930  18.631  0.2435 -0.0650 -0.0287
 1622BOLB   C2B38914   9.294   4.108  18.384 -0.1937 -0.1603  0.1526
 1622BOLB   C3B38915   9.221   4.462  18.123 -0.0653  0.0545  0.0789
 1622BOLB   C4B38916   9.459   4.728  17.826 -0.0885  0.1667  0.2845
 1622BOLB   NC238917   8.148   3.207  15.046 -0.1439  0.1692 -0.4897
 1622BOLB   PO238918   7.841   2.927  15.214  0.0836 -0.0102  0.0926
 1622BOLB   GL338919   8.043   3.096  15.661  0.0335 -0.2995 -0.4551
 1622BOLB   GL438920   8.389   3.005  15.478 -0.0144  0.2394  0.1194
 1622BOLB   C1C38921   8.118   3.120  16.031 -0.1937  0.2012 -0.3370
 1622BOLB   C2C38922   8.388   3.241  16.255 -0.2581  0.0862 -0.2081
 1622BOLB   C3C38923   8.501   3.390  16.664 -0.2908  0.0128 -0.0972
 1622BOLB   C4C38924   8.372   3.499  17.170  0.1114  0.1888  0.4597
 1622BOLB   C1D38925   8.587   2.995  15.876  0.0723 -0.0247 -0.0913
 1622BOLB   C2D38926   8.785   2.816  16.142 -0.1127 -0.0778  0.0218
 1622BOLB   C3D38927   8.999   2.938  16.436 -0.0199 -0.0026  0.0683
 1622BOLB   C4D38928   9.275   3.148  16.764  0.5309 -0.0535 -0.1070
 1623BOLB   NC138929  15.609  -1.513  29.969  0.1043 -0.0305  0.0958
 1623BOLB   PO138930  15.596  -1.779  30.277 -0.2364 -0.2074  0.3735
 1623BOLB   GL138931  15.631  -2.125  30.526  0.2724 -0.2056 -0.1439
 1623BOLB   GL238932  15.898  -2.071  30.611 -0.1864  0.1632  0.0160
 1623BOLB   C1A38933  15.504  -2.432  30.964 -0.1955 -0.0724 -0.0812
 1623BOLB   C2A38934  15.505  -2.672  31.143  0.1840  0.1331 -0.1931
 1623BOLB   C3A38935  15.349  -3.041  31.372 -0.3347 -0.0407  0.2071
 1623BOLB   C4A38936  15.108  -3.418  31.509  0.0662 -0.1097  0.0219
 1623BOLB   C1B38937  15.989  -2.408  30.943  0.1596  0.1700  0.2013
 1623BOLB   C2B38938  16.083  -2.618  31.373  0.0105 -0.3414  0.1005
 1623BOLB   C3B38939  16.209  -2.842  31.659 -0.1676 -0.0182 -0.1260
 1623BOLB   C4B38940  16.181  -3.247  31.930 -0.1659 -0.0969 -0.0139
 1623BOLB   NC238941  15.295  -4.231  33.721  0.0703 -0.0020 -0.0350
 1623BOLB   PO238942  14.907  -4.301  33.600  0.1451 -0.1045  0.0077
 1623BOLB   GL338943  15.034  -4.034  33.244  0.3442 -0.1694 -0.1915
 1623BOLB   GL438944  15.086  -3.822  33.436 -0.1567 -0.0812  0.4251
 1623BOLB   C1C38945  15.030  -3.908  32.923 -0.1721  0.1502  0.0331
 1623BOLB   C2C38946  14.961  -4.060  32.613  0.1744  0.0955  0.1458
 1623BOLB   C3C38947  15.084  -3.773  32.261 -0.4493  0.1809 -0.0409
 1623BOLB   C4C38948  15.059  -3.541  31.888  0.4292 -0.2470 -0.0456
 1623BOLB   C1D38949  15.216  -3.421  33.150 -0.1443 -0.0988  0.0182
 1623BOLB   C2D38950  15.599  -3.173  33.084  0.1347  0.0172  0.1378
 1623BOLB   C3D38951  15.613  -2.877  32.735 -0.1758 -0.0362  0.0826
 1623BOLB   C4D38952  15.475  -2.817  32.318  0.1738 -0.0208 -0.1931
 1624BOLB   NC138953  23.511   6.407  28.801 -0.3709  0.0697  0.0946
 1624BOLB   PO138954  24.019   6.388  28.877 -0.3104 -0.0221  0.0900
 1624BOLB   GL138955  24.221   6.576  29.164 -0.0678 -0.3441  0.3494
 1624BOLB   GL238956  24.042   6.714  29.475  0.0290 -0.1220  0.1481
 1624BOLB   C1A38957  24.651   6.716  29.227 -0.0058  0.3656 -0.0793
 1624BOLB   C2A38958  24.975   6.935  29.550 -0.0260  0.0074 -0.2925
 1624BOLB   C3A38959  25.211   7.077  29.925 -0.0247  0.1763  0.2792
 1624BOLB   C4A38960  25.477   7.229  30.242 -0.0025 -0.1123  0.1096
 1624BOLB   C1B38961  24.314   6.750  29.857  0.2832 -0.0423 -0.0088
 1624BOLB   C2B38962  24.423   6.957  30.339 -0.5810 -0.0086 -0.2025
 1624BOLB   C3B38963  24.553   7.254  30.727 -0.1659  0.2151  0.1573
 1624BOLB   C4B38964  24.393   7.586  30.903  0.0190  0.0055 -0.0197
 1624BOLB   NC238965  27.116   8.657  31.089 -0.4319 -0.0473 -0.0046
 1624BOLB   PO238966  27.158   8.270  30.824  0.0211  0.0880 -0.0103
 1624BOLB   GL338967  26.865   7.912  30.795 -0.0391 -0.0272  0.1344
 1624BOLB   GL438968  26.634   7.785  31.171 -0.2017  0.1801 -0.2689
 1624BOLB   C1C38969  26.800   7.500  30.806  0.2694 -0.2401 -0.1308
 1624BOLB   C2C38970  26.631   7.284  30.668 -0.0823  0.0952  0.1915
 1624BOLB   C3C38971  26.284   7.153  30.473  0.2207 -0.0886  0.3601
 1624BOLB   C4C38972  25.805   7.201  30.297  0.1496 -0.4421 -0.0861
 1624BOLB   C1D38973  26.321   7.697  30.922  0.2603 -0.2041  0.2785
 1624BOLB   C2D38974  25.990   7.608  30.649  0.1123 -0.0637 -0.0211
 1624BOLB   C3D38975  25.796   7.764  30.365 -0.1083 -0.0125 -0.3540
 1624BOLB   C4D38976  25.282   7.840  30.459  0.2550 -0.1874  0.2274
 1625BOLB   NC138977  22.425   7.411  21.811 -0.2454  0.1924  0.1808
 1625BOLB   PO138978  22.732   7.042  21.774  0.2967 -0.0892  0.0306
 1625BOLB   GL138979  23.128   7.258  21.488  0.0138 -0.5142  0.2084
 1625BOLB   GL238980  23.388   7.105  21.500 -0.1580 -0.2564  0.1957
 1625BOLB   C1A38981  23.412   7.527  21.143 -0.0718 -0.0916  0.0348
 1625BOLB   C2A38982  23.888   7.551  20.952 -0.1209  0.1034 -0.0392
 1625BOLB   C3A38983  24.249   7.821  21.054  0.2365  0.0390 -0.2392
 1625BOLB   C4A38984  24.666   7.859  20.963 -0.0185 -0.0425 -0.0089
 1625BOLB   C1B38985  23.772   7.315  21.581 -0.0462 -0.2318  0.3158
 1625BOLB   C2B38986  24.096   7.458  21.376  0.0111  0.1563 -0.0429
 1625BOLB   C3B38987  24.378   7.871  21.608 -0.0362  0.1979  0.3619
 1625BOLB   C4B38988  24.731   8.033  21.490 -0.1605 -0.1184  0.0554
 1625BOLB   NC238989  26.773   6.974  19.966 -0.1741  0.0508  0.2245
 1625BOLB   PO238990  26.941   7.390  20.081  0.2425  0.0561 -0.2594
 1625BOLB   GL338991  26.452   7.357  20.171  0.1264  0.1009  0.2089
 1625BOLB   GL438992  26.363   7.138  20.240 -0.1004  0.1033 -0.1257
 1625BOLB   C1C38993  25.968   7.447  20.244 -0.0079  0.1043  0.2051
 1625BOLB   C2C38994  25.608   7.432  20.481 -0.2034 -0.1388 -0.1748
 1625BOLB   C3C38995  25.406   7.554  20.844 -0.1014 -0.0857 -0.0379
 1625BOLB   C4C38996  25.081   7.702  21.158 -0.3044  0.1773  0.3241
 1625BOLB   C1D38997  26.028   6.926  20.254 -0.0722  0.0859  0.1432
 1625BOLB   C2D38998  25.623   6.600  20.025 -0.0198 -0.0748 -0.0075
 1625BOLB   C3D38999  25.132   6.738  19.987 -0.2020  0.0046  0.0170
 1625BOLB   C4D39000  24.826   7.045  20.001  0.0092  0.2537 -0.0559
 1626BOLB   NC139001  14.370   7.221  33.626  0.3905 -0.1217 -0.0931
 1626BOLB   PO139002  14.286   7.696  33.463 -0.0710 -0.0243  0.3383
 1626BOLB   GL139003  14.083   7.686  33.897 -0.0541 -0.2808  0.2729
 1626BOLB   GL239004  13.996   8.038  33.837 -0.0456  0.2781 -0.1056
 1626BOLB   C1A39005  14.043   7.533  34.245 -0.4048  0.0372  0.1878
 1626BOLB   C2A39006  13.982   7.422  34.675 -0.0086 -0.3353 -0.0280
 1626BOLB   C3A39007  13.911   7.246  35.072 -0.0053 -0.0705  0.4198
 1626BOLB   C4A39008  13.834   7.030  35.416  0.0187  0.1110  0.3696
 1626BOLB   C1B39009  13.774   8.292  34.094 -0.2449  0.3208  0.0127
 1626BOLB   C2B39010  14.111   8.472  34.449 -0.2255 -0.1425  0.2098
 1626BOLB   C3B39011  14.553   8.195  34.611 -0.1930 -0.0448  0.0647
 1626BOLB   C4B39012  14.794   7.813  34.432 -0.1510 -0.1290 -0.1107
 1626BOLB   NC239013  13.990   7.945  37.659  0.0236 -0.1590  0.1124
 1626BOLB   PO239014  13.896   7.546  37.732  0.0580 -0.1176  0.3289
 1626BOLB   GL339015  14.046   7.444  37.327 -0.0032 -0.0095  0.2427
 1626BOLB   GL439016  13.843   7.080  37.162  0.0188 -0.0657 -0.1120
 1626BOLB   C1C39017  14.125   7.379  36.914  0.0839  0.1350 -0.0226
 1626BOLB   C2C39018  13.902   7.467  36.468 -0.1667  0.1653 -0.0984
 1626BOLB   C3C39019  13.946   7.360  36.021 -0.1732  0.2637  0.1617
 1626BOLB   C4C39020  13.984   7.023  35.830  0.1078  0.1141  0.1879
 1626BOLB   C1D39021  14.004   6.852  36.806  0.0881  0.1525  0.1012
 1626BOLB   C2D39022  14.262   6.520  36.494  0.1190 -0.1269 -0.0728
 1626BOLB   C3D39023  14.104   6.060  36.289 -0.1576 -0.0324 -0.2454
 1626BOLB   C4D39024  13.885   5.746  35.925 -0.1499 -0.1110  0.0215
 1627BOLB   NC139025   7.256   2.813  22.058 -0.0242  0.2131  0.0768
 1627BOLB   PO139026   7.566   2.817  22.377  0.2345  0.2943 -0.2335
 1627BOLB   GL139027   7.155   2.809  22.652 -0.0539 -0.1955 -0.3156
 1627BOLB   GL239028   7.111   2.522  22.825  0.2137 -0.0059 -0.1390
 1627BOLB   C1A39029   6.876   3.132  22.534 -0.1529 -0.0893 -0.1643
 1627BOLB   C2A39030   6.461   3.054  22.626 -0.1068 -0.0633 -0.0894
 1627BOLB   C3A39031   6.174   2.763  22.556  0.0074 -0.3278  0.0414
 1627BOLB   C4A39032   5.802   2.498  22.711  0.0874  0.2486  0.0326
 1627BOLB   C1B39033   6.667   2.554  22.558  0.0305  0.2326 -0.1153
 1627BOLB   C2B39034   6.302   2.282  22.690  0.2533 -0.0627 -0.0017
 1627BOLB   C3B39035   5.908   1.999  22.745  0.1669  0.0406  0.0233
 1627BOLB   C4B39036   5.587   2.118  23.011 -0.0269 -0.0410  0.0639
 1627BOLB   NC239037   3.481   1.951  22.561  0.0627  0.0396 -0.0804
 1627BOLB   PO239038   3.461   2.369  22.187 -0.1439 -0.1861 -0.2454
 1627BOLB   GL339039   3.861   2.308  22.417  0.2426  0.1760  0.0424
 1627BOLB   GL439040   3.804   2.279  22.772 -0.0775  0.1957 -0.3798
 1627BOLB   C1C39041   4.244   2.191  22.573  0.2671  0.1625  0.2356
 1627BOLB   C2C39042   4.653   2.129  22.753 -0.1448 -0.2376  0.1184
 1627BOLB   C3C39043   5.028   2.260  22.897  0.0606 -0.0800 -0.4797
 1627BOLB   C4C39044   5.406   2.510  22.793  0.1149 -0.0123 -0.0383
 1627BOLB   C1D39045   4.202   2.422  22.992 -0.2521  0.0093  0.0590
 1627BOLB   C2D39046   4.585   2.561  22.969  0.0512 -0.1115  0.7048
 1627BOLB   C3D39047   4.880   2.701  22.716  0.2525 -0.0042 -0.0883
 1627BOLB   C4D39048   5.165   2.621  22.383  0.1906  0.1201  0.5241
 1628BOLB   NC139049  26.186   0.537  32.908  0.6148  0.2661 -0.1409
 1628BOLB   PO139050  26.026   0.570  32.512  0.1737 -0.4240  0.4015
 1628BOLB   GL139051  26.115   0.681  32.093  0.2043 -0.1521  0.2364
 1628BOLB   GL239052  26.423   0.940  32.140 -0.1909 -0.0825 -0.0157
 1628BOLB   C1A39053  26.153   0.728  31.586 -0.0164  0.2046 -0.2685
 1628BOLB   C2A39054  26.098   0.883  31.179  0.1053  0.0184 -0.1462
 1628BOLB   C3A39055  26.133   1.020  30.708  0.3401  0.0399  0.0311
 1628BOLB   C4A39056  26.139   1.117  30.339  0.0405 -0.0050 -0.0696
 1628BOLB   C1B39057  26.318   1.172  31.766  0.1765 -0.0353 -0.1999
 1628BOLB   C2B39058  26.318   1.437  31.324  0.4067  0.0003  0.1037
 1628BOLB   C3B39059  26.189   1.550  30.800 -0.0245 -0.1978  0.0359
 1628BOLB   C4B39060  26.127   1.702  30.414 -0.0171 -0.0527 -0.2279
 1628BOLB   NC239061  24.429   3.179  29.484  0.3201 -0.0012 -0.1171
 1628BOLB   PO239062  24.557   2.734  29.504  0.2331 -0.0638 -0.3495
 1628BOLB   GL339063  24.693   2.409  29.823 -0.2200 -0.4577 -0.0917
 1628BOLB   GL439064  24.574   2.078  29.722  0.2648  0.0349  0.1932
 1628BOLB   C1C39065  25.081   2.306  29.788 -0.4773  0.0317 -0.2137
 1628BOLB   C2C39066  25.436   2.066  30.021  0.1891 -0.1138  0.0793
 1628BOLB   C3C39067  25.704   1.739  30.103  0.1456 -0.0967 -0.0118
 1628BOLB   C4C39068  25.893   1.289  30.145  0.2228 -0.0415  0.1318
 1628BOLB   C1D39069  24.487   1.782  29.960 -0.1147  0.2737 -0.0152
 1628BOLB   C2D39070  24.638   1.488  30.361 -0.1777  0.0441 -0.2092
 1628BOLB   C3D39071  24.793   1.471  30.817  0.0395  0.1645  0.2474
 1628BOLB   C4D39072  24.484   1.569  31.153  0.0662 -0.0287 -0.2423
 1629BOLB   NC139073  24.455   6.302  26.126 -0.0031  0.0359 -0.1827
 1629BOLB   PO139074  24.676   5.879  26.137 -0.0736 -0.0291 -0.0539
 1629BOLB   GL139075  25.006   5.743  26.041 -0.1068 -0.0747 -0.3147
 1629BOLB   GL239076  24.995   5.628  25.684  0.0291 -0.0981 -0.3332
 1629BOLB   C1A39077  25.368   5.811  26.199 -0.0109  0.0954  0.0429
 1629BOLB   C2A39078  25.557   6.191  26.274  0.1044 -0.0543  0.1555
 1629BOLB   C3A39079  25.853   6.412  26.100  0.3974 -0.1175  0.3918
 1629BOLB   C4A39080  26.245   6.575  26.013 -0.2501  0.0916  0.0483
 1629BOLB   C1B39081  25.420   5.753  25.484  0.0167 -0.3748 -0.1745
 1629BOLB   C2B39082  25.713   6.047  25.240  0.1615 -0.0110  0.1603
 1629BOLB   C3B39083  26.174   5.940  25.232  0.0142  0.0318 -0.0948
 1629BOLB   C4B39084  26.458   5.873  25.579 -0.0208  0.1524 -0.4813
 1629BOLB   NC239085  28.111   7.935  25.990 -0.0531 -0.0454  0.1469
 1629BOLB   PO239086  28.373   7.768  25.551  0.3677 -0.0774 -0.1326
 1629BOLB   GL339087  28.044   7.473  25.486  0.0536 -0.1698 -0.3254
 1629BOLB   GL439088  27.831   7.401  25.172 -0.1102  0.1051 -0.1426
 1629BOLB   C1C39089  27.808   7.094  25.686 -0.0322  0.5025  0.2076
 1629BOLB   C2C39090  27.320   7.103  25.863  0.0512 -0.0688  0.1105
 1629BOLB   C3C39091  26.845   7.136  25.910 -0.0603 -0.0079 -0.3886
 1629BOLB   C4C39092  26.473   6.927  25.949 -0.1427 -0.5320  0.3710
 1629BOLB   C1D39093  27.551   7.533  25.414  0.2924 -0.0571 -0.1488
 1629BOLB   C2D39094  27.151   7.565  25.529  0.2435  0.0966 -0.0168
 1629BOLB   C3D39095  26.899   7.783  25.259 -0.0555 -0.1640  0.1711
 1629BOLB   C4D39096  26.958   7.704  24.757  0.1798  0.3591 -0.1192
 1630BOLB   NC139097  20.108   9.832  30.274 -0.1064  0.2026  0.1088
 1630BOLB   PO139098  20.277   9.488  29.973 -0.0624  0.4642 -0.1822
 1630BOLB   GL139099  20.696   9.600  30.205  0.0882 -0.0442  0.2263
 1630BOLB   GL239100  20.640   9.895  30.339  0.2345  0.1847 -0.1946
 1630BOLB   C1A39101  21.110   9.726  30.342  0.4398  0.0354 -0.2564
 1630BOLB   C2A39102  21.315   9.779  30.754  0.0459  0.1981  0.1538
 1630BOLB   C3A39103  21.497  10.142  30.935 -0.1246 -0.3823 -0.0140
 1630BOLB   C4A39104  21.683  10.501  31.129  0.0564 -0.0538 -0.1583
 1630BOLB   C1B39105  20.584  10.048  30.714 -0.3353  0.1157  0.0807
 1630BOLB   C2B39106  20.654  10.344  31.018  0.0511  0.0419 -0.3986
 1630BOLB   C3B39107  20.840  10.676  31.186 -0.2934 -0.0539 -0.4223
 1630BOLB   C4B39108  21.270  10.647  31.425 -0.0598  0.0125 -0.3681
 1630BOLB   NC239109  23.046  12.163  32.551 -0.1785 -0.0772 -0.1003
 1630BOLB   PO239110  23.291  12.143  32.146 -0.0814  0.3897 -0.1177
 1630BOLB   GL339111  23.062  11.740  31.997  0.1761  0.0000 -0.0597
 1630BOLB   GL439112  23.071  11.662  32.306 -0.4234  0.1649  0.0137
 1630BOLB   C1C39113  23.024  11.202  31.909 -0.0699  0.1152  0.4177
 1630BOLB   C2C39114  22.561  11.086  31.809 -0.1645 -0.1464  0.2145
 1630BOLB   C3C39115  22.334  11.017  31.434 -0.1385 -0.2124  0.2445
 1630BOLB   C4C39116  22.126  10.663  31.302 -0.0630  0.0801  0.1541
 1630BOLB   C1D39117  22.732  11.308  32.258 -0.3137 -0.2049  0.1272
 1630BOLB   C2D39118  22.560  10.894  32.394 -0.1636  0.3235  0.1405
 1630BOLB   C3D39119  22.553  10.523  32.140  0.1949  0.1496  0.2662
 1630BOLB   C4D39120  22.792  10.197  31.901  0.1222  0.2128  0.1988
 1631BOLB   NC139121  12.789  -4.228  24.373  0.3216  0.0331 -0.1231
 1631BOLB   PO139122  12.563  -4.276  23.937 -0.1946 -0.1019  0.1299
 1631BOLB   GL139123  12.339  -4.610  23.967  0.3681  0.1225  0.3148
 1631BOLB   GL239124  12.030  -4.694  23.858 -0.1864 -0.0103 -0.1393
 1631BOLB   C1A39125  12.363  -4.978  24.208 -0.2525 -0.0363 -0.0426
 1631BOLB   C2A39126  12.111  -5.349  24.198  0.0908 -0.0070  0.1976
 1631BOLB   C3A39127  11.976  -5.753  24.408 -0.1666 -0.2263 -0.1787
 1631BOLB   C4A39128  11.834  -6.166  24.446  0.1077  0.3100 -0.0047
 1631BOLB   C1B39129  12.044  -5.168  23.728  0.2454 -0.1636  0.0345
 1631BOLB   C2B39130  11.692  -5.451  23.793  0.2591 -0.2274 -0.3028
 1631BOLB   C3B39131  11.338  -5.648  23.883 -0.2524 -0.1849  0.0732
 1631BOLB   C4B39132  10.954  -5.698  24.148 -0.1574 -0.1907 -0.2894
 1631BOLB   NC239133  10.754  -7.741  25.377 -0.2946  0.1389 -0.3846
 1631BOLB   PO239134  10.384  -7.778  25.145 -0.3530 -0.2715  0.1605
 1631BOLB   GL339135  10.607  -7.388  25.062 -0.2125 -0.0203 -0.1325
 1631BOLB   GL439136  10.756  -7.228  25.345  0.1628  0.2603 -0.1711
 1631BOLB   C1C39137  10.914  -7.061  24.836  0.2700  0.0303  0.6607
 1631BOLB   C2C39138  11.274  -7.019  25.004 -0.0347 -0.2254  0.2527
 1631BOLB   C3C39139  11.643  -6.902  24.812 -0.2990 -0.0004  0.1163
 1631BOLB   C4C39140  11.805  -6.636  24.628 -0.1156 -0.2104 -0.0410
 1631BOLB   C1D39141  10.781  -6.843  25.326  0.0510  0.1275 -0.1210
 1631BOLB   C2D39142  10.791  -6.369  25.416  0.1629  0.1274  0.3258
 1631BOLB   C3D39143  10.935  -5.990  25.135  0.2354  0.2167 -0.2330
 1631BOLB   C4D39144  11.235  -5.812  24.946  0.0695  0.3808 -0.2016
 1632BOLB   NC139145  11.668   1.649  13.110  0.3909 -0.0628 -0.0297
 1632BOLB   PO139146  11.951   1.535  12.752  0.1023 -0.1636  0.2183
 1632BOLB   GL139147  12.151   1.441  13.202  0.1280  0.0187 -0.2176
 1632BOLB   GL239148  12.468   1.276  13.111 -0.0847  0.1256  0.0179
 1632BOLB   C1A39149  11.912   1.349  13.679  0.1347  0.2662  0.3220
 1632BOLB   C2A39150  11.724   1.605  13.944 -0.0095 -0.0919 -0.1810
 1632BOLB   C3A39151  11.837   2.077  14.181 -0.0942 -0.2835 -0.1023
 1632BOLB   C4A39152  11.875   2.204  14.626  0.0075  0.0262 -0.0513
 1632BOLB   C1B39153  12.454   1.232  13.588 -0.2316 -0.1980 -0.1550
 1632BOLB   C2B39154  12.622   1.479  13.979 -0.0166 -0.0100 -0.0684
 1632BOLB   C3B39155  12.487   1.554  14.320 -0.2735 -0.0772  0.1583
 1632BOLB   C4B39156  12.290   1.401  14.731  0.1358  0.0146  0.0640
 1632BOLB   NC239157  12.563   1.893  17.297 -0.1171  0.0352  0.1351
 1632BOLB   PO239158  12.565   1.673  16.900 -0.2520 -0.0053  0.4582
 1632BOLB   GL339159  12.538   1.662  16.546 -0.2844  0.0981  0.2205
 1632BOLB   GL439160  12.768   1.730  16.250  0.2359 -0.2335 -0.2297
 1632BOLB   C1C39161  12.301   1.905  16.266 -0.2322  0.0131  0.0883
 1632BOLB   C2C39162  12.184   1.902  15.790  0.0731  0.1487  0.2415
 1632BOLB   C3C39163  12.213   2.085  15.461 -0.0300 -0.0047 -0.1603
 1632BOLB   C4C39164  12.097   2.158  15.060 -0.0193 -0.1585 -0.2690
 1632BOLB   C1D39165  12.490   1.458  15.994 -0.2105 -0.0188 -0.0742
 1632BOLB   C2D39166  12.513   1.470  15.567 -0.0731 -0.1060  0.3029
 1632BOLB   C3D39167  12.226   1.608  15.246  0.0080 -0.1041  0.1079
 1632BOLB   C4D39168  11.866   1.744  15.350 -0.0163  0.2706 -0.0535
 1633BOLB   NC139169  10.168  -2.661  24.140  0.0558 -0.0466 -0.4441
 1633BOLB   PO139170   9.777  -2.402  24.199 -0.2120  0.1978  0.0758
 1633BOLB   GL139171   9.369  -2.526  24.267 -0.1840 -0.1462 -0.0641
 1633BOLB   GL239172   9.531  -2.805  24.439  0.0560 -0.1377  0.1896
 1633BOLB   C1A39173   8.992  -2.780  24.280  0.0961 -0.2273  0.0329
 1633BOLB   C2A39174   8.690  -2.973  24.431 -0.2270 -0.1590 -0.2494
 1633BOLB   C3A39175   8.263  -3.264  24.439 -0.2340  0.0442  0.0873
 1633BOLB   C4A39176   7.853  -3.421  24.365 -0.2399  0.1043 -0.0887
 1633BOLB   C1B39177   9.157  -3.175  24.464 -0.3542 -0.1212 -0.0419
 1633BOLB   C2B39178   9.056  -3.491  24.463  0.5313 -0.2132 -0.0783
 1633BOLB   C3B39179   8.677  -3.717  24.363  0.0753  0.1552 -0.1691
 1633BOLB   C4B39180   8.338  -3.837  24.172 -0.2745 -0.1007 -0.0863
 1633BOLB   NC239181   5.111  -3.802  23.911  0.0550 -0.0953  0.0176
 1633BOLB   PO239182   5.545  -3.906  24.204  0.2947 -0.0912  0.0668
 1633BOLB   GL339183   5.897  -3.695  24.317 -0.0700 -0.1401  0.0284
 1633BOLB   GL439184   5.997  -3.717  24.641  0.1153  0.3564 -0.1865
 1633BOLB   C1C39185   6.158  -3.345  24.122  0.2191 -0.1527 -0.0167
 1633BOLB   C2C39186   6.684  -3.342  24.044 -0.1552 -0.0272 -0.3141
 1633BOLB   C3C39187   7.034  -3.579  24.083  0.2491  0.0638  0.1739
 1633BOLB   C4C39188   7.438  -3.697  24.247  0.0437  0.0212 -0.2667
 1633BOLB   C1D39189   6.335  -3.626  24.889 -0.0008  0.2626  0.1014
 1633BOLB   C2D39190   6.686  -3.332  24.923 -0.1105 -0.1759 -0.0883
 1633BOLB   C3D39191   7.048  -2.906  24.854  0.0063  0.2110  0.0778
 1633BOLB   C4D39192   7.404  -2.749  24.988 -0.0833 -0.0831  0.0353
 1634BOLB   NC139193  13.755  -0.276  31.853 -0.2302  0.3832 -0.3453
 1634BOLB   PO139194  13.513   0.006  32.040  0.0771  0.0597  0.0582
 1634BOLB   GL139195  13.230  -0.164  32.310 -0.2735  0.0059 -0.1438
 1634BOLB   GL239196  13.312   0.122  32.527  0.0422  0.0132  0.0273
 1634BOLB   C1A39197  13.191  -0.396  32.582 -0.2781 -0.1682 -0.0500
 1634BOLB   C2A39198  13.028  -0.846  32.874 -0.2278  0.2662 -0.0453
 1634BOLB   C3A39199  13.125  -1.251  32.928 -0.1076 -0.0224  0.1192
 1634BOLB   C4A39200  12.802  -1.559  32.871  0.0725  0.2914 -0.2288
 1634BOLB   C1B39201  13.490  -0.021  32.835 -0.0590 -0.0335  0.2425
 1634BOLB   C2B39202  13.341  -0.231  33.159  0.0989 -0.0625  0.1113
 1634BOLB   C3B39203  13.113  -0.458  33.564  0.1314 -0.2086 -0.0971
 1634BOLB   C4B39204  13.014  -0.516  34.028  0.1341  0.1046 -0.2829
 1634BOLB   NC239205  11.609  -3.740  33.755  0.2495 -0.3171  0.1007
 1634BOLB   PO239206  11.522  -3.363  33.903 -0.1032 -0.0280 -0.1985
 1634BOLB   GL339207  11.783  -2.942  33.801  0.1111 -0.0142  0.1216
 1634BOLB   GL439208  11.650  -2.723  33.977 -0.1742  0.2850  0.1936
 1634BOLB   C1C39209  12.102  -2.690  33.644 -0.2578  0.0764  0.0481
 1634BOLB   C2C39210  12.290  -2.538  33.325 -0.2468 -0.0603  0.1036
 1634BOLB   C3C39211  12.712  -2.187  33.326  0.2219  0.0684 -0.3519
 1634BOLB   C4C39212  12.890  -1.935  32.973  0.0193 -0.3759 -0.0596
 1634BOLB   C1D39213  11.365  -2.753  33.590 -0.2253  0.0011  0.1771
 1634BOLB   C2D39214  11.136  -2.452  33.362  0.0579  0.0162 -0.0543
 1634BOLB   C3D39215  10.978  -2.130  33.145  0.1121 -0.0643 -0.2132
 1634BOLB   C4D39216  10.674  -1.913  32.840 -0.1616  0.2331  0.0942
 1635BOLB   NC139217  12.009   9.055  30.495  0.1979 -0.1042  0.1878
 1635BOLB   PO139218  12.017   9.433  30.798 -0.4809  0.2813 -0.2689
 1635BOLB   GL139219  11.861   9.573  31.282 -0.0238  0.1067 -0.0007
 1635BOLB   GL239220  11.764   9.924  31.403 -0.0902  0.0146  0.0179
 1635BOLB   C1A39221  11.836   9.455  31.751  0.2053  0.4180 -0.1334
 1635BOLB   C2A39222  11.629   9.661  32.122  0.0421  0.2128  0.0744
 1635BOLB   C3A39223  11.260   9.725  32.407 -0.0166 -0.1395 -0.0008
 1635BOLB   C4A39224  11.383  10.115  32.727  0.1320  0.1230 -0.0203
 1635BOLB   C1B39225  11.929   9.913  31.713 -0.1178 -0.0876 -0.0445
 1635BOLB   C2B39226  11.682  10.124  32.062  0.0431  0.1853  0.0881
 1635BOLB   C3B39227  11.499  10.537  32.200  0.2875 -0.2377  0.0566
 1635BOLB   C4B39228  11.781  10.819  32.132 -0.0525  0.1804  0.3305
 1635BOLB   NC239229  11.092  11.135  34.799 -0.0630 -0.0115  0.1637
 1635BOLB   PO239230  10.666  10.872  34.820 -0.3321 -0.1781  0.0751
 1635BOLB   GL339231  10.872  10.871  34.428  0.0549  0.1269 -0.0628
 1635BOLB   GL439232  11.054  10.645  34.457 -0.1330  0.0271 -0.2007
 1635BOLB   C1C39233  10.818  10.730  33.960 -0.2119 -0.1870  0.1862
 1635BOLB   C2C39234  10.944  10.595  33.584  0.1877  0.0900  0.3491
 1635BOLB   C3C39235  11.064  10.594  33.234  0.1365  0.0033 -0.1173
 1635BOLB   C4C39236  11.302  10.349  33.075 -0.1710  0.1596 -0.2076
 1635BOLB   C1D39237  11.202  10.415  34.089  0.0627 -0.3286  0.1014
 1635BOLB   C2D39238  11.443  10.365  33.685 -0.2261  0.0768 -0.0575
 1635BOLB   C3D39239  11.543  10.009  33.482 -0.0180  0.4946 -0.0237
 1635BOLB   C4D39240  11.900   9.800  33.426 -0.1037 -0.0893 -0.2400
 1636BOLB   NC139241  24.564   3.158  28.677 -0.1615 -0.0141 -0.1918
 1636BOLB   PO139242  24.285   3.008  29.068  0.0393 -0.0811  0.0750
 1636BOLB   GL139243  24.781   3.045  29.140 -0.1092  0.1998  0.0686
 1636BOLB   GL239244  25.035   2.894  28.905 -0.1165 -0.0223  0.0803
 1636BOLB   C1A39245  25.246   3.224  29.165  0.0709 -0.0063 -0.0592
 1636BOLB   C2A39246  25.669   3.320  29.257  0.0289 -0.4896 -0.1172
 1636BOLB   C3A39247  26.084   3.376  29.193 -0.0586 -0.1510 -0.0513
 1636BOLB   C4A39248  26.484   3.296  29.449  0.1732  0.5296 -0.1645
 1636BOLB   C1B39249  25.505   2.789  28.863 -0.0398 -0.3132 -0.3080
 1636BOLB   C2B39250  25.947   2.588  28.924  0.2309  0.3030  0.3504
 1636BOLB   C3B39251  26.237   2.320  29.219  0.0693  0.0933  0.1374
 1636BOLB   C4B39252  26.655   2.375  29.332  0.3733  0.0818 -0.0669
 1636BOLB   NC239253  28.840   3.162  29.423 -0.1268  0.1002  0.1302
 1636BOLB   PO239254  28.594   2.702  29.411  0.0476  0.0332  0.1971
 1636BOLB   GL339255  28.186   2.719  29.343  0.2238 -0.0546  0.1461
 1636BOLB   GL439256  27.991   2.439  29.429  0.0958 -0.0211  0.0069
 1636BOLB   C1C39257  27.902   3.223  29.235 -0.1501  0.0728 -0.0258
 1636BOLB   C2C39258  27.636   3.317  29.456  0.0956  0.2939 -0.1275
 1636BOLB   C3C39259  27.250   3.378  29.583  0.2509  0.0223  0.3952
 1636BOLB   C4C39260  26.843   3.361  29.618  0.1652 -0.1443  0.1174
 1636BOLB   C1D39261  27.648   2.307  29.195  0.4066 -0.0355 -0.1850
 1636BOLB   C2D39262  27.631   2.170  28.825  0.2184 -0.0326  0.1278
 1636BOLB   C3D39263  27.550   1.987  28.405 -0.1366  0.2304  0.0588
 1636BOLB   C4D39264  27.570   1.520  28.291  0.1323  0.2060  0.1493
 1637BOLB   NC139265  14.305   1.739  32.650  0.1327 -0.1958  0.0715
 1637BOLB   PO139266  14.513   1.565  32.929 -0.3623 -0.1657  0.0271
 1637BOLB   GL139267  14.342   1.703  33.305  0.1563  0.1237  0.2701
 1637BOLB   GL239268  14.534   1.892  33.568 -0.5011  0.1081  0.0927
 1637BOLB   C1A39269  14.438   1.430  33.701 -0.1681 -0.1075 -0.0468
 1637BOLB   C2A39270  14.396   1.335  34.108 -0.2566  0.1090  0.2705
 1637BOLB   C3A39271  14.624   1.444  34.505  0.2385 -0.0602  0.0206
 1637BOLB   C4A39272  14.874   1.262  34.854 -0.1044 -0.0415 -0.1553
 1637BOLB   C1B39273  14.753   1.914  34.054  0.3245  0.1385  0.0033
 1637BOLB   C2B39274  14.802   1.910  34.477  0.0365 -0.0385  0.2826
 1637BOLB   C3B39275  14.835   1.822  34.804  0.2288 -0.0560 -0.1112
 1637BOLB   C4B39276  14.802   2.069  35.207  0.0365 -0.1439  0.0941
 1637BOLB   NC239277  14.894   0.744  37.355 -0.0550 -0.3388  0.0600
 1637BOLB   PO239278  15.116   1.152  37.220 -0.1977  0.1447  0.0957
 1637BOLB   GL339279  15.213   1.159  36.754 -0.0463  0.0303 -0.3154
 1637BOLB   GL439280  15.598   1.113  36.890  0.2169  0.1000 -0.0579
 1637BOLB   C1C39281  15.109   1.134  36.371  0.0358 -0.1242 -0.3649
 1637BOLB   C2C39282  15.252   0.978  35.902  0.1120 -0.1709  0.1070
 1637BOLB   C3C39283  15.152   1.004  35.504 -0.1280  0.0217 -0.0612
 1637BOLB   C4C39284  14.907   0.987  35.210 -0.0723  0.1587  0.3836
 1637BOLB   C1D39285  15.629   1.277  36.485 -0.2772 -0.2309  0.1063
 1637BOLB   C2D39286  15.455   1.443  36.164  0.0507  0.0194 -0.0786
 1637BOLB   C3D39287  15.375   1.907  36.135  0.2449  0.0719 -0.2185
 1637BOLB   C4D39288  15.352   2.269  36.254  0.2581  0.0443 -0.2426
 1638BOLB   NC139289   8.554   8.060  27.222  0.2556 -0.3362  0.0431
 1638BOLB   PO139290   8.367   8.321  27.443 -0.2983  0.1262  0.2658
 1638BOLB   GL139291   8.119   8.595  27.130 -0.1201 -0.0210 -0.2664
 1638BOLB   GL239292   7.824   8.522  26.942  0.2851 -0.0785  0.1716
 1638BOLB   C1A39293   7.872   8.984  27.072 -0.5909 -0.0821 -0.0418
 1638BOLB   C2A39294   7.549   9.247  27.111 -0.0066  0.1591 -0.2006
 1638BOLB   C3A39295   7.054   9.149  27.240 -0.4128 -0.2665  0.2132
 1638BOLB   C4A39296   6.768   9.473  27.243  0.0870  0.0041  0.0234
 1638BOLB   C1B39297   7.470   8.721  26.916  0.4516  0.1244 -0.1025
 1638BOLB   C2B39298   7.085   8.904  26.837  0.0452  0.3576  0.1785
 1638BOLB   C3B39299   6.762   9.090  26.813  0.1269 -0.3213 -0.1953
 1638BOLB   C4B39300   6.473   9.344  26.872  0.1522 -0.0390 -0.1545
 1638BOLB   NC239301   4.430  10.261  27.681 -0.1507 -0.0322 -0.1968
 1638BOLB   PO239302   4.232   9.878  27.703  0.2384  0.0444  0.3775
 1638BOLB   GL339303   4.688   9.826  27.731 -0.2932  0.0646 -0.2109
 1638BOLB   GL439304   4.799   9.581  27.851  0.3725  0.0415 -0.2429
 1638BOLB   C1C39305   4.992   9.767  27.394 -0.2592  0.3538  0.1054
 1638BOLB   C2C39306   5.534   9.888  27.353  0.2153 -0.0162  0.0297
 1638BOLB   C3C39307   5.969   9.809  27.223  0.1458  0.2464 -0.0845
 1638BOLB   C4C39308   6.415   9.807  27.196  0.0117 -0.1027 -0.3173
 1638BOLB   C1D39309   5.145   9.323  27.637  0.2215  0.0573  0.1512
 1638BOLB   C2D39310   5.321   9.106  27.333  0.1370  0.1844  0.0576
 1638BOLB   C3D39311   5.621   8.896  27.208  0.0486  0.3071 -0.0659
 1638BOLB   C4D39312   6.051   8.862  27.028  0.0293 -0.0003 -0.2193
 1639BOLB   NC139313  23.636   4.710  22.110 -0.1801 -0.2517  0.1127
 1639BOLB   PO139314  23.486   5.126  22.145  0.0739  0.3638  0.0942
 1639BOLB   GL139315  23.899   5.228  21.893  0.3977 -0.0528 -0.3414
 1639BOLB   GL239316  23.990   5.555  21.912  0.0167  0.0578 -0.1377
 1639BOLB   C1A39317  24.371   5.167  21.852  0.0803  0.1380  0.1038
 1639BOLB   C2A39318  24.720   5.133  21.650 -0.1422  0.2649  0.2303
 1639BOLB   C3A39319  25.052   5.145  21.621  0.3493  0.1035 -0.1889
 1639BOLB   C4A39320  25.553   5.218  21.556 -0.1776  0.2739  0.2752
 1639BOLB   C1B39321  24.520   5.624  22.091 -0.2568  0.0300 -0.0388
 1639BOLB   C2B39322  24.831   5.846  22.052  0.1896 -0.2874 -0.2137
 1639BOLB   C3B39323  25.128   6.114  21.990  0.0096 -0.2375  0.2093
 1639BOLB   C4B39324  25.442   6.280  21.828 -0.1378 -0.2881  0.0486
 1639BOLB   NC239325  27.851   4.745  20.719  0.0990  0.1435  0.0466
 1639BOLB   PO239326  27.719   5.134  20.600  0.1234 -0.0808  0.2338
 1639BOLB   GL339327  27.381   5.287  20.692  0.2804  0.0368 -0.3690
 1639BOLB   GL439328  27.313   5.432  21.030 -0.2103  0.1294  0.1754
 1639BOLB   C1C39329  26.934   5.256  20.776 -0.0792  0.1265 -0.3182
 1639BOLB   C2C39330  26.537   5.307  20.820 -0.0289  0.0435 -0.3659
 1639BOLB   C3C39331  26.153   5.242  20.972 -0.2092  0.0292 -0.2297
 1639BOLB   C4C39332  25.829   5.252  21.354 -0.2375  0.0268 -0.2957
 1639BOLB   C1D39333  26.868   5.388  21.254 -0.0475 -0.1340  0.0751
 1639BOLB   C2D39334  26.465   5.258  21.408 -0.0791 -0.1850 -0.1556
 1639BOLB   C3D39335  26.114   5.475  21.635  0.0517 -0.0636  0.2325
 1639BOLB   C4D39336  25.823   5.557  21.861  0.3348 -0.1299  0.2289
 1640BOLB   NC139337  21.573  -2.088  26.627  0.0726  0.0521  0.1037
 1640BOLB   PO139338  21.178  -1.891  26.846 -0.0149  0.0899 -0.3776
 1640BOLB   GL139339  21.445  -2.200  27.104 -0.2652 -0.2076 -0.3583
 1640BOLB   GL239340  21.231  -2.362  26.836  0.3512  0.0313  0.0877
 1640BOLB   C1A39341  21.816  -2.513  26.974  0.1306 -0.0314  0.2034
 1640BOLB   C2A39342  22.299  -2.609  26.963 -0.3383  0.1643 -0.0468
 1640BOLB   C3A39343  22.521  -2.993  26.906 -0.3170  0.2262 -0.0996
 1640BOLB   C4A39344  22.469  -3.381  26.715 -0.0392 -0.1771 -0.0874
 1640BOLB   C1B39345  21.143  -2.677  27.076  0.0778 -0.0387  0.0659
 1640BOLB   C2B39346  21.535  -2.672  27.323 -0.3101  0.2000  0.1977
 1640BOLB   C3B39347  21.815  -3.078  27.482  0.2602  0.0700 -0.2138
 1640BOLB   C4B39348  21.867  -3.489  27.653  0.0876  0.2677 -0.0677
 1640BOLB   NC239349  22.388  -5.822  26.824  0.1666  0.3576  0.2943
 1640BOLB   PO239350  22.815  -5.892  26.533 -0.1068  0.1851  0.1665
 1640BOLB   GL339351  22.634  -5.473  26.504 -0.3557  0.0253  0.1665
 1640BOLB   GL439352  22.992  -5.417  26.563  0.2343  0.1447 -0.4885
 1640BOLB   C1C39353  22.646  -5.051  26.400  0.1260 -0.1227  0.4393
 1640BOLB   C2C39354  22.688  -4.596  26.491  0.2117 -0.1534  0.0660
 1640BOLB   C3C39355  22.695  -4.239  26.828 -0.3545  0.2723  0.0168
 1640BOLB   C4C39356  22.679  -3.788  26.671 -0.2578  0.1174 -0.1893
 1640BOLB   C1D39357  22.702  -5.086  26.883 -0.0482 -0.2917  0.2655
 1640BOLB   C2D39358  22.355  -4.757  26.917  0.1657  0.1494  0.1063
 1640BOLB   C3D39359  22.691  -4.728  27.289 -0.1045  0.2759 -0.2050
 1640BOLB   C4D39360  22.974  -4.396  27.491  0.0493 -0.1481 -0.2939
 1641BOLB   NC139361  11.605   9.484  21.212  0.0616  0.0681  0.0640
 1641BOLB   PO139362  11.588   9.846  21.539 -0.0652 -0.0991 -0.0110
 1641BOLB   GL139363  11.304  10.182  21.473 -0.2073 -0.1881 -0.1894
 1641BOLB   GL239364  10.993  10.174  21.289 -0.1851 -0.0338 -0.0249
 1641BOLB   C1A39365  11.209  10.499  20.985  0.2337 -0.3174 -0.1167
 1641BOLB   C2A39366  10.948  10.695  20.648  0.0251  0.3084  0.1251
 1641BOLB   C3A39367  10.694  11.165  20.581  0.0440 -0.0061  0.1803
 1641BOLB   C4A39368  10.836  11.482  20.356  0.1556  0.0482  0.0225
 1641BOLB   C1B39369  10.832  10.240  20.819  0.3963 -0.2180 -0.0970
 1641BOLB   C2B39370  10.563  10.433  20.465  0.0949 -0.0730 -0.0876
 1641BOLB   C3B39371  10.234  10.716  20.398 -0.1686  0.2143  0.2126
 1641BOLB   C4B39372   9.873  10.994  20.550 -0.2237 -0.1324  0.1912
 1641BOLB   NC239373  10.016  13.871  19.651  0.0295  0.1749  0.2853
 1641BOLB   PO239374  10.461  13.871  19.641  0.1700  0.0683  0.1563
 1641BOLB   GL339375  10.657  13.600  19.994  0.1904  0.2048  0.1112
 1641BOLB   GL439376  10.972  13.502  19.960  0.0563  0.4877  0.0205
 1641BOLB   C1C39377  10.557  13.085  20.117  0.2268 -0.2532  0.1353
 1641BOLB   C2C39378  10.722  12.676  20.132 -0.3552 -0.1185  0.0475
 1641BOLB   C3C39379  10.882  12.319  20.292  0.0073  0.1234 -0.1156
 1641BOLB   C4C39380  10.859  11.898  20.250  0.0617 -0.2031 -0.2050
 1641BOLB   C1D39381  11.103  13.237  20.255 -0.0448 -0.3150 -0.2802
 1641BOLB   C2D39382  11.265  12.878  20.234 -0.0247  0.0443 -0.3320
 1641BOLB   C3D39383  11.436  12.530  20.409  0.0674 -0.1937 -0.2693
 1641BOLB   C4D39384  11.813  12.395  20.534 -0.0992 -0.1471 -0.1669
 1642BOLB   NC139385   9.194   7.404  30.177 -0.0803  0.3149 -0.1617
 1642BOLB   PO139386   9.028   6.960  30.437  0.2588 -0.2088 -0.0830
 1642BOLB   GL139387   8.764   7.299  30.382 -0.0219  0.0303  0.0033
 1642BOLB   GL239388   8.777   7.709  30.435 -0.2068 -0.1128 -0.2056
 1642BOLB   C1A39389   8.365   7.304  30.477 -0.0629  0.1366  0.4403
 1642BOLB   C2A39390   7.952   7.313  30.627  0.0713  0.1392 -0.0449
 1642BOLB   C3A39391   7.542   7.504  30.698 -0.1326  0.0381 -0.2977
 1642BOLB   C4A39392   7.222   7.450  31.115  0.0986 -0.0414  0.0198
 1642BOLB   C1B39393   8.335   7.939  30.373  0.2091  0.0992 -0.1984
 1642BOLB   C2B39394   8.005   7.816  30.580  0.1140 -0.0920 -0.0841
 1642BOLB   C3B39395   7.641   7.995  30.769 -0.2117  0.1255 -0.2859
 1642BOLB   C4B39396   7.320   7.970  31.017 -0.0603  0.2609  0.0059
 1642BOLB   NC239397   5.741   8.487  32.565 -0.0108 -0.0004 -0.3505
 1642BOLB   PO239398   5.547   8.747  32.335  0.0196 -0.1166 -0.1857
 1642BOLB   GL339399   5.876   8.651  32.140 -0.1568 -0.0594 -0.2865
 1642BOLB   GL439400   5.832   8.507  31.859 -0.1341  0.0634 -0.0282
 1642BOLB   C1C39401   6.268   8.326  32.153 -0.3241 -0.0061 -0.2462
 1642BOLB   C2C39402   6.646   8.344  31.948 -0.2153 -0.2809 -0.0084
 1642BOLB   C3C39403   6.829   8.066  31.686  0.3624 -0.1659 -0.0166
 1642BOLB   C4C39404   7.046   7.790  31.451  0.0603  0.2879 -0.0685
 1642BOLB   C1D39405   6.064   8.164  31.624 -0.3315 -0.0755  0.2762
 1642BOLB   C2D39406   6.381   8.019  31.453  0.1741  0.0739  0.2041
 1642BOLB   C3D39407   6.501   7.656  31.208  0.1647 -0.2621  0.0532
 1642BOLB   C4D39408   6.764   7.238  31.118  0.0411 -0.0968  0.0879
 1643BOLB   NC139409  11.235  -3.092  22.862  0.3802  0.1528  0.0445
 1643BOLB   PO139410  11.127  -3.311  22.561  0.2791  0.1944 -0.0242
 1643BOLB   GL139411  10.754  -3.457  22.310 -0.0598  0.0017  0.0582
 1643BOLB   GL239412  10.774  -3.786  22.345 -0.2150 -0.0016  0.0963
 1643BOLB   C1A39413  10.429  -3.633  21.997  0.0343 -0.0152 -0.1913
 1643BOLB   C2A39414  10.179  -3.978  22.021 -0.0503  0.1613  0.0642
 1643BOLB   C3A39415  10.096  -4.318  22.261  0.3790 -0.1153  0.3556
 1643BOLB   C4A39416   9.829  -4.709  22.246  0.1554  0.3990 -0.2577
 1643BOLB   C1B39417  10.646  -4.188  22.157  0.2523  0.0558  0.0526
 1643BOLB   C2B39418  10.731  -4.661  22.001 -0.1787  0.3825 -0.0698
 1643BOLB   C3B39419  10.914  -5.046  22.144 -0.1485  0.0260  0.1665
 1643BOLB   C4B39420  11.253  -5.284  22.048  0.0190 -0.0288 -0.1184
 1643BOLB   NC239421   9.614  -7.179  21.319  0.3218  0.1894 -0.3398
 1643BOLB   PO239422   9.605  -7.070  21.807 -0.0429  0.2687 -0.1322
 1643BOLB   GL339423   9.601  -6.715  22.063 -0.1010 -0.0216  0.0110
 1643BOLB   GL439424   9.927  -6.735  22.334  0.0030  0.5525 -0.2948
 1643BOLB   C1C39425   9.723  -6.383  21.949  0.0483 -0.1962  0.2538
 1643BOLB   C2C39426   9.788  -5.930  21.791  0.2805 -0.1771 -0.0207
 1643BOLB   C3C39427   9.951  -5.603  22.013 -0.0026  0.0371 -0.1088
 1643BOLB   C4C39428   9.971  -5.137  22.246 -0.0181 -0.0261  0.2295
 1643BOLB   C1D39429  10.049  -6.427  22.500  0.0034 -0.0510 -0.4706
 1643BOLB   C2D39430  10.163  -5.980  22.621 -0.1656  0.1324 -0.2155
 1643BOLB   C3D39431  10.351  -5.614  22.729  0.1462 -0.1672  0.0899
 1643BOLB   C4D39432  10.149  -5.177  22.738  0.1676 -0.3859  0.1783
 1644BOLB   NC139433  13.322  -3.739  20.444  0.0098 -0.2856  0.1087
 1644BOLB   PO139434  13.532  -3.974  20.623  0.0221 -0.1830 -0.1262
 1644BOLB   GL139435  13.367  -4.159  20.138  0.0450  0.0561 -0.0063
 1644BOLB   GL239436  13.023  -4.049  20.031 -0.1681 -0.1678  0.0214
 1644BOLB   C1A39437  13.254  -4.391  19.769 -0.2353 -0.1742 -0.4462
 1644BOLB   C2A39438  12.908  -4.419  19.415  0.2064 -0.1675  0.0440
 1644BOLB   C3A39439  12.695  -4.623  19.060  0.0732 -0.1228  0.1046
 1644BOLB   C4A39440  12.455  -4.770  18.716 -0.0288 -0.1804  0.1352
 1644BOLB   C1B39441  12.688  -4.354  19.955  0.1803  0.2619 -0.0675
 1644BOLB   C2B39442  12.425  -4.477  19.641  0.2611 -0.0290 -0.2218
 1644BOLB   C3B39443  12.255  -4.506  19.154  0.1344  0.1869 -0.1768
 1644BOLB   C4B39444  12.009  -4.238  18.896 -0.1486 -0.0144 -0.1176
 1644BOLB   NC239445  11.061  -5.985  17.091  0.2443 -0.1223 -0.1939
 1644BOLB   PO239446  10.721  -5.908  17.366  0.2315  0.2353  0.3462
 1644BOLB   GL339447  10.937  -5.642  17.618 -0.1555 -0.0965 -0.0210
 1644BOLB   GL439448  11.156  -5.619  17.440  0.0280 -0.0095  0.3485
 1644BOLB   C1C39449  11.328  -5.596  17.877  0.3752  0.0104  0.3591
 1644BOLB   C2C39450  11.623  -5.386  17.967 -0.0360 -0.4272  0.2214
 1644BOLB   C3C39451  11.958  -5.099  18.095  0.2604 -0.1236  0.1617
 1644BOLB   C4C39452  12.184  -4.924  18.360  0.1717 -0.0471 -0.2081
 1644BOLB   C1D39453  11.557  -5.435  17.450  0.0410 -0.1090 -0.1373
 1644BOLB   C2D39454  11.763  -5.352  17.052 -0.3900  0.2163  0.1207
 1644BOLB   C3D39455  11.714  -4.943  16.852  0.0380  0.0854  0.0687
 1644BOLB   C4D39456  11.644  -4.616  16.585 -0.0257 -0.0786  0.2964
 1645BOLB   NC139457   6.786   4.161  16.793  0.2733 -0.0239 -0.2356
 1645BOLB   PO139458   6.945   3.855  16.479 -0.2478 -0.2013 -0.2616
 1645BOLB   GL139459   7.337   3.971  16.525  0.3350 -0.3429 -0.1454
 1645BOLB   GL239460   7.374   4.264  16.689  0.0325  0.0458 -0.0023
 1645BOLB   C1A39461   7.792   3.971  16.616 -0.0694  0.1188 -0.0161
 1645BOLB   C2A39462   8.192   3.771  16.791 -0.2483  0.3932 -0.0958
 1645BOLB   C3A39463   8.557   3.879  16.970 -0.2347 -0.2440 -0.2053
 1645BOLB   C4A39464   9.047   4.020  17.167  0.2891 -0.1681  0.1851
 1645BOLB   C1B39465   7.500   3.970  17.041 -0.3434 -0.4430  0.1702
 1645BOLB   C2B39466   7.460   3.709  17.377 -0.1796  0.1432  0.2093
 1645BOLB   C3B39467   7.381   3.247  17.291 -0.0983 -0.1535  0.0378
 1645BOLB   C4B39468   7.117   2.894  17.169  0.0502  0.1014  0.0710
 1645BOLB   NC239469  10.644   2.835  18.590 -0.0174 -0.1072 -0.0650
 1645BOLB   PO239470  10.758   3.280  18.391 -0.1841  0.2861 -0.1997
 1645BOLB   GL339471  10.719   3.614  18.022  0.3053 -0.0384 -0.4254
 1645BOLB   GL439472  10.574   3.929  18.109 -0.0509  0.1190 -0.1728
 1645BOLB   C1C39473  10.395   3.762  17.696  0.0903 -0.3918 -0.0380
 1645BOLB   C2C39474  10.144   3.914  17.379 -0.2761  0.0396  0.1386
 1645BOLB   C3C39475   9.885   4.070  17.042 -0.2143  0.3299  0.0311
 1645BOLB   C4C39476   9.399   4.138  17.095  0.1214  0.0188 -0.0435
 1645BOLB   C1D39477  10.529   4.296  17.847 -0.1006  0.0693  0.0050
 1645BOLB   C2D39478  10.387   4.480  17.567 -0.4601  0.3679  0.3792
 1645BOLB   C3D39479  10.096   4.803  17.352 -0.1690 -0.0348  0.0357
 1645BOLB   C4D39480  10.241   4.896  16.883  0.0105  0.5240  0.1893
 1646BOLB   NC139481  23.027   5.800  31.061  0.1770 -0.0502  0.3045
 1646BOLB   PO139482  22.792   5.325  30.991  0.2723 -0.1672  0.0274
 1646BOLB   GL139483  23.125   5.386  31.288  0.0559 -0.0337 -0.1846
 1646BOLB   GL239484  23.053   5.168  31.463  0.3309 -0.0936 -0.4435
 1646BOLB   C1A39485  23.450   5.506  31.550  0.0017  0.0200  0.0627
 1646BOLB   C2A39486  23.539   5.721  31.927 -0.3142  0.0471 -0.1449
 1646BOLB   C3A39487  23.746   5.981  32.233 -0.1764 -0.0348 -0.2732
 1646BOLB   C4A39488  23.925   6.165  32.651  0.0185  0.1497  0.2408
 1646BOLB   C1B39489  23.278   4.859  31.683 -0.2936  0.3593  0.0994
 1646BOLB   C2B39490  23.542   4.744  31.875 -0.1433  0.1632 -0.3192
 1646BOLB   C3B39491  23.708   5.120  32.062  0.0130  0.1742 -0.0337
 1646BOLB   C4B39492  23.710   5.422  32.464  0.3404 -0.0523 -0.1131
 1646BOLB   NC239493  25.386   7.773  34.578 -0.2533  0.1809 -0.0145
 1646BOLB   PO239494  25.059   7.814  34.268  0.1203 -0.1278  0.1983
 1646BOLB   GL339495  24.825   7.578  34.042  0.1932  0.0978  0.0035
 1646BOLB   GL439496  25.013   7.453  33.744 -0.0004 -0.1976 -0.2900
 1646BOLB   C1C39497  24.525   7.262  33.844  0.0858  0.0064 -0.5491
 1646BOLB   C2C39498  24.256   7.155  33.479  0.3352  0.1314 -0.1953
 1646BOLB   C3C39499  24.152   6.873  33.200  0.2322 -0.1098 -0.0020
 1646BOLB   C4C39500  23.932   6.398  33.108 -0.1259 -0.1170 -0.0039
 1646BOLB   C1D39501  25.081   7.261  33.415  0.3392  0.5117  0.2057
 1646BOLB   C2D39502  25.097   7.260  32.991 -0.2634  0.0030 -0.3231
 1646BOLB   C3D39503  24.729   7.285  32.768  0.1225  0.5474 -0.0812
 1646BOLB   C4D39504  24.605   7.574  32.565  0.2276  0.0229 -0.0532
 1647BOLB   NC139505  20.812   6.786  18.356 -0.0016 -0.0984  0.0376
 1647BOLB   PO139506  20.514   6.919  18.305  0.1734 -0.0649  0.3106
 1647BOLB   GL139507  20.429   7.076  17.935 -0.0722 -0.0321 -0.0030
 1647BOLB   GL239508  20.584   7.415  17.882  0.0654 -0.1678 -0.0668
 1647BOLB   C1A39509  20.538   7.066  17.556  0.2141 -0.2822  0.1341
 1647BOLB   C2A39510  20.647   6.945  17.035  0.0667 -0.1671  0.0858
 1647BOLB   C3A39511  20.787   7.088  16.707 -0.4150  0.0214  0.1095
 1647BOLB   C4A39512  21.234   7.056  16.583  0.1434 -0.0151 -0.2992
 1647BOLB   C1B39513  20.652   7.706  17.579 -0.0552 -0.0793  0.1502
 1647BOLB   C2B39514  20.432   7.844  17.039 -0.2688  0.5370 -0.1920
 1647BOLB   C3B39515  20.130   7.857  16.618 -0.2017 -0.1295 -0.0315
 1647BOLB   C4B39516  19.693   7.854  16.702 -0.1492  0.1925  0.2467
 1647BOLB   NC239517  22.957   7.642  14.521  0.0555  0.1750  0.4235
 1647BOLB   PO239518  23.073   7.709  14.926  0.3327  0.0053 -0.0627
 1647BOLB   GL339519  22.826   7.884  15.321  0.0171 -0.0088 -0.2145
 1647BOLB   GL439520  22.952   7.946  15.584  0.3745 -0.2532  0.2568
 1647BOLB   C1C39521  22.469   7.745  15.471 -0.0950  0.0202  0.0013
 1647BOLB   C2C39522  22.162   7.901  15.833 -0.2099 -0.1728  0.1991
 1647BOLB   C3C39523  21.848   7.749  16.104  0.1479  0.0123 -0.0445
 1647BOLB   C4C39524  21.612   7.393  16.401  0.0406  0.0726 -0.1027
 1647BOLB   C1D39525  22.708   8.040  15.841  0.0001  0.1582 -0.1007
 1647BOLB   C2D39526  22.534   7.931  16.247 -0.0814  0.1431 -0.2272
 1647BOLB   C3D39527  22.217   7.763  16.522  0.1169  0.0350 -0.1410
 1647BOLB   C4D39528  21.975   7.473  16.709  0.1057 -0.0865  0.1587
 1648BOLB   NC139529  10.505   7.049  31.130  0.0354  0.3672  0.0718
 1648BOLB   PO139530  10.585   7.592  31.190 -0.4637 -0.1217  0.1055
 1648BOLB   GL139531  10.385   7.740  31.572 -0.0851  0.0604  0.2713
 1648BOLB   GL239532  10.414   8.006  31.756  0.2417 -0.0420 -0.0514
 1648BOLB   C1A39533  10.108   7.555  31.944 -0.2105  0.0842 -0.3274
 1648BOLB   C2A39534   9.748   7.419  32.170 -0.2300  0.0058 -0.4166
 1648BOLB   C3A39535   9.535   7.542  32.459 -0.2694  0.0865  0.4479
 1648BOLB   C4A39536   9.344   7.412  32.791  0.2153  0.1311  0.2283
 1648BOLB   C1B39537  10.163   8.132  32.158  0.1674 -0.1919 -0.0407
 1648BOLB   C2B39538   9.899   8.386  32.391 -0.1349  0.2045  0.0342
 1648BOLB   C3B39539   9.862   8.617  32.698 -0.2592 -0.1479  0.1607
 1648BOLB   C4B39540  10.213   8.619  32.986 -0.0310  0.2897 -0.0657
 1648BOLB   NC239541   8.415   8.034  34.758 -0.1505  0.3061 -0.3704
 1648BOLB   PO239542   8.587   8.413  34.726 -0.0036 -0.2121 -0.2649
 1648BOLB   GL339543   8.912   8.338  34.481 -0.1351  0.1067  0.0571
 1648BOLB   GL439544   9.085   8.593  34.598 -0.4508  0.1900 -0.1335
 1648BOLB   C1C39545   8.966   8.000  34.221 -0.3212 -0.2286  0.4847
 1648BOLB   C2C39546   9.071   7.769  33.843  0.0718 -0.1816  0.0611
 1648BOLB   C3C39547   8.936   7.540  33.553  0.0170 -0.0196  0.0235
 1648BOLB   C4C39548   9.069   7.426  33.197  0.3670 -0.0930  0.0396
 1648BOLB   C1D39549   9.107   8.529  34.051  0.2375  0.3241  0.1693
 1648BOLB   C2D39550   9.070   8.273  33.750 -0.1764  0.0802  0.1111
 1648BOLB   C3D39551   9.237   8.070  33.413  0.1679 -0.0024  0.0803
 1648BOLB   C4D39552   9.363   7.929  33.107  0.3790 -0.4445  0.1160
 1649BOLB   NC139553  21.702   9.894  25.926  0.2505 -0.0517 -0.2959
 1649BOLB   PO139554  22.062  10.114  25.791  0.3266 -0.3016 -0.0459
 1649BOLB   GL139555  22.175  10.518  25.767 -0.0938  0.1187 -0.0923
 1649BOLB   GL239556  21.998  10.664  25.570 -0.1668 -0.1469  0.0334
 1649BOLB   C1A39557  22.661  10.660  25.498 -0.1901  0.1423 -0.3368
 1649BOLB   C2A39558  22.944  10.828  25.730  0.0521  0.1379 -0.1794
 1649BOLB   C3A39559  23.177  11.054  26.013 -0.0706  0.2424 -0.1926
 1649BOLB   C4A39560  23.528  11.295  26.104 -0.0632  0.3881  0.1868
 1649BOLB   C1B39561  22.275  11.031  25.739 -0.1853  0.1470 -0.1790
 1649BOLB   C2B39562  22.184  11.379  25.917  0.1060 -0.1456 -0.0088
 1649BOLB   C3B39563  22.102  11.829  26.119  0.1882 -0.0667 -0.2110
 1649BOLB   C4B39564  22.105  12.044  26.561 -0.1618  0.1342  0.3820
 1649BOLB   NC239565  24.708  13.465  26.420 -0.0595  0.0782  0.1601
 1649BOLB   PO239566  24.247  13.528  26.252 -0.2077  0.1310 -0.1801
 1649BOLB   GL339567  24.222  13.077  26.359  0.0914 -0.2868 -0.1031
 1649BOLB   GL439568  24.182  13.031  26.750  0.1701  0.1229 -0.0746
 1649BOLB   C1C39569  24.233  12.635  26.301 -0.0367  0.0336  0.0215
 1649BOLB   C2C39570  24.143  12.226  26.394 -0.0437  0.2248  0.1647
 1649BOLB   C3C39571  24.043  11.812  26.466  0.1000  0.1698  0.1460
 1649BOLB   C4C39572  23.915  11.459  26.361  0.1713  0.3547 -0.1234
 1649BOLB   C1D39573  24.338  12.820  27.118  0.0411  0.0132 -0.1051
 1649BOLB   C2D39574  24.466  12.849  27.615 -0.0557  0.1563 -0.0273
 1649BOLB   C3D39575  24.613  12.706  27.954  0.1060  0.6117  0.0132
 1649BOLB   C4D39576  24.843  12.260  28.217 -0.0560 -0.2997 -0.0814
 1650BOLB   NC139577  11.201  -1.016  18.729  0.1283 -0.2238 -0.1834
 1650BOLB   PO139578  10.980  -0.685  18.970  0.1438  0.0093 -0.0895
 1650BOLB   GL139579  10.729  -0.904  18.874  0.2030 -0.0464  0.2797
 1650BOLB   GL239580  10.695  -1.175  18.572 -0.1213 -0.0552 -0.0648
 1650BOLB   C1A39581  10.315  -1.065  18.875 -0.0059 -0.0956 -0.1082
 1650BOLB   C2A39582   9.884  -1.087  18.660  0.1565  0.3509  0.1939
 1650BOLB   C3A39583   9.495  -1.215  18.456 -0.0163  0.0855  0.3919
 1650BOLB   C4A39584   9.364  -1.227  18.033  0.0641  0.4414  0.2441
 1650BOLB   C1B39585  10.626  -1.491  18.856  0.0128 -0.1989  0.0381
 1650BOLB   C2B39586  10.527  -1.919  19.022 -0.0428 -0.0409 -0.2399
 1650BOLB   C3B39587  10.204  -1.960  18.661  0.3746  0.1367 -0.0113
 1650BOLB   C4B39588  10.243  -2.125  18.235  0.0814 -0.0282 -0.0690
 1650BOLB   NC239589   8.542  -2.320  15.792  0.1185 -0.0702  0.1367
 1650BOLB   PO239590   8.566  -2.520  16.206  0.0165 -0.2505  0.0089
 1650BOLB   GL339591   8.452  -2.253  16.472  0.0215 -0.2390  0.2557
 1650BOLB   GL439592   8.429  -1.874  16.543 -0.4715  0.3231  0.1079
 1650BOLB   C1C39593   8.580  -2.147  16.924  0.1222 -0.0998  0.3404
 1650BOLB   C2C39594   8.690  -1.851  17.010 -0.1158  0.2641  0.0623
 1650BOLB   C3C39595   8.855  -1.575  17.417  0.0034  0.0014  0.0465
 1650BOLB   C4C39596   9.195  -1.487  17.636 -0.0644 -0.2550 -0.0084
 1650BOLB   C1D39597   8.946  -1.907  16.399 -0.0903  0.0579  0.0336
 1650BOLB   C2D39598   9.098  -1.624  16.708 -0.0076  0.0405 -0.2927
 1650BOLB   C3D39599   9.280  -1.372  17.043 -0.0871 -0.1085  0.0027
 1650BOLB   C4D39600   9.665  -1.077  17.153  0.0611 -0.2421 -0.3696
 1651BOLB   NC139601   9.005   8.863  28.904  0.3915 -0.2840  0.3342
 1651BOLB   PO139602   9.138   8.789  29.287  0.1285  0.3000  0.0384
 1651BOLB   GL139603   8.872   9.148  29.484 -0.2120  0.1965  0.0132
 1651BOLB   GL239604   8.715   9.135  29.240 -0.0869  0.1600  0.0110
 1651BOLB   C1A39605   8.543   9.287  29.674 -0.1071  0.1759 -0.2732
 1651BOLB   C2A39606   8.119   9.297  29.744  0.0965  0.1295 -0.0099
 1651BOLB   C3A39607   7.842   9.197  29.959 -0.0351  0.0309  0.1601
 1651BOLB   C4A39608   7.448   9.494  29.977 -0.0225 -0.0144 -0.0219
 1651BOLB   C1B39609   8.361   9.160  29.198 -0.1760 -0.0570 -0.2395
 1651BOLB   C2B39610   7.986   9.163  29.302  0.2665  0.1515  0.2072
 1651BOLB   C3B39611   7.614   9.261  29.492 -0.1880 -0.0245 -0.2979
 1651BOLB   C4B39612   7.256   9.402  29.567  0.0001  0.2133  0.1492
 1651BOLB   NC239613   5.433  10.898  31.196 -0.0735 -0.4100 -0.1139
 1651BOLB   PO239614   5.785  10.506  31.062  0.1913 -0.0056  0.3340
 1651BOLB   GL339615   6.114  10.451  30.842  0.0082 -0.0296  0.4587
 1651BOLB   GL439616   6.394  10.348  30.932  0.3043 -0.1892  0.2832
 1651BOLB   C1C39617   6.330  10.467  30.423  0.1599 -0.0201  0.4345
 1651BOLB   C2C39618   6.723  10.400  30.254 -0.1346 -0.0409 -0.0603
 1651BOLB   C3C39619   7.096  10.220  30.052 -0.2611 -0.2782  0.2416
 1651BOLB   C4C39620   7.159   9.736  29.907  0.0049 -0.4447  0.2922
 1651BOLB   C1D39621   6.721  10.185  30.730 -0.2792 -0.1761  0.0092
 1651BOLB   C2D39622   7.176  10.125  30.542  0.1124 -0.0147 -0.0490
 1651BOLB   C3D39623   7.699  10.201  30.308  0.0587  0.0296 -0.1835
 1651BOLB   C4D39624   8.122  10.315  30.509  0.0825 -0.3477 -0.1804
 1652BOLB   NC139625  22.022   6.967  20.500  0.3820 -0.0255 -0.2342
 1652BOLB   PO139626  22.307   6.665  20.476  0.3432 -0.1319 -0.0019
 1652BOLB   GL139627  22.599   6.930  20.196  0.0706 -0.2327 -0.0588
 1652BOLB   GL239628  22.907   6.857  20.388  0.2323  0.1028 -0.2054
 1652BOLB   C1A39629  22.684   7.231  19.844  0.2783 -0.1472  0.0771
 1652BOLB   C2A39630  22.807   7.467  19.510  0.2031 -0.0652  0.0566
 1652BOLB   C3A39631  22.991   7.737  19.193  0.1065 -0.1170 -0.2528
 1652BOLB   C4A39632  22.964   7.984  18.935  0.1794 -0.0046 -0.0170
 1652BOLB   C1B39633  22.955   7.284  20.273  0.2762  0.0727 -0.0702
 1652BOLB   C2B39634  23.009   7.605  19.906  0.2176 -0.3056 -0.2381
 1652BOLB   C3B39635  23.325   7.970  19.800  0.2510  0.0403  0.1013
 1652BOLB   C4B39636  23.625   8.019  19.997 -0.0265  0.0842  0.0499
 1652BOLB   NC239637  25.574   9.111  19.056  0.1365  0.1602 -0.1675
 1652BOLB   PO239638  25.234   9.040  18.717 -0.1465 -0.2643  0.0884
 1652BOLB   GL339639  24.825   8.939  18.881 -0.0475 -0.1095  0.2203
 1652BOLB   GL439640  24.499   9.151  18.934 -0.0777  0.1896  0.1960
 1652BOLB   C1C39641  24.416   8.679  18.808 -0.2371  0.4936  0.0605
 1652BOLB   C2C39642  24.052   8.544  18.675 -0.0829 -0.0341 -0.1858
 1652BOLB   C3C39643  23.654   8.318  18.885  0.0456 -0.0758  0.0233
 1652BOLB   C4C39644  23.312   8.083  18.752 -0.0145  0.5150 -0.3265
 1652BOLB   C1D39645  24.090   9.046  19.193  0.0553  0.2413  0.2996
 1652BOLB   C2D39646  23.879   8.638  19.215 -0.0250 -0.0670  0.3216
 1652BOLB   C3D39647  23.374   8.610  19.145  0.1773  0.2474 -0.2887
 1652BOLB   C4D39648  23.092   8.507  18.746  0.2197 -0.0831 -0.3440
 1653BOLB   NC139649   9.979   8.661  21.952 -0.0625 -0.2414 -0.0572
 1653BOLB   PO139650   9.678   8.980  21.886  0.1364  0.1325 -0.1456
 1653BOLB   GL139651   9.521   8.863  21.478 -0.0962  0.1815 -0.1061
 1653BOLB   GL239652   9.135   8.833  21.411  0.0292  0.1488  0.0944
 1653BOLB   C1A39653   9.487   9.047  21.073  0.2302  0.0822  0.1824
 1653BOLB   C2A39654   9.586   9.304  20.846  0.1113 -0.0621  0.1775
 1653BOLB   C3A39655   9.392   9.597  20.551  0.1010  0.0932 -0.1323
 1653BOLB   C4A39656   9.045   9.503  20.351 -0.2257  0.0801 -0.1791
 1653BOLB   C1B39657   8.932   9.135  21.265 -0.0154 -0.0829  0.0779
 1653BOLB   C2B39658   8.665   9.500  21.202 -0.2959 -0.0514  0.3000
 1653BOLB   C3B39659   8.557   9.882  21.208 -0.1114 -0.2023 -0.2578
 1653BOLB   C4B39660   8.515  10.321  21.332  0.1410  0.1474 -0.1302
 1653BOLB   NC239661   6.649  10.043  18.907 -0.0163  0.0090 -0.2141
 1653BOLB   PO239662   6.901  10.001  19.276 -0.0101 -0.2046  0.1513
 1653BOLB   GL339663   7.166   9.772  19.532  0.0742 -0.0190 -0.1919
 1653BOLB   GL439664   7.026   9.463  19.491  0.0720  0.1247  0.1032
 1653BOLB   C1C39665   7.581   9.461  19.613 -0.1904  0.0502 -0.0819
 1653BOLB   C2C39666   7.894   9.265  19.940 -0.0024  0.1194 -0.1064
 1653BOLB   C3C39667   8.203   9.235  20.269 -0.2550 -0.0569 -0.2828
 1653BOLB   C4C39668   8.679   9.291  20.477 -0.0632 -0.3730  0.0510
 1653BOLB   C1D39669   7.187   9.122  19.668  0.0106  0.0917  0.1027
 1653BOLB   C2D39670   7.410   8.910  19.861 -0.1654 -0.0240 -0.3692
 1653BOLB   C3D39671   7.555   8.811  20.243 -0.1828 -0.2557  0.3457
 1653BOLB   C4D39672   7.732   9.075  20.531  0.1375  0.1709  0.1564
 1654BOLB   NC139673   2.885   4.103  27.142  0.1787  0.1016  0.0674
 1654BOLB   PO139674   3.027   3.734  27.407 -0.1070  0.0146  0.0879
 1654BOLB   GL139675   3.384   3.816  27.134  0.0365 -0.0230 -0.3060
 1654BOLB   GL239676   3.364   3.563  27.074 -0.0236  0.1369  0.1351
 1654BOLB   C1A39677   3.764   3.851  26.787 -0.0723 -0.1220  0.4428
 1654BOLB   C2A39678   4.163   3.712  26.440 -0.1680  0.0238 -0.3351
 1654BOLB   C3A39679   4.034   3.605  26.043 -0.3674 -0.1112 -0.0449
 1654BOLB   C4A39680   3.938   3.776  25.693  0.0325 -0.2111  0.0250
 1654BOLB   C1B39681   3.847   3.518  27.121  0.4195  0.1435 -0.2122
 1654BOLB   C2B39682   4.192   3.741  26.951 -0.0756  0.3243 -0.1541
 1654BOLB   C3B39683   4.510   3.955  26.936  0.0508  0.2989 -0.1451
 1654BOLB   C4B39684   4.568   4.330  26.857  0.0458 -0.0212 -0.0300
 1654BOLB   NC239685   2.823   4.984  24.168 -0.1925  0.1676  0.2471
 1654BOLB   PO239686   2.809   4.813  23.720  0.2064  0.2786  0.1079
 1654BOLB   GL339687   3.192   4.676  23.906  0.0380  0.0011 -0.1692
 1654BOLB   GL439688   3.210   4.435  23.561 -0.0954  0.0964 -0.0445
 1654BOLB   C1C39689   3.417   4.323  24.081  0.0283 -0.0841  0.0915
 1654BOLB   C2C39690   3.559   4.251  24.469  0.2212  0.0152 -0.0008
 1654BOLB   C3C39691   3.820   4.132  24.843  0.1973  0.0890  0.1510
 1654BOLB   C4C39692   3.845   4.043  25.298  0.0716  0.0443 -0.0903
 1654BOLB   C1D39693   3.654   4.443  23.528 -0.0316 -0.1391  0.2880
 1654BOLB   C2D39694   4.009   4.380  23.453  0.1683 -0.1816  0.1788
 1654BOLB   C3D39695   4.229   4.058  23.558  0.1855 -0.0139  0.0526
 1654BOLB   C4D39696   4.565   3.696  23.838 -0.1649  0.0535  0.2322
 1655BOLB   NC139697  28.340   7.391  25.111 -0.0331 -0.5148  0.0482
 1655BOLB   PO139698  28.209   7.539  24.696 -0.0826 -0.1448  0.3957
 1655BOLB   GL139699  27.876   7.321  24.679 -0.2201  0.1243  0.2912
 1655BOLB   GL239700  27.822   7.045  24.719  0.1553 -0.1678 -0.5066
 1655BOLB   C1A39701  27.482   7.170  24.424  0.0571 -0.1672  0.2971
 1655BOLB   C2A39702  27.062   6.927  24.326 -0.0336 -0.1872 -0.1703
 1655BOLB   C3A39703  26.549   6.954  24.272  0.1157  0.4393 -0.0837
 1655BOLB   C4A39704  26.143   6.963  24.157  0.1302 -0.0499  0.0656
 1655BOLB   C1B39705  27.633   6.961  25.216 -0.2348  0.1643 -0.1704
 1655BOLB   C2B39706  27.202   7.086  25.357 -0.0505 -0.0861  0.1193
 1655BOLB   C3B39707  26.862   7.196  25.225 -0.0506 -0.1107  0.0557
 1655BOLB   C4B39708  26.449   6.942  25.068 -0.1947 -0.3709  0.2333
 1655BOLB   NC239709  24.382   5.536  24.731 -0.1046 -0.2056 -0.3976
 1655BOLB   PO239710  24.040   5.822  24.765 -0.0342  0.0066  0.3870
 1655BOLB   GL339711  24.381   6.041  24.775  0.1227  0.0031 -0.1032
 1655BOLB   GL439712  24.487   6.121  25.039  0.0172  0.0673 -0.0327
 1655BOLB   C1C39713  24.691   6.278  24.567  0.0773  0.2064  0.3506
 1655BOLB   C2C39714  25.136   6.405  24.499  0.0636  0.4037 -0.2717
 1655BOLB   C3C39715  25.469   6.443  24.356 -0.0096 -0.3624  0.3407
 1655BOLB   C4C39716  25.856   6.694  24.411 -0.0292  0.2726 -0.1114
 1655BOLB   C1D39717  24.956   6.193  24.957  0.0239  0.1637 -0.1029
 1655BOLB   C2D39718  25.368   6.130  24.859  0.3073 -0.0049 -0.3555
 1655BOLB   C3D39719  25.743   6.202  24.696 -0.0156 -0.2510  0.0408
 1655BOLB   C4D39720  26.101   6.002  24.750  0.4353 -0.0497  0.2552
 1656BOLB   NC139721  14.027   9.904  20.836  0.0679  0.3696 -0.3477
 1656BOLB   PO139722  13.897   9.890  20.497  0.0960  0.2019  0.0790
 1656BOLB   GL139723  13.651  10.182  20.400 -0.1877 -0.0627 -0.2233
 1656BOLB   GL239724  13.854  10.362  20.219 -0.2294  0.2587  0.1978
 1656BOLB   C1A39725  13.645  10.574  20.545 -0.1417  0.1102  0.1512
 1656BOLB   C2A39726  13.512  10.990  20.470  0.0744 -0.0759 -0.3086
 1656BOLB   C3A39727  13.217  11.386  20.323  0.1242 -0.1820  0.2169
 1656BOLB   C4A39728  13.189  11.817  20.283  0.1650  0.0162 -0.0078
 1656BOLB   C1B39729  13.935  10.485  19.810 -0.2035 -0.2442  0.2869
 1656BOLB   C2B39730  13.875  11.002  19.640  0.2560 -0.0432  0.0446
 1656BOLB   C3B39731  14.038  11.405  19.547 -0.2111  0.2512 -0.0302
 1656BOLB   C4B39732  14.419  11.405  19.479 -0.0076 -0.3108  0.3273
 1656BOLB   NC239733  13.481  14.055  19.453 -0.3048  0.0270 -0.1026
 1656BOLB   PO239734  13.816  14.215  19.650  0.0057 -0.0787 -0.2441
 1656BOLB   GL339735  13.754  13.903  19.853  0.0325 -0.0109 -0.2016
 1656BOLB   GL439736  13.903  14.041  20.244 -0.3639  0.0389  0.1317
 1656BOLB   C1C39737  13.734  13.576  20.151  0.1943 -0.2428  0.0702
 1656BOLB   C2C39738  13.491  13.180  20.187  0.2961 -0.1460 -0.0812
 1656BOLB   C3C39739  13.258  12.733  20.126 -0.3931 -0.0195 -0.2811
 1656BOLB   C4C39740  13.161  12.272  20.202 -0.0810  0.5327 -0.0263
 1656BOLB   C1D39741  14.179  13.749  20.269  0.2010  0.1643 -0.1853
 1656BOLB   C2D39742  14.406  13.464  20.545 -0.6456  0.1644 -0.2886
 1656BOLB   C3D39743  14.332  13.143  20.819 -0.0043  0.2838  0.0651
 1656BOLB   C4D39744  14.302  13.290  21.265  0.1145  0.0747 -0.0948
 1657BOLB   NC139745  26.609  -1.446  19.744  0.2523 -0.1267 -0.2069
 1657BOLB   PO139746  26.549  -1.757  20.038  0.1247 -0.0348  0.0938
 1657BOLB   GL139747  26.125  -1.636  20.132 -0.1742  0.3258 -0.0632
 1657BOLB   GL239748  25.941  -1.929  19.973 -0.0563 -0.3641 -0.0545
 1657BOLB   C1A39749  26.004  -1.308  20.395 -0.3761  0.0484  0.0903
 1657BOLB   C2A39750  25.810  -1.252  20.695  0.0469  0.0147  0.0237
 1657BOLB   C3A39751  25.427  -1.369  20.851 -0.0339 -0.2177 -0.4252
 1657BOLB   C4A39752  25.217  -1.416  21.214 -0.1143 -0.0018  0.0144
 1657BOLB   C1B39753  25.624  -1.544  20.086 -0.3147 -0.1263  0.3803
 1657BOLB   C2B39754  25.350  -1.344  20.361  0.0753  0.4608  0.0490
 1657BOLB   C3B39755  25.001  -1.334  20.431 -0.4761 -0.2197 -0.0546
 1657BOLB   C4B39756  24.614  -1.273  20.582  0.0166  0.2415 -0.2845
 1657BOLB   NC239757  26.700  -2.028  20.418  0.3535  0.1359  0.0046
 1657BOLB   PO239758  26.683  -1.563  20.581 -0.0853 -0.2494 -0.0744
 1657BOLB   GL339759  26.666  -1.255  20.830 -0.2569  0.0784  0.2589
 1657BOLB   GL439760  26.957  -1.140  21.051 -0.2176  0.2270 -0.2180
 1657BOLB   C1C39761  26.476  -1.219  21.312 -0.2496  0.0672  0.2574
 1657BOLB   C2C39762  26.358  -0.921  21.549  0.2992 -0.1775  0.0376
 1657BOLB   C3C39763  25.866  -1.109  21.578 -0.3657  0.1250  0.0966
 1657BOLB   C4C39764  25.373  -1.206  21.570 -0.0776  0.0770  0.0450
 1657BOLB   C1D39765  26.857  -0.887  21.401  0.3629 -0.1114  0.3142
 1657BOLB   C2D39766  26.624  -0.520  21.413  0.2808 -0.1504 -0.3843
 1657BOLB   C3D39767  26.343  -0.468  21.315 -0.3316 -0.2694 -0.0981
 1657BOLB   C4D39768  25.934  -0.636  21.497  0.0576  0.0466  0.0808
 1658BOLB   NC139769   9.961  10.909  26.427  0.1195  0.1140  0.0006
 1658BOLB   PO139770  10.165  11.209  26.140  0.1663 -0.1997 -0.0842
 1658BOLB   GL139771   9.997  11.668  26.210  0.1204 -0.1604 -0.3715
 1658BOLB   GL239772  10.297  11.849  26.075  0.1901 -0.0405 -0.1514
 1658BOLB   C1A39773   9.580  11.972  26.274 -0.2023 -0.0772 -0.1190
 1658BOLB   C2A39774   9.208  12.187  26.108 -0.3142  0.1455  0.0070
 1658BOLB   C3A39775   8.857  12.006  26.037  0.2454 -0.1573  0.2085
 1658BOLB   C4A39776   8.502  11.978  26.089  0.4432 -0.3398 -0.1491
 1658BOLB   C1B39777  10.064  12.152  25.850  0.0970 -0.0757  0.2082
 1658BOLB   C2B39778   9.726  12.395  26.002  0.0153 -0.1406  0.0279
 1658BOLB   C3B39779   9.433  12.640  26.095 -0.4422  0.1929 -0.2579
 1658BOLB   C4B39780   9.239  13.052  25.846 -0.3360  0.0372  0.1889
 1658BOLB   NC239781   7.175  14.087  26.185 -0.0327 -0.1143 -0.1613
 1658BOLB   PO239782   7.423  14.045  25.825 -0.2472 -0.0459  0.1858
 1658BOLB   GL339783   7.854  13.769  25.843  0.1265 -0.0607 -0.0743
 1658BOLB   GL439784   8.081  13.789  26.011 -0.0020 -0.0849  0.1833
 1658BOLB   C1C39785   7.844  13.377  25.895  0.2611 -0.1426 -0.1834
 1658BOLB   C2C39786   7.798  12.934  26.004 -0.0606 -0.1119 -0.1250
 1658BOLB   C3C39787   7.987  12.628  25.930  0.0170  0.1111  0.1519
 1658BOLB   C4C39788   8.102  12.217  25.881 -0.0755 -0.3478  0.1474
 1658BOLB   C1D39789   8.299  13.379  26.243  0.0577  0.1176  0.1009
 1658BOLB   C2D39790   8.459  13.230  26.587 -0.4621  0.1063 -0.1659
 1658BOLB   C3D39791   8.622  13.003  26.958  0.0665  0.2693 -0.0192
 1658BOLB   C4D39792   8.969  12.817  27.254 -0.1732  0.1007 -0.0477
 1659BOLB   NC139793  24.319  -8.270  17.405 -0.0716  0.2581 -0.0076
 1659BOLB   PO139794  24.099  -7.908  17.572  0.1165  0.1695  0.2368
 1659BOLB   GL139795  24.115  -7.559  17.315 -0.0079  0.3166 -0.0080
 1659BOLB   GL239796  24.346  -7.433  17.180  0.1710  0.2794  0.0915
 1659BOLB   C1A39797  23.867  -7.152  17.519  0.1330  0.0431  0.0989
 1659BOLB   C2A39798  23.804  -6.703  17.656 -0.2805  0.2454  0.1648
 1659BOLB   C3A39799  23.672  -6.309  17.439 -0.0830  0.2468  0.4126
 1659BOLB   C4A39800  23.453  -6.026  17.025  0.2564 -0.1903 -0.0478
 1659BOLB   C1B39801  24.016  -7.194  16.976  0.0283 -0.0257 -0.0226
 1659BOLB   C2B39802  23.658  -6.934  16.672 -0.0343 -0.1370 -0.1163
 1659BOLB   C3B39803  23.496  -6.884  16.225 -0.3043  0.2965  0.0770
 1659BOLB   C4B39804  23.704  -6.986  15.960 -0.1643 -0.0548  0.1549
 1659BOLB   NC239805  24.539  -7.549  16.350  0.2232  0.0414  0.2733
 1659BOLB   PO239806  24.830  -7.156  16.244 -0.0107  0.2289 -0.3251
 1659BOLB   GL339807  24.458  -6.936  16.166  0.1987 -0.0812 -0.1249
 1659BOLB   GL439808  24.239  -7.068  15.975 -0.3832 -0.1505 -0.2049
 1659BOLB   C1C39809  24.359  -6.474  16.035 -0.2821  0.1266 -0.0504
 1659BOLB   C2C39810  24.158  -6.113  16.299 -0.0983 -0.3373 -0.0446
 1659BOLB   C3C39811  23.756  -5.930  16.256 -0.2882  0.4004  0.1613
 1659BOLB   C4C39812  23.352  -5.918  16.543  0.0272 -0.5485 -0.3714
 1659BOLB   C1D39813  24.045  -6.751  15.714  0.1812 -0.1722  0.0542
 1659BOLB   C2D39814  23.707  -6.544  15.516  0.0600 -0.0794 -0.0075
 1659BOLB   C3D39815  23.362  -6.598  15.351  0.0547 -0.4390  0.0472
 1659BOLB   C4D39816  23.016  -6.550  15.509 -0.4666 -0.0856  0.0231
 1660BOLB   NC139817  14.781   7.804  17.562 -0.0884  0.1183  0.1900
 1660BOLB   PO139818  14.447   7.586  17.453  0.0437 -0.2397 -0.2261
 1660BOLB   GL139819  14.477   7.649  17.043 -0.1751 -0.0049  0.1229
 1660BOLB   GL239820  14.530   7.971  17.129 -0.2376 -0.2275  0.3018
 1660BOLB   C1A39821  14.357   7.614  16.570 -0.0044  0.2738  0.1535
 1660BOLB   C2A39822  14.274   7.580  16.177  0.1140 -0.1368 -0.0030
 1660BOLB   C3A39823  14.028   7.811  15.926 -0.0070  0.0234  0.2597
 1660BOLB   C4A39824  13.792   8.149  15.753  0.1326 -0.0417  0.2969
 1660BOLB   C1B39825  14.191   8.225  16.966  0.3921 -0.0240  0.0441
 1660BOLB   C2B39826  14.069   8.586  16.811  0.0361  0.2889  0.2079
 1660BOLB   C3B39827  13.849   8.933  16.871  0.2032 -0.1656  0.2479
 1660BOLB   C4B39828  13.625   9.109  16.592 -0.3247 -0.2936 -0.3263
 1660BOLB   NC239829  12.756   8.201  13.768  0.0419 -0.1772 -0.0636
 1660BOLB   PO239830  12.750   8.449  14.107  0.0226  0.1292 -0.0394
 1660BOLB   GL339831  12.623   8.080  14.246  0.0553  0.1716  0.1148
 1660BOLB   GL439832  12.388   7.780  14.207  0.2465  0.1966 -0.2853
 1660BOLB   C1C39833  12.791   7.894  14.590 -0.1926 -0.0294  0.3213
 1660BOLB   C2C39834  13.111   7.948  14.841  0.0310  0.0634  0.1607
 1660BOLB   C3C39835  13.360   8.175  15.000  0.2478  0.3679 -0.0341
 1660BOLB   C4C39836  13.571   8.082  15.364 -0.2292  0.0791 -0.0523
 1660BOLB   C1D39837  12.443   7.364  14.300 -0.0115 -0.1660 -0.0228
 1660BOLB   C2D39838  12.640   6.999  14.476  0.2489 -0.2106 -0.1339
 1660BOLB   C3D39839  12.825   6.889  14.932  0.0298 -0.2516 -0.0963
 1660BOLB   C4D39840  12.632   6.910  15.371 -0.0237  0.0227 -0.2613
 1661BOLB   NC139841  24.447   4.253  25.228  0.0843  0.0544 -0.0722
 1661BOLB   PO139842  24.677   4.427  25.601  0.1510  0.1590  0.2673
 1661BOLB   GL139843  25.091   4.331  25.537  0.0330  0.5616 -0.3483
 1661BOLB   GL239844  25.225   3.998  25.597 -0.0961 -0.1811 -0.0597
 1661BOLB   C1A39845  25.310   4.223  25.165  0.0725  0.0364 -0.0381
 1661BOLB   C2A39846  25.610   4.222  24.803  0.0877 -0.1084 -0.0954
 1661BOLB   C3A39847  26.038   4.128  24.840 -0.0235  0.2168 -0.0392
 1661BOLB   C4A39848  26.409   4.287  24.746 -0.1273  0.0251  0.0867
 1661BOLB   C1B39849  25.691   4.094  25.531 -0.1048 -0.0681 -0.0801
 1661BOLB   C2B39850  25.871   4.371  25.202  0.0812  0.0361 -0.3159
 1661BOLB   C3B39851  26.274   4.621  25.187  0.2396 -0.0442  0.0670
 1661BOLB   C4B39852  26.686   4.699  24.980 -0.2210  0.0261  0.0160
 1661BOLB   NC239853  28.779   4.058  24.729  0.1184 -0.4973 -0.2020
 1661BOLB   PO239854  28.659   4.387  24.513 -0.0121  0.0473  0.2365
 1661BOLB   GL339855  28.306   4.339  24.466 -0.2364 -0.0590 -0.0369
 1661BOLB   GL439856  28.294   4.483  24.133 -0.0714 -0.2672 -0.2176
 1661BOLB   C1C39857  27.882   4.585  24.538 -0.3048 -0.4129 -0.0312
 1661BOLB   C2C39858  27.477   4.400  24.627 -0.3194 -0.3462 -0.1814
 1661BOLB   C3C39859  27.047   4.397  24.507 -0.1247 -0.2782 -0.1801
 1661BOLB   C4C39860  26.739   4.372  24.605 -0.1441 -0.1378  0.0583
 1661BOLB   C1D39861  27.979   4.350  24.029  0.0794  0.1077 -0.2026
 1661BOLB   C2D39862  27.463   4.331  24.120 -0.1406  0.1479 -0.0919
 1661BOLB   C3D39863  27.057   4.368  23.932  0.0383 -0.3413  0.1069
 1661BOLB   C4D39864  26.653   4.528  24.000  0.1181 -0.0731  0.2762
 1662BOLB   NC139865  18.216  12.196  25.067 -0.1472  0.0901 -0.0760
 1662BOLB   PO139866  18.125  12.205  25.506 -0.1323 -0.0064  0.0869
 1662BOLB   GL139867  18.159  12.607  25.620 -0.2328 -0.1220  0.2676
 1662BOLB   GL239868  18.226  12.740  25.773 -0.2531  0.0144 -0.0289
 1662BOLB   C1A39869  17.970  12.939  25.356  0.0728 -0.2054 -0.3059
 1662BOLB   C2A39870  17.714  13.348  25.466 -0.1057 -0.2904 -0.2732
 1662BOLB   C3A39871  17.496  13.664  25.555  0.1589  0.0947  0.0114
 1662BOLB   C4A39872  17.200  14.130  25.571 -0.1535  0.1110  0.1603
 1662BOLB   C1B39873  18.461  13.047  25.651 -0.3347  0.0145  0.1950
 1662BOLB   C2B39874  18.886  13.303  25.743  0.1854  0.0987 -0.0618
 1662BOLB   C3B39875  19.270  13.575  25.631 -0.0079  0.1010 -0.0512
 1662BOLB   C4B39876  19.428  13.963  25.555 -0.0327  0.2640  0.0071
 1662BOLB   NC239877  16.153  16.261  25.241  0.3050 -0.3906 -0.3562
 1662BOLB   PO239878  16.574  16.082  25.462  0.3098 -0.3716 -0.1172
 1662BOLB   GL339879  16.374  15.758  25.465 -0.3104 -0.1261 -0.2654
 1662BOLB   GL439880  16.045  15.760  25.672 -0.0667  0.0975  0.2695
 1662BOLB   C1C39881  16.536  15.456  25.223  0.1631 -0.2696  0.2057
 1662BOLB   C2C39882  16.621  15.036  25.195  0.0256  0.1579 -0.1260
 1662BOLB   C3C39883  17.018  14.831  25.343  0.1970 -0.1040 -0.3023
 1662BOLB   C4C39884  17.228  14.478  25.559  0.0286  0.0009  0.2021
 1662BOLB   C1D39885  16.004  15.436  25.361 -0.1074  0.1134  0.0935
 1662BOLB   C2D39886  16.180  15.059  25.468 -0.3845  0.0979 -0.0297
 1662BOLB   C3D39887  16.393  14.736  25.501  0.1619 -0.0205  0.3524
 1662BOLB   C4D39888  16.542  14.499  25.213  0.0238 -0.1577 -0.1852
 1663BOLB   NC139889  11.226   2.948  32.391  0.0638 -0.0245 -0.2186
 1663BOLB   PO139890  10.910   2.994  32.565 -0.1978 -0.1604  0.2788
 1663BOLB   GL139891  10.633   2.850  32.805 -0.0121  0.0510 -0.2424
 1663BOLB   GL239892  10.628   3.068  32.974  0.0626  0.1017  0.0862
 1663BOLB   C1A39893  10.223   2.713  33.044  0.0543  0.0013 -0.3355
 1663BOLB   C2A39894  10.090   2.452  33.390 -0.0198 -0.2208  0.0737
 1663BOLB   C3A39895  10.113   2.649  33.742 -0.2771  0.2661 -0.3260
 1663BOLB   C4A39896  10.263   2.942  34.029 -0.1543  0.2638  0.0697
 1663BOLB   C1B39897  10.927   3.045  33.362 -0.1378 -0.2501 -0.1249
 1663BOLB   C2B39898  10.747   3.307  33.801  0.1030 -0.0055  0.4228
 1663BOLB   C3B39899  10.871   3.494  34.092  0.0979 -0.1496 -0.0037
 1663BOLB   C4B39900  10.842   3.779  34.393  0.2053  0.2368  0.1880
 1663BOLB   NC239901   9.232   3.153  35.811  0.1057  0.1334  0.2400
 1663BOLB   PO239902   9.407   3.419  36.077 -0.1139  0.1081 -0.1480
 1663BOLB   GL339903   9.685   3.283  35.713  0.2528 -0.1464  0.1779
 1663BOLB   GL439904   9.857   2.977  35.770  0.0489 -0.1489  0.0340
 1663BOLB   C1C39905   9.558   3.145  35.323 -0.0077 -0.2866  0.1473
 1663BOLB   C2C39906   9.464   3.135  34.847 -0.0416 -0.0014  0.2179
 1663BOLB   C3C39907   9.608   3.263  34.488 -0.0048  0.0843  0.1160
 1663BOLB   C4C39908   9.975   3.197  34.247 -0.2840 -0.3456  0.3336
 1663BOLB   C1D39909  10.140   3.198  35.522  0.1498 -0.0357 -0.0755
 1663BOLB   C2D39910  10.271   3.405  35.222 -0.1634 -0.2143 -0.3508
 1663BOLB   C3D39911  10.148   3.830  35.021 -0.0378 -0.2878  0.0507
 1663BOLB   C4D39912  10.174   4.243  34.844  0.0837 -0.3126  0.0420
 1664BOLB   NC139913  16.752  11.803  29.257  0.0022 -0.0701  0.0437
 1664BOLB   PO139914  17.017  12.074  28.950  0.1619  0.1505  0.0107
 1664BOLB   GL139915  17.221  12.233  29.386  0.1185 -0.0508  0.2289
 1664BOLB   GL239916  17.556  12.134  29.316 -0.1557  0.1464  0.0855
 1664BOLB   C1A39917  17.461  12.521  29.716  0.0726  0.0377 -0.1876
 1664BOLB   C2A39918  17.529  12.956  29.677 -0.1399  0.3097 -0.0730
 1664BOLB   C3A39919  17.469  13.383  29.543 -0.1978  0.1308 -0.0120
 1664BOLB   C4A39920  17.456  13.769  29.389  0.2804 -0.0639 -0.0674
 1664BOLB   C1B39921  17.833  12.473  29.321  0.0800 -0.0086  0.1165
 1664BOLB   C2B39922  17.989  12.669  29.626 -0.3099  0.1044 -0.4916
 1664BOLB   C3B39923  18.106  13.023  29.632  0.1108  0.1815  0.0548
 1664BOLB   C4B39924  18.361  13.409  29.543  0.3326 -0.2202  0.0644
 1664BOLB   NC239925  18.188  15.758  29.177  0.0780 -0.1845 -0.3422
 1664BOLB   PO239926  18.594  15.621  29.001 -0.4592 -0.1035  0.0346
 1664BOLB   GL339927  18.423  15.259  28.789 -0.0538 -0.1375 -0.0126
 1664BOLB   GL439928  18.123  15.370  28.644  0.2138 -0.1254 -0.0764
 1664BOLB   C1C39929  18.372  14.844  29.054 -0.2696 -0.1349 -0.3200
 1664BOLB   C2C39930  18.029  14.562  29.079  0.0574  0.2151  0.1761
 1664BOLB   C3C39931  17.653  14.305  28.837 -0.2149 -0.1008 -0.1687
 1664BOLB   C4C39932  17.300  14.074  28.976 -0.1249 -0.0006 -0.3238
 1664BOLB   C1D39933  18.223  14.922  28.525  0.0562  0.0521 -0.0846
 1664BOLB   C2D39934  18.041  14.414  28.577 -0.1648  0.0606 -0.3156
 1664BOLB   C3D39935  18.142  14.090  28.824 -0.4279 -0.0273  0.0908
 1664BOLB   C4D39936  18.207  13.726  29.087  0.2439 -0.1433 -0.2079
 1665BOLB   NC139937  13.524  10.048  21.486  0.1798  0.1268  0.0047
 1665BOLB   PO139938  13.104  10.204  21.584  0.2903 -0.1685 -0.2213
 1665BOLB   GL139939  13.422  10.497  21.362 -0.0004  0.0137 -0.3712
 1665BOLB   GL239940  13.423  10.752  21.494 -0.3170 -0.1087  0.1145
 1665BOLB   C1A39941  13.502  10.745  20.986 -0.2355 -0.0806  0.4123
 1665BOLB   C2A39942  13.385  11.284  20.957 -0.0389  0.2502 -0.0317
 1665BOLB   C3A39943  13.107  11.617  20.807 -0.1978 -0.0783  0.1312
 1665BOLB   C4A39944  12.751  11.780  20.616 -0.1411  0.0339 -0.0449
 1665BOLB   C1B39945  13.141  11.064  21.332 -0.0389 -0.1041  0.1100
 1665BOLB   C2B39946  13.069  11.530  21.316 -0.1365  0.0378 -0.1649
 1665BOLB   C3B39947  12.732  11.703  21.101  0.0853  0.1164 -0.0660
 1665BOLB   C4B39948  12.561  12.073  20.983  0.0810 -0.0216  0.0758
 1665BOLB   NC239949  12.572  14.126  19.419 -0.4167 -0.3204 -0.3356
 1665BOLB   PO239950  12.321  13.807  19.151 -0.2294  0.3664  0.1410
 1665BOLB   GL339951  12.479  13.617  19.495  0.1892 -0.0532  0.2130
 1665BOLB   GL439952  12.627  13.367  19.300  0.2625  0.1896  0.1197
 1665BOLB   C1C39953  12.541  13.297  19.911  0.3587  0.0829  0.1236
 1665BOLB   C2C39954  12.710  12.935  20.260  0.3098 -0.1742  0.1431
 1665BOLB   C3C39955  12.788  12.548  20.339 -0.1312  0.3292  0.0959
 1665BOLB   C4C39956  12.705  12.074  20.306  0.4612  0.0125 -0.0985
 1665BOLB   C1D39957  12.457  12.947  19.380  0.3272  0.1983  0.0585
 1665BOLB   C2D39958  12.409  12.494  19.434 -0.0198 -0.2136 -0.0896
 1665BOLB   C3D39959  12.384  12.105  19.606 -0.3107 -0.1992  0.2356
 1665BOLB   C4D39960  12.322  11.841  19.960 -0.2301  0.0618 -0.4795
 1666BOLB   NC139961  28.151   4.834  21.371  0.1947 -0.2812  0.2996
 1666BOLB   PO139962  27.881   4.400  21.421  0.0453 -0.1216  0.0646
 1666BOLB   GL139963  27.696   3.988  21.562 -0.1756  0.2200  0.0713
 1666BOLB   GL239964  27.781   3.739  21.780  0.4498  0.1954  0.0900
 1666BOLB   C1A39965  27.338   3.724  21.552  0.0629  0.0788 -0.1767
 1666BOLB   C2A39966  27.040   3.376  21.534 -0.0173 -0.0131 -0.0648
 1666BOLB   C3A39967  26.665   3.224  21.345 -0.2646 -0.0726 -0.0718
 1666BOLB   C4A39968  26.344   2.945  21.324  0.0225  0.1562 -0.5626
 1666BOLB   C1B39969  27.701   3.866  22.246  0.1263  0.0971  0.0314
 1666BOLB   C2B39970  27.322   3.733  22.427  0.1393  0.0651 -0.0589
 1666BOLB   C3B39971  26.964   4.001  22.328  0.0828 -0.0458 -0.2868
 1666BOLB   C4B39972  26.539   4.188  22.277 -0.1308  0.0254  0.0033
 1666BOLB   NC239973  24.262   2.914  22.414 -0.1340  0.0216  0.1327
 1666BOLB   PO239974  24.074   2.520  22.282 -0.3455  0.0636 -0.1860
 1666BOLB   GL339975  24.404   2.611  21.988 -0.1287 -0.0715 -0.0699
 1666BOLB   GL439976  24.636   2.387  21.970  0.0548  0.0230  0.2923
 1666BOLB   C1C39977  24.790   2.808  22.136  0.1870 -0.1477 -0.2726
 1666BOLB   C2C39978  25.284   2.863  21.986 -0.3628  0.6218 -0.1155
 1666BOLB   C3C39979  25.735   2.808  21.927  0.1390  0.1931  0.0309
 1666BOLB   C4C39980  26.060   2.777  21.596  0.0590  0.0363  0.2328
 1666BOLB   C1D39981  25.018   2.481  21.764  0.1647 -0.0033 -0.2887
 1666BOLB   C2D39982  25.403   2.477  21.628  0.0233  0.1078  0.0160
 1666BOLB   C3D39983  25.723   2.527  21.386  0.0061  0.0100  0.0071
 1666BOLB   C4D39984  25.987   2.669  21.056 -0.3631  0.2162 -0.1576
 1667BOLB   NC139985  15.392  10.848  20.993  0.1506  0.0457 -0.1754
 1667BOLB   PO139986  15.707  11.081  21.140  0.2429  0.0130 -0.1612
 1667BOLB   GL139987  15.455  11.413  21.162 -0.5100 -0.2874 -0.2567
 1667BOLB   GL239988  15.313  11.371  20.932  0.1421 -0.1000 -0.1165
 1667BOLB   C1A39989  15.289  11.834  21.272 -0.5039 -0.2521 -0.0423
 1667BOLB   C2A39990  15.274  12.233  21.210 -0.2991  0.2768 -0.1600
 1667BOLB   C3A39991  15.219  12.476  20.865  0.2655  0.0826  0.1043
 1667BOLB   C4A39992  15.205  12.551  20.485 -0.2136 -0.1986 -0.1447
 1667BOLB   C1B39993  15.265  11.714  20.756 -0.0150 -0.0828  0.0978
 1667BOLB   C2B39994  15.140  12.087  20.477  0.4875  0.2481  0.0154
 1667BOLB   C3B39995  14.879  12.190  20.119  0.0887 -0.2100 -0.0990
 1667BOLB   C4B39996  14.569  12.338  20.148  0.0438 -0.0545 -0.0328
 1667BOLB   NC239997  13.845  14.801  19.595 -0.0015  0.0178 -0.1019
 1667BOLB   PO239998  14.219  14.495  19.613 -0.1113  0.1339 -0.1099
 1667BOLB   GL339999  14.276  14.168  19.899  0.3396  0.1493  0.3152
 1667BOLB   GL440000  14.389  13.826  19.763 -0.0880 -0.1362 -0.2440
 1667BOLB   C1C40001  14.644  13.949  20.154 -0.3072  0.2078 -0.1233
 1667BOLB   C2C40002  14.905  13.620  20.327  0.0292  0.0454 -0.0225
 1667BOLB   C3C40003  15.208  13.283  20.212 -0.1128  0.1598 -0.0553
 1667BOLB   C4C40004  15.400  12.912  20.186 -0.1296  0.0324 -0.0167
 1667BOLB   C1D40005  14.547  13.454  19.974  0.0014  0.0209 -0.0499
 1667BOLB   C2D40006  14.657  13.125  20.244 -0.3734 -0.2900  0.3033
 1667BOLB   C3D40007  14.618  12.694  20.480  0.0099 -0.0225 -0.1471
 1667BOLB   C4D40008  14.303  12.591  20.800 -0.0264  0.1474 -0.3009
 1668BOLB   NC140009   8.580  -0.168  22.346  0.0838 -0.1223 -0.1958
 1668BOLB   PO140010   8.379   0.023  21.998  0.1585  0.1656  0.1491
 1668BOLB   GL140011   7.985  -0.087  21.821 -0.2006  0.4302  0.1492
 1668BOLB   GL240012   7.844   0.084  21.444  0.4611 -0.1913 -0.0422
 1668BOLB   C1A40013   7.615  -0.303  21.764 -0.3061 -0.1497  0.0410
 1668BOLB   C2A40014   7.212  -0.213  21.608 -0.4465 -0.1763 -0.1021
 1668BOLB   C3A40015   7.133  -0.282  21.149  0.1501 -0.1830  0.1282
 1668BOLB   C4A40016   6.667  -0.396  21.026  0.3182  0.0109  0.2575
 1668BOLB   C1B40017   7.458   0.240  21.432  0.1319 -0.1316 -0.0007
 1668BOLB   C2B40018   7.028   0.242  21.337 -0.1031 -0.0579  0.1520
 1668BOLB   C3B40019   6.748  -0.041  21.435  0.0019  0.0661 -0.1275
 1668BOLB   C4B40020   6.287  -0.114  21.552  0.0131  0.0346 -0.0683
 1668BOLB   NC240021   5.317  -1.306  19.520  0.0198  0.0788  0.0178
 1668BOLB   PO240022   4.948  -1.201  19.609  0.1387  0.1410  0.1929
 1668BOLB   GL340023   5.201  -0.952  19.840  0.2714 -0.0287  0.2869
 1668BOLB   GL440024   5.386  -0.774  19.742 -0.0652  0.0736  0.3028
 1668BOLB   C1C40025   5.320  -0.577  20.166  0.2603  0.1400 -0.1234
 1668BOLB   C2C40026   5.712  -0.396  20.293 -0.3932 -0.0305  0.0500
 1668BOLB   C3C40027   5.876  -0.102  20.587 -0.1495 -0.0020  0.0404
 1668BOLB   C4C40028   6.315  -0.097  20.780 -0.0774 -0.0386  0.0479
 1668BOLB   C1D40029   5.463  -0.312  19.740 -0.1011  0.2898  0.0631
 1668BOLB   C2D40030   5.568  -0.015  19.983  0.0159  0.2270 -0.0861
 1668BOLB   C3D40031   6.010  -0.010  20.111  0.1889 -0.0205 -0.1363
 1668BOLB   C4D40032   6.311   0.043  19.957  0.2977  0.2207 -0.3484
 1669BOLB   NC140033  12.026  -1.965  19.030 -0.2556  0.0123 -0.2539
 1669BOLB   PO140034  11.714  -1.885  19.370  0.1647 -0.2035 -0.0376
 1669BOLB   GL140035  11.321  -1.762  19.136 -0.1901 -0.0532 -0.1754
 1669BOLB   GL240036  11.414  -1.984  18.868 -0.1911  0.1011  0.1015
 1669BOLB   C1A40037  10.956  -1.847  18.858  0.0784  0.0519 -0.1252
 1669BOLB   C2A40038  10.712  -2.149  18.582 -0.1489 -0.1515  0.2755
 1669BOLB   C3A40039  10.552  -2.529  18.400  0.0834  0.0834 -0.0445
 1669BOLB   C4A40040  10.492  -2.882  18.176  0.1372 -0.0952 -0.2418
 1669BOLB   C1B40041  11.212  -2.281  18.577  0.0926  0.1022  0.1492
 1669BOLB   C2B40042  10.995  -2.717  18.459  0.1320  0.1499  0.0005
 1669BOLB   C3B40043  10.780  -2.922  18.669 -0.2232 -0.1564  0.0592
 1669BOLB   C4B40044  10.350  -3.057  18.895 -0.0880  0.0217  0.5105
 1669BOLB   NC240045   9.661  -4.030  15.931  0.3090 -0.3640  0.0944
 1669BOLB   PO240046   9.882  -3.792  16.149 -0.2732 -0.0353  0.0238
 1669BOLB   GL340047  10.119  -3.756  16.477 -0.0413 -0.1527  0.1513
 1669BOLB   GL440048   9.829  -3.752  16.645 -0.3536  0.0443 -0.3721
 1669BOLB   C1C40049  10.232  -3.866  16.851  0.0816  0.0183 -0.0183
 1669BOLB   C2C40050  10.561  -3.788  17.188  0.0303  0.1520 -0.0862
 1669BOLB   C3C40051  10.534  -3.603  17.640  0.0658  0.1217  0.0985
 1669BOLB   C4C40052  10.533  -3.264  17.973 -0.0354  0.0846 -0.0680
 1669BOLB   C1D40053   9.866  -3.573  17.004  0.0752  0.0720  0.0550
 1669BOLB   C2D40054  10.010  -3.569  17.431 -0.2954 -0.2234  0.0012
 1669BOLB   C3D40055   9.705  -3.356  17.745 -0.2732 -0.0477  0.0264
 1669BOLB   C4D40056   9.662  -2.964  17.867 -0.1571  0.0540 -0.1583
 1670BOLB   NC140057   9.394   7.997  21.767 -0.0153 -0.0956  0.1264
 1670BOLB   PO140058   9.144   7.682  21.967 -0.0451  0.2331 -0.0767
 1670BOLB   GL140059   8.858   7.848  21.654 -0.3109 -0.0727  0.2770
 1670BOLB   GL240060   8.623   7.715  21.370  0.0042 -0.1497 -0.3507
 1670BOLB   C1A40061   8.537   8.154  21.624  0.1234  0.1008  0.1665
 1670BOLB   C2A40062   8.135   8.400  21.396  0.1968 -0.0624 -0.1571
 1670BOLB   C3A40063   7.777   8.375  21.234 -0.0478  0.3258  0.4622
 1670BOLB   C4A40064   7.439   8.485  21.211 -0.0536 -0.0029  0.1207
 1670BOLB   C1B40065   8.342   7.916  21.246  0.0087 -0.1436  0.0526
 1670BOLB   C2B40066   8.084   8.142  20.972  0.1905 -0.2290 -0.0919
 1670BOLB   C3B40067   8.147   8.342  20.562  0.0528  0.3504  0.2243
 1670BOLB   C4B40068   7.710   8.293  20.403  0.0098 -0.3707  0.0220
 1670BOLB   NC240069   6.519  10.152  19.595  0.1482 -0.1809 -0.4662
 1670BOLB   PO240070   6.460   9.742  19.391 -0.1555 -0.3187 -0.1644
 1670BOLB   GL340071   6.783   9.704  19.823  0.0337 -0.0517 -0.0877
 1670BOLB   GL440072   6.920  10.052  19.875 -0.2403  0.1340 -0.1570
 1670BOLB   C1C40073   6.778   9.768  20.307 -0.0258  0.1371  0.3019
 1670BOLB   C2C40074   6.877   9.474  20.610  0.5038 -0.1760 -0.0970
 1670BOLB   C3C40075   7.273   9.242  20.693  0.2015 -0.1346  0.0525
 1670BOLB   C4C40076   7.354   8.794  20.943  0.0248 -0.0733 -0.2381
 1670BOLB   C1D40077   7.250   9.765  20.030 -0.3170  0.1682 -0.0322
 1670BOLB   C2D40078   7.314   9.336  20.172 -0.0637  0.1050 -0.2000
 1670BOLB   C3D40079   7.101   9.013  20.242  0.0725 -0.0691 -0.1286
 1670BOLB   C4D40080   7.145   8.770  20.527 -0.0516 -0.1139 -0.1571
 1671BOLB   NC140081  24.065  -5.979  22.995 -0.2634  0.2381  0.0303
 1671BOLB   PO140082  23.863  -5.534  22.890 -0.0566 -0.1526 -0.0782
 1671BOLB   GL140083  23.722  -5.083  22.797  0.1526  0.0798  0.3625
 1671BOLB   GL240084  23.412  -5.217  22.716 -0.0949  0.1665  0.1472
 1671BOLB   C1A40085  23.584  -4.714  22.971  0.0457 -0.0529 -0.4215
 1671BOLB   C2A40086  23.192  -4.633  22.984  0.2437 -0.0248 -0.1099
 1671BOLB   C3A40087  22.785  -4.355  22.932 -0.0079  0.0468  0.0044
 1671BOLB   C4A40088  22.407  -4.416  22.671  0.2137  0.1941 -0.0888
 1671BOLB   C1B40089  23.149  -4.901  22.580  0.1417  0.0206  0.0299
 1671BOLB   C2B40090  22.870  -4.571  22.503  0.1014  0.2595  0.3607
 1671BOLB   C3B40091  22.564  -4.435  22.204  0.1447  0.1927  0.0047
 1671BOLB   C4B40092  22.102  -4.409  22.200 -0.0982  0.0713 -0.0920
 1671BOLB   NC240093  23.055  -6.554  22.766 -0.0982 -0.1653 -0.2945
 1671BOLB   PO240094  22.815  -6.743  22.525 -0.1536  0.1178  0.0668
 1671BOLB   GL340095  22.519  -6.441  22.330 -0.0002  0.0040 -0.2764
 1671BOLB   GL440096  22.220  -6.526  22.335  0.4183  0.1426  0.0789
 1671BOLB   C1C40097  22.291  -6.028  22.186 -0.2897  0.0718 -0.0841
 1671BOLB   C2C40098  22.064  -5.708  22.314  0.0547 -0.3031 -0.0220
 1671BOLB   C3C40099  22.250  -5.295  22.428 -0.0707 -0.2765  0.2903
 1671BOLB   C4C40100  22.166  -4.813  22.440 -0.2676  0.1364 -0.2582
 1671BOLB   C1D40101  21.886  -6.205  22.167  0.0235 -0.0050  0.0519
 1671BOLB   C2D40102  21.866  -5.860  21.912  0.0097  0.1204 -0.1326
 1671BOLB   C3D40103  21.875  -5.604  21.455 -0.3443  0.1283 -0.0653
 1671BOLB   C4D40104  21.572  -5.586  21.189 -0.1348 -0.2089  0.1685
 1672BOLB   NC140105  24.188   6.458  25.277 -0.0879  0.1705 -0.1440
 1672BOLB   PO140106  24.477   6.616  25.520 -0.2449 -0.1501 -0.2141
 1672BOLB   GL140107  24.853   6.673  25.283  0.0707  0.0624 -0.2835
 1672BOLB   GL240108  25.008   6.923  25.400  0.0347 -0.0338  0.1313
 1672BOLB   C1A40109  25.263   6.644  25.009  0.1039 -0.1388  0.0713
 1672BOLB   C2A40110  25.634   6.647  24.819  0.3068  0.2137 -0.0869
 1672BOLB   C3A40111  26.052   6.578  25.068  0.0542  0.2148  0.0559
 1672BOLB   C4A40112  26.434   6.443  25.153 -0.3848  0.1763 -0.2516
 1672BOLB   C1B40113  25.223   7.097  25.671 -0.1895  0.0031  0.4028
 1672BOLB   C2B40114  25.584   7.269  25.782 -0.0349  0.0206 -0.0732
 1672BOLB   C3B40115  25.832   7.624  25.719 -0.2772 -0.2406 -0.1513
 1672BOLB   C4B40116  26.063   7.678  26.166 -0.0608  0.1037 -0.0438
 1672BOLB   NC240117  28.533   4.860  24.523  0.0063  0.0165  0.0644
 1672BOLB   PO240118  28.542   5.234  24.920  0.3785 -0.1243 -0.0833
 1672BOLB   GL340119  28.159   5.181  24.691  0.2311 -0.0665 -0.1268
 1672BOLB   GL440120  27.932   4.888  24.944  0.1472 -0.2829  0.0154
 1672BOLB   C1C40121  27.808   5.379  24.908  0.0288 -0.0360  0.2541
 1672BOLB   C2C40122  27.390   5.552  25.060  0.2422 -0.2922  0.0085
 1672BOLB   C3C40123  27.105   5.853  25.319  0.1873 -0.2207  0.1348
 1672BOLB   C4C40124  26.735   5.994  25.192  0.1687 -0.0094  0.0158
 1672BOLB   C1D40125  27.657   4.586  25.106 -0.2045  0.0427  0.0937
 1672BOLB   C2D40126  27.306   4.240  25.222  0.0208 -0.1563 -0.1851
 1672BOLB   C3D40127  26.934   4.116  25.020 -0.0865  0.0391  0.1127
 1672BOLB   C4D40128  26.532   4.091  25.197 -0.1220  0.1537  0.0854
 1673BOLB   NC140129   3.395   5.663  24.372 -0.2802  0.1207  0.1376
 1673BOLB   PO140130   3.740   5.782  24.185 -0.3894 -0.3269 -0.2937
 1673BOLB   GL140131   4.193   5.702  24.051 -0.1385  0.1815  0.2901
 1673BOLB   GL240132   4.391   5.927  24.160 -0.2798  0.0492 -0.1277
 1673BOLB   C1A40133   4.615   5.499  24.062 -0.0094 -0.0011  0.0613
 1673BOLB   C2A40134   4.977   5.144  24.144  0.0626 -0.0456 -0.3226
 1673BOLB   C3A40135   5.021   4.749  24.321 -0.0231  0.0278 -0.1586
 1673BOLB   C4A40136   5.097   4.808  24.744  0.0820 -0.0907 -0.0217
 1673BOLB   C1B40137   4.412   5.902  24.560  0.0818 -0.0300  0.0806
 1673BOLB   C2B40138   4.684   5.810  24.912  0.0581 -0.0206  0.1563
 1673BOLB   C3B40139   4.876   5.577  25.113 -0.0084  0.1878 -0.3376
 1673BOLB   C4B40140   5.001   5.378  25.457  0.0074 -0.1270  0.2751
 1673BOLB   NC240141   7.292   5.137  25.667  0.1151 -0.3049  0.0246
 1673BOLB   PO240142   7.173   4.952  25.958 -0.1202  0.0558 -0.1690
 1673BOLB   GL340143   6.688   4.977  26.116 -0.1877  0.0391 -0.2255
 1673BOLB   GL440144   6.662   5.310  26.263 -0.0946 -0.1669 -0.0344
 1673BOLB   C1C40145   6.217   5.204  25.922 -0.2454 -0.3990 -0.0717
 1673BOLB   C2C40146   5.756   5.192  25.708 -0.3307  0.1653  0.0799
 1673BOLB   C3C40147   5.487   5.282  25.500  0.2264  0.0085  0.0210
 1673BOLB   C4C40148   5.240   5.103  25.083  0.1681 -0.0629 -0.3496
 1673BOLB   C1D40149   6.396   5.453  26.322 -0.3945  0.0783  0.0280
 1673BOLB   C2D40150   6.187   5.799  26.542  0.2933 -0.0030 -0.1874
 1673BOLB   C3D40151   5.981   6.168  26.331  0.0702  0.1589  0.0207
 1673BOLB   C4D40152   5.664   6.488  26.210 -0.0667  0.0583 -0.2069
 1674BOLB   NC140153  14.927   0.026  12.300  0.0843 -0.0603  0.2204
 1674BOLB   PO140154  14.807   0.386  12.603  0.3712  0.3252 -0.4616
 1674BOLB   GL140155  14.917   0.085  12.869 -0.1463  0.0106 -0.0413
 1674BOLB   GL240156  14.866  -0.289  12.775  0.0688  0.0152  0.0346
 1674BOLB   C1A40157  15.180  -0.007  13.211  0.1220 -0.1557 -0.0019
 1674BOLB   C2A40158  15.391   0.257  13.510  0.0298 -0.1049 -0.2325
 1674BOLB   C3A40159  15.459   0.483  13.999  0.1896  0.0963  0.2086
 1674BOLB   C4A40160  15.743   0.777  14.077  0.0998 -0.0015  0.2225
 1674BOLB   C1B40161  15.171  -0.603  12.913 -0.0452 -0.0598 -0.0911
 1674BOLB   C2B40162  15.351  -0.506  13.316 -0.1638  0.0261 -0.0200
 1674BOLB   C3B40163  15.531  -0.653  13.568  0.0440  0.0563  0.0630
 1674BOLB   C4B40164  15.803  -0.926  13.909  0.2458 -0.0889 -0.0120
 1674BOLB   NC240165  16.463   2.279  12.154  0.4475 -0.2028  0.0533
 1674BOLB   PO240166  15.995   2.145  12.239 -0.1547 -0.0046 -0.2403
 1674BOLB   GL340167  16.053   2.221  12.590  0.0319  0.3451 -0.1949
 1674BOLB   GL440168  16.392   2.261  12.657 -0.2483  0.1998  0.1249
 1674BOLB   C1C40169  16.125   1.891  12.928  0.0646  0.3522  0.0929
 1674BOLB   C2C40170  16.279   1.729  13.330  0.2237 -0.0635  0.3181
 1674BOLB   C3C40171  16.259   1.376  13.558 -0.0315  0.1205  0.0454
 1674BOLB   C4C40172  16.105   0.931  13.710  0.2835 -0.1519  0.3578
 1674BOLB   C1D40173  16.525   2.236  13.171 -0.2476  0.1493 -0.1509
 1674BOLB   C2D40174  16.550   1.993  13.641  0.1540 -0.0076  0.1843
 1674BOLB   C3D40175  16.236   1.966  13.974  0.2133 -0.1911  0.1813
 1674BOLB   C4D40176  15.909   1.579  14.177  0.0450 -0.3110 -0.0571
 1675BOLB   NC140177  10.425   5.087  13.668  0.0195  0.0426 -0.1178
 1675BOLB   PO140178  10.765   5.114  13.394 -0.0960  0.1285  0.3006
 1675BOLB   GL140179  10.875   5.031  13.839 -0.0106 -0.0026  0.1067
 1675BOLB   GL240180  10.700   5.280  14.034  0.0563 -0.2305 -0.2220
 1675BOLB   C1A40181  10.775   4.774  14.228 -0.0942  0.1800  0.2223
 1675BOLB   C2A40182  11.053   4.625  14.593  0.1858 -0.2419  0.0578
 1675BOLB   C3A40183  11.037   4.436  15.019 -0.1811 -0.1851  0.2335
 1675BOLB   C4A40184  11.138   4.500  15.510  0.0435 -0.1205  0.1582
 1675BOLB   C1B40185  10.988   5.259  14.358  0.2135  0.1576  0.0284
 1675BOLB   C2B40186  11.248   5.533  14.597  0.0014 -0.2082  0.0560
 1675BOLB   C3B40187  11.561   5.607  15.037  0.2609 -0.0253  0.0225
 1675BOLB   C4B40188  11.565   5.752  15.592  0.0647  0.0518 -0.1773
 1675BOLB   NC240189  12.371   4.370  17.887 -0.3345 -0.3568 -0.1147
 1675BOLB   PO240190  12.386   4.128  17.532  0.1079 -0.5292 -0.1107
 1675BOLB   GL340191  12.389   3.861  17.192  0.0605 -0.3636 -0.1481
 1675BOLB   GL440192  12.602   3.712  17.118  0.1450 -0.0719  0.1228
 1675BOLB   C1C40193  12.115   4.028  16.841  0.0933 -0.1063  0.0138
 1675BOLB   C2C40194  11.739   4.091  16.511  0.0728  0.3240  0.1569
 1675BOLB   C3C40195  11.417   4.156  16.344  0.0748 -0.0885  0.0625
 1675BOLB   C4C40196  11.149   4.434  16.023  0.0598  0.1914  0.1666
 1675BOLB   C1D40197  12.667   4.015  16.846 -0.0320  0.2986  0.0649
 1675BOLB   C2D40198  12.650   4.315  16.513 -0.0811 -0.1956 -0.2351
 1675BOLB   C3D40199  12.490   4.528  16.113  0.1672 -0.0071  0.2399
 1675BOLB   C4D40200  12.495   4.766  15.936  0.3088 -0.0986 -0.0266
 1676BOLB   NC140201  10.659   1.991  18.234  0.2872  0.0609  0.5541
 1676BOLB   PO140202  10.782   1.703  18.191  0.0699 -0.1971  0.1579
 1676BOLB   GL140203  10.665   1.896  17.722  0.4684  0.0628  0.1331
 1676BOLB   GL240204  10.815   2.043  17.492 -0.1930  0.2246 -0.3322
 1676BOLB   C1A40205  10.314   1.946  17.399  0.4829  0.6063 -0.2143
 1676BOLB   C2A40206  10.125   2.029  17.037 -0.2519 -0.4650 -0.0535
 1676BOLB   C3A40207  10.189   1.931  16.611 -0.0195  0.0690  0.1880
 1676BOLB   C4A40208  10.233   1.881  16.225 -0.0528 -0.1635  0.0646
 1676BOLB   C1B40209  10.726   2.081  16.995 -0.0128 -0.1933  0.1235
 1676BOLB   C2B40210  10.660   1.732  16.672 -0.0501  0.2458  0.0953
 1676BOLB   C3B40211  10.436   1.451  16.486 -0.0239 -0.4017 -0.0492
 1676BOLB   C4B40212  10.382   1.187  16.234 -0.1766 -0.4243  0.2329
 1676BOLB   NC240213   8.415   0.301  14.173 -0.1428  0.0831  0.0184
 1676BOLB   PO240214   8.544   0.418  14.623  0.0506 -0.1142  0.0064
 1676BOLB   GL340215   8.782   0.741  14.905 -0.3461  0.2520  0.0844
 1676BOLB   GL440216   8.608   0.664  15.183 -0.0946  0.0220 -0.1174
 1676BOLB   C1C40217   9.113   0.991  15.004 -0.2240 -0.0213  0.0014
 1676BOLB   C2C40218   9.353   1.233  15.220  0.0209 -0.1655 -0.3202
 1676BOLB   C3C40219   9.692   1.476  15.492  0.1873  0.0807  0.1800
 1676BOLB   C4C40220  10.044   1.680  15.792  0.1359  0.0331  0.0457
 1676BOLB   C1D40221   9.035   0.503  15.296 -0.1412  0.5516  0.0096
 1676BOLB   C2D40222   9.175   0.561  15.696 -0.1014 -0.0098 -0.2312
 1676BOLB   C3D40223   9.114   0.488  16.131  0.2249  0.2700  0.0109
 1676BOLB   C4D40224   8.895   0.575  16.524  0.2939  0.0797  0.1961
 1677BOLB   NC140225  14.475   3.713  33.424  0.1608 -0.0807 -0.0690
 1677BOLB   PO140226  13.941   3.701  33.446 -0.3498  0.2719 -0.1504
 1677BOLB   GL140227  13.559   3.736  33.721 -0.1423 -0.0429  0.0586
 1677BOLB   GL240228  13.642   3.896  33.970  0.0907  0.1611 -0.2706
 1677BOLB   C1A40229  13.217   3.569  34.078  0.2065  0.1160 -0.1011
 1677BOLB   C2A40230  13.272   3.265  34.378  0.0343 -0.0901 -0.1224
 1677BOLB   C3A40231  12.943   3.193  34.732 -0.1041  0.1429 -0.0440
 1677BOLB   C4A40232  12.921   3.049  35.043 -0.0863 -0.0307  0.1165
 1677BOLB   C1B40233  13.420   3.831  34.458  0.3221 -0.0117 -0.1473
 1677BOLB   C2B40234  13.410   3.734  34.860 -0.1398 -0.0253  0.2377
 1677BOLB   C3B40235  13.262   3.546  35.306  0.2468 -0.2704 -0.0023
 1677BOLB   C4B40236  12.926   3.432  35.608  0.4208 -0.0104  0.0173
 1677BOLB   NC240237  10.951   2.258  37.040 -0.4565 -0.0529  0.0754
 1677BOLB   PO240238  11.258   2.320  36.756 -0.3030 -0.3072  0.1231
 1677BOLB   GL340239  11.579   2.584  36.427  0.0896 -0.1521  0.1445
 1677BOLB   GL440240  11.805   2.491  36.577 -0.0961 -0.2571  0.1477
 1677BOLB   C1C40241  11.872   2.688  36.163 -0.0676 -0.2612 -0.1781
 1677BOLB   C2C40242  12.225   2.847  35.887  0.0723 -0.0387 -0.3832
 1677BOLB   C3C40243  12.567   3.066  35.765 -0.0111 -0.0959  0.0013
 1677BOLB   C4C40244  12.850   2.936  35.403 -0.0857 -0.0904 -0.3036
 1677BOLB   C1D40245  12.159   2.421  36.447 -0.0631 -0.1697 -0.1492
 1677BOLB   C2D40246  12.267   2.053  36.205  0.1497 -0.3301  0.2731
 1677BOLB   C3D40247  12.165   1.806  35.937  0.0069 -0.3685  0.0672
 1677BOLB   C4D40248  11.954   1.450  35.804  0.0039  0.1408  0.1268
 1678BOLB   NC140249  11.324  -3.236  23.974  0.0398 -0.1373 -0.1916
 1678BOLB   PO140250  11.369  -3.599  23.859  0.4122  0.0070 -0.0637
 1678BOLB   GL140251  10.965  -3.677  23.964  0.2465 -0.0194 -0.2859
 1678BOLB   GL240252  10.947  -3.814  23.653 -0.2215 -0.1432  0.0405
 1678BOLB   C1A40253  10.617  -3.913  24.125 -0.0453 -0.0746 -0.2201
 1678BOLB   C2A40254  10.313  -4.344  24.206 -0.1812 -0.3070 -0.2526
 1678BOLB   C3A40255  10.106  -4.626  24.004 -0.2826 -0.0637  0.3390
 1678BOLB   C4A40256  10.250  -5.080  23.884  0.1353  0.2179  0.0627
 1678BOLB   C1B40257  10.747  -4.270  23.749  0.1869 -0.0660  0.0297
 1678BOLB   C2B40258  10.691  -4.760  23.722  0.1866 -0.1753  0.1515
 1678BOLB   C3B40259  10.676  -5.220  23.676 -0.3373  0.2929 -0.3666
 1678BOLB   C4B40260  10.808  -5.246  23.299 -0.0539 -0.2164  0.0862
 1678BOLB   NC240261   8.655  -7.107  23.750 -0.1829  0.0826 -0.0971
 1678BOLB   PO240262   9.039  -7.220  24.037  0.1146  0.0700 -0.1106
 1678BOLB   GL340263   9.241  -6.861  24.038 -0.1575  0.2802  0.1788
 1678BOLB   GL440264   9.130  -6.704  23.802  0.0103  0.0329  0.0706
 1678BOLB   C1C40265   9.670  -6.594  23.888 -0.1205  0.0446 -0.3041
 1678BOLB   C2C40266   9.890  -6.202  23.780  0.0038  0.1389 -0.1684
 1678BOLB   C3C40267  10.174  -5.816  23.604  0.0132  0.1544  0.0837
 1678BOLB   C4C40268  10.147  -5.376  23.616 -0.0857  0.0889 -0.1123
 1678BOLB   C1D40269   9.325  -6.295  23.696 -0.1939 -0.0894 -0.0499
 1678BOLB   C2D40270   9.166  -5.830  23.731  0.1330 -0.2360  0.0110
 1678BOLB   C3D40271   9.221  -5.416  23.556  0.3177 -0.1359 -0.3277
 1678BOLB   C4D40272   8.882  -5.131  23.332 -0.0572  0.1657  0.2549
 1679BOLB   NC140273   9.825   3.764  36.083  0.0648 -0.0550 -0.0011
 1679BOLB   PO140274  10.205   3.706  36.224 -0.0296  0.2042 -0.0207
 1679BOLB   GL140275  10.466   3.440  36.164 -0.1135 -0.1077 -0.1759
 1679BOLB   GL240276  10.431   3.249  35.880  0.0819  0.1302 -0.0266
 1679BOLB   C1A40277  10.852   3.578  35.925 -0.3113 -0.2281 -0.0483
 1679BOLB   C2A40278  11.030   3.617  35.559  0.3821  0.1395  0.1841
 1679BOLB   C3A40279  11.418   3.534  35.390  0.2861 -0.2947 -0.0526
 1679BOLB   C4A40280  11.590   3.250  35.281 -0.3274  0.0540 -0.0140
 1679BOLB   C1B40281  10.653   3.310  35.495  0.1098 -0.0045 -0.0776
 1679BOLB   C2B40282  10.625   3.183  35.071  0.2301  0.1735 -0.0018
 1679BOLB   C3B40283  10.900   2.939  34.737  0.0368 -0.1872 -0.1312
 1679BOLB   C4B40284  10.930   2.936  34.256  0.2814 -0.1036 -0.1671
 1679BOLB   NC240285  11.699   3.686  32.935 -0.1823  0.0549  0.2204
 1679BOLB   PO240286  11.537   3.260  33.055  0.1080  0.2079  0.2774
 1679BOLB   GL340287  11.429   3.481  33.391  0.3042  0.4311  0.3520
 1679BOLB   GL440288  11.440   3.822  33.349 -0.0932  0.1394  0.0374
 1679BOLB   C1C40289  11.199   3.468  33.754  0.3113  0.0360 -0.1147
 1679BOLB   C2C40290  11.415   3.331  34.170  0.1180  0.0816 -0.1184
 1679BOLB   C3C40291  11.304   3.006  34.503  0.0400  0.0663  0.0586
 1679BOLB   C4C40292  11.468   2.945  34.859  0.0552 -0.0489  0.1811
 1679BOLB   C1D40293  11.451   3.981  33.754  0.1175  0.2560 -0.1475
 1679BOLB   C2D40294  11.347   3.845  34.094 -0.0305  0.1833 -0.2531
 1679BOLB   C3D40295  11.406   3.735  34.479 -0.3241 -0.1749  0.1145
 1679BOLB   C4D40296  11.556   3.412  34.698  0.0734 -0.1975  0.0495
 1680BOLB   NC140297   6.635  -2.681  17.948 -0.0163 -0.4285  0.0579
 1680BOLB   PO140298   6.953  -2.382  17.821  0.1524  0.0652 -0.1540
 1680BOLB   GL140299   7.295  -2.045  17.884 -0.1109 -0.1264  0.0357
 1680BOLB   GL240300   7.112  -1.822  18.042 -0.0448  0.3333 -0.1025
 1680BOLB   C1A40301   7.676  -1.893  18.113  0.2181  0.1216 -0.0606
 1680BOLB   C2A40302   7.706  -1.619  18.419 -0.1583  0.1339  0.1816
 1680BOLB   C3A40303   7.840  -1.467  18.803  0.0369  0.1643  0.0541
 1680BOLB   C4A40304   7.867  -1.242  19.230 -0.2469  0.2949  0.3069
 1680BOLB   C1B40305   7.216  -1.451  18.326 -0.0194  0.0566 -0.3109
 1680BOLB   C2B40306   7.450  -1.167  18.680 -0.0463  0.1951  0.2601
 1680BOLB   C3B40307   7.441  -1.046  19.003  0.1114  0.4456 -0.0708
 1680BOLB   C4B40308   7.332  -0.774  19.169  0.3271 -0.1968 -0.0918
 1680BOLB   NC240309   6.156  -1.511  17.999  0.0269  0.1084 -0.0512
 1680BOLB   PO240310   5.902  -1.185  18.023  0.0052 -0.1529  0.4149
 1680BOLB   GL340311   6.133  -0.928  18.281 -0.1143 -0.1463  0.2654
 1680BOLB   GL440312   6.483  -0.793  18.230  0.2697  0.2923  0.1653
 1680BOLB   C1C40313   6.285  -0.972  18.718 -0.1564 -0.0362  0.0911
 1680BOLB   C2C40314   6.678  -1.051  19.004  0.1926  0.0441 -0.0417
 1680BOLB   C3C40315   7.057  -1.161  19.318  0.2260  0.0185  0.1816
 1680BOLB   C4C40316   7.492  -1.261  19.471  0.0403 -0.0245  0.2381
 1680BOLB   C1D40317   6.836  -0.475  18.277 -0.0728 -0.2933 -0.2573
 1680BOLB   C2D40318   7.150  -0.255  18.522  0.0205 -0.2532 -0.3174
 1680BOLB   C3D40319   7.454  -0.210  18.941  0.0825 -0.0381 -0.0585
 1680BOLB   C4D40320   7.773  -0.404  19.142 -0.0118  0.1859  0.0249
 1681BOLB   NC140321  14.153   5.673  33.669 -0.1993  0.2189 -0.0334
 1681BOLB   PO140322  13.877   5.932  33.759  0.1033  0.1374  0.2693
 1681BOLB   GL140323  13.842   6.083  34.114  0.0310 -0.0698 -0.0399
 1681BOLB   GL240324  13.575   5.850  34.160 -0.0949  0.0462 -0.2360
 1681BOLB   C1A40325  14.171   6.038  34.512 -0.0146 -0.1521  0.0244
 1681BOLB   C2A40326  14.135   6.253  34.944  0.1526 -0.1554  0.1150
 1681BOLB   C3A40327  13.842   6.402  35.252 -0.0356  0.4287  0.2685
 1681BOLB   C4A40328  13.602   6.538  35.633  0.4018  0.0080 -0.0961
 1681BOLB   C1B40329  13.650   5.855  34.621 -0.1372 -0.1844  0.3203
 1681BOLB   C2B40330  13.808   5.914  35.102  0.1355 -0.0855  0.0788
 1681BOLB   C3B40331  14.041   5.946  35.445  0.0131  0.0347  0.1576
 1681BOLB   C4B40332  14.153   6.189  35.837 -0.2872  0.3173  0.1896
 1681BOLB   NC240333  15.356   6.929  37.370 -0.1259 -0.2650 -0.3815
 1681BOLB   PO240334  15.215   7.457  37.368  0.2217  0.0474  0.0180
 1681BOLB   GL340335  14.987   7.264  36.955 -0.1080  0.1661 -0.4831
 1681BOLB   GL440336  15.078   7.222  36.621 -0.0686 -0.0984 -0.2241
 1681BOLB   C1C40337  14.593   7.209  36.706 -0.0189  0.1831 -0.2102
 1681BOLB   C2C40338  14.260   7.085  36.457 -0.1099 -0.0874  0.1785
 1681BOLB   C3C40339  13.857   6.954  36.309 -0.4406 -0.1967 -0.1175
 1681BOLB   C4C40340  13.565   6.780  35.868 -0.1144 -0.0160  0.1214
 1681BOLB   C1D40341  15.266   7.390  36.363  0.1945  0.4404  0.0480
 1681BOLB   C2D40342  15.662   7.355  36.340 -0.0857 -0.1999  0.0608
 1681BOLB   C3D40343  15.832   7.463  35.931  0.1362  0.5049 -0.0804
 1681BOLB   C4D40344  15.851   7.654  35.635  0.2474  0.2362  0.1747
 1682BOLB   NC140345  18.174  -9.326  18.279  0.0754 -0.1446 -0.1466
 1682BOLB   PO140346  18.084  -9.226  17.853 -0.0057  0.0928 -0.0463
 1682BOLB   GL140347  18.233  -8.870  17.623  0.5398  0.0194 -0.1543
 1682BOLB   GL240348  18.238  -8.958  17.280 -0.0039 -0.1081  0.1145
 1682BOLB   C1A40349  18.364  -8.439  17.497 -0.0076  0.0570  0.0592
 1682BOLB   C2A40350  18.677  -8.169  17.406  0.0977  0.0276 -0.0555
 1682BOLB   C3A40351  19.032  -7.925  17.311 -0.3013 -0.0125  0.0153
 1682BOLB   C4A40352  19.394  -7.653  17.406  0.1494 -0.0800  0.1087
 1682BOLB   C1B40353  18.645  -8.699  17.206  0.0169  0.0030 -0.1984
 1682BOLB   C2B40354  18.957  -8.453  16.908 -0.0665 -0.0740 -0.1191
 1682BOLB   C3B40355  19.191  -8.121  16.870  0.0248  0.3584  0.2063
 1682BOLB   C4B40356  19.308  -7.706  16.935 -0.0303 -0.0975  0.1589
 1682BOLB   NC240357  19.458  -8.829  19.461 -0.0396  0.0138 -0.2787
 1682BOLB   PO240358  19.584  -8.986  19.087  0.0681 -0.1071 -0.0900
 1682BOLB   GL340359  19.677  -8.466  19.147 -0.0321  0.0729 -0.2490
 1682BOLB   GL440360  19.455  -8.206  18.947  0.0918 -0.1798  0.1232
 1682BOLB   C1C40361  19.909  -8.059  19.113 -0.3121  0.1683 -0.1834
 1682BOLB   C2C40362  19.960  -7.712  18.725  0.1331 -0.0372  0.0583
 1682BOLB   C3C40363  19.981  -7.561  18.331 -0.1212  0.2738  0.1248
 1682BOLB   C4C40364  19.663  -7.585  17.868  0.1293 -0.1245  0.1547
 1682BOLB   C1D40365  19.134  -8.047  18.569 -0.2540  0.0524 -0.1656
 1682BOLB   C2D40366  18.730  -7.967  18.647 -0.1102 -0.1068  0.2889
 1682BOLB   C3D40367  18.373  -8.062  18.584 -0.0408  0.1129  0.1806
 1682BOLB   C4D40368  18.180  -8.540  18.421  0.0020  0.1250  0.1930
 1683BOLB   NC140369  14.162   3.134  33.348  0.3688  0.1026  0.0252
 1683BOLB   PO140370  14.655   3.209  33.435 -0.1000  0.0547 -0.2631
 1683BOLB   GL140371  14.615   3.420  33.836 -0.1672 -0.6461 -0.0054
 1683BOLB   GL240372  14.774   3.147  33.982  0.2414 -0.1303  0.1312
 1683BOLB   C1A40373  14.617   3.672  34.182 -0.2507 -0.0444 -0.3371
 1683BOLB   C2A40374  14.398   3.792  34.597 -0.0315 -0.1204  0.0400
 1683BOLB   C3A40375  14.312   3.911  34.918 -0.2679  0.1528 -0.2916
 1683BOLB   C4A40376  14.331   4.018  35.406 -0.1771  0.0627  0.0842
 1683BOLB   C1B40377  14.642   2.853  34.274  0.0637  0.0389 -0.0155
 1683BOLB   C2B40378  14.182   2.759  34.394  0.2171 -0.3905  0.2252
 1683BOLB   C3B40379  14.055   2.665  34.806  0.1153 -0.2711 -0.1088
 1683BOLB   C4B40380  13.920   2.949  35.098 -0.1963 -0.0773 -0.0103
 1683BOLB   NC240381  13.298   3.182  38.114 -0.0260 -0.0425  0.0603
 1683BOLB   PO240382  13.333   3.153  37.673  0.0668  0.0415 -0.0043
 1683BOLB   GL340383  13.381   3.230  37.165  0.2534  0.1918 -0.0482
 1683BOLB   GL440384  13.240   3.424  37.014 -0.1406  0.4331 -0.1140
 1683BOLB   C1C40385  13.702   3.517  36.955  0.2723 -0.0407 -0.1303
 1683BOLB   C2C40386  13.970   3.630  36.640  0.1135  0.2515  0.1508
 1683BOLB   C3C40387  14.109   3.725  36.180 -0.1048  0.2398 -0.2052
 1683BOLB   C4C40388  14.255   3.895  35.742 -0.1263  0.1929 -0.2734
 1683BOLB   C1D40389  13.356   3.617  36.634 -0.1497 -0.2676 -0.1032
 1683BOLB   C2D40390  13.317   3.666  36.149 -0.0037  0.2086 -0.0655
 1683BOLB   C3D40391  13.434   3.437  35.807  0.1062 -0.1507  0.0428
 1683BOLB   C4D40392  13.704   3.399  35.443 -0.1290  0.0660  0.1383
 1684BOLB   NC140393  17.293  12.472  26.132 -0.0440 -0.2291  0.1050
 1684BOLB   PO140394  16.896  12.194  26.018 -0.1280  0.0412 -0.2203
 1684BOLB   GL140395  16.877  12.674  25.993  0.0646  0.0477  0.1095
 1684BOLB   GL240396  16.890  12.735  25.629  0.3978  0.1488 -0.0026
 1684BOLB   C1A40397  16.942  13.111  25.943 -0.1071  0.0726 -0.5038
 1684BOLB   C2A40398  16.649  13.426  25.822 -0.3861 -0.0719 -0.5758
 1684BOLB   C3A40399  16.551  13.833  25.898  0.0767  0.1036  0.0757
 1684BOLB   C4A40400  16.547  14.112  26.147  0.0327 -0.0869 -0.0547
 1684BOLB   C1B40401  16.814  12.952  25.183  0.0708  0.1332  0.0022
 1684BOLB   C2B40402  16.764  13.384  25.246  0.1619  0.0335 -0.0662
 1684BOLB   C3B40403  16.915  13.662  25.440 -0.2210  0.0924 -0.1624
 1684BOLB   C4B40404  17.044  13.689  25.842 -0.0537 -0.2063 -0.0946
 1684BOLB   NC240405  15.997  16.930  26.188 -0.1480  0.2257  0.0733
 1684BOLB   PO240406  16.154  16.423  26.217  0.1246 -0.0786 -0.0621
 1684BOLB   GL340407  16.447  16.077  26.305 -0.2700 -0.1011 -0.2317
 1684BOLB   GL440408  16.458  15.916  25.999 -0.2293 -0.0179 -0.0511
 1684BOLB   C1C40409  16.685  15.638  26.327 -0.0314 -0.5168  0.2062
 1684BOLB   C2C40410  16.662  15.282  26.284  0.0952 -0.0448 -0.1682
 1684BOLB   C3C40411  16.511  14.861  26.380  0.0306  0.1081 -0.4496
 1684BOLB   C4C40412  16.556  14.473  26.311 -0.1302  0.2735  0.1860
 1684BOLB   C1D40413  16.274  15.503  25.943 -0.0133 -0.0722  0.0764
 1684BOLB   C2D40414  16.366  15.040  25.935 -0.1236  0.0611 -0.2995
 1684BOLB   C3D40415  16.257  14.632  25.984 -0.0246  0.1425 -0.1099
 1684BOLB   C4D40416  16.179  14.298  25.791  0.0715  0.4420 -0.1418
 1685BOLB   NC140417  23.397   7.471  24.334  0.1215 -0.0706  0.0518
 1685BOLB   PO140418  23.880   7.277  24.325 -0.1926  0.0761 -0.0217
 1685BOLB   GL140419  24.239   7.581  24.257  0.0411  0.2226 -0.0245
 1685BOLB   GL240420  24.383   7.875  24.501  0.5058  0.0764  0.1615
 1685BOLB   C1A40421  24.665   7.679  24.105  0.1152  0.0100  0.0763
 1685BOLB   C2A40422  25.128   7.690  24.105 -0.1068  0.0740 -0.0598
 1685BOLB   C3A40423  25.532   7.622  23.885 -0.3983  0.0429 -0.3761
 1685BOLB   C4A40424  25.864   7.867  23.937 -0.1200 -0.4000  0.5333
 1685BOLB   C1B40425  24.688   7.834  24.881  0.0567  0.3407  0.0314
 1685BOLB   C2B40426  25.097   7.789  24.992 -0.5384  0.1673 -0.5681
 1685BOLB   C3B40427  25.433   7.602  24.710  0.0532 -0.2350  0.1270
 1685BOLB   C4B40428  25.524   7.765  24.333 -0.1662 -0.1944  0.1725
 1685BOLB   NC240429  28.205   7.977  23.788  0.1583 -0.2554 -0.1940
 1685BOLB   PO240430  27.949   8.240  23.529 -0.1138  0.4062 -0.0162
 1685BOLB   GL340431  27.665   7.906  23.715  0.2293  0.0565 -0.0365
 1685BOLB   GL440432  27.500   7.669  23.519 -0.1388 -0.2749 -0.0367
 1685BOLB   C1C40433  27.290   8.015  23.930 -0.2974 -0.0882  0.0769
 1685BOLB   C2C40434  27.035   8.334  24.073  0.1052 -0.1398 -0.2195
 1685BOLB   C3C40435  26.564   8.353  24.098  0.1133  0.0078  0.1296
 1685BOLB   C4C40436  26.339   7.996  23.946  0.1266 -0.2559 -0.0003
 1685BOLB   C1D40437  27.137   7.570  23.599  0.0274  0.0862 -0.0499
 1685BOLB   C2D40438  26.671   7.510  23.464  0.4557 -0.0791 -0.2093
 1685BOLB   C3D40439  26.428   7.222  23.226 -0.0423  0.3508 -0.1198
 1685BOLB   C4D40440  26.025   7.181  22.943 -0.1500  0.2751  0.2392
 1686BOLB   NC140441  23.169  -7.230  20.899 -0.0762 -0.1432  0.0122
 1686BOLB   PO140442  23.557  -6.956  20.932 -0.0913  0.0724  0.0832
 1686BOLB   GL140443  23.620  -6.746  20.547  0.2077  0.1928 -0.2476
 1686BOLB   GL240444  23.815  -6.719  20.320 -0.2387 -0.2419 -0.1928
 1686BOLB   C1A40445  23.344  -6.430  20.472 -0.0046 -0.0772  0.0684
 1686BOLB   C2A40446  23.206  -5.931  20.499 -0.1580 -0.0312 -0.0775
 1686BOLB   C3A40447  23.034  -5.561  20.697  0.0136 -0.0134 -0.2830
 1686BOLB   C4A40448  22.980  -5.151  20.844  0.2958 -0.0087  0.0686
 1686BOLB   C1B40449  23.640  -6.513  20.040 -0.2683  0.1982  0.0381
 1686BOLB   C2B40450  23.465  -6.663  19.712  0.0565  0.0675  0.2126
 1686BOLB   C3B40451  22.988  -6.772  19.520  0.0426  0.1201 -0.0548
 1686BOLB   C4B40452  22.717  -6.601  19.251  0.0057 -0.1263  0.3800
 1686BOLB   NC240453  24.010  -6.708  20.867 -0.2493  0.2003  0.2135
 1686BOLB   PO240454  24.243  -6.581  20.555 -0.0036 -0.1767 -0.1411
 1686BOLB   GL340455  23.843  -6.295  20.587  0.1230 -0.1259  0.3118
 1686BOLB   GL440456  23.986  -6.005  20.604 -0.1154  0.0802  0.1514
 1686BOLB   C1C40457  23.589  -5.932  20.866 -0.3545 -0.1381  0.0179
 1686BOLB   C2C40458  23.406  -5.614  21.000 -0.0573  0.1464  0.1216
 1686BOLB   C3C40459  23.422  -5.163  20.727 -0.1620 -0.0965 -0.1008
 1686BOLB   C4C40460  23.088  -4.952  20.557  0.3510 -0.0210  0.1184
 1686BOLB   C1D40461  23.666  -6.031  20.192 -0.0478  0.2489 -0.3094
 1686BOLB   C2D40462  23.615  -6.015  19.773  0.0424  0.2511 -0.0176
 1686BOLB   C3D40463  23.405  -5.842  19.466  0.2660  0.2800  0.0398
 1686BOLB   C4D40464  23.243  -5.870  19.068 -0.1305  0.2558  0.1384
 1687BOLB   NC140465  10.345   9.180  30.587 -0.0803  0.2172 -0.1476
 1687BOLB   PO140466  10.754   9.364  30.671 -0.2134 -0.2437  0.0943
 1687BOLB   GL140467  10.821   9.629  31.035  0.1144  0.0102 -0.0781
 1687BOLB   GL240468  10.501   9.646  31.192  0.2932 -0.0309 -0.2022
 1687BOLB   C1A40469  10.877   9.966  31.480 -0.2373  0.1086  0.0706
 1687BOLB   C2A40470  10.639  10.227  31.853 -0.0794 -0.0534 -0.1828
 1687BOLB   C3A40471  10.375  10.197  32.270 -0.4201 -0.0707  0.0935
 1687BOLB   C4A40472  10.111  10.402  32.569 -0.0032  0.1900 -0.0827
 1687BOLB   C1B40473  10.456   9.522  31.663  0.0572 -0.0564 -0.1153
 1687BOLB   C2B40474  10.270   9.532  32.012  0.0008 -0.1856 -0.2643
 1687BOLB   C3B40475  10.156   9.674  32.443 -0.3852 -0.1865  0.0426
 1687BOLB   C4B40476   9.979   9.928  32.718 -0.4587  0.0828  0.1422
 1687BOLB   NC240477   7.915  10.168  33.657 -0.2058 -0.1908  0.0540
 1687BOLB   PO240478   8.107   9.985  34.077 -0.0223  0.6207 -0.1786
 1687BOLB   GL340479   8.409   9.940  33.809  0.2187 -0.0219  0.0722
 1687BOLB   GL440480   8.252   9.765  33.575 -0.1991 -0.1214  0.2331
 1687BOLB   C1C40481   8.726   9.987  33.423  0.0790  0.0526  0.0539
 1687BOLB   C2C40482   9.184  10.070  33.356  0.1669 -0.0302  0.1878
 1687BOLB   C3C40483   9.575  10.297  33.199 -0.1332  0.0330 -0.1253
 1687BOLB   C4C40484   9.831  10.388  32.874  0.1505 -0.0329  0.1177
 1687BOLB   C1D40485   8.573   9.480  33.373 -0.2057  0.1273  0.0782
 1687BOLB   C2D40486   8.813   9.143  33.201  0.1333 -0.0789 -0.0626
 1687BOLB   C3D40487   9.201   8.886  33.052 -0.3302  0.0563  0.1120
 1687BOLB   C4D40488   9.500   8.543  33.055  0.0767 -0.4881  0.0729
 1688BOLB   NC140489  14.145  15.519  21.792  0.0855  0.1182 -0.1228
 1688BOLB   PO140490  14.249  15.406  22.195 -0.0422 -0.1257  0.1529
 1688BOLB   GL140491  14.452  15.062  22.256  0.0275  0.2366  0.0396
 1688BOLB   GL240492  14.773  15.018  22.181 -0.1276 -0.0509 -0.2236
 1688BOLB   C1A40493  14.414  14.668  22.087 -0.1423  0.1556  0.0442
 1688BOLB   C2A40494  14.624  14.259  22.179  0.0778  0.0917  0.0427
 1688BOLB   C3A40495  14.734  13.833  22.382 -0.1440  0.0154 -0.0144
 1688BOLB   C4A40496  14.973  13.599  22.679 -0.0616  0.3236 -0.0818
 1688BOLB   C1B40497  14.969  14.635  22.293  0.1361 -0.1499 -0.3268
 1688BOLB   C2B40498  15.187  14.269  22.403  0.1011 -0.2203 -0.1078
 1688BOLB   C3B40499  15.508  13.975  22.544 -0.2323  0.2343  0.0752
 1688BOLB   C4B40500  15.982  13.940  22.710 -0.1483 -0.1107  0.1389
 1688BOLB   NC240501  15.976  15.944  22.431  0.0431 -0.4060 -0.2855
 1688BOLB   PO240502  16.062  15.696  22.211 -0.0575 -0.1075 -0.2102
 1688BOLB   GL340503  15.742  15.244  22.314 -0.1583 -0.1141  0.1287
 1688BOLB   GL440504  15.802  15.028  22.477 -0.0884 -0.1591 -0.0688
 1688BOLB   C1C40505  15.353  14.975  22.315 -0.1181  0.0491 -0.2904
 1688BOLB   C2C40506  15.256  14.708  22.695 -0.2577  0.0231 -0.0088
 1688BOLB   C3C40507  15.288  14.337  22.913  0.0602 -0.0234  0.0401
 1688BOLB   C4C40508  15.180  13.773  22.953 -0.0546 -0.1189  0.1789
 1688BOLB   C1D40509  15.774  14.679  22.257 -0.0369 -0.0924 -0.0294
 1688BOLB   C2D40510  15.822  14.281  22.216 -0.2408  0.0598  0.0211
 1688BOLB   C3D40511  16.225  14.033  22.286 -0.0401  0.1085 -0.2242
 1688BOLB   C4D40512  16.190  13.601  22.489 -0.0310  0.1261 -0.1821
 1689BOLB   NC140513  22.699   9.061  24.206  0.3211  0.1621 -0.0789
 1689BOLB   PO140514  22.818   8.995  23.869 -0.0599 -0.0608  0.3202
 1689BOLB   GL140515  22.908   9.024  23.489 -0.2436 -0.2946 -0.0663
 1689BOLB   GL240516  22.858   8.995  23.170  0.2311  0.1347 -0.0079
 1689BOLB   C1A40517  23.359   9.150  23.287 -0.3188 -0.1469 -0.0094
 1689BOLB   C2A40518  23.785   9.378  23.402  0.1617  0.0804  0.1273
 1689BOLB   C3A40519  24.107   9.394  23.180 -0.2981  0.2543  0.2905
 1689BOLB   C4A40520  24.275   9.790  22.969 -0.3346  0.1041  0.1741
 1689BOLB   C1B40521  23.179   9.196  22.804  0.1524 -0.1133 -0.0815
 1689BOLB   C2B40522  23.603   9.292  22.882 -0.0144  0.1533  0.1951
 1689BOLB   C3B40523  23.904   9.462  22.629 -0.3025 -0.1512  0.1316
 1689BOLB   C4B40524  24.048   9.773  22.368 -0.0093  0.0401 -0.1050
 1689BOLB   NC240525  26.582  10.629  21.858 -0.3136 -0.1059  0.1205
 1689BOLB   PO240526  26.145  10.735  21.789 -0.2584 -0.2025  0.3988
 1689BOLB   GL340527  25.749  10.510  22.054 -0.1841  0.0689 -0.2267
 1689BOLB   GL440528  25.808  10.186  22.273 -0.0572  0.0626 -0.0392
 1689BOLB   C1C40529  25.315  10.391  22.232  0.0065  0.2214 -0.0155
 1689BOLB   C2C40530  25.272  10.317  22.711  0.0472  0.2156  0.1011
 1689BOLB   C3C40531  24.955  10.359  22.945  0.3801  0.1379 -0.0164
 1689BOLB   C4C40532  24.638  10.043  23.012  0.2695 -0.0105 -0.0780
 1689BOLB   C1D40533  25.446   9.900  22.432 -0.2281  0.2075  0.0353
 1689BOLB   C2D40534  25.094   9.794  22.733  0.0125  0.1170  0.1203
 1689BOLB   C3D40535  24.825   9.608  22.997  0.3056 -0.0987 -0.2678
 1689BOLB   C4D40536  24.615   9.373  23.297 -0.1231 -0.1495  0.1328
 1690BOLB   NC140537  14.616  -3.901  19.590  0.2482 -0.0922 -0.2651
 1690BOLB   PO140538  14.811  -4.277  19.836  0.0340  0.3708 -0.2540
 1690BOLB   GL140539  14.533  -4.656  19.895  0.0129 -0.0823 -0.2354
 1690BOLB   GL240540  14.661  -4.653  19.571 -0.1603 -0.0597 -0.2620
 1690BOLB   C1A40541  14.410  -5.126  19.686  0.0206  0.4018  0.1478
 1690BOLB   C2A40542  14.177  -5.230  19.296 -0.0539 -0.0022  0.1978
 1690BOLB   C3A40543  14.013  -5.291  18.784 -0.0294  0.1786  0.2022
 1690BOLB   C4A40544  13.596  -5.251  18.509  0.0441 -0.2325  0.1109
 1690BOLB   C1B40545  14.878  -4.852  19.401  0.3218 -0.0747 -0.0775
 1690BOLB   C2B40546  15.241  -5.073  19.102  0.1669  0.1519 -0.0383
 1690BOLB   C3B40547  15.362  -5.276  18.721 -0.0391  0.3571 -0.2091
 1690BOLB   C4B40548  15.297  -5.722  18.485 -0.1301  0.0627 -0.1925
 1690BOLB   NC240549  12.332  -6.485  17.015  0.1538 -0.0134 -0.0961
 1690BOLB   PO240550  12.388  -6.167  16.799  0.1167  0.2174  0.3439
 1690BOLB   GL340551  12.316  -5.964  17.191 -0.1023  0.1052  0.0565
 1690BOLB   GL440552  12.094  -5.706  17.186 -0.2659 -0.0251  0.0322
 1690BOLB   C1C40553  12.442  -5.931  17.581 -0.4978  0.1869  0.0015
 1690BOLB   C2C40554  12.769  -5.670  17.815  0.3259 -0.0505 -0.1354
 1690BOLB   C3C40555  12.972  -5.536  18.186  0.0896  0.0266  0.4234
 1690BOLB   C4C40556  13.230  -5.485  18.507  0.0290  0.1857  0.0671
 1690BOLB   C1D40557  12.218  -5.285  17.266 -0.0559 -0.1067  0.1033
 1690BOLB   C2D40558  11.965  -4.991  17.523  0.0124  0.0316  0.1016
 1690BOLB   C3D40559  11.756  -4.705  17.778 -0.0481 -0.1078 -0.0832
 1690BOLB   C4D40560  11.672  -4.296  17.989 -0.4872  0.2584 -0.1105
 1691BOLB   NC140561  13.249   6.289  12.357 -0.0968  0.2469 -0.3633
 1691BOLB   PO140562  13.178   6.336  12.691 -0.0016  0.2616  0.2742
 1691BOLB   GL140563  13.324   6.569  13.006 -0.0108  0.2899  0.1110
 1691BOLB   GL240564  13.165   6.792  13.193 -0.0621  0.1106 -0.1987
 1691BOLB   C1A40565  13.494   6.487  13.368 -0.0731  0.2740 -0.0377
 1691BOLB   C2A40566  13.551   6.387  13.745  0.1298 -0.0928 -0.2685
 1691BOLB   C3A40567  13.655   6.060  14.064  0.1196 -0.0383 -0.0467
 1691BOLB   C4A40568  14.191   5.979  14.105  0.0300  0.0918 -0.1721
 1691BOLB   C1B40569  13.110   6.667  13.493  0.0323 -0.0975 -0.0751
 1691BOLB   C2B40570  13.156   6.566  13.953 -0.2258 -0.3311 -0.3114
 1691BOLB   C3B40571  13.418   6.443  14.368 -0.1797 -0.3135 -0.3803
 1691BOLB   C4B40572  13.529   6.450  14.878  0.0702 -0.0569 -0.1804
 1691BOLB   NC240573  15.835   5.421  11.909  0.3255  0.1154 -0.0044
 1691BOLB   PO240574  15.862   5.252  12.413 -0.0136  0.2176 -0.3471
 1691BOLB   GL340575  15.560   5.222  12.758  0.0513 -0.1702 -0.1785
 1691BOLB   GL440576  15.420   4.868  12.900 -0.0500  0.4648  0.2516
 1691BOLB   C1C40577  15.248   5.422  13.036 -0.0360 -0.4876  0.1339
 1691BOLB   C2C40578  15.097   5.522  13.379  0.1295 -0.0567 -0.0256
 1691BOLB   C3C40579  14.896   5.668  13.824  0.1977 -0.0089  0.1298
 1691BOLB   C4C40580  14.674   5.853  14.116 -0.0731  0.1290  0.3366
 1691BOLB   C1D40581  15.280   4.593  13.282 -0.0427  0.0140  0.1809
 1691BOLB   C2D40582  15.332   4.559  13.805  0.1103 -0.1572  0.4118
 1691BOLB   C3D40583  15.417   4.567  14.177 -0.0575 -0.1809  0.2686
 1691BOLB   C4D40584  15.229   4.828  14.490 -0.0575 -0.1651  0.0581
 1692BOLB   NC140585  18.870  -2.792  26.150 -0.1798  0.1520  0.1849
 1692BOLB   PO140586  19.011  -3.203  26.223 -0.1292 -0.2866  0.2170
 1692BOLB   GL140587  19.216  -3.565  26.416 -0.2037 -0.0107 -0.0840
 1692BOLB   GL240588  19.094  -3.806  26.531 -0.1425 -0.0977  0.0692
 1692BOLB   C1A40589  19.608  -3.869  26.517 -0.3300 -0.0726  0.0731
 1692BOLB   C2A40590  19.858  -4.160  26.563 -0.1220 -0.2322 -0.1554
 1692BOLB   C3A40591  20.006  -4.549  26.718 -0.0248 -0.0304 -0.0249
 1692BOLB   C4A40592  20.181  -4.691  27.093 -0.0820  0.2874 -0.1061
 1692BOLB   C1B40593  19.243  -4.027  26.796 -0.1160  0.1037  0.1098
 1692BOLB   C2B40594  19.638  -4.063  27.034 -0.3294  0.1663 -0.0959
 1692BOLB   C3B40595  19.765  -4.452  27.280  0.0400 -0.1765 -0.0901
 1692BOLB   C4B40596  19.609  -4.565  27.549  0.4211 -0.0705  0.0715
 1692BOLB   NC240597  22.139  -6.219  27.863  0.2713 -0.5634  0.2466
 1692BOLB   PO240598  21.816  -6.067  27.951 -0.0557  0.3314  0.2441
 1692BOLB   GL340599  21.650  -5.726  27.707  0.0922  0.3887 -0.1708
 1692BOLB   GL440600  21.797  -5.453  27.744  0.0999 -0.0148  0.0829
 1692BOLB   C1C40601  21.338  -5.418  27.601  0.3087 -0.0487  0.0938
 1692BOLB   C2C40602  20.936  -5.270  27.716 -0.0735 -0.2966 -0.0461
 1692BOLB   C3C40603  20.556  -5.201  27.655  0.1880 -0.1702 -0.1064
 1692BOLB   C4C40604  20.345  -5.065  27.310  0.0749  0.0144 -0.2237
 1692BOLB   C1D40605  21.746  -5.090  27.764 -0.1963 -0.0029  0.1430
 1692BOLB   C2D40606  21.795  -4.840  28.033 -0.2645 -0.4270  0.1143
 1692BOLB   C3D40607  21.674  -4.430  28.046  0.0255  0.1630 -0.3587
 1692BOLB   C4D40608  21.684  -3.991  28.065 -0.2731  0.1978 -0.1605
 1693BOLB   NC140609  14.457   1.264  32.541 -0.2825  0.0568  0.1247
 1693BOLB   PO140610  14.106   0.958  32.631 -0.1410  0.1065  0.1586
 1693BOLB   GL140611  13.851   0.931  32.865 -0.3407  0.1488 -0.0647
 1693BOLB   GL240612  13.985   0.830  33.095 -0.2060 -0.2819 -0.1925
 1693BOLB   C1A40613  13.439   0.846  33.062 -0.1291 -0.0290  0.4229
 1693BOLB   C2A40614  13.325   0.697  33.422  0.0406  0.3159  0.0797
 1693BOLB   C3A40615  12.918   0.453  33.470  0.0561 -0.3215 -0.1448
 1693BOLB   C4A40616  12.913   0.146  33.789  0.1817  0.0542 -0.0338
 1693BOLB   C1B40617  13.793   0.584  33.415  0.0937 -0.1140  0.0795
 1693BOLB   C2B40618  13.855   0.105  33.724  0.2516  0.1027 -0.2271
 1693BOLB   C3B40619  13.888  -0.194  34.038 -0.1061 -0.1827 -0.1057
 1693BOLB   C4B40620  14.027  -0.639  34.213 -0.0533 -0.1694  0.0749
 1693BOLB   NC240621  12.457  -1.560  35.994 -0.2042  0.0185  0.1955
 1693BOLB   PO240622  12.684  -1.125  36.001 -0.0051  0.2642  0.0798
 1693BOLB   GL340623  12.928  -0.851  35.700  0.0660  0.0060  0.5169
 1693BOLB   GL440624  13.191  -0.733  35.719 -0.0657  0.1957 -0.1656
 1693BOLB   C1C40625  12.947  -0.452  35.291 -0.0482  0.0458 -0.2134
 1693BOLB   C2C40626  12.726  -0.210  34.946  0.2512  0.0164  0.1484
 1693BOLB   C3C40627  12.745   0.050  34.658 -0.1659 -0.2504  0.1762
 1693BOLB   C4C40628  12.888   0.072  34.280 -0.1851  0.0081  0.1192
 1693BOLB   C1D40629  13.380  -0.388  35.526  0.0129  0.1817  0.1435
 1693BOLB   C2D40630  13.385  -0.346  35.052  0.0119 -0.3037 -0.1352
 1693BOLB   C3D40631  13.653  -0.247  34.721  0.5524 -0.0825  0.0684
 1693BOLB   C4D40632  13.612  -0.006  34.452 -0.1176 -0.3864 -0.3002
 1694BOLB   NC140633  24.144   0.102  25.280 -0.0233  0.0310  0.0304
 1694BOLB   PO140634  24.450   0.362  25.222  0.2888 -0.0727  0.0418
 1694BOLB   GL140635  24.576  -0.072  25.264 -0.2809  0.1657  0.1278
 1694BOLB   GL240636  24.611  -0.440  25.554 -0.0899  0.1449 -0.0202
 1694BOLB   C1A40637  24.951  -0.210  25.280  0.3087  0.2086 -0.1622
 1694BOLB   C2A40638  25.274  -0.494  25.250  0.1704  0.1027  0.1450
 1694BOLB   C3A40639  25.580  -0.489  25.017  0.0664 -0.3802 -0.0001
 1694BOLB   C4A40640  26.008  -0.402  25.014 -0.1586 -0.0047  0.3557
 1694BOLB   C1B40641  24.945  -0.347  25.747 -0.0045 -0.0324  0.1798
 1694BOLB   C2B40642  25.396  -0.640  25.663  0.1408  0.2435 -0.1986
 1694BOLB   C3B40643  25.683  -0.763  25.459 -0.0847  0.0451 -0.1814
 1694BOLB   C4B40644  26.034  -1.069  25.707  0.0627  0.0707  0.4503
 1694BOLB   NC240645  28.079  -1.467  25.187 -0.0694  0.3952 -0.0394
 1694BOLB   PO240646  27.962  -1.488  24.847 -0.1023  0.0776 -0.0465
 1694BOLB   GL340647  27.530  -1.333  24.748  0.1090  0.4393 -0.0684
 1694BOLB   GL440648  27.418  -1.004  25.001 -0.1466 -0.2890 -0.1970
 1694BOLB   C1C40649  27.189  -1.478  24.616  0.1784 -0.2174 -0.1299
 1694BOLB   C2C40650  26.720  -1.405  24.597 -0.2205  0.2206  0.0168
 1694BOLB   C3C40651  26.405  -1.106  24.699  0.1408  0.0732 -0.3277
 1694BOLB   C4C40652  26.233  -0.723  24.724 -0.0708  0.0326  0.0285
 1694BOLB   C1D40653  27.008  -1.245  25.084 -0.1768  0.0697  0.2284
 1694BOLB   C2D40654  26.721  -1.560  25.084  0.1407 -0.2099  0.1435
 1694BOLB   C3D40655  26.548  -1.830  25.470 -0.0369  0.2770  0.0303
 1694BOLB   C4D40656  26.198  -1.826  25.726 -0.1333 -0.0885  0.0543
 1695BOLB   NC140657  23.238   8.309  25.650 -0.1403  0.0709 -0.3616
 1695BOLB   PO140658  23.367   8.737  25.560 -0.1310  0.0897 -0.0280
 1695BOLB   GL140659  23.754   8.875  25.416  0.1327 -0.3224 -0.1441
 1695BOLB   GL240660  24.002   8.571  25.313  0.1412  0.1491 -0.1632
 1695BOLB   C1A40661  24.055   9.058  25.127  0.0329  0.2538 -0.1366
 1695BOLB   C2A40662  24.270   9.185  24.843 -0.0907  0.1002  0.1895
 1695BOLB   C3A40663  24.606   9.260  24.550 -0.0644 -0.5236 -0.0151
 1695BOLB   C4A40664  25.049   9.168  24.324  0.1447 -0.2264  0.1663
 1695BOLB   C1B40665  24.339   8.632  25.064  0.3429  0.0921 -0.3213
 1695BOLB   C2B40666  24.617   8.922  24.993 -0.2196  0.2935 -0.1383
 1695BOLB   C3B40667  24.961   9.003  24.856 -0.1498  0.3030  0.3604
 1695BOLB   C4B40668  25.416   8.785  25.000 -0.3505  0.3423 -0.0486
 1695BOLB   NC240669  27.163  10.586  24.489  0.3483  0.0231  0.0714
 1695BOLB   PO240670  26.901  10.754  24.206  0.2399  0.1202  0.2480
 1695BOLB   GL340671  26.603  10.339  24.187  0.1010 -0.2800  0.2553
 1695BOLB   GL440672  26.691  10.064  23.957  0.1158  0.1094  0.0426
 1695BOLB   C1C40673  26.232  10.013  24.076 -0.0415 -0.1626  0.1979
 1695BOLB   C2C40674  25.970   9.806  23.913 -0.0855  0.2815  0.3636
 1695BOLB   C3C40675  25.706   9.623  23.981 -0.1860 -0.1527 -0.0696
 1695BOLB   C4C40676  25.410   9.345  24.153 -0.2592  0.2650  0.1346
 1695BOLB   C1D40677  26.540   9.666  24.019 -0.2158 -0.1379 -0.0316
 1695BOLB   C2D40678  26.210   9.359  23.993 -0.0842  0.3631  0.0340
 1695BOLB   C3D40679  25.887   9.175  24.081 -0.0205 -0.0288  0.0103
 1695BOLB   C4D40680  25.512   8.843  24.044 -0.2480 -0.2706 -0.0311
 1696BOLB   NC140681  14.538  -1.582  18.090 -0.2921 -0.0578  0.0049
 1696BOLB   PO140682  14.484  -2.016  17.937 -0.3170 -0.2569 -0.1307
 1696BOLB   GL140683  14.603  -2.146  17.433  0.2068  0.4818 -0.1696
 1696BOLB   GL240684  14.815  -1.979  17.273  0.1035  0.0406 -0.1592
 1696BOLB   C1A40685  14.419  -2.487  17.189  0.1120 -0.2088 -0.0291
 1696BOLB   C2A40686  14.336  -2.711  16.852 -0.1688 -0.1259 -0.2996
 1696BOLB   C3A40687  14.371  -2.880  16.411 -0.0336 -0.0708  0.0656
 1696BOLB   C4A40688  14.265  -3.185  16.139  0.0404  0.1884  0.2964
 1696BOLB   C1B40689  14.679  -2.131  16.902 -0.1157 -0.2302 -0.1761
 1696BOLB   C2B40690  14.733  -2.222  16.505 -0.0457  0.1868 -0.6649
 1696BOLB   C3B40691  14.901  -2.508  16.186 -0.3933 -0.3033  0.1616
 1696BOLB   C4B40692  15.015  -2.569  15.761  0.1496 -0.3537 -0.2936
 1696BOLB   NC240693  12.626  -4.749  15.128 -0.0617 -0.0141  0.2466
 1696BOLB   PO240694  12.695  -4.378  14.779  0.3862 -0.0229 -0.1288
 1696BOLB   GL340695  12.861  -4.180  15.244 -0.0150  0.0279 -0.1966
 1696BOLB   GL440696  12.717  -3.922  15.314 -0.0699 -0.0765  0.2548
 1696BOLB   C1C40697  13.268  -4.288  15.486 -0.2107 -0.0007  0.1191
 1696BOLB   C2C40698  13.457  -4.186  15.804 -0.1023  0.2708  0.1948
 1696BOLB   C3C40699  13.682  -3.779  15.946  0.1874 -0.1730  0.1084
 1696BOLB   C4C40700  14.106  -3.649  16.130  0.0444  0.1733  0.1149
 1696BOLB   C1D40701  12.960  -3.811  15.644 -0.0002 -0.0730 -0.4508
 1696BOLB   C2D40702  13.181  -3.728  16.049  0.2575  0.1730  0.1753
 1696BOLB   C3D40703  13.111  -3.579  16.396 -0.0187  0.0618 -0.1679
 1696BOLB   C4D40704  13.371  -3.420  16.818 -0.1259 -0.3116  0.3300
 1697BOLB   NC140705   8.054  -0.609  23.751 -0.3249  0.2447  0.0500
 1697BOLB   PO140706   8.218  -0.495  24.135 -0.1897  0.0378  0.0071
 1697BOLB   GL140707   7.756  -0.851  24.199 -0.2206 -0.2412  0.0149
 1697BOLB   GL240708   7.664  -0.968  23.949 -0.0048 -0.2187 -0.4997
 1697BOLB   C1A40709   7.550  -1.073  24.477 -0.1272 -0.1800 -0.1047
 1697BOLB   C2A40710   7.143  -1.207  24.633 -0.0523  0.0798  0.1072
 1697BOLB   C3A40711   6.910  -1.507  24.942 -0.0286  0.3035  0.0078
 1697BOLB   C4A40712   6.957  -1.819  25.236  0.0817 -0.0765 -0.1252
 1697BOLB   C1B40713   7.285  -1.145  24.002 -0.2337  0.0436 -0.0890
 1697BOLB   C2B40714   6.982  -1.343  24.156 -0.1843  0.2168  0.2561
 1697BOLB   C3B40715   6.533  -1.297  24.121 -0.0477 -0.3702  0.1193
 1697BOLB   C4B40716   6.186  -1.276  24.388 -0.0032  0.2499  0.0541
 1697BOLB   NC240717   5.834  -3.942  26.790 -0.0422 -0.4162  0.3193
 1697BOLB   PO240718   5.849  -3.706  26.350  0.1444  0.0092  0.0764
 1697BOLB   GL340719   6.038  -3.296  26.308  0.1168  0.1228  0.1691
 1697BOLB   GL440720   5.930  -3.181  26.058 -0.1678 -0.1858  0.3340
 1697BOLB   C1C40721   6.254  -2.911  26.348 -0.3867  0.1835  0.2342
 1697BOLB   C2C40722   6.301  -2.566  26.064 -0.1467  0.5250 -0.1734
 1697BOLB   C3C40723   6.642  -2.272  25.936  0.0703 -0.1494 -0.0883
 1697BOLB   C4C40724   6.833  -1.915  25.635 -0.1358  0.1479 -0.1451
 1697BOLB   C1D40725   5.825  -2.672  26.058  0.1260  0.1884 -0.3031
 1697BOLB   C2D40726   5.549  -2.176  25.869  0.1432  0.0965  0.1456
 1697BOLB   C3D40727   5.667  -1.834  25.639 -0.0489 -0.0543  0.1512
 1697BOLB   C4D40728   5.867  -1.653  25.498 -0.0001 -0.3140  0.1009
 1698BOLB   NC140729  13.560   8.508  32.857 -0.0641  0.1140 -0.1437
 1698BOLB   PO140730  13.727   8.972  32.750  0.1698  0.0942 -0.0972
 1698BOLB   GL140731  13.684   9.094  33.276 -0.1519 -0.0228  0.0394
 1698BOLB   GL240732  13.977   9.169  33.486  0.2205 -0.2922  0.4841
 1698BOLB   C1A40733  13.474   9.221  33.582  0.2168  0.4213  0.0995
 1698BOLB   C2A40734  13.416   9.411  33.966 -0.3618 -0.1845 -0.0783
 1698BOLB   C3A40735  13.210   9.329  34.409  0.0978  0.1202 -0.0712
 1698BOLB   C4A40736  13.128   9.027  34.717 -0.1330 -0.1659  0.1352
 1698BOLB   C1B40737  13.836   9.031  33.875  0.0751 -0.2180  0.0117
 1698BOLB   C2B40738  13.752   8.783  34.238 -0.0757  0.0468  0.0582
 1698BOLB   C3B40739  13.423   8.640  34.420 -0.2138 -0.4659 -0.3164
 1698BOLB   C4B40740  13.014   8.427  34.485  0.0461 -0.3056  0.0249
 1698BOLB   NC240741  12.659   8.963  36.301  0.1208 -0.0643 -0.4004
 1698BOLB   PO240742  12.248   8.908  36.483  0.4897  0.1335 -0.3286
 1698BOLB   GL340743  12.295   8.652  36.107  0.2527 -0.0248 -0.2053
 1698BOLB   GL440744  12.114   8.564  35.812 -0.0672 -0.0042  0.0241
 1698BOLB   C1C40745  12.657   8.549  35.836  0.2489  0.0695 -0.1617
 1698BOLB   C2C40746  12.906   8.394  35.453  0.0098  0.0231  0.0866
 1698BOLB   C3C40747  13.118   8.258  35.129  0.5515 -0.0199  0.3317
 1698BOLB   C4C40748  13.274   8.609  34.876  0.0514 -0.1273 -0.0713
 1698BOLB   C1D40749  12.399   8.352  35.470 -0.1527  0.0231  0.3318
 1698BOLB   C2D40750  12.516   8.317  35.069  0.0009 -0.1475  0.0414
 1698BOLB   C3D40751  12.699   8.077  34.865  0.2826  0.3091 -0.0134
 1698BOLB   C4D40752  12.843   7.966  34.448  0.0013 -0.1260 -0.0322
 1699BOLB   NC140753  22.709  -9.541  16.013  0.0573  0.1033  0.3571
 1699BOLB   PO140754  22.694  -9.176  16.062  0.1485  0.1197 -0.2433
 1699BOLB   GL140755  22.458  -8.933  16.448 -0.1151 -0.0513  0.1928
 1699BOLB   GL240756  22.122  -8.927  16.650 -0.0399 -0.1424  0.0309
 1699BOLB   C1A40757  22.440  -8.525  16.306 -0.3764 -0.0823 -0.0380
 1699BOLB   C2A40758  22.210  -8.237  16.452  0.0010 -0.5151  0.0073
 1699BOLB   C3A40759  22.209  -7.995  16.772 -0.1905 -0.0893 -0.3151
 1699BOLB   C4A40760  22.321  -7.832  17.265 -0.2529 -0.1455  0.0922
 1699BOLB   C1B40761  22.224  -8.572  16.964  0.3358 -0.0353 -0.0263
 1699BOLB   C2B40762  22.481  -8.295  17.076  0.1472 -0.2342  0.0228
 1699BOLB   C3B40763  22.677  -7.925  16.956 -0.1615 -0.4179 -0.2047
 1699BOLB   C4B40764  23.122  -7.929  16.928  0.0590 -0.4870  0.0337
 1699BOLB   NC240765  23.040  -8.683  19.503 -0.1408 -0.2866 -0.1599
 1699BOLB   PO240766  22.978  -8.738  19.124  0.2049  0.0591 -0.0562
 1699BOLB   GL340767  22.800  -8.323  19.026 -0.0661  0.2271 -0.2054
 1699BOLB   GL440768  22.811  -8.194  19.301 -0.2268 -0.1278 -0.0008
 1699BOLB   C1C40769  22.510  -8.219  18.689  0.4828 -0.3297 -0.2039
 1699BOLB   C2C40770  22.494  -7.822  18.465 -0.0949 -0.1055 -0.2228
 1699BOLB   C3C40771  22.435  -7.697  18.120  0.0835  0.0687  0.1539
 1699BOLB   C4C40772  22.562  -7.812  17.671 -0.0696 -0.0063  0.1124
 1699BOLB   C1D40773  23.072  -7.791  19.283 -0.0181  0.2977 -0.0839
 1699BOLB   C2D40774  23.055  -7.555  19.573  0.0883  0.1877  0.4859
 1699BOLB   C3D40775  22.821  -7.184  19.744 -0.1870  0.1652 -0.0683
 1699BOLB   C4D40776  22.474  -7.194  19.558 -0.2328  0.1505 -0.0452
 1700BOLB   NC140777   8.378  -0.963  23.388 -0.0269  0.0660 -0.0301
 1700BOLB   PO140778   8.508  -0.841  23.004 -0.1740 -0.2393 -0.2710
 1700BOLB   GL140779   8.093  -1.098  22.987  0.3490  0.5742 -0.4321
 1700BOLB   GL240780   8.028  -1.034  22.670 -0.1411  0.0743  0.1923
 1700BOLB   C1A40781   7.641  -1.187  22.963  0.1608  0.0849  0.2945
 1700BOLB   C2A40782   7.360  -1.385  22.736  0.0294 -0.0169  0.0650
 1700BOLB   C3A40783   7.003  -1.499  22.740  0.1013  0.2107  0.4353
 1700BOLB   C4A40784   6.574  -1.405  22.820 -0.0572 -0.1247  0.3764
 1700BOLB   C1B40785   7.679  -1.066  22.487 -0.3884  0.1645 -0.0504
 1700BOLB   C2B40786   7.216  -1.055  22.381  0.0040  0.2350  0.2621
 1700BOLB   C3B40787   6.794  -1.212  22.395 -0.1086  0.2929  0.0927
 1700BOLB   C4B40788   6.342  -1.455  22.337 -0.0807 -0.1852  0.2418
 1700BOLB   NC240789   4.297  -3.080  22.382  0.3915  0.0929  0.0607
 1700BOLB   PO240790   4.552  -2.907  22.159  0.0467  0.1967 -0.5568
 1700BOLB   GL340791   4.840  -2.568  22.428 -0.1087 -0.4511  0.2413
 1700BOLB   GL440792   4.953  -2.611  22.734 -0.2259 -0.1028 -0.0101
 1700BOLB   C1C40793   5.108  -2.080  22.446 -0.0154  0.1157  0.3322
 1700BOLB   C2C40794   5.460  -1.764  22.500 -0.2009  0.0203  0.3742
 1700BOLB   C3C40795   5.830  -1.743  22.650  0.2652  0.2739 -0.0363
 1700BOLB   C4C40796   6.184  -1.722  22.851 -0.1073 -0.1589  0.0603
 1700BOLB   C1D40797   5.184  -2.343  22.846 -0.2875 -0.2398  0.2452
 1700BOLB   C2D40798   5.540  -2.146  22.829 -0.1956 -0.0683  0.2109
 1700BOLB   C3D40799   5.803  -2.012  23.152  0.1843  0.1290 -0.1528
 1700BOLB   C4D40800   5.952  -2.228  23.447  0.0624  0.1999  0.0104
 1701BOLB   NC140801  23.251   4.587  21.306 -0.0362 -0.2725  0.1121
 1701BOLB   PO140802  23.567   4.463  21.664  0.1764  0.4219 -0.0450
 1701BOLB   GL140803  23.988   4.683  21.746 -0.3247 -0.0616 -0.1757
 1701BOLB   GL240804  24.178   4.556  21.891 -0.1428 -0.0295  0.2409
 1701BOLB   C1A40805  24.333   4.865  21.400  0.3749  0.1992 -0.0431
 1701BOLB   C2A40806  24.522   5.260  21.217 -0.2340  0.1976 -0.0126
 1701BOLB   C3A40807  24.894   5.501  21.104  0.1488  0.0613  0.1710
 1701BOLB   C4A40808  25.263   5.449  21.163 -0.3525 -0.2279 -0.2008
 1701BOLB   C1B40809  24.487   4.495  21.689 -0.3212  0.0796  0.1393
 1701BOLB   C2B40810  24.766   4.615  21.437  0.3488  0.1719 -0.1538
 1701BOLB   C3B40811  25.157   4.603  21.497 -0.6271  0.0606 -0.1609
 1701BOLB   C4B40812  25.489   4.775  21.409  0.1084 -0.0841  0.1109
 1701BOLB   NC240813  26.853   5.945  19.702 -0.3846 -0.0039 -0.1728
 1701BOLB   PO240814  26.998   5.982  20.212  0.4316 -0.1238 -0.2800
 1701BOLB   GL340815  26.725   5.682  20.117  0.1218  0.0153  0.2843
 1701BOLB   GL440816  26.530   5.617  19.923 -0.0292 -0.0598  0.0463
 1701BOLB   C1C40817  26.535   5.246  20.278 -0.0100 -0.0661  0.0105
 1701BOLB   C2C40818  26.137   5.018  20.477  0.3648  0.0904 -0.1413
 1701BOLB   C3C40819  25.814   4.964  20.765  0.2492 -0.0066 -0.2151
 1701BOLB   C4C40820  25.501   5.062  21.023  0.2774  0.3218  0.4592
 1701BOLB   C1D40821  26.066   5.676  19.774 -0.0238  0.2393  0.2106
 1701BOLB   C2D40822  25.702   5.516  19.776 -0.0479 -0.0123  0.1734
 1701BOLB   C3D40823  25.400   5.447  20.101  0.1018 -0.0325 -0.0255
 1701BOLB   C4D40824  25.308   5.756  20.389  0.0483 -0.0689 -0.0628
 1702BOLB   NC140825   9.701   9.164  29.167 -0.0071 -0.1563 -0.0463
 1702BOLB   PO140826   9.210   9.336  29.137  0.1701  0.1236  0.0362
 1702BOLB   GL140827   8.915   9.643  29.382 -0.0355  0.0245  0.0855
 1702BOLB   GL240828   8.978  10.000  29.277 -0.1452 -0.0222  0.1030
 1702BOLB   C1A40829   8.478   9.689  29.377  0.2072 -0.0041  0.1534
 1702BOLB   C2A40830   8.110   9.826  29.516 -0.0471 -0.1098 -0.2201
 1702BOLB   C3A40831   7.664   9.744  29.590 -0.1798  0.0117 -0.0521
 1702BOLB   C4A40832   7.557  10.078  29.873  0.0091 -0.5243 -0.0362
 1702BOLB   C1B40833   8.932  10.001  29.685  0.3081  0.1414 -0.0708
 1702BOLB   C2B40834   8.562  10.195  30.046 -0.2030  0.1263 -0.2564
 1702BOLB   C3B40835   8.115  10.218  29.974 -0.0175  0.2755 -0.3321
 1702BOLB   C4B40836   7.872  10.283  29.564  0.1396 -0.1390 -0.0945
 1702BOLB   NC240837   6.990  12.998  29.803 -0.2176  0.1484  0.1430
 1702BOLB   PO240838   6.793  12.653  29.873  0.4005  0.6061  0.1301
 1702BOLB   GL340839   6.958  12.285  29.922  0.2090  0.0812  0.3536
 1702BOLB   GL440840   6.788  12.148  29.537  0.0442 -0.1615  0.2110
 1702BOLB   C1C40841   7.077  11.859  29.790 -0.1527 -0.0294  0.1162
 1702BOLB   C2C40842   7.364  11.458  29.941  0.2825 -0.2278 -0.2878
 1702BOLB   C3C40843   7.472  11.025  29.781  0.0947 -0.2078 -0.1114
 1702BOLB   C4C40844   7.646  10.567  29.907  0.1822 -0.2294 -0.0349
 1702BOLB   C1D40845   7.082  12.031  29.275 -0.0289  0.0324  0.1942
 1702BOLB   C2D40846   7.342  11.718  29.167  0.2233  0.2382  0.0325
 1702BOLB   C3D40847   7.819  11.622  29.061 -0.1789  0.1969  0.3777
 1702BOLB   C4D40848   7.853  11.157  28.892  0.0903 -0.0398  0.1355
 1703BOLB   NC140849   9.587   7.947  29.885 -0.1186  0.2244  0.2037
 1703BOLB   PO140850   9.103   8.127  29.759  0.1181 -0.2393  0.1270
 1703BOLB   GL140851   8.781   8.263  30.084 -0.2642 -0.2863  0.0402
 1703BOLB   GL240852   8.502   8.361  30.113 -0.3684 -0.0183  0.0082
 1703BOLB   C1A40853   8.741   8.225  30.537 -0.1518  0.0043 -0.0756
 1703BOLB   C2A40854   8.477   8.180  30.838 -0.0399  0.1005  0.1125
 1703BOLB   C3A40855   8.067   8.236  30.983 -0.3012  0.1918 -0.2251
 1703BOLB   C4A40856   7.841   8.504  31.185 -0.2373  0.1576  0.2017
 1703BOLB   C1B40857   8.222   8.450  30.510 -0.0747  0.1149 -0.0459
 1703BOLB   C2B40858   8.393   8.736  30.841  0.1384  0.0187 -0.1228
 1703BOLB   C3B40859   8.395   9.198  30.861 -0.0699 -0.1434 -0.1538
 1703BOLB   C4B40860   8.246   9.526  31.257 -0.0653 -0.0299 -0.1661
 1703BOLB   NC240861   5.748  10.143  32.522 -0.1569  0.1338  0.0500
 1703BOLB   PO240862   6.044   9.999  32.357 -0.2820 -0.0099  0.3322
 1703BOLB   GL340863   6.366   9.915  32.106 -0.1694 -0.4335 -0.2393
 1703BOLB   GL440864   6.245   9.860  31.762  0.0443 -0.1043  0.1550
 1703BOLB   C1C40865   6.737   9.688  31.988 -0.1312  0.0516 -0.2826
 1703BOLB   C2C40866   7.023   9.364  31.800 -0.0134  0.0486 -0.2149
 1703BOLB   C3C40867   7.423   9.039  31.662  0.1541  0.1628  0.0187
 1703BOLB   C4C40868   7.646   8.900  31.414  0.0323  0.1550 -0.1163
 1703BOLB   C1D40869   6.496   9.749  31.424 -0.3030 -0.0261  0.2843
 1703BOLB   C2D40870   6.596   9.842  31.036 -0.0554 -0.0380  0.2960
 1703BOLB   C3D40871   6.713   9.703  30.644  0.2377 -0.2629  0.1102
 1703BOLB   C4D40872   6.811   9.880  30.285  0.0761 -0.0851  0.0529
 1704BOLB   NC140873   8.770   9.259  24.214 -0.1822 -0.1409 -0.2101
 1704BOLB   PO140874   8.774   9.351  24.589 -0.0214  0.3199 -0.0283
 1704BOLB   GL140875   8.621   9.697  24.277 -0.2270 -0.3145  0.1311
 1704BOLB   GL240876   8.445   9.853  24.456 -0.0910 -0.0013 -0.0104
 1704BOLB   C1A40877   8.418   9.905  23.961 -0.1090 -0.2774 -0.1241
 1704BOLB   C2A40878   8.154  10.277  23.823  0.1603 -0.1650  0.3240
 1704BOLB   C3A40879   7.735  10.480  23.868  0.0434 -0.0278 -0.0800
 1704BOLB   C4A40880   7.333  10.447  23.689  0.2625 -0.1598  0.1718
 1704BOLB   C1B40881   8.449  10.171  24.617 -0.0918  0.4456 -0.1217
 1704BOLB   C2B40882   8.174  10.403  24.908  0.2212 -0.0289  0.2205
 1704BOLB   C3B40883   7.727  10.463  25.137  0.1054  0.4671  0.0263
 1704BOLB   C4B40884   7.659  10.774  25.374  0.0024 -0.1656 -0.2959
 1704BOLB   NC240885   6.554  12.152  22.201  0.0766 -0.2141 -0.0652
 1704BOLB   PO240886   6.640  12.409  22.507  0.0687  0.3148 -0.2122
 1704BOLB   GL340887   6.702  12.000  22.684 -0.0787 -0.0442  0.1386
 1704BOLB   GL440888   6.832  12.140  22.978  0.1027  0.1324 -0.0139
 1704BOLB   C1C40889   6.741  11.537  22.638  0.0020  0.0953 -0.3452
 1704BOLB   C2C40890   6.816  11.297  22.854 -0.5317 -0.3137  0.2731
 1704BOLB   C3C40891   7.052  10.917  22.887 -0.2694  0.4688  0.1392
 1704BOLB   C4C40892   7.183  10.714  23.302  0.3944  0.0870  0.3165
 1704BOLB   C1D40893   7.081  11.936  23.232  0.0387 -0.3514 -0.2347
 1704BOLB   C2D40894   7.504  11.768  23.336  0.1692 -0.1618  0.0039
 1704BOLB   C3D40895   7.693  11.388  23.505 -0.0157  0.0098  0.1148
 1704BOLB   C4D40896   8.029  11.131  23.724  0.0699 -0.3240 -0.1109
 1705BOLB   NC140897  11.429  -7.975  24.941  0.0120 -0.0515 -0.3728
 1705BOLB   PO140898  11.016  -7.893  24.970  0.3991 -0.1785 -0.0242
 1705BOLB   GL140899  11.073  -7.566  24.667 -0.2626 -0.1750 -0.0060
 1705BOLB   GL240900  11.493  -7.605  24.507  0.0115 -0.0466 -0.1984
 1705BOLB   C1A40901  11.287  -7.162  24.494  0.1374 -0.1084  0.2065
 1705BOLB   C2A40902  11.523  -6.819  24.278  0.0462  0.4230 -0.3085
 1705BOLB   C3A40903  11.483  -6.424  24.249  0.0156  0.1510 -0.0482
 1705BOLB   C4A40904  11.127  -6.206  24.122 -0.1631 -0.1680 -0.2174
 1705BOLB   C1B40905  11.690  -7.276  24.237  0.0518 -0.0348  0.0052
 1705BOLB   C2B40906  12.195  -7.247  24.250  0.2717 -0.1295  0.0527
 1705BOLB   C3B40907  12.600  -6.935  24.145 -0.0054 -0.3793  0.1378
 1705BOLB   C4B40908  12.775  -6.526  24.326 -0.2436 -0.1042 -0.1824
 1705BOLB   NC240909   9.418  -7.253  23.733  0.2202  0.0828  0.0797
 1705BOLB   PO240910   9.056  -7.169  23.440 -0.1135 -0.0754  0.2056
 1705BOLB   GL340911   9.362  -6.786  23.358 -0.0529  0.0185  0.1466
 1705BOLB   GL440912   9.304  -6.851  23.007 -0.1087 -0.1284  0.0497
 1705BOLB   C1C40913   9.720  -6.607  23.343  0.0429  0.0392  0.1849
 1705BOLB   C2C40914  10.177  -6.473  23.480  0.3053  0.0484 -0.0145
 1705BOLB   C3C40915  10.473  -6.208  23.639 -0.2102 -0.1672  0.1416
 1705BOLB   C4C40916  10.820  -6.119  23.820 -0.0220 -0.0031 -0.1474
 1705BOLB   C1D40917   9.376  -6.310  23.037  0.2251  0.1331 -0.2950
 1705BOLB   C2D40918   9.053  -6.058  23.333  0.1465  0.0801  0.2291
 1705BOLB   C3D40919   8.843  -5.720  23.383  0.0529  0.3737 -0.0219
 1705BOLB   C4D40920   8.470  -5.496  23.401  0.1294  0.2724 -0.0381
 1706BOLB   NC140921  25.747  -6.025  13.457 -0.2518  0.4190  0.0673
 1706BOLB   PO140922  25.670  -5.560  13.425 -0.2089  0.0177 -0.0509
 1706BOLB   GL140923  25.398  -5.333  13.641  0.0421  0.1718  0.1036
 1706BOLB   GL240924  25.277  -5.197  13.368  0.1450  0.1349  0.0693
 1706BOLB   C1A40925  25.239  -5.052  13.987  0.0412  0.1292 -0.1506
 1706BOLB   C2A40926  24.907  -5.063  14.287  0.0507  0.1852  0.2502
 1706BOLB   C3A40927  24.890  -4.834  14.596 -0.3735  0.0984  0.0006
 1706BOLB   C4A40928  24.840  -4.377  14.524 -0.1753  0.0154  0.0238
 1706BOLB   C1B40929  25.180  -4.774  13.517  0.1836  0.2348 -0.0445
 1706BOLB   C2B40930  25.350  -4.515  13.802 -0.0259 -0.0609 -0.2200
 1706BOLB   C3B40931  25.246  -4.173  14.068  0.0327 -0.2692 -0.3448
 1706BOLB   C4B40932  25.047  -3.875  14.449  0.2089  0.0009 -0.0197
 1706BOLB   NC240933  24.829  -3.975  12.218 -0.0759 -0.0544 -0.2390
 1706BOLB   PO240934  25.109  -4.366  12.332  0.0254  0.1639  0.0688
 1706BOLB   GL340935  25.162  -4.397  12.799  0.1227 -0.0548  0.0302
 1706BOLB   GL440936  24.742  -4.259  12.947  0.3352 -0.0637 -0.0270
 1706BOLB   C1C40937  25.157  -3.886  13.054 -0.0629  0.2925  0.1232
 1706BOLB   C2C40938  25.030  -3.743  13.386  0.1002  0.1689  0.0189
 1706BOLB   C3C40939  24.920  -3.923  13.738 -0.1735  0.2193 -0.0577
 1706BOLB   C4C40940  24.746  -4.133  14.088  0.0946 -0.1959 -0.1130
 1706BOLB   C1D40941  24.620  -3.986  13.282 -0.0881  0.2871  0.1028
 1706BOLB   C2D40942  24.172  -4.044  13.364  0.3372 -0.0958 -0.1903
 1706BOLB   C3D40943  23.840  -4.067  13.571  0.0870  0.1619 -0.1626
 1706BOLB   C4D40944  23.636  -4.117  13.976  0.1654  0.0067 -0.2140
 1707BOLB   NC140945   8.065   7.580  24.715 -0.0849  0.0388 -0.1592
 1707BOLB   PO140946   8.056   8.127  24.702  0.0307 -0.0083 -0.1889
 1707BOLB   GL140947   7.880   8.410  24.735  0.0939 -0.2381  0.3513
 1707BOLB   GL240948   7.595   8.370  25.059  0.0441 -0.0310 -0.1933
 1707BOLB   C1A40949   7.494   8.570  24.511 -0.0757  0.1100  0.0212
 1707BOLB   C2A40950   7.119   8.675  24.299 -0.1496 -0.2657  0.2674
 1707BOLB   C3A40951   6.755   8.754  24.465 -0.0511 -0.2365  0.1338
 1707BOLB   C4A40952   6.531   9.138  24.331  0.1386 -0.4972 -0.1411
 1707BOLB   C1B40953   7.321   8.661  24.967  0.1284  0.3242  0.0604
 1707BOLB   C2B40954   7.091   8.940  24.759  0.0278 -0.3639 -0.0551
 1707BOLB   C3B40955   6.736   9.145  24.823  0.2121  0.2689  0.2734
 1707BOLB   C4B40956   6.422   9.352  25.048 -0.0983  0.0559 -0.0185
 1707BOLB   NC240957   4.845  11.274  24.797 -0.0919  0.1052 -0.3677
 1707BOLB   PO240958   5.317  11.319  24.820 -0.1129  0.3271  0.3424
 1707BOLB   GL340959   5.572  10.901  24.830 -0.0483 -0.2506  0.1945
 1707BOLB   GL440960   5.394  10.661  24.868  0.0743  0.3215  0.0113
 1707BOLB   C1C40961   5.688  10.557  24.464  0.1772 -0.3295 -0.0135
 1707BOLB   C2C40962   5.912  10.191  24.344 -0.1378 -0.0124  0.0416
 1707BOLB   C3C40963   6.166   9.849  24.193  0.0771 -0.1807  0.0456
 1707BOLB   C4C40964   6.268   9.410  24.187  0.2749  0.0451  0.2471
 1707BOLB   C1D40965   5.685  10.390  25.012  0.4163  0.1730  0.2437
 1707BOLB   C2D40966   5.858  10.087  25.182 -0.1294 -0.2576  0.0344
 1707BOLB   C3D40967   6.068   9.773  24.975 -0.4478  0.0999 -0.2263
 1707BOLB   C4D40968   6.158   9.559  24.706 -0.0368 -0.3027 -0.1403
 1708BOLB   NC140969  23.434   5.167  30.199 -0.2206 -0.0052 -0.0170
 1708BOLB   PO140970  23.410   5.446  30.392 -0.4693 -0.2020 -0.1742
 1708BOLB   GL140971  23.782   5.788  30.455 -0.3204  0.1037  0.0500
 1708BOLB   GL240972  23.861   5.778  30.100  0.0155 -0.2084 -0.0433
 1708BOLB   C1A40973  24.175   5.815  30.826 -0.4817  0.2914  0.1122
 1708BOLB   C2A40974  24.343   5.683  31.182 -0.0790  0.1706 -0.1988
 1708BOLB   C3A40975  24.553   5.855  31.603  0.3147 -0.3274  0.2819
 1708BOLB   C4A40976  24.651   6.085  31.952 -0.2462  0.2821 -0.1819
 1708BOLB   C1B40977  24.256   5.762  30.264  0.2609  0.0833  0.0661
 1708BOLB   C2B40978  24.630   5.839  30.490  0.6353  0.0394 -0.1217
 1708BOLB   C3B40979  25.087   5.996  30.722  0.0695  0.0325  0.4513
 1708BOLB   C4B40980  25.561   6.018  30.656  0.2745  0.1746 -0.0981
 1708BOLB   NC240981  26.562   5.502  32.577 -0.1383  0.1089 -0.0292
 1708BOLB   PO240982  26.595   5.894  32.841  0.2611 -0.1720  0.3397
 1708BOLB   GL340983  26.185   5.688  32.867  0.0896 -0.1093 -0.1514
 1708BOLB   GL440984  26.051   5.588  32.481  0.1778  0.1430  0.0803
 1708BOLB   C1C40985  25.749   5.641  32.898 -0.1640 -0.0799 -0.0642
 1708BOLB   C2C40986  25.340   5.584  32.863 -0.0926  0.1372 -0.0441
 1708BOLB   C3C40987  25.079   5.895  32.681  0.3082 -0.1123 -0.0549
 1708BOLB   C4C40988  24.750   5.833  32.330 -0.4734 -0.0177 -0.0099
 1708BOLB   C1D40989  25.768   5.960  32.548 -0.0357 -0.2233  0.0000
 1708BOLB   C2D40990  25.506   6.150  32.497  0.0494 -0.1965  0.0013
 1708BOLB   C3D40991  25.307   6.521  32.463 -0.0518 -0.0210  0.1405
 1708BOLB   C4D40992  25.101   6.868  32.706 -0.2702 -0.1106  0.0170
 1709BOLB   NC140993  24.534   1.300  25.117  0.1436  0.0349 -0.3131
 1709BOLB   PO140994  24.578   1.490  25.581 -0.2126 -0.0225  0.1782
 1709BOLB   GL140995  25.037   1.616  25.618 -0.0757  0.0416  0.2819
 1709BOLB   GL240996  25.188   1.846  25.533  0.0585  0.1798  0.1293
 1709BOLB   C1A40997  25.493   1.400  25.699  0.1925 -0.0743 -0.0068
 1709BOLB   C2A40998  25.838   1.308  25.692  0.1434  0.2673 -0.3377
 1709BOLB   C3A40999  26.138   1.237  25.882  0.3687 -0.1772  0.0235
 1709BOLB   C4A41000  26.456   1.547  26.026 -0.1975  0.0574  0.0683
 1709BOLB   C1B41001  25.427   1.636  25.252  0.3966 -0.1540 -0.0358
 1709BOLB   C2B41002  25.742   1.425  25.131 -0.1901  0.1377 -0.3104
 1709BOLB   C3B41003  26.108   1.278  25.249  0.0983 -0.0220 -0.2004
 1709BOLB   C4B41004  26.376   1.056  25.163  0.0960 -0.2765  0.0341
 1709BOLB   NC241005  28.975   2.135  26.793 -0.1140 -0.0869  0.0519
 1709BOLB   PO241006  28.806   1.761  27.050 -0.1590  0.0661 -0.1714
 1709BOLB   GL341007  28.671   1.781  26.624  0.2105  0.0774  0.1214
 1709BOLB   GL441008  28.760   1.950  26.264  0.0639 -0.0409 -0.2492
 1709BOLB   C1C41009  28.227   1.661  26.520  0.0473 -0.2061  0.1996
 1709BOLB   C2C41010  27.806   1.498  26.460  0.1239  0.0713  0.0560
 1709BOLB   C3C41011  27.295   1.536  26.413  0.0380 -0.0912 -0.0034
 1709BOLB   C4C41012  26.773   1.599  26.311  0.2287  0.4448  0.0013
 1709BOLB   C1D41013  28.377   2.112  26.376 -0.3522  0.1473 -0.1210
 1709BOLB   C2D41014  28.120   2.401  26.479  0.0119 -0.0637  0.2450
 1709BOLB   C3D41015  28.094   2.855  26.550  0.1986  0.4015 -0.1090
 1709BOLB   C4D41016  28.156   3.249  26.498  0.0438 -0.1521 -0.0178
 1710BOLB   NC141017  11.620  -3.569  25.412  0.1296  0.2053 -0.0462
 1710BOLB   PO141018  11.264  -3.520  25.715 -0.2807  0.2683 -0.0470
 1710BOLB   GL141019  11.131  -3.689  26.069  0.1551 -0.0798 -0.1320
 1710BOLB   GL241020  10.817  -3.752  25.986 -0.0182  0.1992 -0.0731
 1710BOLB   C1A41021  11.135  -4.068  26.248  0.0762 -0.1457  0.0250
 1710BOLB   C2A41022  10.896  -4.369  26.503 -0.2646  0.3944  0.2494
 1710BOLB   C3A41023  10.776  -4.624  26.721  0.2129  0.0271  0.2463
 1710BOLB   C4A41024  10.368  -4.797  26.626  0.1608 -0.1616  0.2512
 1710BOLB   C1B41025  10.538  -4.079  26.133  0.1463 -0.0009 -0.1294
 1710BOLB   C2B41026  10.507  -4.505  26.188 -0.0457  0.2409  0.1469
 1710BOLB   C3B41027  10.793  -4.741  26.193  0.0090  0.0875  0.0321
 1710BOLB   C4B41028  11.166  -4.929  26.161  0.2624  0.0447 -0.2484
 1710BOLB   NC241029   9.047  -6.584  26.690 -0.1347 -0.5005  0.1939
 1710BOLB   PO241030   9.378  -6.897  26.632  0.0905 -0.0680  0.2459
 1710BOLB   GL341031   9.450  -6.523  26.425  0.0974 -0.0444 -0.1066
 1710BOLB   GL441032   9.662  -6.402  26.073  0.3150  0.3854 -0.1969
 1710BOLB   C1C41033   9.616  -6.167  26.612  0.1630 -0.0250 -0.2465
 1710BOLB   C2C41034   9.712  -5.736  26.439  0.1053 -0.1850 -0.0097
 1710BOLB   C3C41035   9.924  -5.475  26.599  0.1165 -0.1349 -0.2267
 1710BOLB   C4C41036   9.989  -5.038  26.648  0.1112  0.1152 -0.0619
 1710BOLB   C1D41037   9.715  -5.956  25.982  0.2876 -0.1796 -0.1322
 1710BOLB   C2D41038   9.914  -5.614  26.017 -0.2743  0.1998 -0.2271
 1710BOLB   C3D41039   9.979  -5.160  26.134 -0.1633  0.0057  0.1471
 1710BOLB   C4D41040  10.274  -4.841  25.914  0.1576  0.1434  0.1140
 1711BOLB   NC141041  21.319   0.011  30.118  0.2086  0.0015 -0.4172
 1711BOLB   PO141042  21.073  -0.485  30.129 -0.0903 -0.1578  0.2139
 1711BOLB   GL141043  21.213  -0.851  30.075  0.0786  0.2385 -0.1068
 1711BOLB   GL241044  21.056  -1.085  29.967 -0.0485 -0.4124 -0.0200
 1711BOLB   C1A41045  21.562  -1.015  30.235 -0.2502  0.0291  0.1644
 1711BOLB   C2A41046  21.988  -1.045  30.235 -0.4198 -0.2969  0.1132
 1711BOLB   C3A41047  22.350  -1.259  30.279  0.0400 -0.0182 -0.1719
 1711BOLB   C4A41048  22.634  -1.557  30.269 -0.3466  0.0356  0.0940
 1711BOLB   C1B41049  20.920  -1.440  30.097 -0.2200 -0.1919  0.2895
 1711BOLB   C2B41050  21.142  -1.823  30.270  0.4409 -0.0683 -0.3701
 1711BOLB   C3B41051  21.399  -2.198  30.455 -0.0638 -0.4433  0.1309
 1711BOLB   C4B41052  21.721  -2.279  30.937  0.2318 -0.1853  0.1610
 1711BOLB   NC241053  24.025  -2.820  31.931  0.0013  0.0235  0.3272
 1711BOLB   PO241054  24.157  -3.072  31.585 -0.1850 -0.0683  0.2274
 1711BOLB   GL341055  23.819  -2.804  31.309 -0.3968 -0.4367 -0.2925
 1711BOLB   GL441056  24.038  -2.762  31.077 -0.0383 -0.1948  0.2248
 1711BOLB   C1C41057  23.590  -2.649  30.852  0.2036 -0.0111 -0.0436
 1711BOLB   C2C41058  23.417  -2.418  30.530  0.1978  0.0573 -0.0398
 1711BOLB   C3C41059  23.237  -2.081  30.491 -0.1647 -0.0926 -0.0358
 1711BOLB   C4C41060  22.945  -1.719  30.464  0.0330  0.2447 -0.2410
 1711BOLB   C1D41061  23.836  -2.308  31.165  0.1703  0.1260 -0.3849
 1711BOLB   C2D41062  23.572  -2.099  30.893 -0.3144 -0.0282 -0.1421
 1711BOLB   C3D41063  23.371  -1.658  30.791  0.0523 -0.0061  0.2329
 1711BOLB   C4D41064  23.188  -1.312  30.613 -0.1125 -0.0698  0.1589
 1712BOLB   NC141065  24.271   6.838  26.777  0.1007 -0.0422  0.1605
 1712BOLB   PO141066  24.164   6.963  27.175  0.1731  0.0074 -0.3437
 1712BOLB   GL141067  24.567   6.923  27.169 -0.0357  0.0091 -0.0771
 1712BOLB   GL241068  24.823   6.750  27.233 -0.1255 -0.1958  0.1251
 1712BOLB   C1A41069  24.838   7.241  27.051 -0.0194  0.1113  0.2004
 1712BOLB   C2A41070  25.259   7.521  27.038 -0.0389  0.1761  0.1411
 1712BOLB   C3A41071  25.619   7.414  26.910 -0.1750 -0.0114  0.0481
 1712BOLB   C4A41072  26.003   7.337  26.614  0.0104 -0.0086  0.4028
 1712BOLB   C1B41073  25.258   6.744  27.434  0.4806  0.3164 -0.1272
 1712BOLB   C2B41074  25.591   6.966  27.335 -0.0782 -0.0089 -0.1251
 1712BOLB   C3B41075  25.831   7.013  26.997 -0.0318 -0.0934  0.1702
 1712BOLB   C4B41076  25.730   6.937  26.706  0.1075 -0.3037  0.3543
 1712BOLB   NC241077  28.218   7.745  26.446  0.1263 -0.0227  0.2771
 1712BOLB   PO241078  28.084   8.158  26.483  0.0168 -0.0617 -0.0929
 1712BOLB   GL341079  27.729   7.889  26.476 -0.2786 -0.1620  0.0208
 1712BOLB   GL441080  27.469   8.022  26.639 -0.0291 -0.1466  0.1520
 1712BOLB   C1C41081  27.404   7.546  26.475 -0.1173 -0.1068 -0.0576
 1712BOLB   C2C41082  27.042   7.328  26.333 -0.1990 -0.3319  0.0967
 1712BOLB   C3C41083  26.607   7.436  26.245  0.2683 -0.1513 -0.0506
 1712BOLB   C4C41084  26.283   7.266  26.399 -0.0787  0.0527 -0.2465
 1712BOLB   C1D41085  27.110   7.869  26.829  0.0506 -0.1072  0.0958
 1712BOLB   C2D41086  26.840   7.632  27.242 -0.3855  0.0079 -0.3739
 1712BOLB   C3D41087  26.652   7.506  27.674  0.0244 -0.0554  0.0713
 1712BOLB   C4D41088  26.538   7.657  28.119  0.1015 -0.1162 -0.3114
 1713BOLB   NC141089  19.210  11.022  22.332  0.1203  0.1727 -0.3596
 1713BOLB   PO141090  19.603  10.848  22.290 -0.1403 -0.3110  0.1456
 1713BOLB   GL141091  19.613  11.205  22.121 -0.0778 -0.3739 -0.1164
 1713BOLB   GL241092  19.388  11.279  21.936  0.2838 -0.3137 -0.1601
 1713BOLB   C1A41093  19.756  11.650  22.121  0.0484 -0.0493 -0.1381
 1713BOLB   C2A41094  19.975  11.987  22.141  0.1032 -0.0337 -0.2365
 1713BOLB   C3A41095  20.231  12.416  22.282 -0.1220  0.0907  0.0171
 1713BOLB   C4A41096  20.225  12.901  22.396 -0.0527  0.1509  0.0595
 1713BOLB   C1B41097  19.759  11.393  21.669 -0.2038  0.0329  0.1664
 1713BOLB   C2B41098  19.950  11.426  21.293  0.3178 -0.4526  0.2460
 1713BOLB   C3B41099  20.008  11.733  20.994 -0.0680  0.2272 -0.1998
 1713BOLB   C4B41100  20.056  12.135  20.739 -0.1296 -0.0784 -0.1546
 1713BOLB   NC241101  21.178  15.112  21.756  0.0093  0.0879 -0.0519
 1713BOLB   PO241102  20.929  15.365  22.085  0.2598 -0.1355  0.0588
 1713BOLB   GL341103  20.828  14.917  22.016 -0.0754  0.3483 -0.0364
 1713BOLB   GL441104  20.541  14.855  21.911 -0.2990 -0.0169  0.1410
 1713BOLB   C1C41105  20.904  14.401  22.049  0.0736  0.2566 -0.2446
 1713BOLB   C2C41106  20.648  14.073  22.107  0.3434 -0.1940  0.1086
 1713BOLB   C3C41107  20.456  13.645  22.122  0.0183 -0.1588 -0.0680
 1713BOLB   C4C41108  20.444  13.322  22.354 -0.0955  0.1585  0.0671
 1713BOLB   C1D41109  20.478  14.538  22.201  0.0798 -0.4713 -0.4487
 1713BOLB   C2D41110  20.048  14.284  22.293  0.0455 -0.2324 -0.2507
 1713BOLB   C3D41111  20.025  14.218  22.732  0.0480  0.1320 -0.0512
 1713BOLB   C4D41112  20.068  13.825  23.026  0.0432 -0.0728 -0.4535
 1714BOLB   NC141113  17.207  10.658  29.886 -0.0438  0.0732  0.0606
 1714BOLB   PO141114  17.105  11.041  29.931  0.0031  0.0647 -0.1818
 1714BOLB   GL141115  17.427  11.331  30.252  0.1391 -0.0995  0.1487
 1714BOLB   GL241116  17.420  11.176  30.513  0.3794 -0.1213  0.0942
 1714BOLB   C1A41117  17.693  11.611  30.586 -0.0365  0.0345 -0.1757
 1714BOLB   C2A41118  17.716  12.006  30.786 -0.0403  0.2041  0.1277
 1714BOLB   C3A41119  18.008  12.276  31.126 -0.0555 -0.2701 -0.1409
 1714BOLB   C4A41120  18.262  12.452  31.488  0.2482  0.1696  0.3214
 1714BOLB   C1B41121  17.129  11.385  30.835 -0.1490 -0.0968 -0.4003
 1714BOLB   C2B41122  16.834  11.687  31.029 -0.0715  0.1956 -0.0344
 1714BOLB   C3B41123  16.884  12.019  31.291  0.1208 -0.1992 -0.0298
 1714BOLB   C4B41124  16.855  12.441  31.314  0.3179 -0.0595  0.0484
 1714BOLB   NC241125  18.969  14.967  32.496 -0.2369  0.0659 -0.1461
 1714BOLB   PO241126  19.335  14.612  32.390 -0.1230  0.0420 -0.3610
 1714BOLB   GL341127  19.435  14.107  32.252 -0.1477  0.0106  0.4412
 1714BOLB   GL441128  19.138  14.078  32.142 -0.3550  0.0093  0.1001
 1714BOLB   C1C41129  19.316  13.605  32.270 -0.2004 -0.2873 -0.1906
 1714BOLB   C2C41130  19.125  13.309  32.047 -0.0044  0.2484  0.2675
 1714BOLB   C3C41131  18.903  12.931  31.834  0.1914 -0.0660  0.3393
 1714BOLB   C4C41132  18.707  12.692  31.495  0.0397  0.0001  0.0405
 1714BOLB   C1D41133  19.082  13.768  31.863 -0.0189 -0.0410  0.0287
 1714BOLB   C2D41134  18.831  13.524  31.654  0.1766 -0.0525 -0.0533
 1714BOLB   C3D41135  18.849  13.190  31.357  0.0750 -0.2448 -0.1966
 1714BOLB   C4D41136  18.773  13.112  30.864 -0.3066 -0.1435 -0.1484
 1715BOLB   NC141137  25.549   3.920  15.870 -0.1841  0.1195 -0.3821
 1715BOLB   PO141138  25.191   3.939  15.527 -0.3458  0.0063 -0.0278
 1715BOLB   GL141139  25.006   3.688  15.642 -0.2723  0.1950 -0.0844
 1715BOLB   GL241140  24.832   3.502  15.499 -0.1704 -0.0099  0.2189
 1715BOLB   C1A41141  24.741   3.661  16.051 -0.1423  0.1298  0.0516
 1715BOLB   C2A41142  24.583   3.718  16.513 -0.1255  0.1644 -0.0213
 1715BOLB   C3A41143  24.493   3.642  16.944 -0.2648  0.0004 -0.1774
 1715BOLB   C4A41144  24.539   3.476  17.319 -0.1335 -0.0791  0.2078
 1715BOLB   C1B41145  24.584   3.270  15.747  0.3149 -0.1591  0.0503
 1715BOLB   C2B41146  24.441   2.926  15.972 -0.5183  0.0945  0.2833
 1715BOLB   C3B41147  24.125   2.743  16.014  0.1142  0.1123 -0.0992
 1715BOLB   C4B41148  23.737   2.564  16.222  0.2402  0.0076 -0.1172
 1715BOLB   NC241149  26.799   3.568  17.159  0.0592 -0.5975  0.2194
 1715BOLB   PO241150  26.569   3.890  16.956 -0.1789  0.2001  0.3331
 1715BOLB   GL341151  26.246   3.662  17.251 -0.2499  0.0452  0.1781
 1715BOLB   GL441152  26.009   3.904  17.099  0.1343  0.2937  0.2263
 1715BOLB   C1C41153  25.809   3.559  17.493 -0.2400  0.1219  0.0891
 1715BOLB   C2C41154  25.526   3.275  17.376  0.1786 -0.0553 -0.0940
 1715BOLB   C3C41155  25.228   3.090  17.609  0.3719 -0.1910 -0.0318
 1715BOLB   C4C41156  24.831   3.401  17.672 -0.0601 -0.1798  0.2138
 1715BOLB   C1D41157  25.709   3.620  16.951  0.0197  0.1852 -0.0965
 1715BOLB   C2D41158  25.321   3.362  16.949  0.0430  0.2977  0.1669
 1715BOLB   C3D41159  25.022   3.492  17.134 -0.0982  0.2349 -0.1253
 1715BOLB   C4D41160  24.870   3.820  17.330 -0.1627  0.0046  0.3114
 1716BOLB   NC141161  12.751  -2.025  18.684 -0.0033 -0.0768  0.3084
 1716BOLB   PO141162  12.726  -1.751  18.288  0.2701  0.3890 -0.0958
 1716BOLB   GL141163  12.481  -1.934  17.983 -0.1554 -0.0433 -0.2926
 1716BOLB   GL241164  12.552  -2.263  17.780 -0.0630 -0.0860 -0.0620
 1716BOLB   C1A41165  12.105  -2.022  17.835 -0.1545  0.1078 -0.0185
 1716BOLB   C2A41166  11.845  -2.128  17.505 -0.0760  0.0316 -0.2871
 1716BOLB   C3A41167  11.727  -2.138  17.206  0.1350 -0.1408 -0.0345
 1716BOLB   C4A41168  11.668  -2.337  16.835  0.0541 -0.0668  0.1183
 1716BOLB   C1B41169  12.183  -2.488  17.642 -0.2399  0.1266  0.0699
 1716BOLB   C2B41170  12.069  -2.941  17.479  0.0139 -0.1973 -0.1779
 1716BOLB   C3B41171  12.241  -3.260  17.314 -0.2593 -0.3003  0.0414
 1716BOLB   C4B41172  11.971  -3.340  16.901 -0.1081 -0.0974  0.1847
 1716BOLB   NC241173  10.946  -3.417  15.617  0.2321 -0.1424 -0.1687
 1716BOLB   PO241174  10.850  -3.877  15.919  0.0712 -0.0021  0.2092
 1716BOLB   GL341175  10.947  -3.866  16.299 -0.1055  0.2625 -0.1989
 1716BOLB   GL441176  10.593  -3.699  16.489  0.0831 -0.1886  0.3157
 1716BOLB   C1C41177  11.080  -3.830  16.754  0.0521 -0.0742  0.3141
 1716BOLB   C2C41178  11.274  -3.482  16.909 -0.0907  0.6007  0.2476
 1716BOLB   C3C41179  11.569  -3.223  16.699 -0.2431 -0.0131  0.0080
 1716BOLB   C4C41180  11.695  -2.762  16.559 -0.0197  0.2505  0.0056
 1716BOLB   C1D41181  10.663  -4.115  16.762  0.2270  0.0099 -0.4847
 1716BOLB   C2D41182  10.868  -4.362  17.117  0.0643 -0.1449  0.3351
 1716BOLB   C3D41183  11.004  -4.688  17.394  0.2087 -0.1140 -0.3627
 1716BOLB   C4D41184  11.220  -4.477  17.766 -0.1949 -0.1164 -0.3578
 1717BOLB   NC141185  15.954   0.123  32.165 -0.3074 -0.3020 -0.1853
 1717BOLB   PO141186  15.483   0.213  32.258 -0.1973 -0.0025 -0.0850
 1717BOLB   GL141187  15.249   0.048  32.613  0.2474 -0.5099 -0.0539
 1717BOLB   GL241188  14.877   0.124  32.637  0.3068  0.1369  0.4221
 1717BOLB   C1A41189  15.082  -0.290  32.819 -0.2398  0.0140  0.2064
 1717BOLB   C2A41190  15.091  -0.701  32.927  0.0470  0.1595 -0.0761
 1717BOLB   C3A41191  15.094  -1.027  33.266 -0.0336  0.0335  0.1969
 1717BOLB   C4A41192  15.313  -1.360  33.573 -0.1124  0.1498  0.0161
 1717BOLB   C1B41193  14.838   0.099  33.057  0.0876  0.0360  0.0700
 1717BOLB   C2B41194  14.703   0.299  33.385 -0.2815  0.2092 -0.0365
 1717BOLB   C3B41195  14.868   0.397  33.855  0.1005  0.2263  0.0880
 1717BOLB   C4B41196  15.008   0.125  34.235 -0.3760 -0.1127  0.0881
 1717BOLB   NC241197  15.749  -2.890  34.995  0.1198  0.2845 -0.1277
 1717BOLB   PO241198  15.925  -2.568  35.224 -0.2490  0.2103  0.1371
 1717BOLB   GL341199  16.070  -2.179  35.071 -0.0682  0.1991 -0.2066
 1717BOLB   GL441200  16.280  -2.161  34.908 -0.2336  0.1848  0.3224
 1717BOLB   C1C41201  15.866  -1.889  34.756 -0.0407 -0.3675 -0.0577
 1717BOLB   C2C41202  15.982  -1.622  34.411 -0.0570  0.0696 -0.0341
 1717BOLB   C3C41203  15.898  -1.462  33.969 -0.1089 -0.0678  0.3264
 1717BOLB   C4C41204  15.582  -1.524  33.685 -0.3624 -0.1571  0.1704
 1717BOLB   C1D41205  16.134  -2.154  34.412  0.0285 -0.1254  0.1176
 1717BOLB   C2D41206  15.983  -1.992  34.031  0.1312 -0.0955 -0.3934
 1717BOLB   C3D41207  15.858  -1.928  33.641  0.2478  0.1123  0.3052
 1717BOLB   C4D41208  15.746  -1.727  33.230  0.3649  0.3328  0.1167
 1718BOLB   NC141209  26.810   0.559  17.169 -0.1821 -0.1139  0.0466
 1718BOLB   PO141210  26.565   0.909  17.482 -0.0190  0.0853  0.0568
 1718BOLB   GL141211  26.197   1.056  17.414 -0.1343  0.1913  0.2389
 1718BOLB   GL241212  25.904   0.872  17.521  0.1840 -0.0477  0.1838
 1718BOLB   C1A41213  25.942   0.904  17.041  0.2109  0.2506  0.0502
 1718BOLB   C2A41214  25.671   0.638  16.702  0.0958 -0.3368  0.0903
 1718BOLB   C3A41215  25.401   0.367  16.690 -0.2521 -0.0893  0.1763
 1718BOLB   C4A41216  25.197   0.014  16.850 -0.1641 -0.1577 -0.3209
 1718BOLB   C1B41217  25.574   0.835  17.848 -0.0401 -0.0374  0.1380
 1718BOLB   C2B41218  25.108   0.789  17.702 -0.3062  0.1709 -0.2856
 1718BOLB   C3B41219  24.725   0.637  17.602 -0.1647  0.0786  0.2308
 1718BOLB   C4B41220  24.328   0.565  17.857  0.1302 -0.1642 -0.2637
 1718BOLB   NC241221  26.776  -0.958  17.671  0.0484  0.0744  0.4231
 1718BOLB   PO241222  26.646  -1.173  18.032 -0.0872 -0.1961  0.0357
 1718BOLB   GL341223  26.219  -1.069  17.844 -0.1922  0.0302 -0.0578
 1718BOLB   GL441224  25.881  -1.162  17.937 -0.1771  0.2499  0.1152
 1718BOLB   C1C41225  26.096  -0.810  17.614  0.0662  0.2466  0.0317
 1718BOLB   C2C41226  25.927  -0.424  17.680 -0.2726 -0.0305 -0.1321
 1718BOLB   C3C41227  25.483  -0.196  17.506  0.1476 -0.1660  0.0102
 1718BOLB   C4C41228  25.304  -0.145  17.198  0.1036 -0.3885 -0.0132
 1718BOLB   C1D41229  25.626  -0.863  17.769  0.0462 -0.1172 -0.1047
 1718BOLB   C2D41230  25.184  -0.673  17.860  0.1056  0.1379 -0.1014
 1718BOLB   C3D41231  25.094  -0.327  17.837  0.0414 -0.2236  0.1482
 1718BOLB   C4D41232  25.129   0.102  17.903  0.0669  0.0110 -0.0121
 1719BOLB   NC141233  26.471  -4.778  17.892 -0.0175  0.1243 -0.1059
 1719BOLB   PO141234  26.156  -5.092  17.731 -0.1391  0.2965  0.0057
 1719BOLB   GL141235  25.790  -4.923  17.639  0.1908 -0.2425 -0.0221
 1719BOLB   GL241236  25.815  -4.573  17.485  0.2500  0.0600  0.1295
 1719BOLB   C1A41237  25.340  -4.850  17.553  0.0437 -0.1715  0.0640
 1719BOLB   C2A41238  25.043  -4.451  17.710  0.0456 -0.2676  0.2357
 1719BOLB   C3A41239  25.050  -4.032  17.817  0.0156 -0.0892 -0.2518
 1719BOLB   C4A41240  24.962  -3.487  17.640 -0.0596 -0.1384  0.0656
 1719BOLB   C1B41241  25.480  -4.285  17.499  0.3013  0.0666  0.2205
 1719BOLB   C2B41242  25.197  -4.046  17.256 -0.2337  0.0296 -0.2479
 1719BOLB   C3B41243  25.236  -3.579  17.192 -0.0949 -0.1197 -0.1291
 1719BOLB   C4B41244  25.144  -3.172  17.252  0.2897  0.3654 -0.1028
 1719BOLB   NC241245  26.433  -1.690  18.012 -0.2871 -0.1627  0.0337
 1719BOLB   PO241246  26.635  -2.005  18.114  0.0364 -0.0470  0.2598
 1719BOLB   GL341247  26.249  -2.134  18.101 -0.0066  0.0765 -0.0613
 1719BOLB   GL441248  25.963  -1.909  18.178  0.2442 -0.2708  0.0340
 1719BOLB   C1C41249  25.860  -2.338  18.139  0.0769  0.1210  0.0567
 1719BOLB   C2C41250  25.436  -2.377  18.004 -0.0392 -0.1916  0.1485
 1719BOLB   C3C41251  24.944  -2.580  17.972  0.2585 -0.1551  0.0583
 1719BOLB   C4C41252  24.902  -3.031  17.737 -0.0326  0.1664 -0.0130
 1719BOLB   C1D41253  25.702  -1.524  18.202  0.0945  0.0058  0.0861
 1719BOLB   C2D41254  25.410  -1.182  18.167  0.1710  0.0086  0.0480
 1719BOLB   C3D41255  25.222  -0.807  18.321 -0.1614 -0.0139  0.0127
 1719BOLB   C4D41256  25.062  -0.388  18.359 -0.1566  0.1600  0.0225
 1720BOLB   NC141257  17.132   9.615  20.250 -0.0238 -0.0017 -0.0502
 1720BOLB   PO141258  17.394   9.947  20.363  0.0650  0.1940 -0.0578
 1720BOLB   GL141259  17.355  10.073  19.914  0.0690  0.2532 -0.0138
 1720BOLB   GL241260  17.345  10.404  20.050  0.1051  0.0180  0.5610
 1720BOLB   C1A41261  17.333  10.284  19.502 -0.0111  0.2086 -0.0817
 1720BOLB   C2A41262  17.495  10.600  19.314  0.2295  0.0787 -0.1362
 1720BOLB   C3A41263  17.579  10.831  18.891  0.0227 -0.1101 -0.0534
 1720BOLB   C4A41264  17.228  11.075  18.763  0.0371 -0.1963  0.1628
 1720BOLB   C1B41265  17.731  10.724  19.843  0.0999  0.2070 -0.1242
 1720BOLB   C2B41266  18.089  10.953  19.787 -0.0126 -0.1213  0.0206
 1720BOLB   C3B41267  18.018  11.378  19.676  0.0654  0.0779  0.0265
 1720BOLB   C4B41268  17.843  11.880  19.544  0.1000 -0.0932  0.0115
 1720BOLB   NC241269  17.554  12.260  16.795 -0.4347 -0.2095  0.0143
 1720BOLB   PO241270  17.182  12.318  16.616  0.1025  0.3391  0.0097
 1720BOLB   GL341271  17.073  11.955  16.881 -0.1282 -0.0824  0.0804
 1720BOLB   GL441272  17.322  11.759  17.087  0.0367  0.1650 -0.1691
 1720BOLB   C1C41273  16.828  11.798  17.213  0.0825 -0.0552 -0.1328
 1720BOLB   C2C41274  16.947  11.628  17.578  0.1226 -0.2644 -0.4256
 1720BOLB   C3C41275  16.996  11.555  18.020  0.0562 -0.2507 -0.0139
 1720BOLB   C4C41276  17.120  11.292  18.322  0.0197  0.2888 -0.1194
 1720BOLB   C1D41277  17.104  11.351  17.175 -0.2272 -0.0921 -0.1823
 1720BOLB   C2D41278  16.615  11.357  17.348 -0.0226  0.0275  0.4172
 1720BOLB   C3D41279  16.416  11.519  17.669 -0.0145  0.0249 -0.1285
 1720BOLB   C4D41280  16.082  11.194  17.826 -0.1817 -0.0323  0.1366
 1721BOLB   NC141281  25.964  -3.708  21.269  0.0060  0.3353 -0.2054
 1721BOLB   PO141282  25.856  -4.167  21.423 -0.0716  0.3227 -0.1252
 1721BOLB   GL141283  25.459  -3.930  21.312  0.1271  0.1715  0.0206
 1721BOLB   GL241284  25.451  -3.629  21.384  0.2014  0.2496  0.0321
 1721BOLB   C1A41285  25.109  -3.916  21.155  0.2113  0.2496 -0.1957
 1721BOLB   C2A41286  24.601  -3.838  20.886  0.2108  0.0815 -0.1020
 1721BOLB   C3A41287  24.169  -3.865  20.672  0.1120 -0.2251 -0.3391
 1721BOLB   C4A41288  24.021  -3.883  20.306 -0.3189  0.1018  0.2706
 1721BOLB   C1B41289  25.001  -3.434  21.172  0.1590  0.2434  0.0900
 1721BOLB   C2B41290  24.753  -3.182  20.982  0.0543 -0.1630 -0.2238
 1721BOLB   C3B41291  24.420  -2.974  21.042  0.1347 -0.1427  0.1004
 1721BOLB   C4B41292  23.987  -2.992  21.270 -0.1042 -0.0378 -0.0871
 1721BOLB   NC241293  26.038  -4.654  19.719  0.0299  0.3891  0.2009
 1721BOLB   PO241294  25.825  -4.558  20.045  0.1571 -0.1289  0.1793
 1721BOLB   GL341295  25.374  -4.533  19.943  0.0087  0.0046 -0.0809
 1721BOLB   GL441296  25.200  -4.777  19.919  0.1008  0.3036  0.2001
 1721BOLB   C1C41297  25.093  -4.398  19.581 -0.2396  0.2033  0.0373
 1721BOLB   C2C41298  25.039  -3.962  19.582 -0.0564 -0.1572  0.0724
 1721BOLB   C3C41299  24.539  -3.818  19.676 -0.0045  0.0261  0.0656
 1721BOLB   C4C41300  24.262  -3.943  19.916  0.2050  0.2433 -0.2793
 1721BOLB   C1D41301  24.780  -4.712  19.805  0.3974 -0.1918  0.2404
 1721BOLB   C2D41302  24.384  -4.742  19.554 -0.1141 -0.1505 -0.1834
 1721BOLB   C3D41303  24.021  -4.481  19.658  0.1928 -0.1602 -0.3026
 1721BOLB   C4D41304  23.910  -4.388  20.105  0.1713  0.2476  0.0608
 1722BOLB   NC141305   7.376   5.563  27.602 -0.1972  0.5083 -0.1497
 1722BOLB   PO141306   7.679   5.148  27.756 -0.2610 -0.1205 -0.2808
 1722BOLB   GL141307   7.215   5.211  27.934 -0.1854  0.0841 -0.2558
 1722BOLB   GL241308   7.052   5.444  28.072  0.2527  0.2708 -0.1751
 1722BOLB   C1A41309   6.783   5.031  27.705  0.0099 -0.3530 -0.0735
 1722BOLB   C2A41310   6.395   4.795  27.631 -0.3203  0.0513 -0.3846
 1722BOLB   C3A41311   6.003   4.891  27.506  0.2704 -0.0624  0.0050
 1722BOLB   C4A41312   5.551   4.960  27.324 -0.1694  0.0665  0.0808
 1722BOLB   C1B41313   6.628   5.402  28.184  0.1636 -0.3419  0.1371
 1722BOLB   C2B41314   6.137   5.368  28.324 -0.1499 -0.0476  0.2853
 1722BOLB   C3B41315   5.659   5.373  28.415 -0.0085  0.1771 -0.0273
 1722BOLB   C4B41316   5.358   5.406  28.656 -0.1162  0.3246 -0.1316
 1722BOLB   NC241317   2.864   5.275  27.081 -0.0467  0.4621 -0.0549
 1722BOLB   PO241318   3.017   5.236  27.448  0.0435 -0.0715 -0.1823
 1722BOLB   GL341319   3.465   5.181  27.652 -0.0823  0.0513 -0.2429
 1722BOLB   GL441320   3.730   5.237  27.437  0.0571  0.0900 -0.1520
 1722BOLB   C1C41321   3.822   5.312  27.932 -0.1594 -0.0982 -0.3066
 1722BOLB   C2C41322   4.357   5.297  27.756  0.0625  0.1145  0.0150
 1722BOLB   C3C41323   4.731   5.067  27.573 -0.1887  0.2065  0.0840
 1722BOLB   C4C41324   5.164   5.148  27.477  0.1940  0.0137 -0.0513
 1722BOLB   C1D41325   3.890   4.823  27.162  0.0485  0.0515 -0.0767
 1722BOLB   C2D41326   4.003   4.812  26.767  0.1882  0.0727 -0.3253
 1722BOLB   C3D41327   4.403   4.709  26.551  0.0874  0.0370 -0.1887
 1722BOLB   C4D41328   4.850   4.853  26.591  0.0939  0.1041 -0.2664
 1723BOLB   NC141329  14.122  -0.749  31.160  0.2519 -0.0470  0.0412
 1723BOLB   PO141330  14.110  -0.614  31.644 -0.2050 -0.1299  0.1756
 1723BOLB   GL141331  13.932  -0.876  31.969 -0.0114  0.1295  0.0507
 1723BOLB   GL241332  13.664  -0.893  31.919 -0.1930  0.2814 -0.0891
 1723BOLB   C1A41333  13.852  -1.047  32.445  0.1525 -0.1338  0.0288
 1723BOLB   C2A41334  13.707  -1.162  32.874  0.2318 -0.5648 -0.0735
 1723BOLB   C3A41335  13.606  -1.400  33.275  0.1660 -0.6457  0.0579
 1723BOLB   C4A41336  13.518  -1.667  33.623  0.1214 -0.4268  0.0088
 1723BOLB   C1B41337  13.393  -1.241  32.000 -0.1596 -0.2811  0.0452
 1723BOLB   C2B41338  13.559  -1.505  31.705  0.1920  0.3392 -0.0631
 1723BOLB   C3B41339  13.766  -1.863  31.778 -0.1121  0.1378 -0.0085
 1723BOLB   C4B41340  13.895  -1.941  32.215  0.0249  0.0740 -0.2943
 1723BOLB   NC241341  13.263  -1.922  36.260 -0.2127  0.2698 -0.3063
 1723BOLB   PO241342  13.549  -1.676  35.977  0.1155 -0.1592  0.0293
 1723BOLB   GL341343  13.640  -1.446  35.540 -0.3192 -0.0340 -0.1132
 1723BOLB   GL441344  13.477  -1.085  35.572  0.0354  0.0738  0.1429
 1723BOLB   C1C41345  13.591  -1.654  35.122  0.0470  0.3562  0.2499
 1723BOLB   C2C41346  13.537  -1.715  34.781  0.1602 -0.1075  0.0125
 1723BOLB   C3C41347  13.377  -1.638  34.451  0.1215 -0.0983  0.0791
 1723BOLB   C4C41348  13.440  -1.567  34.012  0.0228 -0.0345  0.1060
 1723BOLB   C1D41349  13.593  -0.814  35.270 -0.2342 -0.2121  0.0442
 1723BOLB   C2D41350  13.572  -0.730  34.827  0.2351 -0.1107 -0.2256
 1723BOLB   C3D41351  13.569  -0.617  34.428 -0.1101  0.1161  0.0070
 1723BOLB   C4D41352  13.457  -0.745  33.985 -0.1026 -0.1274  0.1866
 1724BOLB   NC141353  13.597  -3.399  19.597 -0.0935  0.2597 -0.2961
 1724BOLB   PO141354  13.781  -3.537  19.223  0.2180 -0.0545 -0.0328
 1724BOLB   GL141355  13.817  -3.754  18.866 -0.1023  0.1344 -0.3245
 1724BOLB   GL241356  13.682  -3.980  18.937  0.0565  0.0580 -0.2525
 1724BOLB   C1A41357  13.639  -3.739  18.450 -0.1017  0.2342  0.4825
 1724BOLB   C2A41358  13.406  -3.801  18.071 -0.1188 -0.1821 -0.0944
 1724BOLB   C3A41359  13.318  -3.725  17.683  0.0534 -0.0545 -0.0213
 1724BOLB   C4A41360  13.330  -3.718  17.256  0.2970 -0.0435 -0.1694
 1724BOLB   C1B41361  13.487  -4.224  18.543 -0.0452  0.1120 -0.2366
 1724BOLB   C2B41362  13.306  -4.307  18.122 -0.2516 -0.2021 -0.0518
 1724BOLB   C3B41363  13.430  -4.567  17.873 -0.1938 -0.1056  0.2000
 1724BOLB   C4B41364  13.593  -4.964  17.871 -0.0732  0.1550  0.2253
 1724BOLB   NC241365  12.152  -5.222  15.643 -0.3112  0.1438 -0.4628
 1724BOLB   PO241366  12.518  -5.264  15.403 -0.1065  0.0414  0.2624
 1724BOLB   GL341367  12.671  -5.126  15.689 -0.1814  0.2211  0.2747
 1724BOLB   GL441368  12.905  -4.891  15.558 -0.4012  0.1282 -0.2668
 1724BOLB   C1C41369  12.677  -4.781  16.057 -0.3157 -0.2075 -0.1790
 1724BOLB   C2C41370  12.839  -4.601  16.455 -0.1876  0.0526 -0.1056
 1724BOLB   C3C41371  13.201  -4.458  16.711  0.0704  0.1345 -0.0344
 1724BOLB   C4C41372  13.433  -4.043  16.858  0.1822  0.1244  0.1006
 1724BOLB   C1D41373  12.807  -4.481  15.649  0.2307 -0.2844 -0.0649
 1724BOLB   C2D41374  12.875  -4.212  15.976  0.1313 -0.3403  0.0712
 1724BOLB   C3D41375  13.067  -4.135  16.336  0.3273  0.0590  0.1356
 1724BOLB   C4D41376  13.486  -3.960  16.377  0.3848 -0.3062 -0.0896
 1725BOLB   NC141377  12.559  -1.842  29.981  0.0219 -0.0253  0.0383
 1725BOLB   PO141378  12.283  -1.468  29.969 -0.1716 -0.0725  0.1861
 1725BOLB   GL141379  12.047  -1.834  30.164  0.0613  0.0559 -0.0535
 1725BOLB   GL241380  11.729  -1.905  30.102  0.3707  0.0423 -0.0900
 1725BOLB   C1A41381  11.980  -2.328  30.046 -0.2776  0.1536  0.0859
 1725BOLB   C2A41382  11.901  -2.704  30.159  0.1348 -0.1548 -0.0381
 1725BOLB   C3A41383  11.764  -3.038  30.444  0.0911 -0.1669  0.1585
 1725BOLB   C4A41384  11.689  -3.475  30.423 -0.0829 -0.1347  0.1789
 1725BOLB   C1B41385  11.694  -1.990  30.506 -0.2119 -0.1185  0.0963
 1725BOLB   C2B41386  11.390  -2.214  30.767 -0.2225 -0.1552  0.1796
 1725BOLB   C3B41387  11.095  -2.469  30.983  0.0382 -0.1040  0.2154
 1725BOLB   C4B41388  10.741  -2.640  31.083 -0.1336 -0.0224  0.3107
 1725BOLB   NC241389  11.537  -5.828  31.164  0.0194  0.0463 -0.0319
 1725BOLB   PO241390  11.814  -5.539  31.120  0.0373  0.1386  0.1006
 1725BOLB   GL341391  11.609  -5.420  30.842  0.1162 -0.1016  0.4299
 1725BOLB   GL441392  11.518  -5.648  30.621 -0.1189 -0.0549  0.3971
 1725BOLB   C1C41393  11.415  -5.066  30.766 -0.1034 -0.2148 -0.2077
 1725BOLB   C2C41394  11.310  -4.641  30.726  0.0645 -0.1911 -0.1054
 1725BOLB   C3C41395  11.506  -4.289  30.625 -0.1472  0.0136 -0.1988
 1725BOLB   C4C41396  11.573  -3.917  30.467 -0.1841 -0.0586  0.1479
 1725BOLB   C1D41397  11.515  -5.373  30.357 -0.2092  0.2701 -0.1419
 1725BOLB   C2D41398  11.394  -5.071  30.293 -0.2637 -0.1912  0.3614
 1725BOLB   C3D41399  11.640  -4.731  30.160 -0.3065  0.0691 -0.3614
 1725BOLB   C4D41400  11.972  -4.469  29.880 -0.1394 -0.1579 -0.2060
 1726BOLB   NC141401  23.092  -6.268  11.922 -0.2298 -0.2309 -0.0549
 1726BOLB   PO141402  23.194  -6.081  12.385 -0.0329 -0.2315 -0.0745
 1726BOLB   GL141403  23.350  -5.931  12.706 -0.0811  0.3272  0.1632
 1726BOLB   GL241404  23.559  -5.772  12.997 -0.1383 -0.1890  0.1218
 1726BOLB   C1A41405  23.176  -5.901  13.201  0.0312 -0.0245 -0.0422
 1726BOLB   C2A41406  22.869  -5.801  13.482  0.0708 -0.0371 -0.2103
 1726BOLB   C3A41407  22.731  -5.741  13.914 -0.1022  0.0421  0.3260
 1726BOLB   C4A41408  22.387  -5.915  14.204 -0.3226 -0.1545  0.0073
 1726BOLB   C1B41409  23.269  -5.387  12.897 -0.1716  0.0195  0.2896
 1726BOLB   C2B41410  23.036  -5.052  12.877 -0.1687  0.0210 -0.1111
 1726BOLB   C3B41411  22.908  -4.635  12.865  0.0015 -0.1584  0.1509
 1726BOLB   C4B41412  22.543  -4.328  12.913 -0.2182 -0.0396 -0.0092
 1726BOLB   NC241413  23.567  -7.508  13.120 -0.1487 -0.3261 -0.1585
 1726BOLB   PO241414  23.193  -7.589  13.138  0.0334  0.1711 -0.1915
 1726BOLB   GL341415  22.940  -7.392  13.387 -0.1463  0.0590  0.1123
 1726BOLB   GL441416  22.952  -7.125  13.333  0.2273 -0.1317 -0.0863
 1726BOLB   C1C41417  22.721  -7.303  13.766  0.1511  0.1076 -0.0961
 1726BOLB   C2C41418  22.560  -6.934  14.061 -0.1385  0.1094  0.1100
 1726BOLB   C3C41419  22.637  -6.626  14.244 -0.1975  0.0712  0.0057
 1726BOLB   C4C41420  22.488  -6.247  14.417  0.0314 -0.0357 -0.1458
 1726BOLB   C1D41421  22.739  -6.865  13.597 -0.1340 -0.4274 -0.1484
 1726BOLB   C2D41422  22.501  -6.629  13.571  0.1098 -0.4516 -0.0645
 1726BOLB   C3D41423  22.108  -6.350  13.462 -0.0539  0.1683  0.1775
 1726BOLB   C4D41424  21.883  -5.989  13.621 -0.3563  0.1760 -0.2932
 1727BOLB   NC141425   7.569   6.790  25.295  0.2253  0.0289  0.3770
 1727BOLB   PO141426   7.569   6.682  25.806 -0.0122  0.1250  0.0902
 1727BOLB   GL141427   7.287   6.954  25.686 -0.1050  0.0384  0.0239
 1727BOLB   GL241428   7.011   6.780  25.659 -0.0892 -0.0942  0.3042
 1727BOLB   C1A41429   6.919   7.225  25.898  0.1360  0.0611  0.0106
 1727BOLB   C2A41430   6.486   7.424  26.060 -0.2920  0.2122 -0.0774
 1727BOLB   C3A41431   6.218   7.613  26.235  0.0255  0.2162 -0.0401
 1727BOLB   C4A41432   6.003   7.942  26.327  0.2040  0.1189 -0.1337
 1727BOLB   C1B41433   6.747   7.223  25.467 -0.2535  0.0098 -0.1886
 1727BOLB   C2B41434   6.434   7.465  25.120  0.0044  0.1034 -0.1611
 1727BOLB   C3B41435   6.158   7.482  24.840 -0.4554 -0.2990  0.1239
 1727BOLB   C4B41436   5.763   7.442  24.861 -0.0024  0.2620 -0.0806
 1727BOLB   NC241437   3.444   9.306  26.064 -0.1545  0.3821  0.1415
 1727BOLB   PO241438   3.884   9.298  26.002 -0.1502 -0.0148  0.2876
 1727BOLB   GL341439   4.349   9.227  25.902 -0.2128  0.1313  0.0228
 1727BOLB   GL441440   4.455   9.229  25.507  0.3543 -0.1834 -0.1243
 1727BOLB   C1C41441   4.670   8.871  25.953  0.1743 -0.0391  0.2396
 1727BOLB   C2C41442   4.943   8.474  25.912 -0.2825  0.0639 -0.1660
 1727BOLB   C3C41443   5.354   8.310  25.948 -0.2684 -0.0984  0.2134
 1727BOLB   C4C41444   5.569   8.000  26.133 -0.4717  0.4193  0.3034
 1727BOLB   C1D41445   4.866   9.208  25.700 -0.1321 -0.0461 -0.0165
 1727BOLB   C2D41446   5.242   8.834  25.732 -0.3127 -0.0284 -0.4302
 1727BOLB   C3D41447   5.402   8.555  25.421  0.0883 -0.2034  0.0265
 1727BOLB   C4D41448   5.296   8.310  25.128 -0.2806  0.1811  0.0043
 1728BOLB   NC141449  24.005   9.475  16.637 -0.1328  0.2626 -0.2597
 1728BOLB   PO141450  24.118   9.062  16.656  0.2806  0.0594 -0.2718
 1728BOLB   GL141451  23.876   9.081  17.035  0.0801 -0.5393 -0.1539
 1728BOLB   GL241452  23.794   8.770  17.272 -0.1780 -0.4535 -0.2207
 1728BOLB   C1A41453  23.479   9.151  17.258 -0.3845 -0.2456  0.2982
 1728BOLB   C2A41454  23.095   9.110  17.497 -0.0451  0.3099  0.0654
 1728BOLB   C3A41455  22.762   9.252  17.723 -0.3577 -0.2070 -0.4248
 1728BOLB   C4A41456  22.587   8.903  18.041  0.1721 -0.1225 -0.5299
 1728BOLB   C1B41457  23.372   8.714  17.411  0.2244 -0.0641 -0.1637
 1728BOLB   C2B41458  22.979   8.683  17.726  0.1494 -0.0428  0.1847
 1728BOLB   C3B41459  23.020   8.259  17.854  0.4953  0.0264 -0.3819
 1728BOLB   C4B41460  22.773   8.042  18.165 -0.0293 -0.1185 -0.0719
 1728BOLB   NC241461  23.567   8.562  15.957  0.2790  0.2192  0.2206
 1728BOLB   PO241462  23.773   8.474  16.335  0.3162  0.1631  0.4439
 1728BOLB   GL341463  23.734   8.293  16.681 -0.0685  0.0805 -0.1780
 1728BOLB   GL441464  23.869   8.433  16.925 -0.0736 -0.1146  0.0920
 1728BOLB   C1C41465  23.383   8.213  16.876 -0.0635  0.1737  0.0966
 1728BOLB   C2C41466  22.979   8.364  17.037  0.0857  0.1914 -0.2249
 1728BOLB   C3C41467  22.706   8.261  17.456 -0.0859 -0.0858  0.2353
 1728BOLB   C4C41468  22.465   8.435  17.864 -0.1788 -0.2217 -0.1330
 1728BOLB   C1D41469  23.517   8.736  16.866 -0.1674  0.2097  0.0753
 1728BOLB   C2D41470  23.152   8.860  16.914 -0.0446 -0.3223  0.1916
 1728BOLB   C3D41471  22.870   8.810  17.181  0.3972  0.1475  0.0232
 1728BOLB   C4D41472  22.562   8.752  17.495  0.1377  0.1443 -0.1838
 1729BOLB   NC141473  24.094   3.245  13.999  0.0381 -0.0070  0.2577
 1729BOLB   PO141474  24.449   3.410  14.191 -0.2702  0.0834  0.1347
 1729BOLB   GL141475  24.039   3.410  14.520 -0.2106 -0.2747 -0.3003
 1729BOLB   GL241476  23.834   3.602  14.738 -0.0996 -0.1458 -0.1803
 1729BOLB   C1A41477  23.780   3.080  14.719 -0.3926  0.3643  0.0423
 1729BOLB   C2A41478  23.831   2.693  14.677  0.2939  0.0378  0.2297
 1729BOLB   C3A41479  23.498   2.247  14.676 -0.1867 -0.2439  0.3027
 1729BOLB   C4A41480  23.615   1.836  14.705  0.1490  0.0182 -0.3440
 1729BOLB   C1B41481  23.405   3.462  14.946  0.0930  0.1618 -0.3213
 1729BOLB   C2B41482  23.100   3.275  15.129  0.1306 -0.1510  0.0607
 1729BOLB   C3B41483  22.936   3.302  15.618 -0.0994  0.3686 -0.2859
 1729BOLB   C4B41484  22.799   3.191  16.041  0.1530  0.1557  0.2227
 1729BOLB   NC241485  24.674   2.324  12.662 -0.3227  0.0067 -0.0776
 1729BOLB   PO241486  24.474   2.480  13.038  0.0679 -0.0469  0.0290
 1729BOLB   GL341487  24.456   1.994  13.050 -0.0218 -0.1398 -0.3179
 1729BOLB   GL441488  24.717   1.829  13.126  0.0388  0.1508  0.4052
 1729BOLB   C1C41489  24.073   1.767  13.251  0.0426  0.2090  0.2198
 1729BOLB   C2C41490  23.881   1.463  13.613 -0.1968 -0.1882 -0.0602
 1729BOLB   C3C41491  23.739   1.492  13.981 -0.1786  0.2003 -0.3306
 1729BOLB   C4C41492  23.711   1.487  14.451 -0.0707  0.0188 -0.2807
 1729BOLB   C1D41493  24.512   1.610  13.473  0.0287 -0.0366  0.1166
 1729BOLB   C2D41494  24.540   1.544  13.893 -0.3631  0.0772 -0.0039
 1729BOLB   C3D41495  24.883   1.298  14.061  0.1362 -0.0541  0.0060
 1729BOLB   C4D41496  24.935   0.907  14.319 -0.0851  0.0307  0.1611
 1730BOLB   NC141497  15.017  11.500  24.426 -0.1161 -0.2622  0.1353
 1730BOLB   PO141498  14.794  11.660  24.127 -0.4163  0.2233 -0.2119
 1730BOLB   GL141499  14.817  12.040  23.884  0.1130 -0.0807 -0.0795
 1730BOLB   GL241500  14.516  12.132  23.649  0.1478 -0.1747 -0.2744
 1730BOLB   C1A41501  14.905  12.481  23.637 -0.1258 -0.2418  0.1176
 1730BOLB   C2A41502  15.142  12.780  23.349 -0.2031 -0.4472  0.2159
 1730BOLB   C3A41503  15.020  13.163  23.121 -0.2459 -0.0557 -0.0030
 1730BOLB   C4A41504  14.667  13.407  23.041 -0.0475 -0.0310  0.3630
 1730BOLB   C1B41505  14.386  12.494  23.843 -0.6321  0.1387  0.2200
 1730BOLB   C2B41506  14.506  12.878  23.810  0.2421  0.1681  0.3031
 1730BOLB   C3B41507  14.294  13.299  23.850 -0.3932 -0.2957 -0.0307
 1730BOLB   C4B41508  14.355  13.704  24.087  0.0261  0.2869  0.1963
 1730BOLB   NC241509  13.954  15.596  22.544 -0.1580 -0.0968 -0.2992
 1730BOLB   PO241510  13.491  15.492  22.539  0.1344  0.0855  0.2968
 1730BOLB   GL341511  13.415  15.174  22.826  0.0862  0.2310  0.0541
 1730BOLB   GL441512  13.218  14.992  23.001 -0.2348  0.3686  0.3099
 1730BOLB   C1C41513  13.600  14.678  22.763  0.0732 -0.0225  0.1011
 1730BOLB   C2C41514  13.748  14.218  22.784 -0.0797  0.0908  0.1735
 1730BOLB   C3C41515  14.019  13.880  22.793 -0.0958  0.0925  0.0210
 1730BOLB   C4C41516  14.457  13.784  22.894 -0.1465  0.0255 -0.3209
 1730BOLB   C1D41517  13.514  14.697  23.220 -0.0543 -0.0498 -0.0529
 1730BOLB   C2D41518  13.592  14.218  23.265  0.0761 -0.0199  0.1086
 1730BOLB   C3D41519  13.865  13.799  23.275  0.1290 -0.2358 -0.0524
 1730BOLB   C4D41520  14.219  13.475  23.135  0.1163  0.0770 -0.2347
 1731BOLB   NC141521  24.489   5.746  25.702 -0.0812 -0.5366  0.0079
 1731BOLB   PO141522  24.304   6.156  25.661 -0.0048 -0.3179 -0.1683
 1731BOLB   GL141523  24.741   6.234  25.721  0.0705  0.4268 -0.0945
 1731BOLB   GL241524  24.821   6.054  25.438  0.1793 -0.2229 -0.0423
 1731BOLB   C1A41525  25.214   6.129  25.840 -0.0284  0.0403  0.2476
 1731BOLB   C2A41526  25.672   6.086  25.783 -0.1868  0.0918  0.1491
 1731BOLB   C3A41527  26.084   6.261  25.641 -0.3878 -0.2730  0.0487
 1731BOLB   C4A41528  26.564   6.393  25.698  0.1293 -0.1512 -0.1495
 1731BOLB   C1B41529  25.180   6.353  25.393 -0.1363 -0.0319 -0.0300
 1731BOLB   C2B41530  25.623   6.531  25.398  0.0385  0.0802 -0.2368
 1731BOLB   C3B41531  25.832   6.732  25.673 -0.1740  0.4454 -0.1377
 1731BOLB   C4B41532  26.252   6.777  25.555 -0.4460 -0.0134 -0.0941
 1731BOLB   NC241533  28.858   7.710  25.732  0.0247 -0.1989 -0.1684
 1731BOLB   PO241534  28.492   7.650  26.038  0.1153  0.2033  0.0086
 1731BOLB   GL341535  28.138   7.352  26.011  0.0269 -0.1999  0.2851
 1731BOLB   GL441536  27.831   7.512  25.944  0.0575  0.3399  0.3703
 1731BOLB   C1C41537  27.967   6.971  26.152  0.2487  0.0861  0.1780
 1731BOLB   C2C41538  27.664   6.720  25.976 -0.1942 -0.1929  0.0453
 1731BOLB   C3C41539  27.256   6.597  25.874 -0.0058  0.0340  0.0261
 1731BOLB   C4C41540  26.856   6.645  25.830  0.0001  0.1068 -0.1544
 1731BOLB   C1D41541  27.421   7.593  25.993 -0.0657  0.1354  0.0590
 1731BOLB   C2D41542  26.966   7.656  25.986  0.0469  0.1269 -0.0222
 1731BOLB   C3D41543  26.671   7.598  25.708  0.1375  0.0940  0.1059
 1731BOLB   C4D41544  26.281   7.814  25.653  0.1936 -0.0881  0.2014
 1732BOLB   NC141545  16.802   3.908  33.703  0.1519 -0.0013  0.0823
 1732BOLB   PO141546  17.157   4.012  33.951 -0.2701  0.1015  0.0647
 1732BOLB   GL141547  17.154   3.697  34.148  0.2109  0.0795  0.1001
 1732BOLB   GL241548  17.478   3.708  34.266  0.1271  0.1543  0.2712
 1732BOLB   C1A41549  16.977   3.387  34.373 -0.0966 -0.1731  0.0774
 1732BOLB   C2A41550  17.004   2.961  34.546 -0.2547  0.3696 -0.1529
 1732BOLB   C3A41551  17.101   2.612  34.682  0.3333 -0.0598  0.2306
 1732BOLB   C4A41552  16.905   2.409  35.081 -0.1988 -0.0134  0.2243
 1732BOLB   C1B41553  17.828   3.482  34.442 -0.0025 -0.4370 -0.0942
 1732BOLB   C2B41554  18.214   3.626  34.761 -0.3120 -0.1098  0.1778
 1732BOLB   C3B41555  18.595   3.949  34.635  0.0920 -0.0483  0.2794
 1732BOLB   C4B41556  18.675   4.136  34.259  0.0681 -0.2287  0.1144
 1732BOLB   NC241557  16.678   2.567  37.800  0.1773 -0.2489  0.0014
 1732BOLB   PO241558  16.947   2.208  37.712  0.1421  0.0058 -0.0041
 1732BOLB   GL341559  17.057   2.277  37.269 -0.1741 -0.0303  0.2914
 1732BOLB   GL441560  17.263   2.082  37.082 -0.1283 -0.0674  0.1153
 1732BOLB   C1C41561  17.053   2.462  36.831  0.0174 -0.1040  0.1701
 1732BOLB   C2C41562  16.851   2.611  36.324  0.0041  0.3368 -0.3393
 1732BOLB   C3C41563  16.652   2.695  35.916  0.0476 -0.1426  0.0876
 1732BOLB   C4C41564  16.588   2.503  35.450  0.0640 -0.1392 -0.2559
 1732BOLB   C1D41565  17.513   2.158  36.758 -0.1087  0.4183  0.1112
 1732BOLB   C2D41566  17.225   2.289  36.365 -0.0568  0.0073  0.2821
 1732BOLB   C3D41567  17.183   2.401  35.976  0.0238  0.0306 -0.1858
 1732BOLB   C4D41568  17.113   2.548  35.565  0.0327  0.0441 -0.2733
 1733BOLB   NC141569   5.823   4.075  17.289 -0.0000  0.2551  0.0963
 1733BOLB   PO141570   5.806   3.689  17.467  0.2097  0.0216 -0.3061
 1733BOLB   GL141571   5.933   3.558  17.950 -0.0194 -0.2437 -0.2151
 1733BOLB   GL241572   5.776   3.634  18.305  0.1232  0.0309 -0.1920
 1733BOLB   C1A41573   6.248   3.530  18.299 -0.2874 -0.0009 -0.2716
 1733BOLB   C2A41574   6.631   3.505  18.673  0.2950 -0.3281 -0.1492
 1733BOLB   C3A41575   6.713   3.270  19.042 -0.1603 -0.0726 -0.0107
 1733BOLB   C4A41576   6.586   3.047  19.275 -0.0253  0.0072 -0.1715
 1733BOLB   C1B41577   5.964   3.683  18.702  0.0382 -0.3272  0.0825
 1733BOLB   C2B41578   6.201   3.458  19.030 -0.3042 -0.0165  0.1710
 1733BOLB   C3B41579   6.476   3.615  19.305  0.1513 -0.0500  0.2432
 1733BOLB   C4B41580   6.928   3.571  19.334  0.1260  0.2512 -0.1166
 1733BOLB   NC241581   4.711   2.627  18.170  0.3084  0.1461  0.1114
 1733BOLB   PO241582   4.699   3.083  18.243  0.0968 -0.1802  0.0387
 1733BOLB   GL341583   4.974   2.828  18.589  0.2686  0.2072  0.1139
 1733BOLB   GL441584   5.148   2.590  18.361 -0.0875  0.2086  0.0727
 1733BOLB   C1C41585   5.324   2.827  18.869 -0.3539 -0.1117 -0.0311
 1733BOLB   C2C41586   5.638   3.007  19.203 -0.0983  0.1241 -0.1653
 1733BOLB   C3C41587   5.891   3.231  19.376 -0.2275 -0.0289  0.0666
 1733BOLB   C4C41588   6.283   3.018  19.424 -0.0266  0.2308 -0.1086
 1733BOLB   C1D41589   5.581   2.283  18.269  0.0199  0.1324 -0.3083
 1733BOLB   C2D41590   6.138   2.464  18.243 -0.1694  0.4958 -0.1060
 1733BOLB   C3D41591   6.537   2.620  18.393  0.0114 -0.2469 -0.1883
 1733BOLB   C4D41592   6.881   2.531  18.624 -0.4280  0.2559  0.2741
 1734BOLB   NC141593  12.188  -3.491  25.567  0.1449  0.3189 -0.0217
 1734BOLB   PO141594  12.029  -3.960  25.406  0.0149 -0.2221 -0.3054
 1734BOLB   GL141595  11.990  -4.172  25.700  0.1345 -0.0693  0.0064
 1734BOLB   GL241596  12.080  -4.129  26.006  0.2858  0.0920  0.1357
 1734BOLB   C1A41597  11.971  -4.610  25.924 -0.1552 -0.0300 -0.0013
 1734BOLB   C2A41598  11.706  -4.859  26.253  0.0758  0.2914  0.0637
 1734BOLB   C3A41599  11.688  -5.247  26.323  0.0834  0.4220  0.2656
 1734BOLB   C4A41600  11.760  -5.666  26.279  0.0197 -0.0128  0.0201
 1734BOLB   C1B41601  12.231  -4.405  26.317  0.0522  0.0661  0.1658
 1734BOLB   C2B41602  12.011  -4.673  26.691 -0.0296 -0.4655  0.1091
 1734BOLB   C3B41603  11.830  -5.029  26.905 -0.0360 -0.0227 -0.2794
 1734BOLB   C4B41604  11.646  -5.185  27.191 -0.2939 -0.1818 -0.2388
 1734BOLB   NC241605  11.366  -7.853  27.641 -0.0457  0.1337 -0.2515
 1734BOLB   PO241606  11.748  -7.641  27.699 -0.0800  0.1119 -0.0696
 1734BOLB   GL341607  11.807  -7.349  27.464 -0.1913 -0.0298 -0.1005
 1734BOLB   GL441608  12.009  -7.145  27.547  0.0517  0.2346  0.0090
 1734BOLB   C1C41609  11.690  -7.256  27.015  0.1604  0.0530 -0.2549
 1734BOLB   C2C41610  11.774  -6.920  26.747  0.3179 -0.2207  0.1043
 1734BOLB   C3C41611  11.575  -6.506  26.582 -0.0928  0.0542 -0.0072
 1734BOLB   C4C41612  11.708  -6.011  26.364  0.1688  0.1371 -0.3898
 1734BOLB   C1D41613  12.033  -6.677  27.824 -0.1323  0.0049  0.1400
 1734BOLB   C2D41614  12.038  -6.203  27.738  0.0341  0.2626 -0.2923
 1734BOLB   C3D41615  12.156  -5.872  27.528 -0.3691  0.1152  0.0375
 1734BOLB   C4D41616  12.065  -5.547  27.233 -0.1367  0.0660  0.0440
 1735BOLB   NC141617  21.506  10.356  27.711  0.0561 -0.0746 -0.0515
 1735BOLB   PO141618  21.794  10.242  27.418  0.1570 -0.2632  0.0177
 1735BOLB   GL141619  21.958  10.643  27.554 -0.1084 -0.0317 -0.1048
 1735BOLB   GL241620  21.875  10.833  27.802 -0.2099  0.1969 -0.4463
 1735BOLB   C1A41621  22.175  11.020  27.380  0.0190 -0.0628 -0.1582
 1735BOLB   C2A41622  22.356  11.413  27.517  0.1825  0.2164  0.0076
 1735BOLB   C3A41623  22.660  11.592  27.651 -0.4131 -0.0248 -0.1470
 1735BOLB   C4A41624  22.964  11.574  27.846 -0.1274  0.0324 -0.2124
 1735BOLB   C1B41625  22.146  10.971  27.938 -0.0357 -0.3110 -0.1051
 1735BOLB   C2B41626  22.024  11.394  27.854 -0.3197 -0.2617 -0.1352
 1735BOLB   C3B41627  22.204  11.828  27.845  0.0034  0.0329 -0.0376
 1735BOLB   C4B41628  22.216  12.275  27.751  0.1567 -0.3423 -0.1103
 1735BOLB   NC241629  25.293  12.786  28.903 -0.1027 -0.0393 -0.1387
 1735BOLB   PO241630  24.900  12.611  28.815  0.0958 -0.0253 -0.0180
 1735BOLB   GL341631  24.782  12.132  28.724 -0.3499  0.1251  0.2671
 1735BOLB   GL441632  24.977  11.949  28.562 -0.1895  0.1308 -0.2443
 1735BOLB   C1C41633  24.425  11.879  28.583  0.2448 -0.2879  0.1054
 1735BOLB   C2C41634  24.175  11.775  28.123  0.1255 -0.0930 -0.3234
 1735BOLB   C3C41635  23.833  11.813  27.903  0.1809 -0.3148  0.2603
 1735BOLB   C4C41636  23.443  11.640  27.761  0.0747 -0.1884 -0.2035
 1735BOLB   C1D41637  24.806  11.778  28.175 -0.0231  0.1142  0.1100
 1735BOLB   C2D41638  24.797  11.828  27.718 -0.0147 -0.0660  0.0421
 1735BOLB   C3D41639  24.593  11.983  27.260 -0.0707  0.2477 -0.1803
 1735BOLB   C4D41640  24.557  12.436  27.298  0.0005  0.3467 -0.1674
 1736BOLB   NC141641  24.076   0.693  21.680  0.0839  0.0752 -0.2006
 1736BOLB   PO141642  24.042   1.084  21.609 -0.2240 -0.2168 -0.1961
 1736BOLB   GL141643  24.222   0.971  21.212 -0.3347 -0.2056  0.0924
 1736BOLB   GL241644  24.042   1.045  20.914 -0.0921 -0.1845 -0.0003
 1736BOLB   C1A41645  24.663   1.235  21.094  0.2920  0.0840 -0.1491
 1736BOLB   C2A41646  24.994   1.108  21.192  0.0111  0.0431  0.1266
 1736BOLB   C3A41647  25.320   0.936  20.965 -0.1859 -0.1237  0.2742
 1736BOLB   C4A41648  25.458   0.898  20.493  0.0146 -0.2228  0.2053
 1736BOLB   C1B41649  24.442   1.106  20.696  0.3620 -0.0085 -0.1030
 1736BOLB   C2B41650  24.859   0.828  20.762 -0.1375  0.0409  0.4976
 1736BOLB   C3B41651  25.123   0.535  20.741  0.2728  0.1807 -0.1138
 1736BOLB   C4B41652  25.498   0.312  20.477 -0.0572 -0.0516  0.0365
 1736BOLB   NC241653  26.779   0.920  18.946 -0.0994 -0.2565 -0.0030
 1736BOLB   PO241654  27.032   1.094  18.665  0.2195 -0.0535 -0.3738
 1736BOLB   GL341655  26.689   1.421  18.895 -0.0322  0.0314  0.1856
 1736BOLB   GL441656  26.621   1.640  18.701 -0.1963 -0.2803  0.0804
 1736BOLB   C1C41657  26.312   1.344  19.167  0.0909  0.0812  0.0743
 1736BOLB   C2C41658  26.017   1.090  19.407  0.4874  0.0817 -0.1094
 1736BOLB   C3C41659  25.683   0.998  19.716  0.0616 -0.0152  0.1399
 1736BOLB   C4C41660  25.578   1.124  20.131 -0.1505 -0.1071  0.1796
 1736BOLB   C1D41661  26.441   1.882  19.049 -0.1827 -0.0849  0.0998
 1736BOLB   C2D41662  26.072   2.097  19.145 -0.4032  0.0970 -0.2356
 1736BOLB   C3D41663  25.758   2.229  19.318 -0.4834  0.1905 -0.0833
 1736BOLB   C4D41664  25.473   2.558  19.275  0.2516 -0.0016  0.0625
 1737BOLB   NC141665  24.162   2.473  29.179  0.2205 -0.0413  0.3126
 1737BOLB   PO141666  24.575   2.613  28.947 -0.1485  0.0869 -0.1843
 1737BOLB   GL141667  25.058   2.540  29.233 -0.5094  0.2240 -0.2475
 1737BOLB   GL241668  25.022   2.719  29.546  0.1202  0.1950  0.2091
 1737BOLB   C1A41669  25.288   2.110  29.415  0.2430 -0.0259 -0.0110
 1737BOLB   C2A41670  25.526   1.818  29.649 -0.0127 -0.0298 -0.0062
 1737BOLB   C3A41671  25.586   1.412  29.715  0.1496  0.3031  0.1284
 1737BOLB   C4A41672  25.886   0.969  29.665  0.0603  0.2797  0.4484
 1737BOLB   C1B41673  25.460   2.885  29.438  0.0596 -0.2117  0.0974
 1737BOLB   C2B41674  25.866   2.878  29.328  0.0468  0.2103  0.2108
 1737BOLB   C3B41675  26.270   2.873  29.230  0.1383  0.1490  0.0105
 1737BOLB   C4B41676  26.516   2.678  28.983 -0.0210  0.0211  0.0538
 1737BOLB   NC241677  28.399   0.700  28.895  0.0524  0.3113  0.0461
 1737BOLB   PO241678  28.127   0.372  29.135  0.0473 -0.1579  0.1258
 1737BOLB   GL341679  27.705   0.439  29.155 -0.0318 -0.0263 -0.1092
 1737BOLB   GL441680  27.767   0.729  28.944 -0.0298 -0.1677 -0.5069
 1737BOLB   C1C41681  27.279   0.423  29.372 -0.3029 -0.0699  0.1576
 1737BOLB   C2C41682  26.935   0.665  29.454 -0.0743  0.0927 -0.0465
 1737BOLB   C3C41683  26.566   0.874  29.290 -0.1098  0.1511  0.1385
 1737BOLB   C4C41684  26.121   0.973  29.389  0.1250  0.2111 -0.3162
 1737BOLB   C1D41685  27.472   0.967  29.019 -0.1920 -0.1127  0.4073
 1737BOLB   C2D41686  27.055   1.068  28.850  0.5128  0.0412  0.1923
 1737BOLB   C3D41687  26.814   1.391  28.862  0.2721  0.1670  0.0060
 1737BOLB   C4D41688  26.412   1.436  28.692 -0.2617 -0.0053 -0.1409
 1738BOLB   NC141689  16.060  10.390  19.972  0.1228  0.2065 -0.0352
 1738BOLB   PO141690  16.011  10.651  20.286  0.1262  0.1887  0.1004
 1738BOLB   GL141691  16.152  10.869  20.003 -0.0796  0.0936 -0.3971
 1738BOLB   GL241692  16.132  10.829  19.720 -0.0746  0.2217  0.0083
 1738BOLB   C1A41693  16.312  11.329  19.999  0.0535  0.1517 -0.0550
 1738BOLB   C2A41694  16.520  11.639  19.714 -0.1740 -0.2118  0.0313
 1738BOLB   C3A41695  16.508  11.497  19.242 -0.2299 -0.1349  0.1883
 1738BOLB   C4A41696  16.719  11.674  18.978  0.3068 -0.2134 -0.1601
 1738BOLB   C1B41697  16.141  11.225  19.553  0.2097  0.0970  0.1741
 1738BOLB   C2B41698  16.050  11.692  19.368  0.0655 -0.0219 -0.2961
 1738BOLB   C3B41699  16.249  12.077  19.273  0.1680 -0.0165 -0.1000
 1738BOLB   C4B41700  16.707  12.027  19.353  0.1400  0.0038 -0.1254
 1738BOLB   NC241701  16.106  12.664  16.541  0.3778  0.1344  0.1048
 1738BOLB   PO241702  16.171  12.612  16.940 -0.1733  0.0982  0.2237
 1738BOLB   GL341703  16.443  12.247  17.064  0.1978 -0.0164 -0.2204
 1738BOLB   GL441704  16.444  11.864  16.937 -0.1571  0.0062 -0.0361
 1738BOLB   C1C41705  16.443  11.989  17.419 -0.2181 -0.0081 -0.0010
 1738BOLB   C2C41706  16.685  11.938  17.837  0.0737 -0.0677 -0.1347
 1738BOLB   C3C41707  16.821  12.001  18.232  0.3810  0.3927 -0.2916
 1738BOLB   C4C41708  16.906  11.743  18.539 -0.3770 -0.1825 -0.2779
 1738BOLB   C1D41709  16.206  11.648  17.150  0.4399  0.3299 -0.0894
 1738BOLB   C2D41710  16.053  11.412  17.387  0.1901 -0.1763 -0.3534
 1738BOLB   C3D41711  15.702  11.599  17.605 -0.0791  0.1157 -0.0479
 1738BOLB   C4D41712  15.545  12.057  17.481 -0.0078 -0.1336  0.0329
 1739BOLB   NC141713  12.680   8.888  19.936 -0.0797  0.0010 -0.1229
 1739BOLB   PO141714  12.579   9.226  20.231 -0.0383  0.1074 -0.2531
 1739BOLB   GL141715  12.314   9.603  20.065 -0.4425 -0.1507 -0.2386
 1739BOLB   GL241716  12.305   9.810  20.276  0.0018 -0.0471 -0.0241
 1739BOLB   C1A41717  12.066   9.676  19.722 -0.0004 -0.2066 -0.0450
 1739BOLB   C2A41718  12.276   9.663  19.357  0.2233  0.1858 -0.3421
 1739BOLB   C3A41719  12.548   9.965  19.110 -0.0545  0.0769  0.1990
 1739BOLB   C4A41720  12.532  10.396  18.829 -0.0317 -0.2425 -0.2771
 1739BOLB   C1B41721  12.029  10.085  20.033  0.3025 -0.1319 -0.0789
 1739BOLB   C2B41722  11.686  10.357  20.021  0.3657  0.0981 -0.0523
 1739BOLB   C3B41723  11.409  10.690  19.954 -0.0857  0.5128 -0.2462
 1739BOLB   C4B41724  10.931  10.835  19.707 -0.1951 -0.1151  0.2711
 1739BOLB   NC241725  11.130  11.080  16.832  0.2866  0.0675  0.0682
 1739BOLB   PO241726  11.379  11.459  16.849 -0.0063  0.1282  0.2348
 1739BOLB   GL341727  11.505  11.218  17.224  0.0057  0.0261 -0.2468
 1739BOLB   GL441728  11.560  10.877  17.135 -0.0335  0.3696  0.0788
 1739BOLB   C1C41729  11.802  10.951  17.609 -0.3550 -0.1192 -0.0041
 1739BOLB   C2C41730  11.941  10.533  17.823 -0.3835 -0.2184 -0.1424
 1739BOLB   C3C41731  12.077  10.511  18.269  0.0612 -0.3444  0.2991
 1739BOLB   C4C41732  12.330  10.642  18.614 -0.2369 -0.0323 -0.2611
 1739BOLB   C1D41733  11.303  10.775  17.436  0.1398  0.0249  0.0682
 1739BOLB   C2D41734  11.276  10.369  17.401 -0.1687 -0.1664 -0.1754
 1739BOLB   C3D41735  11.501   9.978  17.234  0.2159 -0.0110  0.1780
 1739BOLB   C4D41736  11.334   9.601  17.083 -0.0755  0.1174  0.3007
 1740BOLB   NC141737  12.197  10.907  23.204  0.1036  0.2251  0.3481
 1740BOLB   PO141738  11.777  11.092  23.280 -0.1080 -0.1418  0.1530
 1740BOLB   GL141739  11.520  11.418  22.887 -0.1701  0.2904 -0.1434
 1740BOLB   GL241740  11.434  11.347  22.579  0.2232  0.0523 -0.0475
 1740BOLB   C1A41741  11.635  11.838  22.647 -0.0620  0.0168 -0.2554
 1740BOLB   C2A41742  11.513  12.216  22.478 -0.0453 -0.0457 -0.1830
 1740BOLB   C3A41743  11.215  12.544  22.551 -0.1576 -0.0476  0.3867
 1740BOLB   C4A41744  11.092  12.879  22.458 -0.1418  0.0765 -0.2362
 1740BOLB   C1B41745  11.365  11.656  22.306  0.2303  0.0611 -0.2055
 1740BOLB   C2B41746  11.024  11.562  22.059  0.1314  0.2438  0.2618
 1740BOLB   C3B41747  10.873  11.898  21.979  0.0518  0.0463  0.2854
 1740BOLB   C4B41748  10.687  12.193  21.701 -0.1529 -0.4025 -0.1036
 1740BOLB   NC241749   9.680  14.689  22.778  0.1409  0.1224  0.1501
 1740BOLB   PO241750  10.037  14.927  22.589  0.1074 -0.1961  0.0310
 1740BOLB   GL341751  10.361  14.609  22.617  0.1037 -0.0344  0.2083
 1740BOLB   GL441752  10.461  14.342  22.498 -0.1782  0.1565 -0.1450
 1740BOLB   C1C41753  10.661  14.451  22.925 -0.0304 -0.3098  0.0319
 1740BOLB   C2C41754  10.932  14.148  22.955  0.0297 -0.0498 -0.1530
 1740BOLB   C3C41755  11.100  13.669  22.798  0.0282 -0.0103 -0.2450
 1740BOLB   C4C41756  11.091  13.278  22.586  0.2277  0.2617 -0.0006
 1740BOLB   C1D41757  10.423  14.074  22.952 -0.1278  0.1166 -0.1652
 1740BOLB   C2D41758  10.599  13.715  23.096  0.0575  0.1054 -0.2388
 1740BOLB   C3D41759  10.877  13.470  23.360 -0.0772  0.2440 -0.3372
 1740BOLB   C4D41760  11.158  13.157  23.424 -0.0169 -0.0778 -0.0478
 1741BOLB   NC141761   4.847  11.031  28.096  0.4890  0.2761 -0.0656
 1741BOLB   PO141762   5.011  11.080  27.688 -0.2506 -0.1258  0.1789
 1741BOLB   GL141763   5.311  10.725  27.555 -0.1414 -0.0193  0.0088
 1741BOLB   GL241764   5.398  10.357  27.600  0.0376  0.2227  0.1118
 1741BOLB   C1A41765   5.668  10.649  27.341 -0.1067  0.0174 -0.1924
 1741BOLB   C2A41766   5.841  10.339  27.304  0.1642  0.2510 -0.2934
 1741BOLB   C3A41767   6.224  10.247  27.449 -0.2714 -0.1539  0.0999
 1741BOLB   C4A41768   6.598  10.334  27.260 -0.0249  0.0892 -0.0682
 1741BOLB   C1B41769   5.866  10.466  27.857  0.0109 -0.0826 -0.0791
 1741BOLB   C2B41770   6.090  10.797  27.688 -0.1797 -0.0402 -0.0830
 1741BOLB   C3B41771   6.130  11.275  27.636 -0.0485  0.1215 -0.1206
 1741BOLB   C4B41772   6.350  11.597  27.864 -0.2606  0.3128 -0.0159
 1741BOLB   NC241773   5.415  11.712  25.995 -0.0886 -0.0737 -0.3854
 1741BOLB   PO241774   5.287  12.003  26.326 -0.0536 -0.2506  0.3250
 1741BOLB   GL341775   5.729  11.781  26.483 -0.0110 -0.0312  0.1191
 1741BOLB   GL441776   5.843  11.498  26.195  0.0671  0.2750 -0.0321
 1741BOLB   C1C41777   6.085  11.674  26.781 -0.1266 -0.1377  0.1554
 1741BOLB   C2C41778   6.443  11.299  26.878  0.0452  0.1026 -0.0160
 1741BOLB   C3C41779   6.495  10.895  26.841 -0.0143  0.3553 -0.0808
 1741BOLB   C4C41780   6.807  10.611  26.829 -0.1654  0.2655 -0.2399
 1741BOLB   C1D41781   6.186  11.268  25.985  0.2313  0.2034 -0.1402
 1741BOLB   C2D41782   6.646  11.338  25.915 -0.0833 -0.3031  0.4485
 1741BOLB   C3D41783   6.978  11.567  25.663  0.1585  0.0856  0.0965
 1741BOLB   C4D41784   7.418  11.659  25.846  0.2622  0.2942  0.0933
 1742BOLB   NC141785   3.132   1.876  23.340 -0.2255  0.1477  0.0551
 1742BOLB   PO141786   3.200   1.444  23.361 -0.0942 -0.3685  0.1672
 1742BOLB   GL141787   3.654   1.479  23.535  0.3845  0.0178  0.1015
 1742BOLB   GL241788   3.575   1.745  23.649 -0.0819  0.2120  0.1277
 1742BOLB   C1A41789   4.079   1.454  23.386 -0.2772 -0.1651  0.2426
 1742BOLB   C2A41790   4.365   1.242  23.491 -0.1249 -0.0226 -0.1742
 1742BOLB   C3A41791   4.556   1.024  23.609  0.1144 -0.1813  0.2257
 1742BOLB   C4A41792   4.811   0.846  23.744 -0.0834  0.0909  0.1041
 1742BOLB   C1B41793   3.936   2.020  23.719  0.0061 -0.2323 -0.3194
 1742BOLB   C2B41794   4.201   2.314  23.635 -0.0486 -0.0290 -0.3864
 1742BOLB   C3B41795   4.633   2.434  23.460 -0.0074 -0.1891 -0.1706
 1742BOLB   C4B41796   5.038   2.289  23.698 -0.1402  0.0577 -0.0364
 1742BOLB   NC241797   3.761  -0.415  23.567 -0.1673 -0.3029 -0.1491
 1742BOLB   PO241798   3.942  -0.892  23.475 -0.1550 -0.0329 -0.1887
 1742BOLB   GL341799   4.329  -0.900  23.843  0.1365  0.1640  0.2261
 1742BOLB   GL441800   4.349  -0.588  24.084  0.2601  0.3473  0.1496
 1742BOLB   C1C41801   4.684  -0.560  23.736 -0.0606  0.1183 -0.1775
 1742BOLB   C2C41802   4.893  -0.262  23.526  0.2749  0.0010 -0.0578
 1742BOLB   C3C41803   5.067   0.025  23.531 -0.1192  0.1740  0.1141
 1742BOLB   C4C41804   4.904   0.384  23.859 -0.3256 -0.2412  0.2917
 1742BOLB   C1D41805   4.590  -0.213  24.105  0.1597 -0.0819 -0.2573
 1742BOLB   C2D41806   5.077  -0.142  24.005  0.3022 -0.1152  0.2628
 1742BOLB   C3D41807   5.350   0.044  24.251 -0.1022 -0.0203 -0.2624
 1742BOLB   C4D41808   5.548   0.228  24.569 -0.0966  0.0805  0.1225
 1743BOLB   NC141809  13.554  -4.303  22.299 -0.0754  0.2036 -0.1090
 1743BOLB   PO141810  13.119  -4.397  22.186  0.0164 -0.2210 -0.0293
 1743BOLB   GL141811  13.055  -4.740  22.469 -0.1934  0.0543  0.1488
 1743BOLB   GL241812  12.805  -4.683  22.583 -0.1093  0.1631 -0.1646
 1743BOLB   C1A41813  12.957  -5.223  22.659 -0.0183  0.1110 -0.2585
 1743BOLB   C2A41814  12.946  -5.541  22.762 -0.1141  0.1436  0.0271
 1743BOLB   C3A41815  12.882  -5.992  22.990  0.2387  0.2004 -0.2431
 1743BOLB   C4A41816  12.990  -6.383  23.173 -0.1541 -0.2388  0.1279
 1743BOLB   C1B41817  12.585  -5.029  22.295 -0.1075  0.0544 -0.0014
 1743BOLB   C2B41818  12.255  -5.238  22.433  0.2097 -0.0141  0.1927
 1743BOLB   C3B41819  12.036  -5.583  22.547  0.0043 -0.1060  0.2780
 1743BOLB   C4B41820  12.010  -6.035  22.332  0.0162 -0.3355  0.0682
 1743BOLB   NC241821  12.684  -9.002  23.584 -0.1636 -0.1654  0.0177
 1743BOLB   PO241822  12.594  -8.668  23.322 -0.0322  0.0011  0.0854
 1743BOLB   GL341823  12.822  -8.354  23.160 -0.0652 -0.2048 -0.2267
 1743BOLB   GL441824  12.979  -8.116  23.037 -0.3021 -0.2472 -0.0159
 1743BOLB   C1C41825  12.943  -7.983  23.486 -0.1388 -0.1929  0.0460
 1743BOLB   C2C41826  13.009  -7.565  23.575  0.3281 -0.2351 -0.1235
 1743BOLB   C3C41827  12.988  -7.180  23.479  0.0894  0.0932 -0.1366
 1743BOLB   C4C41828  12.837  -6.781  23.395 -0.2116  0.0782 -0.0189
 1743BOLB   C1D41829  13.054  -7.660  23.088 -0.0900 -0.0782 -0.0433
 1743BOLB   C2D41830  13.153  -7.297  23.056 -0.1293 -0.0489  0.2530
 1743BOLB   C3D41831  13.203  -6.912  22.712  0.1412  0.1462 -0.0737
 1743BOLB   C4D41832  12.944  -6.688  22.775 -0.0562 -0.1692 -0.1946
 1744BOLB   NC141833  19.473   5.566  33.303 -0.1917 -0.1366  0.1275
 1744BOLB   PO141834  19.100   5.300  33.227  0.0384  0.1429 -0.0535
 1744BOLB   GL141835  19.207   5.414  33.717  0.0699  0.3101  0.2442
 1744BOLB   GL241836  19.039   5.542  33.827  0.1913 -0.4115  0.1584
 1744BOLB   C1A41837  19.491   5.163  33.934  0.0436  0.0979  0.1842
 1744BOLB   C2A41838  19.899   5.029  34.054  0.1364  0.1587  0.1745
 1744BOLB   C3A41839  19.952   4.851  34.311 -0.0634 -0.1346  0.2758
 1744BOLB   C4A41840  19.963   4.966  34.655  0.1175  0.0457  0.0495
 1744BOLB   C1B41841  19.492   5.745  33.999 -0.0795 -0.0399 -0.2105
 1744BOLB   C2B41842  19.754   5.974  34.375 -0.0703 -0.1816 -0.0096
 1744BOLB   C3B41843  19.938   5.897  34.699 -0.0184  0.0520  0.0725
 1744BOLB   C4B41844  19.870   5.958  35.043  0.2327 -0.0735 -0.1263
 1744BOLB   NC241845  21.114   5.339  36.897 -0.3993  0.0490 -0.0600
 1744BOLB   PO241846  21.090   5.783  36.785 -0.2016  0.0999 -0.0159
 1744BOLB   GL341847  20.841   5.641  36.440 -0.2522 -0.1509 -0.3269
 1744BOLB   GL441848  20.634   5.867  36.473 -0.0642 -0.0667  0.0987
 1744BOLB   C1C41849  20.597   5.213  36.371  0.3636 -0.4432  0.5647
 1744BOLB   C2C41850  20.431   4.856  36.010  0.0407 -0.0968  0.0677
 1744BOLB   C3C41851  20.377   4.813  35.538 -0.2403 -0.0501  0.0891
 1744BOLB   C4C41852  20.222   4.956  35.138  0.4574 -0.1134 -0.1914
 1744BOLB   C1D41853  20.789   6.056  36.016  0.1209  0.0238  0.2673
 1744BOLB   C2D41854  20.600   6.347  35.724  0.3193  0.1605 -0.1246
 1744BOLB   C3D41855  20.569   6.538  35.372  0.1266 -0.1717 -0.0811
 1744BOLB   C4D41856  20.696   6.445  34.928 -0.0983  0.2133 -0.1176
 1745BOLB   NC141857  17.484  -2.864  28.536  0.2246  0.3927 -0.1662
 1745BOLB   PO141858  17.801  -3.110  28.421  0.0161  0.3221  0.2303
 1745BOLB   GL141859  18.161  -3.374  28.620  0.5732  0.1103  0.0398
 1745BOLB   GL241860  18.083  -3.649  28.561  0.0998 -0.0850  0.3148
 1745BOLB   C1A41861  18.509  -3.654  28.865 -0.0567  0.1095  0.2032
 1745BOLB   C2A41862  18.750  -3.876  29.145  0.1901 -0.1713 -0.2382
 1745BOLB   C3A41863  18.917  -4.068  29.576  0.1442 -0.1380  0.1669
 1745BOLB   C4A41864  19.288  -4.274  29.570 -0.1874 -0.0928  0.3062
 1745BOLB   C1B41865  18.377  -3.988  28.443  0.3325 -0.2640 -0.3006
 1745BOLB   C2B41866  18.657  -4.455  28.553  0.0333  0.0019  0.1704
 1745BOLB   C3B41867  18.735  -4.792  28.701 -0.0021  0.0605 -0.1516
 1745BOLB   C4B41868  19.093  -4.899  28.881  0.0693 -0.0560 -0.2168
 1745BOLB   NC241869  21.291  -5.752  29.940 -0.0284  0.0074  0.3020
 1745BOLB   PO241870  21.428  -5.471  30.208  0.2166  0.0672  0.0719
 1745BOLB   GL341871  20.917  -5.478  30.174  0.0332  0.0439 -0.3728
 1745BOLB   GL441872  20.901  -5.279  30.357  0.0127 -0.1783  0.0786
 1745BOLB   C1C41873  20.524  -5.316  30.011 -0.2517  0.0628  0.0345
 1745BOLB   C2C41874  20.306  -4.938  29.983  0.2224  0.0670 -0.1630
 1745BOLB   C3C41875  19.925  -4.836  29.765 -0.1693 -0.1022 -0.0554
 1745BOLB   C4C41876  19.683  -4.505  29.537 -0.2903  0.2887  0.0118
 1745BOLB   C1D41877  21.009  -5.023  29.980  0.1974 -0.0292  0.0024
 1745BOLB   C2D41878  21.147  -4.719  29.673 -0.0394  0.0588  0.0902
 1745BOLB   C3D41879  21.323  -4.427  29.294  0.0864  0.0602 -0.2114
 1745BOLB   C4D41880  21.343  -4.126  28.935  0.4635 -0.0754  0.2028
 1746BOLB   NC141881   7.914   4.309  23.816  0.0434 -0.1596 -0.2445
 1746BOLB   PO141882   7.603   4.672  23.994  0.0316 -0.0237 -0.0504
 1746BOLB   GL141883   7.148   4.887  23.977 -0.2983  0.4313 -0.2436
 1746BOLB   GL241884   7.122   5.091  24.125 -0.0312  0.0154 -0.0736
 1746BOLB   C1A41885   6.701   5.023  23.802 -0.0642  0.0557  0.1320
 1746BOLB   C2A41886   6.255   5.038  23.603 -0.3910  0.1072  0.0473
 1746BOLB   C3A41887   6.168   5.055  23.161 -0.0510  0.4632  0.1859
 1746BOLB   C4A41888   5.772   4.916  22.992  0.4516  0.0124 -0.3181
 1746BOLB   C1B41889   6.727   5.103  24.291  0.0660 -0.2256  0.0221
 1746BOLB   C2B41890   6.347   5.195  24.172  0.0744  0.2187  0.0240
 1746BOLB   C3B41891   6.049   5.181  24.432  0.2718 -0.0577 -0.1022
 1746BOLB   C4B41892   6.112   5.117  24.865 -0.0075  0.0494 -0.1369
 1746BOLB   NC241893   2.909   4.518  22.827  0.1550  0.0119  0.0275
 1746BOLB   PO241894   3.245   4.721  22.949 -0.1612  0.2383 -0.2404
 1746BOLB   GL341895   3.659   4.915  22.759  0.3479 -0.0441  0.3755
 1746BOLB   GL441896   3.810   5.085  22.393  0.0505  0.1092 -0.1369
 1746BOLB   C1C41897   3.964   5.240  22.903  0.0726  0.1281 -0.5567
 1746BOLB   C2C41898   4.380   5.288  23.113 -0.2911 -0.2283 -0.0162
 1746BOLB   C3C41899   4.864   5.154  23.116 -0.0764 -0.4382 -0.1758
 1746BOLB   C4C41900   5.308   5.039  23.034 -0.0042 -0.0730 -0.2200
 1746BOLB   C1D41901   4.131   4.790  22.764  0.3104 -0.3067  0.0560
 1746BOLB   C2D41902   4.095   4.822  23.148  0.3477  0.1547  0.2638
 1746BOLB   C3D41903   3.832   4.976  23.389  0.1364 -0.1431 -0.0273
 1746BOLB   C4D41904   3.533   4.968  23.698  0.0843  0.1178  0.1146
 1747BOLB   NC141905  10.736   9.848  23.452  0.2848 -0.1653 -0.0475
 1747BOLB   PO141906  10.506  10.160  23.702 -0.4516  0.1154  0.1038
 1747BOLB   GL141907  10.394  10.611  23.576 -0.0920 -0.0140 -0.0900
 1747BOLB   GL241908  10.371  10.849  23.651  0.0422 -0.3016 -0.0297
 1747BOLB   C1A41909   9.945  10.831  23.394 -0.0776 -0.0674  0.1210
 1747BOLB   C2A41910   9.628  11.123  23.525 -0.1136 -0.0015 -0.6350
 1747BOLB   C3A41911   9.332  11.518  23.618 -0.2687  0.3175  0.1628
 1747BOLB   C4A41912   8.898  11.550  23.782  0.0279  0.0130 -0.1801
 1747BOLB   C1B41913  10.064  11.154  23.727  0.0415  0.0873 -0.0468
 1747BOLB   C2B41914   9.979  11.481  23.528 -0.2953  0.1049 -0.2709
 1747BOLB   C3B41915   9.735  11.788  23.362 -0.2354  0.1202  0.2598
 1747BOLB   C4B41916   9.500  12.106  23.384 -0.1687 -0.0668  0.4221
 1747BOLB   NC241917   6.205  12.385  23.376  0.4016  0.2207  0.2728
 1747BOLB   PO241918   6.631  12.389  23.397 -0.1217 -0.1425  0.2536
 1747BOLB   GL341919   6.986  12.308  23.722  0.1708  0.1422  0.1548
 1747BOLB   GL441920   6.801  12.188  23.939 -0.0020 -0.2408  0.1006
 1747BOLB   C1C41921   7.357  12.069  23.752  0.0413 -0.0386 -0.0993
 1747BOLB   C2C41922   7.709  11.911  23.819 -0.0799  0.1054  0.1136
 1747BOLB   C3C41923   8.126  11.631  23.828 -0.2925 -0.3064 -0.1894
 1747BOLB   C4C41924   8.550  11.612  24.004 -0.3155 -0.1162 -0.4655
 1747BOLB   C1D41925   7.137  11.939  24.217  0.2794 -0.4330 -0.1470
 1747BOLB   C2D41926   7.521  11.671  24.274  0.0243  0.0326 -0.3005
 1747BOLB   C3D41927   7.681  11.382  24.140 -0.0647 -0.1155 -0.3915
 1747BOLB   C4D41928   7.772  10.950  24.152 -0.1084  0.1314 -0.0753
 1748BOLB   NC141929  17.529   5.940  16.868 -0.4111  0.0529 -0.2747
 1748BOLB   PO141930  17.359   6.220  16.571  0.1838 -0.3132 -0.3312
 1748BOLB   GL141931  17.298   6.020  16.207  0.1648  0.1159  0.0955
 1748BOLB   GL241932  17.001   5.946  16.266  0.1506 -0.4263  0.0929
 1748BOLB   C1A41933  17.384   6.153  15.894  0.0101  0.0188 -0.1115
 1748BOLB   C2A41934  17.620   6.325  15.658 -0.2310  0.0146  0.1570
 1748BOLB   C3A41935  17.901   6.388  15.395  0.2905 -0.0335 -0.2065
 1748BOLB   C4A41936  18.129   6.784  15.257 -0.1904 -0.2178 -0.1958
 1748BOLB   C1B41937  16.941   5.966  15.822  0.2590 -0.3067 -0.1440
 1748BOLB   C2B41938  17.206   6.064  15.460  0.2492  0.0507  0.1992
 1748BOLB   C3B41939  17.469   6.378  15.117 -0.0652 -0.0566  0.0461
 1748BOLB   C4B41940  17.734   6.716  14.930  0.1321 -0.0695 -0.3222
 1748BOLB   NC241941  18.327   8.011  13.298 -0.1704 -0.0668 -0.1120
 1748BOLB   PO241942  18.564   8.188  13.478  0.1931 -0.0353 -0.1718
 1748BOLB   GL341943  18.685   7.840  13.774  0.2220 -0.3026  0.0388
 1748BOLB   GL441944  18.949   7.835  13.924 -0.0470 -0.1111 -0.1148
 1748BOLB   C1C41945  18.546   7.688  14.199  0.0691  0.1546  0.1619
 1748BOLB   C2C41946  18.515   7.628  14.631 -0.0251 -0.3226  0.0616
 1748BOLB   C3C41947  18.380   7.335  14.723  0.1795  0.1950  0.0571
 1748BOLB   C4C41948  18.180   7.205  15.078 -0.2088 -0.2811 -0.1221
 1748BOLB   C1D41949  19.022   7.953  14.287 -0.0901  0.1251  0.2383
 1748BOLB   C2D41950  18.795   8.054  14.645  0.2255 -0.1903  0.2338
 1748BOLB   C3D41951  18.588   8.102  15.034  0.0620 -0.1131  0.2216
 1748BOLB   C4D41952  18.711   8.084  15.501  0.1331 -0.2394 -0.0216
 1749BOLB   NC141953  12.938  -4.159  23.635 -0.1009 -0.0831 -0.0930
 1749BOLB   PO141954  13.353  -4.060  23.700  0.0096  0.1193 -0.0355
 1749BOLB   GL141955  13.232  -4.493  23.839 -0.0576 -0.1592  0.1927
 1749BOLB   GL241956  12.944  -4.595  23.972  0.1272  0.0885 -0.2742
 1749BOLB   C1A41957  13.484  -4.757  24.222 -0.3499 -0.2005 -0.0410
 1749BOLB   C2A41958  13.361  -5.244  24.287 -0.0012 -0.1914  0.1148
 1749BOLB   C3A41959  13.173  -5.611  24.320  0.2407  0.2307  0.0257
 1749BOLB   C4A41960  12.956  -5.731  24.668 -0.1605  0.0799  0.0964
 1749BOLB   C1B41961  13.108  -5.010  23.779 -0.0848 -0.2218  0.1068
 1749BOLB   C2B41962  12.933  -5.440  23.743 -0.1064 -0.2617  0.1459
 1749BOLB   C3B41963  12.895  -5.844  23.919 -0.2559 -0.0573  0.4097
 1749BOLB   C4B41964  12.863  -6.057  24.366 -0.0488  0.3226  0.0708
 1749BOLB   NC241965  12.673  -8.238  24.683 -0.3462  0.0272 -0.2404
 1749BOLB   PO241966  12.375  -7.921  24.649 -0.1831  0.1222  0.0831
 1749BOLB   GL341967  12.626  -7.684  24.548  0.1946 -0.2557  0.0092
 1749BOLB   GL441968  12.955  -7.724  24.634 -0.1252  0.1865  0.0260
 1749BOLB   C1C41969  12.617  -7.255  24.500 -0.0176 -0.1198  0.0937
 1749BOLB   C2C41970  12.833  -6.884  24.691 -0.0139  0.1162 -0.2457
 1749BOLB   C3C41971  13.101  -6.414  24.799  0.0329 -0.0298  0.0128
 1749BOLB   C4C41972  13.066  -5.923  24.978 -0.3073 -0.1994  0.1375
 1749BOLB   C1D41973  13.133  -7.429  24.467 -0.1605  0.2967  0.0596
 1749BOLB   C2D41974  13.290  -6.972  24.434  0.2184 -0.0652  0.3379
 1749BOLB   C3D41975  13.331  -6.503  24.271  0.1383 -0.0549  0.2296
 1749BOLB   C4D41976  13.750  -6.407  24.182 -0.2513 -0.0849 -0.0582
 1750BOLB   NC141977   5.498  11.327  30.148 -0.0398 -0.0728  0.1831
 1750BOLB   PO141978   5.721  11.231  30.540  0.2302  0.0125 -0.1431
 1750BOLB   GL141979   5.825  10.988  30.173 -0.0060  0.0762  0.3881
 1750BOLB   GL241980   5.793  10.593  30.242 -0.2260 -0.1702  0.1071
 1750BOLB   C1A41981   5.970  10.794  29.791  0.3238  0.0894  0.0461
 1750BOLB   C2A41982   6.112  11.060  29.438 -0.4649 -0.1080 -0.3522
 1750BOLB   C3A41983   6.525  11.114  29.304 -0.1755  0.1481 -0.0568
 1750BOLB   C4A41984   6.992  11.144  29.146  0.3310 -0.2688  0.1190
 1750BOLB   C1B41985   6.259  10.387  29.928  0.3338  0.2406  0.1275
 1750BOLB   C2B41986   6.625  10.457  29.741 -0.2992 -0.0286 -0.0726
 1750BOLB   C3B41987   6.860  10.757  29.472 -0.0585 -0.0338 -0.0537
 1750BOLB   C4B41988   6.963  11.203  29.631 -0.0124 -0.1451  0.0255
 1750BOLB   NC241989   6.578  12.891  29.535 -0.1926 -0.2276 -0.0189
 1750BOLB   PO241990   6.537  12.476  29.218  0.1145 -0.1620 -0.2490
 1750BOLB   GL341991   6.823  12.344  28.911  0.0309 -0.2540 -0.3030
 1750BOLB   GL441992   7.047  12.504  29.028 -0.0700  0.0666 -0.1991
 1750BOLB   C1C41993   6.936  12.040  28.640 -0.2947  0.0116 -0.1596
 1750BOLB   C2C41994   7.296  11.880  28.456  0.1184  0.2053  0.4631
 1750BOLB   C3C41995   7.523  11.622  28.573 -0.2863 -0.0628  0.1935
 1750BOLB   C4C41996   7.339  11.260  28.864  0.1783 -0.0116  0.0645
 1750BOLB   C1D41997   7.412  12.168  28.891 -0.3527  0.0500 -0.2148
 1750BOLB   C2D41998   7.804  12.065  28.701 -0.3122  0.0175 -0.0168
 1750BOLB   C3D41999   7.932  11.865  28.414 -0.0128  0.2585 -0.1116
 1750BOLB   C4D42000   8.068  11.652  28.109 -0.5351 -0.1132  0.0180
 1751BOLB   NC142001  22.705  -8.394  14.484 -0.0388 -0.1256 -0.0776
 1751BOLB   PO142002  23.089  -8.353  14.765  0.0881  0.1951 -0.0662
 1751BOLB   GL142003  22.657  -8.070  14.911  0.3111  0.1984  0.0543
 1751BOLB   GL242004  22.544  -7.937  14.701 -0.1798 -0.0744  0.1616
 1751BOLB   C1A42005  22.503  -8.066  15.293  0.0577  0.0424  0.1235
 1751BOLB   C2A42006  22.293  -7.759  15.637 -0.2896  0.1168  0.2110
 1751BOLB   C3A42007  22.247  -7.820  16.088  0.0513  0.2726  0.3584
 1751BOLB   C4A42008  22.059  -7.626  16.460 -0.2138  0.3617 -0.0699
 1751BOLB   C1B42009  22.345  -7.578  14.921  0.0417 -0.0099  0.0781
 1751BOLB   C2B42010  22.292  -7.132  15.020 -0.2082 -0.0971 -0.0585
 1751BOLB   C3B42011  21.995  -6.818  15.072  0.2326  0.3402  0.1869
 1751BOLB   C4B42012  21.638  -6.496  15.063  0.1116  0.1834  0.2142
 1751BOLB   NC242013  22.416  -9.544  18.119  0.0107  0.0507 -0.2569
 1751BOLB   PO242014  22.337  -9.359  17.641 -0.3462  0.1179  0.0628
 1751BOLB   GL342015  22.251  -8.941  17.786 -0.1458 -0.2688  0.0942
 1751BOLB   GL442016  22.349  -8.834  18.184 -0.2139  0.0295  0.2039
 1751BOLB   C1C42017  21.969  -8.568  17.561  0.2741 -0.0666  0.0304
 1751BOLB   C2C42018  21.953  -8.209  17.246 -0.1819 -0.3310  0.1328
 1751BOLB   C3C42019  21.824  -7.849  17.178  0.0284  0.2900  0.2599
 1751BOLB   C4C42020  21.935  -7.569  16.838  0.1394  0.1917  0.0524
 1751BOLB   C1D42021  21.823  -8.744  18.119  0.0290  0.0528 -0.1635
 1751BOLB   C2D42022  21.518  -8.740  17.882  0.2367 -0.0256  0.0049
 1751BOLB   C3D42023  21.080  -8.832  17.934  0.0785  0.3013  0.1408
 1751BOLB   C4D42024  20.793  -8.566  18.023 -0.2233 -0.3529 -0.2865
 1752BOLB   NC142025   9.335   1.468  19.769  0.0094 -0.1162 -0.2318
 1752BOLB   PO142026   8.970   1.325  19.771  0.2071  0.3553  0.0836
 1752BOLB   GL142027   8.501   1.275  19.633  0.0031 -0.0642 -0.0052
 1752BOLB   GL242028   8.281   1.332  19.822 -0.1888  0.0093 -0.0847
 1752BOLB   C1A42029   8.251   1.310  19.184  0.1520 -0.0735  0.1709
 1752BOLB   C2A42030   7.935   1.395  19.027 -0.2126 -0.4437 -0.0237
 1752BOLB   C3A42031   7.690   1.480  18.723 -0.2634  0.2731  0.3611
 1752BOLB   C4A42032   7.692   1.244  18.339 -0.2510  0.1328 -0.3063
 1752BOLB   C1B42033   7.983   1.309  19.559  0.1648  0.2520  0.3681
 1752BOLB   C2B42034   7.486   1.125  19.305  0.4742  0.1503 -0.0437
 1752BOLB   C3B42035   7.210   0.983  19.661  0.2967  0.3952 -0.5214
 1752BOLB   C4B42036   7.194   0.564  19.707 -0.4880  0.0492 -0.0142
 1752BOLB   NC242037   7.027   1.066  16.065  0.3021  0.1801  0.3554
 1752BOLB   PO242038   7.065   0.631  15.959 -0.0361  0.0026  0.2079
 1752BOLB   GL342039   7.395   0.699  16.219 -0.1372  0.0419 -0.0789
 1752BOLB   GL442040   7.572   0.728  15.940 -0.0899  0.1045 -0.0071
 1752BOLB   C1C42041   7.592   0.844  16.599  0.1158 -0.0573  0.2484
 1752BOLB   C2C42042   7.665   0.905  17.025 -0.0571 -0.0613 -0.0329
 1752BOLB   C3C42043   7.855   1.057  17.434  0.0765  0.0950 -0.1488
 1752BOLB   C4C42044   7.809   1.019  17.885 -0.1421 -0.0980 -0.1630
 1752BOLB   C1D42045   7.946   0.738  15.888  0.3386  0.1175  0.1537
 1752BOLB   C2D42046   8.198   0.774  16.163 -0.4083  0.0959  0.1783
 1752BOLB   C3D42047   8.516   0.890  16.388  0.0866 -0.0959 -0.0630
 1752BOLB   C4D42048   8.906   1.244  16.371  0.2312  0.1181 -0.3026
 1753BOLB   NC142049  23.840   5.399  22.410 -0.1232  0.0688 -0.0926
 1753BOLB   PO142050  24.098   5.268  22.741 -0.0488 -0.3670 -0.0457
 1753BOLB   GL142051  24.350   5.651  22.610  0.0498  0.1280  0.0913
 1753BOLB   GL242052  24.149   5.861  22.419  0.4222  0.3041  0.0268
 1753BOLB   C1A42053  24.687   5.848  22.577 -0.2174  0.3049 -0.0259
 1753BOLB   C2A42054  25.106   5.978  22.448  0.0384  0.2819  0.0260
 1753BOLB   C3A42055  25.449   5.926  22.708 -0.1821 -0.0195  0.2454
 1753BOLB   C4A42056  25.835   5.986  22.858  0.1976 -0.1362  0.2277
 1753BOLB   C1B42057  24.382   6.162  22.151  0.1712  0.0458  0.4769
 1753BOLB   C2B42058  24.733   6.443  22.209  0.5508 -0.0382  0.0007
 1753BOLB   C3B42059  25.174   6.666  22.032 -0.0193 -0.0216  0.1736
 1753BOLB   C4B42060  25.579   6.684  22.095 -0.0773 -0.0237 -0.1259
 1753BOLB   NC242061  28.056   6.560  22.829  0.1713  0.1967 -0.1889
 1753BOLB   PO242062  27.921   6.936  22.917 -0.0147 -0.0737 -0.0003
 1753BOLB   GL342063  27.587   6.697  22.824  0.0931  0.1283 -0.0956
 1753BOLB   GL442064  27.437   6.670  22.619  0.0619  0.1002 -0.0947
 1753BOLB   C1C42065  27.265   6.610  23.191  0.4614 -0.1527 -0.1052
 1753BOLB   C2C42066  26.861   6.440  23.273  0.1955  0.0719  0.4604
 1753BOLB   C3C42067  26.565   6.272  23.179 -0.1729  0.4517 -0.0962
 1753BOLB   C4C42068  26.115   6.169  22.999  0.4251  0.1693 -0.1731
 1753BOLB   C1D42069  27.098   6.441  22.738  0.0824  0.0016 -0.1626
 1753BOLB   C2D42070  26.974   6.029  22.605  0.1647 -0.0175 -0.5115
 1753BOLB   C3D42071  26.878   5.562  22.647 -0.4317  0.0409 -0.0434
 1753BOLB   C4D42072  26.553   5.197  22.930  0.6253 -0.0677  0.1654
 1754BOLB   NC142073  13.213  11.433  16.473 -0.1156  0.2951  0.3182
 1754BOLB   PO142074  12.846  11.640  16.578 -0.0750  0.1351  0.2438
 1754BOLB   GL142075  12.764  11.357  16.868 -0.2297  0.1184  0.0058
 1754BOLB   GL242076  12.417  11.327  17.012 -0.2318 -0.0103 -0.0118
 1754BOLB   C1A42077  12.921  11.104  17.276 -0.0194  0.0544 -0.1599
 1754BOLB   C2A42078  12.855  10.750  17.480 -0.0607  0.2905 -0.0741
 1754BOLB   C3A42079  13.179  10.510  17.776  0.0450 -0.0930  0.0953
 1754BOLB   C4A42080  13.698  10.488  17.821 -0.2767 -0.0910  0.0268
 1754BOLB   C1B42081  12.496  10.897  17.011 -0.0722  0.2804 -0.0748
 1754BOLB   C2B42082  12.343  10.564  17.339 -0.1605 -0.1567  0.0874
 1754BOLB   C3B42083  12.368  10.074  17.508  0.1464  0.0287 -0.0220
 1754BOLB   C4B42084  12.616   9.789  17.803 -0.0319  0.2061  0.2771
 1754BOLB   NC242085  15.087  12.430  16.083  0.0905  0.2407 -0.1975
 1754BOLB   PO242086  14.943  11.930  16.219 -0.0300  0.2569 -0.1109
 1754BOLB   GL342087  14.673  11.654  16.418 -0.0310 -0.1971 -0.2007
 1754BOLB   GL442088  14.625  11.754  16.700  0.1029 -0.0630 -0.4751
 1754BOLB   C1C42089  14.464  11.361  16.525 -0.3613 -0.0799  0.1996
 1754BOLB   C2C42090  14.238  11.230  16.853 -0.1363 -0.4289 -0.0645
 1754BOLB   C3C42091  13.993  10.875  17.041  0.0986  0.2297 -0.0236
 1754BOLB   C4C42092  13.914  10.647  17.401  0.3044 -0.1417  0.1731
 1754BOLB   C1D42093  14.708  11.438  17.092  0.0728  0.0098  0.0576
 1754BOLB   C2D42094  14.795  10.985  17.040  0.0543  0.1346  0.1128
 1754BOLB   C3D42095  14.518  10.701  17.217  0.0098 -0.3463 -0.0448
 1754BOLB   C4D42096  14.234  10.352  17.211  0.2175 -0.3123  0.3778
 1755BOLB   NC142097  19.756  10.916  23.836  0.1523  0.0930 -0.1297
 1755BOLB   PO142098  19.851  10.957  23.469  0.1408 -0.2718  0.6724
 1755BOLB   GL142099  19.931  11.502  23.479 -0.0828  0.6323 -0.1693
 1755BOLB   GL242100  20.108  11.666  23.761  0.0814 -0.0083  0.5214
 1755BOLB   C1A42101  19.939  12.028  23.403  0.0255 -0.1488  0.2242
 1755BOLB   C2A42102  19.777  12.352  23.102  0.3620 -0.0927 -0.0201
 1755BOLB   C3A42103  19.756  12.789  22.880  0.0541  0.2741 -0.4479
 1755BOLB   C4A42104  19.546  13.151  22.875 -0.3766  0.3487 -0.1801
 1755BOLB   C1B42105  20.085  12.175  23.855  0.2129  0.0312  0.0402
 1755BOLB   C2B42106  19.995  12.624  24.005 -0.0734  0.1153 -0.0020
 1755BOLB   C3B42107  19.734  13.004  23.921 -0.1640 -0.0586  0.4206
 1755BOLB   C4B42108  19.505  13.417  23.903 -0.0926  0.0352 -0.0998
 1755BOLB   NC242109  20.642  15.393  23.429 -0.2374 -0.3410  0.1482
 1755BOLB   PO242110  20.748  15.230  23.038 -0.1890 -0.1359 -0.1082
 1755BOLB   GL342111  20.450  14.937  23.143 -0.1521 -0.2445  0.3554
 1755BOLB   GL442112  20.603  14.678  23.354 -0.0374 -0.0363 -0.2774
 1755BOLB   C1C42113  20.271  14.480  23.125  0.1124 -0.0142 -0.0111
 1755BOLB   C2C42114  19.983  14.274  23.249  0.0198  0.0553 -0.1517
 1755BOLB   C3C42115  19.652  13.972  23.117 -0.2069  0.1144  0.3799
 1755BOLB   C4C42116  19.497  13.625  23.054  0.0432 -0.1810 -0.1345
 1755BOLB   C1D42117  20.412  14.232  23.592 -0.0198  0.0362 -0.0258
 1755BOLB   C2D42118  20.101  13.877  23.660  0.0935  0.0318  0.3086
 1755BOLB   C3D42119  19.683  13.650  23.539  0.3262  0.0439 -0.0022
 1755BOLB   C4D42120  19.282  13.536  23.472  0.1306 -0.1266  0.2296
 1756BOLB   NC142121  15.206   6.120  33.820 -0.0894 -0.0045 -0.0316
 1756BOLB   PO142122  15.566   6.328  33.914  0.1153  0.2394 -0.1467
 1756BOLB   GL142123  15.517   6.454  34.323 -0.0257  0.1540 -0.0513
 1756BOLB   GL242124  15.740   6.589  34.469 -0.0838  0.1775 -0.1473
 1756BOLB   C1A42125  15.353   6.332  34.737 -0.0208  0.1605 -0.0229
 1756BOLB   C2A42126  15.171   6.429  35.149  0.2929 -0.1872  0.0662
 1756BOLB   C3A42127  14.910   6.644  35.475  0.0249  0.0201  0.0455
 1756BOLB   C4A42128  14.570   6.957  35.712 -0.2838  0.0407  0.1773
 1756BOLB   C1B42129  16.002   6.873  34.677  0.1051 -0.1138 -0.3505
 1756BOLB   C2B42130  16.254   6.841  35.137 -0.2468  0.0676 -0.2134
 1756BOLB   C3B42131  16.069   6.712  35.417  0.2794 -0.1960 -0.4059
 1756BOLB   C4B42132  16.186   6.696  35.911  0.0479 -0.1241  0.2003
 1756BOLB   NC242133  14.070   8.372  37.331 -0.0875  0.0795  0.0713
 1756BOLB   PO242134  13.637   8.275  37.611  0.0412 -0.3553 -0.1562
 1756BOLB   GL342135  13.690   8.043  37.213  0.0866  0.0860 -0.1696
 1756BOLB   GL442136  13.601   7.696  37.196 -0.1083  0.0587 -0.4034
 1756BOLB   C1C42137  13.827   7.861  36.782 -0.3140 -0.2030  0.0542
 1756BOLB   C2C42138  14.221   7.819  36.637  0.4131 -0.2748 -0.2685
 1756BOLB   C3C42139  14.355   7.664  36.321 -0.0403  0.0991  0.1667
 1756BOLB   C4C42140  14.438   7.352  36.047  0.1410  0.0656  0.1326
 1756BOLB   C1D42141  13.609   7.419  36.877  0.1404  0.1416  0.1985
 1756BOLB   C2D42142  13.387   7.144  36.597  0.2192  0.1377 -0.0076
 1756BOLB   C3D42143  13.233   7.188  36.175 -0.0293 -0.0087  0.0982
 1756BOLB   C4D42144  13.453   7.310  35.850  0.1049  0.0563  0.2384
 1757BOLB   NC142145  10.197  -1.008  20.049 -0.0520 -0.1367 -0.4010
 1757BOLB   PO142146   9.992  -0.671  20.237 -0.0814 -0.0768 -0.0305
 1757BOLB   GL142147   9.539  -0.767  20.143  0.1229  0.1502  0.1329
 1757BOLB   GL242148   9.327  -0.587  19.986  0.0656  0.1246 -0.0654
 1757BOLB   C1A42149   9.313  -1.124  20.023 -0.1996  0.0871  0.0960
 1757BOLB   C2A42150   8.875  -1.303  19.865 -0.1945  0.1324 -0.1163
 1757BOLB   C3A42151   8.411  -1.444  19.786 -0.0403  0.1534 -0.1867
 1757BOLB   C4A42152   8.037  -1.527  19.685 -0.2218  0.2712 -0.0610
 1757BOLB   C1B42153   9.054  -0.844  19.712  0.0416 -0.1529  0.1630
 1757BOLB   C2B42154   8.667  -0.918  19.610 -0.0650 -0.1673  0.2860
 1757BOLB   C3B42155   8.145  -0.999  19.740 -0.2545  0.2792 -0.0556
 1757BOLB   C4B42156   7.712  -1.241  19.988 -0.0547 -0.0236  0.3976
 1757BOLB   NC242157   5.748  -2.238  18.321 -0.1101 -0.0896  0.0365
 1757BOLB   PO242158   6.049  -2.289  18.660 -0.4985  0.0031  0.4399
 1757BOLB   GL342159   6.392  -2.338  18.971 -0.0218 -0.2638  0.0411
 1757BOLB   GL442160   6.495  -1.979  18.853 -0.2021 -0.2363  0.1348
 1757BOLB   C1C42161   6.522  -2.096  19.338  0.1813 -0.0124 -0.2382
 1757BOLB   C2C42162   6.864  -1.792  19.438 -0.2663 -0.0353 -0.0484
 1757BOLB   C3C42163   7.242  -1.698  19.558  0.0781 -0.0133  0.0209
 1757BOLB   C4C42164   7.670  -1.707  19.836  0.4015  0.2063 -0.0736
 1757BOLB   C1D42165   6.926  -2.003  19.002 -0.0734 -0.1342  0.1844
 1757BOLB   C2D42166   7.379  -2.016  19.112 -0.1572  0.4165 -0.0185
 1757BOLB   C3D42167   7.769  -1.763  19.329 -0.1684 -0.2145  0.1891
 1757BOLB   C4D42168   8.220  -1.642  19.244 -0.1916 -0.1851  0.2102
 1758BOLB   NC142169  11.345  -3.831  23.377 -0.0960 -0.0163 -0.4804
 1758BOLB   PO142170  11.593  -3.876  22.911 -0.1246  0.2319  0.1802
 1758BOLB   GL142171  11.539  -4.191  22.623  0.0690  0.1729  0.0932
 1758BOLB   GL242172  11.526  -4.539  22.771  0.0102  0.0225 -0.0377
 1758BOLB   C1A42173  11.535  -4.354  22.165  0.3095 -0.0156 -0.0955
 1758BOLB   C2A42174  11.198  -4.432  21.842 -0.1343  0.2660  0.2345
 1758BOLB   C3A42175  11.162  -4.814  21.686 -0.1273 -0.0754  0.1524
 1758BOLB   C4A42176  10.838  -5.085  21.513 -0.0634 -0.0048  0.1119
 1758BOLB   C1B42177  11.627  -4.855  22.928 -0.0213  0.2534  0.2627
 1758BOLB   C2B42178  11.708  -5.212  22.667 -0.2591  0.0785 -0.1400
 1758BOLB   C3B42179  11.800  -5.283  22.255 -0.1813  0.0532  0.0546
 1758BOLB   C4B42180  11.914  -5.626  21.989 -0.1913 -0.0561  0.0873
 1758BOLB   NC242181  10.480  -7.417  20.498 -0.0126 -0.4054  0.1790
 1758BOLB   PO242182  10.059  -7.209  20.494  0.1976  0.5691  0.2203
 1758BOLB   GL342183  10.075  -6.783  20.526  0.0763 -0.2145 -0.0955
 1758BOLB   GL442184   9.737  -6.635  20.407 -0.1835 -0.1162  0.0842
 1758BOLB   C1C42185  10.254  -6.435  20.699  0.1284 -0.1964  0.1402
 1758BOLB   C2C42186  10.421  -6.085  20.786 -0.2102 -0.2877  0.0372
 1758BOLB   C3C42187  10.535  -5.650  20.923 -0.1787 -0.2591  0.3274
 1758BOLB   C4C42188  10.477  -5.302  21.291 -0.1380  0.1277  0.0276
 1758BOLB   C1D42189   9.814  -6.192  20.502  0.2288 -0.0997 -0.3868
 1758BOLB   C2D42190   9.809  -5.748  20.634 -0.3757  0.0217 -0.1708
 1758BOLB   C3D42191   9.992  -5.484  20.912 -0.0264 -0.0987  0.0736
 1758BOLB   C4D42192  10.095  -5.127  21.032 -0.0405  0.1206 -0.2179
 1759BOLB   NC142193  16.060  11.327  29.175 -0.2043  0.1670  0.0459
 1759BOLB   PO142194  16.215  11.810  29.242 -0.1046  0.0023 -0.0802
 1759BOLB   GL142195  16.312  12.223  29.438 -0.2639  0.2483 -0.1613
 1759BOLB   GL242196  16.608  12.293  29.442  0.2891  0.2482 -0.1867
 1759BOLB   C1A42197  16.438  12.681  29.288  0.0217 -0.0581  0.0599
 1759BOLB   C2A42198  16.409  13.071  29.055 -0.1603 -0.1518 -0.0534
 1759BOLB   C3A42199  16.657  13.399  29.138  0.0128 -0.3135  0.2378
 1759BOLB   C4A42200  16.667  13.724  29.354 -0.0886 -0.1910 -0.0592
 1759BOLB   C1B42201  16.856  12.640  29.552 -0.0150  0.1127 -0.0729
 1759BOLB   C2B42202  17.063  12.969  29.536 -0.3956  0.0712 -0.0622
 1759BOLB   C3B42203  16.995  13.382  29.639  0.0578  0.2010 -0.2537
 1759BOLB   C4B42204  16.859  13.760  29.879 -0.0099  0.0990  0.0020
 1759BOLB   NC242205  17.687  15.712  30.546  0.1265  0.0311  0.1369
 1759BOLB   PO242206  17.263  15.543  30.668 -0.3660 -0.0576  0.3308
 1759BOLB   GL342207  17.162  15.353  30.351  0.0815 -0.1327 -0.0196
 1759BOLB   GL442208  16.986  15.038  30.473 -0.0785 -0.1263 -0.1123
 1759BOLB   C1C42209  17.114  15.040  29.962  0.0490  0.2049  0.1275
 1759BOLB   C2C42210  17.204  14.619  29.889  0.1519 -0.0823 -0.0633
 1759BOLB   C3C42211  17.221  14.244  29.578 -0.1439  0.1474 -0.2475
 1759BOLB   C4C42212  16.937  13.975  29.446  0.3100 -0.0547 -0.0390
 1759BOLB   C1D42213  16.779  14.725  30.275  0.1877 -0.1812  0.2334
 1759BOLB   C2D42214  16.402  14.757  30.054 -0.1996  0.1866 -0.0122
 1759BOLB   C3D42215  16.299  14.397  29.725  0.2491  0.2793 -0.0390
 1759BOLB   C4D42216  16.431  13.930  29.696 -0.0429 -0.0062  0.2652
 1760BOLB   NC142217  13.470   3.717  33.236  0.0356 -0.0002  0.0687
 1760BOLB   PO142218  13.463   3.341  33.399  0.0191 -0.1858  0.0676
 1760BOLB   GL142219  13.600   3.218  33.728  0.1475  0.0273 -0.2081
 1760BOLB   GL242220  13.898   3.298  33.734  0.3352  0.4031  0.2091
 1760BOLB   C1A42221  13.630   3.018  34.067 -0.1771 -0.1000 -0.3528
 1760BOLB   C2A42222  13.691   3.068  34.587 -0.0304 -0.2508 -0.1851
 1760BOLB   C3A42223  13.436   3.222  34.907  0.0898  0.4777 -0.0156
 1760BOLB   C4A42224  13.387   3.052  35.295 -0.0463  0.0345  0.1541
 1760BOLB   C1B42225  13.754   3.458  34.177 -0.2303 -0.1348  0.2980
 1760BOLB   C2B42226  13.781   3.508  34.602  0.0957 -0.0365 -0.1918
 1760BOLB   C3B42227  13.874   3.502  34.975 -0.2994  0.1956  0.2189
 1760BOLB   C4B42228  14.149   3.572  35.334  0.3566 -0.1840  0.1208
 1760BOLB   NC242229  12.969   1.897  37.253  0.1401  0.1052 -0.0579
 1760BOLB   PO242230  12.902   2.374  37.349  0.1758 -0.1385  0.0545
 1760BOLB   GL342231  13.161   2.272  37.010  0.0570  0.0053  0.1001
 1760BOLB   GL442232  13.492   2.233  37.056  0.2047  0.1565  0.0957
 1760BOLB   C1C42233  13.115   2.079  36.585  0.0202 -0.0443  0.0324
 1760BOLB   C2C42234  13.071   2.236  36.181  0.0377  0.1527  0.0580
 1760BOLB   C3C42235  13.318   2.570  35.960 -0.2080  0.0868  0.0627
 1760BOLB   C4C42236  13.268   2.668  35.477  0.3286 -0.3875  0.2354
 1760BOLB   C1D42237  13.538   2.273  36.577  0.0250 -0.0948  0.0226
 1760BOLB   C2D42238  13.752   2.518  36.290 -0.2688  0.3548  0.2589
 1760BOLB   C3D42239  13.758   2.899  36.103 -0.2781  0.1389  0.2792
 1760BOLB   C4D42240  13.705   2.919  35.640  0.1729  0.1146  0.1914
 1761BOLB   NC142241  22.014   7.657  29.818 -0.4162 -0.1116  0.1974
 1761BOLB   PO142242  22.443   7.751  30.062 -0.1365  0.1640 -0.1272
 1761BOLB   GL142243  22.809   7.956  30.305 -0.3528  0.0678  0.1567
 1761BOLB   GL242244  23.008   7.598  30.370  0.3924  0.3139  0.1098
 1761BOLB   C1A42245  22.916   8.018  30.726  0.1433 -0.0236  0.1126
 1761BOLB   C2A42246  23.320   8.090  31.005  0.6018 -0.0314 -0.0115
 1761BOLB   C3A42247  23.601   8.464  30.982  0.1239 -0.0262  0.0341
 1761BOLB   C4A42248  24.107   8.667  30.899 -0.0922 -0.0914 -0.1359
 1761BOLB   C1B42249  23.298   7.636  30.731 -0.2314 -0.1837  0.1763
 1761BOLB   C2B42250  23.582   7.660  31.031  0.1734  0.2447  0.2910
 1761BOLB   C3B42251  23.861   7.363  31.211  0.1009 -0.2831  0.0170
 1761BOLB   C4B42252  24.140   7.531  31.529  0.2759 -0.0038 -0.3699
 1761BOLB   NC242253  26.170   9.170  32.340 -0.0189  0.1490  0.0309
 1761BOLB   PO242254  26.234   9.248  31.879 -0.2464 -0.1281 -0.0457
 1761BOLB   GL342255  25.942   9.074  31.636 -0.2846  0.0213 -0.1340
 1761BOLB   GL442256  26.175   8.873  31.512 -0.1718  0.0402 -0.0853
 1761BOLB   C1C42257  25.536   8.857  31.771  0.0555 -0.0908  0.1881
 1761BOLB   C2C42258  25.074   8.920  31.699  0.0283 -0.1875 -0.0160
 1761BOLB   C3C42259  24.829   8.811  31.372  0.2612 -0.0462 -0.0390
 1761BOLB   C4C42260  24.494   8.702  30.971 -0.2851 -0.1742  0.2012
 1761BOLB   C1D42261  26.286   8.823  31.024 -0.0978  0.0931 -0.3183
 1761BOLB   C2D42262  26.321   9.133  30.587  0.0469 -0.2007 -0.1781
 1761BOLB   C3D42263  26.487   9.391  30.388 -0.2542  0.0572  0.1292
 1761BOLB   C4D42264  26.528   9.744  30.161 -0.1303  0.3083  0.3692
 1762BOLB   NC142265   7.870   6.984  26.895  0.1679 -0.1596  0.2311
 1762BOLB   PO142266   7.780   6.604  26.680  0.0119  0.1929  0.3021
 1762BOLB   GL142267   7.356   6.578  26.678  0.0576 -0.2667 -0.3722
 1762BOLB   GL242268   7.287   6.414  26.936  0.1907  0.0469  0.2622
 1762BOLB   C1A42269   6.956   6.792  26.610  0.3644 -0.2177  0.5923
 1762BOLB   C2A42270   6.569   7.041  26.581 -0.4087 -0.0497  0.0616
 1762BOLB   C3A42271   6.277   6.936  26.741 -0.1134  0.2710  0.0065
 1762BOLB   C4A42272   5.863   7.071  27.030  0.0110  0.3685 -0.1326
 1762BOLB   C1B42273   6.748   6.606  26.968  0.1922 -0.1169 -0.0843
 1762BOLB   C2B42274   6.349   6.613  27.094  0.0680  0.0216 -0.0993
 1762BOLB   C3B42275   5.911   6.604  27.238 -0.2895  0.2047  0.0107
 1762BOLB   C4B42276   5.491   6.625  27.514  0.1416 -0.2978 -0.2012
 1762BOLB   NC242277   3.535   6.948  28.314  0.1378 -0.0547 -0.0683
 1762BOLB   PO242278   3.605   7.043  27.829  0.1214 -0.0188 -0.0507
 1762BOLB   GL342279   3.939   7.245  27.689  0.3244 -0.2975 -0.0885
 1762BOLB   GL442280   4.057   7.422  27.831  0.2316  0.1738 -0.2210
 1762BOLB   C1C42281   4.353   7.132  27.569  0.0499 -0.1095  0.3202
 1762BOLB   C2C42282   4.743   7.085  27.500  0.0951 -0.0462 -0.2887
 1762BOLB   C3C42283   5.153   7.022  27.322 -0.2332  0.3784 -0.0236
 1762BOLB   C4C42284   5.463   6.973  27.131  0.2465 -0.0856 -0.2160
 1762BOLB   C1D42285   4.421   7.630  27.886 -0.0295 -0.0575 -0.1375
 1762BOLB   C2D42286   4.753   7.638  27.609  0.0680 -0.0083 -0.0006
 1762BOLB   C3D42287   4.953   7.462  27.237 -0.0026 -0.1275 -0.0743
 1762BOLB   C4D42288   4.781   7.608  26.718 -0.0394  0.1042  0.1258
 1763BOLB   NC142289   8.614   5.425  35.446  0.2273  0.4449  0.1329
 1763BOLB   PO142290   8.878   5.111  35.696 -0.0724 -0.0117 -0.1866
 1763BOLB   GL142291   9.283   5.275  35.435 -0.1983 -0.2724  0.2758
 1763BOLB   GL242292   9.615   5.148  35.426  0.1087 -0.1740  0.1756
 1763BOLB   C1A42293   9.383   5.247  34.975 -0.0100  0.2490  0.0891
 1763BOLB   C2A42294   9.158   5.135  34.513  0.1637  0.1793  0.3789
 1763BOLB   C3A42295   9.167   4.892  34.093 -0.2270 -0.0795 -0.0878
 1763BOLB   C4A42296   8.911   5.041  33.754 -0.2381 -0.0979 -0.1475
 1763BOLB   C1B42297   9.908   5.087  35.132  0.2789  0.0096  0.2550
 1763BOLB   C2B42298   9.801   5.121  34.713  0.1122 -0.3644 -0.2365
 1763BOLB   C3B42299   9.598   4.933  34.345 -0.2629  0.3931  0.0210
 1763BOLB   C4B42300   9.562   4.630  34.097 -0.2330 -0.0518  0.0401
 1763BOLB   NC242301   6.727   4.065  34.422 -0.2353 -0.0722 -0.1144
 1763BOLB   PO242302   6.583   4.552  34.265 -0.1320  0.0960  0.0062
 1763BOLB   GL342303   7.052   4.490  34.081  0.2299 -0.2744  0.2738
 1763BOLB   GL442304   6.889   4.287  33.933 -0.0331 -0.2900  0.0580
 1763BOLB   C1C42305   7.475   4.506  33.928  0.1293  0.2895 -0.0756
 1763BOLB   C2C42306   7.790   4.542  33.669 -0.0870  0.1393  0.2615
 1763BOLB   C3C42307   8.311   4.639  33.619 -0.0333 -0.1184  0.0708
 1763BOLB   C4C42308   8.612   4.859  33.483  0.1075 -0.0706 -0.1532
 1763BOLB   C1D42309   7.005   4.139  33.518 -0.1901 -0.0933 -0.0109
 1763BOLB   C2D42310   7.301   4.175  33.082 -0.0268  0.1833  0.4336
 1763BOLB   C3D42311   7.620   3.946  33.046  0.1350 -0.0810 -0.0380
 1763BOLB   C4D42312   7.591   3.446  33.043 -0.1420 -0.1936 -0.0628
 1764BOLB   NC142313  12.250   1.006  17.270  0.3498 -0.0087  0.1295
 1764BOLB   PO142314  11.822   1.125  17.379  0.0080  0.0325 -0.1326
 1764BOLB   GL142315  11.525   1.433  17.041  0.1810 -0.1373 -0.1537
 1764BOLB   GL242316  11.499   1.315  16.626 -0.1336 -0.3591  0.2122
 1764BOLB   C1A42317  11.234   1.687  16.853 -0.4515  0.3659 -0.1322
 1764BOLB   C2A42318  11.053   2.037  16.557 -0.0878  0.2103 -0.1407
 1764BOLB   C3A42319  10.698   2.098  16.302  0.2432 -0.0773  0.3510
 1764BOLB   C4A42320  10.709   1.721  16.098 -0.0920 -0.2017  0.2633
 1764BOLB   C1B42321  11.285   1.108  16.265  0.2601 -0.0460  0.2354
 1764BOLB   C2B42322  10.894   1.178  15.998 -0.0625 -0.0261  0.1902
 1764BOLB   C3B42323  11.100   1.638  15.843  0.0297  0.0137 -0.1713
 1764BOLB   C4B42324  11.115   2.006  15.998 -0.1572  0.0365  0.2697
 1764BOLB   NC242325   9.120   1.197  14.311  0.0169  0.0780 -0.0065
 1764BOLB   PO242326   9.309   0.855  14.157 -0.1584  0.3378  0.0327
 1764BOLB   GL342327   9.481   0.951  14.594  0.0440  0.0363  0.1503
 1764BOLB   GL442328   9.387   0.678  14.766 -0.0016 -0.0343  0.0675
 1764BOLB   C1C42329   9.833   0.980  14.781  0.2229  0.0975 -0.1499
 1764BOLB   C2C42330   9.992   1.182  15.171 -0.2534  0.1341  0.2919
 1764BOLB   C3C42331  10.222   1.353  15.469  0.0960 -0.1474 -0.0970
 1764BOLB   C4C42332  10.475   1.404  15.809  0.0724 -0.0528 -0.0643
 1764BOLB   C1D42333   9.553   0.758  15.267  0.1588 -0.0099 -0.0151
 1764BOLB   C2D42334   9.787   0.882  15.535  0.0239 -0.0294 -0.2595
 1764BOLB   C3D42335   9.674   0.652  15.928  0.1732 -0.1091 -0.1675
 1764BOLB   C4D42336   9.725   0.422  16.315 -0.1766  0.0874 -0.0928
 1765BOLB   NC142337   7.721   4.641  28.234  0.0396 -0.3622  0.0492
 1765BOLB   PO142338   7.857   4.697  28.644 -0.0484  0.0525 -0.1254
 1765BOLB   GL142339   7.376   4.719  28.678  0.1129  0.1668  0.0402
 1765BOLB   GL242340   7.408   4.416  28.607 -0.0090  0.0798  0.0331
 1765BOLB   C1A42341   6.990   4.731  28.767 -0.0234 -0.1576 -0.3211
 1765BOLB   C2A42342   6.571   4.703  28.587  0.0685 -0.0323 -0.2400
 1765BOLB   C3A42343   6.288   4.405  28.358  0.1363 -0.1949 -0.2424
 1765BOLB   C4A42344   6.044   4.330  28.602  0.1604 -0.0484  0.0706
 1765BOLB   C1B42345   6.993   4.209  28.654  0.1553  0.2283 -0.1283
 1765BOLB   C2B42346   6.602   4.152  28.628 -0.0157  0.0324 -0.0875
 1765BOLB   C3B42347   6.331   3.955  28.923 -0.3132  0.4463  0.0448
 1765BOLB   C4B42348   5.939   3.871  28.888 -0.0377 -0.1321  0.2221
 1765BOLB   NC242349   3.775   4.443  29.135  0.2557 -0.4710 -0.1194
 1765BOLB   PO242350   3.815   4.704  29.499  0.3093 -0.1303  0.1909
 1765BOLB   GL342351   4.198   4.580  29.435  0.1914  0.0516  0.1217
 1765BOLB   GL442352   4.357   4.763  29.608 -0.0837 -0.1396 -0.3422
 1765BOLB   C1C42353   4.580   4.452  29.227 -0.2834 -0.1466 -0.1122
 1765BOLB   C2C42354   4.964   4.270  29.101  0.1047  0.0645 -0.0708
 1765BOLB   C3C42355   5.447   4.314  29.148  0.3160  0.3936  0.1876
 1765BOLB   C4C42356   5.818   4.314  28.928  0.0655 -0.1908 -0.3646
 1765BOLB   C1D42357   4.727   4.634  29.689 -0.0955 -0.0342  0.1743
 1765BOLB   C2D42358   5.103   4.879  29.804  0.1761  0.0421 -0.0264
 1765BOLB   C3D42359   5.442   4.896  30.088  0.1040  0.2716 -0.1289
 1765BOLB   C4D42360   5.752   4.966  29.964  0.0365  0.0100  0.0106
 1766BOLB   NC142361  15.104  -1.808  30.320 -0.2956  0.2714  0.0748
 1766BOLB   PO142362  14.844  -2.178  30.204  0.3136  0.3546  0.3375
 1766BOLB   GL142363  14.554  -2.364  30.423 -0.1565 -0.4603  0.2191
 1766BOLB   GL242364  14.645  -2.662  30.531  0.0788 -0.1872 -0.2045
 1766BOLB   C1A42365  14.451  -2.406  30.918  0.1243  0.2788  0.0065
 1766BOLB   C2A42366  14.497  -2.788  31.110 -0.2507 -0.0173  0.0205
 1766BOLB   C3A42367  14.254  -3.038  31.440 -0.2588 -0.0681  0.0608
 1766BOLB   C4A42368  13.995  -3.297  31.703  0.1115  0.0599  0.0435
 1766BOLB   C1B42369  14.711  -3.072  30.680  0.0280 -0.1771  0.0784
 1766BOLB   C2B42370  14.573  -3.336  30.866  0.0469  0.3607 -0.2905
 1766BOLB   C3B42371  14.234  -3.538  30.987 -0.0666  0.0260  0.0606
 1766BOLB   C4B42372  13.805  -3.707  31.116  0.2239  0.2414 -0.0738
 1766BOLB   NC242373  12.773  -5.514  32.402 -0.1652  0.1544  0.2715
 1766BOLB   PO242374  12.948  -5.283  32.690  0.0325 -0.0548 -0.1035
 1766BOLB   GL342375  12.994  -4.992  32.351  0.2317  0.1952  0.1617
 1766BOLB   GL442376  13.444  -4.962  32.403  0.2901  0.0681  0.0121
 1766BOLB   C1C42377  12.888  -4.554  32.339 -0.1266 -0.3856  0.0107
 1766BOLB   C2C42378  13.085  -4.166  32.184  0.5252 -0.0574 -0.0452
 1766BOLB   C3C42379  13.392  -3.862  32.016 -0.0316  0.2565 -0.0871
 1766BOLB   C4C42380  13.689  -3.586  31.768 -0.0830 -0.0162  0.0987
 1766BOLB   C1D42381  13.379  -4.584  32.239  0.1421  0.0813  0.2379
 1766BOLB   C2D42382  13.556  -4.305  31.998  0.1151  0.0849  0.0110
 1766BOLB   C3D42383  13.908  -4.098  31.824 -0.0427 -0.0580  0.0565
 1766BOLB   C4D42384  14.066  -3.783  32.011  0.1368  0.1513 -0.1188
 1767BOLB   NC142385  21.868   7.075  29.962 -0.0459  0.1914 -0.0855
 1767BOLB   PO142386  22.037   7.329  30.289 -0.0729  0.2136 -0.0833
 1767BOLB   GL142387  22.191   7.660  30.515 -0.0306  0.1546 -0.2610
 1767BOLB   GL242388  22.011   7.724  30.836  0.0649 -0.1699  0.1526
 1767BOLB   C1A42389  22.414   8.000  30.649  0.1574  0.0950 -0.2998
 1767BOLB   C2A42390  22.538   8.153  31.067  0.1387 -0.1360  0.1514
 1767BOLB   C3A42391  22.967   8.160  31.347  0.3185 -0.0544 -0.0464
 1767BOLB   C4A42392  23.460   8.298  31.500  0.0472 -0.0036 -0.0326
 1767BOLB   C1B42393  21.991   7.874  31.204 -0.2325 -0.0035  0.0021
 1767BOLB   C2B42394  22.058   8.198  31.543 -0.0322 -0.1710 -0.1793
 1767BOLB   C3B42395  22.173   8.295  31.945 -0.2646  0.1652 -0.1979
 1767BOLB   C4B42396  22.052   8.313  32.402 -0.0867 -0.1376  0.1743
 1767BOLB   NC242397  24.778   9.791  33.643 -0.1371  0.3428  0.3195
 1767BOLB   PO242398  24.808   9.326  33.415 -0.1364  0.0878  0.0460
 1767BOLB   GL342399  24.460   9.148  33.217 -0.1821 -0.2797 -0.1975
 1767BOLB   GL442400  24.208   9.006  33.407 -0.0863 -0.0188 -0.1264
 1767BOLB   C1C42401  24.133   9.011  32.916  0.0247 -0.2513  0.1453
 1767BOLB   C2C42402  23.926   8.980  32.521  0.0778 -0.2125  0.5205
 1767BOLB   C3C42403  23.820   8.833  32.185 -0.1134  0.0699 -0.0235
 1767BOLB   C4C42404  23.688   8.667  31.728 -0.0963  0.0094 -0.1018
 1767BOLB   C1D42405  23.829   8.828  33.228  0.3117 -0.4097  0.0947
 1767BOLB   C2D42406  23.701   8.557  32.767 -0.1706  0.1637 -0.0546
 1767BOLB   C3D42407  23.460   8.556  32.312  0.2975 -0.0804 -0.2111
 1767BOLB   C4D42408  23.315   8.808  32.064  0.0406 -0.2214  0.1307
 1768BOLB   NC142409  10.799  -0.768  19.453  0.1189  0.0388 -0.1352
 1768BOLB   PO142410  10.897  -1.157  19.588 -0.0846  0.0976 -0.1718
 1768BOLB   GL142411  10.560  -1.265  19.372  0.1799  0.1696  0.1111
 1768BOLB   GL242412  10.247  -1.139  19.408 -0.1679  0.0325  0.4294
 1768BOLB   C1A42413  10.214  -1.624  19.281 -0.3271 -0.2432 -0.0847
 1768BOLB   C2A42414  10.096  -2.098  19.226 -0.2498  0.2146 -0.0754
 1768BOLB   C3A42415   9.831  -2.253  18.879 -0.0959  0.0272 -0.1802
 1768BOLB   C4A42416   9.447  -2.329  18.811 -0.3853  0.1565  0.0782
 1768BOLB   C1B42417   9.928  -1.223  19.167 -0.0687 -0.2114  0.1731
 1768BOLB   C2B42418  10.039  -1.550  18.838 -0.3166  0.0927 -0.0506
 1768BOLB   C3B42419   9.979  -1.521  18.460 -0.0205  0.0363 -0.2071
 1768BOLB   C4B42420   9.678  -1.609  18.200  0.3171  0.1016  0.0479
 1768BOLB   NC242421   8.072  -3.240  17.913  0.2044  0.1583 -0.3084
 1768BOLB   PO242422   7.768  -3.581  18.157 -0.1455 -0.1520  0.1553
 1768BOLB   GL342423   8.056  -3.562  18.498 -0.0719 -0.1148  0.1699
 1768BOLB   GL442424   8.126  -3.290  18.709 -0.0051  0.2497  0.0471
 1768BOLB   C1C42425   8.464  -3.568  18.435  0.1408  0.1604  0.0964
 1768BOLB   C2C42426   8.773  -3.268  18.394 -0.0818  0.1504 -0.1834
 1768BOLB   C3C42427   8.882  -2.919  18.530  0.0046 -0.2327  0.1183
 1768BOLB   C4C42428   9.173  -2.598  18.593 -0.1033 -0.0209  0.0819
 1768BOLB   C1D42429   8.355  -2.977  18.579  0.2950 -0.1103  0.0088
 1768BOLB   C2D42430   8.346  -2.596  18.827  0.0825  0.1118 -0.0750
 1768BOLB   C3D42431   8.229  -2.168  19.026  0.0241  0.0866 -0.1203
 1768BOLB   C4D42432   7.908  -1.969  18.803 -0.1395 -0.0093 -0.0637
 1769BOLB   NC142433  18.146   9.506  20.351  0.0274  0.1849 -0.0184
 1769BOLB   PO142434  18.191   9.856  20.155  0.2379 -0.1191  0.1980
 1769BOLB   GL142435  18.043  10.352  20.210  0.3245 -0.3123 -0.1099
 1769BOLB   GL242436  17.817  10.257  20.144 -0.1211 -0.2197 -0.1898
 1769BOLB   C1A42437  18.127  10.686  20.157 -0.0758 -0.1844  0.2414
 1769BOLB   C2A42438  18.336  11.069  20.212 -0.2207 -0.1928  0.2066
 1769BOLB   C3A42439  18.383  11.485  20.023 -0.3609  0.1022  0.0491
 1769BOLB   C4A42440  18.499  11.756  19.656 -0.0138  0.1024  0.1129
 1769BOLB   C1B42441  17.770  10.248  19.808  0.2146 -0.4452 -0.1795
 1769BOLB   C2B42442  17.882  10.327  19.425  0.0230  0.2013 -0.0839
 1769BOLB   C3B42443  18.085  10.218  18.998  0.2439 -0.3775  0.1992
 1769BOLB   C4B42444  17.894   9.870  18.712 -0.0491 -0.2859  0.4740
 1769BOLB   NC242445  19.553  13.240  17.437  0.0088  0.3285  0.1495
 1769BOLB   PO242446  19.162  12.973  17.548  0.1836  0.1051  0.1238
 1769BOLB   GL342447  19.168  12.634  17.789  0.0374 -0.1792  0.1890
 1769BOLB   GL442448  19.331  12.370  17.857 -0.2553  0.1005 -0.2433
 1769BOLB   C1C42449  18.982  12.546  18.175 -0.0801 -0.4996 -0.0920
 1769BOLB   C2C42450  19.072  12.361  18.482 -0.0376 -0.1523  0.1107
 1769BOLB   C3C42451  18.835  12.128  18.786  0.0254  0.1353 -0.0002
 1769BOLB   C4C42452  18.735  11.799  19.275  0.3524 -0.2079 -0.1321
 1769BOLB   C1D42453  19.487  12.665  18.179 -0.0186  0.0101 -0.1458
 1769BOLB   C2D42454  19.671  12.677  18.691  0.0767 -0.0855  0.2646
 1769BOLB   C3D42455  19.750  12.683  19.111 -0.0895 -0.1860  0.0711
 1769BOLB   C4D42456  19.918  12.695  19.452 -0.0767  0.1032 -0.1085
 1770BOLB   NC142457  16.178  12.895  26.770 -0.1182 -0.1120 -0.0592
 1770BOLB   PO142458  16.465  13.075  27.037  0.1111  0.0462 -0.2319
 1770BOLB   GL142459  16.503  13.332  26.912 -0.1337  0.0553 -0.3204
 1770BOLB   GL242460  16.353  13.402  26.636  0.2533  0.1832 -0.1654
 1770BOLB   C1A42461  16.538  13.721  27.121  0.1967 -0.2557  0.4032
 1770BOLB   C2A42462  16.479  14.157  27.116 -0.0658 -0.0768  0.2416
 1770BOLB   C3A42463  16.347  14.521  27.015 -0.2619 -0.1476  0.0874
 1770BOLB   C4A42464  16.158  14.750  26.765 -0.0775 -0.0127 -0.3524
 1770BOLB   C1B42465  16.275  13.825  26.650 -0.1846  0.1627 -0.1248
 1770BOLB   C2B42466  16.060  14.266  26.595  0.2930 -0.4444 -0.3040
 1770BOLB   C3B42467  15.844  14.759  26.404 -0.1805 -0.1351  0.2187
 1770BOLB   C4B42468  15.860  14.998  25.988 -0.1810 -0.1711  0.0543
 1770BOLB   NC242469  15.001  17.405  26.860  0.1037  0.0569 -0.2315
 1770BOLB   PO242470  14.903  16.900  26.652 -0.2323 -0.2580  0.2048
 1770BOLB   GL342471  14.821  16.479  26.790 -0.2352  0.2208  0.2555
 1770BOLB   GL442472  14.547  16.354  26.720  0.1019  0.0572 -0.1317
 1770BOLB   C1C42473  14.979  16.126  26.936 -0.0152 -0.0992  0.1977
 1770BOLB   C2C42474  15.241  15.772  27.059  0.0837  0.1089  0.0062
 1770BOLB   C3C42475  15.576  15.433  26.766  0.3231  0.0197 -0.0088
 1770BOLB   C4C42476  15.767  15.030  26.849  0.0792 -0.2348 -0.3243
 1770BOLB   C1D42477  14.350  16.005  26.893  0.0031  0.0228  0.1675
 1770BOLB   C2D42478  14.333  15.583  26.943  0.1500  0.2704  0.0652
 1770BOLB   C3D42479  14.546  15.131  26.954  0.0629  0.2471  0.0138
 1770BOLB   C4D42480  14.419  14.755  27.141  0.3495  0.1052  0.0411
 1771BOLB   NC142481  16.881  16.407  29.017 -0.0686 -0.1570 -0.0579
 1771BOLB   PO142482  17.042  16.231  29.358  0.3783 -0.0147  0.0061
 1771BOLB   GL142483  17.124  15.788  29.273 -0.1730  0.3341 -0.1570
 1771BOLB   GL242484  17.390  15.688  29.403  0.1428  0.0769  0.3082
 1771BOLB   C1A42485  17.153  15.270  29.289 -0.0066 -0.1326 -0.1649
 1771BOLB   C2A42486  16.969  14.867  29.423  0.1091  0.0494  0.1075
 1771BOLB   C3A42487  16.781  14.461  29.603 -0.0214  0.0057  0.3936
 1771BOLB   C4A42488  16.823  14.264  29.962 -0.1546 -0.0601 -0.0280
 1771BOLB   C1B42489  17.617  15.284  29.131  0.2948  0.0155 -0.1966
 1771BOLB   C2B42490  17.456  14.876  28.973 -0.2333  0.1687 -0.0490
 1771BOLB   C3B42491  17.252  14.620  28.913  0.0402 -0.0035  0.1316
 1771BOLB   C4B42492  16.927  14.353  29.158 -0.1131 -0.1696  0.3135
 1771BOLB   NC242493  18.144  14.161  32.355  0.2307  0.5138  0.1234
 1771BOLB   PO242494  18.152  14.339  31.922 -0.3948 -0.1594 -0.1061
 1771BOLB   GL342495  18.108  14.124  31.609 -0.3064 -0.0114  0.2005
 1771BOLB   GL442496  18.370  14.200  31.338 -0.1249 -0.2701  0.1549
 1771BOLB   C1C42497  17.756  14.138  31.322  0.3717 -0.2973  0.0445
 1771BOLB   C2C42498  17.469  13.937  31.016 -0.2719 -0.1301  0.0357
 1771BOLB   C3C42499  17.075  14.060  30.686 -0.0253 -0.1657  0.0640
 1771BOLB   C4C42500  16.831  14.220  30.383  0.2573 -0.1398  0.0519
 1771BOLB   C1D42501  18.419  13.802  31.493 -0.2653 -0.1391 -0.0483
 1771BOLB   C2D42502  18.324  13.363  31.372 -0.0835 -0.1353 -0.0614
 1771BOLB   C3D42503  17.960  13.245  31.265 -0.0526  0.0722  0.1045
 1771BOLB   C4D42504  17.634  13.049  31.024 -0.0959  0.0922  0.0975
 1772BOLB   NC142505   8.841  -1.653  23.112 -0.2256 -0.0275 -0.0340
 1772BOLB   PO142506   8.546  -1.368  23.076  0.1147 -0.1110 -0.2679
 1772BOLB   GL142507   8.545  -1.795  22.720  0.0331  0.0733 -0.0038
 1772BOLB   GL242508   8.304  -1.546  22.598 -0.2623 -0.0516 -0.0226
 1772BOLB   C1A42509   8.340  -2.172  22.532  0.3979 -0.1426 -0.2131
 1772BOLB   C2A42510   8.163  -2.453  22.298 -0.2777 -0.0933  0.0083
 1772BOLB   C3A42511   7.765  -2.539  22.144 -0.2143  0.0343  0.2474
 1772BOLB   C4A42512   7.446  -2.835  22.386 -0.0318 -0.0331 -0.0295
 1772BOLB   C1B42513   7.814  -1.628  22.693 -0.0148 -0.1242  0.1547
 1772BOLB   C2B42514   7.561  -1.985  22.735  0.2868  0.1254 -0.3683
 1772BOLB   C3B42515   7.345  -2.385  22.955 -0.0546  0.2085 -0.0576
 1772BOLB   C4B42516   7.397  -2.753  22.895 -0.1282 -0.0645  0.0566
 1772BOLB   NC242517   5.820  -4.547  22.190  0.1954 -0.1383 -0.0880
 1772BOLB   PO242518   6.086  -4.222  21.862 -0.1005  0.2345 -0.1465
 1772BOLB   GL342519   6.419  -4.065  22.124  0.2827 -0.0535 -0.1769
 1772BOLB   GL442520   6.771  -4.133  22.076  0.1027 -0.1841 -0.3248
 1772BOLB   C1C42521   6.366  -3.841  22.582  0.0606  0.0361  0.2633
 1772BOLB   C2C42522   6.492  -3.409  22.625 -0.1217  0.0674 -0.0294
 1772BOLB   C3C42523   6.735  -3.128  22.708 -0.2100 -0.0664 -0.0442
 1772BOLB   C4C42524   7.229  -3.115  22.577  0.0299 -0.1498  0.3322
 1772BOLB   C1D42525   6.824  -3.597  22.183 -0.3708 -0.1730  0.0833
 1772BOLB   C2D42526   6.853  -3.218  22.259 -0.0692 -0.1478 -0.4008
 1772BOLB   C3D42527   6.884  -2.800  22.340 -0.1518  0.0470 -0.0628
 1772BOLB   C4D42528   7.043  -2.607  22.522 -0.5101  0.0506 -0.3339
 1773BOLB   NC142529  24.820   2.751  26.054  0.3271 -0.0346  0.0402
 1773BOLB   PO142530  24.715   3.169  26.048 -0.1541  0.2524 -0.2972
 1773BOLB   GL142531  25.127   3.105  26.041 -0.0803  0.0553 -0.1861
 1773BOLB   GL242532  25.248   2.776  25.872 -0.0694  0.1996  0.3556
 1773BOLB   C1A42533  25.556   3.286  26.000 -0.1396 -0.0558  0.1348
 1773BOLB   C2A42534  25.991   3.248  26.082  0.0630  0.3925 -0.1895
 1773BOLB   C3A42535  26.391   3.175  25.937  0.1384 -0.0424  0.0907
 1773BOLB   C4A42536  26.839   3.199  25.817  0.0582 -0.0116  0.0519
 1773BOLB   C1B42537  25.618   2.743  26.114 -0.2983  0.1710  0.2049
 1773BOLB   C2B42538  25.948   2.591  26.307  0.0752  0.0335 -0.1711
 1773BOLB   C3B42539  26.149   2.414  26.560  0.2669 -0.2837 -0.0475
 1773BOLB   C4B42540  26.307   2.416  26.995 -0.0640  0.0956 -0.0573
 1773BOLB   NC242541  29.413   2.665  25.655 -0.2304 -0.2016  0.1001
 1773BOLB   PO242542  29.189   3.087  25.824 -0.0326  0.4429  0.0844
 1773BOLB   GL342543  28.744   3.148  25.959  0.1473 -0.1391 -0.0335
 1773BOLB   GL442544  28.590   2.898  25.981  0.0156  0.2158  0.0264
 1773BOLB   C1C42545  28.255   3.279  25.944  0.0637  0.0987 -0.1970
 1773BOLB   C2C42546  27.766   3.254  26.062 -0.0677  0.1906 -0.0210
 1773BOLB   C3C42547  27.509   3.010  25.960 -0.2501  0.0301  0.1650
 1773BOLB   C4C42548  27.200   3.077  25.778 -0.2893 -0.0126  0.1967
 1773BOLB   C1D42549  28.086   2.757  25.866 -0.0595  0.0160  0.2471
 1773BOLB   C2D42550  27.699   2.640  25.691 -0.1674 -0.0635 -0.1732
 1773BOLB   C3D42551  27.352   2.537  25.788  0.2227  0.1467 -0.1149
 1773BOLB   C4D42552  27.205   2.464  26.208 -0.0771  0.1128 -0.0601
 1774BOLB   NC142553   9.881   6.308  20.289 -0.0988  0.1129  0.1603
 1774BOLB   PO142554   9.507   6.150  20.416  0.1471 -0.1033 -0.1345
 1774BOLB   GL142555   9.467   6.350  20.069 -0.4394  0.1183  0.2010
 1774BOLB   GL242556   9.684   6.298  19.781  0.0503  0.0779  0.2058
 1774BOLB   C1A42557   9.257   6.517  19.728 -0.2811  0.2329  0.1144
 1774BOLB   C2A42558   8.932   6.780  19.415 -0.1002  0.2694 -0.0153
 1774BOLB   C3A42559   8.591   6.588  19.095  0.0449 -0.1370 -0.2779
 1774BOLB   C4A42560   8.387   6.230  18.726 -0.1511  0.0497  0.0625
 1774BOLB   C1B42561   9.699   6.319  19.342 -0.1307  0.2165  0.1644
 1774BOLB   C2B42562   9.612   6.419  18.848 -0.2138  0.2235  0.1153
 1774BOLB   C3B42563   9.236   6.171  18.524 -0.2273 -0.2073  0.4225
 1774BOLB   C4B42564   8.876   5.930  18.363 -0.1203  0.0285  0.2126
 1774BOLB   NC242565   6.459   7.014  17.567  0.0316  0.1494 -0.1014
 1774BOLB   PO242566   6.567   7.245  18.051 -0.0222  0.0149 -0.3278
 1774BOLB   GL342567   6.816   6.863  18.138 -0.2869  0.2354  0.0075
 1774BOLB   GL442568   6.893   6.464  18.112 -0.0909 -0.0223 -0.0480
 1774BOLB   C1C42569   6.940   6.690  18.546  0.0672 -0.0598 -0.3850
 1774BOLB   C2C42570   7.163   6.349  18.672 -0.1753  0.1358 -0.1687
 1774BOLB   C3C42571   7.575   6.227  18.621 -0.1959  0.1934  0.0581
 1774BOLB   C4C42572   8.023   6.177  18.579 -0.1774  0.3506  0.0289
 1774BOLB   C1D42573   7.292   6.272  18.108  0.0323 -0.1814  0.0551
 1774BOLB   C2D42574   7.707   6.049  18.107 -0.0478 -0.3539 -0.0451
 1774BOLB   C3D42575   7.977   5.733  18.226  0.0844  0.0719  0.0326
 1774BOLB   C4D42576   8.449   5.701  18.235 -0.0137  0.1582 -0.0831
 1775BOLB   NC142577  15.024   5.690  16.722  0.1528  0.3477 -0.1625
 1775BOLB   PO142578  15.409   5.744  16.957  0.0653  0.0781 -0.0444
 1775BOLB   GL142579  15.472   5.873  16.587 -0.0655 -0.3856 -0.2496
 1775BOLB   GL242580  15.220   6.063  16.474  0.1262  0.0468  0.2879
 1775BOLB   C1A42581  15.597   6.022  16.091  0.0120 -0.0866 -0.1118
 1775BOLB   C2A42582  15.851   6.138  15.689 -0.2130 -0.4005  0.2455
 1775BOLB   C3A42583  16.220   6.329  15.450  0.1875  0.0227 -0.3072
 1775BOLB   C4A42584  16.421   6.340  15.047 -0.0794 -0.2026  0.0326
 1775BOLB   C1B42585  15.131   6.375  16.177  0.0817 -0.0332  0.3296
 1775BOLB   C2B42586  15.148   6.797  16.033 -0.2477  0.0561 -0.0375
 1775BOLB   C3B42587  15.143   7.204  16.207 -0.1593  0.0106  0.2699
 1775BOLB   C4B42588  15.231   7.698  16.147  0.2295 -0.0499  0.0941
 1775BOLB   NC242589  16.557   6.088  12.566 -0.0463 -0.0890  0.0584
 1775BOLB   PO242590  16.655   6.512  12.758  0.0093 -0.2064  0.1084
 1775BOLB   GL342591  16.794   6.291  13.117  0.0990 -0.1086 -0.1644
 1775BOLB   GL442592  16.724   5.973  13.129 -0.2109  0.0514  0.3398
 1775BOLB   C1C42593  17.066   5.980  13.469 -0.0965 -0.3280 -0.0297
 1775BOLB   C2C42594  16.897   5.926  13.908 -0.3146 -0.3488  0.0199
 1775BOLB   C3C42595  16.801   6.061  14.371 -0.0674 -0.1686  0.1711
 1775BOLB   C4C42596  16.567   6.145  14.721  0.3045 -0.0254 -0.1104
 1775BOLB   C1D42597  16.597   5.555  13.123 -0.3771  0.2669  0.2192
 1775BOLB   C2D42598  16.824   5.168  13.140 -0.2609 -0.3463  0.0719
 1775BOLB   C3D42599  16.657   5.012  13.557  0.0888  0.2160  0.3929
 1775BOLB   C4D42600  16.502   5.138  13.986  0.1799  0.1255 -0.2201
 1776BOLB   NC142601  14.423  -2.696  29.036  0.1088  0.3166 -0.1531
 1776BOLB   PO142602  14.790  -2.812  28.952 -0.0335 -0.1671  0.0476
 1776BOLB   GL142603  14.763  -3.030  29.334  0.3776  0.3911 -0.2095
 1776BOLB   GL242604  14.673  -3.256  29.239  0.1921  0.2153  0.1721
 1776BOLB   C1A42605  14.911  -3.260  29.708  0.0972 -0.0162  0.3665
 1776BOLB   C2A42606  14.847  -3.369  30.176  0.0212 -0.4057 -0.0319
 1776BOLB   C3A42607  14.877  -3.589  30.432 -0.3654 -0.0941  0.1041
 1776BOLB   C4A42608  14.998  -3.871  30.714 -0.1075  0.0389  0.1874
 1776BOLB   C1B42609  14.860  -3.681  29.412 -0.2230  0.1896 -0.0217
 1776BOLB   C2B42610  14.738  -4.087  29.568 -0.2851 -0.3511 -0.1506
 1776BOLB   C3B42611  14.619  -4.568  29.728  0.1055 -0.1070 -0.0499
 1776BOLB   C4B42612  14.772  -4.949  29.852  0.0594  0.0662 -0.1562
 1776BOLB   NC242613  13.904  -6.232  32.134  0.0081  0.0716 -0.1296
 1776BOLB   PO242614  14.217  -5.952  32.045 -0.0464 -0.1854 -0.1235
 1776BOLB   GL342615  14.243  -5.508  31.706 -0.1438 -0.0053  0.0569
 1776BOLB   GL442616  13.935  -5.507  31.680 -0.0130  0.4414  0.3041
 1776BOLB   C1C42617  14.386  -5.114  31.597  0.4010 -0.1248 -0.1371
 1776BOLB   C2C42618  14.509  -4.864  31.229 -0.2467 -0.0491 -0.0792
 1776BOLB   C3C42619  14.568  -4.456  31.080  0.0394  0.2248  0.4771
 1776BOLB   C4C42620  14.790  -4.213  30.874 -0.1700 -0.0947 -0.0334
 1776BOLB   C1D42621  13.866  -5.237  31.468  0.2065  0.0373 -0.0318
 1776BOLB   C2D42622  13.933  -4.797  31.372  0.4930  0.0404 -0.0448
 1776BOLB   C3D42623  13.719  -4.396  31.424 -0.2640 -0.1673  0.3227
 1776BOLB   C4D42624  13.540  -4.018  31.557  0.0268 -0.2426 -0.1606
 1777BOLB   NC142625  15.191   1.323  33.230  0.4528 -0.5212  0.0529
 1777BOLB   PO142626  15.418   1.596  33.471 -0.0637  0.0345 -0.4371
 1777BOLB   GL142627  15.382   1.308  33.733  0.0170 -0.0768  0.2704
 1777BOLB   GL242628  15.528   1.558  33.956  0.3823  0.0711 -0.0625
 1777BOLB   C1A42629  15.491   1.075  34.152 -0.1535  0.2266 -0.2663
 1777BOLB   C2A42630  15.659   0.912  34.567 -0.3779  0.1465  0.0370
 1777BOLB   C3A42631  15.859   0.791  34.912 -0.0776  0.2779  0.3374
 1777BOLB   C4A42632  16.068   0.367  35.037 -0.1400 -0.3608  0.2061
 1777BOLB   C1B42633  15.764   1.701  34.178 -0.0242  0.0210  0.3672
 1777BOLB   C2B42634  15.684   1.850  34.601  0.1261 -0.0002  0.2342
 1777BOLB   C3B42635  15.806   1.947  34.990 -0.1821 -0.1003 -0.0893
 1777BOLB   C4B42636  15.641   1.729  35.354 -0.1440  0.0329 -0.1755
 1777BOLB   NC242637  17.526  -0.143  36.710 -0.1633  0.2098 -0.2166
 1777BOLB   PO242638  17.541  -0.522  36.562 -0.1204  0.1252 -0.0348
 1777BOLB   GL342639  17.636  -0.560  36.203  0.1404  0.0972 -0.0475
 1777BOLB   GL442640  17.782  -0.484  35.879 -0.1037  0.0426 -0.0405
 1777BOLB   C1C42641  17.266  -0.587  35.910 -0.0250  0.0558 -0.1302
 1777BOLB   C2C42642  17.071  -0.244  35.632  0.2170 -0.1970  0.0457
 1777BOLB   C3C42643  16.835  -0.067  35.348 -0.2021 -0.1610  0.2120
 1777BOLB   C4C42644  16.453   0.139  35.263 -0.1086 -0.0040 -0.0759
 1777BOLB   C1D42645  17.567  -0.163  35.887 -0.1562  0.0032 -0.1181
 1777BOLB   C2D42646  17.621   0.004  35.477  0.0220  0.0895  0.2572
 1777BOLB   C3D42647  17.796   0.146  35.063 -0.1097  0.0123  0.0807
 1777BOLB   C4D42648  17.754   0.286  34.532 -0.0226 -0.1033  0.0880
 1778BOLB   NC142649  21.118   6.353  31.917 -0.0059 -0.2430 -0.1002
 1778BOLB   PO142650  21.296   6.058  32.130  0.0043  0.1576  0.0257
 1778BOLB   GL142651  21.267   6.057  32.549  0.0731 -0.1328  0.1475
 1778BOLB   GL242652  21.038   5.753  32.528 -0.0687  0.0272 -0.2505
 1778BOLB   C1A42653  21.504   5.855  32.966 -0.1055 -0.2484 -0.1158
 1778BOLB   C2A42654  21.866   5.858  33.218  0.0803 -0.1959  0.0476
 1778BOLB   C3A42655  22.038   6.003  33.540 -0.0616 -0.1800 -0.0457
 1778BOLB   C4A42656  22.108   5.680  33.777 -0.1133 -0.0171  0.0957
 1778BOLB   C1B42657  20.994   5.749  32.983 -0.2418  0.0310 -0.2993
 1778BOLB   C2B42658  20.999   5.887  33.404  0.0829 -0.1972 -0.3322
 1778BOLB   C3B42659  21.055   5.602  33.738 -0.1255 -0.3291 -0.2055
 1778BOLB   C4B42660  21.035   5.482  34.154 -0.1344  0.3577 -0.1224
 1778BOLB   NC242661  22.856   5.826  36.246 -0.0559 -0.1779 -0.0734
 1778BOLB   PO242662  22.636   6.013  35.930 -0.0358  0.1100 -0.2491
 1778BOLB   GL342663  22.811   6.119  35.535 -0.1954  0.0233  0.0970
 1778BOLB   GL442664  22.776   6.445  35.325 -0.1085 -0.0245 -0.0122
 1778BOLB   C1C42665  22.960   5.875  35.255 -0.1644  0.1789  0.0546
 1778BOLB   C2C42666  22.778   5.647  34.959 -0.2301 -0.0996  0.1880
 1778BOLB   C3C42667  22.597   5.689  34.478 -0.1942  0.0025 -0.2143
 1778BOLB   C4C42668  22.263   5.512  34.130 -0.0733 -0.0598 -0.0279
 1778BOLB   C1D42669  22.594   6.182  35.072  0.1038 -0.0557 -0.1816
 1778BOLB   C2D42670  22.539   6.101  34.685 -0.1705  0.1725 -0.0282
 1778BOLB   C3D42671  22.519   6.356  34.187 -0.1013 -0.0712 -0.1618
 1778BOLB   C4D42672  22.516   6.305  33.745  0.1721  0.1324 -0.2660
 1779BOLB   NC142673  16.925  -0.756  31.485  0.1835 -0.0950  0.2646
 1779BOLB   PO142674  16.743  -0.531  31.758  0.0740 -0.2258  0.3311
 1779BOLB   GL142675  16.640  -0.507  32.091  0.1032  0.0906 -0.1535
 1779BOLB   GL242676  16.353  -0.654  32.130  0.1813  0.0078 -0.0997
 1779BOLB   C1A42677  16.681  -0.385  32.517 -0.0576  0.1501  0.3201
 1779BOLB   C2A42678  17.011  -0.419  32.837  0.0933 -0.3214  0.2077
 1779BOLB   C3A42679  17.291  -0.533  33.124 -0.2236 -0.1701 -0.0502
 1779BOLB   C4A42680  17.319  -0.803  33.508 -0.3339  0.1750 -0.1968
 1779BOLB   C1B42681  16.282  -0.719  32.504  0.1908 -0.3101  0.1131
 1779BOLB   C2B42682  16.249  -0.927  32.914  0.3077  0.4386 -0.0871
 1779BOLB   C3B42683  16.173  -1.306  33.009 -0.5136 -0.1849  0.0335
 1779BOLB   C4B42684  16.244  -1.638  33.333 -0.0411  0.3333  0.0626
 1779BOLB   NC242685  17.348  -2.545  35.353 -0.1993 -0.1692 -0.3832
 1779BOLB   PO242686  17.751  -2.228  35.328  0.0392 -0.0484  0.0488
 1779BOLB   GL342687  17.800  -1.845  34.967  0.1151 -0.3015 -0.0315
 1779BOLB   GL442688  18.085  -1.942  34.694 -0.0886  0.0503 -0.0557
 1779BOLB   C1C42689  17.793  -1.560  34.608  0.0835  0.1614  0.2736
 1779BOLB   C2C42690  17.737  -1.530  34.194 -0.0655 -0.0229  0.1957
 1779BOLB   C3C42691  17.614  -1.370  33.929  0.2034  0.1292 -0.0482
 1779BOLB   C4C42692  17.370  -1.249  33.656 -0.0989 -0.3531  0.1439
 1779BOLB   C1D42693  18.254  -1.674  34.365 -0.0449 -0.1132  0.0220
 1779BOLB   C2D42694  18.280  -1.563  34.003  0.2184 -0.3147  0.5200
 1779BOLB   C3D42695  17.976  -1.401  33.600  0.1947  0.4714 -0.0229
 1779BOLB   C4D42696  17.800  -1.050  33.478 -0.0956  0.0794 -0.0602
 1780BOLB   NC142697  23.732   0.429  27.736  0.0767 -0.1304  0.3314
 1780BOLB   PO142698  23.638  -0.061  27.593 -0.1635 -0.1358  0.2176
 1780BOLB   GL142699  23.761  -0.434  27.932  0.0055  0.0952  0.0835
 1780BOLB   GL242700  23.574  -0.636  27.968  0.0638  0.0932 -0.1670
 1780BOLB   C1A42701  24.064  -0.727  27.729  0.1273 -0.1502  0.1739
 1780BOLB   C2A42702  24.442  -0.934  27.761 -0.0687  0.0639 -0.1020
 1780BOLB   C3A42703  24.813  -0.980  27.999  0.2278  0.0596  0.2466
 1780BOLB   C4A42704  25.192  -1.013  28.233 -0.0910  0.2138 -0.2853
 1780BOLB   C1B42705  23.822  -0.924  28.180 -0.0939 -0.0910  0.3767
 1780BOLB   C2B42706  23.889  -1.078  28.591  0.0110 -0.2653  0.1070
 1780BOLB   C3B42707  23.862  -1.260  28.917  0.2767 -0.3227 -0.1935
 1780BOLB   C4B42708  24.085  -1.638  29.105  0.0093  0.4247 -0.0035
 1780BOLB   NC242709  26.846  -2.370  29.340 -0.0952  0.0605  0.3599
 1780BOLB   PO242710  26.876  -2.036  28.965  0.1885  0.0301 -0.1592
 1780BOLB   GL342711  26.717  -1.698  29.041 -0.2936 -0.1274  0.1523
 1780BOLB   GL442712  26.369  -1.600  29.274 -0.0288  0.0385  0.0855
 1780BOLB   C1C42713  26.375  -1.525  28.774  0.1471 -0.1078 -0.4609
 1780BOLB   C2C42714  25.947  -1.423  28.542  0.0914  0.0447  0.2987
 1780BOLB   C3C42715  25.663  -1.125  28.637  0.1169  0.2517 -0.0023
 1780BOLB   C4C42716  25.286  -1.167  28.496 -0.1997 -0.1046 -0.2044
 1780BOLB   C1D42717  25.980  -1.394  29.028 -0.0828 -0.0314  0.2426
 1780BOLB   C2D42718  25.574  -1.566  28.894 -0.0204  0.0426  0.4620
 1780BOLB   C3D42719  25.219  -1.649  28.656 -0.1481 -0.1079  0.3394
 1780BOLB   C4D42720  24.858  -1.464  28.789 -0.3641 -0.3618 -0.1515
 1781BOLB   NC142721   7.997   5.876  23.114  0.2439 -0.2172  0.2380
 1781BOLB   PO142722   7.671   6.197  23.074 -0.0994  0.3279 -0.0530
 1781BOLB   GL142723   7.351   6.367  23.226  0.0383 -0.0499  0.0267
 1781BOLB   GL242724   7.520   6.743  23.324 -0.0055  0.2250  0.2434
 1781BOLB   C1A42725   6.948   6.328  23.025 -0.0950 -0.1065 -0.1491
 1781BOLB   C2A42726   6.603   6.295  22.750 -0.2781  0.0202  0.0808
 1781BOLB   C3A42727   6.252   6.399  22.517  0.1822 -0.0901  0.1886
 1781BOLB   C4A42728   6.060   6.392  22.145 -0.0967 -0.1585 -0.2218
 1781BOLB   C1B42729   7.095   6.883  23.319  0.1751  0.2222 -0.4386
 1781BOLB   C2B42730   6.743   7.094  23.175  0.1068 -0.3774  0.0403
 1781BOLB   C3B42731   6.255   7.244  22.941  0.4161  0.0547 -0.1441
 1781BOLB   C4B42732   6.043   7.249  22.584  0.0200  0.3410  0.1171
 1781BOLB   NC242733   3.978   7.175  20.317  0.0981  0.0033 -0.1165
 1781BOLB   PO242734   4.363   7.031  20.576  0.1512 -0.2421 -0.1379
 1781BOLB   GL342735   4.871   6.958  20.535  0.1035 -0.0132 -0.3186
 1781BOLB   GL442736   5.013   7.270  20.435  0.0272  0.0220 -0.1057
 1781BOLB   C1C42737   5.293   7.062  20.791 -0.0781  0.3380 -0.2061
 1781BOLB   C2C42738   5.549   6.867  21.099  0.3255  0.0474 -0.0076
 1781BOLB   C3C42739   5.580   6.798  21.555  0.3138  0.0489 -0.3196
 1781BOLB   C4C42740   5.841   6.604  21.875  0.0908  0.1636  0.2305
 1781BOLB   C1D42741   5.379   7.474  20.507  0.2180  0.1470 -0.0889
 1781BOLB   C2D42742   5.873   7.550  20.598 -0.0281 -0.1907  0.1095
 1781BOLB   C3D42743   6.204   7.316  20.849  0.0775  0.1176  0.1955
 1781BOLB   C4D42744   6.622   7.018  20.907 -0.2248 -0.0742 -0.1609
 1782BOLB   NC142745  23.776   4.963  29.871 -0.1322  0.2953 -0.3080
 1782BOLB   PO142746  23.687   4.691  30.226 -0.1614  0.1926  0.2038
 1782BOLB   GL142747  23.907   4.974  30.397 -0.2426  0.1387 -0.0387
 1782BOLB   GL242748  23.880   5.267  30.298  0.1040 -0.3351  0.0676
 1782BOLB   C1A42749  24.403   4.941  30.457 -0.0100  0.1176 -0.0875
 1782BOLB   C2A42750  24.811   5.014  30.516 -0.1291 -0.1854  0.1432
 1782BOLB   C3A42751  25.082   5.356  30.574 -0.1187  0.0344  0.1588
 1782BOLB   C4A42752  25.352   5.543  30.552 -0.0734  0.2697  0.1093
 1782BOLB   C1B42753  24.073   5.399  30.549 -0.0714 -0.3336 -0.2525
 1782BOLB   C2B42754  24.514   5.392  30.663 -0.0438 -0.1048  0.3208
 1782BOLB   C3B42755  24.788   5.591  30.924  0.0080  0.1003  0.0971
 1782BOLB   C4B42756  24.923   5.616  31.303 -0.0030 -0.2088 -0.0844
 1782BOLB   NC242757  27.325   6.326  32.386  0.0411  0.1429  0.1797
 1782BOLB   PO242758  27.176   6.037  32.000  0.0777 -0.4103  0.1607
 1782BOLB   GL342759  26.779   5.757  31.959  0.0176  0.0943 -0.3695
 1782BOLB   GL442760  26.475   5.733  32.156  0.1580  0.1625  0.3349
 1782BOLB   C1C42761  26.444   5.481  31.704  0.2380  0.0468  0.2503
 1782BOLB   C2C42762  26.045   5.549  31.535  0.2542  0.0866 -0.1843
 1782BOLB   C3C42763  25.885   5.580  31.099  0.2713  0.1298 -0.2594
 1782BOLB   C4C42764  25.797   5.482  30.682 -0.0185  0.1996  0.2313
 1782BOLB   C1D42765  26.134   5.848  31.977 -0.2353  0.2995 -0.1203
 1782BOLB   C2D42766  25.761   5.977  31.900  0.0924 -0.0241  0.2643
 1782BOLB   C3D42767  25.359   6.156  31.952 -0.0843 -0.0842  0.0657
 1782BOLB   C4D42768  25.082   6.154  32.220 -0.0229 -0.1046  0.2619
 1783BOLB   NC142769  26.742  -3.832  22.726 -0.1186 -0.1190 -0.0818
 1783BOLB   PO142770  26.524  -3.629  22.993 -0.0408 -0.0588  0.0778
 1783BOLB   GL142771  26.167  -3.458  22.787 -0.0208 -0.2119  0.2263
 1783BOLB   GL242772  25.927  -3.389  23.024 -0.0106  0.3926  0.0535
 1783BOLB   C1A42773  25.737  -3.180  22.586  0.1784 -0.2666  0.2257
 1783BOLB   C2A42774  25.492  -3.058  22.931  0.1443 -0.1193  0.3536
 1783BOLB   C3A42775  25.248  -2.674  23.071  0.1935 -0.2599  0.1202
 1783BOLB   C4A42776  25.264  -2.253  22.901  0.1116 -0.3894  0.0150
 1783BOLB   C1B42777  25.743  -3.251  23.357  0.0343 -0.1628 -0.1093
 1783BOLB   C2B42778  25.472  -2.984  23.427 -0.1545 -0.0273 -0.0305
 1783BOLB   C3B42779  25.394  -2.566  23.545 -0.2377  0.1045  0.1797
 1783BOLB   C4B42780  25.189  -2.252  23.398 -0.1318  0.1341 -0.1152
 1783BOLB   NC242781  27.601  -1.587  22.420  0.3513  0.0212  0.1024
 1783BOLB   PO242782  27.399  -1.404  22.067  0.0716  0.0727 -0.1368
 1783BOLB   GL342783  27.090  -1.247  22.251 -0.0257  0.0035  0.0453
 1783BOLB   GL442784  27.290  -1.252  22.532  0.0693 -0.1382  0.0673
 1783BOLB   C1C42785  26.672  -1.500  22.244 -0.2082  0.1239  0.0905
 1783BOLB   C2C42786  26.278  -1.617  22.359 -0.0261  0.1541  0.4218
 1783BOLB   C3C42787  25.894  -1.758  22.471 -0.2122  0.2232 -0.3928
 1783BOLB   C4C42788  25.526  -1.998  22.641  0.1869  0.0597 -0.0336
 1783BOLB   C1D42789  27.054  -0.810  22.531  0.1662  0.2312 -0.2830
 1783BOLB   C2D42790  26.707  -0.690  22.806 -0.0598 -0.1362  0.2540
 1783BOLB   C3D42791  26.501  -0.295  23.004  0.0252  0.1043 -0.0027
 1783BOLB   C4D42792  26.174  -0.093  22.799  0.0684 -0.0660  0.1128
 1784BOLB   NC142793  26.786  -4.337  16.264  0.2137  0.0143  0.0385
 1784BOLB   PO142794  26.847  -4.565  16.570  0.4964 -0.0920 -0.0378
 1784BOLB   GL142795  26.379  -4.675  16.536  0.1684 -0.0898  0.3296
 1784BOLB   GL242796  26.203  -4.485  16.323 -0.1914  0.1421  0.1995
 1784BOLB   C1A42797  26.125  -4.899  16.693  0.1189 -0.1607 -0.1117
 1784BOLB   C2A42798  25.754  -4.808  16.996  0.0580 -0.0336 -0.0666
 1784BOLB   C3A42799  25.474  -5.118  17.203  0.0204  0.0552  0.2748
 1784BOLB   C4A42800  24.998  -4.969  17.103 -0.0204 -0.0961  0.2947
 1784BOLB   C1B42801  25.974  -4.247  15.949 -0.2166 -0.0431 -0.3259
 1784BOLB   C2B42802  25.925  -4.034  15.571  0.1841  0.1602  0.2158
 1784BOLB   C3B42803  25.691  -4.118  15.197  0.0150 -0.2293  0.1762
 1784BOLB   C4B42804  25.819  -4.069  14.727  0.0718 -0.3506 -0.0818
 1784BOLB   NC242805  26.021  -6.576  16.542 -0.0521 -0.0769 -0.2912
 1784BOLB   PO242806  25.926  -6.313  16.975 -0.1661 -0.3027 -0.4003
 1784BOLB   GL342807  25.493  -6.331  17.154  0.1036  0.0444  0.3563
 1784BOLB   GL442808  25.335  -6.298  17.516  0.0169  0.0159 -0.0638
 1784BOLB   C1C42809  25.158  -6.420  16.888  0.0416 -0.3504 -0.0232
 1784BOLB   C2C42810  24.888  -6.083  16.978 -0.2443  0.1212  0.0438
 1784BOLB   C3C42811  24.718  -5.725  17.095 -0.1615 -0.0232  0.2517
 1784BOLB   C4C42812  24.789  -5.253  17.342 -0.0766  0.0553  0.1414
 1784BOLB   C1D42813  25.021  -6.603  17.300  0.1328 -0.0679  0.0688
 1784BOLB   C2D42814  24.760  -6.681  17.051  0.0374 -0.0360 -0.0742
 1784BOLB   C3D42815  24.239  -6.706  16.693  0.4949  0.0079 -0.1662
 1784BOLB   C4D42816  23.990  -6.825  16.324  0.2412 -0.1843 -0.2167
 1785BOLB   NC142817  11.058   4.574  32.039 -0.2991  0.0083 -0.3752
 1785BOLB   PO142818  10.790   4.880  31.788 -0.2389 -0.0160  0.2074
 1785BOLB   GL142819  10.743   4.912  32.273 -0.1833  0.1363  0.0944
 1785BOLB   GL242820  10.915   4.864  32.612 -0.4573 -0.2234 -0.0389
 1785BOLB   C1A42821  10.550   5.200  32.693  0.3372 -0.0851  0.3244
 1785BOLB   C2A42822  10.585   5.288  33.088 -0.2017  0.0522 -0.2461
 1785BOLB   C3A42823  10.276   5.502  33.234 -0.4789  0.2945  0.2113
 1785BOLB   C4A42824   9.977   5.686  33.425 -0.2434  0.3123  0.1567
 1785BOLB   C1B42825  11.010   4.968  33.045  0.2380  0.1076 -0.1237
 1785BOLB   C2B42826  10.806   5.027  33.503  0.0292  0.2686  0.0558
 1785BOLB   C3B42827  10.500   5.246  33.887  0.2585 -0.0628  0.0451
 1785BOLB   C4B42828  10.341   5.287  34.263  0.1951 -0.1039  0.2457
 1785BOLB   NC242829   8.567   5.706  35.085  0.0019  0.1274  0.0147
 1785BOLB   PO242830   8.167   5.448  35.197  0.0168 -0.0051 -0.1595
 1785BOLB   GL342831   8.328   5.398  34.777 -0.2737 -0.0880 -0.1076
 1785BOLB   GL442832   8.401   5.697  34.550  0.0415  0.3264 -0.4871
 1785BOLB   C1C42833   8.539   5.272  34.396 -0.3826  0.4189 -0.1287
 1785BOLB   C2C42834   8.833   5.343  34.137 -0.0612  0.0538 -0.0005
 1785BOLB   C3C42835   9.296   5.376  33.986  0.0827  0.1375  0.1980
 1785BOLB   C4C42836   9.619   5.556  33.656 -0.1360 -0.1725 -0.0502
 1785BOLB   C1D42837   8.683   5.789  34.181 -0.1289 -0.2691  0.1062
 1785BOLB   C2D42838   8.655   5.919  33.740 -0.3981 -0.0819  0.3529
 1785BOLB   C3D42839   8.739   5.837  33.321  0.2040 -0.1530 -0.3162
 1785BOLB   C4D42840   8.965   5.966  32.938 -0.1075 -0.1012  0.1361
 1786BOLB   NC142841  15.895  -4.512  22.302  0.0572 -0.0328  0.1015
 1786BOLB   PO142842  15.865  -4.407  22.003  0.1175 -0.2618 -0.1381
 1786BOLB   GL142843  16.018  -4.852  21.868 -0.2643  0.1938  0.2275
 1786BOLB   GL242844  16.354  -4.997  21.839 -0.0255 -0.0685  0.0374
 1786BOLB   C1A42845  15.833  -5.102  21.734 -0.0538  0.4135 -0.1947
 1786BOLB   C2A42846  15.754  -5.516  21.647  0.2911 -0.1277  0.1002
 1786BOLB   C3A42847  15.455  -5.653  21.393 -0.1340 -0.1396  0.0124
 1786BOLB   C4A42848  15.455  -5.879  21.083  0.0997 -0.1891 -0.2211
 1786BOLB   C1B42849  16.187  -5.462  21.988 -0.1609  0.3179  0.2130
 1786BOLB   C2B42850  15.978  -5.855  21.972 -0.1363  0.2916  0.1444
 1786BOLB   C3B42851  16.006  -6.361  22.000 -0.2566 -0.0531  0.4155
 1786BOLB   C4B42852  16.143  -6.724  22.252  0.1042 -0.0578  0.3874
 1786BOLB   NC242853  14.711  -8.454  20.038  0.1217 -0.1236  0.2508
 1786BOLB   PO242854  15.225  -8.312  20.140  0.2746 -0.0272  0.0220
 1786BOLB   GL342855  15.155  -7.904  20.375  0.4910  0.0527 -0.1052
 1786BOLB   GL442856  15.373  -7.715  20.108  0.3279  0.2012 -0.6264
 1786BOLB   C1C42857  15.197  -7.506  20.548 -0.0791 -0.0367 -0.2314
 1786BOLB   C2C42858  15.035  -7.108  20.810  0.0376  0.1580 -0.3137
 1786BOLB   C3C42859  15.215  -6.585  20.811  0.1029  0.2194 -0.0510
 1786BOLB   C4C42860  15.427  -6.298  21.054  0.2823  0.1395  0.0945
 1786BOLB   C1D42861  15.606  -7.438  19.887 -0.2151 -0.2966 -0.1922
 1786BOLB   C2D42862  15.884  -7.344  19.567  0.1464  0.2012 -0.4246
 1786BOLB   C3D42863  15.820  -7.415  19.104 -0.3273  0.0536 -0.0827
 1786BOLB   C4D42864  15.810  -7.579  18.688 -0.0261 -0.1075  0.0992
 1787BOLB   NC142865  24.649   1.645  24.603 -0.2018  0.2639 -0.1674
 1787BOLB   PO142866  24.394   1.555  24.230  0.3251 -0.1373 -0.0983
 1787BOLB   GL142867  24.787   1.448  24.159 -0.0775  0.1076  0.0373
 1787BOLB   GL242868  24.739   1.197  24.051  0.1313 -0.0643 -0.3081
 1787BOLB   C1A42869  25.235   1.282  24.358 -0.0073  0.1613  0.0242
 1787BOLB   C2A42870  25.648   1.146  24.519 -0.4082  0.0312 -0.1234
 1787BOLB   C3A42871  25.720   0.977  24.827  0.0311  0.0860  0.2780
 1787BOLB   C4A42872  26.078   0.738  24.881 -0.5926  0.3112 -0.0500
 1787BOLB   C1B42873  24.911   0.978  23.691 -0.1372  0.0136  0.1942
 1787BOLB   C2B42874  25.392   0.898  23.559  0.0286 -0.0820 -0.0514
 1787BOLB   C3B42875  25.653   0.599  23.422  0.0103 -0.1370 -0.2035
 1787BOLB   C4B42876  25.849   0.313  23.210 -0.1619  0.0838 -0.1136
 1787BOLB   NC242877  28.332  -0.331  24.038  0.0320 -0.1549 -0.0974
 1787BOLB   PO242878  28.100  -0.644  24.241 -0.2319 -0.3462 -0.0617
 1787BOLB   GL342879  27.796  -0.510  24.452 -0.0688  0.3066  0.0964
 1787BOLB   GL442880  27.622  -0.606  24.757  0.3401  0.1322  0.0556
 1787BOLB   C1C42881  27.412  -0.178  24.433 -0.1511  0.1101 -0.1332
 1787BOLB   C2C42882  27.193   0.266  24.494  0.1538  0.0134 -0.0059
 1787BOLB   C3C42883  26.879   0.643  24.473  0.4671  0.0937 -0.0584
 1787BOLB   C4C42884  26.480   0.707  24.669 -0.2736  0.0479 -0.0346
 1787BOLB   C1D42885  27.370  -0.767  24.534 -0.0345 -0.1034 -0.1084
 1787BOLB   C2D42886  27.043  -0.989  24.536  0.2112 -0.2473  0.1516
 1787BOLB   C3D42887  26.791  -0.788  24.841  0.0018  0.1826  0.2704
 1787BOLB   C4D42888  26.510  -0.333  24.855  0.1725  0.2871  0.1196
 1788BOLB   NC142889  18.667   5.568  17.123 -0.1247  0.0259  0.1250
 1788BOLB   PO142890  18.364   5.613  16.837  0.0153  0.1675 -0.0203
 1788BOLB   GL142891  18.294   5.667  16.349 -0.1466 -0.2182 -0.1650
 1788BOLB   GL242892  18.169   5.461  16.242  0.1935 -0.0173 -0.0160
 1788BOLB   C1A42893  18.281   6.028  16.040  0.3348 -0.0309 -0.0731
 1788BOLB   C2A42894  18.421   6.294  15.758  0.0745  0.3132  0.2206
 1788BOLB   C3A42895  18.368   6.340  15.314 -0.0674  0.0105 -0.0057
 1788BOLB   C4A42896  18.546   6.120  14.980  0.1871  0.3687 -0.0045
 1788BOLB   C1B42897  18.298   5.598  15.826 -0.3915  0.0218 -0.1774
 1788BOLB   C2B42898  18.339   5.855  15.392  0.4772 -0.0109 -0.0295
 1788BOLB   C3B42899  18.093   6.019  15.002  0.0284 -0.1397 -0.1989
 1788BOLB   C4B42900  18.146   5.993  14.575 -0.0435  0.1058  0.3988
 1788BOLB   NC242901  18.992   6.087  12.407  0.1598  0.1708 -0.0151
 1788BOLB   PO242902  19.163   6.402  12.720 -0.0210  0.1817 -0.1113
 1788BOLB   GL342903  19.027   6.174  13.135  0.1672 -0.1405 -0.1796
 1788BOLB   GL442904  19.204   5.932  13.273 -0.3481  0.1024  0.2459
 1788BOLB   C1C42905  18.722   6.146  13.553  0.2097  0.0772 -0.0777
 1788BOLB   C2C42906  18.484   5.956  13.899 -0.1484  0.0512 -0.1379
 1788BOLB   C3C42907  18.519   5.763  14.271  0.0071 -0.2885 -0.1484
 1788BOLB   C4C42908  18.681   5.863  14.597  0.0947  0.2797 -0.0721
 1788BOLB   C1D42909  19.099   5.892  13.747 -0.1503  0.0671 -0.0396
 1788BOLB   C2D42910  18.924   5.647  14.023 -0.0090 -0.1055 -0.2989
 1788BOLB   C3D42911  18.770   5.281  14.232  0.0297 -0.1370  0.1806
 1788BOLB   C4D42912  18.755   4.876  14.511 -0.2267 -0.1214 -0.0754
 1789BOLB   NC142913  19.159  11.866  25.724  0.1231  0.1079 -0.0917
 1789BOLB   PO142914  19.297  11.940  25.300 -0.1127  0.1714  0.0464
 1789BOLB   GL142915  19.247  12.225  24.916  0.0097 -0.1524 -0.2976
 1789BOLB   GL242916  19.334  12.040  24.743 -0.1369  0.0209 -0.2898
 1789BOLB   C1A42917  19.553  12.505  24.744  0.1521 -0.0293  0.0427
 1789BOLB   C2A42918  19.710  12.731  24.446 -0.0248  0.0102  0.0436
 1789BOLB   C3A42919  19.842  13.198  24.556  0.2795  0.3506 -0.1418
 1789BOLB   C4A42920  19.748  13.625  24.287  0.0851  0.1387 -0.1317
 1789BOLB   C1B42921  19.477  12.258  24.318  0.1052  0.0164 -0.2611
 1789BOLB   C2B42922  19.402  12.558  24.032 -0.0051  0.0961  0.1154
 1789BOLB   C3B42923  19.589  12.562  23.586  0.1170  0.0087 -0.3548
 1789BOLB   C4B42924  20.084  12.616  23.417 -0.3288 -0.0215 -0.0070
 1789BOLB   NC242925  19.391  15.634  23.522  0.1362  0.0201  0.2220
 1789BOLB   PO242926  19.829  15.693  23.719 -0.2414  0.0053  0.2306
 1789BOLB   GL342927  19.758  15.306  23.648 -0.1223  0.1955  0.2364
 1789BOLB   GL442928  19.697  15.235  23.391 -0.2309 -0.5423 -0.0469
 1789BOLB   C1C42929  19.438  14.903  23.605  0.0651  0.0179  0.1915
 1789BOLB   C2C42930  19.356  14.521  23.600  0.2479 -0.1926 -0.3547
 1789BOLB   C3C42931  19.618  14.156  23.624 -0.3126  0.2736 -0.3036
 1789BOLB   C4C42932  19.695  13.895  23.952  0.1850 -0.0643 -0.2342
 1789BOLB   C1D42933  19.494  15.056  23.065  0.1507 -0.1715  0.1748
 1789BOLB   C2D42934  19.169  14.792  22.826  0.0135  0.1846 -0.2454
 1789BOLB   C3D42935  18.816  14.752  22.912 -0.1420  0.0369  0.0547
 1789BOLB   C4D42936  18.532  14.370  22.921  0.1042  0.1001  0.1780
 1790BOLB   NC142937  22.156  -1.290  26.454  0.0076 -0.3136  0.3130
 1790BOLB   PO142938  21.964  -1.699  26.305 -0.1444 -0.0157  0.0166
 1790BOLB   GL142939  22.092  -2.069  26.299  0.2386  0.0195  0.3605
 1790BOLB   GL242940  21.959  -2.363  26.541 -0.1385 -0.0205 -0.0578
 1790BOLB   C1A42941  22.397  -2.321  26.276 -0.1853  0.0836 -0.0008
 1790BOLB   C2A42942  22.545  -2.800  26.361  0.0781 -0.4310  0.2272
 1790BOLB   C3A42943  22.812  -3.060  26.541 -0.0471 -0.2345  0.1898
 1790BOLB   C4A42944  23.135  -3.467  26.640 -0.1850  0.0073 -0.1325
 1790BOLB   C1B42945  22.072  -2.767  26.315 -0.2499  0.1497 -0.3166
 1790BOLB   C2B42946  22.316  -3.190  26.209 -0.1579  0.2558  0.2523
 1790BOLB   C3B42947  22.497  -3.649  26.244 -0.1675 -0.1951  0.1378
 1790BOLB   C4B42948  22.456  -3.973  25.982 -0.3039  0.0603  0.1312
 1790BOLB   NC242949  23.960  -5.638  26.467  0.4574  0.1374  0.0052
 1790BOLB   PO242950  24.284  -5.380  26.515 -0.2204  0.0471  0.1345
 1790BOLB   GL342951  23.984  -5.064  26.413  0.1322 -0.3025  0.0026
 1790BOLB   GL442952  23.977  -4.734  26.683  0.1940  0.0795 -0.2869
 1790BOLB   C1C42953  23.605  -4.832  26.380 -0.2417 -0.0002  0.1064
 1790BOLB   C2C42954  23.264  -4.502  26.477  0.1199  0.3515 -0.0068
 1790BOLB   C3C42955  23.381  -4.121  26.456 -0.0788 -0.0477 -0.2328
 1790BOLB   C4C42956  23.288  -3.818  26.540 -0.2678  0.1571 -0.1229
 1790BOLB   C1D42957  23.785  -4.412  26.649 -0.1479 -0.1167 -0.0787
 1790BOLB   C2D42958  23.701  -4.040  26.859  0.0527 -0.4044  0.0566
 1790BOLB   C3D42959  23.637  -3.630  26.817 -0.1881 -0.0398  0.1434
 1790BOLB   C4D42960  23.511  -3.323  26.969  0.1527 -0.0395 -0.0526
 1791BOLB   NC142961  21.391  -2.731  34.001 -0.3332  0.2194  0.1033
 1791BOLB   PO142962  21.487  -3.065  33.695  0.2453  0.0207 -0.0356
 1791BOLB   GL142963  21.174  -2.699  33.470  0.0302  0.3404 -0.3348
 1791BOLB   GL242964  20.862  -2.776  33.186 -0.2230  0.2531 -0.2898
 1791BOLB   C1A42965  21.002  -2.348  33.592  0.2050 -0.1940 -0.2200
 1791BOLB   C2A42966  21.002  -2.042  33.166  0.1940  0.3726  0.0148
 1791BOLB   C3A42967  21.187  -1.645  33.144  0.2211 -0.0112  0.4273
 1791BOLB   C4A42968  21.222  -1.313  32.865 -0.0556 -0.0126  0.0999
 1791BOLB   C1B42969  20.435  -2.666  33.132 -0.0968 -0.3265 -0.3744
 1791BOLB   C2B42970  20.096  -2.381  33.023 -0.1135  0.1855 -0.2391
 1791BOLB   C3B42971  19.894  -1.986  32.803  0.2320 -0.0620 -0.1638
 1791BOLB   C4B42972  19.816  -1.820  32.336  0.0993  0.2966  0.0190
 1791BOLB   NC242973  23.082  -1.350  34.478 -0.3178  0.0050  0.1298
 1791BOLB   PO242974  22.691  -1.305  34.484  0.1725 -0.0355 -0.1352
 1791BOLB   GL342975  22.700  -0.989  34.203  0.1025  0.1093  0.1592
 1791BOLB   GL442976  22.730  -0.599  34.090 -0.1771 -0.1657  0.1097
 1791BOLB   C1C42977  22.466  -0.909  33.762 -0.1024 -0.0236 -0.0221
 1791BOLB   C2C42978  22.370  -1.067  33.271 -0.0711 -0.0955 -0.1031
 1791BOLB   C3C42979  21.976  -1.017  33.128 -0.0184 -0.0035 -0.0628
 1791BOLB   C4C42980  21.618  -0.990  32.892  0.0687  0.0452  0.0892
 1791BOLB   C1D42981  22.689  -0.447  33.734  0.1309  0.0548 -0.4882
 1791BOLB   C2D42982  22.363  -0.358  33.590 -0.2643 -0.0623 -0.2018
 1791BOLB   C3D42983  22.037  -0.617  33.655 -0.0966  0.4405 -0.0526
 1791BOLB   C4D42984  21.917  -0.997  33.594  0.1464  0.2392  0.3261
 1792BOLB   NC142985  22.842   1.064  19.906 -0.0441  0.1382 -0.0589
 1792BOLB   PO142986  22.943   0.675  19.851  0.0583 -0.0783 -0.0162
 1792BOLB   GL142987  23.304   0.558  19.583  0.0050  0.1685 -0.3003
 1792BOLB   GL242988  23.361   0.830  19.361  0.1712 -0.1072 -0.1671
 1792BOLB   C1A42989  23.708   0.374  19.434 -0.1409 -0.0028 -0.0363
 1792BOLB   C2A42990  24.112   0.376  19.135  0.4146  0.2615  0.0398
 1792BOLB   C3A42991  24.363   0.461  18.751 -0.1694 -0.2434 -0.1327
 1792BOLB   C4A42992  24.524   0.347  18.425  0.1413 -0.0720  0.0621
 1792BOLB   C1B42993  23.803   0.812  19.141 -0.0548 -0.1273  0.1605
 1792BOLB   C2B42994  24.033   1.181  18.854 -0.0545 -0.0561  0.0085
 1792BOLB   C3B42995  24.175   1.375  18.479 -0.1552  0.0415 -0.0218
 1792BOLB   C4B42996  24.417   1.634  18.194  0.1064  0.0912 -0.0416
 1792BOLB   NC242997  26.798   0.108  18.925  0.0868 -0.1449  0.1950
 1792BOLB   PO242998  26.840   0.149  18.494  0.0810  0.1500  0.1324
 1792BOLB   GL342999  26.425   0.229  18.494  0.4745 -0.3506  0.1288
 1792BOLB   GL443000  26.354   0.496  18.782  0.0873 -0.0875  0.0609
 1792BOLB   C1C43001  26.035  -0.006  18.582  0.0398 -0.0406  0.1861
 1792BOLB   C2C43002  25.646  -0.038  18.665  0.1033 -0.2155 -0.0661
 1792BOLB   C3C43003  25.320   0.094  18.404 -0.1064  0.1981 -0.2459
 1792BOLB   C4C43004  24.867   0.092  18.404 -0.1253 -0.0499 -0.1686
 1792BOLB   C1D43005  26.169   0.635  19.131  0.0332 -0.2091 -0.1759
 1792BOLB   C2D43006  25.728   0.710  19.183 -0.0781 -0.0704 -0.2594
 1792BOLB   C3D43007  25.396   0.989  19.313 -0.0792 -0.1931  0.0434
 1792BOLB   C4D43008  24.935   1.103  19.320  0.0200  0.0008 -0.1009
 1793BOLB   NC143009   8.922  -1.403  26.087 -0.0201 -0.0157  0.1852
 1793BOLB   PO143010   8.562  -1.137  26.407 -0.2073 -0.1532 -0.2153
 1793BOLB   GL143011   8.523  -1.524  26.351  0.0322  0.1412  0.0552
 1793BOLB   GL243012   8.760  -1.839  26.521  0.1520  0.1018  0.0320
 1793BOLB   C1A43013   8.171  -1.655  26.312 -0.0040 -0.1032  0.1975
 1793BOLB   C2A43014   7.884  -1.871  26.456  0.1097 -0.1601 -0.1371
 1793BOLB   C3A43015   7.454  -1.986  26.419  0.1764  0.3203  0.0552
 1793BOLB   C4A43016   7.017  -1.854  26.503 -0.1443 -0.1816 -0.0660
 1793BOLB   C1B43017   8.402  -2.086  26.807 -0.0617  0.0240  0.0620
 1793BOLB   C2B43018   8.249  -2.534  26.956  0.0137  0.1351  0.3062
 1793BOLB   C3B43019   8.358  -2.838  26.670 -0.0090 -0.0368  0.0897
 1793BOLB   C4B43020   8.325  -3.226  26.775  0.2094  0.1954 -0.0706
 1793BOLB   NC243021   5.079  -3.021  27.444  0.0056 -0.0800  0.0924
 1793BOLB   PO243022   4.859  -2.704  27.683 -0.1748  0.0662  0.5052
 1793BOLB   GL343023   5.284  -2.617  27.646 -0.0674  0.2600 -0.0827
 1793BOLB   GL443024   5.619  -2.763  27.823 -0.0148  0.0599  0.0940
 1793BOLB   C1C43025   5.532  -2.404  27.372 -0.1998 -0.1358  0.2249
 1793BOLB   C2C43026   5.915  -2.202  27.104 -0.1919 -0.2786  0.1041
 1793BOLB   C3C43027   6.404  -2.128  26.867  0.1564 -0.1526 -0.1114
 1793BOLB   C4C43028   6.682  -1.898  26.645  0.0313 -0.0066  0.0094
 1793BOLB   C1D43029   6.083  -2.615  27.897 -0.0000 -0.0100 -0.0821
 1793BOLB   C2D43030   6.483  -2.861  27.982  0.0885  0.0909 -0.2346
 1793BOLB   C3D43031   7.005  -2.977  28.173  0.3646  0.3181  0.1839
 1793BOLB   C4D43032   7.377  -3.144  28.441  0.0946  0.0177  0.0209
 1794BOLB   NC143033  11.697  -3.741  21.775 -0.2879 -0.2657 -0.1627
 1794BOLB   PO143034  12.160  -3.796  21.681 -0.0649 -0.3482  0.0705
 1794BOLB   GL143035  12.159  -4.194  21.718 -0.4043  0.0246 -0.0739
 1794BOLB   GL243036  11.958  -4.267  22.039 -0.1798  0.3566  0.1858
 1794BOLB   C1A43037  12.092  -4.774  21.553  0.0614 -0.2613 -0.0687
 1794BOLB   C2A43038  11.918  -4.970  21.239 -0.1313 -0.2627 -0.1095
 1794BOLB   C3A43039  11.672  -5.287  20.965  0.0195  0.0984 -0.1733
 1794BOLB   C4A43040  11.465  -5.508  20.548 -0.0812  0.1233 -0.1021
 1794BOLB   C1B43041  11.765  -4.428  21.664  0.0433  0.1507 -0.1848
 1794BOLB   C2B43042  11.550  -4.601  21.414  0.0478 -0.0162 -0.1571
 1794BOLB   C3B43043  11.172  -4.837  21.154 -0.0816 -0.0109 -0.0723
 1794BOLB   C4B43044  10.905  -5.220  20.996 -0.0535 -0.1194 -0.1249
 1794BOLB   NC243045   9.150  -6.357  18.977 -0.0768  0.1414 -0.1295
 1794BOLB   PO243046   9.568  -6.506  19.120 -0.0580 -0.3027 -0.2107
 1794BOLB   GL343047   9.856  -6.171  19.285 -0.0313 -0.1986 -0.2018
 1794BOLB   GL443048   9.907  -6.243  19.621  0.1723 -0.4549  0.3161
 1794BOLB   C1C43049  10.106  -5.750  19.379 -0.0792 -0.0550 -0.2415
 1794BOLB   C2C43050  10.449  -5.743  19.733 -0.2267 -0.1775 -0.0066
 1794BOLB   C3C43051  10.714  -5.599  20.069  0.0120  0.0921  0.1386
 1794BOLB   C4C43052  11.204  -5.746  20.275 -0.1647  0.1419  0.2408
 1794BOLB   C1D43053  10.301  -6.228  19.735 -0.1067  0.1673 -0.2602
 1794BOLB   C2D43054  10.624  -6.107  20.053  0.1422 -0.2669  0.0154
 1794BOLB   C3D43055  11.064  -6.218  20.208 -0.0531 -0.0510 -0.2808
 1794BOLB   C4D43056  11.125  -6.617  20.135 -0.1896 -0.0224  0.1203
 1795BOLB   NC143057  15.788   4.888  16.846 -0.2009  0.0501 -0.0777
 1795BOLB   PO143058  16.010   4.711  16.513 -0.1048 -0.0866  0.0341
 1795BOLB   GL143059  16.061   4.782  16.141 -0.2574 -0.1177 -0.0346
 1795BOLB   GL243060  16.345   4.812  16.141  0.2432 -0.1471 -0.0979
 1795BOLB   C1A43061  15.889   4.826  15.715 -0.0405  0.1951  0.0478
 1795BOLB   C2A43062  15.648   5.217  15.430  0.1728  0.0817 -0.2132
 1795BOLB   C3A43063  15.517   5.357  15.069  0.4254  0.0550  0.2737
 1795BOLB   C4A43064  15.529   5.147  14.672 -0.1207 -0.0828 -0.3271
 1795BOLB   C1B43065  16.407   4.851  15.686 -0.0265  0.0554  0.1187
 1795BOLB   C2B43066  16.506   4.872  15.218  0.1321  0.0629  0.4614
 1795BOLB   C3B43067  16.390   4.863  14.823  0.2371  0.0810  0.2937
 1795BOLB   C4B43068  16.329   5.176  14.579 -0.2001  0.1458  0.3387
 1795BOLB   NC243069  16.148   6.660  12.865 -0.3837 -0.0257 -0.3181
 1795BOLB   PO243070  16.284   6.204  12.973  0.0712 -0.1085  0.0130
 1795BOLB   GL343071  16.162   5.760  13.119  0.1257  0.2334 -0.1213
 1795BOLB   GL443072  15.953   5.479  12.982 -0.1064 -0.0472  0.1008
 1795BOLB   C1C43073  16.232   5.481  13.426 -0.3522  0.1090  0.1062
 1795BOLB   C2C43074  16.031   5.276  13.733  0.2365  0.4366 -0.1331
 1795BOLB   C3C43075  15.738   5.350  13.990 -0.2495 -0.1285 -0.0461
 1795BOLB   C4C43076  15.591   5.227  14.324  0.0495 -0.3750  0.2094
 1795BOLB   C1D43077  15.741   5.264  13.302 -0.1040 -0.3515  0.3312
 1795BOLB   C2D43078  15.462   5.026  13.558 -0.2107 -0.1902  0.1494
 1795BOLB   C3D43079  15.714   4.890  13.886  0.0112 -0.0049  0.0948
 1795BOLB   C4D43080  16.025   5.048  14.187  0.2000 -0.1172 -0.0271
 1796BOLB   NC143081  18.193  -1.179   9.869  0.0328 -0.2342  0.0199
 1796BOLB   PO143082  18.534  -1.340  10.089  0.0641  0.1647  0.3348
 1796BOLB   GL143083  18.583  -1.189  10.555  0.1875  0.2153 -0.1917
 1796BOLB   GL243084  18.849  -0.904  10.512 -0.0838 -0.1963 -0.0540
 1796BOLB   C1A43085  18.673  -1.096  10.990 -0.0988  0.1174  0.0190
 1796BOLB   C2A43086  18.799  -0.937  11.334 -0.0509 -0.2739  0.2396
 1796BOLB   C3A43087  19.082  -0.913  11.674  0.3357 -0.0280  0.0635
 1796BOLB   C4A43088  19.311  -0.701  11.951 -0.2352  0.0455  0.0552
 1796BOLB   C1B43089  19.188  -1.216  10.689 -0.1240 -0.2122  0.0176
 1796BOLB   C2B43090  19.108  -1.452  11.069 -0.0227  0.1161 -0.1347
 1796BOLB   C3B43091  19.277  -1.512  11.501 -0.1290 -0.0699  0.1974
 1796BOLB   C4B43092  19.681  -1.227  11.631 -0.1737 -0.2344  0.3627
 1796BOLB   NC243093  19.458   0.730  10.295  0.1864 -0.1360  0.0418
 1796BOLB   PO243094  19.919   0.732  10.310  0.0767  0.0598  0.5210
 1796BOLB   GL343095  19.944   0.535  10.624 -0.0384 -0.1073  0.5881
 1796BOLB   GL443096  20.224   0.554  10.702 -0.0715  0.2036 -0.0405
 1796BOLB   C1C43097  19.763   0.277  10.903  0.0330  0.3859  0.0911
 1796BOLB   C2C43098  19.783  -0.016  11.202 -0.2495  0.1030 -0.1011
 1796BOLB   C3C43099  19.851  -0.184  11.672 -0.1129  0.1099  0.2593
 1796BOLB   C4C43100  19.577  -0.382  11.967  0.0316 -0.1653  0.2321
 1796BOLB   C1D43101  20.282   0.672  11.159  0.0116 -0.0927 -0.0034
 1796BOLB   C2D43102  20.252   0.693  11.664 -0.2821  0.0455 -0.5452
 1796BOLB   C3D43103  20.132   0.738  12.163 -0.0016  0.0586 -0.0959
 1796BOLB   C4D43104  20.231   0.755  12.565  0.0976  0.2706  0.1208
 1797BOLB   NC143105  23.566  -0.486  26.896 -0.1880  0.1275 -0.0703
 1797BOLB   PO143106  23.851  -0.251  27.150 -0.2751 -0.0452 -0.0974
 1797BOLB   GL143107  24.165  -0.185  27.494  0.0189 -0.1963  0.0818
 1797BOLB   GL243108  24.376   0.095  27.497 -0.1652  0.0489 -0.0079
 1797BOLB   C1A43109  24.450  -0.331  27.796  0.3283 -0.2315  0.0814
 1797BOLB   C2A43110  24.967  -0.389  27.911  0.2300  0.1678  0.1283
 1797BOLB   C3A43111  25.162  -0.524  28.292  0.1303 -0.0832  0.2004
 1797BOLB   C4A43112  25.557  -0.640  28.259  0.0357  0.0290  0.7212
 1797BOLB   C1B43113  24.726  -0.134  27.296 -0.0419 -0.0593  0.1910
 1797BOLB   C2B43114  24.989  -0.339  26.999 -0.0745  0.0737 -0.0202
 1797BOLB   C3B43115  25.305  -0.513  26.785 -0.2211 -0.0962  0.1097
 1797BOLB   C4B43116  25.614  -0.728  26.837 -0.0625 -0.0461  0.1458
 1797BOLB   NC243117  27.006  -1.609  29.857  0.0585  0.0702 -0.1883
 1797BOLB   PO243118  27.263  -1.665  29.478 -0.0245 -0.0317  0.0522
 1797BOLB   GL343119  27.041  -1.326  29.383  0.2112 -0.2698 -0.1416
 1797BOLB   GL443120  26.783  -1.413  29.455 -0.0463 -0.1457 -0.0219
 1797BOLB   C1C43121  26.676  -1.178  29.024  0.0837 -0.0892  0.2025
 1797BOLB   C2C43122  26.315  -0.944  28.994  0.0652 -0.3289 -0.0032
 1797BOLB   C3C43123  26.088  -0.957  28.693  0.0183 -0.1383  0.0140
 1797BOLB   C4C43124  25.932  -0.715  28.445  0.0421 -0.1528 -0.1255
 1797BOLB   C1D43125  26.398  -1.096  29.408  0.0849  0.0716 -0.0642
 1797BOLB   C2D43126  25.915  -0.936  29.264 -0.0803  0.0015  0.0010
 1797BOLB   C3D43127  25.687  -0.804  29.012  0.0905 -0.3072  0.1429
 1797BOLB   C4D43128  25.351  -0.732  28.703 -0.5797  0.1429 -0.0749
 1798BOLB   NC143129  23.464   5.382  29.293 -0.0067  0.0103  0.2013
 1798BOLB   PO143130  23.575   5.398  29.743 -0.0056  0.0765 -0.0865
 1798BOLB   GL143131  24.016   5.381  29.840 -0.0496 -0.0768 -0.5281
 1798BOLB   GL243132  24.277   5.657  29.703 -0.0622 -0.0293 -0.0456
 1798BOLB   C1A43133  24.384   5.341  30.102  0.4844 -0.2860 -0.2051
 1798BOLB   C2A43134  24.757   5.438  30.166 -0.1449  0.2642  0.0878
 1798BOLB   C3A43135  25.004   5.654  30.192  0.1206 -0.1098  0.0924
 1798BOLB   C4A43136  25.269   5.919  30.179  0.0916 -0.3042 -0.1216
 1798BOLB   C1B43137  24.629   5.811  29.834 -0.0207 -0.2525 -0.1639
 1798BOLB   C2B43138  24.793   6.091  30.067 -0.0533  0.2980 -0.0270
 1798BOLB   C3B43139  25.127   6.378  30.151 -0.1855 -0.0095 -0.1451
 1798BOLB   C4B43140  25.311   6.394  30.525 -0.1710 -0.1660  0.1156
 1798BOLB   NC243141  28.134   6.527  29.729  0.0408 -0.2579 -0.2775
 1798BOLB   PO243142  27.768   6.593  29.971  0.1121  0.1893 -0.4225
 1798BOLB   GL343143  27.372   6.365  30.071 -0.1787 -0.1270 -0.0788
 1798BOLB   GL443144  27.101   6.464  29.792  0.0151  0.1324 -0.0632
 1798BOLB   C1C43145  26.999   6.304  30.201 -0.2764  0.2857 -0.0409
 1798BOLB   C2C43146  26.576   6.235  30.028  0.1488  0.2142  0.0832
 1798BOLB   C3C43147  26.109   6.089  30.021 -0.2483  0.1830 -0.2454
 1798BOLB   C4C43148  25.589   6.207  29.922 -0.0490 -0.1291 -0.1114
 1798BOLB   C1D43149  26.944   6.060  29.722 -0.0091 -0.2100  0.0420
 1798BOLB   C2D43150  26.494   5.861  29.615  0.3581  0.0973  0.1081
 1798BOLB   C3D43151  26.100   5.916  29.507 -0.1565 -0.1019  0.4224
 1798BOLB   C4D43152  25.765   5.807  29.663  0.0980  0.0741  0.0738
 1799BOLB   NC143153  12.487  -0.195  31.127 -0.3360  0.2785  0.2056
 1799BOLB   PO143154  12.061  -0.373  31.056 -0.2077  0.0251  0.1906
 1799BOLB   GL143155  11.927  -0.615  31.452  0.2028 -0.0034  0.0795
 1799BOLB   GL243156  11.650  -0.736  31.296 -0.0733  0.2915  0.0789
 1799BOLB   C1A43157  11.768  -0.927  31.734  0.2941 -0.0481 -0.2386
 1799BOLB   C2A43158  11.576  -1.335  31.913 -0.0860 -0.2826 -0.0634
 1799BOLB   C3A43159  11.321  -1.643  31.864 -0.0711  0.0415 -0.2219
 1799BOLB   C4A43160  11.087  -1.852  31.764  0.2552  0.3082  0.0146
 1799BOLB   C1B43161  11.365  -0.950  31.410 -0.0521  0.2734 -0.0423
 1799BOLB   C2B43162  11.147  -1.026  31.801  0.0115  0.3659 -0.1166
 1799BOLB   C3B43163  10.911  -1.010  32.091 -0.1184 -0.0663 -0.4895
 1799BOLB   C4B43164  10.939  -1.133  32.461  0.1341  0.1865  0.2077
 1799BOLB   NC243165   9.203  -2.655  33.135 -0.0688 -0.2777 -0.0564
 1799BOLB   PO243166   9.404  -2.566  33.505  0.1681 -0.3957 -0.2716
 1799BOLB   GL343167   9.675  -2.429  33.250  0.0869 -0.1167 -0.0346
 1799BOLB   GL443168   9.459  -2.258  32.942  0.1277  0.0269  0.2788
 1799BOLB   C1C43169  10.019  -2.279  32.910 -0.2161 -0.0501 -0.0802
 1799BOLB   C2C43170  10.257  -2.198  32.542  0.0139 -0.1806 -0.1814
 1799BOLB   C3C43171  10.651  -2.134  32.334 -0.1492 -0.1250 -0.0474
 1799BOLB   C4C43172  10.791  -2.092  31.914  0.0988 -0.2165 -0.1744
 1799BOLB   C1D43173   9.635  -2.204  32.506  0.3151 -0.3348 -0.0072
 1799BOLB   C2D43174   9.810  -1.990  32.126  0.1545 -0.2734 -0.1070
 1799BOLB   C3D43175   9.893  -1.669  31.792 -0.3207  0.0449 -0.0536
 1799BOLB   C4D43176  10.149  -1.547  31.449  0.0155  0.0492  0.0961
 1800BOLB   NC143177   8.376  -0.419  24.614 -0.0502 -0.3303  0.0141
 1800BOLB   PO143178   8.459  -0.866  24.639 -0.1986 -0.0597  0.1586
 1800BOLB   GL143179   8.224  -1.169  24.873  0.0677  0.1385 -0.0836
 1800BOLB   GL243180   7.990  -1.284  24.593  0.1766  0.0352 -0.1711
 1800BOLB   C1A43181   8.024  -1.552  24.996  0.0345  0.2185  0.3683
 1800BOLB   C2A43182   7.798  -1.917  25.006  0.0121  0.0178  0.0536
 1800BOLB   C3A43183   7.808  -2.379  25.000 -0.3411  0.2121  0.0941
 1800BOLB   C4A43184   8.049  -2.717  25.146 -0.1838  0.1028 -0.0706
 1800BOLB   C1B43185   7.552  -1.492  24.728 -0.1740  0.4486  0.1658
 1800BOLB   C2B43186   7.326  -1.823  24.848 -0.1028  0.0174 -0.0912
 1800BOLB   C3B43187   7.013  -2.177  24.778  0.3279 -0.0594  0.1202
 1800BOLB   C4B43188   7.099  -2.593  24.448  0.3998 -0.0050  0.0909
 1800BOLB   NC243189   6.626  -4.694  25.811  0.5912 -0.0301  0.1003
 1800BOLB   PO243190   6.206  -4.374  25.603 -0.1650 -0.1191 -0.2006
 1800BOLB   GL343191   6.587  -4.191  25.340  0.1960  0.0026  0.0329
 1800BOLB   GL443192   6.837  -4.256  25.540  0.0183  0.3079 -0.2748
 1800BOLB   C1C43193   6.761  -3.837  25.054  0.1378  0.3727  0.1574
 1800BOLB   C2C43194   7.075  -3.551  25.116 -0.1056 -0.3754 -0.0457
 1800BOLB   C3C43195   7.394  -3.219  25.118 -0.3125 -0.0849 -0.4416
 1800BOLB   C4C43196   7.735  -3.088  25.279  0.1711 -0.0347 -0.0441
 1800BOLB   C1D43197   7.102  -4.208  25.813 -0.4684 -0.1265 -0.0929
 1800BOLB   C2D43198   7.449  -4.063  26.065 -0.3969  0.2656 -0.0727
 1800BOLB   C3D43199   7.561  -3.691  26.125  0.0670 -0.0579 -0.0257
 1800BOLB   C4D43200   7.786  -3.372  26.319 -0.0109 -0.5707 -0.0350
 1801BOLB   NC143201  20.955  -3.998  32.862  0.0553  0.1836 -0.2078
 1801BOLB   PO143202  21.071  -4.089  32.423  0.1626  0.3744  0.0650
 1801BOLB   GL143203  20.818  -3.804  32.321  0.0503 -0.0021  0.1239
 1801BOLB   GL243204  20.998  -3.564  32.461  0.0816 -0.1550  0.1147
 1801BOLB   C1A43205  20.536  -3.543  32.169  0.1926 -0.3757  0.2293
 1801BOLB   C2A43206  20.459  -3.189  32.213 -0.2202  0.0761  0.2105
 1801BOLB   C3A43207  20.232  -2.869  32.132  0.3801 -0.0105 -0.2613
 1801BOLB   C4A43208  19.922  -2.769  31.873  0.0665 -0.0033 -0.2687
 1801BOLB   C1B43209  20.961  -3.169  32.175  0.0005  0.0771  0.1634
 1801BOLB   C2B43210  20.861  -2.838  31.887 -0.2894 -0.0948  0.1547
 1801BOLB   C3B43211  21.172  -2.666  31.562 -0.3605  0.1592  0.5000
 1801BOLB   C4B43212  21.219  -2.430  31.167 -0.1674 -0.0512 -0.1271
 1801BOLB   NC243213  20.684  -4.856  32.277  0.1150  0.2191 -0.1832
 1801BOLB   PO243214  20.702  -4.705  31.844 -0.1022  0.0225  0.1379
 1801BOLB   GL343215  20.447  -4.664  31.444  0.0090  0.0336  0.2210
 1801BOLB   GL443216  20.355  -4.462  31.171 -0.0747  0.0561  0.1506
 1801BOLB   C1C43217  20.056  -4.374  31.522  0.2482 -0.0622 -0.0598
 1801BOLB   C2C43218  19.844  -3.889  31.555 -0.4458  0.0481 -0.4207
 1801BOLB   C3C43219  19.658  -3.424  31.463 -0.1019  0.0161  0.0799
 1801BOLB   C4C43220  19.925  -3.020  31.530  0.4847 -0.1048  0.0081
 1801BOLB   C1D43221  19.937  -4.145  31.079 -0.1767 -0.0975 -0.0323
 1801BOLB   C2D43222  19.676  -4.014  30.672  0.0734 -0.0329  0.0391
 1801BOLB   C3D43223  19.341  -4.016  30.374  0.0753  0.1391  0.0832
 1801BOLB   C4D43224  19.162  -3.981  30.023  0.1192 -0.2443 -0.0726
 1802BOLB   NC143225  14.550  -3.875  25.299 -0.1865  0.3414 -0.2291
 1802BOLB   PO143226  14.515  -4.210  25.685  0.1252  0.2409  0.1488
 1802BOLB   GL143227  14.404  -4.479  26.036  0.3370 -0.0962 -0.0668
 1802BOLB   GL243228  14.419  -4.507  26.405 -0.1028  0.0243 -0.1762
 1802BOLB   C1A43229  14.016  -4.740  26.144 -0.2960 -0.0416 -0.0188
 1802BOLB   C2A43230  13.915  -5.140  26.220  0.0330  0.1985 -0.1935
 1802BOLB   C3A43231  13.993  -5.606  26.321  0.0532  0.2176  0.1197
 1802BOLB   C4A43232  13.927  -5.975  26.557  0.0516  0.1453  0.0480
 1802BOLB   C1B43233  14.302  -4.853  26.497  0.0012  0.4085 -0.0169
 1802BOLB   C2B43234  14.337  -5.106  26.860 -0.2252 -0.2662 -0.0272
 1802BOLB   C3B43235  14.421  -5.395  27.237  0.3911 -0.0487  0.1886
 1802BOLB   C4B43236  14.581  -5.586  27.606 -0.0480  0.0001  0.1075
 1802BOLB   NC243237  12.979  -7.868  26.999 -0.0227 -0.0889 -0.1137
 1802BOLB   PO243238  13.111  -8.096  26.645 -0.0484  0.1681  0.0953
 1802BOLB   GL343239  13.365  -7.780  26.756 -0.0243 -0.1871 -0.2412
 1802BOLB   GL443240  13.529  -7.787  26.527 -0.0507 -0.2960 -0.0910
 1802BOLB   C1C43241  13.461  -7.502  27.030 -0.0024  0.2834 -0.1503
 1802BOLB   C2C43242  13.742  -7.155  26.935 -0.2742  0.1594 -0.1002
 1802BOLB   C3C43243  13.812  -6.763  26.883 -0.4084  0.1864 -0.3687
 1802BOLB   C4C43244  13.992  -6.416  26.785  0.0344 -0.1791  0.3045
 1802BOLB   C1D43245  13.773  -7.344  26.497 -0.0954  0.0228  0.0194
 1802BOLB   C2D43246  14.104  -7.037  26.559  0.1828 -0.0070 -0.0391
 1802BOLB   C3D43247  14.337  -6.606  26.447  0.0005 -0.1547 -0.0492
 1802BOLB   C4D43248  14.245  -6.210  26.139  0.3192 -0.0398 -0.0116
 1803BOLB   NC143249  19.578  -3.303  26.248 -0.0922  0.1411 -0.3108
 1803BOLB   PO143250  19.819  -3.064  26.572 -0.6454 -0.0361  0.0728
 1803BOLB   GL143251  19.927  -3.420  26.670  0.1341  0.3311  0.0705
 1803BOLB   GL243252  20.168  -3.530  26.522 -0.1631 -0.1264 -0.1151
 1803BOLB   C1A43253  20.075  -3.823  26.875  0.1245  0.1597 -0.2256
 1803BOLB   C2A43254  20.310  -4.180  26.731  0.0880  0.0598  0.2009
 1803BOLB   C3A43255  20.452  -4.505  26.593  0.2412  0.0127 -0.1119
 1803BOLB   C4A43256  20.607  -4.847  26.360  0.2513 -0.0407  0.2089
 1803BOLB   C1B43257  20.206  -3.825  26.334  0.0131  0.1226  0.1661
 1803BOLB   C2B43258  20.328  -4.222  26.122 -0.0755 -0.0356 -0.0354
 1803BOLB   C3B43259  20.312  -4.599  25.919 -0.1829  0.1918  0.1585
 1803BOLB   C4B43260  20.188  -4.840  25.571  0.3171  0.1761  0.1815
 1803BOLB   NC243261  21.941  -7.284  25.704 -0.2266 -0.2680 -0.0828
 1803BOLB   PO243262  21.734  -6.880  25.908  0.0290 -0.2764 -0.0849
 1803BOLB   GL343263  21.574  -6.611  26.027 -0.2643  0.1393 -0.2363
 1803BOLB   GL443264  21.804  -6.357  26.188 -0.3491  0.1896 -0.0213
 1803BOLB   C1C43265  21.288  -6.258  25.979  0.0951 -0.3697  0.0187
 1803BOLB   C2C43266  21.049  -5.905  25.931  0.1632  0.0351  0.0485
 1803BOLB   C3C43267  20.985  -5.436  25.964 -0.0184  0.0232 -0.0231
 1803BOLB   C4C43268  20.917  -5.133  26.334  0.0031  0.0419  0.1073
 1803BOLB   C1D43269  21.625  -5.936  26.145 -0.1508 -0.0708 -0.2474
 1803BOLB   C2D43270  21.569  -5.502  26.073  0.0932  0.2521 -0.0417
 1803BOLB   C3D43271  21.653  -5.139  26.285 -0.2838  0.2709 -0.1005
 1803BOLB   C4D43272  21.584  -4.739  26.242 -0.0745  0.2375  0.4029
 1804BOLB   NC143273  11.893  12.298  26.930 -0.1981 -0.2925  0.0814
 1804BOLB   PO143274  12.003  12.502  27.247 -0.0553 -0.2036  0.3335
 1804BOLB   GL143275  11.871  12.822  26.924  0.2320  0.1884  0.0374
 1804BOLB   GL243276  11.608  12.748  26.638  0.0371  0.0018  0.2440
 1804BOLB   C1A43277  11.751  13.188  26.900 -0.0116 -0.0156 -0.2209
 1804BOLB   C2A43278  11.939  13.591  27.139  0.1253  0.1102 -0.0785
 1804BOLB   C3A43279  11.968  13.979  27.302 -0.0606 -0.2855 -0.0168
 1804BOLB   C4A43280  11.658  14.127  27.634  0.2328  0.1703  0.1612
 1804BOLB   C1B43281  11.335  13.080  26.716 -0.2339 -0.2214  0.5206
 1804BOLB   C2B43282  11.332  13.548  26.943  0.0159  0.4410 -0.2081
 1804BOLB   C3B43283  11.530  13.944  27.041  0.0335  0.0813  0.0391
 1804BOLB   C4B43284  11.706  14.247  26.895  0.3301  0.1523 -0.0530
 1804BOLB   NC243285  10.306  16.121  27.683 -0.2206 -0.1792  0.1447
 1804BOLB   PO243286  10.388  16.047  28.216  0.2780  0.4287  0.3515
 1804BOLB   GL343287  10.598  15.683  28.263  0.1189  0.0925  0.0991
 1804BOLB   GL443288  10.497  15.511  28.556  0.2617 -0.0178 -0.0690
 1804BOLB   C1C43289  10.807  15.362  28.113  0.0181  0.3538  0.0487
 1804BOLB   C2C43290  10.743  14.942  28.104  0.0695  0.1426  0.0548
 1804BOLB   C3C43291  10.969  14.631  27.996  0.0028  0.1083 -0.2244
 1804BOLB   C4C43292  11.292  14.271  27.937  0.0127 -0.0399 -0.0236
 1804BOLB   C1D43293  10.359  15.157  28.323 -0.1075 -0.1319  0.0912
 1804BOLB   C2D43294  10.276  14.813  28.085 -0.0649 -0.0661 -0.0806
 1804BOLB   C3D43295  10.395  14.515  27.891 -0.0837  0.1892 -0.0505
 1804BOLB   C4D43296  10.363  14.212  27.728 -0.1744  0.0375 -0.0643
 1805BOLB   NC143297  16.632  -1.030  11.054 -0.3665 -0.3634 -0.0481
 1805BOLB   PO143298  16.734  -1.326  10.765  0.0413 -0.2094  0.1979
 1805BOLB   GL143299  17.052  -1.448  11.098  0.0083 -0.1799  0.0261
 1805BOLB   GL243300  17.211  -1.596  10.955  0.3328  0.1966 -0.1347
 1805BOLB   C1A43301  17.074  -1.456  11.512  0.0590 -0.2274 -0.1252
 1805BOLB   C2A43302  17.498  -1.485  11.653  0.4231 -0.2160 -0.0315
 1805BOLB   C3A43303  17.817  -1.873  11.622 -0.2044  0.0211  0.1871
 1805BOLB   C4A43304  18.035  -2.250  11.762  0.2287  0.1567 -0.1063
 1805BOLB   C1B43305  17.555  -1.450  11.151  0.1280  0.0930 -0.1714
 1805BOLB   C2B43306  17.861  -1.227  11.164 -0.0633 -0.2090  0.0474
 1805BOLB   C3B43307  18.262  -1.037  11.364 -0.4592 -0.1443 -0.0333
 1805BOLB   C4B43308  18.311  -0.756  11.671 -0.0026  0.2121  0.2085
 1805BOLB   NC243309  16.699  -2.587  10.803 -0.1275 -0.0654  0.3841
 1805BOLB   PO243310  16.904  -2.802  10.425  0.1743  0.0182  0.1343
 1805BOLB   GL343311  17.363  -2.845  10.697  0.1608 -0.0334  0.2504
 1805BOLB   GL443312  17.192  -3.105  10.617  0.4088  0.2136 -0.0183
 1805BOLB   C1C43313  17.700  -3.118  10.770  0.0609  0.0523  0.1438
 1805BOLB   C2C43314  17.829  -3.305  11.022  0.0256 -0.1169  0.2971
 1805BOLB   C3C43315  18.085  -3.110  11.377  0.0869 -0.2508 -0.0443
 1805BOLB   C4C43316  18.167  -2.779  11.668 -0.1323 -0.0781  0.0749
 1805BOLB   C1D43317  17.287  -3.334  10.982  0.2902  0.0437  0.1427
 1805BOLB   C2D43318  17.141  -3.482  11.341  0.1011  0.0027 -0.3107
 1805BOLB   C3D43319  17.143  -3.821  11.488 -0.2110 -0.0483 -0.2526
 1805BOLB   C4D43320  17.207  -4.294  11.367  0.1096 -0.1264 -0.0975
 1806BOLB   NC143321  13.344  -0.108  17.068  0.2472  0.1345  0.0179
 1806BOLB   PO143322  13.386  -0.669  17.027 -0.1090  0.0982  0.0034
 1806BOLB   GL143323  13.129  -0.860  16.683 -0.2127  0.1849  0.1633
 1806BOLB   GL243324  12.921  -0.758  16.527  0.2549  0.4297  0.0191
 1806BOLB   C1A43325  13.292  -1.317  16.603  0.3207  0.1069 -0.2273
 1806BOLB   C2A43326  13.232  -1.589  16.798 -0.0782  0.0854  0.1631
 1806BOLB   C3A43327  12.865  -1.731  16.851  0.2214  0.2099  0.3506
 1806BOLB   C4A43328  12.618  -1.921  16.527  0.0966 -0.1652 -0.0048
 1806BOLB   C1B43329  12.497  -0.779  16.281  0.2252 -0.1335  0.1215
 1806BOLB   C2B43330  12.099  -0.886  16.109 -0.3096  0.0529 -0.1040
 1806BOLB   C3B43331  11.942  -1.240  15.735  0.0501 -0.2902  0.0659
 1806BOLB   C4B43332  12.013  -1.455  15.372  0.0651 -0.2550 -0.4317
 1806BOLB   NC243333  11.582  -3.165  14.611 -0.3238  0.2012 -0.1028
 1806BOLB   PO243334  11.691  -2.806  14.598 -0.3481 -0.0312 -0.0499
 1806BOLB   GL343335  11.902  -2.642  14.919  0.3810  0.2088  0.0588
 1806BOLB   GL443336  12.094  -2.382  14.723 -0.0671 -0.1866 -0.0503
 1806BOLB   C1C43337  11.813  -2.598  15.318  0.2171 -0.2248 -0.3534
 1806BOLB   C2C43338  12.117  -2.446  15.583 -0.1446 -0.1044  0.2596
 1806BOLB   C3C43339  12.294  -2.364  15.959 -0.0984 -0.1332 -0.2020
 1806BOLB   C4C43340  12.383  -2.104  16.166  0.0752 -0.2227  0.2057
 1806BOLB   C1D43341  12.011  -2.197  15.145 -0.0176  0.1606 -0.0866
 1806BOLB   C2D43342  12.103  -1.917  15.496 -0.1476  0.0427  0.3044
 1806BOLB   C3D43343  12.239  -1.673  15.865  0.0145 -0.1685 -0.1033
 1806BOLB   C4D43344  12.513  -1.245  15.848  0.2921  0.0649  0.1985
 1807BOLB   NC143345  15.143   3.421  16.439  0.2287 -0.2919 -0.0933
 1807BOLB   PO143346  15.495   3.579  16.474 -0.0806  0.4476  0.0668
 1807BOLB   GL143347  15.485   3.526  15.982  0.3544  0.0136  0.2644
 1807BOLB   GL243348  15.213   3.306  15.855  0.0475 -0.0279 -0.3353
 1807BOLB   C1A43349  15.654   3.588  15.533  0.1563 -0.1663  0.1843
 1807BOLB   C2A43350  15.803   3.614  15.147 -0.0595  0.0471 -0.0381
 1807BOLB   C3A43351  15.658   3.472  14.735 -0.0360 -0.0246  0.3494
 1807BOLB   C4A43352  15.413   3.240  14.434 -0.1280  0.1742 -0.3645
 1807BOLB   C1B43353  15.028   3.452  15.443  0.1069  0.0379  0.1071
 1807BOLB   C2B43354  14.939   3.334  15.076 -0.0216  0.0100  0.0810
 1807BOLB   C3B43355  14.679   3.212  14.665 -0.1709 -0.3004 -0.1570
 1807BOLB   C4B43356  14.205   3.330  14.711 -0.0821  0.1240  0.1758
 1807BOLB   NC243357  14.629   3.690  12.441  0.1760  0.1069 -0.2295
 1807BOLB   PO243358  14.701   4.071  12.655  0.0927  0.2943 -0.4164
 1807BOLB   GL343359  15.033   3.870  12.872 -0.1406  0.0243  0.4298
 1807BOLB   GL443360  14.996   4.077  13.167 -0.1500 -0.4054  0.1360
 1807BOLB   C1C43361  15.112   3.555  13.131  0.1840  0.0112  0.0659
 1807BOLB   C2C43362  15.172   3.152  13.203 -0.1311  0.0463  0.0443
 1807BOLB   C3C43363  15.274   2.979  13.568 -0.0042  0.0131  0.0698
 1807BOLB   C4C43364  15.177   3.091  14.102 -0.0518 -0.2846 -0.1696
 1807BOLB   C1D43365  14.788   3.755  13.540 -0.0056 -0.0580  0.1329
 1807BOLB   C2D43366  14.827   3.693  13.941  0.1598  0.0938  0.2572
 1807BOLB   C3D43367  14.975   3.539  14.276 -0.0773  0.0911  0.0805
 1807BOLB   C4D43368  15.036   3.605  14.661  0.0231 -0.1219 -0.0189
 1808BOLB   NC143369  15.749  -5.713  31.779 -0.1394  0.0124 -0.2245
 1808BOLB   PO143370  15.215  -5.941  31.817 -0.0967 -0.0999 -0.1003
 1808BOLB   GL143371  15.152  -5.504  31.750  0.0846  0.3716 -0.0906
 1808BOLB   GL243372  15.309  -5.428  31.488 -0.0483  0.1285 -0.2252
 1808BOLB   C1A43373  14.996  -5.101  31.704  0.1730 -0.0141 -0.1032
 1808BOLB   C2A43374  14.996  -4.884  31.359  0.2428  0.1962  0.3570
 1808BOLB   C3A43375  15.118  -4.558  31.008 -0.0243 -0.0699 -0.3258
 1808BOLB   C4A43376  15.140  -4.427  30.631 -0.1389  0.1142 -0.3353
 1808BOLB   C1B43377  15.474  -5.017  31.303 -0.3089 -0.0909 -0.1063
 1808BOLB   C2B43378  15.583  -4.821  30.991  0.1761  0.0468 -0.3899
 1808BOLB   C3B43379  15.610  -4.493  30.702  0.1121  0.1904 -0.0381
 1808BOLB   C4B43380  15.556  -4.515  30.343 -0.0154  0.0205 -0.0781
 1808BOLB   NC243381  14.665  -5.732  31.908  0.0264  0.1695 -0.1902
 1808BOLB   PO243382  14.736  -6.162  31.721  0.1894 -0.0134 -0.1469
 1808BOLB   GL343383  14.790  -5.766  31.432 -0.0120 -0.1407  0.0582
 1808BOLB   GL443384  14.483  -5.842  31.388 -0.2232  0.1732 -0.2720
 1808BOLB   C1C43385  14.705  -5.359  31.241  0.0736 -0.3462 -0.2051
 1808BOLB   C2C43386  14.541  -5.207  30.797 -0.0150 -0.0074  0.2442
 1808BOLB   C3C43387  14.616  -5.093  30.320 -0.3858  0.0571 -0.2059
 1808BOLB   C4C43388  14.873  -4.635  30.252 -0.1966  0.0046 -0.0409
 1808BOLB   C1D43389  14.267  -5.527  31.194 -0.2473  0.1830 -0.2458
 1808BOLB   C2D43390  14.100  -5.148  31.091  0.2404 -0.0404  0.3925
 1808BOLB   C3D43391  14.140  -4.691  30.946 -0.0664 -0.1086 -0.2288
 1808BOLB   C4D43392  13.835  -4.470  30.893 -0.0835 -0.0502  0.4747
 1809DPPC   NC343393  13.126  -8.477  22.711 -0.1313 -0.1896  0.3035
 1809DPPC   PO443394  12.676  -8.392  22.607 -0.0030  0.0524 -0.0650
 1809DPPC   GL143395  12.825  -7.942  22.608  0.0415 -0.1965  0.3817
 1809DPPC   GL243396  12.660  -7.850  22.366 -0.1762  0.0615  0.1953
 1809DPPC   C1A43397  13.211  -7.836  22.545 -0.0939  0.0766 -0.0281
 1809DPPC   C2A43398  13.491  -7.542  22.692 -0.3154 -0.0542 -0.1033
 1809DPPC   C3A43399  13.677  -7.157  23.049 -0.4203  0.0299  0.1587
 1809DPPC   C4A43400  13.381  -6.799  23.161 -0.4582  0.2564  0.3182
 1809DPPC   C1B43401  12.674  -7.480  22.138 -0.0547  0.1691  0.0568
 1809DPPC   C2B43402  12.922  -7.192  21.936 -0.0082 -0.0079  0.2849
 1809DPPC   C3B43403  13.187  -6.925  22.117  0.1397 -0.2459  0.1989
 1809DPPC   C4B43404  13.228  -6.519  22.389 -0.3480  0.3550 -0.1813
 1810DPPC   NC343405  15.990  -6.779  31.026  0.4306  0.0255  0.0922
 1810DPPC   PO443406  16.025  -6.411  31.343  0.1183  0.0395  0.0147
 1810DPPC   GL143407  16.009  -5.971  31.172 -0.1206 -0.0796 -0.2902
 1810DPPC   GL243408  15.650  -5.814  31.271 -0.0736  0.0574 -0.2095
 1810DPPC   C1A43409  16.181  -5.594  30.926  0.2275  0.2009  0.1068
 1810DPPC   C2A43410  16.087  -5.152  30.697 -0.2381 -0.0318  0.1919
 1810DPPC   C3A43411  16.120  -4.734  30.882 -0.1016  0.1451 -0.0271
 1810DPPC   C4A43412  16.093  -4.330  30.884 -0.1504 -0.1945 -0.0317
 1810DPPC   C1B43413  15.781  -5.439  31.182 -0.0165 -0.0607  0.0384
 1810DPPC   C2B43414  16.019  -5.173  31.240  0.3293  0.0560  0.1806
 1810DPPC   C3B43415  16.303  -4.792  31.312  0.0978 -0.0647 -0.2888
 1810DPPC   C4B43416  16.235  -4.560  31.594  0.1068  0.2493 -0.0247
 1811DPPC   NC343417   4.737  -2.849  27.083  0.1704  0.0239  0.2663
 1811DPPC   PO443418   4.678  -2.413  27.280  0.1556  0.1648  0.1209
 1811DPPC   GL143419   5.061  -2.083  27.122  0.2787 -0.0834 -0.2371
 1811DPPC   GL243420   5.107  -1.773  26.998 -0.2686  0.2727  0.2840
 1811DPPC   C1A43421   5.513  -2.120  26.871 -0.3015 -0.2829  0.5404
 1811DPPC   C2A43422   5.898  -1.884  26.717  0.1554  0.0470  0.1319
 1811DPPC   C3A43423   6.117  -1.592  26.897 -0.2252 -0.2394  0.1522
 1811DPPC   C4A43424   6.228  -1.093  26.851 -0.3609  0.4144 -0.0558
 1811DPPC   C1B43425   5.403  -1.493  27.055  0.1553 -0.1273 -0.0695
 1811DPPC   C2B43426   5.796  -1.360  27.127  0.2407 -0.1885  0.0452
 1811DPPC   C3B43427   6.151  -1.123  27.405  0.1270 -0.0565  0.2464
 1811DPPC   C4B43428   6.092  -1.025  27.897 -0.0696 -0.0387  0.1335
 1812DPPC   NC343429  26.677  -2.601  21.920  0.0393 -0.2625  0.0303
 1812DPPC   PO443430  26.337  -2.705  21.703  0.0913  0.0197  0.1886
 1812DPPC   GL143431  26.112  -2.544  22.010  0.0956 -0.1943  0.0682
 1812DPPC   GL243432  25.951  -2.824  22.171  0.1954 -0.0559 -0.0953
 1812DPPC   C1A43433  25.706  -2.350  22.237 -0.1358  0.2965  0.0342
 1812DPPC   C2A43434  25.272  -2.367  22.220  0.0420  0.1503 -0.0298
 1812DPPC   C3A43435  25.050  -2.104  22.387 -0.0319 -0.0330  0.1179
 1812DPPC   C4A43436  24.753  -2.137  22.678 -0.3437 -0.1937 -0.1090
 1812DPPC   C1B43437  25.440  -2.848  22.184  0.1478 -0.2639  0.1685
 1812DPPC   C2B43438  24.987  -2.980  22.111  0.1290 -0.0831 -0.0156
 1812DPPC   C3B43439  24.602  -2.644  21.994  0.2367  0.0357  0.0006
 1812DPPC   C4B43440  24.500  -2.193  21.714 -0.0453 -0.1218  0.2413
 1813DPPC   NC343441   9.058   8.184  35.803 -0.2740 -0.2112 -0.2072
 1813DPPC   PO443442   9.096   8.031  35.383 -0.2767  0.3166 -0.0223
 1813DPPC   GL143443   9.307   8.314  34.985  0.0985  0.3417  0.2675
 1813DPPC   GL243444   9.584   8.592  34.886  0.2199 -0.1944 -0.0655
 1813DPPC   C1A43445   9.388   8.113  34.603  0.1052  0.0069 -0.2607
 1813DPPC   C2A43446   9.454   8.383  34.308  0.1634 -0.2005  0.0050
 1813DPPC   C3A43447   9.644   8.600  33.947 -0.0191 -0.0117  0.1972
 1813DPPC   C4A43448   9.738   8.716  33.481 -0.0044  0.4406  0.1089
 1813DPPC   C1B43449   9.866   8.274  34.681 -0.2422 -0.0185 -0.1217
 1813DPPC   C2B43450   9.920   8.007  34.358  0.0823 -0.3512  0.3421
 1813DPPC   C3B43451   9.956   8.093  33.926  0.0067  0.3265  0.1369
 1813DPPC   C4B43452   9.631   8.093  33.678 -0.2140  0.0026 -0.2802
 1814DPPC   NC343453  17.361  -5.872  16.282  0.0732  0.1965 -0.0762
 1814DPPC   PO443454  17.061  -5.598  16.709 -0.1063 -0.1764  0.2355
 1814DPPC   GL143455  16.721  -5.503  16.885 -0.0037  0.2609  0.0302
 1814DPPC   GL243456  16.760  -5.523  17.143  0.0710 -0.1486 -0.3421
 1814DPPC   C1A43457  16.289  -5.734  16.789  0.0004 -0.0554 -0.1593
 1814DPPC   C2A43458  15.848  -5.800  16.830  0.1101 -0.0417 -0.1415
 1814DPPC   C3A43459  15.641  -5.804  17.193  0.2061  0.0781 -0.0575
 1814DPPC   C4A43460  15.454  -5.918  17.583  0.0482 -0.1205  0.0432
 1814DPPC   C1B43461  16.409  -5.714  17.373  0.0086 -0.1458 -0.2765
 1814DPPC   C2B43462  16.140  -6.015  17.321  0.1988 -0.0736  0.3039
 1814DPPC   C3B43463  15.813  -6.324  17.157  0.2445  0.3282 -0.0060
 1814DPPC   C4B43464  15.490  -6.299  17.232 -0.3167  0.2181  0.2980
 1815DPPC   NC343465  22.407  -6.891  22.119  0.0417  0.1962  0.1430
 1815DPPC   PO443466  22.093  -7.153  21.963 -0.2152 -0.1465  0.0687
 1815DPPC   GL143467  22.159  -6.679  21.754  0.1928 -0.0507  0.0567
 1815DPPC   GL243468  22.411  -6.399  21.836  0.0737  0.0479 -0.0564
 1815DPPC   C1A43469  22.027  -6.305  21.635 -0.0147 -0.3251  0.0342
 1815DPPC   C2A43470  21.717  -6.067  21.381  0.2861  0.1199 -0.2770
 1815DPPC   C3A43471  21.311  -6.121  21.333 -0.1414 -0.1384  0.1692
 1815DPPC   C4A43472  21.119  -5.710  21.116  0.1437  0.3050  0.0064
 1815DPPC   C1B43473  22.347  -5.886  21.713 -0.2911 -0.3280  0.1546
 1815DPPC   C2B43474  22.442  -5.569  21.377 -0.0538  0.1722 -0.1465
 1815DPPC   C3B43475  22.630  -5.240  21.151  0.0783  0.1237  0.3388
 1815DPPC   C4B43476  22.507  -4.901  20.759  0.0816 -0.1901  0.1821
 1816DPPC   NC343477  19.661  -5.432  16.446 -0.0170 -0.0102 -0.0080
 1816DPPC   PO443478  20.041  -5.592  16.209  0.0502  0.2473  0.3198
 1816DPPC   GL143479  20.225  -6.090  16.309 -0.1902 -0.2052 -0.0855
 1816DPPC   GL243480  20.195  -6.194  16.058 -0.1673  0.1297  0.1409
 1816DPPC   C1A43481  20.409  -6.402  16.477  0.1270  0.2376  0.2696
 1816DPPC   C2A43482  20.675  -6.787  16.463  0.1104 -0.0342 -0.3406
 1816DPPC   C3A43483  20.846  -7.121  16.475  0.0617 -0.2419 -0.1634
 1816DPPC   C4A43484  21.019  -7.370  16.738  0.0345  0.2602  0.2027
 1816DPPC   C1B43485  20.276  -6.582  15.997 -0.3011  0.0262 -0.0938
 1816DPPC   C2B43486  20.318  -6.874  15.702  0.2532  0.2441  0.2751
 1816DPPC   C3B43487  20.149  -7.339  15.645  0.2727 -0.2698 -0.2209
 1816DPPC   C4B43488  19.960  -7.667  15.473 -0.3675  0.0252  0.3601
 1817DPPC   NC343489  21.637   0.208  14.556 -0.3914  0.0775  0.2251
 1817DPPC   PO443490  22.062   0.320  14.351 -0.0260 -0.2975 -0.5608
 1817DPPC   GL143491  22.190   0.347  13.822 -0.0177 -0.1840 -0.0697
 1817DPPC   GL243492  22.463   0.346  13.729 -0.0347  0.0364 -0.1765
 1817DPPC   C1A43493  22.114   0.590  13.449  0.2974 -0.0694 -0.0451
 1817DPPC   C2A43494  22.276   0.417  13.083  0.2989  0.4632  0.0560
 1817DPPC   C3A43495  22.463   0.162  12.706 -0.0177 -0.0059 -0.0049
 1817DPPC   C4A43496  22.560  -0.170  12.823 -0.0410 -0.1343  0.1798
 1817DPPC   C1B43497  22.673   0.485  13.366  0.1231  0.0141 -0.0448
 1817DPPC   C2B43498  22.728   0.590  12.919  0.0930 -0.0665  0.1252
 1817DPPC   C3B43499  22.735   0.580  12.567 -0.0072 -0.4598  0.2533
 1817DPPC   C4B43500  22.867   0.904  12.316  0.0805 -0.1052  0.1509
 1818DPPC   NC343501  12.133   6.692  37.486  0.4867  0.2177 -0.0295
 1818DPPC   PO443502  12.007   6.312  37.612  0.3141 -0.0132  0.0323
 1818DPPC   GL143503  12.119   6.275  37.142  0.0017 -0.0774  0.0744
 1818DPPC   GL243504  12.312   6.638  37.001 -0.0704 -0.0080  0.2029
 1818DPPC   C1A43505  12.036   6.407  36.684 -0.1851  0.1629 -0.1691
 1818DPPC   C2A43506  12.226   6.189  36.295  0.2485 -0.1849 -0.0654
 1818DPPC   C3A43507  12.187   6.305  35.841 -0.1811  0.3216 -0.1282
 1818DPPC   C4A43508  12.089   6.440  35.389 -0.0778 -0.0108 -0.1666
 1818DPPC   C1B43509  12.378   6.813  36.609  0.1597 -0.0118 -0.0581
 1818DPPC   C2B43510  12.340   6.768  36.101 -0.3103  0.1591  0.1309
 1818DPPC   C3B43511  12.253   6.785  35.683 -0.0478 -0.1079 -0.0092
 1818DPPC   C4B43512  12.067   6.974  35.366 -0.0839 -0.3069 -0.0719
 1819DPPC   NC343513  29.055   2.779  26.215  0.4501  0.1396 -0.1546
 1819DPPC   PO443514  29.049   2.416  25.903 -0.3905  0.1671 -0.6183
 1819DPPC   GL143515  28.683   2.297  25.801  0.0893 -0.2095  0.0072
 1819DPPC   GL243516  28.368   2.387  25.862  0.0738  0.0703  0.1435
 1819DPPC   C1A43517  28.342   2.009  25.562 -0.0746  0.1172  0.1437
 1819DPPC   C2A43518  27.929   1.940  25.251 -0.0219  0.4321  0.2490
 1819DPPC   C3A43519  27.532   1.980  25.042  0.2940  0.2402 -0.3614
 1819DPPC   C4A43520  27.071   2.125  24.945 -0.0747  0.3146  0.0090
 1819DPPC   C1B43521  27.942   2.217  25.736  0.1160  0.0017  0.4066
 1819DPPC   C2B43522  27.642   2.072  25.661 -0.0212 -0.0725  0.1213
 1819DPPC   C3B43523  27.370   1.801  25.463 -0.1244  0.1540 -0.1680
 1819DPPC   C4B43524  27.164   1.628  25.092  0.0679 -0.2289 -0.2572
 1820DPPC   NC343525  26.446  -2.879  13.632 -0.1796  0.2806  0.0002
 1820DPPC   PO443526  26.729  -3.185  13.827 -0.3657 -0.0133 -0.1824
 1820DPPC   GL143527  26.307  -3.044  14.128 -0.0364 -0.1425  0.2219
 1820DPPC   GL243528  26.343  -2.674  14.141  0.0635  0.1810 -0.1994
 1820DPPC   C1A43529  25.908  -3.129  14.367  0.0249 -0.1828 -0.1966
 1820DPPC   C2A43530  25.570  -3.140  14.669  0.2511  0.0922 -0.1591
 1820DPPC   C3A43531  25.345  -3.239  15.029 -0.4755 -0.0197  0.2585
 1820DPPC   C4A43532  25.042  -3.008  15.311 -0.0383  0.1664  0.1107
 1820DPPC   C1B43533  26.023  -2.550  14.450 -0.3032 -0.1397  0.2986
 1820DPPC   C2B43534  25.559  -2.620  14.418  0.0675  0.1103 -0.0399
 1820DPPC   C3B43535  25.183  -2.849  14.465  0.0258 -0.0268 -0.0099
 1820DPPC   C4B43536  24.890  -3.134  14.290  0.2955  0.0084 -0.0196
 1821DPPC   NC343537  14.503  15.214  20.031 -0.1528 -0.0509 -0.2441
 1821DPPC   PO443538  14.719  14.983  20.198 -0.0733  0.2913 -0.1500
 1821DPPC   GL143539  14.694  14.681  20.349 -0.2467 -0.1750  0.0043
 1821DPPC   GL243540  14.671  14.573  20.666  0.1129  0.0640  0.0817
 1821DPPC   C1A43541  14.324  14.290  20.433 -0.1808 -0.2390  0.0213
 1821DPPC   C2A43542  14.109  13.986  20.681  0.1041 -0.1322 -0.2915
 1821DPPC   C3A43543  13.865  13.596  20.603 -0.3380 -0.2670  0.0667
 1821DPPC   C4A43544  13.812  13.161  20.610 -0.1259  0.5557  0.1408
 1821DPPC   C1B43545  14.741  14.152  20.605  0.0316  0.2831 -0.0165
 1821DPPC   C2B43546  14.752  13.814  20.750  0.1450  0.0548  0.0513
 1821DPPC   C3B43547  14.743  13.374  20.957 -0.2252 -0.0527 -0.0637
 1821DPPC   C4B43548  14.964  13.025  20.734  0.0022 -0.4045  0.0765
 1822DPPC   NC343549  15.936   9.372  37.709 -0.0364  0.0156 -0.1564
 1822DPPC   PO443550  16.131   9.421  37.251  0.2322  0.0540  0.1026
 1822DPPC   GL143551  15.849   9.402  36.938  0.4339 -0.0890  0.2379
 1822DPPC   GL243552  15.708   9.686  36.796 -0.0719  0.0243 -0.2000
 1822DPPC   C1A43553  15.955   9.190  36.621  0.1737  0.0087 -0.0400
 1822DPPC   C2A43554  16.025   8.954  36.253  0.3637  0.3230  0.5734
 1822DPPC   C3A43555  16.409   8.824  35.986 -0.2081  0.0226  0.0749
 1822DPPC   C4A43556  16.471   8.683  35.577 -0.2004 -0.0559 -0.0494
 1822DPPC   C1B43557  15.726   9.619  36.326  0.0883 -0.1346 -0.2129
 1822DPPC   C2B43558  15.731   9.546  35.809 -0.1839 -0.0138  0.1400
 1822DPPC   C3B43559  15.777   9.278  35.423  0.1168  0.0310 -0.1239
 1822DPPC   C4B43560  15.578   9.585  35.043  0.0038  0.0118  0.6383
 1823DPPC   NC343561   7.444  10.276  18.584  0.4796 -0.2352 -0.0386
 1823DPPC   PO443562   7.138   9.856  18.725  0.1599 -0.3737  0.0762
 1823DPPC   GL143563   7.373   9.587  19.092 -0.1803  0.0747  0.1229
 1823DPPC   GL243564   7.371   9.191  19.223  0.0157  0.0282 -0.0960
 1823DPPC   C1A43565   7.791   9.563  19.178 -0.0607 -0.0687  0.0046
 1823DPPC   C2A43566   8.234   9.451  19.360 -0.0453  0.0060  0.0212
 1823DPPC   C3A43567   8.648   9.289  19.483  0.0837  0.1482 -0.2440
 1823DPPC   C4A43568   8.977   9.101  19.728 -0.0091  0.0775  0.2112
 1823DPPC   C1B43569   7.700   9.062  19.325  0.0035 -0.0974  0.2126
 1823DPPC   C2B43570   8.148   9.043  19.559 -0.0773 -0.0496 -0.0836
 1823DPPC   C3B43571   8.351   8.916  19.915  0.1538  0.0202 -0.1935
 1823DPPC   C4B43572   8.476   8.504  20.037 -0.1923  0.3149  0.3242
 1824DPPC   NC343573   9.339   3.982  19.744  0.2550  0.3935 -0.1134
 1824DPPC   PO443574   8.998   3.815  19.597 -0.1040 -0.0634  0.1025
 1824DPPC   GL143575   8.853   3.872  19.190  0.0873  0.0748 -0.1967
 1824DPPC   GL243576   8.501   3.842  19.156  0.0109 -0.1685 -0.1762
 1824DPPC   C1A43577   8.766   3.913  18.735  0.0457 -0.2621  0.0271
 1824DPPC   C2A43578   8.741   3.667  18.344 -0.1323  0.1701  0.0493
 1824DPPC   C3A43579   8.932   3.390  18.032 -0.0580  0.2943  0.0664
 1824DPPC   C4A43580   8.919   3.299  17.637  0.0599 -0.0541 -0.1748
 1824DPPC   C1B43581   8.246   3.971  18.928 -0.1292  0.0850  0.1948
 1824DPPC   C2B43582   8.273   4.078  18.495 -0.1567  0.2666  0.0960
 1824DPPC   C3B43583   8.295   4.506  18.119  0.1213  0.0325 -0.1086
 1824DPPC   C4B43584   7.945   4.463  17.920  0.2830 -0.0035 -0.1579
 1825DPPC   NC343585  23.798   4.080  13.964 -0.2513  0.0531  0.3506
 1825DPPC   PO443586  24.003   3.686  13.892 -0.0327  0.0772  0.2236
 1825DPPC   GL143587  23.705   3.617  14.176 -0.1529 -0.1184 -0.2601
 1825DPPC   GL243588  23.468   3.856  14.176  0.2311 -0.0781 -0.3632
 1825DPPC   C1A43589  23.488   3.350  14.445  0.1078 -0.0914  0.1693
 1825DPPC   C2A43590  23.093   3.169  14.640  0.2455 -0.1548  0.0891
 1825DPPC   C3A43591  22.798   2.859  14.622 -0.2832  0.0159 -0.1017
 1825DPPC   C4A43592  22.466   2.578  14.638 -0.0378  0.0771 -0.0676
 1825DPPC   C1B43593  23.236   3.775  14.450  0.3040 -0.3756  0.0153
 1825DPPC   C2B43594  23.081   3.794  14.790 -0.0646 -0.1111 -0.2810
 1825DPPC   C3B43595  23.120   4.097  15.113 -0.0523 -0.0123  0.2448
 1825DPPC   C4B43596  23.313   4.165  15.513 -0.0925 -0.6737 -0.0605
 1826DPPC   NC343597  12.993  11.885  24.422  0.2291  0.3500  0.0258
 1826DPPC   PO443598  13.267  11.808  24.731  0.4557  0.2066 -0.1226
 1826DPPC   GL143599  13.481  12.083  24.427  0.0569 -0.0882  0.1166
 1826DPPC   GL243600  13.311  12.327  24.680 -0.0414  0.2015 -0.0565
 1826DPPC   C1A43601  13.500  12.417  24.144 -0.1761 -0.1288 -0.1785
 1826DPPC   C2A43602  13.553  12.863  24.064  0.2683 -0.2033 -0.1931
 1826DPPC   C3A43603  13.244  13.256  23.907  0.2774 -0.3103 -0.0118
 1826DPPC   C4A43604  13.036  13.638  23.791  0.0570  0.2089  0.0069
 1826DPPC   C1B43605  13.329  12.721  24.869  0.2329 -0.3727 -0.2982
 1826DPPC   C2B43606  13.087  13.117  24.892  0.3047  0.2515 -0.0838
 1826DPPC   C3B43607  13.115  13.507  24.948 -0.2535 -0.0079 -0.0805
 1826DPPC   C4B43608  13.117  13.956  24.925 -0.1534  0.0733  0.4112
 1827DPPC   NC343609  15.958   0.988  31.927 -0.0422 -0.0568  0.2655
 1827DPPC   PO443610  16.083   0.965  32.385 -0.0353 -0.0499  0.2296
 1827DPPC   GL143611  16.169   0.522  32.592  0.2000 -0.1896 -0.0564
 1827DPPC   GL243612  16.441   0.266  32.470 -0.0606  0.0728 -0.2096
 1827DPPC   C1A43613  16.114   0.335  32.917  0.0959 -0.1690  0.3032
 1827DPPC   C2A43614  16.279   0.005  33.310 -0.1070 -0.2613  0.3153
 1827DPPC   C3A43615  16.329  -0.401  33.566  0.0852 -0.0749  0.1325
 1827DPPC   C4A43616  16.499  -0.911  33.391  0.1728 -0.1242 -0.0883
 1827DPPC   C1B43617  16.691   0.107  32.867  0.1809 -0.1542 -0.1830
 1827DPPC   C2B43618  16.815  -0.015  33.314  0.1381  0.1554  0.2048
 1827DPPC   C3B43619  16.763   0.011  33.745  0.3606 -0.1234 -0.2276
 1827DPPC   C4B43620  16.564  -0.190  33.912  0.2388 -0.3519  0.2001
 1828DPPC   NC343621  15.645  -8.484  14.243  0.0771 -0.2625 -0.4503
 1828DPPC   PO443622  15.258  -8.309  14.469 -0.1514  0.2301  0.1551
 1828DPPC   GL143623  15.596  -8.032  14.474  0.2386  0.2265 -0.1759
 1828DPPC   GL243624  15.808  -7.858  14.249  0.1205 -0.2595 -0.0893
 1828DPPC   C1A43625  15.757  -7.598  14.648 -0.1710  0.1996 -0.1716
 1828DPPC   C2A43626  15.940  -7.209  14.433 -0.0209 -0.1443  0.3953
 1828DPPC   C3A43627  15.742  -7.045  14.151  0.1406  0.2978 -0.3346
 1828DPPC   C4A43628  15.813  -6.836  13.800  0.2129 -0.0125  0.1769
 1828DPPC   C1B43629  16.165  -7.556  14.125  0.2670 -0.1664  0.0075
 1828DPPC   C2B43630  16.351  -7.155  14.151  0.2994 -0.0665  0.0220
 1828DPPC   C3B43631  16.387  -6.702  14.013  0.0442  0.0210  0.0522
 1828DPPC   C4B43632  16.681  -6.547  14.192  0.0030  0.0363  0.4799
 1829DPPC   NC343633  17.393   8.515  19.401 -0.2164  0.1785 -0.4089
 1829DPPC   PO443634  17.503   8.871  19.275  0.1374  0.1190  0.1156
 1829DPPC   GL143635  17.787   9.112  19.001 -0.0646 -0.1125  0.1572
 1829DPPC   GL243636  17.613   9.527  18.994  0.1435  0.2044 -0.2967
 1829DPPC   C1A43637  18.061   9.389  18.653 -0.2362 -0.1398  0.2829
 1829DPPC   C2A43638  18.190   9.698  18.365  0.1261 -0.0679  0.0359
 1829DPPC   C3A43639  18.583   9.696  18.097 -0.1362  0.1232 -0.0422
 1829DPPC   C4A43640  18.818   9.691  17.687  0.0265  0.1573  0.0361
 1829DPPC   C1B43641  17.553  10.040  19.053 -0.1579  0.1644 -0.6458
 1829DPPC   C2B43642  17.457  10.215  18.767 -0.0378  0.1517  0.0049
 1829DPPC   C3B43643  17.690  10.244  18.450 -0.0259  0.0005 -0.0442
 1829DPPC   C4B43644  18.136  10.318  18.514  0.0329  0.0786 -0.1419
 1830DPPC   NC343645   4.869  11.211  26.851 -0.2796  0.2083 -0.1270
 1830DPPC   PO443646   4.729  11.015  26.497  0.0711  0.2259 -0.1824
 1830DPPC   GL143647   4.923  10.638  26.504  0.0225  0.2484 -0.0977
 1830DPPC   GL243648   4.822  10.274  26.459  0.1623 -0.0211 -0.0969
 1830DPPC   C1A43649   5.321  10.412  26.545 -0.3009 -0.0064  0.0852
 1830DPPC   C2A43650   5.610  10.640  26.855  0.1687 -0.3972  0.1190
 1830DPPC   C3A43651   6.114  10.552  26.866 -0.1026  0.2215  0.0102
 1830DPPC   C4A43652   6.272  10.178  26.906  0.5920  0.0898 -0.1527
 1830DPPC   C1B43653   4.998   9.913  26.396  0.1852  0.0130 -0.2600
 1830DPPC   C2B43654   5.337   9.608  26.558  0.1853  0.1175  0.0066
 1830DPPC   C3B43655   5.820   9.440  26.682  0.1052 -0.2033  0.0852
 1830DPPC   C4B43656   6.182   9.746  26.650 -0.0177  0.0396 -0.0073
 1831DPPC   NC343657   7.887   7.080  27.823 -0.2940 -0.1587  0.0114
 1831DPPC   PO443658   8.073   7.116  28.141 -0.1129 -0.1573  0.1038
 1831DPPC   GL143659   7.628   7.223  28.223 -0.1369 -0.1203  0.0630
 1831DPPC   GL243660   7.542   7.409  28.068  0.0438 -0.2059 -0.1587
 1831DPPC   C1A43661   7.187   7.159  28.374  0.1939 -0.1435  0.1459
 1831DPPC   C2A43662   6.754   7.168  28.667 -0.3708 -0.1551 -0.1991
 1831DPPC   C3A43663   6.585   7.078  29.012 -0.2071  0.1544 -0.0821
 1831DPPC   C4A43664   6.380   7.335  29.264 -0.0690  0.1023 -0.0403
 1831DPPC   C1B43665   7.149   7.615  28.177  0.1516 -0.3173 -0.1137
 1831DPPC   C2B43666   6.711   7.521  28.311  0.1229 -0.0735  0.0116
 1831DPPC   C3B43667   6.323   7.519  28.342  0.0644 -0.1901 -0.1392
 1831DPPC   C4B43668   6.226   7.423  28.745 -0.1713  0.2196  0.4692
 1832DPPC   NC343669  20.350   4.785  37.544 -0.0151 -0.0736 -0.1721
 1832DPPC   PO443670  20.711   4.696  37.265  0.0035  0.4191  0.0474
 1832DPPC   GL143671  20.629   4.595  36.854  0.0682  0.1645 -0.4664
 1832DPPC   GL243672  20.380   4.436  36.766  0.3303  0.0128  0.2805
 1832DPPC   C1A43673  20.685   4.718  36.446  0.0040 -0.1621  0.2714
 1832DPPC   C2A43674  21.038   4.974  36.124  0.2312  0.2078 -0.0335
 1832DPPC   C3A43675  21.292   4.762  35.732 -0.0869 -0.0079  0.1780
 1832DPPC   C4A43676  21.206   4.515  35.429  0.1666 -0.2176 -0.3134
 1832DPPC   C1B43677  20.097   4.402  36.380 -0.2105  0.1527 -0.0277
 1832DPPC   C2B43678  19.782   4.786  36.156 -0.0197  0.0718 -0.2576
 1832DPPC   C3B43679  19.530   5.033  35.862  0.0501  0.1930  0.1481
 1832DPPC   C4B43680  19.420   5.376  35.543  0.3097 -0.1176  0.0576
 1833DPPC   NC343681  15.595  11.532  30.077  0.1953  0.0805  0.4996
 1833DPPC   PO443682  15.111  11.593  29.908  0.1814 -0.3119  0.0878
 1833DPPC   GL143683  15.234  11.845  30.179 -0.2805  0.3357 -0.1160
 1833DPPC   GL243684  15.255  11.790  30.461 -0.1575 -0.0508  0.0983
 1833DPPC   C1A43685  15.329  12.308  30.390  0.0912  0.0432 -0.1562
 1833DPPC   C2A43686  15.342  12.538  30.775 -0.0431  0.0224  0.0867
 1833DPPC   C3A43687  15.060  12.608  31.131  0.1086 -0.3979  0.1527
 1833DPPC   C4A43688  14.833  12.875  31.501  0.1142  0.0265  0.0293
 1833DPPC   C1B43689  15.121  11.994  30.774  0.0715  0.2533  0.2706
 1833DPPC   C2B43690  15.112  12.062  31.213  0.1833  0.1175 -0.1146
 1833DPPC   C3B43691  14.997  11.939  31.563  0.1230 -0.1098 -0.0890
 1833DPPC   C4B43692  14.765  11.760  31.951 -0.0677  0.1555 -0.2404
 1834DPPC   NC343693  11.490  11.185  28.388 -0.1291 -0.0885  0.0200
 1834DPPC   PO443694  11.516  11.542  28.731 -0.1506 -0.1619 -0.1540
 1834DPPC   GL143695  11.342  11.893  29.001 -0.1056 -0.1376  0.3768
 1834DPPC   GL243696  11.529  12.042  29.263  0.0700 -0.0735 -0.0323
 1834DPPC   C1A43697  11.063  12.121  28.996 -0.3460 -0.0883  0.1423
 1834DPPC   C2A43698  10.883  12.449  28.739 -0.0200 -0.2578  0.1758
 1834DPPC   C3A43699  10.661  12.705  28.598  0.1603 -0.0603  0.2644
 1834DPPC   C4A43700  10.347  13.015  28.487 -0.1423  0.1539  0.2090
 1834DPPC   C1B43701  11.589  12.470  29.477 -0.0630 -0.1861  0.3856
 1834DPPC   C2B43702  11.259  12.754  29.456  0.1724 -0.0904 -0.1692
 1834DPPC   C3B43703  10.897  13.023  29.430  0.0218 -0.0032 -0.1182
 1834DPPC   C4B43704  10.651  13.375  29.454 -0.0243  0.1282 -0.2346
 1835DPPC   NC343705  21.795   7.606  20.130  0.2400 -0.1515  0.3056
 1835DPPC   PO443706  21.723   7.320  19.796  0.3819 -0.0653 -0.1951
 1835DPPC   GL143707  21.784   7.539  19.510  0.0316  0.2666  0.0899
 1835DPPC   GL243708  21.887   7.918  19.567  0.2180 -0.1607  0.2702
 1835DPPC   C1A43709  22.050   7.547  19.118  0.0651  0.2673  0.1249
 1835DPPC   C2A43710  22.172   7.711  18.761 -0.0411  0.0308  0.1234
 1835DPPC   C3A43711  22.642   7.646  18.605 -0.0060  0.2770 -0.2188
 1835DPPC   C4A43712  23.075   7.501  18.748  0.3029  0.1038 -0.0830
 1835DPPC   C1B43713  22.286   8.235  19.302 -0.1426 -0.0843 -0.3602
 1835DPPC   C2B43714  22.517   8.532  19.073  0.2266 -0.0473  0.1618
 1835DPPC   C3B43715  22.850   8.801  19.117  0.0944 -0.2261  0.1476
 1835DPPC   C4B43716  22.967   9.209  18.909 -0.0897  0.2888  0.2230
 1836DPPC   NC343717  20.341  11.921  17.599  0.0307  0.2336  0.0514
 1836DPPC   PO443718  20.307  11.552  17.214  0.1963 -0.0192  0.0267
 1836DPPC   GL143719  20.100  11.468  17.632  0.1479 -0.3116  0.3817
 1836DPPC   GL243720  19.863  11.723  17.676  0.1983 -0.0661 -0.1541
 1836DPPC   C1A43721  20.172  11.331  17.974  0.2494  0.1107  0.1630
 1836DPPC   C2A43722  20.089  11.187  18.383 -0.0851 -0.1394 -0.2209
 1836DPPC   C3A43723  19.943  10.974  18.839 -0.0738 -0.0203  0.0204
 1836DPPC   C4A43724  20.044  11.267  19.131  0.1512 -0.1973 -0.1933
 1836DPPC   C1B43725  19.737  11.647  18.073 -0.0915  0.1241 -0.0624
 1836DPPC   C2B43726  19.624  11.401  18.422 -0.0228  0.1121  0.1408
 1836DPPC   C3B43727  19.529  10.914  18.611 -0.1579 -0.3439 -0.0582
 1836DPPC   C4B43728  19.602  10.461  18.462 -0.2543 -0.0682 -0.0374
 1837DPPC   NC343729  25.279  -3.003  29.342 -0.0205 -0.4164  0.2682
 1837DPPC   PO443730  25.285  -2.823  29.783  0.0449 -0.0980 -0.1555
 1837DPPC   GL143731  24.947  -2.629  29.571  0.1034 -0.0769 -0.1339
 1837DPPC   GL243732  24.997  -2.651  29.146 -0.1690  0.2601 -0.0220
 1837DPPC   C1A43733  24.636  -2.371  29.425 -0.1542 -0.0551  0.4481
 1837DPPC   C2A43734  24.402  -2.294  28.995  0.1724 -0.2909 -0.0596
 1837DPPC   C3A43735  24.088  -2.000  28.794  0.1237  0.0326  0.0586
 1837DPPC   C4A43736  23.903  -1.627  28.606 -0.0990  0.0441  0.0594
 1837DPPC   C1B43737  25.038  -2.271  28.983 -0.2325  0.2694 -0.0644
 1837DPPC   C2B43738  24.841  -1.997  28.805  0.2320 -0.1016 -0.0098
 1837DPPC   C3B43739  24.470  -1.726  28.580 -0.1588 -0.2303  0.1852
 1837DPPC   C4B43740  24.341  -1.318  28.753  0.1638  0.0769 -0.3379
 1838DPPC   NC343741  16.703   0.586  36.726 -0.1902  0.2033 -0.0911
 1838DPPC   PO443742  16.450   0.667  37.043 -0.5810 -0.4810 -0.1257
 1838DPPC   GL143743  16.121   0.939  36.757  0.4292  0.0993 -0.0859
 1838DPPC   GL243744  16.120   1.334  36.745 -0.1936 -0.1277 -0.3132
 1838DPPC   C1A43745  16.103   0.999  36.349  0.3340 -0.1220 -0.0788
 1838DPPC   C2A43746  15.998   1.221  35.976  0.0707  0.2296  0.1041
 1838DPPC   C3A43747  15.650   1.227  35.771 -0.0735 -0.2455  0.0584
 1838DPPC   C4A43748  15.308   1.630  35.735 -0.3239 -0.0129  0.1468
 1838DPPC   C1B43749  16.201   1.629  36.413 -0.0377 -0.3261  0.0124
 1838DPPC   C2B43750  16.287   1.984  36.408  0.0262 -0.2145  0.1234
 1838DPPC   C3B43751  16.456   2.290  36.542 -0.1637  0.1271  0.3927
 1838DPPC   C4B43752  16.205   2.555  36.736  0.0799  0.0066  0.1164
 1839DPPC   NC343753  14.101  -2.315  29.497 -0.0203  0.0317  0.0137
 1839DPPC   PO443754  13.932  -2.632  29.189  0.0622 -0.0474 -0.1451
 1839DPPC   GL143755  13.703  -2.732  29.490  0.0351  0.0803  0.0614
 1839DPPC   GL243756  13.480  -2.930  29.178 -0.0094 -0.1332 -0.3555
 1839DPPC   C1A43757  13.698  -3.088  29.743  0.3106  0.0485 -0.1360
 1839DPPC   C2A43758  13.598  -3.422  30.059  0.2089  0.1877  0.0681
 1839DPPC   C3A43759  13.333  -3.301  30.451  0.1075  0.0979 -0.0383
 1839DPPC   C4A43760  13.479  -3.305  30.856  0.1129  0.4224  0.3871
 1839DPPC   C1B43761  13.368  -3.244  29.406  0.1113 -0.0996  0.1532
 1839DPPC   C2B43762  13.178  -3.479  29.670  0.0104  0.2383  0.1581
 1839DPPC   C3B43763  13.140  -3.627  30.095 -0.1214  0.1513 -0.0194
 1839DPPC   C4B43764  13.025  -3.826  30.439  0.1040 -0.0283  0.1206
 1840DPPC   NC343765  15.629  16.592  22.790  0.1307 -0.1083  0.0237
 1840DPPC   PO443766  15.723  16.104  22.839 -0.0544  0.0393  0.2307
 1840DPPC   GL143767  15.739  15.792  23.063  0.0426 -0.0555  0.0101
 1840DPPC   GL243768  15.665  15.811  23.440 -0.2736  0.2921 -0.2732
 1840DPPC   C1A43769  15.475  15.472  22.918  0.1214  0.0072  0.1661
 1840DPPC   C2A43770  15.633  15.131  23.026 -0.0667 -0.0127 -0.2258
 1840DPPC   C3A43771  15.517  14.709  23.182 -0.1181 -0.0772 -0.3172
 1840DPPC   C4A43772  15.505  14.367  23.331  0.0436 -0.3153  0.1025
 1840DPPC   C1B43773  15.753  15.378  23.614 -0.0293  0.0067  0.1036
 1840DPPC   C2B43774  15.576  15.014  23.541 -0.1076  0.0109  0.4675
 1840DPPC   C3B43775  15.429  14.575  23.803 -0.0842 -0.0086 -0.1090
 1840DPPC   C4B43776  15.704  14.455  24.138 -0.1161 -0.2839 -0.1937
 1841DPPC   NC343777   8.522  14.594  31.217 -0.1296 -0.4809 -0.1199
 1841DPPC   PO443778   8.560  14.112  31.271  0.2859  0.1718  0.1979
 1841DPPC   GL143779   8.777  13.733  31.003  0.0438 -0.3488  0.1484
 1841DPPC   GL243780   9.030  13.686  30.756  0.0110 -0.0463 -0.0559
 1841DPPC   C1A43781   8.930  13.288  31.062  0.2488  0.2143  0.3172
 1841DPPC   C2A43782   8.991  12.750  31.083 -0.1130 -0.2421  0.1758
 1841DPPC   C3A43783   9.211  12.442  30.998  0.0129  0.1088  0.1435
 1841DPPC   C4A43784   9.619  12.196  30.921  0.0326 -0.2276 -0.1671
 1841DPPC   C1B43785   9.181  13.296  30.592 -0.1343  0.1298  0.0276
 1841DPPC   C2B43786   9.192  12.965  30.679 -0.2470 -0.1709 -0.1384
 1841DPPC   C3B43787   9.459  12.869  30.909 -0.0449 -0.2018  0.2832
 1841DPPC   C4B43788   9.583  12.566  31.288  0.1621 -0.0010 -0.0568
 1842DPPC   NC343789  16.641  -8.229  21.597 -0.2170 -0.0995  0.0914
 1842DPPC   PO443790  16.470  -8.222  22.019  0.1341 -0.2351 -0.1955
 1842DPPC   GL143791  16.378  -7.857  21.868  0.3236  0.1057 -0.2152
 1842DPPC   GL243792  16.474  -7.717  21.587 -0.2308  0.0524 -0.1615
 1842DPPC   C1A43793  16.033  -7.572  21.955 -0.0527 -0.0484 -0.1542
 1842DPPC   C2A43794  15.789  -7.209  21.919 -0.0245  0.0381 -0.2011
 1842DPPC   C3A43795  15.805  -6.823  21.763 -0.1256  0.1003  0.0991
 1842DPPC   C4A43796  16.198  -6.602  21.617  0.1762 -0.2363  0.0509
 1842DPPC   C1B43797  16.394  -7.322  21.440  0.3086 -0.0128  0.0146
 1842DPPC   C2B43798  16.012  -7.011  21.359 -0.0491 -0.1056  0.2056
 1842DPPC   C3B43799  15.865  -6.558  21.319  0.0099  0.0563  0.2726
 1842DPPC   C4B43800  15.891  -6.160  21.002  0.0724  0.0415  0.0483
 1843DPPC   NC343801   3.859   6.417  24.559 -0.0228 -0.2285  0.0882
 1843DPPC   PO443802   3.963   6.226  24.087 -0.1500 -0.1315 -0.0788
 1843DPPC   GL143803   4.253   6.428  24.189 -0.1920  0.1486  0.1153
 1843DPPC   GL243804   4.294   6.675  23.994 -0.1764 -0.0831  0.3362
 1843DPPC   C1A43805   4.629   6.342  24.317 -0.0848 -0.2909  0.0121
 1843DPPC   C2A43806   4.863   5.915  24.363  0.0184 -0.0444  0.1734
 1843DPPC   C3A43807   5.241   5.709  24.248  0.0440 -0.2386  0.2469
 1843DPPC   C4A43808   5.496   5.619  23.844  0.1221  0.1293 -0.5500
 1843DPPC   C1B43809   4.577   6.268  23.857  0.5398  0.2590 -0.0689
 1843DPPC   C2B43810   4.902   5.943  23.819 -0.1134  0.2649  0.0254
 1843DPPC   C3B43811   5.068   5.389  23.717 -0.2295  0.0649 -0.0244
 1843DPPC   C4B43812   5.133   5.000  23.681 -0.0319  0.0354 -0.0235
 1844DPPC   NC343813  22.283  -6.964  22.669  0.2366  0.1900 -0.0340
 1844DPPC   PO443814  21.889  -7.052  22.435  0.1027  0.0215 -0.0896
 1844DPPC   GL143815  21.764  -6.755  22.115  0.4997  0.2194 -0.0108
 1844DPPC   GL243816  21.674  -6.880  21.914 -0.0990  0.0481 -0.2461
 1844DPPC   C1A43817  21.411  -6.440  22.245 -0.2925  0.2863  0.0684
 1844DPPC   C2A43818  21.310  -6.048  22.296 -0.1825  0.0490  0.1371
 1844DPPC   C3A43819  21.528  -5.662  22.171  0.1964  0.0870 -0.1767
 1844DPPC   C4A43820  21.756  -5.327  22.218  0.1429  0.1043  0.0245
 1844DPPC   C1B43821  21.558  -6.468  21.724 -0.3361 -0.1429  0.1501
 1844DPPC   C2B43822  21.414  -6.078  21.824 -0.1484  0.2301 -0.2506
 1844DPPC   C3B43823  21.285  -5.702  21.716 -0.2700  0.0738 -0.0300
 1844DPPC   C4B43824  21.387  -5.321  21.575  0.1117  0.0892  0.1238
 1845DPPC   NC343825   7.493   2.667  28.188 -0.1501 -0.5216  0.1033
 1845DPPC   PO443826   7.687   2.839  28.585 -0.1815 -0.2017 -0.0713
 1845DPPC   GL143827   7.502   2.914  28.979  0.1742 -0.3231 -0.1267
 1845DPPC   GL243828   7.670   2.866  29.291 -0.2264 -0.2251  0.1403
 1845DPPC   C1A43829   7.200   2.819  29.286  0.1771 -0.4699 -0.0473
 1845DPPC   C2A43830   6.796   2.685  29.493  0.0822  0.1282 -0.0216
 1845DPPC   C3A43831   6.523   2.450  29.752  0.1682 -0.3423  0.3033
 1845DPPC   C4A43832   6.077   2.467  29.941  0.0528  0.0139  0.2082
 1845DPPC   C1B43833   7.720   3.157  29.739  0.0405 -0.0903 -0.4648
 1845DPPC   C2B43834   7.589   3.034  30.093 -0.0349 -0.1597  0.0149
 1845DPPC   C3B43835   7.451   2.654  30.302  0.2402 -0.0406 -0.2904
 1845DPPC   C4B43836   7.078   2.365  30.391  0.0382  0.0611 -0.2034
 1846DPPC   NC343837  13.908  -3.621  22.133 -0.1347  0.0989 -0.0051
 1846DPPC   PO443838  13.937  -3.994  22.325 -0.1809 -0.0166 -0.1444
 1846DPPC   GL143839  14.014  -4.576  22.270  0.0018  0.0726 -0.2351
 1846DPPC   GL243840  13.676  -4.769  22.413 -0.0358  0.2198 -0.0462
 1846DPPC   C1A43841  14.259  -4.855  22.081  0.0507 -0.3545  0.2434
 1846DPPC   C2A43842  14.281  -5.249  21.944 -0.3812  0.0222  0.0281
 1846DPPC   C3A43843  14.213  -5.698  21.805 -0.1168 -0.3594  0.2985
 1846DPPC   C4A43844  13.882  -5.994  21.886 -0.0293 -0.2001 -0.3878
 1846DPPC   C1B43845  13.436  -5.088  22.334 -0.0254  0.0200  0.0978
 1846DPPC   C2B43846  13.158  -5.436  22.191 -0.2176  0.1342 -0.3126
 1846DPPC   C3B43847  12.758  -5.550  22.263 -0.0756  0.1833 -0.2307
 1846DPPC   C4B43848  12.388  -5.640  22.106 -0.1278  0.0521 -0.3066
 1847DPPC   NC343849  18.666  -3.670  21.153 -0.0364  0.0102 -0.0218
 1847DPPC   PO443850  18.791  -3.883  21.534 -0.5321 -0.5040  0.0850
 1847DPPC   GL143851  18.973  -4.035  21.100 -0.0092  0.1653  0.0516
 1847DPPC   GL243852  19.026  -3.917  20.812 -0.0101 -0.2346  0.1031
 1847DPPC   C1A43853  19.079  -4.493  21.182  0.1716 -0.0371 -0.1833
 1847DPPC   C2A43854  19.519  -4.803  21.150  0.0067 -0.3106 -0.1915
 1847DPPC   C3A43855  19.740  -4.916  20.766 -0.2351 -0.1816 -0.1138
 1847DPPC   C4A43856  20.091  -5.085  20.513  0.3928  0.2255  0.2209
 1847DPPC   C1B43857  19.409  -4.157  20.839 -0.1694  0.1193 -0.1909
 1847DPPC   C2B43858  19.548  -4.484  20.683  0.2421 -0.0410  0.1623
 1847DPPC   C3B43859  19.984  -4.338  20.499 -0.1638 -0.0913  0.1185
 1847DPPC   C4B43860  20.309  -4.152  20.459  0.3067  0.2026 -0.3545
 1848DPPC   NC343861  13.769  -4.305  13.639  0.0964  0.1774  0.2910
 1848DPPC   PO443862  13.507  -4.273  13.944 -0.0077  0.0585 -0.0324
 1848DPPC   GL143863  13.801  -4.199  14.191 -0.0540  0.0020  0.0028
 1848DPPC   GL243864  13.959  -4.544  14.211  0.1075 -0.1759 -0.0388
 1848DPPC   C1A43865  14.058  -3.960  14.619 -0.0917 -0.0848  0.1740
 1848DPPC   C2A43866  14.475  -4.001  14.762  0.0056  0.0695 -0.0404
 1848DPPC   C3A43867  14.779  -3.846  15.070 -0.2929  0.0715  0.3205
 1848DPPC   C4A43868  14.962  -3.725  15.473 -0.0396  0.2012  0.1238
 1848DPPC   C1B43869  13.980  -4.566  14.734 -0.1412 -0.3678  0.1234
 1848DPPC   C2B43870  14.393  -4.386  15.027 -0.2583 -0.1246 -0.1289
 1848DPPC   C3B43871  14.457  -4.166  15.416 -0.0905  0.0585  0.0497
 1848DPPC   C4B43872  14.485  -3.891  15.621 -0.0882  0.0672 -0.2417
 1849DPPC   NC343873  19.164   1.479  10.738 -0.4286  0.1950  0.1145
 1849DPPC   PO443874  19.457   1.465  10.444  0.1186 -0.1181  0.2405
 1849DPPC   GL143875  19.578   1.074  10.750  0.2134  0.1082 -0.0525
 1849DPPC   GL243876  19.292   0.813  10.818 -0.1456 -0.1925  0.0742
 1849DPPC   C1A43877  19.750   0.792  11.095 -0.2633 -0.0723  0.3384
 1849DPPC   C2A43878  19.570   0.494  11.321  0.1240  0.2853  0.1549
 1849DPPC   C3A43879  19.400   0.181  11.567 -0.0583 -0.1177 -0.1860
 1849DPPC   C4A43880  19.171  -0.105  11.705  0.0972 -0.0252  0.0646
 1849DPPC   C1B43881  19.271   0.239  10.886  0.0702  0.1390  0.0923
 1849DPPC   C2B43882  19.177  -0.076  11.226 -0.0705 -0.0386 -0.0065
 1849DPPC   C3B43883  19.009  -0.423  11.333  0.1690  0.3393  0.0994
 1849DPPC   C4B43884  18.765  -0.527  11.781 -0.1979  0.0631 -0.0289
 1850DPPC   NC343885  10.729   9.296  22.002  0.2387 -0.1916  0.0281
 1850DPPC   PO443886  10.281   9.178  21.855  0.1286  0.4380 -0.0016
 1850DPPC   GL143887   9.820   9.418  21.751  0.6115  0.0149  0.0610
 1850DPPC   GL243888   9.875   9.511  21.439  0.1144 -0.0464 -0.5850
 1850DPPC   C1A43889   9.483   9.687  21.956 -0.1606 -0.0033 -0.5532
 1850DPPC   C2A43890   9.291  10.031  22.055  0.1724 -0.1421 -0.0018
 1850DPPC   C3A43891   8.897  10.164  22.278  0.1348  0.0061  0.0252
 1850DPPC   C4A43892   8.462  10.004  22.320  0.0459  0.0919  0.2838
 1850DPPC   C1B43893   9.425   9.557  21.304  0.2269  0.4269  0.1056
 1850DPPC   C2B43894   9.138   9.804  21.124  0.0146 -0.1855  0.1106
 1850DPPC   C3B43895   9.216  10.000  20.711  0.1639 -0.1480 -0.1017
 1850DPPC   C4B43896   9.060  10.107  20.307  0.1571 -0.3294 -0.0406
 1851DPPC   NC343897   9.361   8.482  30.021  0.1021  0.1437 -0.0523
 1851DPPC   PO443898   9.663   8.253  30.289  0.1495 -0.3567  0.2709
 1851DPPC   GL143899   9.378   8.337  30.598  0.3244  0.0296 -0.0611
 1851DPPC   GL243900   9.167   8.016  30.652 -0.1626  0.2529 -0.1725
 1851DPPC   C1A43901   9.010   8.576  30.865 -0.0630  0.0033 -0.0007
 1851DPPC   C2A43902   8.829   8.876  31.019  0.0915  0.0448  0.0260
 1851DPPC   C3A43903   8.665   9.064  31.232  0.2272 -0.1840  0.0349
 1851DPPC   C4A43904   8.480   9.156  31.555 -0.3807  0.0682  0.1927
 1851DPPC   C1B43905   8.837   7.904  30.990  0.0809  0.3587  0.0013
 1851DPPC   C2B43906   8.517   7.897  31.264 -0.1508  0.1160 -0.3315
 1851DPPC   C3B43907   8.122   7.997  31.423  0.2853 -0.2099 -0.0987
 1851DPPC   C4B43908   7.676   8.090  31.351  0.0899 -0.0382  0.1105
 1852DPPC   NC343909  21.209  -7.520  25.160 -0.0851  0.0761  0.1805
 1852DPPC   PO443910  21.003  -7.306  25.319  0.2421 -0.0315 -0.0007
 1852DPPC   GL143911  20.974  -6.919  25.456 -0.0396  0.1285 -0.1083
 1852DPPC   GL243912  21.337  -6.709  25.605 -0.2015 -0.0820  0.1038
 1852DPPC   C1A43913  20.959  -6.550  25.825  0.3534 -0.0734 -0.0173
 1852DPPC   C2A43914  20.747  -6.295  26.017  0.0248 -0.1780 -0.1090
 1852DPPC   C3A43915  20.592  -5.969  26.097  0.0983  0.0109 -0.1261
 1852DPPC   C4A43916  20.623  -5.593  26.250 -0.1116  0.1720  0.0331
 1852DPPC   C1B43917  21.132  -6.208  25.510 -0.1096  0.3062 -0.0239
 1852DPPC   C2B43918  20.799  -5.998  25.549  0.0228  0.0449  0.1197
 1852DPPC   C3B43919  20.622  -5.626  25.686 -0.1577  0.1467 -0.1958
 1852DPPC   C4B43920  20.401  -5.229  25.921 -0.0055  0.0615  0.3305
 1853DPPC   NC343921  20.933   3.354  17.939 -0.0382  0.3289 -0.1866
 1853DPPC   PO443922  21.004   2.938  17.945 -0.1728 -0.2077 -0.1140
 1853DPPC   GL143923  21.096   2.672  17.688 -0.3254  0.2160 -0.2183
 1853DPPC   GL243924  21.525   2.533  17.600  0.1977 -0.1116  0.2280
 1853DPPC   C1A43925  21.068   2.353  17.427 -0.0635 -0.1781  0.1067
 1853DPPC   C2A43926  21.180   2.225  17.038 -0.1022 -0.2249 -0.0422
 1853DPPC   C3A43927  21.199   1.976  16.592 -0.1037 -0.4795 -0.0823
 1853DPPC   C4A43928  21.253   1.568  16.440 -0.2223 -0.1143 -0.4229
 1853DPPC   C1B43929  21.553   2.523  17.214 -0.0848  0.0507  0.0683
 1853DPPC   C2B43930  21.691   2.459  16.780  0.0300 -0.0369  0.3396
 1853DPPC   C3B43931  21.757   2.226  16.501 -0.1073 -0.0116 -0.0196
 1853DPPC   C4B43932  21.500   2.118  16.207 -0.1786  0.1632 -0.1879
 1854DPPC   NC343933  17.877  -1.248  30.919 -0.1128 -0.1902 -0.0599
 1854DPPC   PO443934  17.728  -1.725  30.783  0.4347  0.0232 -0.2000
 1854DPPC   GL143935  18.069  -1.838  31.085  0.1256 -0.1345  0.0839
 1854DPPC   GL243936  18.462  -1.943  30.985  0.2665  0.0918 -0.2001
 1854DPPC   C1A43937  18.066  -2.146  31.319 -0.0032 -0.0780  0.0471
 1854DPPC   C2A43938  18.102  -2.236  31.797  0.4675  0.4058  0.2087
 1854DPPC   C3A43939  18.237  -2.485  32.129  0.2307 -0.0245  0.0779
 1854DPPC   C4A43940  18.392  -2.838  32.388 -0.1242  0.4385 -0.0043
 1854DPPC   C1B43941  18.900  -2.251  31.057 -0.0217 -0.3769  0.0850
 1854DPPC   C2B43942  19.232  -2.587  31.269  0.3322  0.1754  0.2529
 1854DPPC   C3B43943  19.473  -2.943  31.286 -0.2126  0.1414 -0.3154
 1854DPPC   C4B43944  19.792  -3.108  31.055  0.1608  0.2066 -0.1507
 1855DPPC   NC343945  14.181  -4.759  13.123  0.1942 -0.0676  0.3383
 1855DPPC   PO443946  14.173  -4.495  13.478 -0.0674 -0.2726 -0.2328
 1855DPPC   GL143947  14.541  -4.444  13.164 -0.2140 -0.2792  0.2665
 1855DPPC   GL243948  14.665  -4.015  13.317  0.1551 -0.2331 -0.1805
 1855DPPC   C1A43949  14.925  -4.499  13.168 -0.1950  0.1929 -0.0566
 1855DPPC   C2A43950  15.274  -4.562  13.296 -0.0375 -0.0776  0.2750
 1855DPPC   C3A43951  15.539  -4.652  13.567  0.1249  0.0178 -0.3539
 1855DPPC   C4A43952  15.924  -4.820  13.614  0.0603  0.1029 -0.2776
 1855DPPC   C1B43953  14.813  -3.926  13.771  0.2988  0.2380  0.3073
 1855DPPC   C2B43954  14.818  -3.647  14.162  0.2949  0.0817 -0.1451
 1855DPPC   C3B43955  15.109  -3.404  14.391 -0.2140 -0.2273 -0.4101
 1855DPPC   C4B43956  15.478  -3.329  14.607 -0.0538  0.3579  0.0919
 1856DPPC   NC343957   6.361  11.233  20.675  0.0775  0.0893  0.0774
 1856DPPC   PO443958   6.722  11.474  20.928  0.1119  0.2072 -0.1774
 1856DPPC   GL143959   6.844  11.050  20.867  0.3831  0.0521  0.4072
 1856DPPC   GL243960   6.803  10.887  21.089  0.0697 -0.3458  0.1020
 1856DPPC   C1A43961   7.302  10.868  20.828 -0.2406  0.0428 -0.2490
 1856DPPC   C2A43962   7.630  10.685  20.998 -0.0452 -0.4862 -0.1494
 1856DPPC   C3A43963   8.016  10.843  20.891 -0.1387  0.1630 -0.2603
 1856DPPC   C4A43964   8.193  11.161  20.495 -0.1950 -0.1775  0.0009
 1856DPPC   C1B43965   6.971  10.626  21.369 -0.1091  0.1932 -0.2994
 1856DPPC   C2B43966   7.083  10.296  21.666  0.2564 -0.1563  0.3163
 1856DPPC   C3B43967   7.213   9.955  21.725 -0.0076  0.1015 -0.2121
 1856DPPC   C4B43968   7.473   9.716  21.422  0.0510  0.3535 -0.1370
 1857DPPC   NC343969  15.232  -3.954  11.692  0.0680  0.2213  0.0658
 1857DPPC   PO443970  14.917  -3.574  11.655 -0.3470 -0.3117 -0.2314
 1857DPPC   GL143971  14.986  -3.403  12.059 -0.1024 -0.1106  0.2289
 1857DPPC   GL243972  15.075  -3.161  12.103  0.2981  0.0609  0.0883
 1857DPPC   C1A43973  15.084  -3.537  12.425  0.0614  0.0856  0.0776
 1857DPPC   C2A43974  15.139  -3.461  12.811 -0.0193  0.2652 -0.1416
 1857DPPC   C3A43975  15.551  -3.319  13.036 -0.1108 -0.0852  0.6519
 1857DPPC   C4A43976  15.850  -3.076  12.780 -0.0393 -0.0634 -0.0715
 1857DPPC   C1B43977  15.417  -3.185  12.387  0.0798 -0.0488  0.0343
 1857DPPC   C2B43978  15.768  -3.395  12.371 -0.0983 -0.1056  0.1566
 1857DPPC   C3B43979  16.011  -3.718  12.235 -0.3149  0.0260  0.0800
 1857DPPC   C4B43980  16.366  -3.658  11.869 -0.2899  0.0984 -0.0638
 1858DPPC   NC343981  10.768  -1.993  14.578 -0.0163  0.1400 -0.1470
 1858DPPC   PO443982  10.597  -2.265  14.889 -0.4163  0.1640  0.1822
 1858DPPC   GL143983  10.939  -2.182  15.214 -0.0512  0.0193  0.0507
 1858DPPC   GL243984  11.264  -2.111  15.166  0.1044 -0.0705 -0.1141
 1858DPPC   C1A43985  11.068  -2.125  15.665  0.1746 -0.0014 -0.0361
 1858DPPC   C2A43986  11.302  -1.989  16.092 -0.1756  0.0641  0.3566
 1858DPPC   C3A43987  11.359  -2.126  16.475 -0.1296  0.1967 -0.1065
 1858DPPC   C4A43988  11.225  -2.418  16.633  0.0471  0.2062  0.2681
 1858DPPC   C1B43989  11.650  -1.788  15.142 -0.1851  0.3081 -0.0396
 1858DPPC   C2B43990  12.028  -1.740  14.903  0.3607  0.0533  0.0804
 1858DPPC   C3B43991  12.209  -1.263  14.920 -0.1330  0.1872  0.4486
 1858DPPC   C4B43992  12.106  -0.864  14.944  0.1634 -0.2459  0.0144
 1859DPPC   NC343993  13.348  -8.051  18.735 -0.0034  0.2321 -0.0135
 1859DPPC   PO443994  13.078  -7.683  18.894 -0.2835 -0.0453  0.4394
 1859DPPC   GL143995  13.118  -7.214  19.090  0.1994 -0.1114 -0.0235
 1859DPPC   GL243996  13.217  -6.939  18.854 -0.1830  0.0095  0.1374
 1859DPPC   C1A43997  13.411  -7.014  19.329 -0.0856 -0.1004 -0.2721
 1859DPPC   C2A43998  13.445  -6.646  19.418  0.0488  0.1456  0.1071
 1859DPPC   C3A43999  13.476  -6.133  19.611 -0.1510 -0.0902  0.1969
 1859DPPC   C4A44000  13.749  -5.815  19.609 -0.4514 -0.2326  0.0004
 1859DPPC   C1B44001  12.971  -6.740  19.111  0.1080 -0.0085  0.1658
 1859DPPC   C2B44002  13.017  -6.362  19.376 -0.1160  0.0020 -0.2454
 1859DPPC   C3B44003  13.072  -6.463  19.749  0.0842  0.0093  0.0889
 1859DPPC   C4B44004  13.147  -6.522  20.216  0.1313 -0.0473  0.1822
 1860DPPC   NC344005   9.637  -7.487  26.996  0.0305  0.2393 -0.1499
 1860DPPC   PO444006   9.852  -7.113  26.959  0.1734  0.2082 -0.0499
 1860DPPC   GL144007  10.139  -6.737  26.798 -0.1046 -0.1656 -0.0379
 1860DPPC   GL244008  10.060  -6.468  26.553  0.0973  0.2452  0.1032
 1860DPPC   C1A44009  10.370  -6.291  26.879  0.0873  0.2866 -0.2486
 1860DPPC   C2A44010  10.167  -6.010  26.716  0.1907 -0.1078 -0.2895
 1860DPPC   C3A44011  10.375  -5.641  26.591  0.0327 -0.1084  0.2331
 1860DPPC   C4A44012  10.422  -5.166  26.316  0.0014  0.0639 -0.2900
 1860DPPC   C1B44013  10.086  -6.151  26.205  0.0371  0.0468 -0.1290
 1860DPPC   C2B44014  10.354  -5.794  26.103  0.0608 -0.0826  0.1437
 1860DPPC   C3B44015  10.677  -5.689  25.772 -0.0550 -0.0978  0.1432
 1860DPPC   C4B44016  10.703  -5.471  25.390 -0.1203 -0.2070 -0.0629
 1861DPPC   NC344017  11.162   8.292  30.748  0.1681 -0.2701  0.1916
 1861DPPC   PO444018  10.824   8.498  31.013 -0.2753 -0.1740 -0.0813
 1861DPPC   GL144019  10.791   8.657  31.361  0.1828 -0.0282 -0.1260
 1861DPPC   GL244020  10.521   8.575  31.422  0.3199 -0.0650  0.1402
 1861DPPC   C1A44021  10.752   8.959  31.678  0.0170  0.0281  0.1333
 1861DPPC   C2A44022  10.623   9.069  32.105 -0.1252 -0.0876  0.2188
 1861DPPC   C3A44023  10.505   9.335  32.487 -0.0567  0.1940 -0.0708
 1861DPPC   C4A44024  10.417   9.558  32.854  0.3053  0.0514  0.2398
 1861DPPC   C1B44025  10.188   8.581  31.765  0.0026  0.0097  0.2021
 1861DPPC   C2B44026   9.670   8.613  31.806 -0.1922 -0.0102 -0.1572
 1861DPPC   C3B44027   9.345   8.903  31.876  0.0782 -0.2087  0.1139
 1861DPPC   C4B44028   9.042   8.895  32.219 -0.0231  0.2434  0.0056
 1862DPPC   NC344029  23.289  14.216  24.888  0.1147  0.1647  0.0430
 1862DPPC   PO444030  23.237  14.178  25.337  0.3714  0.1502 -0.2403
 1862DPPC   GL144031  23.068  13.778  25.365 -0.1432 -0.1898 -0.2073
 1862DPPC   GL244032  23.175  13.480  25.539  0.2674 -0.0954  0.2245
 1862DPPC   C1A44033  22.567  13.791  25.379 -0.0136  0.1902 -0.0400
 1862DPPC   C2A44034  22.231  13.831  25.737 -0.0139 -0.3102 -0.2158
 1862DPPC   C3A44035  21.663  13.737  25.902  0.1152 -0.0834  0.3416
 1862DPPC   C4A44036  21.217  13.626  25.746  0.0392 -0.0001  0.1774
 1862DPPC   C1B44037  23.345  13.164  25.682  0.2396 -0.1875 -0.1729
 1862DPPC   C2B44038  23.285  12.754  25.797  0.0077 -0.0996 -0.3054
 1862DPPC   C3B44039  23.255  12.363  25.993  0.1806  0.1248 -0.0327
 1862DPPC   C4B44040  23.373  11.829  26.066 -0.0040  0.1352  0.3589
 1863DPPC   NC344041  28.678   0.435  22.747 -0.3789  0.0130  0.0482
 1863DPPC   PO444042  28.559   0.472  22.397  0.4242  0.0775  0.0001
 1863DPPC   GL144043  28.282   0.810  22.322 -0.2179  0.4956  0.0389
 1863DPPC   GL244044  28.380   0.920  22.577  0.1558 -0.0601 -0.0253
 1863DPPC   C1A44045  27.960   1.210  22.440  0.1264  0.5011 -0.0855
 1863DPPC   C2A44046  27.507   1.337  22.206  0.1008  0.1467  0.2612
 1863DPPC   C3A44047  27.132   1.393  22.223 -0.0005 -0.2443 -0.1893
 1863DPPC   C4A44048  26.679   1.165  22.418 -0.1202 -0.1243  0.4446
 1863DPPC   C1B44049  28.009   1.005  22.889 -0.3779 -0.1242  0.2219
 1863DPPC   C2B44050  27.749   1.048  23.234  0.3637 -0.2561  0.2093
 1863DPPC   C3B44051  27.343   1.030  23.275  0.1432 -0.0697 -0.1485
 1863DPPC   C4B44052  26.894   0.919  23.205 -0.1491  0.0242  0.1951
 1864DPPC   NC344053  22.895  -7.358  12.817 -0.0020 -0.0266 -0.0703
 1864DPPC   PO444054  22.533  -7.118  12.611 -0.0682 -0.1872 -0.0218
 1864DPPC   GL144055  22.256  -6.892  12.907  0.0640  0.4768 -0.3041
 1864DPPC   GL244056  22.445  -6.753  13.082 -0.0461  0.0433 -0.1397
 1864DPPC   C1A44057  21.775  -6.696  13.070  0.1168  0.0145 -0.0741
 1864DPPC   C2A44058  21.580  -6.375  13.378  0.1975  0.2303  0.1512
 1864DPPC   C3A44059  21.410  -5.905  13.403  0.1663  0.1457  0.1847
 1864DPPC   C4A44060  21.023  -5.771  13.542  0.0770 -0.0758  0.1073
 1864DPPC   C1B44061  22.661  -6.394  13.173 -0.1085  0.4678 -0.0194
 1864DPPC   C2B44062  22.989  -6.305  13.545 -0.1639 -0.2370  0.2956
 1864DPPC   C3B44063  23.229  -6.041  13.692  0.1190  0.2714 -0.0067
 1864DPPC   C4B44064  23.223  -5.635  13.886  0.0723  0.1313 -0.0979
 1865DPPC   NC344065  16.117  -8.639  18.767 -0.1902  0.1846 -0.4297
 1865DPPC   PO444066  15.906  -8.307  18.844  0.0802  0.0419  0.1305
 1865DPPC   GL144067  16.211  -8.108  18.503 -0.2457  0.2349  0.1183
 1865DPPC   GL244068  16.218  -8.321  18.279 -0.0710 -0.1064 -0.0166
 1865DPPC   C1A44069  16.401  -7.698  18.458  0.2959 -0.1815 -0.2831
 1865DPPC   C2A44070  16.584  -7.310  18.404 -0.2078 -0.3711 -0.0016
 1865DPPC   C3A44071  16.684  -6.895  18.402 -0.1457  0.2029 -0.0788
 1865DPPC   C4A44072  16.708  -6.560  18.168  0.2922 -0.1173  0.0183
 1865DPPC   C1B44073  16.622  -8.032  18.208 -0.0467  0.0752  0.1129
 1865DPPC   C2B44074  16.825  -7.675  18.104 -0.1686  0.0388  0.1979
 1865DPPC   C3B44075  16.807  -7.353  17.820  0.1329  0.0018  0.1802
 1865DPPC   C4B44076  16.504  -6.986  17.864  0.1132 -0.1291  0.1908
 1866DPPC   NC344077  18.096   1.640  19.341 -0.3190 -0.1643  0.1493
 1866DPPC   PO444078  17.958   1.241  18.957 -0.0404 -0.1406  0.1956
 1866DPPC   GL144079  17.996   1.200  18.439 -0.3874 -0.1851  0.0902
 1866DPPC   GL244080  17.737   1.336  18.309  0.1867 -0.2673  0.2602
 1866DPPC   C1A44081  18.272   1.105  18.062  0.1078  0.2030 -0.1187
 1866DPPC   C2A44082  18.444   0.775  17.864  0.2372 -0.3534 -0.0470
 1866DPPC   C3A44083  18.778   0.430  17.914  0.4048  0.0159  0.2833
 1866DPPC   C4A44084  19.031   0.487  18.266  0.0437 -0.1364  0.0552
 1866DPPC   C1B44085  17.791   0.991  18.031  0.0700 -0.0746  0.2705
 1866DPPC   C2B44086  17.964   0.687  17.664 -0.0555 -0.3035  0.1288
 1866DPPC   C3B44087  18.152   0.750  17.289  0.0020 -0.1842 -0.1321
 1866DPPC   C4B44088  18.246   0.899  16.914 -0.1206  0.3254 -0.0140
 1867DPPC   NC344089  24.553  11.660  32.966 -0.1543  0.1472 -0.2905
 1867DPPC   PO444090  24.245  11.446  32.580 -0.3344 -0.0732  0.0712
 1867DPPC   GL144091  23.790  11.295  32.535 -0.2433 -0.1165 -0.3534
 1867DPPC   GL244092  23.741  10.989  32.505  0.4038  0.1767  0.2472
 1867DPPC   C1A44093  23.296  11.197  32.498 -0.3249 -0.1342  0.0709
 1867DPPC   C2A44094  22.962  10.972  32.689 -0.1745  0.0510 -0.1479
 1867DPPC   C3A44095  22.804  10.516  32.705 -0.0809  0.1322 -0.1232
 1867DPPC   C4A44096  22.694  10.074  32.910 -0.0607  0.3202 -0.0389
 1867DPPC   C1B44097  23.378  10.704  32.533  0.3515  0.1966 -0.2064
 1867DPPC   C2B44098  23.096  10.649  32.208  0.0640 -0.2373 -0.0189
 1867DPPC   C3B44099  22.929  10.757  31.889  0.2826  0.0612  0.0258
 1867DPPC   C4B44100  22.781  10.755  31.529  0.0532  0.3563 -0.1933
 1868DPPC   NC344101  23.937   7.411  28.559 -0.0022 -0.3231  0.2325
 1868DPPC   PO444102  24.108   7.859  28.524 -0.2714  0.4825  0.0291
 1868DPPC   GL144103  24.528   7.746  28.495  0.1584  0.1270 -0.2856
 1868DPPC   GL244104  24.599   7.563  28.251 -0.1605  0.0567 -0.3196
 1868DPPC   C1A44105  24.786   7.841  28.792  0.1552  0.2142  0.1393
 1868DPPC   C2A44106  25.089   7.650  29.072  0.0085 -0.1603  0.2504
 1868DPPC   C3A44107  25.300   7.292  29.293  0.0991  0.1430  0.0208
 1868DPPC   C4A44108  25.451   6.851  29.473  0.0708  0.2053 -0.0652
 1868DPPC   C1B44109  24.848   7.895  28.118  0.2963  0.0118 -0.1761
 1868DPPC   C2B44110  25.293   8.012  28.157 -0.0849 -0.0396 -0.0317
 1868DPPC   C3B44111  25.506   8.332  28.163 -0.2154  0.2020  0.0132
 1868DPPC   C4B44112  25.811   8.417  27.987 -0.0942  0.0626 -0.4080
 1869DPPC   NC344113  12.775  12.239  26.093 -0.0900  0.1385 -0.0432
 1869DPPC   PO444114  12.389  12.357  26.315 -0.1099 -0.2916 -0.0252
 1869DPPC   GL144115  12.644  12.767  26.293 -0.0685  0.1252 -0.1199
 1869DPPC   GL244116  12.917  12.668  26.494 -0.0944  0.1281  0.0723
 1869DPPC   C1A44117  12.675  13.253  26.176  0.0197 -0.3214 -0.1677
 1869DPPC   C2A44118  12.587  13.607  25.915 -0.2079  0.1292 -0.0792
 1869DPPC   C3A44119  12.642  13.996  25.824 -0.3371  0.0074  0.0289
 1869DPPC   C4A44120  12.959  14.338  25.758  0.1590  0.2656  0.1700
 1869DPPC   C1B44121  12.925  13.044  26.597  0.0029  0.1149  0.1327
 1869DPPC   C2B44122  12.830  13.433  26.658 -0.0212  0.1682 -0.0903
 1869DPPC   C3B44123  13.007  13.831  26.754 -0.2731 -0.1811  0.1504
 1869DPPC   C4B44124  12.956  14.277  26.684 -0.0922  0.0037 -0.0297
 1870DPPC   NC344125  11.833  -7.504  19.039 -0.0973  0.3840 -0.1255
 1870DPPC   PO444126  11.620  -7.146  19.074  0.0644 -0.1712 -0.0678
 1870DPPC   GL144127  11.460  -7.060  19.444 -0.1204  0.1388  0.2511
 1870DPPC   GL244128  11.457  -6.676  19.368  0.0386 -0.1150  0.1604
 1870DPPC   C1A44129  11.664  -7.033  19.854  0.0871 -0.0879 -0.0285
 1870DPPC   C2A44130  11.834  -6.916  20.225  0.3228 -0.2204 -0.2267
 1870DPPC   C3A44131  12.034  -6.998  20.514 -0.0342  0.1106 -0.0230
 1870DPPC   C4A44132  12.273  -6.991  20.877  0.2238  0.0696  0.0446
 1870DPPC   C1B44133  11.475  -6.511  19.815 -0.1439  0.0385  0.3755
 1870DPPC   C2B44134  11.632  -6.454  20.140  0.3731  0.0112  0.0723
 1870DPPC   C3B44135  11.661  -6.113  20.373 -0.0789  0.0636 -0.1771
 1870DPPC   C4B44136  11.861  -5.845  20.632  0.0374  0.3545  0.1779
 1871DPPC   NC344137  20.382  -4.220   9.986 -0.0485  0.1646  0.0100
 1871DPPC   PO444138  20.346  -4.655  10.087  0.1550  0.0390 -0.0920
 1871DPPC   GL144139  20.112  -4.744  10.475 -0.0347 -0.0295  0.0701
 1871DPPC   GL244140  20.270  -5.085  10.540 -0.0487 -0.0766 -0.1757
 1871DPPC   C1A44141  19.963  -4.645  10.953 -0.2709 -0.0340  0.3375
 1871DPPC   C2A44142  19.853  -4.582  11.385 -0.2786 -0.0985  0.0413
 1871DPPC   C3A44143  19.840  -4.442  11.776  0.2545 -0.0430 -0.1462
 1871DPPC   C4A44144  20.010  -4.263  12.155 -0.1491  0.0181  0.1250
 1871DPPC   C1B44145  20.436  -4.909  10.895 -0.3837 -0.0833 -0.0594
 1871DPPC   C2B44146  20.797  -4.675  10.982 -0.2796 -0.2034 -0.1162
 1871DPPC   C3B44147  20.753  -4.462  11.352 -0.1347  0.1097 -0.1560
 1871DPPC   C4B44148  20.756  -4.434  11.686  0.1466  0.0302 -0.2170
 1872DPPC   NC344149  25.295   1.050  12.092 -0.1564  0.1690  0.2665
 1872DPPC   PO444150  25.204   1.116  12.499 -0.2711  0.0399  0.3661
 1872DPPC   GL144151  24.966   0.949  12.840  0.2247  0.2430  0.1609
 1872DPPC   GL244152  24.970   0.631  12.803 -0.3102  0.1475 -0.0803
 1872DPPC   C1A44153  24.762   0.803  13.208  0.6232  0.3473  0.1623
 1872DPPC   C2A44154  24.328   0.611  13.349 -0.0973 -0.0238  0.0973
 1872DPPC   C3A44155  24.017   0.286  13.404  0.1675  0.0220  0.2434
 1872DPPC   C4A44156  23.749   0.035  13.729  0.0017 -0.3833  0.3259
 1872DPPC   C1B44157  25.170   0.543  13.132 -0.1908  0.3351 -0.0478
 1872DPPC   C2B44158  25.257   0.378  13.539  0.1218  0.1521 -0.1969
 1872DPPC   C3B44159  25.135   0.126  13.900  0.1330 -0.1233 -0.1022
 1872DPPC   C4B44160  24.703  -0.004  14.018  0.0787  0.2119  0.1585
 1873DPPC   NC344161  25.245  -6.161  19.744  0.1722  0.1448  0.0983
 1873DPPC   PO444162  25.472  -5.734  19.955  0.0091  0.0304  0.2585
 1873DPPC   GL144163  25.171  -5.595  19.677  0.1716 -0.2127 -0.0719
 1873DPPC   GL244164  24.903  -5.644  19.803  0.1940 -0.1796  0.3108
 1873DPPC   C1A44165  24.931  -5.589  19.293 -0.1291 -0.1152  0.2918
 1873DPPC   C2A44166  24.597  -5.286  19.265  0.0394 -0.0011 -0.1444
 1873DPPC   C3A44167  24.344  -5.081  18.984  0.0711 -0.0022  0.2515
 1873DPPC   C4A44168  24.127  -4.810  18.760 -0.0722  0.0447  0.0430
 1873DPPC   C1B44169  24.834  -5.218  19.757  0.0505 -0.3465  0.2240
 1873DPPC   C2B44170  24.453  -5.045  19.968 -0.0521  0.2377 -0.1533
 1873DPPC   C3B44171  24.019  -4.839  20.072  0.3955  0.0855 -0.0594
 1873DPPC   C4B44172  23.726  -5.121  20.132  0.1492  0.0333 -0.0426
 1874DPPC   NC344173  11.282  -7.714  26.435  0.0312 -0.0793  0.0516
 1874DPPC   PO444174  11.156  -7.583  26.317  0.0939 -0.0033 -0.0835
 1874DPPC   GL144175  11.045  -7.114  26.456  0.0197  0.0577 -0.0497
 1874DPPC   GL244176  10.797  -7.057  26.203 -0.1153 -0.0792 -0.0284
 1874DPPC   C1A44177  11.184  -6.946  26.833 -0.2354  0.0069 -0.4396
 1874DPPC   C2A44178  11.265  -6.670  26.990  0.2410 -0.1244 -0.1994
 1874DPPC   C3A44179  11.596  -6.490  27.066 -0.0497 -0.2131 -0.0722
 1874DPPC   C4A44180  11.702  -6.382  27.438 -0.1908 -0.0774 -0.2520
 1874DPPC   C1B44181  10.915  -6.658  26.278  0.2359  0.0627  0.1069
 1874DPPC   C2B44182  11.194  -6.266  26.273 -0.3988 -0.1824  0.0733
 1874DPPC   C3B44183  11.157  -5.791  26.157  0.0173 -0.0927  0.2702
 1874DPPC   C4B44184  11.309  -5.423  25.978 -0.0576 -0.1747  0.4437
 1875DPPC   NC344185  22.204   4.619  18.186  0.0998 -0.1606 -0.0349
 1875DPPC   PO444186  22.292   4.992  18.463 -0.0140 -0.2190  0.1672
 1875DPPC   GL144187  22.584   5.290  18.306 -0.0991  0.1614  0.0250
 1875DPPC   GL244188  22.660   5.461  18.525 -0.1370 -0.0518  0.0008
 1875DPPC   C1A44189  22.726   5.425  17.844 -0.1799  0.0638 -0.2246
 1875DPPC   C2A44190  22.573   5.629  17.533  0.0921  0.0707  0.0738
 1875DPPC   C3A44191  22.625   5.700  17.096  0.0741 -0.0113  0.2915
 1875DPPC   C4A44192  22.790   5.804  16.632 -0.0996  0.1683 -0.2292
 1875DPPC   C1B44193  22.809   5.894  18.347 -0.1715  0.1286  0.0880
 1875DPPC   C2B44194  22.960   6.087  17.960 -0.0153  0.1254  0.1778
 1875DPPC   C3B44195  22.913   6.132  17.594 -0.2909 -0.0012 -0.0957
 1875DPPC   C4B44196  22.852   6.151  17.137 -0.2248  0.0296 -0.1254
 1876DPPC   NC344197   5.418  10.674  21.625  0.2265  0.2504 -0.0518
 1876DPPC   PO444198   5.431  10.331  21.356 -0.0838  0.3273  0.0791
 1876DPPC   GL144199   5.742  10.305  21.549 -0.1064 -0.1145  0.1850
 1876DPPC   GL244200   5.895  10.534  21.742 -0.1896 -0.1180  0.2894
 1876DPPC   C1A44201   6.111  10.098  21.467 -0.1912 -0.0627 -0.1026
 1876DPPC   C2A44202   6.389   9.791  21.736 -0.0003  0.1368 -0.3481
 1876DPPC   C3A44203   6.630   9.510  22.072 -0.3293 -0.2089  0.0632
 1876DPPC   C4A44204   7.050   9.289  21.974  0.2656 -0.2585 -0.4523
 1876DPPC   C1B44205   6.137  10.284  21.972  0.0822 -0.0492  0.4294
 1876DPPC   C2B44206   6.301   9.920  22.222  0.1284 -0.0218 -0.0349
 1876DPPC   C3B44207   6.447   9.766  22.672 -0.0902  0.3519 -0.0347
 1876DPPC   C4B44208   6.386   9.276  22.653 -0.3830 -0.1456 -0.1511
 1877DPPC   NC344209  10.959  10.444  15.866 -0.0861  0.1541  0.1068
 1877DPPC   PO444210  11.158  10.340  16.259  0.3929 -0.4678  0.2615
 1877DPPC   GL144211  11.223   9.997  16.642 -0.3507 -0.3086 -0.0472
 1877DPPC   GL244212  10.930   9.783  16.705 -0.2880  0.1220 -0.1312
 1877DPPC   C1A44213  11.394   9.655  16.519 -0.1263 -0.4680 -0.0097
 1877DPPC   C2A44214  11.570   9.160  16.452 -0.0991  0.0485 -0.0334
 1877DPPC   C3A44215  11.848   8.999  16.536 -0.1750  0.1376  0.2914
 1877DPPC   C4A44216  12.092   8.923  16.952  0.0198  0.2003  0.1427
 1877DPPC   C1B44217  10.918   9.343  16.821 -0.2247  0.0460  0.0443
 1877DPPC   C2B44218  11.006   9.201  17.213 -0.5102  0.1493  0.1154
 1877DPPC   C3B44219  11.278   8.849  17.309 -0.0944  0.0967 -0.1397
 1877DPPC   C4B44220  11.526   8.786  17.705  0.1343 -0.3351  0.0354
 1878DPPC   NC344221  27.496  -0.854  29.814 -0.6233 -0.0488  0.2359
 1878DPPC   PO444222  27.296  -0.928  30.222 -0.0308 -0.0104 -0.0352
 1878DPPC   GL144223  27.127  -0.539  29.974  0.1016 -0.0328  0.2238
 1878DPPC   GL244224  27.227  -0.499  29.597  0.1028 -0.2383 -0.1222
 1878DPPC   C1A44225  26.818  -0.273  29.749 -0.1729  0.0913 -0.3241
 1878DPPC   C2A44226  26.722   0.182  29.739  0.0783 -0.1795  0.0744
 1878DPPC   C3A44227  26.580   0.542  29.709 -0.1384  0.1550  0.1271
 1878DPPC   C4A44228  26.239   0.760  29.987  0.0407 -0.0342  0.1793
 1878DPPC   C1B44229  27.049  -0.318  29.249  0.0918 -0.3086 -0.1140
 1878DPPC   C2B44230  26.617  -0.088  29.259  0.1404  0.1985 -0.0269
 1878DPPC   C3B44231  26.548   0.325  29.248 -0.1111  0.0635 -0.1153
 1878DPPC   C4B44232  26.630   0.508  28.781  0.0574 -0.1148  0.0094
 1879DPPC   NC344233   5.347  11.564  25.249 -0.2777  0.0628 -0.3969
 1879DPPC   PO444234   5.151  11.501  25.675 -0.1223 -0.2100  0.2645
 1879DPPC   GL144235   5.657  11.450  25.677 -0.0698  0.1981 -0.1485
 1879DPPC   GL244236   5.887  11.488  25.389  0.1087 -0.1318 -0.1875
 1879DPPC   C1A44237   5.800  11.067  25.612  0.1841  0.0775 -0.1057
 1879DPPC   C2A44238   6.047  10.776  25.861  0.1309 -0.0472  0.1162
 1879DPPC   C3A44239   6.454  10.758  25.811 -0.0270  0.0948 -0.0763
 1879DPPC   C4A44240   6.889  10.805  25.837 -0.2566  0.0328 -0.1598
 1879DPPC   C1B44241   6.285  11.442  25.517  0.1728 -0.0982  0.0910
 1879DPPC   C2B44242   6.634  11.163  25.481  0.2341 -0.1308 -0.5809
 1879DPPC   C3B44243   6.816  10.849  25.356 -0.0276  0.1761 -0.2206
 1879DPPC   C4B44244   7.123  10.642  25.442 -0.1633  0.1590 -0.2997
 1880DPPC   NC344245  16.076   9.603  13.696 -0.0048  0.1336 -0.1956
 1880DPPC   PO444246  16.157   9.431  14.055  0.1182 -0.2090 -0.1387
 1880DPPC   GL144247  16.135   9.466  14.459 -0.0722  0.2054  0.1706
 1880DPPC   GL244248  16.394   9.259  14.593  0.0594  0.5458 -0.4550
 1880DPPC   C1A44249  16.081   9.456  14.985 -0.0328  0.2309  0.1529
 1880DPPC   C2A44250  16.078   9.280  15.499 -0.1461 -0.0912  0.2256
 1880DPPC   C3A44251  16.082   9.045  15.776  0.1267 -0.1986 -0.0182
 1880DPPC   C4A44252  16.569   9.132  15.916  0.1735 -0.0955 -0.1268
 1880DPPC   C1B44253  16.181   8.916  14.712 -0.0857  0.0514 -0.0208
 1880DPPC   C2B44254  15.956   8.542  14.498 -0.3704  0.0122  0.0359
 1880DPPC   C3B44255  15.959   8.056  14.446 -0.2165  0.3136  0.2702
 1880DPPC   C4B44256  16.302   7.756  14.186  0.1472 -0.1914  0.0778
 1881DPPC   NC344257  19.095   1.670  37.334  0.0365  0.2453 -0.0686
 1881DPPC   PO444258  19.245   1.915  37.196 -0.1842  0.2270  0.0544
 1881DPPC   GL144259  19.215   2.037  36.748  0.0022  0.1273 -0.1679
 1881DPPC   GL244260  19.395   2.325  36.885 -0.2393 -0.1206 -0.2411
 1881DPPC   C1A44261  18.964   1.958  36.350  0.2568 -0.2008  0.1289
 1881DPPC   C2A44262  18.581   2.072  36.139  0.1414 -0.0156 -0.1839
 1881DPPC   C3A44263  18.331   2.283  35.921  0.4088 -0.0351 -0.1885
 1881DPPC   C4A44264  18.089   2.530  35.646 -0.1134 -0.0040 -0.2242
 1881DPPC   C1B44265  19.181   2.521  36.527  0.0180  0.1947 -0.1931
 1881DPPC   C2B44266  18.943   2.499  36.100  0.2552 -0.2184 -0.2013
 1881DPPC   C3B44267  18.794   2.440  35.708  0.1059  0.0978  0.2842
 1881DPPC   C4B44268  18.693   2.493  35.296  0.1788 -0.0188  0.1149
 1882DPPC   NC344269   6.726   1.822  27.012  0.1480 -0.2228  0.0925
 1882DPPC   PO444270   6.735   2.284  27.085  0.1461 -0.1037 -0.1967
 1882DPPC   GL144271   6.302   2.411  27.121 -0.0625 -0.0043  0.3140
 1882DPPC   GL244272   6.261   2.040  27.000 -0.0745  0.0051  0.0810
 1882DPPC   C1A44273   5.964   2.551  26.795 -0.2173 -0.0323 -0.1457
 1882DPPC   C2A44274   5.578   2.568  26.696 -0.1764 -0.0403 -0.0220
 1882DPPC   C3A44275   5.334   2.580  26.264  0.2756  0.0374 -0.0686
 1882DPPC   C4A44276   4.899   2.395  26.189  0.1657 -0.2026 -0.0749
 1882DPPC   C1B44277   5.922   1.946  27.222 -0.0643  0.0249 -0.0186
 1882DPPC   C2B44278   5.663   1.649  27.172  0.2321 -0.0914  0.0748
 1882DPPC   C3B44279   5.150   1.725  27.083 -0.2848  0.0942  0.2026
 1882DPPC   C4B44280   4.875   1.785  26.714 -0.0311  0.2389  0.5075
 1883DPPC   NC344281  27.169  -4.178  14.961 -0.0029  0.2522 -0.0066
 1883DPPC   PO444282  27.066  -3.882  15.160  0.0795 -0.0785 -0.0395
 1883DPPC   GL144283  26.731  -3.722  15.398 -0.0386  0.0570  0.0349
 1883DPPC   GL244284  26.640  -3.928  15.659 -0.1069  0.1313 -0.0167
 1883DPPC   C1A44285  26.287  -3.624  15.412 -0.0194 -0.2677  0.0828
 1883DPPC   C2A44286  25.847  -3.632  15.241  0.0610  0.0670  0.0919
 1883DPPC   C3A44287  25.498  -3.662  15.102 -0.2248  0.3868 -0.0289
 1883DPPC   C4A44288  25.324  -4.010  14.812  0.3089  0.0641  0.1276
 1883DPPC   C1B44289  26.295  -3.869  15.999 -0.0583  0.3072 -0.1015
 1883DPPC   C2B44290  25.825  -3.823  16.152 -0.0215 -0.0961 -0.2054
 1883DPPC   C3B44291  25.366  -3.742  16.161 -0.6102 -0.2018  0.1082
 1883DPPC   C4B44292  25.108  -3.481  16.067  0.0711  0.0294 -0.0220
 1884DPPC   NC344293  24.288   1.908  25.539 -0.0610 -0.2865  0.1760
 1884DPPC   PO444294  24.481   1.801  25.133  0.1357 -0.0595  0.2041
 1884DPPC   GL144295  24.924   1.846  25.023  0.0981  0.0793  0.1895
 1884DPPC   GL244296  25.002   1.447  25.088  0.3401  0.2516 -0.2297
 1884DPPC   C1A44297  25.269   1.728  24.802 -0.1329 -0.0951 -0.2044
 1884DPPC   C2A44298  25.591   1.615  24.647  0.0180  0.0816  0.0023
 1884DPPC   C3A44299  25.983   1.466  24.713 -0.1679 -0.0232 -0.0982
 1884DPPC   C4A44300  26.390   1.202  24.650  0.0065 -0.3597 -0.2154
 1884DPPC   C1B44301  25.239   1.200  24.980 -0.1883  0.1749 -0.1244
 1884DPPC   C2B44302  25.509   1.057  25.302  0.1653  0.0774 -0.1443
 1884DPPC   C3B44303  25.865   0.867  25.339  0.1317 -0.0975  0.2700
 1884DPPC   C4B44304  26.133   0.801  25.675  0.1059  0.0392  0.0603
 1885DPPC   NC344305  15.205   6.155  37.894  0.2584 -0.1607 -0.0919
 1885DPPC   PO444306  15.655   6.022  37.744  0.0076  0.1815 -0.1658
 1885DPPC   GL144307  15.487   5.969  37.314 -0.0100  0.0041  0.1766
 1885DPPC   GL244308  15.704   5.596  37.251 -0.0827 -0.1623 -0.0650
 1885DPPC   C1A44309  15.654   5.915  36.851 -0.1546  0.0391 -0.2422
 1885DPPC   C2A44310  15.408   6.023  36.451  0.3478 -0.1002  0.1383
 1885DPPC   C3A44311  15.314   6.328  36.063  0.0166 -0.2116 -0.0614
 1885DPPC   C4A44312  15.389   6.714  35.712 -0.1211 -0.1166  0.0181
 1885DPPC   C1B44313  16.066   5.685  37.074  0.2550  0.3513 -0.0868
 1885DPPC   C2B44314  16.104   5.720  36.652  0.3494  0.0328  0.1758
 1885DPPC   C3B44315  16.131   5.379  36.312 -0.3761  0.2134  0.2412
 1885DPPC   C4B44316  16.082   5.361  35.903  0.0593  0.0190  0.3430
 1886DPPC   NC344317  14.046  -0.287  16.719  0.0644  0.1879 -0.1512
 1886DPPC   PO444318  13.763   0.049  16.898  0.2171  0.0195 -0.1833
 1886DPPC   GL144319  13.489  -0.032  16.526 -0.0438 -0.1419 -0.2689
 1886DPPC   GL244320  13.749  -0.069  16.369 -0.1989 -0.3465 -0.2198
 1886DPPC   C1A44321  13.199  -0.049  16.167 -0.0591  0.1196  0.1240
 1886DPPC   C2A44322  13.000   0.168  15.773 -0.2450 -0.0923  0.1257
 1886DPPC   C3A44323  12.943   0.104  15.279 -0.0131  0.1345 -0.1055
 1886DPPC   C4A44324  12.622  -0.095  14.994  0.0895  0.2366  0.0683
 1886DPPC   C1B44325  13.674  -0.196  16.029  0.1903 -0.0451  0.0068
 1886DPPC   C2B44326  13.382  -0.151  15.722  0.0556 -0.4460 -0.0570
 1886DPPC   C3B44327  12.927  -0.318  15.638 -0.0041  0.0181 -0.1118
 1886DPPC   C4B44328  12.588  -0.114  15.606 -0.0344 -0.1017  0.1132
 1887DPPC   NC344329  16.469   1.708  16.483 -0.2000  0.0130 -0.1893
 1887DPPC   PO444330  16.768   1.314  16.514  0.0200  0.1829  0.2938
 1887DPPC   GL144331  16.974   1.322  16.187  0.1557  0.5275 -0.0157
 1887DPPC   GL244332  17.193   1.068  16.257  0.0495 -0.1551  0.0071
 1887DPPC   C1A44333  17.096   1.312  15.816 -0.0180  0.0405 -0.3082
 1887DPPC   C2A44334  17.014   1.024  15.512 -0.1852  0.0599 -0.0587
 1887DPPC   C3A44335  17.233   0.753  15.230 -0.1537  0.0615 -0.0090
 1887DPPC   C4A44336  17.215   0.343  15.104  0.1540  0.3132 -0.2443
 1887DPPC   C1B44337  17.370   0.693  16.249  0.0537  0.0887  0.0336
 1887DPPC   C2B44338  17.684   0.413  16.167 -0.1418  0.0487 -0.0485
 1887DPPC   C3B44339  18.044   0.064  16.060  0.0661  0.1489  0.0552
 1887DPPC   C4B44340  18.321   0.038  15.697  0.1949  0.0702  0.4397
 1888DPPC   NC344341  14.244  -4.192  21.964  0.1093 -0.2661  0.0509
 1888DPPC   PO444342  14.415  -4.032  21.552  0.1299  0.0309 -0.0170
 1888DPPC   GL144343  14.519  -4.504  21.556 -0.1151 -0.2251  0.0951
 1888DPPC   GL244344  14.730  -4.590  21.261 -0.2833  0.1717 -0.3190
 1888DPPC   C1A44345  14.723  -4.797  21.869  0.0890 -0.1348  0.0042
 1888DPPC   C2A44346  14.816  -5.243  21.836  0.1113  0.0390 -0.1445
 1888DPPC   C3A44347  14.693  -5.734  21.794  0.1079 -0.0300  0.0354
 1888DPPC   C4A44348  14.420  -6.235  21.909  0.1237 -0.4434  0.2648
 1888DPPC   C1B44349  14.730  -4.944  21.411  0.1860  0.1859 -0.0913
 1888DPPC   C2B44350  14.466  -5.304  21.450 -0.1930 -0.0425  0.1893
 1888DPPC   C3B44351  14.311  -5.675  21.339 -0.3132  0.1253  0.2380
 1888DPPC   C4B44352  14.147  -6.061  21.412 -0.0973 -0.1531 -0.1181
 1889DPPC   NC344353  23.097  -4.744  11.236 -0.2252  0.1064 -0.1500
 1889DPPC   PO444354  23.037  -4.353  11.045 -0.1576 -0.3898  0.0087
 1889DPPC   GL144355  23.029  -4.184  11.361 -0.3592  0.1789  0.3520
 1889DPPC   GL244356  23.112  -4.404  11.616  0.2430  0.3233 -0.0265
 1889DPPC   C1A44357  22.685  -4.071  11.681  0.3671 -0.0964 -0.0237
 1889DPPC   C2A44358  22.492  -3.641  11.856 -0.1996 -0.0990  0.2093
 1889DPPC   C3A44359  22.109  -3.380  12.026 -0.2152  0.1446 -0.0844
 1889DPPC   C4A44360  21.811  -3.395  12.306 -0.0182 -0.1207 -0.0112
 1889DPPC   C1B44361  23.003  -4.329  12.050 -0.0890  0.2382  0.1038
 1889DPPC   C2B44362  22.693  -3.978  12.165 -0.1948  0.0802 -0.2417
 1889DPPC   C3B44363  22.667  -3.592  12.418  0.2371 -0.0059  0.0635
 1889DPPC   C4B44364  22.165  -3.530  12.597 -0.0215  0.0487  0.2472
 1890DPPC   NC344365   6.588  -4.194  20.711 -0.0904  0.0680  0.3532
 1890DPPC   PO444366   6.336  -3.865  20.628 -0.0811  0.3935 -0.1711
 1890DPPC   GL144367   6.755  -3.715  20.545  0.0213 -0.4228  0.2342
 1890DPPC   GL244368   7.001  -3.927  20.594 -0.1754  0.0326 -0.1766
 1890DPPC   C1A44369   6.947  -3.276  20.580 -0.3112  0.1932  0.3848
 1890DPPC   C2A44370   7.301  -3.258  20.875  0.0262  0.0858 -0.2889
 1890DPPC   C3A44371   7.658  -3.347  20.984 -0.2954 -0.2543  0.0947
 1890DPPC   C4A44372   7.999  -3.287  21.102 -0.0116  0.3906 -0.0204
 1890DPPC   C1B44373   7.169  -3.751  20.992  0.2103  0.4070 -0.2865
 1890DPPC   C2B44374   7.199  -3.499  21.318  0.0443 -0.5463 -0.0245
 1890DPPC   C3B44375   7.511  -3.268  21.493  0.0017 -0.1290  0.4412
 1890DPPC   C4B44376   7.719  -2.888  21.266 -0.1150  0.0121 -0.1198
 1891DPPC   NC344377  10.399   6.020  14.052 -0.0957  0.0555 -0.0962
 1891DPPC   PO444378  10.758   5.802  14.167  0.1430 -0.2064 -0.0744
 1891DPPC   GL144379  11.171   5.984  14.263 -0.0394  0.0004 -0.0595
 1891DPPC   GL244380  11.510   6.043  14.059 -0.2453  0.0572 -0.3005
 1891DPPC   C1A44381  11.462   5.960  14.620 -0.1291  0.2881 -0.0780
 1891DPPC   C2A44382  11.484   6.223  14.883 -0.1413  0.1337 -0.1542
 1891DPPC   C3A44383  11.264   6.635  14.917  0.0427  0.0844 -0.4050
 1891DPPC   C4A44384  10.907   6.863  15.022 -0.2029 -0.0347 -0.0596
 1891DPPC   C1B44385  11.885   6.045  14.021 -0.2167 -0.2271 -0.0335
 1891DPPC   C2B44386  12.277   5.863  13.895  0.1901  0.0646  0.0812
 1891DPPC   C3B44387  12.609   5.724  14.125  0.1806  0.0792  0.0069
 1891DPPC   C4B44388  12.976   5.577  14.155  0.1734  0.2870 -0.2098
 1892DPPC   NC344389  10.321   3.097  31.822 -0.0362  0.1658 -0.2753
 1892DPPC   PO444390   9.962   3.197  32.136  0.0431 -0.2417 -0.0455
 1892DPPC   GL144391   9.812   3.163  32.551  0.4023  0.1419  0.1353
 1892DPPC   GL244392   9.707   2.932  32.790  0.2279  0.2865 -0.0849
 1892DPPC   C1A44393   9.906   3.379  32.898  0.0445 -0.1180  0.1256
 1892DPPC   C2A44394   9.777   3.583  33.327  0.3271 -0.1949  0.0035
 1892DPPC   C3A44395  10.031   3.921  33.560 -0.0738  0.2970  0.3052
 1892DPPC   C4A44396  10.418   4.133  33.496  0.0928  0.1935  0.3396
 1892DPPC   C1B44397   9.259   2.820  32.938  0.2138  0.2415 -0.0690
 1892DPPC   C2B44398   9.061   2.501  32.681  0.1025  0.0513  0.1262
 1892DPPC   C3B44399   8.895   2.169  32.798  0.1225  0.0317  0.1411
 1892DPPC   C4B44400   8.910   1.935  33.119 -0.0399 -0.0448 -0.0233
 1893DPPC   NC344401  19.475   2.902  18.371  0.2132 -0.0319  0.1555
 1893DPPC   PO444402  19.734   2.476  18.378  0.1757  0.0759 -0.0482
 1893DPPC   GL144403  19.808   2.224  18.119  0.2069 -0.1622  0.0739
 1893DPPC   GL244404  20.028   2.012  18.071 -0.2579  0.0448 -0.0886
 1893DPPC   C1A44405  19.771   2.295  17.748  0.0090 -0.0730 -0.1869
 1893DPPC   C2A44406  19.908   2.393  17.392  0.2588  0.2061  0.1724
 1893DPPC   C3A44407  19.966   2.233  17.008 -0.0806 -0.0636 -0.2377
 1893DPPC   C4A44408  20.373   2.162  16.742  0.2973  0.0514  0.0764
 1893DPPC   C1B44409  20.087   1.818  17.738 -0.4640 -0.0059 -0.1728
 1893DPPC   C2B44410  20.286   1.323  17.491 -0.2213 -0.1213  0.1498
 1893DPPC   C3B44411  20.395   0.828  17.660  0.2943  0.0173 -0.3530
 1893DPPC   C4B44412  20.493   0.453  17.879  0.0782 -0.0916  0.1263
 1894DPPC   NC344413  22.177   6.464  31.157  0.1784  0.0671 -0.0511
 1894DPPC   PO444414  22.336   6.750  31.015  0.2164  0.2361  0.1959
 1894DPPC   GL144415  22.595   6.666  31.372  0.1575 -0.0788 -0.2065
 1894DPPC   GL244416  22.376   6.573  31.646  0.1969  0.3975 -0.0966
 1894DPPC   C1A44417  22.999   6.842  31.507 -0.0834  0.1245 -0.0174
 1894DPPC   C2A44418  23.144   7.091  31.861  0.1971 -0.0662 -0.0697
 1894DPPC   C3A44419  23.248   7.316  32.125 -0.1295  0.0389  0.2234
 1894DPPC   C4A44420  23.368   7.579  32.498  0.0224 -0.3070  0.1495
 1894DPPC   C1B44421  22.655   6.692  32.077 -0.1976  0.1535  0.3279
 1894DPPC   C2B44422  23.069   6.697  32.224  0.0870 -0.0991  0.2053
 1894DPPC   C3B44423  23.387   6.734  32.428 -0.1726  0.0462 -0.0508
 1894DPPC   C4B44424  23.754   6.596  32.426 -0.3535  0.1081  0.0546
 1895DPPC   NC344425  19.809   4.342  37.203  0.1858 -0.0637 -0.1897
 1895DPPC   PO444426  19.991   4.151  36.895 -0.0057 -0.1850 -0.0764
 1895DPPC   GL144427  19.661   4.196  36.594 -0.0854 -0.0340  0.1063
 1895DPPC   GL244428  19.746   4.124  36.238 -0.0683 -0.0621 -0.1186
 1895DPPC   C1A44429  19.397   4.472  36.309  0.4474  0.3045 -0.1150
 1895DPPC   C2A44430  19.340   4.544  35.926 -0.1225  0.1604 -0.2827
 1895DPPC   C3A44431  18.981   4.607  35.679 -0.2393 -0.0869  0.1172
 1895DPPC   C4A44432  19.096   4.459  35.364 -0.0118  0.2679 -0.0818
 1895DPPC   C1B44433  19.668   4.169  35.771 -0.1533 -0.2454  0.0500
 1895DPPC   C2B44434  20.074   4.180  35.513  0.0505 -0.0872  0.1501
 1895DPPC   C3B44435  20.299   4.115  34.987  0.3059 -0.0879  0.1710
 1895DPPC   C4B44436  20.215   4.043  34.618  0.3751  0.0479 -0.0226
 1896DPPC   NC344437  20.533   5.311  32.759 -0.3819  0.0233 -0.0182
 1896DPPC   PO444438  20.211   5.393  33.063 -0.0260 -0.1867 -0.0868
 1896DPPC   GL144439  20.551   5.250  33.325  0.2432 -0.1607 -0.3281
 1896DPPC   GL244440  20.786   5.468  33.300 -0.1294 -0.3076 -0.1576
 1896DPPC   C1A44441  20.864   5.139  33.672 -0.1600 -0.0353  0.0051
 1896DPPC   C2A44442  21.151   5.011  33.933  0.0049  0.3444  0.0642
 1896DPPC   C3A44443  21.606   4.865  33.914 -0.3671  0.0095  0.2214
 1896DPPC   C4A44444  21.979   4.981  33.812 -0.2562 -0.1571  0.0339
 1896DPPC   C1B44445  20.555   5.664  33.629 -0.1854 -0.2385  0.1060
 1896DPPC   C2B44446  20.605   5.671  34.052 -0.0026  0.5728 -0.2810
 1896DPPC   C3B44447  20.238   5.470  34.306  0.2403 -0.0532 -0.1566
 1896DPPC   C4B44448  20.206   5.383  34.685  0.2327 -0.2598 -0.0500
 1897DPPC   NC344449  21.521  14.995  25.484  0.1243  0.2011  0.0039
 1897DPPC   PO444450  21.564  15.315  25.044 -0.0475 -0.1507 -0.1997
 1897DPPC   GL144451  21.212  14.959  25.078  0.2176 -0.1170  0.0163
 1897DPPC   GL244452  21.072  14.816  25.284  0.3481  0.0843  0.2269
 1897DPPC   C1A44453  21.412  14.603  24.960 -0.1600 -0.0435  0.3727
 1897DPPC   C2A44454  21.356  14.284  24.942 -0.1857 -0.4036 -0.1542
 1897DPPC   C3A44455  21.139  13.901  24.770  0.3365  0.1272 -0.1693
 1897DPPC   C4A44456  20.758  13.457  24.773  0.3199 -0.0274 -0.0716
 1897DPPC   C1B44457  20.797  14.511  25.479  0.0937  0.0189  0.0405
 1897DPPC   C2B44458  20.430  14.332  25.440 -0.1555  0.1800  0.3997
 1897DPPC   C3B44459  20.202  14.095  25.541 -0.1208 -0.0603 -0.0877
 1897DPPC   C4B44460  19.885  13.824  25.566 -0.1716  0.3859 -0.2877
 1898DPPC   NC344461  16.552   9.655  37.145  0.2129  0.1036  0.0581
 1898DPPC   PO444462  16.785   9.703  36.757  0.3272 -0.1461  0.1751
 1898DPPC   GL144463  16.840   9.455  36.492 -0.0303 -0.0151 -0.0585
 1898DPPC   GL244464  16.700   9.090  36.550 -0.0180 -0.0172 -0.3864
 1898DPPC   C1A44465  16.698   9.340  36.024  0.1156 -0.1725 -0.1178
 1898DPPC   C2A44466  16.517   9.207  35.617  0.0350 -0.1328 -0.1172
 1898DPPC   C3A44467  16.282   9.133  35.427 -0.3173  0.0596  0.1337
 1898DPPC   C4A44468  16.030   8.859  35.344 -0.2622  0.1335  0.0020
 1898DPPC   C1B44469  16.941   8.880  36.205 -0.1561 -0.0186  0.2114
 1898DPPC   C2B44470  17.267   8.749  35.953  0.0206  0.1179  0.1671
 1898DPPC   C3B44471  17.484   8.488  35.750  0.0256  0.0497  0.0410
 1898DPPC   C4B44472  17.665   8.421  35.416 -0.3370  0.5486  0.0907
 1899DPPC   NC344473  20.134  -3.327  24.033 -0.0749 -0.0892 -0.0058
 1899DPPC   PO444474  19.885  -3.369  24.463 -0.1693 -0.2518  0.4282
 1899DPPC   GL144475  20.165  -3.749  24.448 -0.0290  0.0015  0.2884
 1899DPPC   GL244476  20.274  -3.831  24.192  0.1764  0.0786  0.1072
 1899DPPC   C1A44477  20.037  -4.223  24.424 -0.0495  0.2355  0.0841
 1899DPPC   C2A44478  20.206  -4.617  24.459 -0.4036  0.0721  0.2227
 1899DPPC   C3A44479  20.235  -5.069  24.412  0.2509  0.1595 -0.4030
 1899DPPC   C4A44480  20.105  -5.237  24.879 -0.3098  0.2299  0.0158
 1899DPPC   C1B44481  20.507  -4.243  24.168 -0.0919  0.0817  0.2796
 1899DPPC   C2B44482  20.610  -4.656  24.188  0.0891 -0.2651  0.2708
 1899DPPC   C3B44483  20.706  -4.940  24.378  0.2636  0.1759 -0.3793
 1899DPPC   C4B44484  20.741  -5.269  24.274  0.0251  0.0231 -0.0394
 1900DPPC   NC344485  16.903   8.091  12.434 -0.3048  0.1040 -0.1743
 1900DPPC   PO444486  16.558   8.145  12.801 -0.3479  0.0605 -0.0985
 1900DPPC   GL144487  16.606   7.805  13.115 -0.1827 -0.0473 -0.0548
 1900DPPC   GL244488  16.456   7.796  13.451 -0.2143  0.4883  0.0250
 1900DPPC   C1A44489  16.900   7.589  13.443 -0.2933 -0.3625  0.0484
 1900DPPC   C2A44490  17.133   7.581  13.852  0.1401 -0.1299  0.0854
 1900DPPC   C3A44491  17.340   7.972  14.110 -0.1358  0.0788 -0.0608
 1900DPPC   C4A44492  17.689   8.272  14.016 -0.0795  0.0776 -0.0547
 1900DPPC   C1B44493  16.551   7.408  13.724  0.2207  0.1605  0.1111
 1900DPPC   C2B44494  16.596   7.159  14.117 -0.0352 -0.2390  0.0681
 1900DPPC   C3B44495  16.814   6.755  14.207  0.1390 -0.0689 -0.1720
 1900DPPC   C4B44496  16.787   6.555  14.581 -0.2733  0.4501  0.0506
 1901DPPC   NC344497  24.642  12.657  30.099  0.0956 -0.0971  0.0126
 1901DPPC   PO444498  24.303  12.367  30.007 -0.1105 -0.1125  0.0862
 1901DPPC   GL144499  24.012  12.311  29.712  0.0083 -0.1447 -0.2373
 1901DPPC   GL244500  23.919  11.915  29.913  0.1983  0.2504  0.3051
 1901DPPC   C1A44501  23.608  12.180  29.673  0.2283 -0.1417  0.0312
 1901DPPC   C2A44502  23.576  11.692  29.528  0.0267  0.0933 -0.0572
 1901DPPC   C3A44503  23.353  11.154  29.472  0.0898  0.1485 -0.2684
 1901DPPC   C4A44504  23.503  10.814  29.256 -0.0190  0.0659  0.1893
 1901DPPC   C1B44505  23.870  11.582  30.203 -0.2303  0.5680  0.0168
 1901DPPC   C2B44506  24.073  11.214  30.189 -0.3465  0.1150 -0.3317
 1901DPPC   C3B44507  24.417  10.968  30.325 -0.1395 -0.1148 -0.1626
 1901DPPC   C4B44508  24.770  10.809  30.415  0.0059 -0.0570 -0.0821
 1902DPPC   NC344509  23.221   9.181  27.676  0.0108  0.3021  0.0224
 1902DPPC   PO444510  22.812   9.145  27.891  0.0200  0.0617 -0.0818
 1902DPPC   GL144511  23.041   9.521  28.111  0.0040 -0.4043 -0.3956
 1902DPPC   GL244512  23.306   9.405  28.074  0.1356  0.2493 -0.0367
 1902DPPC   C1A44513  23.152   9.985  28.154  0.2180 -0.3486  0.3306
 1902DPPC   C2A44514  23.244  10.452  28.225 -0.0837  0.0694  0.3467
 1902DPPC   C3A44515  23.342  10.847  28.332 -0.2484 -0.0343 -0.1014
 1902DPPC   C4A44516  23.572  11.013  28.628 -0.3247  0.0648  0.0669
 1902DPPC   C1B44517  23.658   9.481  28.313 -0.0849  0.2893 -0.1865
 1902DPPC   C2B44518  24.092   9.350  28.367  0.0547 -0.1816  0.2137
 1902DPPC   C3B44519  24.463   9.643  28.595 -0.3606 -0.4105  0.1791
 1902DPPC   C4B44520  24.712   9.688  29.004 -0.2014 -0.0637 -0.0060
 1903DPPC   NC344521  24.840  12.795  22.719  0.1853 -0.1175 -0.0446
 1903DPPC   PO444522  24.972  12.375  22.590  0.3007 -0.0927 -0.0739
 1903DPPC   GL144523  24.674  12.187  22.547 -0.0184  0.2283  0.1061
 1903DPPC   GL244524  24.753  11.910  22.474 -0.0161  0.1153 -0.3066
 1903DPPC   C1A44525  24.274  11.870  22.454  0.2301  0.2593 -0.0405
 1903DPPC   C2A44526  24.099  11.494  22.675 -0.0376  0.1384  0.0039
 1903DPPC   C3A44527  23.808  11.115  22.758  0.2976  0.1157  0.2363
 1903DPPC   C4A44528  23.470  10.895  22.528  0.1826  0.0012  0.1294
 1903DPPC   C1B44529  24.615  11.653  22.710  0.1081  0.0327 -0.0818
 1903DPPC   C2B44530  24.698  11.582  23.116 -0.0763 -0.5008  0.0542
 1903DPPC   C3B44531  24.818  11.615  23.560 -0.2172 -0.0405 -0.0749
 1903DPPC   C4B44532  25.138  11.414  23.845  0.1375  0.0225 -0.2588
 1904DPPC   NC344533  21.658  -2.033  20.950  0.0437 -0.1187  0.0725
 1904DPPC   PO444534  21.521  -1.601  20.691 -0.0348  0.1299  0.0033
 1904DPPC   GL144535  21.744  -1.832  20.475 -0.2433 -0.2140 -0.1886
 1904DPPC   GL244536  21.889  -1.576  20.253 -0.0834  0.0196 -0.1624
 1904DPPC   C1A44537  22.054  -2.040  20.160 -0.0837 -0.0097  0.0648
 1904DPPC   C2A44538  22.106  -2.298  19.796 -0.3283 -0.1942  0.0015
 1904DPPC   C3A44539  22.086  -2.379  19.410  0.2131  0.2829  0.0798
 1904DPPC   C4A44540  21.729  -2.264  19.183  0.0405 -0.0490  0.0610
 1904DPPC   C1B44541  22.068  -1.568  19.917 -0.0375  0.0731  0.0770
 1904DPPC   C2B44542  22.326  -1.554  19.517 -0.0891 -0.0304  0.1251
 1904DPPC   C3B44543  22.242  -1.443  19.124 -0.0326  0.0473 -0.0059
 1904DPPC   C4B44544  22.131  -1.523  18.643  0.1145 -0.2718 -0.3626
 1905DPPC   NC344545  26.537  11.356  23.126 -0.4417 -0.0411  0.1580
 1905DPPC   PO444546  26.087  11.356  22.941  0.0816 -0.1079 -0.0623
 1905DPPC   GL144547  25.583  11.238  22.834 -0.1323  0.4259  0.0240
 1905DPPC   GL244548  25.358  11.272  22.545 -0.1646 -0.1752  0.0329
 1905DPPC   C1A44549  25.445  10.914  23.122  0.0078  0.0759  0.0309
 1905DPPC   C2A44550  25.441  10.567  23.132 -0.3355  0.0411 -0.3551
 1905DPPC   C3A44551  25.253  10.427  23.430 -0.1677  0.3833  0.1995
 1905DPPC   C4A44552  25.145  10.127  23.659  0.0935 -0.1836  0.2539
 1905DPPC   C1B44553  25.193  10.903  22.693 -0.1698  0.1408 -0.2015
 1905DPPC   C2B44554  24.941  10.694  22.472 -0.1983  0.1703  0.1855
 1905DPPC   C3B44555  24.596  10.584  22.749 -0.2197 -0.0028  0.2117
 1905DPPC   C4B44556  24.466  10.596  23.128  0.0688 -0.1824 -0.3637
 1906DPPC   NC344557  24.009  -8.181  15.100  0.0732 -0.0901  0.5367
 1906DPPC   PO444558  24.026  -7.794  14.762  0.0457  0.1882  0.0797
 1906DPPC   GL144559  23.813  -7.655  15.108 -0.0896  0.2607 -0.1063
 1906DPPC   GL244560  23.531  -7.440  15.042 -0.0388 -0.0371  0.2633
 1906DPPC   C1A44561  23.599  -7.485  15.493 -0.0513 -0.1937  0.1562
 1906DPPC   C2A44562  23.381  -7.118  15.604 -0.2629  0.0801 -0.0701
 1906DPPC   C3A44563  23.023  -7.049  15.625  0.1928  0.2519 -0.3377
 1906DPPC   C4A44564  22.704  -6.955  15.676  0.2664  0.2210 -0.1020
 1906DPPC   C1B44565  23.149  -7.304  15.224  0.0706  0.0997 -0.2420
 1906DPPC   C2B44566  22.894  -6.998  15.109 -0.0341  0.1587  0.2365
 1906DPPC   C3B44567  22.558  -6.762  15.220 -0.1890 -0.6344 -0.2093
 1906DPPC   C4B44568  22.231  -6.781  15.508 -0.0861  0.3073  0.3827
 1907DPPC   NC344569  17.742  -8.191  25.874 -0.0420 -0.0463  0.0292
 1907DPPC   PO444570  17.952  -8.285  26.265  0.4924 -0.1163  0.0328
 1907DPPC   GL144571  17.830  -7.788  26.266 -0.0234 -0.0546  0.0900
 1907DPPC   GL244572  17.420  -7.780  26.213 -0.0922 -0.1606  0.0208
 1907DPPC   C1A44573  17.935  -7.370  26.144  0.1516 -0.0101  0.0718
 1907DPPC   C2A44574  17.639  -6.975  25.846  0.1470  0.1005 -0.1359
 1907DPPC   C3A44575  17.590  -6.627  25.882  0.0072  0.0198 -0.0535
 1907DPPC   C4A44576  17.593  -6.300  26.140 -0.0008 -0.1641  0.1478
 1907DPPC   C1B44577  17.441  -7.530  25.853 -0.3378 -0.0715 -0.0974
 1907DPPC   C2B44578  17.629  -7.411  25.486  0.0556 -0.1289  0.0625
 1907DPPC   C3B44579  17.868  -7.124  25.315 -0.0032 -0.4915  0.1485
 1907DPPC   C4B44580  17.898  -6.698  25.484 -0.0854 -0.0617 -0.0079
 1908DPPC   NC344581  12.819  -3.345  20.049  0.2437  0.1901 -0.2309
 1908DPPC   PO444582  13.194  -3.600  19.941 -0.0219 -0.1349  0.0125
 1908DPPC   GL144583  13.269  -3.869  19.600 -0.1166 -0.0481  0.0596
 1908DPPC   GL244584  13.202  -3.687  19.399  0.1259  0.3169  0.1240
 1908DPPC   C1A44585  13.390  -4.262  19.282  0.3020 -0.1673 -0.3388
 1908DPPC   C2A44586  13.387  -4.597  18.982  0.0503 -0.1964  0.0665
 1908DPPC   C3A44587  13.583  -4.719  18.614  0.1419  0.0296  0.2207
 1908DPPC   C4A44588  13.815  -4.690  18.177 -0.3980 -0.0560  0.0618
 1908DPPC   C1B44589  13.127  -3.877  19.054  0.0233 -0.1996  0.0183
 1908DPPC   C2B44590  12.982  -4.220  18.837  0.1128  0.2225 -0.0921
 1908DPPC   C3B44591  13.014  -4.551  18.542 -0.1055 -0.0730  0.1259
 1908DPPC   C4B44592  13.180  -4.858  18.152 -0.0742  0.1261 -0.0276
 1909DPPC   NC344593  17.438   6.013  38.566  0.1352  0.0870 -0.0523
 1909DPPC   PO444594  17.357   5.616  38.275  0.0441 -0.1032 -0.2114
 1909DPPC   GL144595  17.412   5.609  37.757  0.1318  0.2476  0.1222
 1909DPPC   GL244596  17.296   5.933  37.541  0.1787  0.1767  0.0636
 1909DPPC   C1A44597  17.498   5.469  37.327 -0.1486 -0.2352 -0.0422
 1909DPPC   C2A44598  17.505   5.460  36.871  0.2265 -0.3990  0.1261
 1909DPPC   C3A44599  17.371   5.441  36.515 -0.0700 -0.2818  0.1152
 1909DPPC   C4A44600  17.014   5.292  36.306  0.0098  0.1774 -0.3185
 1909DPPC   C1B44601  17.073   5.778  37.201  0.2032 -0.0685 -0.0327
 1909DPPC   C2B44602  16.708   5.948  37.020 -0.1937  0.0282 -0.0863
 1909DPPC   C3B44603  16.349   6.119  37.230 -0.3776 -0.2235  0.1899
 1909DPPC   C4B44604  15.973   6.185  37.092 -0.3428 -0.0619  0.4279
 1910DPPC   NC344605  19.640   4.055  17.299  0.1241 -0.1327 -0.3490
 1910DPPC   PO444606  19.436   3.797  16.940  0.3941  0.1287  0.0524
 1910DPPC   GL144607  19.633   3.786  16.558 -0.2253  0.0267  0.0186
 1910DPPC   GL244608  19.482   3.776  16.397 -0.0891  0.1626 -0.2083
 1910DPPC   C1A44609  19.997   3.896  16.279  0.2914  0.0621 -0.0987
 1910DPPC   C2A44610  20.175   3.787  15.950 -0.1920 -0.1495  0.1495
 1910DPPC   C3A44611  20.516   3.752  15.614  0.2385  0.1872  0.1100
 1910DPPC   C4A44612  20.596   3.498  15.163  0.3580 -0.1999  0.1465
 1910DPPC   C1B44613  19.569   3.884  15.989  0.1446 -0.0781 -0.1619
 1910DPPC   C2B44614  19.495   4.004  15.626  0.2365  0.0966 -0.0331
 1910DPPC   C3B44615  19.661   3.880  15.241 -0.2626  0.2288  0.1114
 1910DPPC   C4B44616  19.858   3.888  14.873 -0.0416 -0.1108 -0.2671
 1911DPPC   NC344617  14.201  -3.275  25.184  0.0956  0.1839  0.0639
 1911DPPC   PO444618  14.090  -3.739  25.088  0.3212 -0.0984  0.0077
 1911DPPC   GL144619  14.095  -4.240  25.257 -0.1914 -0.0305 -0.1483
 1911DPPC   GL244620  14.282  -4.384  25.066  0.0114 -0.0285  0.0312
 1911DPPC   C1A44621  13.988  -4.469  25.495  0.4816  0.3100  0.1379
 1911DPPC   C2A44622  14.131  -4.876  25.693 -0.1842  0.1519 -0.0038
 1911DPPC   C3A44623  14.518  -5.140  25.514  0.1709  0.4072 -0.0433
 1911DPPC   C4A44624  14.450  -5.576  25.258  0.1756 -0.0177 -0.0778
 1911DPPC   C1B44625  14.165  -4.796  25.150 -0.2022  0.2277 -0.1385
 1911DPPC   C2B44626  14.099  -5.248  25.084  0.2498  0.1540 -0.1954
 1911DPPC   C3B44627  13.941  -5.588  25.209 -0.0978 -0.0978  0.0365
 1911DPPC   C4B44628  14.056  -6.000  25.146 -0.3054  0.0965 -0.0279
 1912DPPC   NC344629  13.396  -6.373  30.960  0.0494  0.2149 -0.2317
 1912DPPC   PO444630  13.728  -6.260  31.181 -0.4619 -0.0398  0.2177
 1912DPPC   GL144631  13.785  -5.777  31.190  0.0023  0.2486 -0.1657
 1912DPPC   GL244632  13.569  -5.705  31.309 -0.0889 -0.1013 -0.2385
 1912DPPC   C1A44633  13.858  -5.517  30.805  0.1238 -0.4065 -0.1497
 1912DPPC   C2A44634  14.090  -5.341  30.603 -0.0142 -0.2690 -0.1235
 1912DPPC   C3A44635  14.151  -4.975  30.405 -0.0750 -0.1895 -0.1686
 1912DPPC   C4A44636  14.276  -4.697  30.100 -0.1872  0.0099 -0.1493
 1912DPPC   C1B44637  13.514  -5.296  31.114  0.1402 -0.2333 -0.0730
 1912DPPC   C2B44638  13.649  -4.985  30.846  0.1529  0.0380  0.0357
 1912DPPC   C3B44639  13.702  -4.740  30.516  0.2385  0.1121 -0.0430
 1912DPPC   C4B44640  13.710  -4.872  30.035 -0.1015  0.1111 -0.1188
 1913DPPC   NC344641  18.078   0.696  10.182  0.1583  0.2213  0.1382
 1913DPPC   PO444642  18.460   0.596  10.323 -0.0948  0.3224 -0.0506
 1913DPPC   GL144643  18.586   0.383  10.684 -0.1619  0.1524  0.0094
 1913DPPC   GL244644  18.858   0.506  10.863  0.1220 -0.2060  0.0951
 1913DPPC   C1A44645  18.758   0.001  10.900 -0.1636  0.2483  0.0680
 1913DPPC   C2A44646  18.908  -0.400  10.870  0.0939 -0.1866  0.0179
 1913DPPC   C3A44647  19.088  -0.745  10.886  0.2399 -0.3091  0.3389
 1913DPPC   C4A44648  19.509  -0.755  10.640 -0.0554 -0.2321  0.0263
 1913DPPC   C1B44649  18.960   0.437  11.279  0.0069 -0.0094  0.1896
 1913DPPC   C2B44650  18.887   0.385  11.767  0.0354 -0.0417  0.0901
 1913DPPC   C3B44651  18.998   0.186  12.121 -0.0874  0.0733  0.0424
 1913DPPC   C4B44652  18.992   0.186  12.624  0.2931 -0.1861  0.3072
 1914DPPC   NC344653  25.824  -2.315  12.512  0.0576  0.1248  0.3903
 1914DPPC   PO444654  25.566  -2.412  12.194  0.1699  0.2481 -0.3361
 1914DPPC   GL144655  25.342  -2.765  12.323 -0.1872  0.0394  0.0205
 1914DPPC   GL244656  25.396  -2.907  12.699 -0.0385  0.0288 -0.0053
 1914DPPC   C1A44657  24.916  -2.971  12.369 -0.1425  0.0207  0.2293
 1914DPPC   C2A44658  24.414  -3.083  12.351  0.2344 -0.3478  0.3789
 1914DPPC   C3A44659  24.177  -3.099  11.967  0.2395  0.1248  0.3568
 1914DPPC   C4A44660  23.968  -3.226  11.546 -0.1058 -0.0199  0.2964
 1914DPPC   C1B44661  25.363  -2.841  13.136 -0.0799  0.0789 -0.0326
 1914DPPC   C2B44662  24.979  -2.669  13.258 -0.2016 -0.0890  0.2877
 1914DPPC   C3B44663  24.602  -2.706  13.481 -0.3406  0.3255  0.0079
 1914DPPC   C4B44664  24.240  -2.509  13.204 -0.0027 -0.3178 -0.1956
 1915DPPC   NC344665  27.484  -2.573  26.767  0.2629 -0.2446  0.4482
 1915DPPC   PO444666  27.164  -2.690  26.505 -0.0848 -0.0715  0.2092
 1915DPPC   GL144667  26.734  -2.418  26.595  0.0756  0.1878  0.2370
 1915DPPC   GL244668  26.493  -2.278  26.844 -0.3781 -0.0777  0.1380
 1915DPPC   C1A44669  26.424  -2.197  26.310 -0.0357 -0.0682  0.3886
 1915DPPC   C2A44670  25.978  -1.932  26.219  0.2154 -0.4108 -0.1680
 1915DPPC   C3A44671  25.551  -1.764  26.388 -0.3570 -0.0923 -0.0972
 1915DPPC   C4A44672  24.984  -1.766  26.534 -0.1117  0.0864  0.0278
 1915DPPC   C1B44673  26.156  -1.956  26.641 -0.1593 -0.0776  0.0948
 1915DPPC   C2B44674  25.963  -1.622  26.869  0.0415  0.4521 -0.3587
 1915DPPC   C3B44675  25.736  -1.446  27.118 -0.0920 -0.0510  0.1717
 1915DPPC   C4B44676  25.397  -1.720  27.351  0.2008  0.0968 -0.1936
 1916DPPC   NC344677   3.090   6.499  25.326  0.1642  0.1323 -0.2248
 1916DPPC   PO444678   3.472   6.645  25.003 -0.2002  0.2725 -0.0434
 1916DPPC   GL144679   3.821   6.547  25.056 -0.0536  0.2046  0.0416
 1916DPPC   GL244680   3.670   6.200  25.082  0.0690 -0.0304 -0.4928
 1916DPPC   C1A44681   4.248   6.524  25.213 -0.1393 -0.1472 -0.2311
 1916DPPC   C2A44682   4.617   6.721  25.253 -0.0554 -0.0525  0.0671
 1916DPPC   C3A44683   4.927   6.965  25.287 -0.1217  0.1341 -0.1021
 1916DPPC   C4A44684   5.347   6.997  25.065 -0.2247 -0.0037  0.2001
 1916DPPC   C1B44685   4.141   6.071  25.073  0.0220  0.1704 -0.1320
 1916DPPC   C2B44686   4.274   5.650  25.240 -0.1031 -0.0054 -0.2712
 1916DPPC   C3B44687   4.449   5.316  25.301  0.0872  0.1017  0.0219
 1916DPPC   C4B44688   4.632   5.059  25.523  0.1100  0.1228  0.1074
 1917DPPC   NC344689  15.531   3.761  12.265  0.1345  0.2255  0.0798
 1917DPPC   PO444690  15.945   3.706  12.327 -0.4240 -0.2003 -0.0265
 1917DPPC   GL144691  16.022   3.902  12.621  0.1536 -0.3051  0.6043
 1917DPPC   GL244692  16.303   3.619  12.683  0.0186  0.0836  0.0460
 1917DPPC   C1A44693  16.028   4.017  13.031  0.0417  0.0749  0.1569
 1917DPPC   C2A44694  16.030   3.940  13.409 -0.0225 -0.1237 -0.5033
 1917DPPC   C3A44695  16.176   4.188  13.754  0.0808  0.4369 -0.0522
 1917DPPC   C4A44696  16.444   4.394  14.093 -0.1575  0.3674 -0.0381
 1917DPPC   C1B44697  16.217   3.512  13.160  0.1252 -0.1611  0.2583
 1917DPPC   C2B44698  16.453   3.664  13.596 -0.0334 -0.2819  0.1138
 1917DPPC   C3B44699  16.816   3.527  13.913 -0.1898 -0.0254  0.0000
 1917DPPC   C4B44700  17.189   3.356  13.891  0.1007 -0.0776 -0.2940
 1918DPPC   NC344701  21.501  -9.861  17.681 -0.3172 -0.3358  0.0114
 1918DPPC   PO444702  21.437  -9.638  17.998  0.1309  0.0065 -0.0762
 1918DPPC   GL144703  21.413  -9.331  17.652 -0.0110 -0.1497 -0.1248
 1918DPPC   GL244704  21.167  -9.141  17.579  0.1870  0.2475  0.1407
 1918DPPC   C1A44705  21.684  -9.064  17.525 -0.1397  0.1121  0.4040
 1918DPPC   C2A44706  21.734  -8.670  17.139  0.0135  0.2939  0.3632
 1918DPPC   C3A44707  21.697  -8.322  16.874  0.0676  0.1085 -0.3252
 1918DPPC   C4A44708  21.757  -7.958  16.638  0.1861  0.2036 -0.0502
 1918DPPC   C1B44709  21.008  -8.632  17.504  0.2976 -0.1759 -0.3193
 1918DPPC   C2B44710  20.600  -8.404  17.608  0.2265 -0.0209 -0.1136
 1918DPPC   C3B44711  20.204  -8.151  17.496  0.2543 -0.3228  0.2240
 1918DPPC   C4B44712  19.895  -7.865  17.507  0.1013 -0.0782 -0.2769
 1919DPPC   NC344713  13.876  13.050  17.622 -0.2439 -0.2453 -0.2494
 1919DPPC   PO444714  13.482  12.939  17.438 -0.2253 -0.3647  0.1214
 1919DPPC   GL144715  13.902  12.567  17.436  0.1140  0.0189 -0.1496
 1919DPPC   GL244716  14.028  12.433  17.214  0.2464 -0.0966  0.1831
 1919DPPC   C1A44717  14.075  12.457  17.789  0.0150  0.0413 -0.2472
 1919DPPC   C2A44718  13.995  12.349  18.112  0.1017  0.1859  0.0529
 1919DPPC   C3A44719  14.332  12.158  18.433  0.0062 -0.2210 -0.1032
 1919DPPC   C4A44720  14.686  12.065  18.558 -0.4008  0.1469  0.2455
 1919DPPC   C1B44721  14.382  12.247  17.268 -0.1162 -0.2844 -0.1000
 1919DPPC   C2B44722  14.519  11.835  17.633  0.1274 -0.0853  0.0829
 1919DPPC   C3B44723  14.365  11.457  17.740  0.2526 -0.0795 -0.2126
 1919DPPC   C4B44724  14.268  11.099  17.958  0.1452  0.1207  0.0070
 1920DPPC   NC344725  22.255  -3.497  32.424  0.0036 -0.2707 -0.1187
 1920DPPC   PO444726  22.514  -3.587  31.998 -0.0990 -0.2098 -0.1590
 1920DPPC   GL144727  22.296  -3.221  31.962 -0.0673  0.0903 -0.2641
 1920DPPC   GL244728  22.125  -3.096  32.252 -0.0736  0.2008  0.4103
 1920DPPC   C1A44729  22.430  -2.818  32.056 -0.0325 -0.1792 -0.0570
 1920DPPC   C2A44730  22.516  -2.446  31.766 -0.0994 -0.0231 -0.1776
 1920DPPC   C3A44731  22.661  -2.481  31.292 -0.3559  0.0077  0.3279
 1920DPPC   C4A44732  23.000  -2.368  30.952 -0.0228 -0.0967 -0.1110
 1920DPPC   C1B44733  21.902  -3.099  31.802  0.2483  0.0762  0.0877
 1920DPPC   C2B44734  21.679  -2.857  31.445 -0.1606 -0.0800 -0.1052
 1920DPPC   C3B44735  21.562  -2.739  31.005 -0.0659 -0.3837  0.0250
 1920DPPC   C4B44736  21.286  -2.632  30.693  0.2490 -0.0574 -0.0789
 1921DPPC   NC344737  18.612  10.687  14.962 -0.3899 -0.2338 -0.0159
 1921DPPC   PO444738  18.253  10.455  15.040 -0.3064 -0.0330  0.2432
 1921DPPC   GL144739  18.155  10.200  15.387 -0.0335  0.1870  0.1291
 1921DPPC   GL244740  18.179  10.304  15.635 -0.0555  0.0078 -0.2786
 1921DPPC   C1A44741  17.903   9.780  15.517 -0.0051  0.1033  0.0176
 1921DPPC   C2A44742  17.526   9.692  15.648  0.3131 -0.1024  0.0588
 1921DPPC   C3A44743  17.399   9.468  15.935 -0.1666  0.0088  0.0223
 1921DPPC   C4A44744  17.055   9.168  16.059 -0.1300 -0.0998  0.3613
 1921DPPC   C1B44745  18.305   9.876  15.809 -0.2129 -0.0580 -0.0686
 1921DPPC   C2B44746  18.026   9.562  15.941 -0.1839 -0.1072  0.0143
 1921DPPC   C3B44747  18.039   9.134  15.968  0.2772 -0.1333  0.1424
 1921DPPC   C4B44748  17.898   8.715  16.129 -0.1130  0.1691 -0.0534
 1922DPPC   NC344749   4.624   3.132  31.548 -0.0127  0.1333 -0.2001
 1922DPPC   PO444750   4.349   3.442  31.466 -0.4069 -0.4731  0.1804
 1922DPPC   GL144751   4.644   3.504  31.071 -0.0409  0.1545 -0.2178
 1922DPPC   GL244752   4.611   3.297  30.832 -0.3334  0.0757 -0.0681
 1922DPPC   C1A44753   5.049   3.542  31.077 -0.1244 -0.2639  0.0554
 1922DPPC   C2A44754   5.440   3.488  30.740  0.1435  0.0067 -0.1055
 1922DPPC   C3A44755   5.838   3.662  30.688  0.1829  0.2242 -0.0157
 1922DPPC   C4A44756   6.105   4.068  30.793  0.1153 -0.0501 -0.0276
 1922DPPC   C1B44757   4.799   3.593  30.557 -0.4345 -0.2470  0.3057
 1922DPPC   C2B44758   5.162   3.601  30.335  0.0887  0.0857 -0.0338
 1922DPPC   C3B44759   5.554   3.806  30.269 -0.4844  0.4172 -0.0293
 1922DPPC   C4B44760   5.990   3.803  30.272 -0.1937 -0.0539 -0.0422
 1923DPPC   NC344761   9.597   3.746  14.119 -0.4625 -0.0539  0.0847
 1923DPPC   PO444762   9.789   3.286  14.167 -0.0947  0.3236 -0.0833
 1923DPPC   GL144763  10.137   3.195  14.372 -0.1915 -0.1375 -0.2727
 1923DPPC   GL244764  10.477   3.111  14.172 -0.0127  0.0736  0.0259
 1923DPPC   C1A44765  10.395   3.361  14.698 -0.2537 -0.4254  0.1097
 1923DPPC   C2A44766  10.676   3.256  14.992  0.1832 -0.3026  0.1686
 1923DPPC   C3A44767  10.799   3.090  15.445 -0.0364  0.1292 -0.1092
 1923DPPC   C4A44768  11.049   2.957  15.761 -0.1060 -0.2727 -0.3509
 1923DPPC   C1B44769  10.517   2.904  14.404  0.1739 -0.4114  0.0012
 1923DPPC   C2B44770  10.713   2.689  14.885  0.1642  0.0367  0.3541
 1923DPPC   C3B44771  11.073   2.963  15.022 -0.1894  0.0914  0.2677
 1923DPPC   C4B44772  11.369   3.172  15.355  0.0126  0.1852 -0.0975
 1924DPPC   NC344773  20.896   0.604   9.707  0.4088  0.2250  0.1448
 1924DPPC   PO444774  20.583   0.598   9.983  0.1683  0.1370 -0.1573
 1924DPPC   GL144775  20.740   0.470  10.376  0.1781  0.0041  0.0322
 1924DPPC   GL244776  20.873   0.170  10.483 -0.2052 -0.1440  0.2015
 1924DPPC   C1A44777  20.904   0.508  10.832  0.0239 -0.2680 -0.0334
 1924DPPC   C2A44778  21.138   0.744  11.143 -0.0651 -0.1629 -0.0462
 1924DPPC   C3A44779  21.423   1.056  11.188 -0.1895  0.1253  0.1920
 1924DPPC   C4A44780  21.348   1.444  11.149  0.0095  0.1035  0.1911
 1924DPPC   C1B44781  20.678   0.043  10.841 -0.0525 -0.2628  0.3280
 1924DPPC   C2B44782  20.532  -0.315  10.965 -0.1522 -0.1111 -0.1102
 1924DPPC   C3B44783  20.307  -0.764  11.150  0.3423  0.1743 -0.5352
 1924DPPC   C4B44784  20.146  -1.119  11.388  0.0911 -0.0788 -0.1225
 1925DPPC   NC344785  18.203   1.058  19.912  0.2186  0.2820  0.0758
 1925DPPC   PO444786  18.053   1.078  19.479  0.0326  0.0599  0.0782
 1925DPPC   GL144787  18.322   0.875  19.140  0.1327 -0.2997  0.0543
 1925DPPC   GL244788  18.343   1.011  18.814  0.1337 -0.2504  0.0318
 1925DPPC   C1A44789  18.710   0.566  19.081  0.3407 -0.0436  0.0665
 1925DPPC   C2A44790  18.974   0.353  18.771 -0.3938 -0.2725 -0.1458
 1925DPPC   C3A44791  19.125   0.056  18.496  0.0849 -0.3172 -0.1351
 1925DPPC   C4A44792  19.130  -0.420  18.325  0.0395 -0.0509  0.0549
 1925DPPC   C1B44793  18.410   0.564  18.692  0.2952  0.4459 -0.0245
 1925DPPC   C2B44794  18.441   0.453  18.290 -0.0019  0.1190  0.1454
 1925DPPC   C3B44795  18.302   0.335  17.802 -0.3181  0.1938  0.1707
 1925DPPC   C4B44796  18.103   0.219  17.512  0.1249 -0.0592 -0.1182
 1926DPPC   NC344797  21.377   8.922  21.464 -0.1008  0.1853  0.1916
 1926DPPC   PO444798  21.725   8.830  21.312  0.0225 -0.1084  0.0272
 1926DPPC   GL144799  21.949   9.032  21.151 -0.3013 -0.1039 -0.3528
 1926DPPC   GL244800  22.049   9.298  21.368 -0.1986  0.0461 -0.1725
 1926DPPC   C1A44801  22.414   8.947  21.209 -0.3783 -0.0431  0.0854
 1926DPPC   C2A44802  22.793   9.048  21.188 -0.0280  0.3485 -0.1923
 1926DPPC   C3A44803  23.159   9.031  20.975 -0.1204  0.0284  0.0926
 1926DPPC   C4A44804  23.441   9.104  20.658 -0.0634 -0.0340 -0.0552
 1926DPPC   C1B44805  22.316   9.368  20.927  0.1390 -0.2593 -0.1213
 1926DPPC   C2B44806  22.788   9.412  20.834 -0.0917  0.1869 -0.1009
 1926DPPC   C3B44807  23.207   9.535  20.967  0.6587  0.1100  0.2115
 1926DPPC   C4B44808  23.223   9.433  21.377  0.1473 -0.0035 -0.2283
 1927DPPC   NC344809   9.724  14.513  21.798 -0.3584  0.0875  0.0870
 1927DPPC   PO444810   9.417  14.240  21.880  0.0773 -0.0160  0.0639
 1927DPPC   GL144811   9.706  13.970  22.026 -0.2511 -0.0823  0.4726
 1927DPPC   GL244812   9.955  13.896  22.005  0.0011  0.0490 -0.2160
 1927DPPC   C1A44813   9.641  13.770  22.344 -0.0681 -0.1011  0.2895
 1927DPPC   C2A44814   9.699  13.495  22.719  0.0802  0.6528  0.1763
 1927DPPC   C3A44815   9.664  13.125  22.931  0.2345  0.0031  0.2199
 1927DPPC   C4A44816   9.477  12.853  23.246 -0.0163 -0.0498  0.3107
 1927DPPC   C1B44817  10.143  14.056  22.297 -0.0210  0.2138  0.0812
 1927DPPC   C2B44818  10.000  14.156  22.579  0.0747 -0.0994 -0.1860
 1927DPPC   C3B44819   9.923  14.024  22.974 -0.0022  0.0966  0.0941
 1927DPPC   C4B44820  10.052  13.655  23.126 -0.2940  0.1204 -0.1258
 1928DPPC   NC344821  22.327   8.312  14.450  0.0170 -0.4091 -0.0845
 1928DPPC   PO444822  22.280   8.487  14.809  0.1590  0.1096 -0.0544
 1928DPPC   GL144823  22.207   8.162  15.072 -0.0818  0.0366  0.0254
 1928DPPC   GL244824  21.964   8.233  15.303 -0.0049  0.2016 -0.2654
 1928DPPC   C1A44825  22.158   7.798  15.116  0.0172  0.0944  0.1351
 1928DPPC   C2A44826  22.145   7.365  15.275  0.1968  0.0524  0.0487
 1928DPPC   C3A44827  22.377   6.947  15.270  0.0654  0.0829  0.0218
 1928DPPC   C4A44828  22.656   6.615  15.312 -0.2758  0.3424  0.1388
 1928DPPC   C1B44829  21.766   7.804  15.571  0.1000 -0.2628 -0.0060
 1928DPPC   C2B44830  21.912   7.366  15.823 -0.1834  0.1090 -0.1701
 1928DPPC   C3B44831  21.772   7.009  16.090  0.1804  0.0957  0.1144
 1928DPPC   C4B44832  21.755   6.918  16.541 -0.4273 -0.0684 -0.0109
 1929DPPC   NC344833  14.880   2.940  12.423  0.0424  0.0739  0.1078
 1929DPPC   PO444834  15.211   3.358  12.388 -0.1906  0.0482  0.3549
 1929DPPC   GL144835  15.593   3.330  12.527  0.1750 -0.0809  0.1148
 1929DPPC   GL244836  15.920   3.368  12.749  0.0721  0.0772  0.0066
 1929DPPC   C1A44837  15.541   3.078  12.861  0.2364 -0.1104  0.1503
 1929DPPC   C2A44838  15.754   3.144  13.235  0.0106  0.2248 -0.2194
 1929DPPC   C3A44839  15.740   3.103  13.704 -0.0997 -0.0629 -0.0461
 1929DPPC   C4A44840  15.803   3.151  14.127  0.1795  0.3688 -0.1925
 1929DPPC   C1B44841  16.148   3.051  12.918 -0.0154  0.1256  0.1384
 1929DPPC   C2B44842  16.429   3.106  13.135 -0.4596 -0.3068 -0.1192
 1929DPPC   C3B44843  16.747   3.103  13.517 -0.1524 -0.1007  0.0948
 1929DPPC   C4B44844  17.012   2.867  13.675  0.4752 -0.2171  0.1058
 1930DPPC   NC344845  24.843  -5.371  25.418 -0.0596 -0.1893 -0.0542
 1930DPPC   PO444846  24.440  -5.643  25.230 -0.0212  0.0080 -0.0353
 1930DPPC   GL144847  24.054  -5.616  24.973  0.0272 -0.1254  0.0569
 1930DPPC   GL244848  23.876  -5.787  24.693 -0.0795 -0.2672 -0.0535
 1930DPPC   C1A44849  23.756  -5.243  24.880 -0.0821  0.0392  0.2354
 1930DPPC   C2A44850  23.431  -4.903  24.929  0.0411 -0.0716  0.0047
 1930DPPC   C3A44851  23.161  -4.652  24.851 -0.1573  0.2953 -0.3256
 1930DPPC   C4A44852  22.991  -4.318  24.743  0.2033 -0.2455 -0.1499
 1930DPPC   C1B44853  23.497  -5.677  24.714 -0.1310 -0.0188  0.0803
 1930DPPC   C2B44854  23.212  -5.266  24.590 -0.1434 -0.1227 -0.1618
 1930DPPC   C3B44855  22.854  -5.016  24.635  0.0924  0.0660 -0.2313
 1930DPPC   C4B44856  22.653  -4.630  24.437 -0.0248 -0.0047  0.1320
 1931DPPC   NC344857   8.917  -0.329  34.973  0.0927 -0.2165  0.3936
 1931DPPC   PO444858   8.669  -0.080  35.090  0.1229  0.0160 -0.0165
 1931DPPC   GL144859   9.076   0.170  34.906  0.1601  0.2001  0.2218
 1931DPPC   GL244860   9.049   0.467  34.804  0.1187  0.5306 -0.2518
 1931DPPC   C1A44861   9.519   0.461  34.889 -0.2850  0.1318 -0.1753
 1931DPPC   C2A44862   9.774   0.762  34.688 -0.1794 -0.0417  0.1094
 1931DPPC   C3A44863  10.116   0.846  34.423 -0.0058  0.0874 -0.2810
 1931DPPC   C4A44864  10.464   0.648  34.101  0.2123 -0.1535 -0.0421
 1931DPPC   C1B44865   9.225   0.843  34.658 -0.1036 -0.3135 -0.0580
 1931DPPC   C2B44866   9.562   1.065  34.374  0.1264  0.2285 -0.1534
 1931DPPC   C3B44867   9.797   1.142  34.007 -0.2500  0.1852  0.3192
 1931DPPC   C4B44868  10.104   1.458  34.062  0.0270 -0.0314  0.2485
 1932DPPC   NC344869   6.876   4.432  26.801  0.0931 -0.1681  0.0423
 1932DPPC   PO444870   6.899   4.751  27.080 -0.0544 -0.0478  0.0684
 1932DPPC   GL144871   6.459   4.907  27.028 -0.1061  0.1536 -0.1023
 1932DPPC   GL244872   6.560   5.164  27.243  0.2784 -0.3531  0.4720
 1932DPPC   C1A44873   6.028   4.649  27.018  0.2100 -0.2028  0.1518
 1932DPPC   C2A44874   5.672   4.759  26.778 -0.0024  0.0051  0.0371
 1932DPPC   C3A44875   5.319   4.650  26.482 -0.1410  0.1713 -0.1423
 1932DPPC   C4A44876   4.814   4.369  26.406 -0.3777 -0.2760  0.0404
 1932DPPC   C1B44877   6.190   5.303  27.338  0.1775 -0.2298  0.0784
 1932DPPC   C2B44878   5.772   5.375  27.407 -0.1920 -0.3241 -0.0091
 1932DPPC   C3B44879   5.432   5.468  27.236 -0.2255  0.3354  0.4449
 1932DPPC   C4B44880   5.225   5.672  26.877 -0.1848 -0.1119  0.0232
 1933DPPC   NC344881  21.487   6.454  36.358  0.2520 -0.2580  0.0504
 1933DPPC   PO444882  21.859   6.658  36.268 -0.1505 -0.4220 -0.1196
 1933DPPC   GL144883  21.587   6.612  35.936  0.0497  0.0805 -0.0805
 1933DPPC   GL244884  21.781   6.373  35.868 -0.0377 -0.0135 -0.1203
 1933DPPC   C1A44885  21.501   6.808  35.532  0.0864 -0.3016  0.0372
 1933DPPC   C2A44886  21.800   6.838  35.277 -0.3747  0.1594 -0.0904
 1933DPPC   C3A44887  22.079   6.582  35.066  0.0759 -0.1400 -0.0102
 1933DPPC   C4A44888  22.037   6.157  34.876 -0.3066  0.1515 -0.0865
 1933DPPC   C1B44889  21.615   6.358  35.420 -0.0200 -0.0613  0.1594
 1933DPPC   C2B44890  21.523   6.562  34.938 -0.3335 -0.1145 -0.3455
 1933DPPC   C3B44891  21.334   6.494  34.499 -0.0678  0.1396  0.0152
 1933DPPC   C4B44892  21.511   6.415  34.052  0.0749 -0.1274 -0.2185
 1934DPPC   NC344893  18.856  -5.300  31.665 -0.0819 -0.1081 -0.1356
 1934DPPC   PO444894  19.014  -5.275  31.329 -0.0291 -0.0780 -0.1113
 1934DPPC   GL144895  18.882  -4.805  31.060  0.3058 -0.0746  0.1492
 1934DPPC   GL244896  18.977  -4.804  30.747  0.1419 -0.1627  0.2568
 1934DPPC   C1A44897  18.673  -4.448  30.925 -0.0082 -0.1346  0.0575
 1934DPPC   C2A44898  18.629  -4.049  30.715 -0.0966 -0.1208 -0.1532
 1934DPPC   C3A44899  18.346  -3.681  30.774  0.1470  0.0456  0.0509
 1934DPPC   C4A44900  17.968  -3.703  30.682 -0.0204  0.0055 -0.0857
 1934DPPC   C1B44901  18.834  -4.916  30.389 -0.1785  0.1001 -0.1403
 1934DPPC   C2B44902  18.659  -4.727  30.094 -0.2052 -0.2983  0.0510
 1934DPPC   C3B44903  18.156  -4.534  30.083  0.0174  0.0405  0.1260
 1934DPPC   C4B44904  17.705  -4.419  29.945 -0.1318  0.0137  0.2029
 1935DPPC   NC344905  12.050  -4.124  23.007  0.0250 -0.3504 -0.0832
 1935DPPC   PO444906  11.770  -4.196  23.299 -0.1013  0.0017  0.0648
 1935DPPC   GL144907  11.856  -4.542  23.241  0.0824  0.0697 -0.1271
 1935DPPC   GL244908  12.210  -4.657  23.323 -0.0879  0.0661  0.0853
 1935DPPC   C1A44909  11.736  -4.907  23.424 -0.0383 -0.2232  0.1264
 1935DPPC   C2A44910  11.672  -5.257  23.288 -0.2738  0.0544  0.1203
 1935DPPC   C3A44911  11.867  -5.558  23.010 -0.1394 -0.3778  0.4200
 1935DPPC   C4A44912  12.083  -5.929  22.997  0.1307 -0.0521 -0.0965
 1935DPPC   C1B44913  12.259  -5.111  23.281  0.1724  0.1908 -0.0632
 1935DPPC   C2B44914  12.109  -5.577  23.460  0.0330 -0.0719  0.1410
 1935DPPC   C3B44915  12.022  -5.764  23.872  0.2845  0.0745  0.0669
 1935DPPC   C4B44916  11.656  -5.971  24.026  0.1251  0.1427 -0.2057
 1936DPPC   NC344917   8.832  -4.591  17.240  0.1589  0.1605  0.0377
 1936DPPC   PO444918   8.617  -4.666  17.596  0.6031  0.0151  0.2448
 1936DPPC   GL144919   8.941  -4.583  17.836 -0.1288  0.0946 -0.0922
 1936DPPC   GL244920   9.310  -4.577  17.757  0.1782 -0.0602 -0.1301
 1936DPPC   C1A44921   9.176  -4.507  18.263  0.0889  0.1420 -0.0162
 1936DPPC   C2A44922   9.109  -4.257  18.603 -0.2119 -0.0632 -0.0945
 1936DPPC   C3A44923   9.298  -3.948  18.888  0.2444  0.1078 -0.1744
 1936DPPC   C4A44924   9.522  -3.658  19.192 -0.2547  0.1866 -0.0263
 1936DPPC   C1B44925   9.228  -4.122  17.948 -0.0849 -0.2400 -0.2010
 1936DPPC   C2B44926   9.368  -3.825  18.260 -0.2437  0.0903  0.1207
 1936DPPC   C3B44927   9.709  -3.761  18.580  0.1586 -0.0812 -0.1055
 1936DPPC   C4B44928   9.747  -3.342  18.873  0.2440  0.1325 -0.0690
 1937DPPC   NC344929  20.209  16.077  27.196 -0.3383 -0.1193  0.1286
 1937DPPC   PO444930  19.928  15.846  26.964 -0.1659 -0.3896 -0.2103
 1937DPPC   GL144931  20.115  15.501  27.218  0.0415  0.1353  0.2440
 1937DPPC   GL244932  20.180  15.360  27.605 -0.2041  0.0143  0.2158
 1937DPPC   C1A44933  20.290  15.051  27.197 -0.1264 -0.2201 -0.1756
 1937DPPC   C2A44934  20.340  14.864  26.783  0.2116  0.1781  0.0818
 1937DPPC   C3A44935  20.445  14.621  26.311 -0.1322 -0.1202 -0.1326
 1937DPPC   C4A44936  20.483  14.226  25.948  0.0544 -0.0798  0.0366
 1937DPPC   C1B44937  19.712  15.191  27.448 -0.1557 -0.2851  0.0711
 1937DPPC   C2B44938  19.618  14.788  27.605  0.2433  0.0379  0.1483
 1937DPPC   C3B44939  19.610  14.353  27.398 -0.0945 -0.1726 -0.1186
 1937DPPC   C4B44940  19.663  13.773  27.327  0.1461 -0.0514 -0.3219
 1938DPPC   NC344941  15.631  -4.213  22.712 -0.1400 -0.0630  0.1010
 1938DPPC   PO444942  15.303  -3.945  22.462  0.0739  0.0404 -0.0617
 1938DPPC   GL144943  15.364  -4.434  22.349 -0.1180  0.1227  0.0412
 1938DPPC   GL244944  15.363  -4.538  22.065  0.2585 -0.0286 -0.1729
 1938DPPC   C1A44945  15.517  -4.894  22.540 -0.0697  0.1834 -0.1609
 1938DPPC   C2A44946  15.476  -5.323  22.650  0.1079 -0.1742  0.4434
 1938DPPC   C3A44947  15.304  -5.711  22.638  0.1356 -0.1581 -0.1665
 1938DPPC   C4A44948  14.800  -5.969  22.715  0.2812  0.0262 -0.3269
 1938DPPC   C1B44949  15.493  -5.069  22.091  0.2598  0.1256  0.1694
 1938DPPC   C2B44950  15.597  -5.445  22.123  0.0906 -0.0417  0.3395
 1938DPPC   C3B44951  15.649  -5.856  22.308  0.0601  0.3635 -0.0106
 1938DPPC   C4B44952  15.659  -6.151  22.659 -0.3316  0.0645  0.4266
 1939DPPC   NC344953  19.522   3.335  16.852 -0.1176  0.0571  0.3454
 1939DPPC   PO444954  19.943   3.610  16.980 -0.1604  0.2204 -0.1319
 1939DPPC   GL144955  20.123   3.445  16.697 -0.1463  0.0301 -0.3107
 1939DPPC   GL244956  19.879   3.249  16.509 -0.0838  0.1133 -0.0556
 1939DPPC   C1A44957  20.299   3.022  16.486  0.0358 -0.1325 -0.0964
 1939DPPC   C2A44958  20.311   2.581  16.478 -0.0120  0.1189  0.0821
 1939DPPC   C3A44959  20.598   2.217  16.298 -0.1504 -0.0340 -0.1520
 1939DPPC   C4A44960  20.697   2.145  15.900 -0.2816 -0.3984  0.0011
 1939DPPC   C1B44961  19.793   3.448  16.203  0.1405 -0.0186  0.0567
 1939DPPC   C2B44962  19.857   3.511  15.694  0.1473  0.1617 -0.1840
 1939DPPC   C3B44963  20.044   3.473  15.339 -0.2792 -0.0072  0.1263
 1939DPPC   C4B44964  19.986   3.398  14.899  0.1389 -0.2526 -0.4797
 1940DPPC   NC344965  18.746  15.413  22.303 -0.0251 -0.3279  0.2017
 1940DPPC   PO444966  18.577  15.455  22.619 -0.1371  0.0697 -0.2697
 1940DPPC   GL144967  18.520  15.121  22.672 -0.0976  0.0472  0.1613
 1940DPPC   GL244968  18.437  14.902  22.386 -0.1507 -0.0312  0.0072
 1940DPPC   C1A44969  18.335  14.799  22.917  0.2900  0.1979 -0.0108
 1940DPPC   C2A44970  18.116  14.406  23.175 -0.0173 -0.0159  0.0628
 1940DPPC   C3A44971  17.930  14.276  23.541  0.2637  0.0869  0.0954
 1940DPPC   C4A44972  17.681  14.142  23.889  0.2248  0.2172  0.0102
 1940DPPC   C1B44973  18.421  14.472  22.398  0.0957  0.1177  0.1423
 1940DPPC   C2B44974  18.665  14.076  22.235  0.0182 -0.2367 -0.1493
 1940DPPC   C3B44975  18.581  13.667  22.125  0.1756 -0.3246  0.2589
 1940DPPC   C4B44976  18.374  13.367  21.913  0.1108  0.3145  0.2127
 1941DPPC   NC344977  15.704  -9.107  14.665 -0.1253  0.0801 -0.2647
 1941DPPC   PO444978  15.809  -8.750  14.611  0.0809  0.0639 -0.0656
 1941DPPC   GL144979  16.041  -8.507  14.689  0.0237 -0.2259  0.1765
 1941DPPC   GL244980  16.126  -8.145  14.549 -0.0545  0.1637 -0.1296
 1941DPPC   C1A44981  16.199  -8.262  15.017  0.0539 -0.2054  0.1095
 1941DPPC   C2A44982  16.226  -8.128  15.476 -0.4428  0.0196 -0.0537
 1941DPPC   C3A44983  16.356  -8.315  15.861  0.4490 -0.3414  0.3314
 1941DPPC   C4A44984  16.536  -8.230  16.192 -0.2575 -0.3939  0.1764
 1941DPPC   C1B44985  16.227  -7.729  14.598  0.0265 -0.0623 -0.0940
 1941DPPC   C2B44986  16.420  -7.328  14.629  0.0119 -0.0500  0.0768
 1941DPPC   C3B44987  16.828  -7.139  14.641  0.1595 -0.1683  0.1248
 1941DPPC   C4B44988  17.078  -6.751  14.478 -0.1643  0.0792 -0.0554
 1942DPPC   NC344989  16.889  -8.456  18.756  0.0375  0.0358 -0.2591
 1942DPPC   PO444990  17.074  -8.633  18.461 -0.0236 -0.0313  0.2175
 1942DPPC   GL144991  17.266  -8.157  18.484  0.0602  0.0224 -0.0726
 1942DPPC   GL244992  16.947  -7.975  18.552 -0.0117 -0.1122 -0.4580
 1942DPPC   C1A44993  17.479  -7.883  18.610 -0.0055  0.0183  0.0307
 1942DPPC   C2A44994  17.910  -7.768  18.695  0.2099 -0.1656  0.1523
 1942DPPC   C3A44995  17.983  -7.468  18.543 -0.2638  0.0931 -0.2798
 1942DPPC   C4A44996  18.145  -7.150  18.732  0.2110  0.0884  0.0138
 1942DPPC   C1B44997  17.071  -7.538  18.545  0.2969  0.0231  0.1096
 1942DPPC   C2B44998  17.062  -7.216  18.208  0.1276 -0.3264  0.2322
 1942DPPC   C3B44999  16.947  -6.855  17.913  0.0120  0.1604 -0.0368
 1942DPPC   C4B45000  16.677  -6.468  17.682 -0.1840  0.0771  0.0418
 1943DPPC   NC345001   9.478  -0.419  29.005 -0.5083  0.0430 -0.2306
 1943DPPC   PO445002   9.236  -0.634  28.815  0.0572  0.2242 -0.2171
 1943DPPC   GL145003   9.178  -0.778  29.116 -0.0075 -0.0977 -0.1667
 1943DPPC   GL245004   9.187  -0.630  29.551  0.1404 -0.3084 -0.0733
 1943DPPC   C1A45005   8.868  -1.080  29.132  0.1025  0.3991 -0.6573
 1943DPPC   C2A45006   8.897  -1.516  29.215  0.0559  0.2165  0.2028
 1943DPPC   C3A45007   8.643  -1.805  29.328  0.0372 -0.2193 -0.0011
 1943DPPC   C4A45008   8.202  -1.884  29.415 -0.0703  0.3684 -0.0254
 1943DPPC   C1B45009   8.998  -0.686  30.043 -0.2978 -0.2662 -0.2746
 1943DPPC   C2B45010   8.836  -0.943  30.309 -0.0245 -0.0169 -0.0211
 1943DPPC   C3B45011   8.655  -1.338  30.359 -0.2132  0.0504  0.1491
 1943DPPC   C4B45012   8.712  -1.767  30.628 -0.1518  0.0261  0.2331
 1944DPPC   NC345013  15.706  -3.131  19.260  0.0447 -0.0563  0.0252
 1944DPPC   PO445014  16.086  -3.251  19.573  0.0683  0.2328 -0.0006
 1944DPPC   GL145015  16.115  -3.454  19.193 -0.0613 -0.0853 -0.1925
 1944DPPC   GL245016  16.511  -3.393  19.324 -0.1590  0.0495 -0.0613
 1944DPPC   C1A45017  16.210  -3.532  18.752 -0.0933 -0.2521  0.0528
 1944DPPC   C2A45018  16.319  -3.279  18.355  0.0344 -0.0027  0.1253
 1944DPPC   C3A45019  16.470  -3.028  18.086 -0.2133  0.1225  0.0470
 1944DPPC   C4A45020  16.602  -2.643  18.000 -0.0155 -0.1643 -0.1901
 1944DPPC   C1B45021  16.580  -3.388  19.075  0.3334  0.3053 -0.3521
 1944DPPC   C2B45022  16.793  -3.422  18.705 -0.0193 -0.2743 -0.0192
 1944DPPC   C3B45023  17.087  -3.763  18.562  0.0456  0.0529 -0.0202
 1944DPPC   C4B45024  17.530  -3.786  18.434  0.0405  0.0903  0.3291
 1945DPPC   NC345025  22.748   9.009  25.228 -0.1083 -0.0101  0.0623
 1945DPPC   PO445026  23.058   9.166  25.501  0.0667  0.0385  0.3444
 1945DPPC   GL145027  23.461   9.351  25.544 -0.4031 -0.2380 -0.0028
 1945DPPC   GL245028  23.676   9.348  25.166 -0.1041  0.0309  0.2739
 1945DPPC   C1A45029  23.906   9.368  25.678  0.0582 -0.3700  0.2690
 1945DPPC   C2A45030  24.217   9.686  25.833 -0.2129 -0.0984  0.0031
 1945DPPC   C3A45031  24.639   9.939  25.668 -0.0917 -0.0330 -0.1026
 1945DPPC   C4A45032  24.943  10.357  25.574  0.0309 -0.1171  0.1767
 1945DPPC   C1B45033  24.064   9.629  25.126  0.2381  0.2742  0.2119
 1945DPPC   C2B45034  24.333   9.939  25.265  0.0538 -0.0500 -0.0799
 1945DPPC   C3B45035  24.436  10.334  25.428  0.0249  0.1526  0.3396
 1945DPPC   C4B45036  24.702  10.624  25.186 -0.1294  0.2304 -0.0049
 1946DPPC   NC345037  16.878  14.593  33.052 -0.2471  0.2000  0.0641
 1946DPPC   PO445038  16.404  14.504  32.988 -0.2813 -0.4676  0.2019
 1946DPPC   GL145039  16.548  14.138  33.004  0.0037  0.1792 -0.0469
 1946DPPC   GL245040  16.776  14.006  32.834  0.3653 -0.0055 -0.0248
 1946DPPC   C1A45041  16.466  13.762  33.142 -0.2722  0.0739 -0.0332
 1946DPPC   C2A45042  16.346  13.287  33.067 -0.3631  0.1079 -0.1775
 1946DPPC   C3A45043  16.316  12.795  33.140 -0.1917 -0.0628 -0.0342
 1946DPPC   C4A45044  16.076  12.468  32.964  0.0663 -0.1418  0.0991
 1946DPPC   C1B45045  16.792  13.658  32.753 -0.1931  0.5149  0.6418
 1946DPPC   C2B45046  16.511  13.259  32.551 -0.1862 -0.2553  0.1674
 1946DPPC   C3B45047  16.442  13.092  32.100 -0.2194  0.0782  0.1423
 1946DPPC   C4B45048  16.125  13.102  31.888 -0.1056 -0.0399  0.0535
 1947DPPC   NC345049  15.532  -4.025  19.223 -0.2378 -0.1218 -0.0197
 1947DPPC   PO445050  15.580  -3.633  19.075  0.0679 -0.0446  0.0265
 1947DPPC   GL145051  15.459  -3.892  18.765 -0.1357 -0.0269 -0.1242
 1947DPPC   GL245052  15.685  -4.075  18.550 -0.1278  0.3614 -0.5208
 1947DPPC   C1A45053  15.241  -3.846  18.367  0.0706  0.1639 -0.2943
 1947DPPC   C2A45054  15.192  -4.057  18.001 -0.3293  0.0591 -0.1336
 1947DPPC   C3A45055  15.157  -4.264  17.761 -0.0420 -0.1452 -0.2674
 1947DPPC   C4A45056  15.135  -4.383  17.300  0.2276  0.1949 -0.0389
 1947DPPC   C1B45057  15.551  -4.355  18.204  0.3101  0.2339 -0.0951
 1947DPPC   C2B45058  15.633  -4.738  18.001 -0.0379  0.0285 -0.0354
 1947DPPC   C3B45059  15.801  -5.150  18.187 -0.0520  0.2230  0.0164
 1947DPPC   C4B45060  15.847  -5.518  18.313  0.2418 -0.0928  0.2005
 1948DPPC   NC345061   9.310  15.913  27.560 -0.1586  0.2378 -0.1747
 1948DPPC   PO445062   9.819  15.873  27.598 -0.1339  0.3279 -0.2734
 1948DPPC   GL145063  10.038  15.519  27.611  0.1933 -0.1796  0.1414
 1948DPPC   GL245064  10.322  15.365  27.330 -0.0726 -0.0740  0.1050
 1948DPPC   C1A45065  10.384  15.227  27.820 -0.0365  0.1313  0.1321
 1948DPPC   C2A45066  10.873  15.041  27.662 -0.1999 -0.2078  0.0604
 1948DPPC   C3A45067  11.214  14.762  27.454  0.0671  0.0149 -0.0436
 1948DPPC   C4A45068  11.324  14.308  27.325 -0.1556 -0.3804  0.0227
 1948DPPC   C1B45069  10.669  15.174  27.179 -0.0388 -0.3595 -0.1300
 1948DPPC   C2B45070  10.867  14.812  26.967 -0.0341 -0.1200 -0.1021
 1948DPPC   C3B45071  10.889  14.357  27.048  0.1187  0.0973  0.1396
 1948DPPC   C4B45072  11.028  13.959  27.036 -0.1471  0.3696  0.1171
 1949DPPC   NC345073  21.249  -1.607  27.927  0.2261 -0.2162 -0.3245
 1949DPPC   PO445074  21.459  -1.255  28.144 -0.0624 -0.1022  0.2450
 1949DPPC   GL145075  21.778  -1.563  28.004  0.0304 -0.0032  0.2963
 1949DPPC   GL245076  21.784  -1.832  27.841  0.0773 -0.2123 -0.0058
 1949DPPC   C1A45077  22.177  -1.658  28.172  0.3247 -0.0194 -0.2805
 1949DPPC   C2A45078  22.611  -1.480  28.371 -0.1275  0.0504  0.1116
 1949DPPC   C3A45079  22.933  -1.154  28.482  0.2019 -0.1223 -0.0487
 1949DPPC   C4A45080  22.930  -0.862  28.886 -0.1296  0.2030 -0.0631
 1949DPPC   C1B45081  22.010  -2.200  28.006  0.4794 -0.3365  0.0234
 1949DPPC   C2B45082  22.277  -2.634  28.044 -0.0758  0.0218 -0.2654
 1949DPPC   C3B45083  22.672  -2.781  27.781  0.2238  0.1833  0.0127
 1949DPPC   C4B45084  22.617  -2.814  27.371  0.3854 -0.3069  0.0186
 1950DPPC   NC345085   7.787   8.603  34.482 -0.0977  0.0489 -0.0201
 1950DPPC   PO445086   7.549   8.340  34.232 -0.0697 -0.1486 -0.3097
 1950DPPC   GL145087   7.583   8.267  33.817 -0.1039  0.1106  0.1995
 1950DPPC   GL245088   7.824   8.480  33.713 -0.0769 -0.0406 -0.0451
 1950DPPC   C1A45089   7.675   7.826  33.444  0.0959  0.2424  0.0985
 1950DPPC   C2A45090   7.921   7.614  33.189  0.1181  0.0061  0.0232
 1950DPPC   C3A45091   8.119   7.694  32.828 -0.2045  0.1854 -0.3074
 1950DPPC   C4A45092   8.115   7.614  32.327 -0.0414 -0.3826  0.3359
 1950DPPC   C1B45093   8.237   8.797  33.742 -0.1368  0.0229 -0.1485
 1950DPPC   C2B45094   8.475   8.886  33.379  0.0774 -0.2109 -0.0522
 1950DPPC   C3B45095   8.556   8.757  33.052  0.3659 -0.2062 -0.0216
 1950DPPC   C4B45096   8.488   8.353  32.913  0.1182 -0.0609 -0.0816
 1951DPPC   NC345097   7.265   0.106  16.267 -0.2374 -0.2368 -0.2085
 1951DPPC   PO445098   7.534   0.124  16.045  0.0827  0.1792 -0.1565
 1951DPPC   GL145099   7.750  -0.057  16.361  0.0055 -0.1252 -0.2440
 1951DPPC   GL245100   7.709  -0.456  16.419  0.1141  0.0323 -0.2414
 1951DPPC   C1A45101   8.088  -0.077  16.594  0.0150  0.2273 -0.1434
 1951DPPC   C2A45102   8.430   0.078  16.954  0.0842 -0.2982 -0.0416
 1951DPPC   C3A45103   8.756   0.417  17.164 -0.1145  0.0769 -0.0659
 1951DPPC   C4A45104   9.084   0.699  17.388 -0.1137 -0.2438  0.0519
 1951DPPC   C1B45105   8.086  -0.578  16.628  0.2601 -0.2064  0.0780
 1951DPPC   C2B45106   8.300  -0.465  16.990  0.2606 -0.1502 -0.1909
 1951DPPC   C3B45107   8.767  -0.321  17.098 -0.3128 -0.0553  0.0249
 1951DPPC   C4B45108   8.944  -0.138  17.470 -0.0615 -0.1527 -0.1030
 1952DPPC   NC345109  14.647   5.894  33.483 -0.1358  0.1354 -0.0340
 1952DPPC   PO445110  14.867   5.788  33.828  0.1093 -0.0124  0.1006
 1952DPPC   GL145111  15.014   5.941  34.228 -0.0204  0.1076  0.0394
 1952DPPC   GL245112  15.335   5.984  34.330 -0.1662  0.3521 -0.0008
 1952DPPC   C1A45113  14.963   6.020  34.672  0.1739  0.1633  0.0861
 1952DPPC   C2A45114  14.979   5.740  35.051  0.2984 -0.0149  0.0562
 1952DPPC   C3A45115  14.995   5.684  35.544 -0.0110  0.5045 -0.3498
 1952DPPC   C4A45116  15.108   5.796  35.917  0.2517 -0.1946 -0.0513
 1952DPPC   C1B45117  15.818   6.152  34.585  0.0274  0.1267  0.1524
 1952DPPC   C2B45118  15.998   6.279  34.999 -0.0367 -0.0313  0.0571
 1952DPPC   C3B45119  16.196   6.117  35.421  0.1179  0.2388  0.0334
 1952DPPC   C4B45120  16.693   5.918  35.550  0.0408  0.1146  0.2668
 1953DPPC   NC345121  26.114  -4.089  25.124  0.0440  0.0667 -0.1039
 1953DPPC   PO445122  25.808  -4.078  24.693 -0.0998  0.0322  0.1636
 1953DPPC   GL145123  25.942  -3.704  24.826  0.0981  0.2079  0.0116
 1953DPPC   GL245124  25.821  -3.628  25.228 -0.2062 -0.0894  0.3123
 1953DPPC   C1A45125  25.679  -3.226  24.902  0.2859 -0.1583  0.1117
 1953DPPC   C2A45126  25.159  -3.085  24.778  0.2498  0.0603 -0.3236
 1953DPPC   C3A45127  24.885  -2.717  24.881  0.1210 -0.0345 -0.1473
 1953DPPC   C4A45128  24.582  -2.536  24.554  0.2346 -0.2847  0.0340
 1953DPPC   C1B45129  25.416  -3.493  25.276 -0.1223 -0.0002 -0.1349
 1953DPPC   C2B45130  25.047  -3.277  25.261  0.1124  0.1696  0.2627
 1953DPPC   C3B45131  24.678  -3.164  24.937  0.0293 -0.2704 -0.0410
 1953DPPC   C4B45132  24.216  -2.936  24.865 -0.2624  0.2059 -0.5799
 1954DPPC   NC345133  14.613  -6.881  13.168 -0.3376 -0.3582  0.0110
 1954DPPC   PO445134  14.978  -6.619  13.232 -0.2395  0.2444 -0.2758
 1954DPPC   GL145135  15.315  -6.433  13.521 -0.1549  0.2550 -0.0435
 1954DPPC   GL245136  15.592  -6.347  13.313 -0.1079 -0.0289 -0.2306
 1954DPPC   C1A45137  15.445  -5.972  13.565 -0.1226 -0.0271  0.1074
 1954DPPC   C2A45138  15.371  -5.475  13.727  0.0291 -0.0712 -0.1969
 1954DPPC   C3A45139  15.540  -5.045  13.904  0.0211  0.1563 -0.1818
 1954DPPC   C4A45140  15.381  -4.688  14.053 -0.1882  0.1465 -0.1897
 1954DPPC   C1B45141  15.774  -6.356  13.644  0.1006 -0.2492 -0.0360
 1954DPPC   C2B45142  15.966  -6.449  14.030 -0.1688  0.0505 -0.0150
 1954DPPC   C3B45143  16.256  -6.275  14.366 -0.1641  0.0866 -0.1412
 1954DPPC   C4B45144  16.412  -5.881  14.490  0.0908 -0.0568  0.0795
 1955DPPC   NC345145  17.668   1.782  16.923  0.3967 -0.0142  0.0548
 1955DPPC   PO445146  17.325   1.739  17.158 -0.0442 -0.0928  0.1827
 1955DPPC   GL145147  17.612   1.349  17.188 -0.1194 -0.0711 -0.1897
 1955DPPC   GL245148  17.561   1.396  17.496 -0.2786 -0.0359  0.0749
 1955DPPC   C1A45149  17.697   0.916  17.236  0.1527 -0.0166 -0.0856
 1955DPPC   C2A45150  17.790   0.448  17.140 -0.0819 -0.0743  0.0258
 1955DPPC   C3A45151  17.813   0.006  17.012  0.2395 -0.0144  0.0829
 1955DPPC   C4A45152  17.881  -0.415  16.947  0.1794 -0.1189 -0.3168
 1955DPPC   C1B45153  17.919   1.203  17.643  0.0824 -0.0189  0.3688
 1955DPPC   C2B45154  18.369   1.155  17.531  0.3098 -0.0646  0.0561
 1955DPPC   C3B45155  18.736   1.049  17.363 -0.0883 -0.4903 -0.1245
 1955DPPC   C4B45156  18.745   0.962  17.011  0.1716  0.1909  0.4412
 1956DPPC   NC345157  21.651  -9.244  18.722  0.6669  0.0652  0.0345
 1956DPPC   PO445158  21.244  -9.193  18.578  0.0189  0.0832  0.2154
 1956DPPC   GL145159  21.065  -8.836  18.458  0.4053  0.2351  0.2161
 1956DPPC   GL245160  20.781  -8.608  18.561  0.3326 -0.1231  0.1854
 1956DPPC   C1A45161  21.249  -8.498  18.257 -0.3635  0.0285 -0.0393
 1956DPPC   C2A45162  21.138  -8.322  17.845 -0.1506 -0.1776 -0.0820
 1956DPPC   C3A45163  21.097  -8.110  17.589  0.4734 -0.2351  0.2806
 1956DPPC   C4A45164  21.254  -7.765  17.257 -0.0307 -0.1666  0.3961
 1956DPPC   C1B45165  20.813  -8.192  18.363 -0.0782 -0.4116  0.0999
 1956DPPC   C2B45166  20.900  -7.902  18.571  0.2193 -0.0356 -0.3351
 1956DPPC   C3B45167  21.060  -7.456  18.374  0.0162 -0.0333 -0.2402
 1956DPPC   C4B45168  20.981  -7.084  18.547  0.0487  0.3251 -0.1331
 1957DPPC   NC345169  23.466  -0.362  24.888 -0.0805 -0.1043 -0.2525
 1957DPPC   PO445170  23.944  -0.291  24.813 -0.3234 -0.0879  0.3293
 1957DPPC   GL145171  24.388  -0.518  24.626 -0.0066 -0.2417  0.0792
 1957DPPC   GL245172  24.534  -0.823  24.847  0.0848 -0.0264  0.1360
 1957DPPC   C1A45173  24.638  -0.708  24.399 -0.5053  0.0231 -0.0598
 1957DPPC   C2A45174  25.109  -0.906  24.216 -0.1366 -0.0096  0.0091
 1957DPPC   C3A45175  25.382  -1.207  24.539  0.2152  0.0855  0.1529
 1957DPPC   C4A45176  25.714  -1.447  24.720 -0.2621 -0.0931 -0.1813
 1957DPPC   C1B45177  24.641  -0.824  25.259  0.2368 -0.0723 -0.1233
 1957DPPC   C2B45178  24.614  -1.006  25.658 -0.2172 -0.2790  0.2030
 1957DPPC   C3B45179  24.729  -1.309  26.079  0.2688 -0.2499 -0.0260
 1957DPPC   C4B45180  24.743  -1.103  26.450  0.1081 -0.0167  0.0468
 1958DPPC   NC345181  20.515   2.910  17.840 -0.0007 -0.0650  0.0248
 1958DPPC   PO445182  20.596   3.267  17.514 -0.2146  0.0987  0.4120
 1958DPPC   GL145183  20.756   2.832  17.263  0.2419 -0.0014  0.0401
 1958DPPC   GL245184  20.992   2.795  17.043 -0.2149 -0.0829 -0.2602
 1958DPPC   C1A45185  20.664   2.408  17.134  0.1089 -0.1620 -0.0553
 1958DPPC   C2A45186  20.696   1.972  17.021  0.1737  0.1399 -0.3851
 1958DPPC   C3A45187  20.706   1.650  17.337 -0.0173 -0.0006  0.1649
 1958DPPC   C4A45188  20.900   1.322  17.503  0.1173  0.1078  0.4640
 1958DPPC   C1B45189  21.246   2.728  16.775 -0.1843  0.2669 -0.1488
 1958DPPC   C2B45190  21.420   2.720  16.362  0.0011 -0.3274  0.0850
 1958DPPC   C3B45191  21.660   2.746  15.959  0.1594  0.1281  0.2547
 1958DPPC   C4B45192  21.514   2.745  15.517 -0.2447 -0.0279 -0.2861
 1959DPPC   NC345193  13.319   2.858  33.524 -0.0832  0.0699 -0.1295
 1959DPPC   PO445194  13.112   2.395  33.347 -0.5868  0.1925 -0.0369
 1959DPPC   GL145195  13.013   2.442  33.717 -0.2073  0.3262 -0.2583
 1959DPPC   GL245196  12.753   2.658  33.737 -0.0950 -0.2952 -0.4526
 1959DPPC   C1A45197  12.742   2.202  33.979 -0.3924  0.0765  0.0936
 1959DPPC   C2A45198  12.464   2.143  34.274  0.0174  0.0204  0.4344
 1959DPPC   C3A45199  12.195   2.136  34.558  0.0258  0.0384  0.0541
 1959DPPC   C4A45200  11.769   2.048  34.795  0.1444 -0.0986 -0.3971
 1959DPPC   C1B45201  12.559   2.708  34.156  0.2221 -0.1016  0.0095
 1959DPPC   C2B45202  12.469   3.029  34.423  0.0265 -0.1931  0.2414
 1959DPPC   C3B45203  12.426   3.270  34.832 -0.0164  0.0248  0.2143
 1959DPPC   C4B45204  12.607   3.366  35.268  0.2595 -0.0569  0.1299
 1960DPPC   NC345205  17.473   2.217  17.071 -0.0731  0.2937 -0.1972
 1960DPPC   PO445206  17.835   2.230  16.749 -0.3857 -0.0325 -0.1134
 1960DPPC   GL145207  17.693   2.055  16.373  0.2377 -0.1653 -0.1614
 1960DPPC   GL245208  17.562   1.719  16.408 -0.4719  0.0420 -0.0478
 1960DPPC   C1A45209  17.794   2.257  16.002  0.2147  0.2527 -0.1258
 1960DPPC   C2A45210  17.973   2.259  15.624  0.3843  0.0345 -0.0445
 1960DPPC   C3A45211  18.275   2.059  15.540  0.0016 -0.0061 -0.0049
 1960DPPC   C4A45212  18.694   2.069  15.739  0.4743  0.1429  0.0652
 1960DPPC   C1B45213  17.527   1.464  15.961  0.1560  0.1114  0.1474
 1960DPPC   C2B45214  17.504   0.997  15.883  0.0893 -0.2126 -0.0400
 1960DPPC   C3B45215  17.660   0.724  15.703 -0.2613 -0.2369  0.0315
 1960DPPC   C4B45216  17.806   0.284  15.686 -0.5041  0.0634  0.1479
 1961DPPC   NC345217   3.357   4.111  27.554 -0.1329  0.0189  0.1149
 1961DPPC   PO445218   2.996   4.494  27.385  0.0298  0.0964 -0.1107
 1961DPPC   GL145219   3.300   4.330  27.006  0.2273 -0.0339 -0.1454
 1961DPPC   GL245220   3.313   4.695  26.677  0.2158 -0.0057 -0.3347
 1961DPPC   C1A45221   3.657   4.350  26.909 -0.0076 -0.0742 -0.2881
 1961DPPC   C2A45222   4.051   4.354  26.950 -0.0677 -0.1988 -0.0228
 1961DPPC   C3A45223   4.241   4.182  26.585 -0.0094  0.0047  0.0125
 1961DPPC   C4A45224   4.642   3.917  26.487 -0.1089  0.0615 -0.0398
 1961DPPC   C1B45225   3.667   4.736  26.414  0.2088 -0.2165  0.0488
 1961DPPC   C2B45226   4.054   4.539  26.247  0.1547 -0.0360 -0.0020
 1961DPPC   C3B45227   4.427   4.548  26.053  0.4191  0.3460  0.2241
 1961DPPC   C4B45228   4.737   4.547  25.711  0.1124  0.2801 -0.0536
 1962DPPC   NC345229  21.614   9.915  16.111  0.1763  0.1232  0.0050
 1962DPPC   PO445230  21.952  10.162  16.294  0.2832  0.1977 -0.1411
 1962DPPC   GL145231  21.854  10.054  16.727 -0.2149 -0.0490  0.0384
 1962DPPC   GL245232  21.662  10.265  17.018 -0.1687 -0.2209 -0.1812
 1962DPPC   C1A45233  21.594   9.714  17.043  0.0364 -0.0674  0.2550
 1962DPPC   C2A45234  21.486   9.507  17.489 -0.0953 -0.2094 -0.3468
 1962DPPC   C3A45235  21.332   9.186  17.733 -0.2212 -0.0610  0.4369
 1962DPPC   C4A45236  21.090   8.848  18.014  0.1924 -0.1892 -0.0153
 1962DPPC   C1B45237  21.271  10.312  17.167  0.0781 -0.1146 -0.2176
 1962DPPC   C2B45238  20.914  10.087  17.448 -0.0671  0.0490 -0.1562
 1962DPPC   C3B45239  20.716   9.733  17.639  0.1790 -0.2508  0.0176
 1962DPPC   C4B45240  20.328   9.478  17.799 -0.0323  0.0471  0.0193
 1963DPPC   NC345241  26.050   4.765  33.362 -0.0500 -0.2623 -0.2705
 1963DPPC   PO445242  25.976   4.361  33.642  0.1841 -0.1476 -0.0493
 1963DPPC   GL145243  25.762   4.307  33.314  0.0255  0.1314  0.2021
 1963DPPC   GL245244  25.596   4.646  33.261  0.1504 -0.2707 -0.2426
 1963DPPC   C1A45245  25.748   4.267  32.891 -0.1644  0.0379  0.0214
 1963DPPC   C2A45246  25.482   4.231  32.627 -0.0046  0.1892  0.0062
 1963DPPC   C3A45247  25.213   4.365  32.366 -0.0337  0.1062  0.0441
 1963DPPC   C4A45248  25.213   4.324  31.920  0.0965  0.1697  0.3169
 1963DPPC   C1B45249  25.458   4.653  32.823 -0.0245  0.0730 -0.0173
 1963DPPC   C2B45250  25.369   4.858  32.441  0.0891  0.0232  0.1354
 1963DPPC   C3B45251  25.149   5.209  32.267  0.2755 -0.2887 -0.0662
 1963DPPC   C4B45252  25.019   5.480  32.510 -0.0070 -0.0385 -0.0807
 1964DPPC   NC345253   7.088  12.789  21.675 -0.0818  0.1323  0.0663
 1964DPPC   PO445254   7.394  12.764  21.977 -0.4259 -0.2125  0.0464
 1964DPPC   GL145255   7.745  12.449  21.993  0.1660 -0.0958  0.1780
 1964DPPC   GL245256   7.653  12.153  21.808 -0.1003 -0.1052 -0.3890
 1964DPPC   C1A45257   8.026  12.123  22.271  0.0108  0.1735  0.1462
 1964DPPC   C2A45258   7.997  11.730  22.378  0.2351  0.2255 -0.2646
 1964DPPC   C3A45259   7.921  11.317  22.692 -0.0348  0.0779 -0.0512
 1964DPPC   C4A45260   8.059  10.895  22.743 -0.1247 -0.0739 -0.0086
 1964DPPC   C1B45261   7.809  11.705  21.903 -0.2639  0.1822  0.0323
 1964DPPC   C2B45262   7.911  11.313  22.185  0.0336  0.0002  0.0916
 1964DPPC   C3B45263   7.743  11.032  22.337  0.2234  0.0726  0.3983
 1964DPPC   C4B45264   7.575  10.674  22.345  0.0203  0.1750  0.0615
 1965DPPC   NC345265  22.099  -7.326  12.097  0.1019  0.0054  0.0865
 1965DPPC   PO445266  22.024  -7.703  12.303 -0.2956  0.0405  0.0122
 1965DPPC   GL145267  21.768  -7.769  12.636 -0.6292  0.0909  0.0294
 1965DPPC   GL245268  21.417  -7.593  12.626 -0.6127 -0.0446 -0.0217
 1965DPPC   C1A45269  21.721  -7.558  13.031  0.3173 -0.2479  0.0166
 1965DPPC   C2A45270  21.466  -7.480  13.366  0.1019 -0.1626  0.0150
 1965DPPC   C3A45271  21.058  -7.409  13.556 -0.0595  0.2504 -0.0855
 1965DPPC   C4A45272  20.884  -7.236  13.812 -0.0038 -0.0061 -0.3640
 1965DPPC   C1B45273  21.492  -7.047  12.744 -0.1552 -0.0685  0.2076
 1965DPPC   C2B45274  21.282  -6.627  12.850  0.1518 -0.0803 -0.3271
 1965DPPC   C3B45275  21.256  -6.236  13.041  0.0553  0.2641 -0.1171
 1965DPPC   C4B45276  21.498  -5.835  12.939  0.0627 -0.0477 -0.0081
 1966DPPC   NC345277  24.747   6.000  27.921 -0.1462 -0.1266  0.1322
 1966DPPC   PO445278  24.853   5.558  27.939 -0.1130  0.2448  0.0490
 1966DPPC   GL145279  25.210   5.873  28.089  0.1999 -0.0504 -0.2328
 1966DPPC   GL245280  25.263   5.814  27.708  0.2794  0.0506  0.0076
 1966DPPC   C1A45281  25.441   6.162  28.102 -0.0971 -0.1560 -0.0367
 1966DPPC   C2A45282  25.809   6.114  28.304  0.0280  0.0131 -0.1346
 1966DPPC   C3A45283  26.141   5.788  28.402  0.0320 -0.1184  0.1850
 1966DPPC   C4A45284  26.425   5.511  28.149 -0.2421  0.1303 -0.0875
 1966DPPC   C1B45285  25.654   5.942  27.701 -0.2630  0.0246 -0.1412
 1966DPPC   C2B45286  25.965   5.610  27.627  0.2944  0.2964 -0.0030
 1966DPPC   C3B45287  26.325   5.396  27.685  0.2164 -0.0436  0.0305
 1966DPPC   C4B45288  26.674   5.217  27.744  0.0093 -0.0210  0.2733
 1967DPPC   NC345289   8.238  15.032  28.088  0.1441 -0.1531  0.1574
 1967DPPC   PO445290   8.314  14.977  28.489 -0.3362 -0.1075 -0.1589
 1967DPPC   GL145291   8.349  14.570  28.415 -0.0105  0.0564 -0.0910
 1967DPPC   GL245292   8.059  14.339  28.373  0.0311 -0.0833 -0.1258
 1967DPPC   C1A45293   8.522  14.030  28.372 -0.0673 -0.1897  0.0054
 1967DPPC   C2A45294   8.592  13.608  28.598  0.1557  0.1439 -0.1504
 1967DPPC   C3A45295   8.300  13.275  28.722  0.2060 -0.1426  0.0280
 1967DPPC   C4A45296   8.248  12.889  28.737  0.2937 -0.1427  0.1282
 1967DPPC   C1B45297   7.950  13.973  28.086 -0.3595 -0.0927 -0.1569
 1967DPPC   C2B45298   7.915  13.624  27.766 -0.1847  0.2591 -0.1067
 1967DPPC   C3B45299   7.870  13.234  27.790  0.0439  0.1388 -0.3013
 1967DPPC   C4B45300   8.239  13.060  27.549 -0.0828  0.0262  0.1910
 1968DPPC   NC345301  20.430  -1.461  35.794 -0.1985  0.1950  0.1752
 1968DPPC   PO445302  20.589  -1.043  35.681  0.0807 -0.0067  0.1134
 1968DPPC   GL145303  20.388  -0.800  35.433 -0.0559 -0.0504  0.1420
 1968DPPC   GL245304  20.265  -0.536  35.607 -0.0646  0.1732 -0.3482
 1968DPPC   C1A45305  20.388  -0.668  35.030  0.2414  0.1184  0.0395
 1968DPPC   C2A45306  20.328  -0.609  34.625 -0.0921 -0.1061 -0.0356
 1968DPPC   C3A45307  20.321  -0.297  34.398 -0.0257 -0.1397  0.3765
 1968DPPC   C4A45308  20.244   0.034  34.296  0.0639  0.1470 -0.0216
 1968DPPC   C1B45309  19.907  -0.240  35.498  0.3133  0.0981 -0.0460
 1968DPPC   C2B45310  19.814   0.105  35.173  0.0440 -0.1352  0.0953
 1968DPPC   C3B45311  19.475   0.485  35.005 -0.2340  0.1223  0.3144
 1968DPPC   C4B45312  19.252   0.806  34.936  0.0251 -0.1731 -0.2153
 1969DPPC   NC345313  21.911   3.953  17.785  0.2801 -0.0232 -0.0436
 1969DPPC   PO445314  22.119   4.130  17.911 -0.0160  0.1768  0.3283
 1969DPPC   GL145315  22.425   4.119  17.580  0.1484  0.1186  0.2413
 1969DPPC   GL245316  22.316   3.898  17.303 -0.0261  0.2164  0.2034
 1969DPPC   C1A45317  22.737   4.082  17.215 -0.2555 -0.1744 -0.1548
 1969DPPC   C2A45318  23.025   4.115  16.875  0.0330 -0.3421 -0.0225
 1969DPPC   C3A45319  23.017   4.005  16.471 -0.1730 -0.1315 -0.1351
 1969DPPC   C4A45320  22.937   3.599  16.359  0.0891  0.2030 -0.0237
 1969DPPC   C1B45321  22.411   3.521  17.148 -0.0573 -0.1793 -0.1692
 1969DPPC   C2B45322  22.674   3.167  17.105 -0.1360  0.0551 -0.1498
 1969DPPC   C3B45323  22.534   2.756  17.058  0.4573 -0.0331  0.0013
 1969DPPC   C4B45324  22.581   2.363  17.228 -0.1929  0.1336 -0.0660
 1970DPPC   NC345325  20.729   9.290  15.086  0.2956  0.1992  0.1006
 1970DPPC   PO445326  20.630   9.639  15.337 -0.2781  0.0441 -0.0303
 1970DPPC   GL145327  20.524   9.371  15.602  0.3839  0.3627  0.1855
 1970DPPC   GL245328  20.736   9.393  15.824  0.0646 -0.0494 -0.1036
 1970DPPC   C1A45329  20.239   9.021  15.609 -0.3326 -0.0547 -0.0335
 1970DPPC   C2A45330  19.999   8.962  15.953  0.1779 -0.1062 -0.0223
 1970DPPC   C3A45331  19.844   8.785  16.315  0.0796  0.0270  0.0805
 1970DPPC   C4A45332  20.208   8.783  16.639  0.1316  0.3049  0.2329
 1970DPPC   C1B45333  20.725   9.222  16.254  0.2084  0.0925  0.0664
 1970DPPC   C2B45334  20.594   9.182  16.630 -0.0376 -0.0172 -0.0517
 1970DPPC   C3B45335  20.757   9.527  16.844 -0.1294  0.0217  0.0002
 1970DPPC   C4B45336  21.021   9.402  17.224  0.0869 -0.3753  0.1068
 1971DPPC   NC345337  18.159  -8.285  21.351  0.3755  0.2493  0.1584
 1971DPPC   PO445338  17.752  -8.223  21.479 -0.0886 -0.4345 -0.0792
 1971DPPC   GL145339  17.746  -7.924  21.817 -0.1804  0.1696 -0.0184
 1971DPPC   GL245340  17.500  -7.831  21.899 -0.0642 -0.0258 -0.0331
 1971DPPC   C1A45341  18.077  -7.719  22.071  0.0373 -0.3581 -0.0052
 1971DPPC   C2A45342  18.243  -7.376  22.317  0.0406 -0.0694  0.0347
 1971DPPC   C3A45343  18.147  -6.997  22.464  0.1839 -0.1698 -0.1148
 1971DPPC   C4A45344  18.016  -6.527  22.390  0.2374 -0.3707  0.0418
 1971DPPC   C1B45345  17.754  -7.444  21.739 -0.3944  0.2299  0.0901
 1971DPPC   C2B45346  18.054  -7.153  21.876  0.2520  0.1161  0.1457
 1971DPPC   C3B45347  18.110  -6.811  21.962 -0.2775  0.0974 -0.1047
 1971DPPC   C4B45348  17.926  -6.429  21.923  0.2277  0.0468  0.0011
 1972DPPC   NC345349   9.010  -6.713  21.499  0.1846 -0.1948 -0.2493
 1972DPPC   PO445350   8.740  -6.425  21.786  0.0487 -0.1066  0.1123
 1972DPPC   GL145351   9.246  -6.428  21.803  0.0523  0.0448 -0.1991
 1972DPPC   GL245352   9.240  -6.079  21.919 -0.0502 -0.1742 -0.0273
 1972DPPC   C1A45353   9.525  -6.204  21.524  0.1090 -0.0287  0.3064
 1972DPPC   C2A45354   9.359  -5.775  21.567 -0.1777  0.4569  0.1615
 1972DPPC   C3A45355   9.466  -5.399  21.765 -0.0601  0.3690 -0.0573
 1972DPPC   C4A45356   9.449  -5.003  22.123  0.0047 -0.1048  0.0093
 1972DPPC   C1B45357   9.279  -5.682  22.256 -0.0671  0.2041  0.4239
 1972DPPC   C2B45358   9.352  -5.419  22.576 -0.3066 -0.0801 -0.3644
 1972DPPC   C3B45359   9.555  -5.323  22.963 -0.2090  0.2132  0.3970
 1972DPPC   C4B45360   9.664  -5.284  23.363  0.1815  0.2366  0.0222
 1973DPPC   NC345361  11.876  16.623  27.232 -0.0763  0.0215 -0.2611
 1973DPPC   PO445362  12.057  16.704  26.744 -0.0346 -0.0369  0.2707
 1973DPPC   GL145363  11.984  16.391  26.584  0.0240 -0.1977  0.4057
 1973DPPC   GL245364  11.745  16.385  26.784 -0.2371  0.6129 -0.2691
 1973DPPC   C1A45365  12.429  16.128  26.401 -0.0555  0.0039  0.1410
 1973DPPC   C2A45366  12.852  16.016  26.439 -0.1661  0.4952  0.2112
 1973DPPC   C3A45367  13.133  15.817  26.627 -0.0011 -0.2299  0.1060
 1973DPPC   C4A45368  13.117  15.328  26.529  0.3052 -0.3441 -0.3901
 1973DPPC   C1B45369  11.764  15.999  27.122 -0.2338 -0.1668 -0.0990
 1973DPPC   C2B45370  12.040  15.656  27.220  0.2556  0.0423 -0.1483
 1973DPPC   C3B45371  12.232  15.372  27.031  0.0887  0.1797 -0.0272
 1973DPPC   C4B45372  12.305  15.076  26.683  0.2207  0.3228 -0.0213
 1974DPPC   NC345373  18.360  -3.877  33.752 -0.5316  0.0113 -0.1401
 1974DPPC   PO445374  17.918  -4.133  33.568  0.2416  0.0742 -0.1233
 1974DPPC   GL145375  17.815  -3.690  33.457 -0.0713  0.1901 -0.0359
 1974DPPC   GL245376  18.128  -3.689  33.349 -0.1286  0.0450 -0.0712
 1974DPPC   C1A45377  17.657  -3.443  33.291 -0.3027 -0.1735 -0.0045
 1974DPPC   C2A45378  17.342  -3.247  33.164  0.1779 -0.2808 -0.1076
 1974DPPC   C3A45379  17.025  -3.187  32.926  0.0088 -0.0069  0.1401
 1974DPPC   C4A45380  16.681  -3.021  32.639  0.1849 -0.0628 -0.0435
 1974DPPC   C1B45381  18.170  -3.260  33.217  0.0085 -0.3260 -0.0519
 1974DPPC   C2B45382  17.896  -2.954  33.324 -0.0347 -0.4871  0.1842
 1974DPPC   C3B45383  17.577  -2.891  32.930  0.2928  0.1412 -0.1925
 1974DPPC   C4B45384  17.500  -2.573  32.727  0.1550 -0.2035  0.2667
 1975DPPC   NC345385  17.888   4.597  16.106  0.0071 -0.1327  0.0487
 1975DPPC   PO445386  17.970   4.810  16.547 -0.1553 -0.1411 -0.1175
 1975DPPC   GL145387  17.880   5.101  16.067  0.1957 -0.0125 -0.3648
 1975DPPC   GL245388  18.185   5.001  15.990 -0.0654  0.2401 -0.0652
 1975DPPC   C1A45389  17.879   5.334  15.673 -0.2011  0.0681 -0.2137
 1975DPPC   C2A45390  18.110   5.361  15.272 -0.2357 -0.3194  0.1367
 1975DPPC   C3A45391  17.826   5.407  14.940 -0.2462  0.1761 -0.0232
 1975DPPC   C4A45392  17.756   5.696  14.518 -0.3208 -0.0417  0.3425
 1975DPPC   C1B45393  18.152   4.802  15.525 -0.2573  0.1972 -0.1496
 1975DPPC   C2B45394  17.904   4.478  15.147 -0.0201  0.1464  0.0311
 1975DPPC   C3B45395  17.644   4.451  14.836  0.1542  0.4452  0.0068
 1975DPPC   C4B45396  17.776   4.196  14.435 -0.1554  0.1539  0.3044
 1976DPPC   NC345397  26.041   6.435  17.929 -0.2867  0.0245  0.2561
 1976DPPC   PO445398  26.269   6.133  18.054  0.0305  0.0631  0.1023
 1976DPPC   GL145399  25.793   5.952  18.134  0.0587 -0.0187  0.3609
 1976DPPC   GL245400  25.827   5.820  18.475 -0.2353 -0.0089  0.2709
 1976DPPC   C1A45401  25.334   5.838  18.201 -0.0317  0.0206  0.3022
 1976DPPC   C2A45402  24.989   5.808  18.471 -0.3662 -0.0389 -0.0130
 1976DPPC   C3A45403  24.678   5.778  18.364  0.3801  0.1351 -0.0801
 1976DPPC   C4A45404  24.411   6.015  18.102 -0.0368 -0.2920  0.0940
 1976DPPC   C1B45405  25.860   5.507  18.664  0.1189 -0.0196 -0.0838
 1976DPPC   C2B45406  25.448   5.266  18.717  0.0638 -0.1503 -0.1184
 1976DPPC   C3B45407  25.019   5.460  18.826 -0.0350 -0.1873  0.1346
 1976DPPC   C4B45408  24.856   5.340  19.253  0.2629  0.3204  0.0305
 1977DPPC   NC345409  13.439  15.043  32.510 -0.2416  0.0311 -0.0574
 1977DPPC   PO445410  13.211  14.627  32.441 -0.0128  0.0462 -0.3539
 1977DPPC   GL145411  12.924  14.623  32.133  0.3344 -0.0597 -0.1424
 1977DPPC   GL245412  13.073  14.598  31.825  0.0466 -0.1275 -0.0980
 1977DPPC   C1A45413  12.574  14.408  31.802  0.0607 -0.4009  0.0125
 1977DPPC   C2A45414  12.428  13.947  31.621 -0.1352  0.2195  0.0233
 1977DPPC   C3A45415  12.060  13.843  31.440 -0.0146  0.0750 -0.2800
 1977DPPC   C4A45416  11.906  13.435  31.192  0.1215 -0.1025 -0.0354
 1977DPPC   C1B45417  13.031  14.170  32.000 -0.3750  0.1504  0.5585
 1977DPPC   C2B45418  12.805  13.742  31.871 -0.0307 -0.1229  0.1570
 1977DPPC   C3B45419  12.568  13.321  31.776 -0.0526  0.5046 -0.0536
 1977DPPC   C4B45420  12.506  12.916  31.447  0.0731  0.3103  0.1872
 1978DPPC   NC345421  23.507   0.592  34.701  0.4005  0.1255 -0.2474
 1978DPPC   PO445422  23.524   0.700  35.097  0.0739 -0.1130  0.0828
 1978DPPC   GL145423  23.149   0.908  34.811 -0.1240 -0.0738 -0.0850
 1978DPPC   GL245424  23.364   1.061  34.539  0.1373  0.3489  0.1464
 1978DPPC   C1A45425  22.767   1.074  34.736  0.1848 -0.0846  0.0174
 1978DPPC   C2A45426  22.485   1.207  34.331  0.1035  0.2178 -0.1466
 1978DPPC   C3A45427  22.271   1.442  34.176 -0.0301 -0.2062  0.1008
 1978DPPC   C4A45428  22.039   1.798  34.150  0.2661 -0.0305 -0.0511
 1978DPPC   C1B45429  23.358   1.124  34.033  0.0242 -0.1220 -0.2005
 1978DPPC   C2B45430  22.998   1.185  33.848  0.2233  0.2336 -0.0597
 1978DPPC   C3B45431  22.568   1.327  33.802  0.3654  0.1109  0.0808
 1978DPPC   C4B45432  22.084   1.364  33.697 -0.1337 -0.1059  0.1328
 1979DPPC   NC345433  18.012   2.089  17.732 -0.2636  0.0094 -0.2732
 1979DPPC   PO445434  17.883   2.103  17.312 -0.1578  0.2383  0.0664
 1979DPPC   GL145435  17.971   1.688  17.404  0.0753  0.0021 -0.1087
 1979DPPC   GL245436  18.261   1.642  17.498 -0.1769 -0.1385 -0.0496
 1979DPPC   C1A45437  18.101   1.311  17.205  0.2229  0.1440 -0.0017
 1979DPPC   C2A45438  18.464   1.377  16.888 -0.1148 -0.2082  0.1343
 1979DPPC   C3A45439  18.514   1.685  16.626 -0.2038  0.2288  0.0861
 1979DPPC   C4A45440  18.559   1.646  16.182  0.1127  0.1187  0.1912
 1979DPPC   C1B45441  18.630   1.772  17.183  0.0443 -0.1382  0.0670
 1979DPPC   C2B45442  18.932   1.434  16.917 -0.1465  0.1027 -0.3784
 1979DPPC   C3B45443  19.342   1.330  16.728 -0.4862  0.1046  0.1209
 1979DPPC   C4B45444  19.647   1.466  16.508  0.1924  0.0289  0.0638
 1980DPPC   NC345445  17.498   5.130  16.462 -0.0174 -0.2218 -0.2483
 1980DPPC   PO445446  17.454   4.843  16.221  0.1775  0.1205 -0.1909
 1980DPPC   GL145447  17.276   5.124  16.008  0.1360  0.0962  0.2436
 1980DPPC   GL245448  17.288   5.512  16.146 -0.2990 -0.2917 -0.0005
 1980DPPC   C1A45449  17.473   5.129  15.580 -0.0464 -0.2061  0.0778
 1980DPPC   C2A45450  17.567   4.989  15.180 -0.0870  0.1938  0.2042
 1980DPPC   C3A45451  17.924   4.956  14.841 -0.1634  0.0935 -0.1184
 1980DPPC   C4A45452  18.352   5.235  14.706 -0.1218 -0.0799  0.2349
 1980DPPC   C1B45453  17.372   5.671  15.735  0.2970  0.0770 -0.1195
 1980DPPC   C2B45454  17.288   5.486  15.290  0.0487  0.1708 -0.2787
 1980DPPC   C3B45455  17.330   5.388  14.849  0.0482 -0.1864 -0.1144
 1980DPPC   C4B45456  17.235   5.318  14.432 -0.0828 -0.1029 -0.1655
 1981DPPC   NC345457   6.837  12.870  23.224 -0.0022 -0.3589 -0.1059
 1981DPPC   PO445458   6.973  12.880  23.578 -0.0575  0.0626 -0.1060
 1981DPPC   GL145459   7.330  12.792  23.524  0.0143 -0.1252 -0.0886
 1981DPPC   GL245460   7.541  12.669  23.786 -0.2271  0.1434 -0.0265
 1981DPPC   C1A45461   7.642  12.515  23.283 -0.2020 -0.0904  0.0790
 1981DPPC   C2A45462   7.869  12.091  23.265 -0.3924 -0.0557 -0.1183
 1981DPPC   C3A45463   8.007  11.689  23.310  0.0362  0.1587 -0.2401
 1981DPPC   C4A45464   8.068  11.212  23.188  0.0561 -0.0401 -0.0833
 1981DPPC   C1B45465   7.903  12.388  23.788 -0.1572 -0.6246  0.0315
 1981DPPC   C2B45466   8.198  12.114  23.728 -0.2711 -0.0597  0.3148
 1981DPPC   C3B45467   8.520  11.927  23.548 -0.1268  0.1142  0.2501
 1981DPPC   C4B45468   8.966  12.014  23.579 -0.0844  0.1883 -0.1470
 1982DPPC   NC345469  14.969  -3.098  19.276 -0.5497 -0.0631  0.2396
 1982DPPC   PO445470  15.244  -2.907  19.007  0.3368 -0.3016  0.1813
 1982DPPC   GL145471  15.526  -3.037  18.634 -0.0716  0.0440  0.1775
 1982DPPC   GL245472  15.518  -3.352  18.693 -0.0993  0.0559 -0.0441
 1982DPPC   C1A45473  16.003  -2.901  18.525  0.1660 -0.0522 -0.0492
 1982DPPC   C2A45474  16.458  -2.986  18.702  0.0750 -0.4297  0.2259
 1982DPPC   C3A45475  16.800  -2.909  18.976  0.1113  0.0687  0.0403
 1982DPPC   C4A45476  17.107  -3.157  19.069 -0.1022  0.1717  0.0486
 1982DPPC   C1B45477  15.707  -3.521  18.379 -0.3540 -0.0242 -0.1887
 1982DPPC   C2B45478  16.059  -3.930  18.333 -0.1373 -0.1701  0.1837
 1982DPPC   C3B45479  16.226  -4.350  18.323 -0.2757 -0.1702 -0.1683
 1982DPPC   C4B45480  15.989  -4.732  18.372  0.4602 -0.0028  0.0968
 1983DPPC   NC345481   8.365   2.531  28.892  0.2186 -0.0499  0.0741
 1983DPPC   PO445482   8.180   2.723  29.246  0.0686 -0.0576 -0.4052
 1983DPPC   GL145483   7.929   2.410  29.441  0.0677 -0.2116  0.3614
 1983DPPC   GL245484   8.112   2.139  29.690 -0.0584 -0.1767  0.1352
 1983DPPC   C1A45485   7.659   2.086  29.479  0.0541 -0.3060  0.1418
 1983DPPC   C2A45486   7.363   1.954  29.747  0.0900 -0.1138 -0.1095
 1983DPPC   C3A45487   7.148   1.774  30.091  0.0579  0.2626 -0.3081
 1983DPPC   C4A45488   6.948   1.888  30.434  0.1131 -0.0845 -0.0944
 1983DPPC   C1B45489   7.896   1.903  29.953  0.1068 -0.1975 -0.0638
 1983DPPC   C2B45490   7.687   1.675  30.041  0.4634 -0.2220 -0.0835
 1983DPPC   C3B45491   7.603   1.514  30.412  0.1029  0.3921 -0.1659
 1983DPPC   C4B45492   7.632   1.051  30.539  0.1963 -0.0134  0.0597
 1984DPPC   NC345493  13.703  14.564  32.538  0.0035  0.2453  0.0130
 1984DPPC   PO445494  13.982  14.830  32.492 -0.2440 -0.3110 -0.1251
 1984DPPC   GL145495  14.195  14.617  32.219 -0.0545  0.1575  0.0556
 1984DPPC   GL245496  13.966  14.471  32.120 -0.1693  0.2626 -0.1865
 1984DPPC   C1A45497  14.389  14.177  32.175  0.1636 -0.0125  0.2490
 1984DPPC   C2A45498  14.527  13.750  32.131 -0.0479 -0.0875  0.0036
 1984DPPC   C3A45499  14.785  13.493  31.859 -0.4825 -0.0183  0.0066
 1984DPPC   C4A45500  15.023  13.395  31.557 -0.4918  0.2249  0.1243
 1984DPPC   C1B45501  14.024  14.107  31.842  0.2270  0.0928  0.1455
 1984DPPC   C2B45502  13.951  13.746  31.513 -0.1387  0.0676 -0.0936
 1984DPPC   C3B45503  13.812  13.496  31.102 -0.0726  0.2867 -0.1376
 1984DPPC   C4B45504  13.973  13.253  31.048 -0.1147  0.0648  0.2356
 1985DPPC   NC345505  19.385   1.478  32.098  0.0096  0.3180 -0.0508
 1985DPPC   PO445506  19.317   1.645  32.451  0.2500  0.1516 -0.1699
 1985DPPC   GL145507  19.746   1.634  32.532 -0.1066  0.0217  0.1121
 1985DPPC   GL245508  19.564   1.738  32.858 -0.0910 -0.1890 -0.0306
 1985DPPC   C1A45509  20.133   1.733  32.714 -0.0907 -0.0875  0.0339
 1985DPPC   C2A45510  20.377   1.430  33.038 -0.0258  0.1321  0.1187
 1985DPPC   C3A45511  20.677   1.266  33.315  0.1226 -0.1277 -0.1350
 1985DPPC   C4A45512  21.093   1.414  33.479  0.1939  0.1741 -0.4288
 1985DPPC   C1B45513  19.867   1.823  33.245  0.2453  0.4021 -0.1822
 1985DPPC   C2B45514  20.023   1.431  33.460 -0.2056 -0.0913  0.3046
 1985DPPC   C3B45515  20.161   0.985  33.294  0.2791  0.0302 -0.2612
 1985DPPC   C4B45516  20.198   0.587  33.557  0.2054 -0.2271 -0.0164
 1986DPPC   NC345517  25.502  11.308  30.889  0.1695  0.0032 -0.0709
 1986DPPC   PO445518  25.455  10.817  30.805  0.0603  0.1902 -0.5008
 1986DPPC   GL145519  25.364  10.395  30.713 -0.1843  0.0563 -0.4731
 1986DPPC   GL245520  24.980  10.499  30.777 -0.4042 -0.0567 -0.0805
 1986DPPC   C1A45521  25.052   9.989  30.755 -0.1575  0.1867  0.1294
 1986DPPC   C2A45522  24.716   9.691  30.607 -0.0246 -0.4220 -0.0833
 1986DPPC   C3A45523  24.420   9.505  30.360  0.0626 -0.2026  0.2387
 1986DPPC   C4A45524  23.932   9.519  30.196  0.2396 -0.0459 -0.2543
 1986DPPC   C1B45525  24.618  10.239  30.558  0.1326 -0.2031  0.3068
 1986DPPC   C2B45526  24.209  10.446  30.448  0.1351  0.2114 -0.0499
 1986DPPC   C3B45527  23.915  10.399  30.119  0.2297  0.1093 -0.1860
 1986DPPC   C4B45528  23.587  10.144  29.971  0.1205 -0.2434  0.0535
 1987DPPC   NC345529  19.842   1.071  19.529 -0.1028  0.6436 -0.0830
 1987DPPC   PO445530  19.562   0.756  19.630 -0.1170 -0.1175  0.1957
 1987DPPC   GL145531  19.697   0.637  19.269  0.0661 -0.2107  0.0553
 1987DPPC   GL245532  19.901   0.455  19.483 -0.2272  0.0200 -0.0770
 1987DPPC   C1A45533  19.733   0.397  18.932 -0.1178 -0.3914  0.0941
 1987DPPC   C2A45534  20.026   0.144  18.753 -0.2033 -0.2350 -0.0633
 1987DPPC   C3A45535  20.061  -0.250  18.547 -0.1344 -0.1116 -0.1419
 1987DPPC   C4A45536  20.072  -0.582  18.212  0.1004 -0.1182  0.2238
 1987DPPC   C1B45537  19.632   0.095  19.331  0.1894 -0.0624 -0.1364
 1987DPPC   C2B45538  19.389   0.021  18.970 -0.0973  0.0320  0.3161
 1987DPPC   C3B45539  19.086  -0.320  18.821  0.0475 -0.0752 -0.3263
 1987DPPC   C4B45540  19.127  -0.812  18.813 -0.1918 -0.0838 -0.1380
 1988DPPC   NC345541  12.608   2.360  17.050  0.2257 -0.1001  0.0572
 1988DPPC   PO445542  12.290   2.753  17.121 -0.1861 -0.2933 -0.2132
 1988DPPC   GL145543  12.153   3.092  16.902  0.2052 -0.0565 -0.4039
 1988DPPC   GL245544  12.445   3.300  16.922  0.0268  0.2022  0.1769
 1988DPPC   C1A45545  11.975   3.429  16.688  0.0383  0.1212 -0.0897
 1988DPPC   C2A45546  11.874   3.573  16.409 -0.0215 -0.3619 -0.2187
 1988DPPC   C3A45547  11.672   3.787  16.038 -0.0299  0.1586 -0.3533
 1988DPPC   C4A45548  11.388   4.030  15.751  0.1198 -0.2633  0.2448
 1988DPPC   C1B45549  12.441   3.506  16.472 -0.2501  0.3278  0.1123
 1988DPPC   C2B45550  12.337   3.930  16.345 -0.0801 -0.4204 -0.4987
 1988DPPC   C3B45551  12.183   4.045  16.030 -0.0588 -0.2156  0.1396
 1988DPPC   C4B45552  12.256   4.395  15.620  0.0737  0.1462  0.2847
 1989DPPC   NC345553  26.298   5.844  18.511  0.0072 -0.1339  0.1446
 1989DPPC   PO445554  26.441   6.063  18.926 -0.0671  0.0643  0.4048
 1989DPPC   GL145555  26.109   5.831  18.932  0.1313 -0.1223 -0.3144
 1989DPPC   GL245556  26.077   5.586  19.171 -0.1317 -0.0299 -0.1481
 1989DPPC   C1A45557  25.642   5.862  19.066 -0.1552 -0.1624 -0.1925
 1989DPPC   C2A45558  25.356   5.900  18.783 -0.1165 -0.0443 -0.1989
 1989DPPC   C3A45559  25.113   6.232  18.521 -0.3227 -0.0454 -0.1864
 1989DPPC   C4A45560  24.851   6.571  18.708  0.1032  0.6027 -0.0705
 1989DPPC   C1B45561  25.691   5.378  19.151  0.1779  0.0043 -0.4026
 1989DPPC   C2B45562  25.402   5.137  19.174  0.3595  0.2394  0.0871
 1989DPPC   C3B45563  25.132   4.796  18.964  0.3396 -0.1789  0.2366
 1989DPPC   C4B45564  24.687   4.931  18.784  0.2458  0.2471  0.1047
 1990DPPC   NC345565  22.556   2.815  31.054 -0.0139 -0.2853 -0.0758
 1990DPPC   PO445566  22.932   2.921  30.839  0.0996  0.1733  0.2766
 1990DPPC   GL145567  23.238   3.272  30.943 -0.0858 -0.1633  0.1037
 1990DPPC   GL245568  23.195   3.578  31.129  0.0673 -0.0220 -0.1037
 1990DPPC   C1A45569  23.652   3.491  31.040 -0.1122 -0.1357  0.2590
 1990DPPC   C2A45570  23.902   3.542  31.387  0.1246  0.0630 -0.1235
 1990DPPC   C3A45571  24.061   3.744  31.758 -0.3086  0.0475 -0.1835
 1990DPPC   C4A45572  24.119   4.152  31.977 -0.0899 -0.1614  0.1244
 1990DPPC   C1B45573  23.398   3.731  31.482  0.0890 -0.0461 -0.2397
 1990DPPC   C2B45574  23.432   3.919  31.916 -0.2280 -0.0229  0.2950
 1990DPPC   C3B45575  23.659   4.252  32.038 -0.0468 -0.3671 -0.3692
 1990DPPC   C4B45576  23.956   4.594  32.141  0.1835  0.1862 -0.0299
 1991DPPC   NC345577  13.997  12.041  15.334 -0.1202 -0.2745  0.1074
 1991DPPC   PO445578  14.072  12.089  15.812 -0.4042 -0.3436 -0.3390
 1991DPPC   GL145579  14.025  11.589  16.030  0.3137 -0.0324 -0.0686
 1991DPPC   GL245580  14.315  11.253  16.023  0.3418  0.0722 -0.1411
 1991DPPC   C1A45581  13.907  11.391  16.476 -0.2259  0.0646 -0.0800
 1991DPPC   C2A45582  13.666  11.228  16.869  0.0400 -0.0403 -0.1114
 1991DPPC   C3A45583  13.443  10.934  16.999 -0.1179  0.1422 -0.0609
 1991DPPC   C4A45584  13.425  10.754  17.389  0.3340 -0.0315 -0.0646
 1991DPPC   C1B45585  14.192  10.992  16.329  0.0515 -0.1993 -0.1598
 1991DPPC   C2B45586  14.435  10.789  16.594 -0.0382 -0.1208 -0.2009
 1991DPPC   C3B45587  14.786  10.933  16.547  0.1739  0.4430 -0.0283
 1991DPPC   C4B45588  14.968  11.274  16.619 -0.2437  0.0083 -0.1397
 1992DPPC   NC345589  17.690  10.618  21.718 -0.2998  0.3204  0.2379
 1992DPPC   PO445590  18.054  10.611  21.928 -0.1667 -0.0785 -0.2633
 1992DPPC   GL145591  17.938  11.103  21.805  0.0015 -0.2286  0.1490
 1992DPPC   GL245592  18.016  11.229  21.516 -0.1503  0.2919  0.0696
 1992DPPC   C1A45593  17.684  11.525  21.785  0.1126 -0.1802 -0.0547
 1992DPPC   C2A45594  17.935  11.900  21.859  0.0550 -0.1843 -0.2042
 1992DPPC   C3A45595  18.304  12.077  21.877  0.2365 -0.0163 -0.0527
 1992DPPC   C4A45596  18.708  12.059  21.509  0.3195 -0.0989  0.1459
 1992DPPC   C1B45597  18.214  11.615  21.562 -0.1786  0.2485  0.0901
 1992DPPC   C2B45598  18.196  12.018  21.396  0.0350  0.1488 -0.0368
 1992DPPC   C3B45599  18.351  12.307  21.204  0.0923  0.0549  0.0642
 1992DPPC   C4B45600  18.482  12.337  20.836 -0.0787  0.0151 -0.0995
 1993DPPC   NC345601   7.153   6.698  16.439  0.2916 -0.0930 -0.0164
 1993DPPC   PO445602   7.402   6.848  16.771 -0.1243  0.3604 -0.0425
 1993DPPC   GL145603   7.465   6.814  17.250 -0.0455 -0.1810 -0.1307
 1993DPPC   GL245604   7.301   6.993  17.393 -0.2605 -0.5644 -0.1334
 1993DPPC   C1A45605   7.760   6.874  17.563 -0.0010 -0.0424  0.0705
 1993DPPC   C2A45606   7.742   6.538  17.918 -0.0281 -0.0869 -0.0563
 1993DPPC   C3A45607   8.093   6.357  18.164  0.1267 -0.2007 -0.1668
 1993DPPC   C4A45608   8.537   6.276  18.235 -0.0563  0.1124  0.1054
 1993DPPC   C1B45609   7.276   6.860  17.809  0.2956  0.1229  0.3397
 1993DPPC   C2B45610   7.422   6.716  18.240 -0.0781 -0.2489  0.0841
 1993DPPC   C3B45611   7.865   6.741  18.436  0.1841  0.0824  0.2481
 1993DPPC   C4B45612   8.311   6.674  18.522  0.0363  0.0445 -0.2690
 1994DPPC   NC345613  10.195  14.360  20.640 -0.0871 -0.1636  0.3413
 1994DPPC   PO445614  10.574  14.392  20.869 -0.1509 -0.0478  0.0804
 1994DPPC   GL145615  10.666  13.957  20.810 -0.0653 -0.2321 -0.2052
 1994DPPC   GL245616  10.618  13.907  21.102 -0.2345 -0.0838  0.4388
 1994DPPC   C1A45617  10.613  13.575  20.505  0.1351 -0.3215 -0.0108
 1994DPPC   C2A45618  10.645  13.174  20.585 -0.2554  0.1100  0.2442
 1994DPPC   C3A45619  10.911  12.817  20.623 -0.1928 -0.3379 -0.3390
 1994DPPC   C4A45620  11.011  12.396  20.788  0.2459  0.4232  0.1571
 1994DPPC   C1B45621  10.718  13.474  21.038  0.2198  0.1563 -0.1504
 1994DPPC   C2B45622  10.584  13.161  21.142  0.1102  0.2962 -0.1344
 1994DPPC   C3B45623  10.762  12.705  21.127  0.1052 -0.1506  0.0334
 1994DPPC   C4B45624  10.925  12.323  21.292 -0.0811 -0.4003 -0.3466
 1995DPPC   NC345625  27.504   9.429  28.689 -0.1721  0.1472  0.1334
 1995DPPC   PO445626  27.108   9.566  28.421 -0.1639 -0.2023 -0.3510
 1995DPPC   GL145627  26.693   9.658  28.464 -0.0104 -0.0536 -0.0327
 1995DPPC   GL245628  26.626   9.938  28.199 -0.0872  0.2575 -0.3336
 1995DPPC   C1A45629  26.361   9.369  28.470 -0.0526 -0.2734  0.2019
 1995DPPC   C2A45630  26.015   9.046  28.565 -0.1025 -0.0657 -0.0315
 1995DPPC   C3A45631  25.644   8.725  28.487 -0.2590  0.1040  0.1062
 1995DPPC   C4A45632  25.531   8.382  28.641  0.1958  0.1437 -0.2039
 1995DPPC   C1B45633  26.193   9.808  28.337  0.2207 -0.0674  0.0465
 1995DPPC   C2B45634  25.853   9.498  28.475  0.0779  0.0083  0.3849
 1995DPPC   C3B45635  25.432   9.339  28.414  0.1598  0.0473 -0.1147
 1995DPPC   C4B45636  25.170   9.144  28.076 -0.1522 -0.0546  0.2351
 1996DPPC   NC345637   8.623   8.896  35.162  0.1518  0.4565  0.1870
 1996DPPC   PO445638   9.094   8.794  35.092 -0.0092  0.4501 -0.1770
 1996DPPC   GL145639   9.067   9.090  34.710  0.0100 -0.0530  0.1392
 1996DPPC   GL245640   9.414   8.972  34.485  0.7548 -0.3826  0.1099
 1996DPPC   C1A45641   8.847   8.918  34.274 -0.0471 -0.0469 -0.0704
 1996DPPC   C2A45642   9.083   9.051  33.909  0.0309  0.0755  0.0555
 1996DPPC   C3A45643   9.144   8.819  33.543 -0.1606  0.0839 -0.2054
 1996DPPC   C4A45644   8.981   8.531  33.322 -0.1270 -0.1108 -0.0785
 1996DPPC   C1B45645   9.839   8.734  34.444 -0.0833 -0.1023  0.1725
 1996DPPC   C2B45646  10.181   8.476  34.227  0.1784  0.1169 -0.0477
 1996DPPC   C3B45647  10.255   8.497  33.834 -0.0957  0.0038  0.0367
 1996DPPC   C4B45648  10.217   8.298  33.405  0.1769 -0.3264 -0.0610
 1997DPPC   NC345649  11.832   9.495  35.981  0.0986 -0.2085  0.0332
 1997DPPC   PO445650  12.115   9.098  36.075  0.1595 -0.2750  0.0612
 1997DPPC   GL145651  12.482   9.042  35.821 -0.2051 -0.0466 -0.2873
 1997DPPC   GL245652  12.338   8.973  35.653 -0.0821  0.5343 -0.1517
 1997DPPC   C1A45653  12.798   8.971  35.466  0.0880  0.2806  0.2064
 1997DPPC   C2A45654  13.198   8.910  35.223  0.0797 -0.0142 -0.3186
 1997DPPC   C3A45655  13.607   8.853  35.133 -0.1659 -0.0885  0.5618
 1997DPPC   C4A45656  13.851   8.608  34.877 -0.0379 -0.0932 -0.1041
 1997DPPC   C1B45657  12.256   8.794  35.183  0.1014  0.1126  0.3702
 1997DPPC   C2B45658  12.288   8.860  34.724  0.2705  0.1900 -0.0886
 1997DPPC   C3B45659  12.454   8.933  34.301 -0.1349  0.0271  0.0495
 1997DPPC   C4B45660  12.627   8.722  33.924  0.2449 -0.0396  0.1135
 1998DPPC   NC345661  27.536  -0.010  30.611 -0.0172 -0.2594  0.0288
 1998DPPC   PO445662  27.262  -0.310  30.629  0.0900 -0.0518  0.0225
 1998DPPC   GL145663  26.861  -0.126  30.593 -0.1084 -0.0250  0.1000
 1998DPPC   GL245664  26.704  -0.275  30.343  0.0820  0.2429 -0.0281
 1998DPPC   C1A45665  26.819   0.185  30.270  0.1379 -0.0198  0.3849
 1998DPPC   C2A45666  26.748   0.575  30.201  0.1212 -0.0919 -0.0966
 1998DPPC   C3A45667  26.646   1.070  30.245 -0.0223 -0.3072 -0.1445
 1998DPPC   C4A45668  26.616   1.407  30.485 -0.0433  0.1280  0.2437
 1998DPPC   C1B45669  26.407  -0.229  30.049  0.1519 -0.0383  0.1073
 1998DPPC   C2B45670  26.191  -0.055  29.576  0.0684  0.1769  0.0987
 1998DPPC   C3B45671  26.066   0.033  29.186 -0.1068  0.0144 -0.0435
 1998DPPC   C4B45672  25.726   0.223  28.959 -0.0116 -0.0768 -0.0213
 1999DPPC   NC345673  10.459  10.820  29.558 -0.0069  0.0318 -0.3541
 1999DPPC   PO445674  10.713  11.029  29.847 -0.1746 -0.0635 -0.1269
 1999DPPC   GL145675  10.595  11.369  30.070  0.0891 -0.1134  0.0530
 1999DPPC   GL245676  10.652  11.723  30.012  0.1160 -0.2630  0.0857
 1999DPPC   C1A45677  10.239  11.578  30.473  0.0737  0.0748 -0.0239
 1999DPPC   C2A45678   9.914  11.827  30.614  0.2745 -0.1346 -0.2641
 1999DPPC   C3A45679   9.754  12.173  30.481  0.3053  0.3146  0.1635
 1999DPPC   C4A45680   9.381  12.521  30.523 -0.1407  0.1071 -0.4095
 1999DPPC   C1B45681  10.651  12.041  30.287 -0.0953 -0.1196 -0.0254
 1999DPPC   C2B45682  10.847  12.210  30.743 -0.1990  0.2769 -0.0828
 1999DPPC   C3B45683  11.107  12.363  31.164  0.2726  0.1023 -0.4808
 1999DPPC   C4B45684  10.823  12.461  31.544 -0.1912  0.1753  0.2161
 2000DPPC   NC345685  26.060  11.789  27.091 -0.0949  0.3425 -0.1263
 2000DPPC   PO445686  25.963  12.142  26.830  0.3392 -0.1418  0.1311
 2000DPPC   GL145687  25.558  11.902  26.924  0.0703 -0.0261 -0.1947
 2000DPPC   GL245688  25.639  11.628  27.002  0.1437 -0.1777  0.1062
 2000DPPC   C1A45689  25.091  11.728  27.055  0.1983  0.0343 -0.4622
 2000DPPC   C2A45690  24.746  11.528  27.253  0.0502 -0.2092 -0.1158
 2000DPPC   C3A45691  24.318  11.417  27.096  0.1225 -0.1814 -0.2014
 2000DPPC   C4A45692  24.115  11.030  27.126  0.3182 -0.2698 -0.0858
 2000DPPC   C1B45693  25.551  11.277  26.918  0.0172  0.1012  0.0605
 2000DPPC   C2B45694  25.672  10.868  26.914  0.2879 -0.0126 -0.1952
 2000DPPC   C3B45695  25.415  10.494  26.842  0.0330 -0.2257 -0.0093
 2000DPPC   C4B45696  25.297  10.277  27.189  0.0589 -0.1820 -0.0241
 2001DPPC   NC345697  17.829  10.128  30.530  0.0662 -0.0453 -0.1508
 2001DPPC   PO445698  17.921  10.554  30.374 -0.0348 -0.1945 -0.1567
 2001DPPC   GL145699  18.034  10.855  30.711 -0.0606  0.2037  0.0813
 2001DPPC   GL245700  17.909  11.141  30.620 -0.2491  0.2692 -0.1152
 2001DPPC   C1A45701  18.394  10.868  31.139  0.1714 -0.1779  0.2389
 2001DPPC   C2A45702  18.694  10.637  31.382  0.2141  0.0668 -0.1515
 2001DPPC   C3A45703  19.119  10.712  31.536 -0.0423  0.1329  0.2407
 2001DPPC   C4A45704  19.481  10.638  31.925 -0.1093 -0.0623  0.3619
 2001DPPC   C1B45705  18.032  11.247  31.057 -0.1065 -0.0743  0.0727
 2001DPPC   C2B45706  18.340  11.408  31.316 -0.1338  0.3618 -0.0840
 2001DPPC   C3B45707  18.637  11.623  31.599 -0.3652  0.3122 -0.0939
 2001DPPC   C4B45708  18.638  11.781  31.944 -0.0564 -0.0329 -0.1794
 2002DPPC   NC345709  24.469  13.778  22.851  0.1828 -0.1207 -0.1722
 2002DPPC   PO445710  24.375  13.389  23.118  0.0281  0.2120  0.1751
 2002DPPC   GL145711  24.153  13.051  23.250  0.0619 -0.0514  0.2283
 2002DPPC   GL245712  24.044  12.865  23.572  0.2292  0.0454 -0.0812
 2002DPPC   C1A45713  24.005  12.817  23.019 -0.0438  0.1021 -0.1945
 2002DPPC   C2A45714  24.062  12.446  22.884 -0.1187  0.0922 -0.0851
 2002DPPC   C3A45715  23.759  12.178  23.078  0.1499  0.1395  0.0250
 2002DPPC   C4A45716  23.364  12.047  22.996  0.0144 -0.1934  0.0027
 2002DPPC   C1B45717  23.754  12.654  23.899  0.1630 -0.0897  0.2858
 2002DPPC   C2B45718  23.397  12.547  23.960 -0.1824 -0.1738 -0.1895
 2002DPPC   C3B45719  23.121  12.284  24.062  0.0908  0.0239  0.0695
 2002DPPC   C4B45720  22.676  12.190  24.258  0.0610 -0.0109 -0.1466
 2003DPPC   NC345721   5.524   5.225  33.497  0.3254 -0.0460 -0.0596
 2003DPPC   PO445722   5.941   5.199  33.463  0.1579  0.0635 -0.6865
 2003DPPC   GL145723   6.240   5.091  33.164 -0.0830 -0.0599  0.2161
 2003DPPC   GL245724   6.525   4.952  33.104  0.2395 -0.0945  0.1106
 2003DPPC   C1A45725   6.424   5.449  32.883 -0.1410  0.0191 -0.2725
 2003DPPC   C2A45726   6.530   5.327  32.516  0.3877 -0.1127 -0.1685
 2003DPPC   C3A45727   6.758   5.185  32.188  0.1856  0.1419  0.1090
 2003DPPC   C4A45728   7.037   5.314  31.794 -0.2519 -0.0690 -0.1258
 2003DPPC   C1B45729   6.873   5.112  32.993 -0.0106 -0.2223  0.1061
 2003DPPC   C2B45730   7.092   5.227  32.570  0.4226  0.0259 -0.4760
 2003DPPC   C3B45731   7.317   5.168  32.221 -0.1609 -0.0984 -0.1809
 2003DPPC   C4B45732   7.524   5.250  31.845 -0.2855  0.3420 -0.0921
 2004DPPC   NC345733   5.322   4.686  32.941  0.1330 -0.1828  0.1305
 2004DPPC   PO445734   5.472   4.177  33.002  0.0557 -0.0204  0.0648
 2004DPPC   GL145735   5.902   4.035  32.892  0.0186 -0.1980 -0.2985
 2004DPPC   GL245736   6.174   4.033  33.007  0.3743  0.1171 -0.1345
 2004DPPC   C1A45737   6.079   3.903  32.485 -0.0376  0.1253 -0.3462
 2004DPPC   C2A45738   6.300   3.853  32.089  0.0315 -0.2778  0.0673
 2004DPPC   C3A45739   6.623   3.976  31.944 -0.2444 -0.0185  0.1105
 2004DPPC   C4A45740   6.889   4.244  32.092  0.3200 -0.0171 -0.3132
 2004DPPC   C1B45741   6.586   4.085  32.739 -0.0375  0.0897 -0.1920
 2004DPPC   C2B45742   6.996   4.109  32.585  0.0832 -0.1299  0.0162
 2004DPPC   C3B45743   7.355   4.236  32.457 -0.1698  0.0632 -0.0494
 2004DPPC   C4B45744   7.587   4.323  32.723 -0.2860 -0.0720  0.2906
 2005DPPC   NC345745  17.759  -0.848  20.456 -0.1590  0.3069  0.0291
 2005DPPC   PO445746  18.076  -0.594  20.423  0.0319 -0.2243 -0.0688
 2005DPPC   GL145747  18.241  -0.787  20.116  0.3226  0.1202  0.1573
 2005DPPC   GL245748  17.884  -0.954  19.958  0.3345  0.1168  0.4526
 2005DPPC   C1A45749  18.712  -0.957  19.888  0.0231  0.0286 -0.1278
 2005DPPC   C2A45750  18.795  -1.015  19.548 -0.1620  0.4562 -0.4872
 2005DPPC   C3A45751  18.834  -1.100  19.144  0.1457 -0.4313  0.2691
 2005DPPC   C4A45752  18.527  -0.931  18.873  0.3576  0.0359  0.0649
 2005DPPC   C1B45753  18.103  -1.207  19.811  0.1509 -0.2650 -0.0244
 2005DPPC   C2B45754  18.210  -1.643  19.521 -0.1974 -0.1763  0.2742
 2005DPPC   C3B45755  18.394  -1.709  19.239  0.0095 -0.2231 -0.3137
 2005DPPC   C4B45756  18.476  -1.981  18.953  0.1295 -0.4015  0.2379
 2006DPPC   NC345757  14.051  -6.554  13.927  0.0819  0.1898  0.2037
 2006DPPC   PO445758  14.332  -6.312  13.957 -0.2039  0.0664 -0.1535
 2006DPPC   GL145759  14.536  -6.171  14.365  0.1834  0.0100 -0.5206
 2006DPPC   GL245760  14.327  -5.916  14.484 -0.0224  0.2456 -0.1649
 2006DPPC   C1A45761  14.859  -6.072  14.570 -0.1761 -0.0827 -0.1659
 2006DPPC   C2A45762  14.885  -6.182  14.987 -0.0516 -0.3521  0.1009
 2006DPPC   C3A45763  14.946  -6.283  15.350  0.2144 -0.0437 -0.1197
 2006DPPC   C4A45764  15.009  -6.540  15.594 -0.0411  0.2534  0.0647
 2006DPPC   C1B45765  14.632  -5.606  14.737 -0.0808  0.0663  0.1417
 2006DPPC   C2B45766  14.851  -5.267  14.951  0.0354  0.1027  0.3412
 2006DPPC   C3B45767  15.058  -5.024  15.170  0.2670 -0.2641 -0.1936
 2006DPPC   C4B45768  15.273  -4.631  15.288 -0.2513  0.2958  0.2027
 2007DPPC   NC345769   7.896  -5.315  29.410 -0.3061 -0.0679 -0.0263
 2007DPPC   PO445770   8.308  -5.452  29.520 -0.2299  0.0650  0.1117
 2007DPPC   GL145771   8.206  -4.960  29.509 -0.1108  0.0578  0.2052
 2007DPPC   GL245772   8.423  -4.898  29.739 -0.2413  0.0526 -0.4375
 2007DPPC   C1A45773   8.277  -4.590  29.239 -0.0242  0.3960  0.0855
 2007DPPC   C2A45774   8.259  -4.256  28.958  0.1461  0.0002 -0.0125
 2007DPPC   C3A45775   8.448  -4.016  28.635 -0.3699 -0.0059  0.0695
 2007DPPC   C4A45776   8.678  -3.681  28.556  0.2528  0.0483 -0.1675
 2007DPPC   C1B45777   8.753  -4.569  29.656 -0.0721  0.0072  0.4721
 2007DPPC   C2B45778   8.900  -4.163  29.705 -0.1143 -0.2683  0.2180
 2007DPPC   C3B45779   8.980  -3.647  29.687 -0.1389  0.0120  0.0333
 2007DPPC   C4B45780   8.748  -3.252  29.668 -0.1854 -0.2194  0.2607
 2008DPPC   NC345781  11.644   2.701  36.986 -0.2569  0.3529 -0.0272
 2008DPPC   PO445782  11.376   2.969  36.822  0.1443 -0.1027  0.0505
 2008DPPC   GL145783  11.767   3.033  36.563  0.0707  0.0957  0.3449
 2008DPPC   GL245784  11.519   3.079  36.382  0.1978 -0.0372 -0.0487
 2008DPPC   C1A45785  12.149   3.089  36.476  0.0899  0.0811  0.0637
 2008DPPC   C2A45786  12.565   2.969  36.317 -0.1037  0.1869  0.0104
 2008DPPC   C3A45787  12.876   2.858  36.144 -0.1474  0.0937 -0.2944
 2008DPPC   C4A45788  13.106   3.033  35.830 -0.0857  0.0391 -0.0412
 2008DPPC   C1B45789  11.443   2.930  36.020  0.2287  0.3708  0.3107
 2008DPPC   C2B45790  11.727   2.827  35.672  0.0674 -0.1422 -0.0314
 2008DPPC   C3B45791  11.845   2.689  35.291  0.1199  0.1546 -0.1097
 2008DPPC   C4B45792  12.125   2.453  35.009 -0.1420 -0.5365 -0.2403
 2009DPPC   NC345793   8.076  -5.267  18.677 -0.3140  0.0352  0.1140
 2009DPPC   PO445794   8.439  -4.910  18.588 -0.1320 -0.0098  0.2560
 2009DPPC   GL145795   8.522  -4.734  18.908 -0.0654 -0.1871  0.1432
 2009DPPC   GL245796   8.744  -4.884  19.231 -0.0908  0.3293  0.1173
 2009DPPC   C1A45797   8.995  -4.478  19.058 -0.1695  0.1259 -0.0222
 2009DPPC   C2A45798   9.378  -4.368  19.183 -0.0881 -0.2586 -0.1471
 2009DPPC   C3A45799   9.739  -4.288  19.412  0.0059  0.0476 -0.1424
 2009DPPC   C4A45800  10.016  -4.358  19.686  0.2340 -0.0431  0.2184
 2009DPPC   C1B45801   9.069  -4.910  19.442 -0.1952 -0.1545  0.3917
 2009DPPC   C2B45802   9.445  -4.707  19.742 -0.0109  0.1892 -0.0150
 2009DPPC   C3B45803   9.684  -4.404  20.022 -0.0602 -0.0034  0.0646
 2009DPPC   C4B45804   9.949  -4.176  20.213 -0.0256 -0.0545  0.1398
 2010DPPC   NC345805  13.282  -2.088  13.708  0.1744  0.0583 -0.1644
 2010DPPC   PO445806  13.012  -1.787  13.446  0.4644 -0.1463 -0.0305
 2010DPPC   GL145807  13.243  -1.584  13.789 -0.0185 -0.1661 -0.1832
 2010DPPC   GL245808  13.128  -1.615  14.096  0.0910  0.1582 -0.0697
 2010DPPC   C1A45809  13.491  -1.252  13.893 -0.0272 -0.5182 -0.0985
 2010DPPC   C2A45810  13.633  -1.039  14.280 -0.1454 -0.2434  0.0273
 2010DPPC   C3A45811  13.982  -0.792  14.159 -0.0393 -0.1642 -0.0146
 2010DPPC   C4A45812  14.026  -0.323  14.206  0.0474 -0.1720 -0.0326
 2010DPPC   C1B45813  13.235  -1.365  14.370 -0.1316  0.3426  0.0204
 2010DPPC   C2B45814  13.644  -1.315  14.666  0.0712  0.1977  0.0250
 2010DPPC   C3B45815  13.921  -1.165  14.776 -0.3117 -0.2876  0.0871
 2010DPPC   C4B45816  14.103  -1.078  15.217 -0.2881 -0.0779  0.1046
 2011DPPC   NC345817  14.062   2.676  12.256 -0.0293 -0.1417  0.1133
 2011DPPC   PO445818  14.483   2.644  12.394  0.0611 -0.3246 -0.0902
 2011DPPC   GL145819  14.725   2.603  12.770 -0.0417  0.1843 -0.0202
 2011DPPC   GL245820  14.884   2.841  12.956 -0.2168 -0.3921 -0.2062
 2011DPPC   C1A45821  15.000   2.268  12.906  0.0282  0.0345  0.2296
 2011DPPC   C2A45822  15.410   2.171  13.055 -0.1618  0.1883 -0.0720
 2011DPPC   C3A45823  15.821   2.239  13.238 -0.1856 -0.1448 -0.2163
 2011DPPC   C4A45824  16.103   2.267  13.557  0.2057 -0.1524 -0.4270
 2011DPPC   C1B45825  14.781   2.856  13.416 -0.1764  0.1227  0.2689
 2011DPPC   C2B45826  14.823   2.867  13.810 -0.3159 -0.2295 -0.3268
 2011DPPC   C3B45827  14.687   3.048  14.148 -0.0268 -0.1479  0.2471
 2011DPPC   C4B45828  14.435   3.356  14.251  0.2173  0.1405  0.0227
 2012DPPC   NC345829  11.112   9.671  30.614 -0.0588  0.1140  0.1142
 2012DPPC   PO445830  11.318  10.125  30.506  0.1020  0.1123  0.1633
 2012DPPC   GL145831  11.073  10.434  30.771  0.1389 -0.0860  0.0252
 2012DPPC   GL245832  11.049  10.135  31.038 -0.4650  0.0747  0.3885
 2012DPPC   C1A45833  10.740  10.718  31.023 -0.3676  0.2274 -0.1707
 2012DPPC   C2A45834  10.465  11.163  30.971  0.0251  0.2914  0.4526
 2012DPPC   C3A45835  10.535  11.566  31.061  0.1135 -0.0381  0.4137
 2012DPPC   C4A45836  10.574  12.027  31.335  0.0102 -0.0226  0.0285
 2012DPPC   C1B45837  10.642  10.151  30.993  0.1774 -0.1554 -0.2163
 2012DPPC   C2B45838  10.376  10.124  31.389  0.2256  0.0918  0.1184
 2012DPPC   C3B45839  10.245  10.003  31.760  0.1504  0.2424 -0.0984
 2012DPPC   C4B45840   9.936   9.919  32.017  0.3445  0.0712  0.0797
 2013DPPC   NC345841  20.303  10.565  15.348  0.1711  0.2190 -0.0795
 2013DPPC   PO445842  19.780  10.467  15.455 -0.0669  0.0811 -0.1599
 2013DPPC   GL145843  19.467  10.182  15.579  0.1462 -0.1908 -0.0193
 2013DPPC   GL245844  19.130  10.301  15.745  0.1948  0.1468  0.0864
 2013DPPC   C1A45845  19.204   9.805  15.766  0.0187 -0.2042  0.1731
 2013DPPC   C2A45846  18.775   9.684  15.823 -0.0867  0.1776  0.1509
 2013DPPC   C3A45847  18.567   9.511  16.060 -0.1955  0.0376  0.1067
 2013DPPC   C4A45848  18.558   9.438  16.443 -0.1117 -0.1538 -0.2512
 2013DPPC   C1B45849  18.860  10.101  16.111 -0.3344  0.1095 -0.1116
 2013DPPC   C2B45850  18.631  10.027  16.425  0.0475  0.2623 -0.0836
 2013DPPC   C3B45851  18.471  10.149  16.765  0.3430  0.1902 -0.0713
 2013DPPC   C4B45852  18.377  10.095  17.216  0.1541 -0.3338  0.2232
 2014DPPC   NC345853  21.984  -8.541  14.163  0.2768 -0.4061  0.4431
 2014DPPC   PO445854  22.227  -8.658  14.501 -0.1113 -0.1586  0.0844
 2014DPPC   GL145855  22.200  -8.317  14.815 -0.1239 -0.2379 -0.3118
 2014DPPC   GL245856  21.881  -8.203  14.683  0.1694 -0.3324 -0.2587
 2014DPPC   C1A45857  22.037  -8.115  15.151 -0.2790  0.1573  0.3113
 2014DPPC   C2A45858  21.931  -7.717  15.322  0.0144 -0.3170 -0.1124
 2014DPPC   C3A45859  21.614  -7.544  15.302  0.0068  0.4604 -0.0521
 2014DPPC   C4A45860  21.591  -7.013  15.257 -0.1559 -0.0638  0.1330
 2014DPPC   C1B45861  21.736  -7.755  14.778  0.0801 -0.2046  0.1714
 2014DPPC   C2B45862  21.839  -7.238  14.841  0.2609 -0.1150  0.0051
 2014DPPC   C3B45863  21.629  -6.846  14.710 -0.1651  0.4971 -0.2297
 2014DPPC   C4B45864  21.335  -6.713  14.521  0.0881 -0.1885  0.0141
 2015DPPC   NC345865  23.699  -5.044  27.187  0.0250 -0.0053  0.1647
 2015DPPC   PO445866  23.635  -5.464  26.921 -0.2497 -0.0053  0.2320
 2015DPPC   GL145867  23.463  -5.216  26.670 -0.1584  0.3130 -0.2101
 2015DPPC   GL245868  23.356  -4.913  26.796 -0.1189 -0.3422 -0.2816
 2015DPPC   C1A45869  23.143  -5.002  26.371 -0.3502  0.3698  0.1084
 2015DPPC   C2A45870  22.913  -4.698  26.017  0.1032  0.0389 -0.0324
 2015DPPC   C3A45871  22.477  -4.585  25.961  0.1662 -0.1883  0.3160
 2015DPPC   C4A45872  22.489  -4.431  25.585  0.1800  0.0809  0.3107
 2015DPPC   C1B45873  23.070  -4.568  26.954  0.1370 -0.0952 -0.2094
 2015DPPC   C2B45874  23.127  -4.114  27.104 -0.0948 -0.0919 -0.2442
 2015DPPC   C3B45875  23.058  -3.650  27.129  0.0913  0.1323 -0.0178
 2015DPPC   C4B45876  22.690  -3.379  27.185 -0.1619  0.0132  0.1714
 2016DPPC   NC345877  16.179  12.314  35.813 -0.0427 -0.2689 -0.0186
 2016DPPC   PO445878  16.518  12.068  35.634  0.1783  0.3539 -0.0163
 2016DPPC   GL145879  16.246  11.835  35.365 -0.2579  0.3719  0.0449
 2016DPPC   GL245880  16.190  12.014  35.116  0.3251 -0.2333  0.2193
 2016DPPC   C1A45881  15.981  11.597  35.118 -0.1970 -0.3689  0.1309
 2016DPPC   C2A45882  15.897  11.237  34.884 -0.2232  0.4980 -0.2466
 2016DPPC   C3A45883  15.786  11.029  34.545 -0.1690  0.0682  0.0265
 2016DPPC   C4A45884  15.694  10.798  34.226  0.0888  0.1031  0.0039
 2016DPPC   C1B45885  16.270  11.793  34.711  0.0768  0.0386  0.1126
 2016DPPC   C2B45886  16.278  11.768  34.344  0.0847  0.0798 -0.0396
 2016DPPC   C3B45887  16.552  11.558  34.189  0.0312 -0.0198 -0.5434
 2016DPPC   C4B45888  16.879  11.510  33.779  0.0763 -0.0352 -0.0343
 2017DPPC   NC345889  10.000   7.744  21.137 -0.1403 -0.2192  0.1050
 2017DPPC   PO445890   9.610   7.778  21.356 -0.1640  0.0897  0.4974
 2017DPPC   GL145891   9.258   7.985  21.152 -0.3464  0.2424 -0.0772
 2017DPPC   GL245892   9.009   8.187  21.277  0.2085  0.0375  0.0589
 2017DPPC   C1A45893   9.171   8.182  20.731  0.0170  0.0533 -0.0736
 2017DPPC   C2A45894   8.796   8.477  20.560  0.3167 -0.1373  0.0202
 2017DPPC   C3A45895   8.744   8.846  20.254  0.0837  0.1532 -0.1053
 2017DPPC   C4A45896   8.623   9.348  20.006 -0.1959 -0.0914 -0.3899
 2017DPPC   C1B45897   8.724   8.267  21.010 -0.1350  0.4137 -0.1890
 2017DPPC   C2B45898   8.424   8.549  21.000 -0.2259  0.0941  0.3879
 2017DPPC   C3B45899   8.355   8.772  20.642  0.0608  0.0725  0.1740
 2017DPPC   C4B45900   8.298   9.207  20.759  0.0694  0.3174 -0.3477
 2018DPPC   NC345901  22.586   8.953  28.997  0.1705  0.1226  0.2183
 2018DPPC   PO445902  22.290   9.150  29.015  0.1528  0.0536  0.1618
 2018DPPC   GL145903  22.510   9.456  29.070  0.2278 -0.2969 -0.1540
 2018DPPC   GL245904  22.532   9.501  29.439 -0.0860  0.0386  0.2025
 2018DPPC   C1A45905  22.849   9.636  28.881 -0.2041 -0.1447 -0.3793
 2018DPPC   C2A45906  23.262   9.693  28.982 -0.0307 -0.3377 -0.1028
 2018DPPC   C3A45907  23.545  10.009  29.264 -0.0832 -0.0890  0.1767
 2018DPPC   C4A45908  23.875  10.221  29.224 -0.0330  0.0821 -0.3571
 2018DPPC   C1B45909  22.627   9.717  29.782 -0.0637  0.2247 -0.3054
 2018DPPC   C2B45910  22.519  10.055  30.011  0.0087  0.0569 -0.4382
 2018DPPC   C3B45911  22.280  10.402  30.169 -0.1138  0.4628  0.0525
 2018DPPC   C4B45912  22.146  10.703  30.400 -0.2329  0.0566  0.1578
 2019DPPC   NC345913  19.773   0.339  36.523  0.1095  0.0461  0.1636
 2019DPPC   PO445914  19.371   0.310  36.703  0.1814  0.1449  0.0759
 2019DPPC   GL145915  19.341   0.574  36.286  0.0743  0.0293 -0.0013
 2019DPPC   GL245916  19.389   0.825  36.398 -0.2484 -0.3201  0.2610
 2019DPPC   C1A45917  19.250   0.456  35.921 -0.1796 -0.0444 -0.1977
 2019DPPC   C2A45918  18.844   0.567  35.630  0.1071 -0.1539  0.2090
 2019DPPC   C3A45919  18.839   0.935  35.310  0.3277  0.0442  0.1651
 2019DPPC   C4A45920  18.817   1.233  34.981  0.1469  0.0552  0.2488
 2019DPPC   C1B45921  19.031   1.002  36.488 -0.0402  0.0018  0.0999
 2019DPPC   C2B45922  18.989   1.435  36.376  0.2537  0.2497  0.1751
 2019DPPC   C3B45923  19.277   1.658  36.014 -0.5508  0.4078 -0.3382
 2019DPPC   C4B45924  19.399   1.651  35.641  0.0960 -0.1376  0.0487
 2020DPPC   NC345925  16.155   4.317  16.292  0.2976 -0.1929 -0.2128
 2020DPPC   PO445926  16.348   3.883  16.417  0.0784  0.1755 -0.0211
 2020DPPC   GL145927  16.357   4.040  15.954 -0.1963 -0.1071  0.0613
 2020DPPC   GL245928  16.465   3.849  15.759  0.0623  0.2910  0.1408
 2020DPPC   C1A45929  16.530   4.361  15.806  0.0705  0.5301 -0.0031
 2020DPPC   C2A45930  16.590   4.453  15.430 -0.1200  0.2312 -0.0518
 2020DPPC   C3A45931  16.594   4.466  14.924 -0.1730  0.2799  0.1382
 2020DPPC   C4A45932  16.832   4.539  14.562 -0.3473 -0.0001 -0.0974
 2020DPPC   C1B45933  16.524   3.659  15.311  0.0575 -0.0212 -0.4328
 2020DPPC   C2B45934  16.768   3.633  14.923  0.2552  0.1260 -0.3322
 2020DPPC   C3B45935  16.729   3.410  14.591 -0.1741 -0.2065 -0.2908
 2020DPPC   C4B45936  16.899   3.092  14.184  0.2454 -0.0171 -0.0267
 2021DPPC   NC345937  22.389   0.515  19.752 -0.1868  0.1874  0.1316
 2021DPPC   PO445938  22.056   0.743  19.529  0.0645 -0.1397  0.0277
 2021DPPC   GL145939  22.116   0.424  19.309  0.1844  0.0034 -0.1284
 2021DPPC   GL245940  22.386   0.398  19.180  0.0957 -0.1836 -0.0820
 2021DPPC   C1A45941  21.886   0.186  19.007  0.3260  0.1392 -0.2312
 2021DPPC   C2A45942  22.183   0.060  18.655  0.3257 -0.1014  0.1245
 2021DPPC   C3A45943  22.525  -0.095  18.374 -0.0269 -0.0183 -0.0005
 2021DPPC   C4A45944  22.945   0.047  18.281  0.1668 -0.0752 -0.0844
 2021DPPC   C1B45945  22.067   0.626  18.809  0.2983  0.0481 -0.2370
 2021DPPC   C2B45946  21.900   0.436  18.430 -0.0028 -0.3925 -0.3464
 2021DPPC   C3B45947  22.151   0.370  18.144  0.1415 -0.0199 -0.0875
 2021DPPC   C4B45948  22.520   0.248  17.949 -0.1142 -0.1178 -0.1723
 2022DPPC   NC345949  28.687   0.804  21.970  0.2059  0.0371 -0.1659
 2022DPPC   PO445950  28.658   1.177  22.254  0.1859 -0.0711 -0.5009
 2022DPPC   GL145951  28.354   1.323  21.933 -0.0714  0.0006 -0.2752
 2022DPPC   GL245952  28.364   1.629  21.825  0.0783 -0.0759  0.0898
 2022DPPC   C1A45953  27.921   1.517  21.711 -0.0004  0.1186 -0.0911
 2022DPPC   C2A45954  27.581   1.558  21.729 -0.1011 -0.0202  0.0753
 2022DPPC   C3A45955  27.108   1.614  21.811 -0.0148  0.2263  0.0897
 2022DPPC   C4A45956  26.754   1.764  22.104  0.3220  0.1078  0.1678
 2022DPPC   C1B45957  27.987   1.695  22.146 -0.3288  0.0999  0.1482
 2022DPPC   C2B45958  27.631   1.837  22.190 -0.1199 -0.0522 -0.3567
 2022DPPC   C3B45959  27.289   1.922  22.345  0.2802 -0.0290  0.2933
 2022DPPC   C4B45960  26.851   2.099  22.459  0.3619  0.0360 -0.2264
 2023DPPC   NC345961  10.328   5.196  19.656 -0.0522  0.2936  0.0364
 2023DPPC   PO445962  10.125   5.523  19.368 -0.0318 -0.0879  0.0575
 2023DPPC   GL145963   9.985   5.514  18.954 -0.0762 -0.3828  0.2000
 2023DPPC   GL245964   9.704   5.272  19.049  0.1359  0.1347 -0.1030
 2023DPPC   C1A45965   9.883   5.358  18.515 -0.3661  0.1806 -0.0348
 2023DPPC   C2A45966   9.778   5.540  18.037 -0.1039 -0.0098  0.2717
 2023DPPC   C3A45967  10.011   5.690  17.642  0.1291  0.3068 -0.3289
 2023DPPC   C4A45968  10.144   5.838  17.266 -0.0450 -0.1439 -0.2216
 2023DPPC   C1B45969   9.473   5.503  18.705 -0.0482  0.1148 -0.1156
 2023DPPC   C2B45970   9.276   5.629  18.387  0.2453  0.1116  0.0353
 2023DPPC   C3B45971   9.166   5.792  17.965 -0.2842  0.0122  0.4108
 2023DPPC   C4B45972   9.208   6.375  17.996  0.4062  0.0081  0.0849
 2024DPPC   NC345973  16.899   1.045  11.169 -0.0196  0.2129  0.0135
 2024DPPC   PO445974  16.681   1.191  11.545  0.0424  0.0427 -0.1335
 2024DPPC   GL145975  16.790   1.185  11.965 -0.2774 -0.1317 -0.2066
 2024DPPC   GL245976  16.837   0.891  12.116  0.0476 -0.0898 -0.0058
 2024DPPC   C1A45977  16.850   1.234  12.490  0.1077 -0.3240  0.2766
 2024DPPC   C2A45978  17.065   1.439  12.799 -0.0153 -0.2480  0.5677
 2024DPPC   C3A45979  17.245   1.792  12.832 -0.3330 -0.2063 -0.4690
 2024DPPC   C4A45980  17.408   2.153  13.062 -0.1315  0.0816 -0.3997
 2024DPPC   C1B45981  16.703   0.701  12.456  0.4064  0.0720  0.3671
 2024DPPC   C2B45982  16.855   0.561  12.882  0.0089  0.0587  0.0672
 2024DPPC   C3B45983  16.998   0.652  13.300 -0.3095 -0.2120  0.0695
 2024DPPC   C4B45984  17.174   1.040  13.409  0.1264 -0.1352  0.0573
 2025DPPC   NC345985  24.409  -2.486  11.127  0.1711 -0.1905 -0.0981
 2025DPPC   PO445986  24.652  -2.090  11.059 -0.1501  0.0911 -0.3177
 2025DPPC   GL145987  24.446  -1.982  11.341  0.0196 -0.0435 -0.0389
 2025DPPC   GL245988  24.185  -2.060  11.301 -0.2853  0.0790  0.0314
 2025DPPC   C1A45989  24.387  -2.040  11.801  0.3427  0.1729  0.3564
 2025DPPC   C2A45990  24.382  -2.118  12.267  0.0385  0.0447  0.0482
 2025DPPC   C3A45991  24.026  -1.985  12.617  0.1951  0.3061 -0.0788
 2025DPPC   C4A45992  23.630  -1.861  12.909  0.1014  0.1739  0.0788
 2025DPPC   C1B45993  23.947  -2.379  11.529  0.0564  0.0547  0.1267
 2025DPPC   C2B45994  23.834  -2.672  11.796  0.1850  0.1800 -0.0980
 2025DPPC   C3B45995  23.757  -2.927  12.145  0.1576 -0.0943  0.1934
 2025DPPC   C4B45996  23.781  -3.400  12.243 -0.0574  0.1836  0.0066
 2026DPPC   NC345997  12.811   9.411  19.878  0.2023  0.1973 -0.1373
 2026DPPC   PO445998  13.033   9.247  19.602  0.0363  0.0460  0.1399
 2026DPPC   GL145999  13.149   9.429  19.297 -0.0006  0.1365  0.0888
 2026DPPC   GL246000  13.411   9.709  19.400  0.0685  0.0706  0.3571
 2026DPPC   C1A46001  13.032   9.745  19.016 -0.0872 -0.2283 -0.2235
 2026DPPC   C2A46002  12.752   9.893  18.644 -0.3959 -0.4390  0.0463
 2026DPPC   C3A46003  12.531  10.252  18.321  0.0981 -0.0437 -0.1140
 2026DPPC   C4A46004  12.920  10.598  18.161 -0.1520 -0.1014 -0.1404
 2026DPPC   C1B46005  13.123  10.051  19.389 -0.0768 -0.0594  0.1017
 2026DPPC   C2B46006  13.025  10.295  18.984 -0.1187  0.1834 -0.0592
 2026DPPC   C3B46007  12.876  10.763  18.917 -0.0409 -0.0861  0.2948
 2026DPPC   C4B46008  12.778  11.272  19.048  0.2607  0.2214  0.1636
 2027DPPC   NC346009  13.174   8.092  37.362  0.0444 -0.2210  0.1811
 2027DPPC   PO446010  12.913   7.852  37.126  0.0482 -0.0088 -0.2379
 2027DPPC   GL146011  13.182   7.774  36.822  0.0170 -0.0863  0.1043
 2027DPPC   GL246012  13.381   8.093  36.774  0.1613  0.0790  0.2272
 2027DPPC   C1A46013  13.442   7.686  36.488 -0.1509  0.1671  0.2783
 2027DPPC   C2A46014  13.228   7.809  36.140 -0.3127  0.3796 -0.0281
 2027DPPC   C3A46015  13.191   8.028  35.721  0.0708  0.0200  0.1320
 2027DPPC   C4A46016  13.244   7.802  35.325  0.3629  0.0265 -0.0673
 2027DPPC   C1B46017  13.255   8.266  36.386 -0.1908 -0.1847  0.2677
 2027DPPC   C2B46018  12.877   8.186  36.069  0.1646 -0.2454  0.0152
 2027DPPC   C3B46019  12.606   7.999  35.816  0.0167 -0.1760  0.2018
 2027DPPC   C4B46020  12.083   7.956  35.749 -0.0833 -0.4475  0.2226
 2028DPPC   NC346021  11.212  10.574  30.308  0.1210 -0.1839 -0.1950
 2028DPPC   PO446022  11.571  10.565  30.524 -0.0953  0.1739 -0.0513
 2028DPPC   GL146023  11.805  10.826  30.817  0.0687 -0.1181 -0.0231
 2028DPPC   GL246024  12.061  10.685  30.778 -0.1458 -0.0742  0.1369
 2028DPPC   C1A46025  11.686  11.258  31.024  0.0863  0.3955 -0.0811
 2028DPPC   C2A46026  11.452  11.584  31.281 -0.0803 -0.2015 -0.0719
 2028DPPC   C3A46027  11.446  11.980  31.147 -0.1538  0.1937  0.1298
 2028DPPC   C4A46028  11.345  12.123  30.682  0.3096  0.0693  0.1918
 2028DPPC   C1B46029  12.015  10.750  31.245  0.0800 -0.0436  0.1965
 2028DPPC   C2B46030  11.990  11.054  31.662  0.1099  0.0981 -0.1931
 2028DPPC   C3B46031  11.879  11.319  31.956  0.1483 -0.3677  0.3969
 2028DPPC   C4B46032  11.453  11.431  32.145  0.0602  0.2607 -0.1986
 2029DPPC   NC346033  23.748   2.428  30.075  0.2999  0.2084  0.0862
 2029DPPC   PO446034  23.505   2.690  30.304  0.0483 -0.2573 -0.4529
 2029DPPC   GL146035  23.658   2.807  30.718 -0.0463 -0.0496  0.0536
 2029DPPC   GL246036  23.463   2.870  30.989 -0.1532  0.2014  0.4849
 2029DPPC   C1A46037  23.903   2.604  31.037  0.0514 -0.0840  0.0571
 2029DPPC   C2A46038  23.770   2.251  31.125 -0.0567  0.0233  0.2955
 2029DPPC   C3A46039  23.673   1.995  31.511  0.0157  0.3705 -0.2237
 2029DPPC   C4A46040  23.810   1.922  31.916 -0.2929  0.0012 -0.2810
 2029DPPC   C1B46041  23.593   3.066  31.368  0.0279  0.1913 -0.0888
 2029DPPC   C2B46042  23.926   3.033  31.650  0.0134  0.0223  0.0381
 2029DPPC   C3B46043  24.341   3.304  31.633 -0.0135 -0.0198  0.2415
 2029DPPC   C4B46044  24.715   3.168  31.504  0.2215 -0.2898  0.1653
 2030DPPC   NC346045  15.644  -0.322  17.700  0.0942 -0.0626 -0.0772
 2030DPPC   PO446046  15.798  -0.537  17.974 -0.2983  0.0870 -0.0490
 2030DPPC   GL146047  16.163  -0.771  17.893  0.0224  0.0620 -0.1222
 2030DPPC   GL246048  16.080  -0.865  17.597  0.1889 -0.0586 -0.1829
 2030DPPC   C1A46049  16.628  -0.911  17.676 -0.0781  0.0168  0.1568
 2030DPPC   C2A46050  16.682  -0.844  17.216 -0.2288  0.1630 -0.0100
 2030DPPC   C3A46051  16.938  -0.702  16.928  0.0109 -0.3138  0.1853
 2030DPPC   C4A46052  16.927  -0.597  16.515  0.0152 -0.0450 -0.2058
 2030DPPC   C1B46053  16.290  -1.269  17.652  0.4933  0.0038  0.0623
 2030DPPC   C2B46054  16.651  -1.412  17.795  0.0911 -0.1006  0.0853
 2030DPPC   C3B46055  17.132  -1.550  17.655 -0.0883 -0.0579 -0.2711
 2030DPPC   C4B46056  17.285  -1.916  17.839 -0.1402 -0.3697  0.0312
 2031DPPC   NC346057   8.032  11.274  19.288  0.2687 -0.0207 -0.1193
 2031DPPC   PO446058   7.927  11.635  19.457  0.1270 -0.2837 -0.4480
 2031DPPC   GL146059   8.289  11.409  19.737  0.2057  0.2014  0.0211
 2031DPPC   GL246060   8.400  11.107  19.615  0.4325  0.2598  0.5156
 2031DPPC   C1A46061   8.505  11.190  20.095 -0.1048  0.0912  0.1356
 2031DPPC   C2A46062   8.754  10.795  20.230  0.1129 -0.1043  0.3089
 2031DPPC   C3A46063   8.902  10.566  20.582  0.2118  0.2026  0.0387
 2031DPPC   C4A46064   8.919  10.277  20.965  0.0092  0.1510  0.0030
 2031DPPC   C1B46065   8.785  10.858  19.621  0.1038 -0.0407 -0.0619
 2031DPPC   C2B46066   9.130  10.778  19.913  0.3031  0.1593 -0.1318
 2031DPPC   C3B46067   9.454  10.439  20.190  0.0676  0.2457 -0.1965
 2031DPPC   C4B46068   9.790  10.522  20.427 -0.2045 -0.0792 -0.1926
 2032DPPC   NC346069  19.906  12.325  34.832  0.0528 -0.1239  0.2692
 2032DPPC   PO446070  19.561  12.402  34.596  0.0939  0.1021  0.3026
 2032DPPC   GL146071  19.259  12.205  34.326  0.0682  0.2732 -0.0852
 2032DPPC   GL246072  19.107  11.879  34.428 -0.1609  0.1022  0.2957
 2032DPPC   C1A46073  19.263  11.941  33.922 -0.1680  0.2481 -0.0499
 2032DPPC   C2A46074  19.353  11.528  33.730  0.0275  0.0039  0.0029
 2032DPPC   C3A46075  19.679  11.427  33.414 -0.0464 -0.1088  0.0291
 2032DPPC   C4A46076  19.767  11.756  33.052  0.0593 -0.3718 -0.0328
 2032DPPC   C1B46077  18.998  11.435  34.379  0.3214 -0.2552 -0.1525
 2032DPPC   C2B46078  18.839  11.072  34.307  0.2973  0.4099  0.2722
 2032DPPC   C3B46079  18.975  10.657  34.057 -0.3668  0.1358 -0.4445
 2032DPPC   C4B46080  18.895  10.280  33.752  0.2306 -0.0986 -0.4143
 2033DPPC   NC346081   7.104  12.418  31.521 -0.1709 -0.2387  0.2617
 2033DPPC   PO446082   6.897  12.270  31.222 -0.1322  0.3391  0.2074
 2033DPPC   GL146083   7.197  11.989  30.993  0.3966 -0.3696  0.0589
 2033DPPC   GL246084   7.457  12.033  30.798 -0.2263  0.2169 -0.1709
 2033DPPC   C1A46085   7.518  11.674  31.156  0.0580  0.1697  0.2788
 2033DPPC   C2A46086   7.973  11.541  31.017  0.0162 -0.1589 -0.1949
 2033DPPC   C3A46087   8.376  11.402  30.850  0.2755 -0.0577  0.2009
 2033DPPC   C4A46088   8.701  11.501  31.070 -0.1380 -0.0932 -0.1555
 2033DPPC   C1B46089   7.677  11.680  30.673  0.1294  0.0054  0.1981
 2033DPPC   C2B46090   7.855  11.344  30.574 -0.0705 -0.1131  0.3856
 2033DPPC   C3B46091   8.267  11.231  30.368  0.3251  0.0463  0.0949
 2033DPPC   C4B46092   8.645  11.124  30.374  0.1929 -0.1258  0.0531
 2034DPPC   NC346093  15.531   5.358  33.523  0.0722 -0.1049 -0.0846
 2034DPPC   PO446094  15.582   5.170  33.852 -0.2679  0.2562 -0.0596
 2034DPPC   GL146095  15.658   5.181  34.212  0.2320  0.2757  0.1246
 2034DPPC   GL246096  15.551   5.526  34.403 -0.3758 -0.2852  0.2423
 2034DPPC   C1A46097  15.751   5.073  34.560 -0.2440 -0.2031  0.3037
 2034DPPC   C2A46098  15.821   5.108  34.969  0.1649  0.1292 -0.0541
 2034DPPC   C3A46099  16.094   5.296  35.242  0.0515 -0.0608  0.1205
 2034DPPC   C4A46100  16.227   5.515  35.467  0.1496 -0.0547 -0.2867
 2034DPPC   C1B46101  15.460   5.826  34.778  0.0656 -0.0867  0.0331
 2034DPPC   C2B46102  15.416   5.985  35.254  0.1536  0.1405  0.0282
 2034DPPC   C3B46103  15.136   6.219  35.598  0.0096 -0.0606 -0.1137
 2034DPPC   C4B46104  14.681   6.263  35.718  0.2296  0.1433  0.1508
 2035DPPC   NC346105  15.369  -4.045  21.195  0.1025  0.0438  0.0143
 2035DPPC   PO446106  15.287  -4.435  21.111 -0.0505  0.2545 -0.0014
 2035DPPC   GL146107  15.174  -4.909  21.130 -0.1705  0.1921 -0.1718
 2035DPPC   GL246108  14.847  -4.943  20.926 -0.1338  0.0184  0.2802
 2035DPPC   C1A46109  14.974  -5.339  21.236  0.0608  0.0947  0.0293
 2035DPPC   C2A46110  14.859  -5.734  21.336 -0.0711  0.1704 -0.0230
 2035DPPC   C3A46111  14.675  -6.135  21.438  0.0744  0.2445 -0.4997
 2035DPPC   C4A46112  14.444  -6.488  21.364  0.0544  0.0208 -0.2365
 2035DPPC   C1B46113  14.535  -5.309  20.991 -0.0360  0.0466 -0.3557
 2035DPPC   C2B46114  14.576  -5.731  20.904  0.0656  0.3283 -0.0222
 2035DPPC   C3B46115  14.951  -5.827  20.804  0.0467  0.2512  0.0531
 2035DPPC   C4B46116  15.377  -5.577  20.676  0.1656 -0.1604  0.4428
 2036DPPC   NC346117  11.893  -1.063  18.310 -0.0650 -0.0542  0.1291
 2036DPPC   PO446118  11.736  -1.026  18.684  0.0463  0.1394 -0.0545
 2036DPPC   GL146119  11.512  -1.348  18.517  0.1589 -0.1983  0.3185
 2036DPPC   GL246120  11.269  -1.476  18.625  0.0154 -0.1087  0.1665
 2036DPPC   C1A46121  11.381  -1.479  18.054 -0.0448 -0.0903 -0.2054
 2036DPPC   C2A46122  11.117  -1.451  17.758  0.0026  0.1651 -0.0180
 2036DPPC   C3A46123  10.946  -1.648  17.407  0.2822  0.1494  0.0143
 2036DPPC   C4A46124  10.589  -1.630  17.185  0.1293 -0.2445 -0.0291
 2036DPPC   C1B46125  10.939  -1.621  18.343 -0.1734 -0.0609 -0.2260
 2036DPPC   C2B46126  10.548  -1.658  18.252  0.1298 -0.1771 -0.1327
 2036DPPC   C3B46127  10.239  -1.491  18.017 -0.0119 -0.3255  0.1303
 2036DPPC   C4B46128   9.939  -1.575  17.741 -0.2309  0.3604  0.2991
 2037DPPC   NC346129   9.144   2.328  36.269 -0.2628  0.2508 -0.1172
 2037DPPC   PO446130   9.006   2.624  35.846  0.0729 -0.1266  0.1569
 2037DPPC   GL146131   9.153   2.654  35.536  0.0896  0.4068 -0.1804
 2037DPPC   GL246132   9.179   2.874  35.178 -0.0333  0.0354 -0.0380
 2037DPPC   C1A46133   9.556   2.545  35.497 -0.1014 -0.1195  0.0540
 2037DPPC   C2A46134  10.022   2.610  35.359 -0.1319 -0.4126 -0.1383
 2037DPPC   C3A46135  10.256   2.870  35.120 -0.2211 -0.2305  0.1690
 2037DPPC   C4A46136  10.029   2.943  34.691 -0.2349 -0.2058 -0.0015
 2037DPPC   C1B46137   9.229   2.674  34.769  0.1519 -0.1640  0.1653
 2037DPPC   C2B46138   9.253   2.931  34.299  0.1350  0.1031 -0.1417
 2037DPPC   C3B46139   9.366   3.111  34.020  0.1399  0.0068 -0.4417
 2037DPPC   C4B46140   9.765   3.241  33.827  0.4927 -0.3270 -0.1711
 2038DPPC   NC346141  17.390  10.517  13.672 -0.2275 -0.1931 -0.0225
 2038DPPC   PO446142  17.524  10.141  13.907  0.0470  0.0914 -0.1336
 2038DPPC   GL146143  17.308   9.919  14.297 -0.0923  0.0281  0.0735
 2038DPPC   GL246144  17.481  10.046  14.486 -0.1048 -0.0877 -0.2170
 2038DPPC   C1A46145  16.903   9.773  14.463  0.0122  0.0283  0.2415
 2038DPPC   C2A46146  16.855   9.440  14.532 -0.0236 -0.1432  0.0627
 2038DPPC   C3A46147  16.859   9.035  14.657  0.1393 -0.2338 -0.4820
 2038DPPC   C4A46148  17.038   8.829  15.029 -0.2578 -0.1463 -0.2026
 2038DPPC   C1B46149  17.749   9.800  14.683 -0.0072 -0.1314  0.0325
 2038DPPC   C2B46150  18.136   9.625  14.846  0.1436  0.0378  0.3097
 2038DPPC   C3B46151  18.549   9.739  14.900 -0.4348 -0.2434 -0.0237
 2038DPPC   C4B46152  18.893   9.577  14.762 -0.1961 -0.1659  0.0743
 2039DPPC   NC346153  23.337   1.876  20.209 -0.1136  0.1679  0.0111
 2039DPPC   PO446154  23.401   2.173  19.914  0.0453  0.1264 -0.3068
 2039DPPC   GL146155  23.774   2.168  20.119  0.0212 -0.1749 -0.1721
 2039DPPC   GL246156  23.829   1.835  20.315 -0.0105 -0.2975  0.1478
 2039DPPC   C1A46157  24.052   2.330  19.944  0.1696 -0.0653 -0.0387
 2039DPPC   C2A46158  24.456   2.213  19.842 -0.2374  0.2580  0.1812
 2039DPPC   C3A46159  24.767   2.041  19.675 -0.1434 -0.1194 -0.0122
 2039DPPC   C4A46160  24.975   1.703  19.485  0.1146 -0.1432 -0.1087
 2039DPPC   C1B46161  24.256   1.792  20.091  0.1662 -0.2822 -0.3797
 2039DPPC   C2B46162  24.548   1.650  19.779 -0.2768 -0.2043  0.2491
 2039DPPC   C3B46163  24.866   1.378  19.876 -0.2345  0.0233 -0.1814
 2039DPPC   C4B46164  25.194   1.005  19.807  0.2011 -0.2772 -0.2596
 2040DPPC   NC346165  24.261  -4.782  27.943  0.1057  0.0086 -0.2014
 2040DPPC   PO446166  24.168  -4.984  27.592  0.3034 -0.1098  0.0172
 2040DPPC   GL146167  24.134  -4.651  27.169  0.0565 -0.1113  0.1348
 2040DPPC   GL246168  23.799  -4.575  27.214 -0.0030 -0.0244 -0.1108
 2040DPPC   C1A46169  24.206  -4.219  27.048 -0.0897  0.2723 -0.3592
 2040DPPC   C2A46170  24.105  -3.754  26.991 -0.1430  0.2471 -0.1659
 2040DPPC   C3A46171  23.668  -3.690  27.256 -0.1615 -0.0576  0.1495
 2040DPPC   C4A46172  23.453  -3.461  27.511 -0.0501  0.0930  0.1581
 2040DPPC   C1B46173  23.554  -4.177  27.427 -0.2292 -0.0824  0.4114
 2040DPPC   C2B46174  23.177  -3.910  27.527 -0.0893  0.0365 -0.5466
 2040DPPC   C3B46175  22.715  -3.965  27.418 -0.3582 -0.0084 -0.2436
 2040DPPC   C4B46176  22.430  -3.869  27.142  0.0428 -0.1665 -0.0076
 2041DPPC   NC346177   9.631  -1.461  27.403 -0.0674  0.2086  0.3844
 2041DPPC   PO446178   9.847  -1.835  27.552  0.1958 -0.0722  0.0406
 2041DPPC   GL146179   9.666  -2.221  27.429  0.1799  0.2070  0.2348
 2041DPPC   GL246180   9.296  -2.154  27.512 -0.0926  0.0284  0.0033
 2041DPPC   C1A46181   9.476  -2.591  27.685 -0.2222  0.2681 -0.3163
 2041DPPC   C2A46182   9.135  -2.856  27.958 -0.1318  0.0707  0.2813
 2041DPPC   C3A46183   8.943  -3.115  28.267  0.1788  0.3695 -0.1125
 2041DPPC   C4A46184   9.235  -3.406  28.558 -0.0103  0.3744 -0.2783
 2041DPPC   C1B46185   8.974  -2.435  27.734  0.2412  0.1617  0.1681
 2041DPPC   C2B46186   8.722  -2.768  27.720  0.4007 -0.4110  0.2090
 2041DPPC   C3B46187   8.680  -3.119  27.682 -0.1747  0.1507  0.3617
 2041DPPC   C4B46188   8.467  -3.292  27.249  0.1153 -0.0201  0.2997
 2042DPPC   NC346189  28.685   5.473  28.828  0.2004  0.2327 -0.2760
 2042DPPC   PO446190  28.869   5.882  28.606  0.0567 -0.0159  0.0904
 2042DPPC   GL146191  28.316   5.770  28.504 -0.1950 -0.2822 -0.1985
 2042DPPC   GL246192  28.098   5.622  28.725 -0.1688 -0.4030 -0.4203
 2042DPPC   C1A46193  27.932   5.761  28.211  0.1596 -0.1113 -0.0740
 2042DPPC   C2A46194  27.631   5.513  28.074  0.1175  0.1976  0.0717
 2042DPPC   C3A46195  27.207   5.513  27.942 -0.1665  0.0327  0.0807
 2042DPPC   C4A46196  26.936   5.818  28.138 -0.0018 -0.2068 -0.2120
 2042DPPC   C1B46197  28.105   5.177  28.783 -0.1991 -0.0557 -0.0343
 2042DPPC   C2B46198  28.425   4.864  28.630  0.0261  0.2925  0.3019
 2042DPPC   C3B46199  28.155   4.507  28.491 -0.0657 -0.0187  0.0190
 2042DPPC   C4B46200  27.793   4.519  28.289 -0.1760 -0.1568 -0.1072
 2043DPPC   NC346201  19.594 -10.207  15.829 -0.1543  0.1658  0.2028
 2043DPPC   PO446202  19.296 -10.030  15.489  0.0233  0.0608  0.2606
 2043DPPC   GL146203  19.353  -9.440  15.515  0.0596 -0.3675  0.0073
 2043DPPC   GL246204  19.082  -9.221  15.377 -0.0880  0.2729 -0.2713
 2043DPPC   C1A46205  19.470  -9.032  15.791 -0.0505 -0.1860  0.0955
 2043DPPC   C2A46206  19.436  -8.510  15.754 -0.2365  0.1196 -0.0329
 2043DPPC   C3A46207  19.574  -8.163  16.024  0.2471  0.1594 -0.0955
 2043DPPC   C4A46208  19.609  -7.842  16.471 -0.1489  0.2290  0.2532
 2043DPPC   C1B46209  18.981  -8.711  15.364 -0.2233 -0.0648  0.0079
 2043DPPC   C2B46210  19.063  -8.338  15.465  0.0069  0.0131  0.0775
 2043DPPC   C3B46211  19.041  -7.908  15.548  0.0445 -0.0926 -0.1431
 2043DPPC   C4B46212  19.056  -7.502  15.681  0.3279 -0.3959  0.1829
 2044DPPC   NC346213  16.128  -1.826  11.157  0.1624  0.0852  0.0473
 2044DPPC   PO446214  16.252  -2.304  10.994 -0.0031 -0.0016  0.3481
 2044DPPC   GL146215  16.605  -2.551  11.311  0.1598 -0.2933 -0.2250
 2044DPPC   GL246216  16.612  -2.561  11.642  0.1975  0.3647  0.1915
 2044DPPC   C1A46217  17.088  -2.509  11.525  0.1638  0.0501  0.3598
 2044DPPC   C2A46218  17.221  -2.552  11.815 -0.1868  0.1895  0.3357
 2044DPPC   C3A46219  17.249  -2.374  12.166 -0.0176 -0.0233 -0.4264
 2044DPPC   C4A46220  17.476  -2.436  12.527  0.2292 -0.1156 -0.0560
 2044DPPC   C1B46221  16.236  -2.782  11.914 -0.0914 -0.0860  0.0756
 2044DPPC   C2B46222  16.184  -2.772  12.359 -0.1001 -0.0412 -0.1738
 2044DPPC   C3B46223  16.430  -2.831  12.703 -0.0038  0.1651  0.1763
 2044DPPC   C4B46224  16.816  -3.023  12.716  0.3037  0.1606  0.3476
 2045DPPC   NC346225   4.004  -0.689  28.115 -0.0759  0.0901 -0.1173
 2045DPPC   PO446226   3.835  -0.269  28.164 -0.1027  0.1754  0.1761
 2045DPPC   GL146227   4.117  -0.128  27.891  0.1693 -0.2107  0.0802
 2045DPPC   GL246228   4.359  -0.361  27.958  0.1434 -0.3134  0.3104
 2045DPPC   C1A46229   4.468   0.291  27.725 -0.3401  0.1813 -0.0636
 2045DPPC   C2A46230   4.737   0.411  27.406  0.1548  0.2641  0.0113
 2045DPPC   C3A46231   4.992   0.298  27.158 -0.3047  0.0689 -0.0487
 2045DPPC   C4A46232   5.312  -0.073  26.849  0.2433  0.2799 -0.0315
 2045DPPC   C1B46233   4.639  -0.167  28.036  0.6260 -0.1808 -0.2143
 2045DPPC   C2B46234   4.519   0.189  28.237  0.1996  0.2832  0.0118
 2045DPPC   C3B46235   4.631   0.570  28.367  0.6456 -0.0282 -0.2097
 2045DPPC   C4B46236   4.593   0.606  28.793 -0.4097  0.2976 -0.1570
 2046DPPC   NC346237  18.372  -1.280  20.923  0.4082 -0.0294 -0.1356
 2046DPPC   PO446238  18.232  -1.025  20.533  0.0340 -0.2159  0.0303
 2046DPPC   GL146239  18.562  -1.267  20.362 -0.2131  0.3717 -0.0501
 2046DPPC   GL246240  18.924  -1.106  20.305  0.0218  0.0339 -0.1859
 2046DPPC   C1A46241  18.679  -1.420  19.979  0.3230  0.0349  0.1077
 2046DPPC   C2A46242  18.905  -1.483  19.587  0.1544  0.0657  0.2595
 2046DPPC   C3A46243  18.858  -1.598  19.164  0.1068 -0.2466  0.1196
 2046DPPC   C4A46244  18.563  -1.477  18.864 -0.0728 -0.1386 -0.0025
 2046DPPC   C1B46245  19.151  -1.159  19.930 -0.1963  0.2572  0.0425
 2046DPPC   C2B46246  19.418  -1.346  19.616  0.1456 -0.2167 -0.0702
 2046DPPC   C3B46247  19.751  -1.374  19.272  0.2507  0.0829 -0.0353
 2046DPPC   C4B46248  20.097  -1.187  19.079  0.0454  0.1707 -0.0881
 2047DPPC   NC346249  27.121   4.315  18.203  0.1449 -0.3650 -0.0015
 2047DPPC   PO446250  27.004   4.041  18.447  0.1771 -0.1453  0.0897
 2047DPPC   GL146251  26.591   3.928  18.713 -0.2038  0.0059  0.0002
 2047DPPC   GL246252  26.363   4.052  18.518 -0.1175 -0.0358  0.2297
 2047DPPC   C1A46253  26.306   3.873  19.017 -0.0335 -0.0903 -0.3124
 2047DPPC   C2A46254  25.932   3.831  18.862 -0.2096 -0.0643  0.4030
 2047DPPC   C3A46255  25.523   4.047  19.057 -0.0850 -0.0288  0.0333
 2047DPPC   C4A46256  25.163   4.275  19.147  0.1746  0.0440 -0.0459
 2047DPPC   C1B46257  25.860   4.081  18.478  0.2684 -0.0395 -0.1035
 2047DPPC   C2B46258  25.556   4.006  18.197  0.0232  0.1178  0.3051
 2047DPPC   C3B46259  25.249   4.214  18.068 -0.0233  0.1770  0.5441
 2047DPPC   C4B46260  24.865   4.413  18.098  0.0331 -0.0495  0.0065
 2048DPPC   NC346261   3.614   7.107  30.205 -0.1712  0.1233  0.2691
 2048DPPC   PO446262   4.023   7.045  30.431  0.0899  0.1525  0.1373
 2048DPPC   GL146263   4.464   7.020  30.234  0.3339 -0.1300  0.1236
 2048DPPC   GL246264   4.514   6.726  30.024  0.2163 -0.2604  0.1316
 2048DPPC   C1A46265   4.911   7.126  30.280 -0.0544 -0.1784 -0.2122
 2048DPPC   C2A46266   5.333   7.145  30.117  0.3706 -0.1935 -0.1174
 2048DPPC   C3A46267   5.764   7.266  30.014 -0.7400  0.1743 -0.3661
 2048DPPC   C4A46268   6.201   7.289  29.897 -0.1006 -0.0128 -0.3793
 2048DPPC   C1B46269   4.813   6.522  29.696  0.2323  0.3951 -0.4334
 2048DPPC   C2B46270   5.174   6.305  29.702 -0.2110  0.0693 -0.0298
 2048DPPC   C3B46271   5.543   6.233  29.927 -0.0883 -0.1138  0.1972
 2048DPPC   C4B46272   5.979   6.418  30.100 -0.0088 -0.2391 -0.5450
 2049DPPC   NC346273  28.482   1.157  29.640 -0.1011 -0.0224 -0.0989
 2049DPPC   PO446274  27.983   1.137  29.729 -0.0646 -0.1785  0.0964
 2049DPPC   GL146275  27.777   1.497  29.560  0.1816 -0.0648 -0.0977
 2049DPPC   GL246276  27.762   1.635  29.216  0.2034 -0.0541 -0.2340
 2049DPPC   C1A46277  27.315   1.616  29.586 -0.3421 -0.2616  0.1482
 2049DPPC   C2A46278  27.044   1.862  29.766  0.1797  0.1728  0.2124
 2049DPPC   C3A46279  26.622   2.227  29.778  0.1162  0.0676 -0.0784
 2049DPPC   C4A46280  26.324   2.600  29.653 -0.0081 -0.0795  0.0252
 2049DPPC   C1B46281  27.440   1.864  29.137 -0.0744 -0.0481 -0.1048
 2049DPPC   C2B46282  27.209   1.852  28.752 -0.2118 -0.2393  0.1801
 2049DPPC   C3B46283  27.102   1.894  28.345 -0.2903  0.2095 -0.6234
 2049DPPC   C4B46284  26.724   2.122  28.281 -0.0589  0.3375 -0.0630
 2050DPPC   NC346285  23.058  -0.717  23.892  0.0594  0.0260  0.4816
 2050DPPC   PO446286  23.324  -0.492  23.531  0.0435 -0.0559 -0.3292
 2050DPPC   GL146287  23.609  -0.781  23.577 -0.0047  0.0578  0.2824
 2050DPPC   GL246288  23.797  -0.810  23.311 -0.0621 -0.1762 -0.1160
 2050DPPC   C1A46289  23.586  -1.274  23.461 -0.1152 -0.1206 -0.0873
 2050DPPC   C2A46290  23.925  -1.554  23.538 -0.3109  0.1739 -0.2510
 2050DPPC   C3A46291  24.382  -1.516  23.336 -0.3499  0.2714  0.3861
 2050DPPC   C4A46292  24.760  -1.382  23.397  0.1513 -0.0724  0.0435
 2050DPPC   C1B46293  24.028  -1.168  23.021  0.1776 -0.1898  0.1876
 2050DPPC   C2B46294  24.454  -1.301  22.839  0.1103  0.4880  0.2573
 2050DPPC   C3B46295  24.809  -1.608  22.930  0.2487  0.3003  0.0621
 2050DPPC   C4B46296  24.912  -1.885  23.249 -0.1038  0.1865  0.3785
 2051DPPC   NC346297   3.580   4.095  29.876  0.4631  0.0819 -0.0982
 2051DPPC   PO446298   3.441   4.201  29.396 -0.2210  0.2736  0.0614
 2051DPPC   GL146299   3.931   4.104  29.465  0.3939  0.1205 -0.0282
 2051DPPC   GL246300   4.046   3.849  29.223  0.0241  0.0885 -0.3811
 2051DPPC   C1A46301   4.360   4.257  29.766  0.3074  0.1685  0.1833
 2051DPPC   C2A46302   4.727   4.149  29.832  0.0880 -0.3374  0.0065
 2051DPPC   C3A46303   5.105   4.340  29.611  0.2661 -0.2761 -0.2498
 2051DPPC   C4A46304   5.537   4.544  29.575  0.0537 -0.0677 -0.2866
 2051DPPC   C1B46305   4.467   3.955  29.355  0.4699  0.0697 -0.3690
 2051DPPC   C2B46306   4.932   3.854  29.435 -0.2808 -0.0595 -0.0736
 2051DPPC   C3B46307   5.430   3.886  29.519  0.2352  0.2395  0.1835
 2051DPPC   C4B46308   5.669   3.750  29.292 -0.0542  0.0988 -0.1380
 2052DPPC   NC346309  26.565  -4.195  13.954  0.0867  0.2414  0.0422
 2052DPPC   PO446310  26.607  -4.378  14.359  0.2208  0.1015  0.0278
 2052DPPC   GL146311  26.256  -4.091  14.320 -0.1342  0.0287  0.2591
 2052DPPC   GL246312  26.128  -3.748  14.461 -0.3901  0.3677 -0.0244
 2052DPPC   C1A46313  25.811  -4.305  14.227  0.0787 -0.1096  0.0675
 2052DPPC   C2A46314  25.633  -4.716  14.153 -0.0072  0.0473  0.2467
 2052DPPC   C3A46315  25.550  -5.125  14.411 -0.3440  0.0534  0.0050
 2052DPPC   C4A46316  25.390  -5.371  14.682 -0.2544  0.1445  0.0577
 2052DPPC   C1B46317  25.861  -3.525  14.682 -0.1393  0.0754 -0.1200
 2052DPPC   C2B46318  25.968  -3.138  14.920 -0.3631  0.0247 -0.0248
 2052DPPC   C3B46319  25.790  -2.788  15.090  0.2463  0.2350  0.2492
 2052DPPC   C4B46320  25.398  -2.602  15.212 -0.0478 -0.0884 -0.2752
 2053DPPC   NC346321  25.247  -7.072  15.974 -0.4280  0.1128  0.1973
 2053DPPC   PO446322  24.816  -7.072  15.721  0.0147  0.0124 -0.3558
 2053DPPC   GL146323  24.705  -6.628  15.728 -0.1604 -0.0033 -0.2970
 2053DPPC   GL246324  24.879  -6.225  15.770 -0.0381  0.1224  0.3292
 2053DPPC   C1A46325  24.337  -6.335  15.515 -0.1277 -0.2743  0.4107
 2053DPPC   C2A46326  24.007  -6.199  15.801  0.0210 -0.1707 -0.0051
 2053DPPC   C3A46327  23.795  -6.453  16.073 -0.2906 -0.1016 -0.1561
 2053DPPC   C4A46328  23.643  -6.442  16.430 -0.0787 -0.1877 -0.1100
 2053DPPC   C1B46329  24.579  -6.059  15.922  0.0493  0.1430  0.2288
 2053DPPC   C2B46330  24.462  -5.751  16.273 -0.1992 -0.0108  0.3885
 2053DPPC   C3B46331  24.291  -5.468  16.528  0.4467  0.2433  0.1009
 2053DPPC   C4B46332  23.938  -5.143  16.707 -0.3180 -0.0063  0.1279
 2054DPPC   NC346333   8.782   6.617  21.346 -0.0627 -0.2048  0.2380
 2054DPPC   PO446334   8.999   7.069  21.377  0.1616  0.0233  0.2106
 2054DPPC   GL146335   8.781   6.966  21.002  0.0380 -0.1078  0.1520
 2054DPPC   GL246336   8.932   6.810  20.688  0.1266  0.0796  0.0779
 2054DPPC   C1A46337   8.519   7.226  20.790  0.0325 -0.1605  0.1660
 2054DPPC   C2A46338   8.121   7.393  20.827  0.1539 -0.1129 -0.1870
 2054DPPC   C3A46339   7.719   7.450  20.959 -0.0436 -0.0950 -0.0250
 2054DPPC   C4A46340   7.361   7.482  20.879 -0.0791  0.1265  0.3440
 2054DPPC   C1B46341   8.882   7.170  20.479  0.1176 -0.0980 -0.1413
 2054DPPC   C2B46342   8.635   7.543  20.396 -0.0587  0.0740  0.0549
 2054DPPC   C3B46343   8.286   7.525  20.192  0.2981 -0.1048 -0.2739
 2054DPPC   C4B46344   8.154   7.934  20.119  0.2093  0.0126  0.1820
 2055DPPC   NC346345   8.642   7.856  35.243 -0.1182  0.1044 -0.0859
 2055DPPC   PO446346   8.452   7.541  34.992  0.1001  0.2076  0.0942
 2055DPPC   GL146347   8.238   7.399  34.613 -0.0725  0.2570  0.2539
 2055DPPC   GL246348   8.534   7.659  34.499 -0.0483  0.1410  0.0179
 2055DPPC   C1A46349   8.384   7.262  34.146 -0.0337 -0.0634 -0.1918
 2055DPPC   C2A46350   8.716   7.202  33.804  0.3236  0.4409 -0.3684
 2055DPPC   C3A46351   8.713   6.887  33.425 -0.1657 -0.0365 -0.2774
 2055DPPC   C4A46352   8.797   6.669  33.065  0.2145 -0.0945 -0.0844
 2055DPPC   C1B46353   8.655   7.671  34.056  0.0253 -0.0994 -0.1700
 2055DPPC   C2B46354   8.535   7.822  33.667 -0.1562 -0.4481  0.1233
 2055DPPC   C3B46355   8.560   8.306  33.450 -0.1114 -0.2866  0.0268
 2055DPPC   C4B46356   8.175   8.543  33.279 -0.0907 -0.0051  0.1587
 2056DPPC   NC346357  21.444  15.070  26.692 -0.1154  0.2228  0.0769
 2056DPPC   PO446358  21.262  14.976  26.265 -0.2105 -0.0381  0.0772
 2056DPPC   GL146359  20.949  14.829  26.523  0.1630  0.0115 -0.1443
 2056DPPC   GL246360  21.117  14.693  26.796 -0.1578 -0.1084 -0.0116
 2056DPPC   C1A46361  20.685  14.464  26.714  0.0067  0.0150 -0.5193
 2056DPPC   C2A46362  20.369  14.234  26.810 -0.0970 -0.1114  0.1610
 2056DPPC   C3A46363  20.253  13.913  27.177 -0.0521 -0.3781 -0.0138
 2056DPPC   C4A46364  20.316  13.517  27.385 -0.1363 -0.1333 -0.0154
 2056DPPC   C1B46365  21.136  14.213  26.747 -0.0007 -0.0893 -0.0091
 2056DPPC   C2B46366  21.522  13.967  26.770 -0.0350  0.1135  0.3928
 2056DPPC   C3B46367  21.552  13.559  26.874  0.1539 -0.0391 -0.0326
 2056DPPC   C4B46368  21.434  13.070  26.928 -0.1701  0.0493 -0.3062
 2057DPPC   NC346369  15.696  -8.594  17.708  0.1769 -0.2703 -0.0038
 2057DPPC   PO446370  15.783  -8.276  18.072 -0.0209 -0.4248  0.0364
 2057DPPC   GL146371  15.990  -7.819  18.174  0.1485 -0.1236 -0.3633
 2057DPPC   GL246372  16.186  -7.815  18.015 -0.2221 -0.0623 -0.2156
 2057DPPC   C1A46373  16.097  -7.398  18.238 -0.0179 -0.0468 -0.0850
 2057DPPC   C2A46374  16.077  -6.891  18.181  0.1177 -0.0953  0.2749
 2057DPPC   C3A46375  16.182  -6.499  17.943  0.0840 -0.0835  0.2649
 2057DPPC   C4A46376  16.401  -6.074  17.807 -0.1687  0.1373 -0.1045
 2057DPPC   C1B46377  16.307  -7.465  17.797 -0.0465  0.2267  0.1326
 2057DPPC   C2B46378  16.596  -7.205  17.426  0.1889 -0.1503  0.1384
 2057DPPC   C3B46379  16.803  -6.890  17.429 -0.0999 -0.0242  0.1144
 2057DPPC   C4B46380  17.067  -6.601  17.473  0.1270  0.1344 -0.0888
 2058DPPC   NC346381  13.379  -8.624  20.812 -0.0736  0.1206  0.0961
 2058DPPC   PO446382  13.668  -8.260  20.744 -0.0141 -0.0180 -0.0509
 2058DPPC   GL146383  13.991  -7.797  20.730  0.2149  0.1664 -0.2262
 2058DPPC   GL246384  13.689  -7.605  20.536 -0.0830 -0.1936  0.0198
 2058DPPC   C1A46385  14.119  -7.462  20.923  0.2519 -0.1874 -0.0046
 2058DPPC   C2A46386  14.448  -7.137  20.798  0.1591  0.0852  0.2518
 2058DPPC   C3A46387  14.692  -6.739  20.668 -0.0593 -0.1876  0.0266
 2058DPPC   C4A46388  14.738  -6.463  20.869 -0.2257 -0.0368 -0.1450
 2058DPPC   C1B46389  13.929  -7.127  20.530 -0.2416 -0.3324  0.0951
 2058DPPC   C2B46390  13.979  -6.765  20.576 -0.0335 -0.3567  0.2076
 2058DPPC   C3B46391  14.173  -6.584  20.873 -0.1566 -0.0882 -0.2912
 2058DPPC   C4B46392  14.357  -6.174  20.976  0.2077  0.1160 -0.2711
 2059DPPC   NC346393  19.288   2.700  32.649  0.1567  0.0696  0.1616
 2059DPPC   PO446394  19.648   2.633  32.803  0.4667 -0.0726 -0.2212
 2059DPPC   GL146395  19.503   2.712  33.154  0.0160 -0.2648 -0.0592
 2059DPPC   GL246396  19.130   2.649  33.113  0.0344  0.3414 -0.3373
 2059DPPC   C1A46397  19.854   2.774  33.403 -0.0394 -0.2043 -0.0830
 2059DPPC   C2A46398  20.192   2.884  33.691 -0.1491 -0.2004 -0.1301
 2059DPPC   C3A46399  20.390   3.168  33.802  0.1733 -0.3524 -0.0265
 2059DPPC   C4A46400  20.426   3.240  34.117  0.0778 -0.0262 -0.2262
 2059DPPC   C1B46401  19.174   2.367  33.529 -0.2168  0.4848  0.1653
 2059DPPC   C2B46402  19.481   2.281  33.923  0.2902  0.3862  0.1695
 2059DPPC   C3B46403  19.729   2.289  34.328 -0.2356  0.0835  0.1358
 2059DPPC   C4B46404  20.038   2.056  34.480 -0.2787  0.4889  0.3841
 2060DPPC   NC346405   9.422   7.953  16.055 -0.1352 -0.1933  0.3087
 2060DPPC   PO446406   9.224   8.206  16.457 -0.0282 -0.2749 -0.3304
 2060DPPC   GL146407   9.180   8.249  16.876  0.1850  0.0088 -0.2074
 2060DPPC   GL246408   8.843   8.266  17.154  0.2602 -0.0217 -0.0961
 2060DPPC   C1A46409   9.388   7.967  17.157  0.0674  0.2205 -0.1658
 2060DPPC   C2A46410   9.854   7.766  17.227  0.1323 -0.3796 -0.0223
 2060DPPC   C3A46411  10.120   7.435  17.478 -0.2390  0.0216  0.1042
 2060DPPC   C4A46412  10.610   7.437  17.604 -0.0057 -0.0042 -0.1963
 2060DPPC   C1B46413   9.179   8.318  17.464  0.0045  0.0259 -0.3415
 2060DPPC   C2B46414   9.350   8.333  17.913  0.1296  0.0573 -0.1901
 2060DPPC   C3B46415   9.517   8.548  18.178 -0.0315  0.0271  0.0247
 2060DPPC   C4B46416   9.419   8.913  18.139 -0.1540  0.1438 -0.0084
 2061DPPC   NC346417  16.373   0.893  11.806 -0.0116  0.0948  0.1621
 2061DPPC   PO446418  16.071   1.189  11.751 -0.2608  0.2012  0.4492
 2061DPPC   GL146419  16.110   1.062  12.214  0.1761 -0.0243  0.0569
 2061DPPC   GL246420  16.396   1.023  12.310  0.0321  0.2817 -0.1433
 2061DPPC   C1A46421  15.984   0.903  12.648 -0.0179 -0.0569  0.0543
 2061DPPC   C2A46422  15.817   0.688  12.928  0.0964  0.0938  0.5552
 2061DPPC   C3A46423  15.927   0.469  13.311  0.0252 -0.2105 -0.1028
 2061DPPC   C4A46424  16.181   0.372  13.562  0.0059  0.2619  0.0899
 2061DPPC   C1B46425  16.456   1.066  12.797 -0.1446 -0.0102  0.0010
 2061DPPC   C2B46426  16.660   1.262  13.131 -0.1293 -0.2469 -0.1941
 2061DPPC   C3B46427  16.674   1.018  13.455 -0.2015 -0.0011 -0.1233
 2061DPPC   C4B46428  16.534   0.699  13.753 -0.3997  0.0945  0.0477
 2062DPPC   NC346429  14.577   2.619  32.860  0.1694  0.2322 -0.2552
 2062DPPC   PO446430  14.477   2.779  33.248  0.1730  0.0573 -0.3046
 2062DPPC   GL146431  14.408   2.763  33.659  0.0875 -0.0885 -0.3697
 2062DPPC   GL246432  14.652   2.646  33.767 -0.3537 -0.3337 -0.0624
 2062DPPC   C1A46433  14.244   2.986  33.940  0.1665  0.0587  0.1307
 2062DPPC   C2A46434  14.259   3.298  34.239 -0.0040 -0.2499 -0.2183
 2062DPPC   C3A46435  14.225   3.354  34.692 -0.0366 -0.0091 -0.0769
 2062DPPC   C4A46436  14.366   3.213  35.133  0.2642 -0.2499  0.1618
 2062DPPC   C1B46437  14.435   2.404  34.038 -0.1301 -0.1556  0.1736
 2062DPPC   C2B46438  14.354   2.243  34.479  0.0834 -0.2658 -0.0345
 2062DPPC   C3B46439  14.500   2.289  34.921  0.0299 -0.4744  0.0768
 2062DPPC   C4B46440  15.049   2.482  35.011 -0.0769 -0.1514 -0.1079
 2063DPPC   NC346441  19.711  -7.499  28.628 -0.0711 -0.1323 -0.2574
 2063DPPC   PO446442  19.451  -7.165  28.576  0.2032 -0.2698  0.0406
 2063DPPC   GL146443  19.532  -6.613  28.540  0.1725  0.1425 -0.0905
 2063DPPC   GL246444  19.742  -6.465  28.310 -0.1435  0.1117 -0.0823
 2063DPPC   C1A46445  19.486  -6.165  28.744  0.0348 -0.0738 -0.0296
 2063DPPC   C2A46446  19.541  -5.793  28.681 -0.1656  0.0214 -0.1043
 2063DPPC   C3A46447  19.323  -5.479  28.788 -0.1550  0.3349 -0.1447
 2063DPPC   C4A46448  18.925  -5.427  28.818 -0.1255 -0.0703 -0.1410
 2063DPPC   C1B46449  19.917  -6.122  28.391 -0.1088 -0.1334  0.3417
 2063DPPC   C2B46450  20.151  -5.793  28.668  0.0076  0.1877 -0.3030
 2063DPPC   C3B46451  19.950  -5.453  28.522  0.2048 -0.0474  0.0758
 2063DPPC   C4B46452  20.044  -5.087  28.340 -0.0134  0.1865  0.0111
 2064DPPC   NC346453   6.665  13.600  27.835  0.2924  0.2393 -0.2702
 2064DPPC   PO446454   7.075  13.619  28.070  0.1354  0.1663 -0.0935
 2064DPPC   GL146455   7.147  13.363  27.777  0.0912  0.0555 -0.1969
 2064DPPC   GL246456   6.880  13.210  27.678  0.1229  0.3079  0.1077
 2064DPPC   C1A46457   7.433  13.099  27.530  0.0706 -0.2539  0.2050
 2064DPPC   C2A46458   7.749  13.094  27.273 -0.1610  0.0004 -0.2679
 2064DPPC   C3A46459   8.093  13.057  26.959 -0.0244 -0.0807 -0.4569
 2064DPPC   C4A46460   8.019  12.935  26.478 -0.2106  0.2397  0.0033
 2064DPPC   C1B46461   7.060  12.830  27.827 -0.0032  0.1914  0.0680
 2064DPPC   C2B46462   7.412  12.564  27.869  0.0595 -0.0209 -0.2336
 2064DPPC   C3B46463   7.651  12.259  27.725  0.2668  0.0592  0.0360
 2064DPPC   C4B46464   7.609  11.796  27.482  0.2185 -0.0215  0.1905
 2065DPPC   NC346465   2.654   1.470  27.168 -0.0480 -0.2634 -0.1097
 2065DPPC   PO446466   2.726   1.690  27.467  0.2710  0.2559 -0.2860
 2065DPPC   GL146467   2.977   1.931  27.317  0.0090  0.1857  0.1593
 2065DPPC   GL246468   3.184   2.111  27.509 -0.1576 -0.2617 -0.2919
 2065DPPC   C1A46469   3.361   1.797  27.136 -0.0975  0.0586  0.2287
 2065DPPC   C2A46470   3.783   1.839  26.838 -0.0493  0.0933 -0.1141
 2065DPPC   C3A46471   4.152   1.909  26.553 -0.1336  0.5119 -0.1098
 2065DPPC   C4A46472   4.453   2.111  26.271 -0.2772  0.1265  0.1007
 2065DPPC   C1B46473   3.586   2.255  27.221  0.1476 -0.1370  0.0036
 2065DPPC   C2B46474   4.040   2.342  26.985  0.3382  0.0642 -0.0539
 2065DPPC   C3B46475   4.382   2.200  26.892 -0.0195 -0.0732 -0.0308
 2065DPPC   C4B46476   4.716   2.324  26.822  0.0083 -0.2691  0.0343
 2066DPPC   NC346477  19.407  10.115  21.698  0.3615  0.3353  0.2964
 2066DPPC   PO446478  19.798  10.323  21.818  0.1383 -0.1226  0.0672
 2066DPPC   GL146479  20.042  10.718  22.070 -0.0282 -0.3071 -0.1913
 2066DPPC   GL246480  20.125  10.938  22.418  0.1104 -0.3557  0.1154
 2066DPPC   C1A46481  20.098  11.119  21.977 -0.1087  0.1834 -0.0133
 2066DPPC   C2A46482  20.191  11.561  21.916  0.1423 -0.1079  0.1714
 2066DPPC   C3A46483  20.001  11.927  21.641 -0.0078 -0.2486 -0.1940
 2066DPPC   C4A46484  20.101  12.155  21.282  0.0921 -0.0773  0.0295
 2066DPPC   C1B46485  20.443  11.302  22.332 -0.1327  0.0962  0.2636
 2066DPPC   C2B46486  20.761  11.537  22.462 -0.1418 -0.0037  0.1682
 2066DPPC   C3B46487  20.862  11.906  22.611  0.0984 -0.0252  0.2168
 2066DPPC   C4B46488  21.129  12.164  22.829 -0.2402  0.0217  0.0209
 2067DPPC   NC346489  22.924  -0.615  21.747 -0.3457 -0.0097  0.2773
 2067DPPC   PO446490  23.052  -1.180  21.993 -0.0063 -0.0982  0.2879
 2067DPPC   GL146491  23.178  -1.389  22.254 -0.2217 -0.0553 -0.0500
 2067DPPC   GL246492  22.921  -1.641  22.329 -0.0443 -0.0122  0.0725
 2067DPPC   C1A46493  23.593  -1.378  22.326 -0.1365 -0.1471 -0.1967
 2067DPPC   C2A46494  23.979  -1.487  22.374 -0.3388  0.0551  0.0414
 2067DPPC   C3A46495  24.283  -1.589  22.110 -0.0499 -0.0529  0.2659
 2067DPPC   C4A46496  24.652  -1.820  22.097  0.0516 -0.0116  0.0819
 2067DPPC   C1B46497  23.362  -1.930  22.410 -0.0350  0.0122  0.2378
 2067DPPC   C2B46498  23.617  -1.965  22.310  0.1390  0.0731 -0.0577
 2067DPPC   C3B46499  23.969  -1.952  22.519 -0.3595 -0.0164  0.2503
 2067DPPC   C4B46500  24.333  -1.779  22.647 -0.0217 -0.2225 -0.0551
 2068DPPC   NC346501   6.183   6.206  17.751 -0.4067 -0.0033  0.0715
 2068DPPC   PO446502   6.329   5.695  17.821  0.2940  0.1639 -0.0313
 2068DPPC   GL146503   6.408   5.739  18.167 -0.0065  0.4741  0.0794
 2068DPPC   GL246504   6.346   6.102  18.261 -0.1362  0.2095  0.0853
 2068DPPC   C1A46505   6.614   5.684  18.544 -0.1324 -0.0079  0.2153
 2068DPPC   C2A46506   6.683   5.597  18.958  0.1516  0.2832  0.1325
 2068DPPC   C3A46507   6.999   5.594  19.268 -0.4143  0.3760 -0.3543
 2068DPPC   C4A46508   7.109   5.840  19.696  0.0917 -0.2341  0.1319
 2068DPPC   C1B46509   6.178   5.949  18.733  0.1536  0.1707 -0.0126
 2068DPPC   C2B46510   6.326   5.910  19.197 -0.3341  0.0857 -0.1898
 2068DPPC   C3B46511   6.610   5.782  19.543  0.1358  0.0732 -0.0067
 2068DPPC   C4B46512   6.800   5.420  19.734  0.1086  0.1529  0.1733
 2069DPPC   NC346513  24.256  -0.330  10.575 -0.0687 -0.2422  0.1218
 2069DPPC   PO446514  23.944  -0.570  10.390  0.2404  0.1937  0.2504
 2069DPPC   GL146515  23.645  -0.552  10.687  0.2406 -0.1874  0.1846
 2069DPPC   GL246516  23.733  -0.586  10.905  0.0111  0.3768 -0.1746
 2069DPPC   C1A46517  23.451  -0.206  10.956  0.1766  0.0212  0.1506
 2069DPPC   C2A46518  23.368  -0.207  11.287  0.0400  0.1483  0.0438
 2069DPPC   C3A46519  22.988  -0.275  11.555 -0.1660  0.0979  0.1058
 2069DPPC   C4A46520  22.580  -0.259  11.286 -0.1863  0.2415 -0.1072
 2069DPPC   C1B46521  23.666  -0.696  11.364  0.0599 -0.2183  0.0784
 2069DPPC   C2B46522  23.948  -0.772  11.753 -0.3032  0.0799  0.1786
 2069DPPC   C3B46523  24.148  -0.821  12.008  0.0524  0.0362 -0.0458
 2069DPPC   C4B46524  24.159  -0.835  12.422  0.3030  0.4312 -0.2946
 2070DPPC   NC346525  10.520  -7.219  21.631 -0.0977  0.2390  0.2375
 2070DPPC   PO446526  10.513  -7.135  21.323  0.1882  0.0514 -0.0268
 2070DPPC   GL146527  10.230  -6.730  21.164 -0.0558 -0.1373 -0.0115
 2070DPPC   GL246528   9.989  -6.812  21.378  0.2879 -0.3164  0.2237
 2070DPPC   C1A46529  10.443  -6.318  21.227  0.0839 -0.0767  0.0098
 2070DPPC   C2A46530  10.652  -5.895  21.441 -0.1456 -0.1436  0.0544
 2070DPPC   C3A46531  11.044  -5.582  21.663 -0.2031  0.1003 -0.0919
 2070DPPC   C4A46532  11.294  -5.270  21.430  0.2430 -0.0564 -0.1168
 2070DPPC   C1B46533   9.968  -6.371  21.494  0.3580  0.3300  0.0274
 2070DPPC   C2B46534  10.266  -6.070  21.792  0.2072  0.0951  0.0762
 2070DPPC   C3B46535  10.727  -5.866  21.966  0.1396 -0.0486 -0.4519
 2070DPPC   C4B46536  10.961  -5.491  22.358  0.0275  0.2343  0.0094
 2071DPPC   NC346537  11.612  -3.468  22.692 -0.2005 -0.1107  0.2937
 2071DPPC   PO446538  11.482  -3.411  23.099  0.0769 -0.0162  0.0818
 2071DPPC   GL146539  11.114  -3.616  22.938  0.1409  0.2123  0.0290
 2071DPPC   GL246540  11.084  -4.006  22.928 -0.0615  0.1286  0.0899
 2071DPPC   C1A46541  10.634  -3.699  22.776 -0.0499 -0.2497 -0.0774
 2071DPPC   C2A46542  10.391  -3.984  22.670 -0.1015  0.0941  0.0775
 2071DPPC   C3A46543  10.328  -4.348  22.990  0.2058 -0.3843 -0.1409
 2071DPPC   C4A46544  10.111  -4.685  22.802  0.2797  0.2872  0.2388
 2071DPPC   C1B46545  11.071  -4.489  22.847  0.3248  0.0866 -0.3553
 2071DPPC   C2B46546  10.694  -4.535  22.700 -0.0666 -0.3831 -0.0986
 2071DPPC   C3B46547  10.364  -4.714  22.354 -0.1991 -0.0262  0.1478
 2071DPPC   C4B46548  10.209  -4.758  21.885  0.1201 -0.1010 -0.2717
 2072DPPC   NC346549  21.768   3.725  18.547 -0.0949  0.1902  0.1532
 2072DPPC   PO446550  21.818   3.651  18.168 -0.0610  0.4129  0.2781
 2072DPPC   GL146551  22.159   3.567  17.825 -0.4236 -0.1277 -0.1117
 2072DPPC   GL246552  22.120   3.378  17.535 -0.0586 -0.2595  0.1835
 2072DPPC   C1A46553  22.590   3.636  17.623  0.0121 -0.1373 -0.1041
 2072DPPC   C2A46554  22.942   4.026  17.655 -0.1879  0.0878 -0.2301
 2072DPPC   C3A46555  23.091   4.403  17.477  0.0744 -0.0836 -0.1663
 2072DPPC   C4A46556  22.912   4.756  17.169  0.1447  0.2087  0.0604
 2072DPPC   C1B46557  22.152   3.110  17.108  0.2030  0.0419  0.1801
 2072DPPC   C2B46558  22.082   2.704  16.955 -0.0045 -0.1296 -0.0678
 2072DPPC   C3B46559  22.201   2.302  16.702  0.0467  0.2417 -0.0099
 2072DPPC   C4B46560  22.133   1.904  16.580 -0.0589  0.1010  0.2689
 2073DPPC   NC346561  28.057   2.692  30.571  0.1062 -0.2794  0.1435
 2073DPPC   PO446562  27.908   3.058  30.266  0.0485 -0.1074  0.0048
 2073DPPC   GL146563  27.610   3.384  30.158  0.1001  0.0964  0.4259
 2073DPPC   GL246564  27.441   3.584  30.350  0.0724  0.0404 -0.3554
 2073DPPC   C1A46565  27.112   3.521  30.023  0.4290  0.0030 -0.0738
 2073DPPC   C2A46566  26.728   3.413  30.117  0.0049 -0.0941 -0.0068
 2073DPPC   C3A46567  26.341   3.243  30.019 -0.1965  0.0509 -0.0340
 2073DPPC   C4A46568  26.024   3.171  29.707  0.2829  0.1575 -0.0358
 2073DPPC   C1B46569  27.194   3.278  30.406 -0.1068  0.0631 -0.6766
 2073DPPC   C2B46570  26.952   2.990  30.472 -0.0428  0.0945 -0.0185
 2073DPPC   C3B46571  26.536   2.903  30.586  0.0887  0.2883 -0.0743
 2073DPPC   C4B46572  26.211   3.120  30.486  0.2626 -0.2347  0.2981
 2074DPPC   NC346573   9.931  -5.315  17.534 -0.3471 -0.3109 -0.0907
 2074DPPC   PO446574  10.001  -5.162  17.247  0.0583  0.2035 -0.2330
 2074DPPC   GL146575  10.432  -5.010  17.532  0.1811  0.4020  0.0406
 2074DPPC   GL246576  10.217  -4.683  17.420 -0.1339 -0.1148  0.0230
 2074DPPC   C1A46577  10.865  -5.101  17.730  0.1760  0.0109  0.1783
 2074DPPC   C2A46578  11.269  -5.044  17.800 -0.3008 -0.1805 -0.1453
 2074DPPC   C3A46579  11.423  -4.955  18.135  0.3409  0.2454 -0.1331
 2074DPPC   C4A46580  11.749  -4.711  18.407  0.1798  0.0406  0.0408
 2074DPPC   C1B46581  10.529  -4.428  17.610  0.0069  0.0552 -0.1193
 2074DPPC   C2B46582  10.904  -4.118  17.536 -0.3724 -0.1210 -0.2493
 2074DPPC   C3B46583  11.012  -3.751  17.311  0.1075 -0.1013 -0.4096
 2074DPPC   C4B46584  11.314  -3.350  17.386 -0.0133 -0.1391  0.0466
 2075DPPC   NC346585  20.113  -2.172  27.386  0.0183 -0.0766  0.0180
 2075DPPC   PO446586  19.765  -2.469  27.319  0.0889 -0.0757 -0.1387
 2075DPPC   GL146587  19.945  -2.890  27.433 -0.1563  0.0537 -0.1187
 2075DPPC   GL246588  19.947  -2.729  27.710  0.0767 -0.0869 -0.1264
 2075DPPC   C1A46589  20.059  -3.292  27.650 -0.2062 -0.2456 -0.1282
 2075DPPC   C2A46590  20.039  -3.658  27.907 -0.0641  0.0080  0.0310
 2075DPPC   C3A46591  20.398  -3.778  28.205  0.0254 -0.1695  0.0224
 2075DPPC   C4A46592  20.877  -3.949  28.304  0.0838 -0.3963 -0.0534
 2075DPPC   C1B46593  19.921  -2.977  28.140 -0.1291 -0.1484  0.2218
 2075DPPC   C2B46594  19.842  -3.219  28.552  0.1889  0.0781 -0.0748
 2075DPPC   C3B46595  20.172  -3.390  28.786  0.3512 -0.0267 -0.0504
 2075DPPC   C4B46596  20.272  -3.713  29.173 -0.2094 -0.0993  0.0762
 2076DPPC   NC346597  13.146  -2.959  13.452  0.0184  0.2621  0.2319
 2076DPPC   PO446598  13.192  -2.576  13.741 -0.1178  0.0633 -0.2264
 2076DPPC   GL146599  13.488  -2.558  13.983  0.0516  0.0280  0.1290
 2076DPPC   GL246600  13.670  -2.245  14.099 -0.4633  0.1352 -0.2500
 2076DPPC   C1A46601  13.668  -2.697  14.393 -0.3199  0.0907 -0.0367
 2076DPPC   C2A46602  13.771  -2.287  14.616 -0.0251 -0.0093 -0.0191
 2076DPPC   C3A46603  13.868  -2.148  15.101 -0.0445 -0.2009 -0.4245
 2076DPPC   C4A46604  13.972  -1.800  15.339 -0.3452  0.1418  0.2084
 2076DPPC   C1B46605  13.487  -1.962  14.263 -0.0398 -0.2390  0.2321
 2076DPPC   C2B46606  13.565  -1.836  14.684 -0.0757  0.2594 -0.0946
 2076DPPC   C3B46607  13.646  -1.633  15.052  0.0101 -0.3531 -0.1161
 2076DPPC   C4B46608  13.700  -1.314  15.196 -0.3231 -0.0059  0.1305
 2077DPPC   NC346609   6.403  -1.365  17.410 -0.3628  0.0820  0.0469
 2077DPPC   PO446610   6.563  -1.717  17.824  0.3496 -0.0557 -0.0551
 2077DPPC   GL146611   6.683  -1.387  18.076  0.2038 -0.2023  0.0664
 2077DPPC   GL246612   6.840  -1.095  17.920 -0.5082  0.1523  0.2705
 2077DPPC   C1A46613   6.754  -1.134  18.430 -0.0201  0.1174  0.1491
 2077DPPC   C2A46614   6.761  -0.739  18.668 -0.0723 -0.2352  0.0579
 2077DPPC   C3A46615   7.005  -0.515  18.906  0.1573 -0.0944 -0.0435
 2077DPPC   C4A46616   6.986  -0.341  19.293  0.1894 -0.1096  0.5277
 2077DPPC   C1B46617   7.159  -0.920  18.124  0.2853 -0.0398 -0.0158
 2077DPPC   C2B46618   7.191  -0.759  18.468 -0.2551 -0.1644  0.0326
 2077DPPC   C3B46619   7.612  -0.700  18.650 -0.0114 -0.2603 -0.1144
 2077DPPC   C4B46620   7.920  -0.900  18.819  0.0482 -0.3973  0.0849
 2078DPPC   NC346621  27.619   3.752  31.774  0.0158  0.0408  0.0139
 2078DPPC   PO446622  27.528   3.502  31.294  0.2646 -0.0319 -0.1110
 2078DPPC   GL146623  27.263   3.162  31.333  0.1911  0.0219  0.1262
 2078DPPC   GL246624  27.079   3.058  31.557  0.1899 -0.0780 -0.4403
 2078DPPC   C1A46625  26.882   3.046  30.966 -0.1846  0.1534 -0.1196
 2078DPPC   C2A46626  26.747   3.397  30.654  0.2144 -0.2549 -0.2709
 2078DPPC   C3A46627  26.404   3.554  30.432 -0.3247  0.1391  0.1895
 2078DPPC   C4A46628  26.029   3.590  30.312  0.0355  0.0936 -0.0400
 2078DPPC   C1B46629  26.798   3.368  31.809  0.2389 -0.1330  0.2595
 2078DPPC   C2B46630  26.383   3.333  31.925 -0.1062 -0.2177  0.2371
 2078DPPC   C3B46631  26.116   3.154  32.152 -0.0317 -0.1091 -0.0050
 2078DPPC   C4B46632  25.862   2.879  32.293 -0.0293 -0.1298  0.3456
 2079DPPC   NC346633  19.816  -3.457   9.955  0.2790 -0.1418 -0.4042
 2079DPPC   PO446634  19.886  -3.895  10.145  0.0266 -0.3888  0.2642
 2079DPPC   GL146635  20.033  -3.966  10.516 -0.0649  0.2091 -0.1507
 2079DPPC   GL246636  19.967  -4.208  10.667  0.0759 -0.2655  0.0498
 2079DPPC   C1A46637  20.301  -3.848  10.792  0.1945 -0.2654 -0.0632
 2079DPPC   C2A46638  20.124  -3.830  11.148 -0.2093  0.1041  0.1289
 2079DPPC   C3A46639  20.051  -3.429  11.375  0.1788 -0.1015 -0.2016
 2079DPPC   C4A46640  20.197  -3.038  11.456 -0.3053  0.1157  0.3455
 2079DPPC   C1B46641  19.701  -4.243  11.015 -0.0370  0.1805  0.2936
 2079DPPC   C2B46642  19.711  -4.073  11.431  0.3824  0.0059 -0.0894
 2079DPPC   C3B46643  19.900  -3.948  11.785  0.0819  0.1545  0.0143
 2079DPPC   C4B46644  20.227  -3.824  12.192  0.1013  0.0917 -0.1023
 2080DPPC   NC346645   7.468   7.730  16.970 -0.0533  0.0852 -0.1538
 2080DPPC   PO446646   7.836   7.940  17.145  0.1314  0.1187 -0.0615
 2080DPPC   GL146647   8.114   7.988  17.448 -0.2035  0.0312 -0.0911
 2080DPPC   GL246648   8.424   8.210  17.354 -0.0897  0.0644  0.0603
 2080DPPC   C1A46649   8.244   7.801  17.793  0.0450 -0.3667  0.1521
 2080DPPC   C2A46650   8.470   7.383  18.011 -0.0172  0.0109  0.4028
 2080DPPC   C3A46651   8.699   7.242  18.290  0.3776  0.1095 -0.1885
 2080DPPC   C4A46652   8.667   6.990  18.775  0.1060 -0.2564  0.2903
 2080DPPC   C1B46653   8.769   8.041  17.700  0.0790 -0.2061  0.4077
 2080DPPC   C2B46654   9.008   7.972  18.002  0.0181 -0.3422 -0.2593
 2080DPPC   C3B46655   9.509   7.876  18.192 -0.0090 -0.0970 -0.1378
 2080DPPC   C4B46656   9.775   8.103  18.258  0.0680  0.0832  0.4150
 2081DPPC   NC346657  27.363  -2.178  27.226 -0.0177  0.3043 -0.3807
 2081DPPC   PO446658  27.115  -2.161  27.500  0.1361  0.1837  0.1377
 2081DPPC   GL146659  26.814  -2.021  27.192  0.0572  0.1195 -0.1038
 2081DPPC   GL246660  26.978  -2.084  26.848  0.2442  0.0333  0.2115
 2081DPPC   C1A46661  26.349  -1.923  27.146 -0.3772  0.0946 -0.0828
 2081DPPC   C2A46662  25.919  -1.808  27.466 -0.1524  0.4084 -0.1853
 2081DPPC   C3A46663  25.590  -1.905  27.835  0.3721 -0.0774 -0.0115
 2081DPPC   C4A46664  25.682  -2.258  28.087 -0.1900  0.1142 -0.0156
 2081DPPC   C1B46665  26.677  -1.858  26.701 -0.0444  0.1109  0.2222
 2081DPPC   C2B46666  26.432  -1.480  26.737 -0.2753 -0.3205  0.0086
 2081DPPC   C3B46667  26.542  -1.073  26.799 -0.4808  0.2265  0.1500
 2081DPPC   C4B46668  26.534  -0.692  26.575 -0.0558 -0.0874  0.3435
 2082DPPC   NC346669  15.217  10.493  37.184  0.1026 -0.3104  0.0239
 2082DPPC   PO446670  14.881  10.065  37.201  0.0905  0.2542 -0.0439
 2082DPPC   GL146671  14.995   9.735  36.913 -0.1338 -0.0407  0.1408
 2082DPPC   GL246672  15.277   9.531  37.005  0.0068  0.2513  0.0152
 2082DPPC   C1A46673  14.893   9.479  36.386  0.2694 -0.0842 -0.4292
 2082DPPC   C2A46674  14.944   9.225  35.998 -0.1483 -0.4036 -0.0011
 2082DPPC   C3A46675  14.899   9.148  35.664  0.3702 -0.0355 -0.2187
 2082DPPC   C4A46676  14.853   9.033  35.257  0.0276 -0.0635 -0.0354
 2082DPPC   C1B46677  15.407   9.370  36.574 -0.1178  0.3511 -0.1071
 2082DPPC   C2B46678  15.526   9.067  36.280 -0.1472  0.1055 -0.0669
 2082DPPC   C3B46679  15.704   8.640  36.033 -0.2009  0.0202 -0.1608
 2082DPPC   C4B46680  16.058   8.554  35.806  0.0724  0.2073  0.1521
 2083DPPC   NC346681   8.212   2.999  20.265  0.0828 -0.2882 -0.2796
 2083DPPC   PO446682   8.310   3.437  20.322 -0.1154  0.0195 -0.1301
 2083DPPC   GL146683   8.009   3.550  20.077 -0.1100  0.1110 -0.0782
 2083DPPC   GL246684   7.767   3.331  20.179 -0.0443 -0.1399  0.3125
 2083DPPC   C1A46685   7.667   3.766  19.988 -0.3497 -0.3538  0.0491
 2083DPPC   C2A46686   7.300   3.707  19.995 -0.2064 -0.2118  0.1837
 2083DPPC   C3A46687   6.894   3.770  19.858 -0.0101 -0.3579 -0.1063
 2083DPPC   C4A46688   6.523   3.607  20.071  0.0310  0.3442 -0.0374
 2083DPPC   C1B46689   7.455   3.247  19.909  0.0077  0.1054  0.2916
 2083DPPC   C2B46690   7.150   3.254  19.605 -0.2381  0.4218  0.0243
 2083DPPC   C3B46691   6.940   2.869  19.537  0.1091  0.1072 -0.2719
 2083DPPC   C4B46692   6.534   2.610  19.510  0.0325  0.0620  0.0948
 2084DPPC   NC346693  25.006   4.757  34.455 -0.2416 -0.1918 -0.1190
 2084DPPC   PO446694  24.897   5.135  34.349  0.0290 -0.1212  0.2635
 2084DPPC   GL146695  24.616   4.858  34.110  0.2414 -0.3307 -0.3886
 2084DPPC   GL246696  24.731   4.613  33.914 -0.3238 -0.2420  0.1034
 2084DPPC   C1A46697  24.217   4.547  33.995 -0.0845 -0.1039 -0.0886
 2084DPPC   C2A46698  23.947   4.215  33.898  0.1823 -0.2401 -0.0817
 2084DPPC   C3A46699  23.502   4.139  33.808 -0.2587  0.4029  0.0253
 2084DPPC   C4A46700  23.273   3.778  33.686 -0.0559  0.3326 -0.1190
 2084DPPC   C1B46701  24.625   4.609  33.456 -0.0689  0.0883  0.1872
 2084DPPC   C2B46702  24.236   4.706  33.175 -0.2218 -0.0698 -0.4013
 2084DPPC   C3B46703  23.883   4.722  33.201  0.0592  0.1562  0.0734
 2084DPPC   C4B46704  23.560   4.985  33.133 -0.0589  0.0511  0.0186
 2085DPPC   NC346705  16.558  -4.295  22.787 -0.2944  0.1659  0.2917
 2085DPPC   PO446706  16.109  -4.335  22.758 -0.2517 -0.3315  0.5489
 2085DPPC   GL146707  16.029  -4.761  22.718  0.1924  0.4119  0.4832
 2085DPPC   GL246708  16.246  -4.849  22.931  0.1731 -0.2689  0.2348
 2085DPPC   C1A46709  15.847  -5.195  22.896  0.0215 -0.1475 -0.2897
 2085DPPC   C2A46710  15.800  -5.590  22.962  0.2668  0.1268  0.1445
 2085DPPC   C3A46711  15.948  -6.006  23.062  0.3199  0.2274 -0.0197
 2085DPPC   C4A46712  16.163  -6.315  23.246 -0.1877  0.2344  0.1485
 2085DPPC   C1B46713  16.414  -5.222  22.924 -0.0470  0.2542 -0.1506
 2085DPPC   C2B46714  16.429  -5.650  22.974 -0.1758 -0.0977 -0.3462
 2085DPPC   C3B46715  16.422  -5.929  23.254 -0.0137  0.1017 -0.0632
 2085DPPC   C4B46716  16.806  -6.255  23.208  0.0104 -0.2264  0.0465
 2086DPPC   NC346717  26.728   0.028  17.880 -0.2232  0.1674  0.0367
 2086DPPC   PO446718  26.898   0.367  17.648 -0.2993  0.0732  0.1792
 2086DPPC   GL146719  26.465   0.464  17.721 -0.0584  0.1846 -0.2720
 2086DPPC   GL246720  26.200   0.464  17.453 -0.0470  0.2091  0.0324
 2086DPPC   C1A46721  26.064   0.442  17.985 -0.0920 -0.0591  0.0063
 2086DPPC   C2A46722  25.993   0.432  18.345 -0.1591 -0.0649  0.0116
 2086DPPC   C3A46723  25.819   0.437  18.728 -0.4475 -0.0617 -0.0867
 2086DPPC   C4A46724  25.920   0.208  19.089 -0.1570 -0.0311 -0.0648
 2086DPPC   C1B46725  25.726   0.402  17.626  0.1767  0.0633 -0.1001
 2086DPPC   C2B46726  25.308   0.378  17.551 -0.0714  0.0285  0.1366
 2086DPPC   C3B46727  24.964   0.186  17.420 -0.0995  0.1387 -0.2428
 2086DPPC   C4B46728  24.731  -0.005  17.079 -0.1151  0.0118  0.0256
 2087DPPC   NC346729  23.756   2.948  11.912 -0.2448  0.0300 -0.0433
 2087DPPC   PO446730  23.749   2.515  11.842  0.1504 -0.0926 -0.3898
 2087DPPC   GL146731  23.362   2.378  12.028 -0.0156  0.0424  0.0563
 2087DPPC   GL246732  23.005   2.324  11.906 -0.2417  0.1869  0.0526
 2087DPPC   C1A46733  23.126   2.169  12.358 -0.0115 -0.1377  0.3963
 2087DPPC   C2A46734  22.929   1.879  12.597  0.1372 -0.3481  0.4051
 2087DPPC   C3A46735  22.876   1.609  12.819  0.0627  0.1769 -0.3161
 2087DPPC   C4A46736  22.498   1.351  13.037  0.2267  0.1714 -0.3707
 2087DPPC   C1B46737  22.671   2.160  12.194  0.1384 -0.1244  0.0058
 2087DPPC   C2B46738  22.410   2.016  12.554 -0.0169 -0.1879  0.5335
 2087DPPC   C3B46739  22.481   1.913  12.998  0.2731  0.1621 -0.0348
 2087DPPC   C4B46740  22.256   1.851  13.361 -0.0939  0.0947  0.0373
 2088DPPC   NC346741  15.427  -3.449  27.729  0.0499  0.1479 -0.0763
 2088DPPC   PO446742  14.991  -3.574  27.500 -0.2534 -0.1441 -0.3596
 2088DPPC   GL146743  14.979  -3.943  27.712  0.0827 -0.1576  0.0571
 2088DPPC   GL246744  14.972  -4.206  27.497 -0.0822  0.1882 -0.0628
 2088DPPC   C1A46745  14.955  -4.242  28.035 -0.1660  0.1164  0.1957
 2088DPPC   C2A46746  14.981  -4.581  28.302 -0.2866 -0.2035 -0.1969
 2088DPPC   C3A46747  15.219  -4.854  28.514  0.3122 -0.0170 -0.0786
 2088DPPC   C4A46748  15.509  -4.907  28.778 -0.0248 -0.0417 -0.0967
 2088DPPC   C1B46749  15.034  -4.552  27.643  0.2342  0.2252 -0.3434
 2088DPPC   C2B46750  15.204  -4.853  27.647  0.1365 -0.1210  0.0912
 2088DPPC   C3B46751  15.152  -4.998  28.024 -0.1856 -0.0616  0.1115
 2088DPPC   C4B46752  15.335  -5.277  28.379 -0.0881  0.0312  0.0186
 2089DPPC   NC346753   4.670   2.468  17.441 -0.1957  0.2182 -0.0303
 2089DPPC   PO446754   4.796   2.211  17.784  0.4162 -0.2420  0.0386
 2089DPPC   GL146755   5.127   1.991  18.109 -0.1469  0.0073 -0.0982
 2089DPPC   GL246756   5.020   1.932  18.321  0.0727  0.1709  0.3168
 2089DPPC   C1A46757   5.522   1.791  18.338  0.0174 -0.0873  0.2152
 2089DPPC   C2A46758   5.839   1.498  18.488 -0.0847 -0.2336  0.0017
 2089DPPC   C3A46759   6.221   1.496  18.770  0.2404  0.5077  0.0079
 2089DPPC   C4A46760   6.190   1.690  19.124 -0.0454 -0.0333  0.1651
 2089DPPC   C1B46761   5.242   2.144  18.609 -0.2283 -0.2625 -0.2474
 2089DPPC   C2B46762   5.558   2.286  18.818  0.2073  0.2501  0.0617
 2089DPPC   C3B46763   5.621   2.524  19.068 -0.0815  0.0657  0.2711
 2089DPPC   C4B46764   5.908   2.657  19.378 -0.0979  0.2461 -0.1424
 2090DPPC   NC346765  24.755  -7.500  16.855 -0.0763  0.0346  0.0417
 2090DPPC   PO446766  24.303  -7.703  16.727 -0.2110  0.2066 -0.1609
 2090DPPC   GL146767  23.878  -7.642  16.844 -0.0412  0.2444  0.0723
 2090DPPC   GL246768  23.664  -7.957  17.028  0.0043 -0.0641 -0.1572
 2090DPPC   C1A46769  23.495  -7.333  16.863  0.1327  0.1163  0.0461
 2090DPPC   C2A46770  23.140  -7.048  16.913 -0.2830  0.1050  0.2127
 2090DPPC   C3A46771  22.726  -7.126  16.666  0.1097 -0.1156 -0.0433
 2090DPPC   C4A46772  22.454  -7.260  16.268  0.1964 -0.1385  0.2077
 2090DPPC   C1B46773  23.567  -7.627  17.283  0.1572  0.0772  0.0027
 2090DPPC   C2B46774  23.371  -7.216  17.447 -0.1199 -0.2865  0.2043
 2090DPPC   C3B46775  23.088  -6.920  17.403  0.2660  0.2458  0.0352
 2090DPPC   C4B46776  22.951  -6.680  17.649  0.2036 -0.0704  0.0779
 2091DPPC   NC346777  10.106   2.490  36.752 -0.0902 -0.0792  0.2019
 2091DPPC   PO446778  10.153   2.248  36.348  0.0258 -0.3298  0.2162
 2091DPPC   GL146779  10.321   1.976  35.943 -0.0060 -0.0652  0.0967
 2091DPPC   GL246780  10.663   1.775  36.065 -0.0085  0.0236 -0.2337
 2091DPPC   C1A46781  10.558   1.832  35.585  0.0144 -0.1328 -0.0275
 2091DPPC   C2A46782  10.689   1.919  35.128 -0.0768 -0.5030 -0.4526
 2091DPPC   C3A46783  10.708   2.104  34.751 -0.0748  0.0876  0.1290
 2091DPPC   C4A46784  10.491   2.163  34.347 -0.1678  0.1728  0.1228
 2091DPPC   C1B46785  10.960   2.028  35.981 -0.1234  0.0226  0.1811
 2091DPPC   C2B46786  11.447   2.296  36.071 -0.1356 -0.0600  0.0585
 2091DPPC   C3B46787  11.714   2.143  36.218  0.0038  0.0916  0.0091
 2091DPPC   C4B46788  11.913   1.762  36.349 -0.2003  0.1262  0.1342
 2092DPPC   NC346789   9.320  -3.993  16.585 -0.1381  0.0977 -0.2601
 2092DPPC   PO446790   9.357  -4.115  16.983  0.3329 -0.1014 -0.0726
 2092DPPC   GL146791   9.555  -3.963  17.266  0.0379  0.2184 -0.2438
 2092DPPC   GL246792   9.627  -4.047  17.651 -0.0593  0.0253 -0.0718
 2092DPPC   C1A46793   9.444  -3.480  17.372 -0.0584 -0.1415  0.0653
 2092DPPC   C2A46794   9.553  -3.145  17.317 -0.1947 -0.2665 -0.2720
 2092DPPC   C3A46795   9.695  -2.729  17.347  0.4596 -0.0521 -0.0080
 2092DPPC   C4A46796   9.560  -2.306  17.349  0.1520  0.1521  0.4189
 2092DPPC   C1B46797  10.028  -4.063  17.573  0.2339  0.0841 -0.1190
 2092DPPC   C2B46798  10.370  -3.994  17.835  0.2971 -0.1978  0.3932
 2092DPPC   C3B46799  10.507  -3.672  18.223 -0.0475 -0.0137  0.0537
 2092DPPC   C4B46800  10.616  -3.426  18.620 -0.0036  0.1060  0.1205
 2093DPPC   NC346801  25.484  -4.474  21.329 -0.3194  0.0644  0.1562
 2093DPPC   PO446802  25.456  -4.647  20.847 -0.1403 -0.0613 -0.0496
 2093DPPC   GL146803  25.104  -4.294  20.715  0.0682 -0.2975  0.0817
 2093DPPC   GL246804  24.840  -4.350  20.883  0.1186 -0.3720  0.0246
 2093DPPC   C1A46805  24.822  -4.038  20.526 -0.0903  0.1552  0.2159
 2093DPPC   C2A46806  24.554  -3.871  20.302  0.0285  0.2271 -0.2651
 2093DPPC   C3A46807  24.366  -3.515  20.109  0.1414 -0.0192 -0.0163
 2093DPPC   C4A46808  23.931  -3.398  20.013 -0.0462 -0.1844 -0.0745
 2093DPPC   C1B46809  24.404  -4.291  20.754  0.0023  0.2292 -0.0474
 2093DPPC   C2B46810  23.965  -4.374  20.603  0.1123  0.3175 -0.0222
 2093DPPC   C3B46811  23.560  -4.123  20.480  0.0011 -0.3368 -0.5036
 2093DPPC   C4B46812  23.171  -3.876  20.528 -0.0044 -0.1079  0.0608
 2094DPPC   NC346813  16.177   8.857  19.087 -0.2352  0.1397 -0.1182
 2094DPPC   PO446814  16.363   9.306  19.089  0.0288 -0.1670 -0.0638
 2094DPPC   GL146815  16.408   9.181  18.743 -0.2418  0.0895 -0.0663
 2094DPPC   GL246816  16.598   9.321  18.625  0.3612  0.2591  0.0759
 2094DPPC   C1A46817  16.109   9.386  18.412  0.1190  0.0234 -0.3731
 2094DPPC   C2A46818  15.997   9.437  17.967 -0.0889 -0.1123 -0.0570
 2094DPPC   C3A46819  16.344   9.276  17.628 -0.2423  0.4619 -0.0178
 2094DPPC   C4A46820  16.787   9.057  17.421 -0.1283  0.1887 -0.3327
 2094DPPC   C1B46821  16.701   9.653  18.662 -0.2260  0.1631 -0.0256
 2094DPPC   C2B46822  16.971  10.100  18.603 -0.1629 -0.1670 -0.4122
 2094DPPC   C3B46823  17.079  10.435  18.497  0.0186 -0.0179 -0.0189
 2094DPPC   C4B46824  17.395  10.692  18.460 -0.1990 -0.3010 -0.1098
 2095DPPC   NC346825  20.463   0.457  31.025  0.0904  0.0224 -0.0390
 2095DPPC   PO446826  20.786   0.670  31.413 -0.0563 -0.1680 -0.4242
 2095DPPC   GL146827  20.904   0.553  31.866  0.1462  0.3465  0.3000
 2095DPPC   GL246828  21.084   0.803  32.131 -0.0926  0.0414 -0.2136
 2095DPPC   C1A46829  20.965   0.220  32.117  0.2233 -0.2036 -0.2387
 2095DPPC   C2A46830  20.983  -0.138  32.021  0.2657  0.1885 -0.1255
 2095DPPC   C3A46831  20.702  -0.393  31.949  0.0405  0.1725 -0.1708
 2095DPPC   C4A46832  20.204  -0.391  31.788 -0.0993  0.2543  0.0052
 2095DPPC   C1B46833  21.340   0.433  32.418 -0.1701  0.2114  0.1930
 2095DPPC   C2B46834  21.249   0.038  32.481 -0.0607  0.0637 -0.1118
 2095DPPC   C3B46835  21.265  -0.284  32.770  0.1813  0.3222 -0.0303
 2095DPPC   C4B46836  21.161  -0.296  33.245  0.0581 -0.0898  0.2303
 2096DPPC   NC346837  19.629  15.433  22.402  0.0447  0.0308 -0.0588
 2096DPPC   PO446838  19.276  15.507  22.119 -0.0366  0.0164  0.0073
 2096DPPC   GL146839  19.210  15.063  22.041 -0.0033 -0.0206  0.2157
 2096DPPC   GL246840  18.865  15.069  21.853 -0.0107  0.0334  0.2474
 2096DPPC   C1A46841  19.244  14.757  22.335 -0.2717  0.0610 -0.2060
 2096DPPC   C2A46842  19.409  14.330  22.496 -0.2688 -0.4352 -0.0250
 2096DPPC   C3A46843  19.692  13.950  22.556  0.2938  0.2282 -0.1050
 2096DPPC   C4A46844  19.885  13.554  22.590 -0.0240  0.1238  0.3242
 2096DPPC   C1B46845  18.798  14.672  22.027  0.0202  0.2946  0.0338
 2096DPPC   C2B46846  18.903  14.481  22.491  0.0510 -0.0568 -0.0774
 2096DPPC   C3B46847  19.103  14.118  22.823  0.0184  0.0993  0.1716
 2096DPPC   C4B46848  18.796  13.957  23.048  0.0050 -0.2576 -0.0941
 2097DPPC   NC346849  10.544   7.055  14.163  0.2512  0.0771  0.2561
 2097DPPC   PO446850  10.875   6.819  14.028  0.0217  0.2895 -0.3848
 2097DPPC   GL146851  11.240   6.886  14.330  0.1121 -0.1379 -0.0593
 2097DPPC   GL246852  11.306   6.598  14.359  0.0035  0.1929  0.1746
 2097DPPC   C1A46853  11.409   7.111  14.761  0.1139 -0.1716 -0.0180
 2097DPPC   C2A46854  11.630   7.253  14.969  0.0443 -0.1037 -0.0248
 2097DPPC   C3A46855  11.965   7.410  15.100  0.1088  0.1516  0.2093
 2097DPPC   C4A46856  11.931   7.690  15.252  0.1573  0.2056  0.2604
 2097DPPC   C1B46857  11.038   6.332  14.593  0.1912 -0.1792 -0.0494
 2097DPPC   C2B46858  11.026   5.968  14.760 -0.0149  0.2440 -0.3268
 2097DPPC   C3B46859  11.097   5.841  15.105  0.2094 -0.1037 -0.2862
 2097DPPC   C4B46860  10.926   5.920  15.532 -0.0026 -0.3512 -0.0622
 2098DPPC   NC346861  21.863  -1.633  21.143 -0.0412  0.0330  0.0757
 2098DPPC   PO446862  22.171  -1.873  21.115  0.1446  0.0767  0.0072
 2098DPPC   GL146863  22.417  -2.308  21.106 -0.2197  0.2282 -0.1346
 2098DPPC   GL246864  22.684  -2.357  21.367  0.0553 -0.0043 -0.0054
 2098DPPC   C1A46865  22.636  -2.624  20.808  0.1712 -0.0911 -0.0989
 2098DPPC   C2A46866  22.741  -2.727  20.425  0.2112  0.0089  0.0011
 2098DPPC   C3A46867  22.944  -2.467  20.004  0.0879 -0.2198 -0.4424
 2098DPPC   C4A46868  23.031  -2.113  19.699  0.0507 -0.0139 -0.1362
 2098DPPC   C1B46869  22.555  -2.804  21.297  0.4522 -0.2522  0.0094
 2098DPPC   C2B46870  22.472  -3.233  21.318 -0.0698 -0.1088  0.0805
 2098DPPC   C3B46871  22.751  -3.557  21.280 -0.1200 -0.2214  0.1030
 2098DPPC   C4B46872  23.186  -3.689  21.442 -0.1767 -0.0194  0.2560
 2099DPPC   NC346873   4.984  -3.073  22.032 -0.4158  0.2215 -0.1489
 2099DPPC   PO446874   5.096  -2.976  22.359  0.0578 -0.0693 -0.0427
 2099DPPC   GL146875   5.412  -2.640  22.326  0.0031 -0.3682 -0.1428
 2099DPPC   GL246876   5.308  -2.743  22.012  0.2659 -0.3202  0.3201
 2099DPPC   C1A46877   5.599  -2.285  22.330 -0.1940  0.3509 -0.2599
 2099DPPC   C2A46878   5.810  -1.934  22.214  0.0010 -0.0633  0.1115
 2099DPPC   C3A46879   5.971  -1.697  21.851 -0.1653  0.1853 -0.1630
 2099DPPC   C4A46880   6.339  -1.462  21.639 -0.0196  0.0077 -0.0205
 2099DPPC   C1B46881   5.202  -2.333  22.029 -0.0374 -0.3414 -0.0636
 2099DPPC   C2B46882   5.396  -1.899  21.935  0.0880  0.2053  0.1212
 2099DPPC   C3B46883   5.499  -1.540  21.598 -0.3291 -0.1240 -0.0796
 2099DPPC   C4B46884   5.897  -1.331  21.449 -0.3971  0.2539  0.0931
 2100DPPC   NC346885  16.726   2.161  16.564 -0.1632  0.1072 -0.2299
 2100DPPC   PO446886  16.926   1.847  16.267  0.1814 -0.0976  0.1095
 2100DPPC   GL146887  17.229   1.802  15.917  0.2064  0.0093  0.1856
 2100DPPC   GL246888  16.891   1.796  15.743 -0.2433 -0.0569 -0.0695
 2100DPPC   C1A46889  17.413   1.859  15.457 -0.4376  0.0910 -0.1859
 2100DPPC   C2A46890  17.250   1.945  15.070 -0.0514 -0.0090  0.0874
 2100DPPC   C3A46891  17.123   1.748  14.749  0.0065 -0.1053 -0.0750
 2100DPPC   C4A46892  17.216   1.243  14.441  0.0319 -0.1859 -0.1441
 2100DPPC   C1B46893  17.041   1.526  15.388  0.1757 -0.4071  0.0842
 2100DPPC   C2B46894  17.445   1.309  15.445 -0.0641  0.0627  0.1790
 2100DPPC   C3B46895  17.647   1.012  15.262 -0.0598  0.0227  0.0271
 2100DPPC   C4B46896  17.671   0.519  15.272 -0.0971  0.0747  0.0571
 2101DPPC   NC346897  18.842  16.386  27.219  0.2035 -0.1488 -0.1191
 2101DPPC   PO446898  19.011  16.114  26.907  0.2055  0.0380  0.1880
 2101DPPC   GL146899  18.861  15.609  26.972  0.1904  0.0363 -0.0124
 2101DPPC   GL246900  18.627  15.547  26.787  0.0675 -0.1000 -0.2223
 2101DPPC   C1A46901  18.764  15.241  27.144 -0.3329  0.0113  0.1792
 2101DPPC   C2A46902  18.984  14.888  26.967 -0.2044 -0.0083 -0.0619
 2101DPPC   C3A46903  19.472  14.959  27.052  0.3966  0.2767 -0.0809
 2101DPPC   C4A46904  19.893  15.169  26.891  0.0929  0.1619  0.0629
 2101DPPC   C1B46905  18.558  15.196  26.646  0.4089  0.0526  0.1374
 2101DPPC   C2B46906  18.524  14.785  26.670 -0.0596  0.1141  0.0150
 2101DPPC   C3B46907  18.660  14.346  26.502 -0.3134 -0.0589 -0.0098
 2101DPPC   C4B46908  19.008  13.973  26.579  0.4222  0.2132  0.0011
 2102DPPC   NC346909  11.071   3.114  13.363  0.0489  0.2146  0.2228
 2102DPPC   PO446910  10.636   3.079  13.640  0.0281  0.2833 -0.0352
 2102DPPC   GL146911  10.963   2.875  13.826  0.1542  0.1757  0.3136
 2102DPPC   GL246912  11.261   3.081  14.051 -0.0955  0.0932  0.4582
 2102DPPC   C1A46913  11.135   2.580  14.015  0.0942  0.3777  0.3814
 2102DPPC   C2A46914  11.390   2.284  13.860  0.2721 -0.3251  0.1539
 2102DPPC   C3A46915  11.589   2.014  13.693  0.1160  0.0921 -0.1441
 2102DPPC   C4A46916  11.986   2.009  13.552 -0.0237  0.1219  0.0978
 2102DPPC   C1B46917  11.444   3.112  14.425  0.1078  0.2474  0.0299
 2102DPPC   C2B46918  11.464   3.169  14.815  0.2467  0.0028  0.1847
 2102DPPC   C3B46919  11.848   3.456  15.002  0.0141 -0.1178 -0.2565
 2102DPPC   C4B46920  12.134   3.614  15.231 -0.2285 -0.0049  0.0648
 2103DPPC   NC346921  23.602   6.792  35.024 -0.0788  0.0843  0.1372
 2103DPPC   PO446922  23.262   6.774  35.325 -0.2881  0.1269 -0.2770
 2103DPPC   GL146923  22.995   6.784  35.015  0.0000 -0.1783 -0.1953
 2103DPPC   GL246924  23.139   6.892  34.763  0.1341  0.0790  0.0810
 2103DPPC   C1A46925  22.552   6.577  34.885 -0.2527  0.1761  0.1350
 2103DPPC   C2A46926  22.215   6.568  34.591  0.1001  0.3412  0.3496
 2103DPPC   C3A46927  21.918   6.362  34.449 -0.1032 -0.4454  0.2424
 2103DPPC   C4A46928  21.652   6.079  34.400  0.0047 -0.1932  0.0537
 2103DPPC   C1B46929  22.943   7.163  34.591 -0.3773  0.0562  0.1047
 2103DPPC   C2B46930  22.862   7.163  34.174 -0.2478 -0.1288  0.1005
 2103DPPC   C3B46931  22.888   7.224  33.861 -0.0396  0.2517  0.2343
 2103DPPC   C4B46932  22.692   7.086  33.543 -0.0742  0.0088 -0.2060
 2104DPPC   NC346933  18.681   8.206  18.903 -0.0084 -0.2798  0.0580
 2104DPPC   PO446934  19.054   8.274  18.955 -0.0287  0.0992 -0.1005
 2104DPPC   GL146935  19.114   8.605  18.745  0.0307 -0.0225 -0.2826
 2104DPPC   GL246936  19.409   8.822  18.736  0.1777  0.2439 -0.3623
 2104DPPC   C1A46937  18.988   8.948  18.491 -0.3491  0.0326  0.0417
 2104DPPC   C2A46938  18.590   9.241  18.380 -0.0545 -0.0333 -0.2650
 2104DPPC   C3A46939  18.183   9.235  18.149 -0.0100  0.2224  0.2714
 2104DPPC   C4A46940  17.919   9.436  17.953  0.2456 -0.2726 -0.1573
 2104DPPC   C1B46941  19.400   8.669  18.331  0.1764  0.1535  0.0319
 2104DPPC   C2B46942  19.579   8.747  18.018  0.2009 -0.1839 -0.3399
 2104DPPC   C3B46943  19.397   8.981  17.746  0.2900 -0.0450 -0.0962
 2104DPPC   C4B46944  19.575   9.057  17.349  0.0662 -0.3166 -0.0288
 2105DPPC   NC346945  19.318  14.973  31.167  0.1732  0.0723  0.1471
 2105DPPC   PO446946  19.081  14.744  31.577  0.1777 -0.2539  0.0894
 2105DPPC   GL146947  18.826  14.416  31.241 -0.0874 -0.0626 -0.1975
 2105DPPC   GL246948  18.828  14.369  30.880  0.3716  0.0399 -0.0549
 2105DPPC   C1A46949  18.800  13.969  31.197 -0.1957  0.2464  0.3924
 2105DPPC   C2A46950  18.546  13.550  30.988 -0.0683  0.0102  0.1057
 2105DPPC   C3A46951  18.276  13.277  30.827 -0.1842 -0.4359 -0.0890
 2105DPPC   C4A46952  17.997  12.957  30.696 -0.0694 -0.0380  0.1121
 2105DPPC   C1B46953  18.562  13.978  30.731  0.0315 -0.4119  0.0178
 2105DPPC   C2B46954  18.472  13.615  30.400 -0.3691  0.1634  0.0431
 2105DPPC   C3B46955  18.071  13.507  30.250 -0.3155  0.1919  0.2873
 2105DPPC   C4B46956  17.846  13.277  30.043  0.0955  0.3518 -0.0434
 2106DPPC   NC346957  22.320  -2.029  21.589 -0.0577 -0.1490 -0.1101
 2106DPPC   PO446958  22.616  -1.774  21.400  0.0488 -0.0786  0.2078
 2106DPPC   GL146959  22.765  -1.975  21.007  0.1337  0.2490 -0.1849
 2106DPPC   GL246960  22.785  -1.744  20.789 -0.1190 -0.2923  0.1613
 2106DPPC   C1A46961  22.988  -2.292  21.035 -0.1653  0.2590  0.5557
 2106DPPC   C2A46962  23.104  -2.661  20.790 -0.1768 -0.1499  0.2006
 2106DPPC   C3A46963  23.260  -3.065  20.667  0.4699 -0.0361 -0.1688
 2106DPPC   C4A46964  23.135  -3.364  20.337  0.0908  0.1832  0.1450
 2106DPPC   C1B46965  23.208  -1.676  20.624 -0.1369 -0.1894 -0.0065
 2106DPPC   C2B46966  23.639  -1.619  20.489  0.6332 -0.0355  0.0805
 2106DPPC   C3B46967  24.047  -1.828  20.206 -0.0476 -0.1799 -0.1032
 2106DPPC   C4B46968  24.447  -1.538  20.119  0.2379 -0.0852 -0.0593
 2107DPPC   NC346969  20.636   5.389  12.641  0.3869 -0.1635  0.3890
 2107DPPC   PO446970  20.486   4.968  12.417  0.0859 -0.2096  0.2654
 2107DPPC   GL146971  20.378   4.752  12.736  0.1528  0.0833 -0.2031
 2107DPPC   GL246972  20.067   4.672  12.932  0.0780 -0.0966  0.2128
 2107DPPC   C1A46973  20.443   4.365  13.019 -0.0978 -0.3613 -0.1909
 2107DPPC   C2A46974  20.685   4.055  13.228  0.2925  0.0566  0.2727
 2107DPPC   C3A46975  20.881   3.743  13.486  0.2467 -0.1231 -0.2261
 2107DPPC   C4A46976  21.205   3.857  13.797  0.0836  0.1187 -0.1245
 2107DPPC   C1B46977  20.119   4.907  13.305 -0.0073 -0.0714  0.0078
 2107DPPC   C2B46978  20.221   4.977  13.538 -0.0660 -0.0980 -0.3477
 2107DPPC   C3B46979  20.087   4.845  13.921  0.0759 -0.2162 -0.1819
 2107DPPC   C4B46980  20.075   4.658  14.320  0.0932  0.0476  0.2044
 2108DPPC   NC346981  13.773   5.440  33.300  0.0287 -0.0266 -0.0865
 2108DPPC   PO446982  13.972   5.047  33.375 -0.1087  0.1951 -0.2529
 2108DPPC   GL146983  14.215   5.078  33.771  0.0984  0.0162 -0.0918
 2108DPPC   GL246984  14.030   5.190  34.021  0.1961  0.2213  0.0671
 2108DPPC   C1A46985  14.415   5.359  34.217 -0.4128 -0.1824  0.0922
 2108DPPC   C2A46986  14.593   5.753  34.419  0.0121 -0.2058 -0.2917
 2108DPPC   C3A46987  14.488   5.864  34.901 -0.2394  0.2295  0.0033
 2108DPPC   C4A46988  14.682   6.182  35.137 -0.0356  0.1120  0.4118
 2108DPPC   C1B46989  14.017   5.152  34.429  0.1375 -0.0192 -0.0769
 2108DPPC   C2B46990  14.184   5.342  34.713  0.1971 -0.1973  0.2430
 2108DPPC   C3B46991  14.115   5.496  35.119 -0.3055 -0.2075 -0.3241
 2108DPPC   C4B46992  13.883   5.404  35.436  0.1353  0.3261  0.0341
 2109DPPC   NC346993  20.790  -8.366  11.947  0.0225 -0.1924  0.0676
 2109DPPC   PO446994  20.381  -8.271  11.699  0.3345 -0.2047  0.1273
 2109DPPC   GL146995  20.423  -7.966  11.958 -0.0499  0.2385  0.2029
 2109DPPC   GL246996  20.446  -8.025  12.369  0.0620 -0.2030  0.0465
 2109DPPC   C1A46997  20.346  -7.580  12.153 -0.0065 -0.5306  0.2648
 2109DPPC   C2A46998  20.172  -7.234  12.457  0.1027 -0.0350 -0.2209
 2109DPPC   C3A46999  20.278  -7.218  12.903 -0.2512 -0.3051  0.2721
 2109DPPC   C4A47000  20.547  -7.190  13.200 -0.3614  0.2432  0.1331
 2109DPPC   C1B47001  20.104  -7.684  12.586  0.0193  0.3652  0.1106
 2109DPPC   C2B47002  19.817  -7.426  12.784 -0.0293 -0.0232 -0.0319
 2109DPPC   C3B47003  19.405  -7.234  12.828  0.1324  0.1226 -0.4467
 2109DPPC   C4B47004  19.315  -6.963  12.982  0.0136 -0.1520  0.0885
 2110DPPC   NC347005   8.209  13.732  31.024  0.2084 -0.1371  0.1568
 2110DPPC   PO447006   8.155  13.239  31.250 -0.1212 -0.0572  0.0061
 2110DPPC   GL147007   8.160  12.823  31.306 -0.0996 -0.1641  0.1155
 2110DPPC   GL247008   8.511  12.865  31.347 -0.2007  0.0233 -0.6023
 2110DPPC   C1A47009   8.113  12.478  31.025 -0.3308  0.1903 -0.0473
 2110DPPC   C2A47010   8.398  12.425  30.700  0.3506 -0.3343  0.1124
 2110DPPC   C3A47011   8.437  12.110  30.381  0.2729 -0.0497 -0.3174
 2110DPPC   C4A47012   8.141  11.746  30.394  0.0032 -0.1913 -0.0636
 2110DPPC   C1B47013   8.978  12.874  31.561 -0.1817  0.1157 -0.1819
 2110DPPC   C2B47014   9.373  13.038  31.363  0.0759 -0.1368  0.0210
 2110DPPC   C3B47015   9.592  13.317  31.115  0.1201 -0.1141 -0.1493
 2110DPPC   C4B47016   9.588  13.604  30.791  0.0206  0.0979  0.0214
 2111DPPC   NC347017  21.554   0.474   9.884  0.0791 -0.1996 -0.2303
 2111DPPC   PO447018  22.030   0.334   9.939  0.0299 -0.1320  0.1733
 2111DPPC   GL147019  22.073   0.584  10.293  0.1259  0.1031 -0.0875
 2111DPPC   GL247020  22.483   0.580  10.214 -0.1046  0.0483 -0.0797
 2111DPPC   C1A47021  22.038   0.754  10.773  0.0106  0.0848  0.1431
 2111DPPC   C2A47022  22.077   0.562  11.226 -0.4288  0.2489 -0.2228
 2111DPPC   C3A47023  22.081   0.481  11.652  0.2270 -0.0924  0.2392
 2111DPPC   C4A47024  22.046   0.348  12.016 -0.1653  0.0927  0.0194
 2111DPPC   C1B47025  22.429   0.416  10.613 -0.2149 -0.2165 -0.1537
 2111DPPC   C2B47026  22.414  -0.040  10.814  0.0737  0.1006  0.1284
 2111DPPC   C3B47027  22.639  -0.422  10.843  0.0426 -0.1387 -0.0125
 2111DPPC   C4B47028  22.656  -0.774  11.273 -0.0930 -0.2911 -0.1802
 2112DPPC   NC347029  27.997   9.037  26.939 -0.0007  0.3999  0.1319
 2112DPPC   PO447030  27.834   8.695  27.208 -0.0645  0.1190 -0.0337
 2112DPPC   GL147031  27.396   8.704  27.228 -0.1659  0.0601 -0.4978
 2112DPPC   GL247032  27.209   8.649  27.641  0.0037 -0.1781  0.0997
 2112DPPC   C1A47033  26.932   8.777  27.152  0.0198 -0.0670  0.1271
 2112DPPC   C2A47034  26.456   8.846  27.184  0.0175 -0.0078  0.0135
 2112DPPC   C3A47035  25.922   8.815  27.096 -0.0389 -0.0742  0.1373
 2112DPPC   C4A47036  25.578   8.874  26.802 -0.1053  0.0577 -0.0385
 2112DPPC   C1B47037  27.225   8.248  27.780  0.1569 -0.0222  0.3995
 2112DPPC   C2B47038  27.393   7.913  27.924  0.1542  0.1762  0.0320
 2112DPPC   C3B47039  27.260   7.514  27.896 -0.0269 -0.0009 -0.1355
 2112DPPC   C4B47040  27.028   7.213  27.808  0.0324  0.1433 -0.2257
 2113DPPC   NC347041  26.448  -2.108  29.177 -0.1714 -0.0705 -0.0258
 2113DPPC   PO447042  26.402  -2.423  28.940 -0.5754 -0.0252  0.0829
 2113DPPC   GL147043  26.022  -2.128  28.838  0.0062 -0.1779  0.2059
 2113DPPC   GL247044  25.911  -1.949  29.125 -0.0376  0.0529  0.0003
 2113DPPC   C1A47045  25.712  -1.899  28.604  0.0165 -0.2788 -0.0456
 2113DPPC   C2A47046  25.532  -1.847  28.325 -0.3633 -0.0389  0.0813
 2113DPPC   C3A47047  25.146  -1.622  28.069  0.0070  0.3970 -0.2056
 2113DPPC   C4A47048  24.917  -1.449  28.300 -0.0985 -0.1054 -0.0347
 2113DPPC   C1B47049  25.790  -1.559  29.425  0.2274  0.2650 -0.1156
 2113DPPC   C2B47050  25.523  -1.255  29.403 -0.0212 -0.0612 -0.0262
 2113DPPC   C3B47051  25.236  -1.130  29.060 -0.0247 -0.1130  0.0355
 2113DPPC   C4B47052  24.827  -0.980  29.011 -0.1961  0.1826  0.1293
 2114DPPC   NC347053  21.673  -2.370  22.698 -0.0505 -0.0114 -0.0924
 2114DPPC   PO447054  21.952  -2.199  23.045 -0.2922 -0.1241  0.0727
 2114DPPC   GL147055  22.340  -2.492  23.262  0.2051  0.0461 -0.1084
 2114DPPC   GL247056  22.551  -2.406  23.024 -0.1235 -0.3540 -0.5337
 2114DPPC   C1A47057  22.626  -2.856  23.488 -0.2149 -0.0490 -0.2513
 2114DPPC   C2A47058  22.970  -3.135  23.685 -0.3511 -0.1658 -0.0745
 2114DPPC   C3A47059  23.308  -3.361  23.901 -0.0067  0.0010  0.4396
 2114DPPC   C4A47060  23.455  -3.609  24.128  0.2191  0.0209 -0.1185
 2114DPPC   C1B47061  22.926  -2.607  23.155  0.0103 -0.0707  0.2241
 2114DPPC   C2B47062  23.376  -2.615  23.231  0.0398  0.1022  0.0178
 2114DPPC   C3B47063  23.819  -2.688  23.363 -0.2463 -0.2284 -0.1530
 2114DPPC   C4B47064  23.904  -2.891  23.661 -0.2930 -0.2086 -0.3257
 2115DPPC   NC347065  27.891   9.473  25.771  0.0696 -0.3511 -0.1162
 2115DPPC   PO447066  27.920   9.153  25.970  0.0043  0.1043 -0.0096
 2115DPPC   GL147067  27.708   8.785  25.861 -0.1407  0.1997  0.0262
 2115DPPC   GL247068  27.743   8.379  25.895 -0.0069 -0.1178 -0.0544
 2115DPPC   C1A47069  27.181   8.567  25.653  0.0991 -0.0485 -0.2214
 2115DPPC   C2A47070  26.811   8.574  25.323  0.2561  0.0916 -0.3828
 2115DPPC   C3A47071  26.315   8.559  25.229  0.2302  0.0554 -0.0761
 2115DPPC   C4A47072  25.957   8.672  25.469  0.1141 -0.3119 -0.0817
 2115DPPC   C1B47073  27.313   8.079  25.759 -0.2001  0.3394  0.1350
 2115DPPC   C2B47074  26.923   8.162  25.575 -0.2000  0.1487  0.0607
 2115DPPC   C3B47075  26.525   8.149  25.406 -0.3575  0.4376  0.0171
 2115DPPC   C4B47076  26.061   8.092  25.292  0.0911  0.2422 -0.0278
 2116DPPC   NC347077  26.584   5.264  17.131  0.0953  0.1230  0.2213
 2116DPPC   PO447078  26.443   5.063  17.529  0.2065 -0.0216  0.1097
 2116DPPC   GL147079  26.121   5.000  17.918 -0.0297  0.2081 -0.1396
 2116DPPC   GL247080  25.955   4.804  17.680  0.0709 -0.1705  0.1213
 2116DPPC   C1A47081  26.015   4.895  18.367  0.2757  0.1515  0.2461
 2116DPPC   C2A47082  26.065   4.527  18.632  0.1068  0.1337 -0.0870
 2116DPPC   C3A47083  25.962   4.329  19.036  0.0169 -0.5395  0.4098
 2116DPPC   C4A47084  26.162   4.244  19.414 -0.2701  0.2099 -0.1998
 2116DPPC   C1B47085  25.670   5.121  17.677 -0.0496 -0.2395 -0.1465
 2116DPPC   C2B47086  25.172   5.263  17.793  0.4985  0.1043  0.2206
 2116DPPC   C3B47087  24.922   4.838  17.811  0.0361 -0.0418  0.0813
 2116DPPC   C4B47088  24.475   4.587  17.727 -0.1651  0.0852 -0.0906
 2117DPPC   NC347089  15.047  -7.680  14.243 -0.3460  0.3811 -0.0358
 2117DPPC   PO447090  15.352  -7.678  14.145 -0.1291  0.2436  0.0275
 2117DPPC   GL147091  15.324  -7.311  14.373 -0.1476  0.1385  0.1681
 2117DPPC   GL247092  15.326  -7.162  13.988  0.0751  0.1415  0.3031
 2117DPPC   C1A47093  15.446  -6.873  14.618 -0.1971  0.1810  0.0442
 2117DPPC   C2A47094  15.823  -6.746  14.727 -0.3973  0.0316 -0.1382
 2117DPPC   C3A47095  16.173  -6.490  15.017  0.2219 -0.3424 -0.2464
 2117DPPC   C4A47096  16.414  -6.233  14.805 -0.0603  0.0194  0.3648
 2117DPPC   C1B47097  15.400  -6.648  14.090 -0.0473 -0.1492 -0.3366
 2117DPPC   C2B47098  15.547  -6.372  14.336 -0.0179  0.5580 -0.1234
 2117DPPC   C3B47099  15.862  -6.266  14.685  0.4041  0.1844 -0.3088
 2117DPPC   C4B47100  16.004  -5.968  14.778  0.0813  0.2288 -0.0425
 2118DPPC   NC347101  10.575  -7.815  24.701 -0.1020 -0.0139  0.0970
 2118DPPC   PO447102  10.705  -7.902  24.276  0.2157  0.0677  0.0382
 2118DPPC   GL147103  10.736  -7.452  24.390 -0.2728  0.1569  0.2150
 2118DPPC   GL247104  10.448  -7.402  24.526  0.2258 -0.1421  0.0201
 2118DPPC   C1A47105  10.715  -7.016  24.395 -0.0933 -0.1352 -0.2163
 2118DPPC   C2A47106  11.069  -6.628  24.461  0.0962  0.1637 -0.2039
 2118DPPC   C3A47107  11.307  -6.267  24.696 -0.0059  0.0762  0.6873
 2118DPPC   C4A47108  11.687  -6.196  24.974 -0.1153 -0.0199  0.1705
 2118DPPC   C1B47109  10.395  -7.052  24.781 -0.2182 -0.2190 -0.3018
 2118DPPC   C2B47110  10.317  -6.878  25.212  0.0144  0.1392 -0.2705
 2118DPPC   C3B47111  10.258  -6.600  25.525 -0.1436 -0.0483 -0.1225
 2118DPPC   C4B47112  10.019  -6.340  25.756 -0.0876 -0.1893  0.0834
 2119DPPC   NC347113   5.010   7.558  19.566 -0.0492  0.0338  0.1623
 2119DPPC   PO447114   5.154   7.107  19.421  0.0526  0.0265  0.0743
 2119DPPC   GL147115   5.525   6.857  19.582 -0.0070  0.0270  0.1746
 2119DPPC   GL247116   5.811   6.615  19.514 -0.2333 -0.0714 -0.1999
 2119DPPC   C1A47117   5.706   6.981  19.977  0.0134 -0.1172 -0.0319
 2119DPPC   C2A47118   5.835   7.403  20.081 -0.2568 -0.3301  0.1875
 2119DPPC   C3A47119   5.636   7.824  20.242 -0.0354 -0.0228 -0.1886
 2119DPPC   C4A47120   5.553   7.950  20.551  0.1516  0.3390  0.2984
 2119DPPC   C1B47121   6.096   6.670  19.812  0.4608 -0.5462  0.3590
 2119DPPC   C2B47122   5.986   6.652  20.281 -0.0439  0.3074 -0.0754
 2119DPPC   C3B47123   5.898   6.929  20.519  0.2564 -0.0350  0.1874
 2119DPPC   C4B47124   6.097   6.874  20.941  0.0538  0.2493 -0.1237
 2120DPPC   NC347125  21.281   0.889  31.013 -0.2869  0.0300 -0.2685
 2120DPPC   PO447126  21.188   1.096  31.340  0.1306  0.1334 -0.0818
 2120DPPC   GL147127  21.428   1.034  31.701 -0.1832  0.3745  0.0889
 2120DPPC   GL247128  21.840   1.075  31.806  0.0133 -0.1104  0.0685
 2120DPPC   C1A47129  21.607   0.638  32.006 -0.1100 -0.1623 -0.0373
 2120DPPC   C2A47130  21.987   0.304  32.152  0.2279 -0.3340 -0.0709
 2120DPPC   C3A47131  21.785   0.133  32.552 -0.2139  0.1639 -0.1181
 2120DPPC   C4A47132  21.403   0.227  32.939  0.2416  0.0969 -0.0001
 2120DPPC   C1B47133  22.012   1.016  32.243 -0.1561  0.0142 -0.2152
 2120DPPC   C2B47134  22.209   1.029  32.614  0.1467 -0.3656 -0.0513
 2120DPPC   C3B47135  22.295   1.017  33.051  0.0988  0.2099  0.1150
 2120DPPC   C4B47136  22.322   0.937  33.521  0.1032  0.1526  0.2825
 2121DPPC   NC347137  24.068  -4.800  28.716  0.1323 -0.0663  0.0987
 2121DPPC   PO447138  24.267  -4.514  28.392  0.1687  0.0701 -0.1269
 2121DPPC   GL147139  23.989  -4.308  28.078  0.0322  0.0857 -0.3812
 2121DPPC   GL247140  24.098  -3.984  28.041 -0.0325  0.1658 -0.0990
 2121DPPC   C1A47141  23.974  -4.252  27.637  0.2179  0.2852 -0.0463
 2121DPPC   C2A47142  24.169  -3.860  27.485 -0.0698  0.3463 -0.0620
 2121DPPC   C3A47143  24.116  -3.485  27.479 -0.1863  0.1290 -0.1690
 2121DPPC   C4A47144  24.011  -3.198  27.176 -0.0875  0.1627  0.1885
 2121DPPC   C1B47145  24.038  -3.684  28.199  0.3499  0.1636  0.0247
 2121DPPC   C2B47146  23.707  -3.434  28.305 -0.0908 -0.1571 -0.0337
 2121DPPC   C3B47147  23.390  -3.189  28.290  0.0047 -0.0452 -0.0670
 2121DPPC   C4B47148  22.893  -3.218  28.260  0.0959  0.0186  0.1669
 2122DPPC   NC347149  25.789   8.707  19.746 -0.3203  0.0882  0.3963
 2122DPPC   PO447150  25.711   8.681  19.277 -0.2207 -0.1427 -0.1213
 2122DPPC   GL147151  25.324   8.664  19.525  0.1320 -0.2403  0.1620
 2122DPPC   GL247152  25.288   8.513  19.710  0.2102  0.0223 -0.0530
 2122DPPC   C1A47153  24.927   8.398  19.361 -0.1249  0.2969  0.0774
 2122DPPC   C2A47154  24.565   8.078  19.362 -0.2791  0.0433  0.1817
 2122DPPC   C3A47155  24.272   7.717  19.592  0.1348  0.0084 -0.2683
 2122DPPC   C4A47156  24.016   7.405  19.843  0.1155 -0.0279  0.0331
 2122DPPC   C1B47157  25.002   8.885  19.951 -0.1835 -0.1286 -0.0537
 2122DPPC   C2B47158  24.564   8.947  19.948 -0.0017 -0.2576  0.1835
 2122DPPC   C3B47159  24.267   8.783  20.347 -0.2984  0.0822  0.1624
 2122DPPC   C4B47160  23.982   8.597  20.778  0.0701 -0.3820  0.3985
 2123DPPC   NC347161   9.620   1.491  30.792  0.2951 -0.1254 -0.2914
 2123DPPC   PO447162   9.838   1.638  31.055 -0.1252  0.0510  0.0793
 2123DPPC   GL147163   9.433   1.581  31.284 -0.0626  0.1528 -0.2302
 2123DPPC   GL247164   9.105   1.534  31.022 -0.1286 -0.1411  0.0196
 2123DPPC   C1A47165   9.238   1.407  31.565 -0.1577 -0.2770 -0.0767
 2123DPPC   C2A47166   9.245   1.168  31.994  0.1087  0.0960 -0.1152
 2123DPPC   C3A47167   8.851   1.107  32.258 -0.1777  0.1744  0.1438
 2123DPPC   C4A47168   8.502   1.341  32.206  0.1405  0.1536  0.0428
 2123DPPC   C1B47169   8.724   1.333  31.347 -0.2924  0.1352 -0.0034
 2123DPPC   C2B47170   8.438   1.207  31.686 -0.2508  0.0077 -0.1330
 2123DPPC   C3B47171   8.092   1.041  31.817 -0.1085 -0.0398  0.3048
 2123DPPC   C4B47172   8.046   0.632  32.045  0.3242 -0.2055 -0.1417
 2124DPPC   NC347173  28.121   2.630  29.858 -0.1170 -0.3019  0.1763
 2124DPPC   PO447174  28.217   2.362  30.244 -0.0271  0.1676 -0.0611
 2124DPPC   GL147175  27.872   2.119  30.023 -0.2137  0.1889  0.0346
 2124DPPC   GL247176  27.633   2.104  29.753  0.0985  0.0184  0.1114
 2124DPPC   C1A47177  27.385   1.924  30.179 -0.2739  0.2801 -0.2410
 2124DPPC   C2A47178  27.024   1.967  30.240  0.0482  0.0835 -0.2494
 2124DPPC   C3A47179  26.616   1.889  30.165  0.0539 -0.1389  0.2469
 2124DPPC   C4A47180  26.258   1.808  29.973 -0.1409 -0.0222  0.0491
 2124DPPC   C1B47181  27.303   2.257  29.550  0.1974 -0.0027 -0.0311
 2124DPPC   C2B47182  27.123   2.311  29.158 -0.0196  0.2003 -0.2116
 2124DPPC   C3B47183  26.943   2.260  28.801 -0.1159 -0.1938  0.1600
 2124DPPC   C4B47184  26.725   1.876  28.712  0.0175  0.3253 -0.1981
 2125DPPC   NC347185  19.133  -3.508  21.559 -0.0659  0.2962 -0.3419
 2125DPPC   PO447186  19.151  -3.510  21.137 -0.2017  0.0324  0.1021
 2125DPPC   GL147187  19.393  -3.759  21.087 -0.2000  0.3867 -0.2521
 2125DPPC   GL247188  19.368  -3.913  21.466  0.1509 -0.1349  0.2629
 2125DPPC   C1A47189  19.782  -3.870  20.906  0.0244  0.0218 -0.1166
 2125DPPC   C2A47190  20.277  -4.037  20.962  0.0647  0.0529 -0.1048
 2125DPPC   C3A47191  20.610  -4.344  20.851  0.2640  0.1949  0.0341
 2125DPPC   C4A47192  20.935  -4.303  20.634  0.0316  0.1880  0.1608
 2125DPPC   C1B47193  19.506  -4.319  21.294  0.2553  0.1302 -0.0926
 2125DPPC   C2B47194  19.898  -4.495  21.007  0.1479  0.2468 -0.1176
 2125DPPC   C3B47195  20.181  -4.678  20.765  0.2448 -0.2804  0.1239
 2125DPPC   C4B47196  20.498  -4.643  20.448 -0.1806  0.0529 -0.0132
 2126DPPC   NC347197  20.099   6.703  18.449  0.1614  0.2307 -0.1733
 2126DPPC   PO447198  19.786   6.781  18.110  0.1459 -0.1330  0.1042
 2126DPPC   GL147199  19.953   6.951  17.788  0.1111  0.3755 -0.1357
 2126DPPC   GL247200  20.057   6.862  17.462  0.1768  0.1761  0.0794
 2126DPPC   C1A47201  20.008   7.300  17.659 -0.1421 -0.1651  0.2189
 2126DPPC   C2A47202  20.291   7.436  17.407 -0.0477 -0.0012  0.1138
 2126DPPC   C3A47203  20.727   7.428  17.183  0.1501  0.0664 -0.3020
 2126DPPC   C4A47204  21.090   7.446  16.905  0.1948 -0.0346 -0.1655
 2126DPPC   C1B47205  20.123   6.962  17.157  0.0831 -0.2857  0.2848
 2126DPPC   C2B47206  20.178   6.897  16.764  0.2275 -0.3012 -0.2690
 2126DPPC   C3B47207  20.316   6.960  16.442  0.0388  0.1273 -0.1587
 2126DPPC   C4B47208  20.607   6.997  16.235  0.4796  0.0142  0.0673
 2127DPPC   NC347209  11.863  10.653  21.953  0.0119  0.1311  0.2709
 2127DPPC   PO447210  11.966  10.807  22.251 -0.0163 -0.2465  0.0803
 2127DPPC   GL147211  11.994  11.184  22.291 -0.2902 -0.1171 -0.1782
 2127DPPC   GL247212  11.946  11.431  22.532 -0.1195  0.1033 -0.3568
 2127DPPC   C1A47213  11.883  11.500  21.985  0.0774 -0.2601 -0.0085
 2127DPPC   C2A47214  11.895  11.757  21.576 -0.5262 -0.1977 -0.2282
 2127DPPC   C3A47215  11.796  12.130  21.351  0.0792  0.0205 -0.1561
 2127DPPC   C4A47216  11.440  12.211  21.010  0.2060  0.1023  0.4258
 2127DPPC   C1B47217  11.955  11.951  22.278  0.2246  0.3516  0.2089
 2127DPPC   C2B47218  11.674  12.072  21.965 -0.1230 -0.0168 -0.2328
 2127DPPC   C3B47219  11.244  12.199  22.027 -0.1661 -0.0182  0.1087
 2127DPPC   C4B47220  11.178  12.627  21.987 -0.0555  0.2559 -0.3398
 2128DPPC   NC347221  14.555  12.449  25.865 -0.2365  0.0675 -0.3002
 2128DPPC   PO447222  14.177  12.257  25.929  0.0731  0.1068  0.0672
 2128DPPC   GL147223  14.162  12.572  25.588 -0.1166  0.1643 -0.3130
 2128DPPC   GL247224  14.371  12.655  25.343 -0.0244 -0.0208  0.1228
 2128DPPC   C1A47225  14.108  12.979  25.624  0.2566  0.1569 -0.3113
 2128DPPC   C2A47226  14.181  13.302  25.700 -0.1758  0.2128  0.2135
 2128DPPC   C3A47227  14.473  13.644  25.835  0.1430  0.2347  0.0808
 2128DPPC   C4A47228  14.600  14.062  25.918 -0.1289 -0.2116  0.1269
 2128DPPC   C1B47229  14.627  12.885  25.046  0.1391 -0.1110 -0.1756
 2128DPPC   C2B47230  14.783  13.243  24.879  0.0600  0.1540 -0.0709
 2128DPPC   C3B47231  15.089  13.601  24.876  0.4701 -0.2300 -0.2812
 2128DPPC   C4B47232  15.321  13.658  25.188 -0.0480  0.1125 -0.3274
 2129DPPC   NC347233  20.824   8.654  30.516 -0.1670  0.1384  0.0912
 2129DPPC   PO447234  20.960   8.763  30.145 -0.0976  0.0193 -0.0144
 2129DPPC   GL147235  21.371   8.770  30.408 -0.0085  0.1253 -0.0416
 2129DPPC   GL247236  21.576   9.023  30.343  0.1964 -0.4220  0.0922
 2129DPPC   C1A47237  21.606   8.681  30.791  0.1689 -0.3977 -0.0093
 2129DPPC   C2A47238  21.872   8.981  31.048 -0.0932  0.1870  0.0877
 2129DPPC   C3A47239  22.007   9.214  31.326  0.0670 -0.1955 -0.1754
 2129DPPC   C4A47240  21.965   9.259  31.748 -0.0271 -0.1266 -0.1274
 2129DPPC   C1B47241  21.929   9.064  30.545 -0.1670 -0.3589  0.1700
 2129DPPC   C2B47242  22.175   9.322  30.791  0.0276 -0.1255 -0.1044
 2129DPPC   C3B47243  22.349   9.640  31.167 -0.0914 -0.2434  0.0836
 2129DPPC   C4B47244  22.622   9.817  31.425 -0.2730  0.1439  0.1881
 2130DPPC   NC347245  11.826   8.375  19.921  0.2278 -0.0587  0.0664
 2130DPPC   PO447246  11.557   8.732  19.863 -0.2178 -0.3717  0.0647
 2130DPPC   GL147247  11.295   8.935  19.661 -0.2281 -0.0214  0.2367
 2130DPPC   GL247248  10.997   8.792  19.696  0.0034  0.2699  0.1356
 2130DPPC   C1A47249  11.132   8.843  19.209  0.0046  0.0347 -0.0581
 2130DPPC   C2A47250  10.879   8.969  18.913  0.2426  0.0421 -0.0083
 2130DPPC   C3A47251  10.667   9.152  18.631 -0.1134 -0.0775  0.1168
 2130DPPC   C4A47252  10.341   9.132  18.548 -0.3058 -0.3207  0.2592
 2130DPPC   C1B47253  10.671   8.816  19.509 -0.1449 -0.2089  0.0684
 2130DPPC   C2B47254  10.208   8.942  19.396  0.0732 -0.1814 -0.0016
 2130DPPC   C3B47255   9.757   9.052  19.417 -0.1212 -0.0657  0.1704
 2130DPPC   C4B47256   9.368   9.259  19.503 -0.2114 -0.1248 -0.0519
 2131DPPC   NC347257  10.208   8.123  31.221 -0.1022  0.0255  0.2175
 2131DPPC   PO447258  10.242   8.300  30.755  0.1925 -0.0702  0.0970
 2131DPPC   GL147259   9.908   8.506  31.088  0.2048 -0.3546  0.1890
 2131DPPC   GL247260   9.634   8.619  31.049  0.0030  0.0725 -0.2119
 2131DPPC   C1A47261   9.994   8.776  31.370  0.0256  0.1006  0.2749
 2131DPPC   C2A47262   9.683   9.015  31.504  0.0797 -0.1316 -0.1691
 2131DPPC   C3A47263   9.625   9.315  31.831  0.1455  0.1543 -0.2004
 2131DPPC   C4A47264   9.768   9.467  32.175  0.1227  0.1038 -0.1328
 2131DPPC   C1B47265   9.257   8.631  31.323 -0.4213  0.1177 -0.0671
 2131DPPC   C2B47266   8.903   8.777  31.612 -0.0585 -0.1032 -0.0005
 2131DPPC   C3B47267   8.586   8.724  32.086 -0.1554 -0.1809  0.2994
 2131DPPC   C4B47268   8.236   9.053  32.263 -0.3037  0.1838  0.3987
 2132DPPC   NC347269  25.558  -4.384  20.432 -0.3940  0.1024  0.1720
 2132DPPC   PO447270  25.601  -3.896  20.399 -0.0101 -0.1331  0.1717
 2132DPPC   GL147271  25.226  -3.870  20.199 -0.1153  0.0126  0.0965
 2132DPPC   GL247272  25.235  -3.607  19.907  0.0848 -0.1334 -0.0808
 2132DPPC   C1A47273  24.920  -4.172  20.060 -0.0088 -0.2438 -0.0423
 2132DPPC   C2A47274  24.470  -4.328  20.103  0.0621 -0.2182  0.1825
 2132DPPC   C3A47275  24.344  -4.645  20.414 -0.0765  0.1172 -0.3323
 2132DPPC   C4A47276  24.351  -5.035  20.510  0.1199  0.1401 -0.2795
 2132DPPC   C1B47277  24.909  -3.538  20.055  0.2484 -0.0593 -0.1311
 2132DPPC   C2B47278  24.856  -3.151  20.107  0.3512  0.0219  0.4325
 2132DPPC   C3B47279  24.493  -3.010  20.139  0.0340  0.0677 -0.1715
 2132DPPC   C4B47280  24.073  -2.850  20.134 -0.2583 -0.1519  0.2164
 2133DPPC   NC347281  13.328  -8.329  21.583  0.0586 -0.1897  0.0517
 2133DPPC   PO447282  13.268  -8.200  21.159  0.0573 -0.2654 -0.1460
 2133DPPC   GL147283  13.535  -7.812  21.019 -0.1368 -0.3549  0.1775
 2133DPPC   GL247284  13.782  -7.799  21.230 -0.3551  0.1863 -0.3506
 2133DPPC   C1A47285  13.671  -7.361  20.943 -0.1226 -0.0972  0.0186
 2133DPPC   C2A47286  14.025  -7.031  21.110 -0.1729  0.0737 -0.1974
 2133DPPC   C3A47287  14.010  -6.730  21.434  0.3435 -0.1581  0.2590
 2133DPPC   C4A47288  14.004  -6.502  21.755 -0.0493 -0.0300 -0.0550
 2133DPPC   C1B47289  13.872  -7.452  21.471 -0.2838 -0.1099 -0.1815
 2133DPPC   C2B47290  13.594  -7.021  21.392  0.2530 -0.1339  0.5017
 2133DPPC   C3B47291  13.510  -6.644  21.463 -0.0932 -0.0065  0.1081
 2133DPPC   C4B47292  13.755  -6.357  21.272 -0.1795  0.0390  0.2487
 2134DPPC   NC347293  19.797  -3.429  33.890  0.1958  0.1138 -0.1236
 2134DPPC   PO447294  19.942  -3.281  33.620 -0.2979 -0.1808 -0.0795
 2134DPPC   GL147295  19.868  -2.975  33.411  0.0347 -0.2690  0.0908
 2134DPPC   GL247296  20.082  -2.712  33.423 -0.1314 -0.2224 -0.0155
 2134DPPC   C1A47297  19.782  -2.842  32.988 -0.0766  0.1585  0.1547
 2134DPPC   C2A47298  19.680  -2.584  32.714  0.1229  0.0360 -0.2371
 2134DPPC   C3A47299  19.578  -2.243  32.542 -0.0711 -0.0973  0.1056
 2134DPPC   C4A47300  19.470  -2.107  32.126  0.3150  0.1131  0.0463
 2134DPPC   C1B47301  19.701  -2.459  33.322 -0.1796  0.1957  0.1061
 2134DPPC   C2B47302  19.512  -2.249  33.067  0.2615  0.2376 -0.0790
 2134DPPC   C3B47303  19.396  -1.866  32.753  0.0416 -0.0414 -0.0311
 2134DPPC   C4B47304  19.393  -1.535  32.411 -0.2287 -0.2029 -0.2595
 2135DPPC   NC347305   6.220   9.287  32.843 -0.2522  0.0957 -0.1284
 2135DPPC   PO447306   5.870   9.028  32.653 -0.2628 -0.0246 -0.0313
 2135DPPC   GL147307   6.183   8.891  32.435 -0.0309  0.2144 -0.0370
 2135DPPC   GL247308   6.319   9.086  32.351  0.5069  0.4118 -0.0214
 2135DPPC   C1A47309   6.596   8.614  32.518  0.0672 -0.6602 -0.3866
 2135DPPC   C2A47310   6.870   8.381  32.367  0.4358  0.0906 -0.0462
 2135DPPC   C3A47311   7.219   8.271  32.113  0.1877  0.1278 -0.2367
 2135DPPC   C4A47312   7.375   8.056  31.730 -0.1625 -0.0019  0.2222
 2135DPPC   C1B47313   6.342   8.836  31.961  0.1898 -0.2542 -0.2803
 2135DPPC   C2B47314   6.309   8.644  31.592  0.0519 -0.0268 -0.0663
 2135DPPC   C3B47315   6.707   8.561  31.476  0.0763 -0.1716  0.1972
 2135DPPC   C4B47316   6.850   8.271  31.159 -0.5271  0.3710  0.1551
 2136DPPC   NC347317  22.481   9.151  27.508  0.0635 -0.2357 -0.1194
 2136DPPC   PO447318  22.851   9.014  27.332 -0.1050  0.2787 -0.3510
 2136DPPC   GL147319  22.882   9.549  27.438 -0.2124 -0.0393 -0.1642
 2136DPPC   GL247320  22.813   9.785  27.257 -0.0502 -0.3215 -0.0219
 2136DPPC   C1A47321  23.248   9.811  27.667 -0.3214  0.1071  0.0458
 2136DPPC   C2A47322  23.380  10.210  27.667  0.0270 -0.0976 -0.1158
 2136DPPC   C3A47323  23.501  10.570  27.792 -0.0495  0.0588  0.2053
 2136DPPC   C4A47324  23.855  10.817  27.606  0.1615  0.1333  0.0212
 2136DPPC   C1B47325  23.205  10.005  27.220 -0.0242  0.1257  0.3138
 2136DPPC   C2B47326  23.473  10.301  27.183 -0.1133  0.0076  0.2854
 2136DPPC   C3B47327  23.827  10.383  27.378 -0.1909  0.0433 -0.0829
 2136DPPC   C4B47328  24.283  10.571  27.425  0.0561 -0.1378 -0.5033
 2137DPPC   NC347329  25.476  11.933  22.360 -0.2340  0.4542 -0.4381
 2137DPPC   PO447330  25.253  11.725  22.697  0.0682 -0.0097 -0.1105
 2137DPPC   GL147331  25.167  11.563  22.994  0.0732 -0.1726 -0.1416
 2137DPPC   GL247332  25.287  11.779  23.282  0.0304  0.1313  0.2485
 2137DPPC   C1A47333  25.014  11.198  23.263 -0.4733 -0.1643 -0.1141
 2137DPPC   C2A47334  24.957  10.800  23.261  0.0500 -0.0094  0.0492
 2137DPPC   C3A47335  24.770  10.394  23.434 -0.2932  0.0674 -0.3485
 2137DPPC   C4A47336  24.385  10.215  23.500  0.0513  0.1434  0.1338
 2137DPPC   C1B47337  25.644  11.523  23.308  0.3171  0.1348  0.1781
 2137DPPC   C2B47338  25.530  11.224  23.585 -0.2344 -0.2553 -0.0405
 2137DPPC   C3B47339  25.247  10.916  23.649 -0.0472  0.4438 -0.0180
 2137DPPC   C4B47340  24.906  10.765  23.790 -0.0355  0.1160  0.0149
 2138DPPC   NC347341  28.222   2.558  20.402 -0.1976  0.0638 -0.1868
 2138DPPC   PO447342  28.471   2.490  20.766  0.4144 -0.1203  0.0760
 2138DPPC   GL147343  28.066   2.673  20.915  0.2952  0.1516  0.3132
 2138DPPC   GL247344  27.903   2.489  20.773 -0.1350 -0.0028  0.0448
 2138DPPC   C1A47345  27.739   2.809  21.097  0.3321  0.0161 -0.1165
 2138DPPC   C2A47346  27.536   2.548  21.366  0.0574 -0.0100 -0.3802
 2138DPPC   C3A47347  27.166   2.422  21.336  0.2683  0.4171  0.0063
 2138DPPC   C4A47348  26.823   2.055  21.409  0.0735 -0.1438  0.3174
 2138DPPC   C1B47349  27.622   2.296  20.960  0.2040 -0.3034 -0.0201
 2138DPPC   C2B47350  27.285   2.041  20.926 -0.4740  0.0885 -0.3384
 2138DPPC   C3B47351  26.985   1.746  20.811  0.0675 -0.2983  0.1430
 2138DPPC   C4B47352  26.498   1.668  20.666  0.0523  0.1138 -0.1184
 2139DPPC   NC347353  20.051   3.600  11.789 -0.3621 -0.1024  0.0368
 2139DPPC   PO447354  20.106   3.701  12.195  0.2501  0.4061  0.0916
 2139DPPC   GL147355  20.029   3.648  12.556  0.0484  0.2711 -0.2712
 2139DPPC   GL247356  19.749   3.791  12.681  0.0422  0.2577  0.2038
 2139DPPC   C1A47357  20.244   3.276  12.904 -0.1798 -0.1382  0.0242
 2139DPPC   C2A47358  20.185   2.900  13.239 -0.1019 -0.1497 -0.0020
 2139DPPC   C3A47359  20.465   2.844  13.531 -0.3007  0.3667 -0.1077
 2139DPPC   C4A47360  20.888   3.162  13.497  0.2218  0.0402  0.1826
 2139DPPC   C1B47361  19.911   3.633  13.015  0.2262 -0.2206 -0.3019
 2139DPPC   C2B47362  19.925   3.404  13.440  0.0873  0.2629  0.1325
 2139DPPC   C3B47363  20.051   3.120  13.751 -0.3493 -0.0853  0.2049
 2139DPPC   C4B47364  20.303   3.134  14.128 -0.0149  0.1880 -0.1134
 2140DPPC   NC347365  26.158   9.615  21.152 -0.1694  0.0167 -0.2537
 2140DPPC   PO447366  26.273   9.946  21.504  0.1289  0.0248  0.2511
 2140DPPC   GL147367  25.885   9.668  21.606 -0.1766 -0.3232 -0.3540
 2140DPPC   GL247368  25.705   9.949  21.809 -0.3631 -0.3885  0.0615
 2140DPPC   C1A47369  25.568   9.484  21.756 -0.2826  0.0378  0.1499
 2140DPPC   C2A47370  25.090   9.502  21.824 -0.0256 -0.2096  0.0053
 2140DPPC   C3A47371  24.745   9.405  22.049  0.2747 -0.1302 -0.2211
 2140DPPC   C4A47372  24.385   9.274  22.374 -0.2189  0.1363  0.2331
 2140DPPC   C1B47373  25.227   9.976  21.887  0.4006  0.0714  0.1755
 2140DPPC   C2B47374  24.945   9.840  22.219  0.1882  0.0761 -0.1969
 2140DPPC   C3B47375  24.551   9.719  22.560  0.0635 -0.0695 -0.1166
 2140DPPC   C4B47376  24.492   9.307  22.836  0.1575  0.1615  0.0958
 2141DPPC   NC347377  24.709   2.570  35.042  0.0081 -0.1835 -0.1371
 2141DPPC   PO447378  24.386   2.690  34.781  0.2111 -0.2730 -0.0323
 2141DPPC   GL147379  24.246   2.763  34.332  0.3227  0.3640  0.2650
 2141DPPC   GL247380  24.151   3.053  34.156 -0.1025  0.2429  0.7039
 2141DPPC   C1A47381  23.880   2.630  34.067 -0.1062 -0.1204  0.2125
 2141DPPC   C2A47382  23.546   2.455  33.927 -0.0109  0.2810  0.1277
 2141DPPC   C3A47383  23.328   2.437  33.521 -0.3217 -0.0489 -0.2044
 2141DPPC   C4A47384  23.080   2.584  33.387  0.1039  0.0578 -0.2146
 2141DPPC   C1B47385  23.782   3.173  33.967  0.2424  0.1946  0.3705
 2141DPPC   C2B47386  23.559   2.955  33.691 -0.2978  0.1532 -0.1804
 2141DPPC   C3B47387  23.460   2.871  33.364  0.0413 -0.2917 -0.0941
 2141DPPC   C4B47388  23.534   2.913  32.971 -0.2675 -0.0471  0.0240
 2142DPPC   NC347389  15.784   5.384  17.056 -0.0844 -0.1615 -0.3126
 2142DPPC   PO447390  15.794   5.522  16.619 -0.2251 -0.0960 -0.1879
 2142DPPC   GL147391  15.921   5.608  16.141 -0.0016  0.0456  0.0579
 2142DPPC   GL247392  15.971   5.274  15.936  0.1246  0.2968  0.0884
 2142DPPC   C1A47393  15.743   5.679  15.729 -0.1775 -0.3010  0.1940
 2142DPPC   C2A47394  15.636   5.804  15.319 -0.0234 -0.0118  0.1880
 2142DPPC   C3A47395  15.797   6.139  15.087  0.1404  0.1916  0.2892
 2142DPPC   C4A47396  15.710   6.596  14.907 -0.2187  0.1267  0.2011
 2142DPPC   C1B47397  16.107   5.186  15.478 -0.1011  0.0953  0.1351
 2142DPPC   C2B47398  16.364   5.369  15.168  0.1795  0.2767  0.1849
 2142DPPC   C3B47399  16.430   5.625  14.757  0.3205  0.1754  0.2390
 2142DPPC   C4B47400  16.843   5.585  14.616 -0.1103  0.0225  0.0605
 2143DPPC   NC347401   8.600  11.519  18.578  0.2764  0.1141  0.2520
 2143DPPC   PO447402   8.352  11.106  18.772  0.0319 -0.1510 -0.0159
 2143DPPC   GL147403   8.332  10.854  19.204  0.2454  0.0153  0.3515
 2143DPPC   GL247404   8.001  10.741  19.202 -0.3227  0.1421  0.3600
 2143DPPC   C1A47405   8.407  10.467  19.340  0.1296 -0.1993  0.1518
 2143DPPC   C2A47406   8.474  10.070  19.513  0.1566  0.1058  0.1850
 2143DPPC   C3A47407   8.647   9.740  19.712 -0.2339  0.0617  0.0236
 2143DPPC   C4A47408   9.049   9.603  19.876  0.0611 -0.0850 -0.0858
 2143DPPC   C1B47409   7.908  10.715  19.574 -0.0696 -0.1144  0.1243
 2143DPPC   C2B47410   7.934  10.860  20.000 -0.0246 -0.2088 -0.1356
 2143DPPC   C3B47411   7.723  11.118  20.226 -0.0914  0.1135 -0.0714
 2143DPPC   C4B47412   7.656  11.225  20.707 -0.3583 -0.0811  0.1127
 2144DPPC   NC347413  17.696  15.336  21.391 -0.0199 -0.0610 -0.0218
 2144DPPC   PO447414  17.315  15.247  21.239  0.1449  0.2251 -0.1085
 2144DPPC   GL147415  16.966  14.998  21.465 -0.0111  0.0905  0.0547
 2144DPPC   GL247416  17.001  14.883  21.767  0.1723 -0.2400 -0.2798
 2144DPPC   C1A47417  16.917  14.592  21.355 -0.1294 -0.0148  0.1419
 2144DPPC   C2A47418  17.048  14.196  21.167 -0.2134  0.2455  0.2806
 2144DPPC   C3A47419  17.373  13.932  20.817  0.3617 -0.0292 -0.1432
 2144DPPC   C4A47420  17.339  13.461  20.703  0.5070 -0.2363  0.0900
 2144DPPC   C1B47421  17.113  14.535  22.133  0.1143 -0.0553  0.1057
 2144DPPC   C2B47422  17.040  14.203  22.497  0.0012  0.1955  0.0840
 2144DPPC   C3B47423  16.692  13.900  22.518  0.2966  0.0777 -0.1600
 2144DPPC   C4B47424  16.603  13.448  22.303  0.0265  0.0126 -0.1708
 2145DPPC   NC347425   5.714  10.069  19.286  0.2830 -0.0183  0.1611
 2145DPPC   PO447426   5.938   9.894  19.597 -0.0346  0.4420 -0.1756
 2145DPPC   GL147427   6.217   9.771  19.916 -0.2006 -0.0023 -0.2247
 2145DPPC   GL247428   6.308   9.872  20.304  0.1767  0.2883  0.0400
 2145DPPC   C1A47429   6.428   9.356  20.048  0.0392  0.1134 -0.2137
 2145DPPC   C2A47430   6.555   9.123  20.338  0.0276  0.1787  0.2349
 2145DPPC   C3A47431   6.623   8.734  20.453  0.1992  0.0142  0.1774
 2145DPPC   C4A47432   6.850   8.455  20.750  0.0608  0.0894 -0.1815
 2145DPPC   C1B47433   6.405   9.636  20.647  0.1554  0.2117 -0.0208
 2145DPPC   C2B47434   6.461   9.272  20.878 -0.1870 -0.2035  0.1479
 2145DPPC   C3B47435   6.348   9.291  21.359  0.1755  0.1754 -0.0090
 2145DPPC   C4B47436   6.398   9.180  21.777 -0.3034 -0.0967 -0.1648
 2146DPPC   NC347437  26.098   9.646  19.731  0.1674  0.0408 -0.0331
 2146DPPC   PO447438  25.731   9.475  19.875 -0.0712 -0.0102 -0.2652
 2146DPPC   GL147439  25.181   9.416  20.082  0.0562 -0.3529  0.0758
 2146DPPC   GL247440  25.062   9.746  20.332  0.1346  0.0129 -0.0763
 2146DPPC   C1A47441  25.098   9.131  20.365 -0.1462 -0.1955  0.0909
 2146DPPC   C2A47442  24.900   8.729  20.410  0.1828 -0.0850  0.1992
 2146DPPC   C3A47443  25.099   8.363  20.666  0.1300  0.1189  0.0311
 2146DPPC   C4A47444  25.226   8.077  20.908 -0.1608  0.1811 -0.2403
 2146DPPC   C1B47445  24.659   9.889  20.418 -0.2905 -0.2116 -0.0561
 2146DPPC   C2B47446  24.337   9.954  20.701  0.0534  0.1004 -0.0911
 2146DPPC   C3B47447  23.859  10.109  20.845 -0.0159 -0.1162  0.0631
 2146DPPC   C4B47448  23.432  10.003  20.680  0.4115  0.3030 -0.0324
 2147DPPC   NC347449  12.912  13.520  17.528 -0.0458 -0.2678 -0.0612
 2147DPPC   PO447450  12.921  13.043  17.390 -0.0674 -0.3569  0.0254
 2147DPPC   GL147451  13.148  12.755  17.829  0.0129  0.1778 -0.0171
 2147DPPC   GL247452  13.467  12.836  17.925  0.3249  0.0353 -0.2259
 2147DPPC   C1A47453  13.195  12.440  18.194 -0.0016 -0.1216  0.1014
 2147DPPC   C2A47454  13.480  12.201  18.252 -0.2153 -0.1431 -0.3210
 2147DPPC   C3A47455  13.777  11.903  18.246 -0.0423  0.2574 -0.2419
 2147DPPC   C4A47456  14.227  11.845  18.069 -0.3230 -0.2066  0.2964
 2147DPPC   C1B47457  13.550  12.465  17.855 -0.5708 -0.0393  0.6026
 2147DPPC   C2B47458  13.743  12.105  17.719  0.3699  0.0596 -0.2588
 2147DPPC   C3B47459  14.025  11.956  17.449 -0.0736 -0.1477  0.3107
 2147DPPC   C4B47460  14.262  11.638  17.245 -0.1813  0.1649  0.0635
 2148DPPC   NC347461  17.855  10.310  31.350 -0.1981 -0.1474 -0.3488
 2148DPPC   PO447462  17.662   9.817  31.499  0.0855  0.2568 -0.1681
 2148DPPC   GL147463  17.832   9.964  31.809 -0.0481  0.0679 -0.3705
 2148DPPC   GL247464  18.069   9.870  31.973 -0.0334  0.1550 -0.2942
 2148DPPC   C1A47465  17.877  10.289  32.091 -0.1412  0.2125  0.1425
 2148DPPC   C2A47466  17.897  10.608  32.407 -0.1640  0.0629  0.1920
 2148DPPC   C3A47467  17.906  10.898  32.649  0.0193  0.0003 -0.0908
 2148DPPC   C4A47468  18.100  11.261  32.594 -0.0529  0.1882 -0.1513
 2148DPPC   C1B47469  18.360  10.153  32.137 -0.1062  0.1807  0.1936
 2148DPPC   C2B47470  18.380  10.389  32.443 -0.3487 -0.0705  0.1791
 2148DPPC   C3B47471  18.468  10.816  32.695 -0.2587 -0.1386 -0.0169
 2148DPPC   C4B47472  18.754  10.888  32.965 -0.2344  0.2216  0.0511
 2149DPPC   NC347473  19.372  11.470  35.137  0.1096  0.1479 -0.1550
 2149DPPC   PO447474  19.685  11.158  35.251  0.3684 -0.0269  0.0568
 2149DPPC   GL147475  20.031  10.901  34.956  0.0137  0.0265 -0.1540
 2149DPPC   GL247476  19.868  10.748  34.777  0.1594  0.1026  0.1806
 2149DPPC   C1A47477  20.377  10.645  34.939  0.1276 -0.0427  0.1798
 2149DPPC   C2A47478  20.638  10.871  34.694 -0.4833  0.0549 -0.1467
 2149DPPC   C3A47479  20.635  10.862  34.258 -0.3221 -0.3972 -0.3091
 2149DPPC   C4A47480  20.595  10.702  33.843  0.1038  0.0691  0.0115
 2149DPPC   C1B47481  20.194  10.597  34.466  0.0053 -0.0682  0.1995
 2149DPPC   C2B47482  20.213  10.465  34.021 -0.0111  0.2335 -0.0075
 2149DPPC   C3B47483  20.082  10.628  33.708 -0.1292 -0.2163  0.3314
 2149DPPC   C4B47484  20.079  11.017  33.470 -0.1295  0.1162  0.1366
 2150DPPC   NC347485   8.854  13.088  20.018  0.0067 -0.0253  0.1926
 2150DPPC   PO447486   8.455  13.180  20.157  0.0596  0.2263  0.2562
 2150DPPC   GL147487   8.720  12.733  20.333  0.2788  0.1645 -0.1840
 2150DPPC   GL247488   9.006  12.622  20.072  0.0338  0.1765  0.0329
 2150DPPC   C1A47489   8.898  12.283  20.406 -0.2562 -0.3331  0.0012
 2150DPPC   C2A47490   9.014  11.985  20.833  0.0131  0.0468  0.3092
 2150DPPC   C3A47491   9.188  11.729  21.219  0.0172 -0.1822 -0.1265
 2150DPPC   C4A47492   9.602  11.676  21.499  0.2345  0.0949  0.1209
 2150DPPC   C1B47493   9.282  12.637  20.261  0.3099 -0.0834  0.0014
 2150DPPC   C2B47494   9.569  12.854  20.579  0.0809  0.0894  0.1743
 2150DPPC   C3B47495   9.779  12.840  20.961 -0.2621  0.1528  0.0022
 2150DPPC   C4B47496  10.002  13.121  21.223  0.0087  0.0103  0.2599
 2151DPPC   NC347497  15.138  14.430  33.715  0.0625  0.1316  0.1423
 2151DPPC   PO447498  14.913  14.125  33.439  0.1592 -0.0594  0.0115
 2151DPPC   GL147499  14.936  13.642  33.420 -0.1616  0.1110 -0.0425
 2151DPPC   GL247500  15.018  13.522  33.776 -0.1059  0.2824 -0.1572
 2151DPPC   C1A47501  15.067  13.216  33.211 -0.3588 -0.1945  0.0001
 2151DPPC   C2A47502  15.120  12.772  33.376  0.4798  0.1279 -0.1433
 2151DPPC   C3A47503  14.870  12.455  33.302  0.3699 -0.2627  0.2560
 2151DPPC   C4A47504  15.004  12.284  32.985 -0.0486  0.0195  0.3400
 2151DPPC   C1B47505  15.389  13.216  33.610  0.1440 -0.3744 -0.1994
 2151DPPC   C2B47506  15.568  12.983  33.317  0.0375 -0.0397  0.0329
 2151DPPC   C3B47507  15.474  12.815  32.936 -0.3464  0.0461  0.0447
 2151DPPC   C4B47508  15.638  12.740  32.592  0.0722  0.2285 -0.0076
 2152DPPC   NC347509  24.517   1.361  11.931 -0.3901 -0.1687  0.2241
 2152DPPC   PO447510  24.782   1.030  12.040 -0.1039 -0.1577 -0.0944
 2152DPPC   GL147511  24.718   0.722  12.352 -0.0877  0.0877  0.2852
 2152DPPC   GL247512  24.460   0.732  12.670  0.1742 -0.1480 -0.0406
 2152DPPC   C1A47513  24.539   0.373  12.377 -0.1810  0.1263 -0.0851
 2152DPPC   C2A47514  24.222   0.102  12.353 -0.0084  0.3714  0.0178
 2152DPPC   C3A47515  23.915  -0.065  12.673 -0.1744  0.0350 -0.0520
 2152DPPC   C4A47516  23.590   0.187  12.839 -0.4551  0.0801 -0.2967
 2152DPPC   C1B47517  24.103   0.859  12.929 -0.2786  0.4416  0.2551
 2152DPPC   C2B47518  23.828   0.686  13.159  0.1156 -0.0651 -0.0090
 2152DPPC   C3B47519  23.546   0.463  13.510  0.0493  0.2424  0.2772
 2152DPPC   C4B47520  23.448   0.433  13.901 -0.1379 -0.4201 -0.2027
 2153DPPC   NC347521  23.110  -1.039  25.332 -0.0325  0.5165  0.0602
 2153DPPC   PO447522  22.848  -1.354  25.176  0.0237 -0.0524 -0.1267
 2153DPPC   GL147523  23.030  -1.606  25.252 -0.3165 -0.1395 -0.2504
 2153DPPC   GL247524  23.345  -1.522  25.178 -0.2378 -0.1147  0.0306
 2153DPPC   C1A47525  23.456  -1.959  25.062  0.0720 -0.2566 -0.1069
 2153DPPC   C2A47526  23.871  -2.022  25.136 -0.0300  0.2881 -0.0129
 2153DPPC   C3A47527  23.993  -2.313  25.509  0.0503  0.0516  0.1039
 2153DPPC   C4A47528  24.322  -2.592  25.639  0.1953  0.0799  0.1351
 2153DPPC   C1B47529  23.556  -1.740  25.452  0.0096 -0.0129 -0.0637
 2153DPPC   C2B47530  23.617  -2.114  25.731  0.0875 -0.1906  0.1131
 2153DPPC   C3B47531  23.585  -2.542  25.681  0.2997  0.0360  0.2010
 2153DPPC   C4B47532  23.444  -2.987  25.759  0.2812 -0.2348 -0.1645
 2154DPPC   NC347533  16.675  -3.332  20.267 -0.2740 -0.0302  0.0845
 2154DPPC   PO447534  17.031  -3.251  20.093 -0.0266  0.1647 -0.1568
 2154DPPC   GL147535  17.321  -3.010  19.876 -0.2283 -0.0784 -0.0990
 2154DPPC   GL247536  17.592  -3.164  19.972  0.0668 -0.0171 -0.1451
 2154DPPC   C1A47537  17.482  -2.897  19.530  0.0784  0.1925  0.0581
 2154DPPC   C2A47538  17.669  -2.785  19.199  0.1617  0.3041 -0.1534
 2154DPPC   C3A47539  17.408  -2.832  18.724 -0.0267 -0.1310  0.0979
 2154DPPC   C4A47540  17.336  -3.141  18.478 -0.2368  0.1794 -0.0177
 2154DPPC   C1B47541  17.851  -3.245  19.607 -0.1066 -0.0761  0.2752
 2154DPPC   C2B47542  18.025  -3.158  19.195 -0.2121 -0.2514 -0.0689
 2154DPPC   C3B47543  18.320  -3.559  19.159 -0.2244 -0.4078 -0.4041
 2154DPPC   C4B47544  18.482  -3.862  19.019 -0.0635  0.2743  0.2950
 2155DPPC   NC347545  24.912   5.109  27.160  0.0706  0.2059 -0.2052
 2155DPPC   PO447546  24.788   5.455  27.043  0.2739 -0.2787 -0.0543
 2155DPPC   GL147547  25.203   5.540  27.268  0.0170  0.1425 -0.1387
 2155DPPC   GL247548  25.223   5.348  27.639  0.1887 -0.0549  0.2036
 2155DPPC   C1A47549  25.564   5.733  27.278 -0.1895  0.1066 -0.0769
 2155DPPC   C2A47550  25.889   5.516  27.081 -0.0476  0.0769  0.1463
 2155DPPC   C3A47551  25.923   5.231  26.798  0.2583 -0.5694 -0.0128
 2155DPPC   C4A47552  25.921   5.039  26.526  0.0577  0.0410 -0.0061
 2155DPPC   C1B47553  25.516   5.455  27.855 -0.0472  0.1736 -0.2799
 2155DPPC   C2B47554  25.753   5.627  28.097  0.1776 -0.2532  0.0507
 2155DPPC   C3B47555  26.111   5.995  27.945 -0.0301 -0.0370  0.0790
 2155DPPC   C4B47556  26.466   6.291  28.168  0.0533 -0.0302  0.3965
 2156DPPC   NC347557  15.610   2.425  12.093  0.0703 -0.1511 -0.1846
 2156DPPC   PO447558  15.381   2.213  12.394  0.0598 -0.2799 -0.2424
 2156DPPC   GL147559  15.618   2.536  12.593  0.1484  0.2311  0.1060
 2156DPPC   GL247560  15.290   2.642  12.709 -0.0893  0.3051 -0.1927
 2156DPPC   C1A47561  15.855   2.622  12.850 -0.0814 -0.1013  0.0499
 2156DPPC   C2A47562  16.173   2.549  13.125 -0.0463 -0.1165  0.1751
 2156DPPC   C3A47563  16.128   2.875  13.466 -0.3561 -0.0388  0.2489
 2156DPPC   C4A47564  16.305   3.119  13.795 -0.1611 -0.2830 -0.0405
 2156DPPC   C1B47565  15.459   2.692  13.126  0.1608  0.2194  0.0265
 2156DPPC   C2B47566  15.680   2.681  13.485 -0.1191 -0.0302  0.0669
 2156DPPC   C3B47567  15.939   2.704  13.911  0.2316 -0.2343  0.1297
 2156DPPC   C4B47568  16.055   2.579  14.306 -0.1049  0.0407 -0.2737
 2157DPPC   NC347569  25.255   5.389  15.056 -0.0693 -0.1384 -0.0464
 2157DPPC   PO447570  24.986   5.174  15.340 -0.4072 -0.0259  0.1147
 2157DPPC   GL147571  24.554   5.102  15.628  0.1370  0.2017  0.0687
 2157DPPC   GL247572  24.425   5.226  15.488  0.0515  0.0486 -0.0848
 2157DPPC   C1A47573  24.094   4.952  15.832 -0.2245 -0.2089 -0.1681
 2157DPPC   C2A47574  23.698   4.781  16.029 -0.0256  0.0612 -0.0522
 2157DPPC   C3A47575  23.372   4.660  15.769 -0.0701 -0.1374  0.2000
 2157DPPC   C4A47576  23.126   4.708  15.442  0.1006 -0.2326 -0.0895
 2157DPPC   C1B47577  24.074   5.425  15.652 -0.0849 -0.3325  0.1741
 2157DPPC   C2B47578  23.732   5.624  15.830  0.3907 -0.0876 -0.0329
 2157DPPC   C3B47579  23.421   5.650  16.144  0.3012 -0.0033  0.0008
 2157DPPC   C4B47580  23.117   5.387  16.491 -0.2818 -0.1821  0.0507
 2158DPPC   NC347581  11.198   3.321  32.763  0.5576  0.0848  0.1268
 2158DPPC   PO447582  11.219   3.779  32.614  0.0851  0.0533  0.0563
 2158DPPC   GL147583  11.106   3.883  33.020  0.1463  0.0164 -0.0104
 2158DPPC   GL247584  10.954   3.601  33.146  0.0947  0.1502 -0.0831
 2158DPPC   C1A47585  10.957   4.067  33.407 -0.0005 -0.0128 -0.0293
 2158DPPC   C2A47586  10.905   4.025  33.803  0.1533 -0.2786 -0.2558
 2158DPPC   C3A47587  10.759   4.196  34.171 -0.4687 -0.3006  0.0145
 2158DPPC   C4A47588  10.577   4.490  34.528 -0.1430 -0.1644  0.1933
 2158DPPC   C1B47589  10.664   3.692  33.532 -0.0994  0.1010  0.0378
 2158DPPC   C2B47590  10.454   3.803  33.870 -0.2082 -0.2342 -0.1330
 2158DPPC   C3B47591   9.981   3.753  34.027  0.2238  0.2608 -0.2810
 2158DPPC   C4B47592   9.782   3.792  34.473  0.1275  0.0164  0.0273
 2159DPPC   NC347593  19.319  -3.801  33.332 -0.0351  0.0622 -0.4462
 2159DPPC   PO447594  19.568  -3.793  33.705  0.0520  0.1206 -0.3403
 2159DPPC   GL147595  19.500  -3.368  33.483 -0.0427  0.0021  0.0613
 2159DPPC   GL247596  19.543  -3.325  33.174  0.1272  0.1315 -0.0725
 2159DPPC   C1A47597  19.369  -2.902  33.228 -0.1631  0.1289  0.1191
 2159DPPC   C2A47598  19.220  -2.632  32.865 -0.0187 -0.2304  0.1295
 2159DPPC   C3A47599  19.061  -2.207  32.914 -0.1023  0.0583 -0.2089
 2159DPPC   C4A47600  18.758  -2.021  33.185  0.2180 -0.1184 -0.2440
 2159DPPC   C1B47601  19.451  -3.216  32.719  0.0635 -0.0510 -0.0845
 2159DPPC   C2B47602  19.261  -3.208  32.321 -0.0863  0.1817 -0.1376
 2159DPPC   C3B47603  18.848  -3.076  32.102 -0.2362 -0.0225  0.0160
 2159DPPC   C4B47604  18.547  -2.919  31.773 -0.3797 -0.1546  0.1203
 2160DPPC   NC347605  13.876  17.057  25.930 -0.2380 -0.3291 -0.0534
 2160DPPC   PO447606  13.645  16.732  26.086 -0.1813 -0.0050 -0.0476
 2160DPPC   GL147607  13.693  16.281  26.097 -0.0423  0.5903 -0.3841
 2160DPPC   GL247608  13.917  16.107  26.155 -0.0368 -0.1749 -0.3020
 2160DPPC   C1A47609  13.544  15.806  26.358 -0.0898 -0.2108  0.0128
 2160DPPC   C2A47610  13.570  15.365  26.357  0.0078  0.4322 -0.1711
 2160DPPC   C3A47611  13.630  14.973  26.328 -0.0052 -0.0626 -0.1067
 2160DPPC   C4A47612  13.689  14.567  26.588  0.3751 -0.5186  0.1407
 2160DPPC   C1B47613  13.976  15.705  26.065 -0.2121 -0.0295 -0.1869
 2160DPPC   C2B47614  14.094  15.299  26.065  0.2439  0.0226  0.0724
 2160DPPC   C3B47615  14.206  14.892  26.051 -0.1138 -0.0384 -0.0710
 2160DPPC   C4B47616  14.341  14.494  25.914  0.1734 -0.0473 -0.2934
 2161DPPC   NC347617  26.928  -1.782  16.655  0.0965 -0.2374 -0.0683
 2161DPPC   PO447618  26.953  -1.541  16.360 -0.0699 -0.1747 -0.0647
 2161DPPC   GL147619  26.590  -1.836  16.301 -0.1452 -0.1366 -0.1807
 2161DPPC   GL247620  26.336  -1.772  16.596 -0.2639 -0.1899 -0.0073
 2161DPPC   C1A47621  26.312  -1.826  15.934 -0.0355 -0.0938 -0.4274
 2161DPPC   C2A47622  25.856  -1.782  15.872  0.2747  0.2274 -0.4011
 2161DPPC   C3A47623  25.502  -1.951  15.612 -0.1380  0.2191  0.0475
 2161DPPC   C4A47624  25.373  -2.047  15.172 -0.4209 -0.0372 -0.1608
 2161DPPC   C1B47625  25.977  -1.801  16.377 -0.1342 -0.6511 -0.3540
 2161DPPC   C2B47626  25.553  -1.793  16.234 -0.0280 -0.2120  0.4586
 2161DPPC   C3B47627  25.427  -1.566  15.978 -0.1976 -0.1925  0.0533
 2161DPPC   C4B47628  25.503  -1.041  15.957  0.1806  0.1314  0.2147
 2162DPPC   NC347629  10.828   0.543  31.034 -0.1315 -0.4172 -0.2451
 2162DPPC   PO447630  10.460   0.376  30.907 -0.0476 -0.2025  0.1139
 2162DPPC   GL147631  10.396   0.218  31.339 -0.2097  0.0533 -0.2151
 2162DPPC   GL247632   9.984   0.257  31.169 -0.3030  0.1785 -0.0586
 2162DPPC   C1A47633  10.138  -0.156  31.585 -0.0992  0.2902  0.0433
 2162DPPC   C2A47634  10.065  -0.289  31.895 -0.0344  0.1929  0.1555
 2162DPPC   C3A47635   9.937  -0.354  32.317 -0.0955  0.1337 -0.1988
 2162DPPC   C4A47636   9.891  -0.015  32.667 -0.0683  0.0877 -0.2413
 2162DPPC   C1B47637   9.623   0.160  31.519 -0.1831  0.1161 -0.0245
 2162DPPC   C2B47638   9.246   0.294  31.477 -0.2920  0.0648 -0.1082
 2162DPPC   C3B47639   8.903   0.322  31.636 -0.0950  0.0151 -0.1751
 2162DPPC   C4B47640   8.481   0.297  31.922 -0.1195 -0.0901 -0.1858
 2163DPPC   NC347641  16.493  16.649  28.203  0.0905  0.3313 -0.0548
 2163DPPC   PO447642  16.568  16.511  28.573 -0.2531  0.2147 -0.4150
 2163DPPC   GL147643  16.313  16.097  28.393 -0.2059 -0.0913  0.1756
 2163DPPC   GL247644  16.424  16.118  28.053  0.2592  0.3240 -0.0792
 2163DPPC   C1A47645  15.999  15.790  28.506 -0.2988  0.0215 -0.1210
 2163DPPC   C2A47646  15.935  15.300  28.346 -0.3894 -0.0855 -0.2610
 2163DPPC   C3A47647  15.641  15.017  28.176  0.0568  0.2197  0.0083
 2163DPPC   C4A47648  15.163  14.873  28.199 -0.1130 -0.4501  0.0182
 2163DPPC   C1B47649  16.254  15.906  27.785  0.1830 -0.2270  0.2364
 2163DPPC   C2B47650  16.052  15.533  27.656  0.1149  0.1918  0.0050
 2163DPPC   C3B47651  15.891  15.130  27.497 -0.1086  0.1146 -0.1113
 2163DPPC   C4B47652  15.947  14.833  27.237  0.0140 -0.1059  0.1626
 2164DPPC   NC347653   7.154   4.798  16.367 -0.1666  0.0350 -0.2073
 2164DPPC   PO447654   7.507   4.951  16.256 -0.0489 -0.1011  0.1081
 2164DPPC   GL147655   7.616   4.682  16.533 -0.1050 -0.0428 -0.1328
 2164DPPC   GL247656   7.935   4.490  16.498  0.2217  0.1326 -0.1869
 2164DPPC   C1A47657   7.747   4.429  16.957  0.1186  0.1593  0.1266
 2164DPPC   C2A47658   8.029   4.059  17.161  0.2764 -0.1676 -0.0950
 2164DPPC   C3A47659   8.185   3.875  17.378  0.0921 -0.0492 -0.1836
 2164DPPC   C4A47660   8.308   3.539  17.713 -0.0187  0.0179 -0.1853
 2164DPPC   C1B47661   8.372   4.265  16.630 -0.1251 -0.2281  0.0563
 2164DPPC   C2B47662   8.751   4.360  16.934  0.1894 -0.3131  0.1849
 2164DPPC   C3B47663   9.178   4.632  16.957  0.0795  0.0030  0.1826
 2164DPPC   C4B47664   9.460   4.588  17.251 -0.0769  0.1784 -0.1658
 2165DPPC   NC347665  29.000   4.426  27.280 -0.0369  0.1231 -0.2045
 2165DPPC   PO447666  29.045   4.283  26.916  0.1090  0.0321 -0.1555
 2165DPPC   GL147667  28.678   4.262  26.796 -0.0903 -0.1137 -0.1989
 2165DPPC   GL247668  28.545   4.208  26.552  0.0840 -0.0547  0.2823
 2165DPPC   C1A47669  28.321   4.390  26.966 -0.1781  0.0913 -0.0129
 2165DPPC   C2A47670  28.038   4.525  27.258 -0.0453  0.0338  0.1886
 2165DPPC   C3A47671  27.887   4.761  27.686 -0.1670  0.1212 -0.1622
 2165DPPC   C4A47672  27.613   4.929  27.975 -0.0591  0.2527  0.0783
 2165DPPC   C1B47673  28.115   4.178  26.478  0.2135  0.2332  0.0092
 2165DPPC   C2B47674  27.711   4.132  26.493  0.0779  0.1029  0.2209
 2165DPPC   C3B47675  27.315   4.389  26.541  0.0277  0.0125 -0.1342
 2165DPPC   C4B47676  26.971   4.361  26.804 -0.1452  0.1421 -0.0674
 2166DPPC   NC347677  18.546  14.467  20.223  0.0979  0.1146  0.1489
 2166DPPC   PO447678  18.944  14.352  20.304 -0.2401 -0.1364  0.2765
 2166DPPC   GL147679  18.658  14.022  20.546  0.0038 -0.0422  0.0066
 2166DPPC   GL247680  18.529  13.827  20.271 -0.0768  0.0775  0.1697
 2166DPPC   C1A47681  18.428  13.627  20.738 -0.3240 -0.1926 -0.3766
 2166DPPC   C2A47682  18.077  13.525  20.984 -0.0943 -0.5909 -0.1726
 2166DPPC   C3A47683  17.670  13.496  21.100 -0.0315 -0.1702 -0.3380
 2166DPPC   C4A47684  17.403  13.128  21.080 -0.0400  0.2024  0.0103
 2166DPPC   C1B47685  18.134  13.965  20.452 -0.2142 -0.0374 -0.0427
 2166DPPC   C2B47686  17.842  14.011  20.922  0.2741 -0.0026  0.0912
 2166DPPC   C3B47687  17.586  14.081  21.279  0.0854  0.1118 -0.0702
 2166DPPC   C4B47688  17.266  13.780  21.505 -0.1121 -0.1512 -0.1051
 2167DPPC   NC347689  25.890   5.585  34.252  0.0639  0.2075  0.3177
 2167DPPC   PO447690  25.422   5.750  34.136 -0.0419  0.3735  0.0260
 2167DPPC   GL147691  25.196   5.723  33.730 -0.1905  0.3614  0.2056
 2167DPPC   GL247692  25.136   6.093  33.797 -0.1393  0.1009  0.1373
 2167DPPC   C1A47693  25.154   5.459  33.379 -0.2645 -0.0425 -0.0714
 2167DPPC   C2A47694  24.902   5.487  33.012  0.1081 -0.0707 -0.2113
 2167DPPC   C3A47695  24.611   5.606  32.789 -0.1827 -0.2207 -0.0146
 2167DPPC   C4A47696  24.174   5.784  32.489  0.1756 -0.3757  0.2646
 2167DPPC   C1B47697  24.808   5.882  33.571  0.1872 -0.0701 -0.2668
 2167DPPC   C2B47698  24.505   5.592  33.325 -0.0673 -0.0946  0.1008
 2167DPPC   C3B47699  24.255   5.328  33.192  0.0394 -0.1354  0.1173
 2167DPPC   C4B47700  24.056   5.108  32.950  0.0441  0.1328 -0.1656
 2168DPPC   NC347701   7.846   0.978  23.492 -0.0008 -0.1951  0.0314
 2168DPPC   PO447702   7.344   0.925  23.406  0.2517 -0.1836 -0.2713
 2168DPPC   GL147703   7.050   0.721  23.235 -0.0000 -0.1019  0.2415
 2168DPPC   GL247704   6.890   0.642  23.537  0.1779 -0.1247 -0.0283
 2168DPPC   C1A47705   6.688   0.795  23.055  0.0708  0.0903  0.0176
 2168DPPC   C2A47706   6.282   0.708  23.098 -0.1919  0.0445  0.0602
 2168DPPC   C3A47707   5.959   0.909  23.009  0.1568 -0.4430  0.0513
 2168DPPC   C4A47708   5.589   0.762  23.201  0.0278  0.1576  0.0268
 2168DPPC   C1B47709   6.538   0.412  23.392  0.2978 -0.2657 -0.1353
 2168DPPC   C2B47710   6.237   0.193  23.166  0.1322 -0.0955  0.1442
 2168DPPC   C3B47711   6.018   0.375  22.805  0.2754  0.2546  0.2393
 2168DPPC   C4B47712   5.584   0.391  22.826  0.0926 -0.1663  0.3230
 2169DPPC   NC347713  17.634   6.730  17.359  0.2768  0.2105  0.1088
 2169DPPC   PO447714  18.103   6.785  17.361  0.0877 -0.1838  0.1989
 2169DPPC   GL147715  17.873   6.949  16.958 -0.2628 -0.1556 -0.2129
 2169DPPC   GL247716  17.569   6.848  16.848  0.0577 -0.1847  0.0244
 2169DPPC   C1A47717  18.038   7.312  16.602  0.1708 -0.2151 -0.0732
 2169DPPC   C2A47718  18.291   7.674  16.320 -0.2148  0.0393  0.1759
 2169DPPC   C3A47719  18.577   8.011  16.087 -0.0910 -0.0323  0.1529
 2169DPPC   C4A47720  18.639   8.345  15.890  0.0695 -0.0638 -0.2652
 2169DPPC   C1B47721  17.409   7.134  16.609 -0.1489  0.0272 -0.0662
 2169DPPC   C2B47722  17.356   7.507  16.434 -0.1629  0.1294 -0.0325
 2169DPPC   C3B47723  17.308   7.973  16.248 -0.1282 -0.1132  0.1456
 2169DPPC   C4B47724  16.924   8.151  16.024  0.0290 -0.0665  0.0355
 2170DPPC   NC347725   5.605   6.820  19.094 -0.1750  0.0300  0.2433
 2170DPPC   PO447726   5.750   6.699  18.747  0.2154 -0.0876 -0.1694
 2170DPPC   GL147727   6.131   6.866  18.995 -0.1852 -0.2413  0.5360
 2170DPPC   GL247728   6.315   7.214  19.140 -0.1678  0.1737  0.2086
 2170DPPC   C1A47729   6.606   6.774  18.919  0.2078 -0.0319  0.2956
 2170DPPC   C2A47730   6.935   6.589  19.075  0.2379  0.1529 -0.0477
 2170DPPC   C3A47731   7.372   6.779  19.343 -0.0274  0.3718  0.2274
 2170DPPC   C4A47732   7.537   6.649  19.723  0.1102  0.0221 -0.1593
 2170DPPC   C1B47733   6.427   6.967  19.428 -0.1398 -0.0295  0.2019
 2170DPPC   C2B47734   6.572   6.826  19.822 -0.3361 -0.0186  0.1384
 2170DPPC   C3B47735   6.522   6.552  20.128 -0.0684  0.1664 -0.0919
 2170DPPC   C4B47736   6.372   6.504  20.588 -0.3192 -0.2348  0.0240
 2171DPPC   NC347737   7.033  12.835  30.734 -0.1515  0.4449 -0.0894
 2171DPPC   PO447738   7.413  13.009  30.649 -0.2170 -0.2698  0.0159
 2171DPPC   GL147739   7.589  12.548  30.539  0.0648 -0.0210 -0.0501
 2171DPPC   GL247740   7.882  12.702  30.290  0.0403  0.0769 -0.2460
 2171DPPC   C1A47741   7.903  12.198  30.593 -0.1001 -0.2147 -0.0937
 2171DPPC   C2A47742   8.182  11.990  30.836 -0.1195  0.1791  0.0671
 2171DPPC   C3A47743   8.415  11.920  31.101  0.0351  0.0109  0.0787
 2171DPPC   C4A47744   8.591  11.932  31.455  0.0023 -0.0998 -0.1319
 2171DPPC   C1B47745   7.931  12.290  30.141 -0.2218 -0.0151 -0.1246
 2171DPPC   C2B47746   8.082  11.955  29.930 -0.0721 -0.3197 -0.1270
 2171DPPC   C3B47747   8.262  11.518  29.863  0.0220  0.0399 -0.0217
 2171DPPC   C4B47748   8.513  11.095  29.915  0.0476  0.4741  0.3046
 2172DPPC   NC347749  19.313  -7.974  11.425  0.0342 -0.1579 -0.2938
 2172DPPC   PO447750  19.226  -7.579  11.288 -0.0629  0.0707 -0.1563
 2172DPPC   GL147751  19.196  -7.211  11.517 -0.1893  0.2916 -0.2528
 2172DPPC   GL247752  19.132  -7.244  11.833 -0.3283 -0.1102 -0.0411
 2172DPPC   C1A47753  19.175  -6.745  11.704  0.1654  0.0185 -0.0831
 2172DPPC   C2A47754  19.183  -6.620  12.141  0.2454  0.1637 -0.1777
 2172DPPC   C3A47755  19.142  -6.263  12.419 -0.0211  0.1368 -0.1568
 2172DPPC   C4A47756  18.893  -6.041  12.724  0.1615  0.0012  0.1337
 2172DPPC   C1B47757  19.419  -7.150  12.135 -0.0924  0.3235 -0.1978
 2172DPPC   C2B47758  19.708  -7.025  12.435  0.2184  0.2127 -0.1717
 2172DPPC   C3B47759  19.808  -6.942  12.949  0.1071 -0.3346  0.1810
 2172DPPC   C4B47760  19.637  -6.587  13.148 -0.0937 -0.0565  0.2007
 2173DPPC   NC347761  26.073  -3.582  12.087  0.4389  0.2969  0.0737
 2173DPPC   PO447762  25.869  -3.596  12.585 -0.1808  0.2231 -0.0480
 2173DPPC   GL147763  25.474  -3.620  12.800  0.2502 -0.0027 -0.0948
 2173DPPC   GL247764  25.622  -4.010  12.936 -0.1261 -0.2847 -0.1420
 2173DPPC   C1A47765  25.345  -3.387  13.215 -0.1486  0.3972 -0.1324
 2173DPPC   C2A47766  25.217  -3.137  13.560  0.0700 -0.3463 -0.1536
 2173DPPC   C3A47767  25.028  -2.789  13.768 -0.0734 -0.0751  0.0999
 2173DPPC   C4A47768  24.725  -2.703  14.044 -0.3679  0.1170 -0.0084
 2173DPPC   C1B47769  25.591  -3.788  13.371  0.2014 -0.0978  0.2539
 2173DPPC   C2B47770  25.815  -3.501  13.630  0.1650 -0.0229  0.3442
 2173DPPC   C3B47771  25.824  -3.600  14.112 -0.2606  0.1690 -0.2881
 2173DPPC   C4B47772  25.544  -3.820  14.253  0.2461 -0.3029 -0.1706
 2174DPPC   NC347773  22.852   9.719  34.061 -0.0471 -0.1879  0.1848
 2174DPPC   PO447774  23.164   9.981  33.769  0.0015 -0.0817 -0.3483
 2174DPPC   GL147775  23.105   9.656  33.485 -0.1225 -0.1991 -0.2093
 2174DPPC   GL247776  23.498   9.499  33.323  0.1791 -0.1910 -0.0818
 2174DPPC   C1A47777  22.817   9.380  33.342 -0.1852 -0.0058 -0.3876
 2174DPPC   C2A47778  22.760   9.026  33.254  0.1403  0.0648 -0.2998
 2174DPPC   C3A47779  22.397   8.726  33.103 -0.0676 -0.1029 -0.1970
 2174DPPC   C4A47780  22.048   8.870  32.860 -0.1053  0.1974  0.1158
 2174DPPC   C1B47781  23.339   9.107  33.275 -0.3326  0.0643  0.0707
 2174DPPC   C2B47782  23.182   8.750  33.063 -0.0868  0.1695 -0.0293
 2174DPPC   C3B47783  22.809   8.651  32.861  0.2546  0.4380 -0.0707
 2174DPPC   C4B47784  22.439   8.503  32.649 -0.1430 -0.0160 -0.2997
 2175DPPC   NC347785  24.508   0.825  25.065 -0.0049 -0.5024 -0.2420
 2175DPPC   PO447786  24.372   0.714  24.666 -0.1915  0.0755  0.1605
 2175DPPC   GL147787  24.600   0.413  24.719  0.0666  0.2055 -0.3259
 2175DPPC   GL247788  24.881   0.420  24.611  0.1093  0.2028 -0.0342
 2175DPPC   C1A47789  24.932  -0.006  24.780 -0.0423  0.0616  0.2369
 2175DPPC   C2A47790  24.930  -0.462  24.864 -0.0802 -0.2352  0.4535
 2175DPPC   C3A47791  25.123  -0.882  24.825 -0.0133  0.1736  0.2125
 2175DPPC   C4A47792  24.920  -1.224  24.744 -0.2451 -0.0267 -0.1725
 2175DPPC   C1B47793  25.178   0.231  24.386 -0.0959  0.0597 -0.1497
 2175DPPC   C2B47794  25.399   0.019  24.613 -0.2446  0.2056  0.1835
 2175DPPC   C3B47795  25.690  -0.175  24.656 -0.2813 -0.0611  0.0762
 2175DPPC   C4B47796  26.138  -0.282  24.539 -0.0806  0.2165 -0.2930
 2176DPPC   NC347797  25.108   2.781  15.020 -0.0153  0.1252 -0.0315
 2176DPPC   PO447798  25.114   2.925  14.508 -0.2081 -0.0409 -0.2539
 2176DPPC   GL147799  24.623   2.824  14.688 -0.0490  0.3562 -0.2470
 2176DPPC   GL247800  24.550   2.473  14.392 -0.0027 -0.1657 -0.0571
 2176DPPC   C1A47801  24.285   2.856  14.867  0.0802  0.2557 -0.0548
 2176DPPC   C2A47802  24.061   2.710  15.175  0.1782 -0.2347 -0.1911
 2176DPPC   C3A47803  23.858   2.749  15.502 -0.0770 -0.1977  0.0125
 2176DPPC   C4A47804  23.406   2.522  15.657  0.0382 -0.0215 -0.0701
 2176DPPC   C1B47805  24.242   2.377  14.726 -0.1479  0.0996  0.1138
 2176DPPC   C2B47806  24.057   2.202  15.134  0.0818 -0.1306 -0.0619
 2176DPPC   C3B47807  23.920   2.123  15.525  0.0670 -0.0809 -0.0881
 2176DPPC   C4B47808  23.562   2.052  15.832 -0.2313  0.2468  0.1210
 2177DPPC   NC347809  16.886  11.547  15.477 -0.2985  0.2302  0.1341
 2177DPPC   PO447810  16.925  11.207  15.163 -0.1564 -0.1428 -0.0518
 2177DPPC   GL147811  16.808  11.001  15.510 -0.0787 -0.2876  0.0729
 2177DPPC   GL247812  16.506  10.936  15.620 -0.0693  0.3566  0.1974
 2177DPPC   C1A47813  16.927  10.608  15.794 -0.1903 -0.0745  0.1011
 2177DPPC   C2A47814  16.948  10.396  16.212 -0.2107 -0.1480 -0.0689
 2177DPPC   C3A47815  17.038  10.093  16.556  0.1644  0.2404  0.1581
 2177DPPC   C4A47816  17.013   9.834  16.977  0.0845  0.1370 -0.1885
 2177DPPC   C1B47817  16.564  10.834  16.078  0.3223  0.1332  0.0178
 2177DPPC   C2B47818  16.442  10.431  16.281 -0.2299 -0.1775 -0.1760
 2177DPPC   C3B47819  16.354   9.909  16.223 -0.3906 -0.0066  0.1130
 2177DPPC   C4B47820  16.469   9.609  15.883 -0.0383 -0.4534 -0.0187
 2178DPPC   NC347821  26.348  10.303  31.142  0.0452 -0.1803  0.0027
 2178DPPC   PO447822  26.380  10.380  30.740 -0.2468 -0.3717 -0.2916
 2178DPPC   GL147823  26.098  10.116  30.475  0.1452  0.0179 -0.0434
 2178DPPC   GL247824  25.787  10.149  30.631  0.0883 -0.0009 -0.1301
 2178DPPC   C1A47825  25.968   9.808  30.280 -0.3340  0.1653  0.1981
 2178DPPC   C2A47826  26.116   9.460  29.918  0.1782 -0.2138 -0.2182
 2178DPPC   C3A47827  25.909   9.109  29.661  0.1027 -0.0003  0.2378
 2178DPPC   C4A47828  25.951   8.914  29.294 -0.4287 -0.0404  0.0058
 2178DPPC   C1B47829  25.515   9.847  30.416  0.0555 -0.3692  0.0575
 2178DPPC   C2B47830  25.488   9.517  30.164  0.0137 -0.4495  0.1342
 2178DPPC   C3B47831  25.475   9.098  29.875  0.3775  0.1621  0.0552
 2178DPPC   C4B47832  25.550   8.698  29.617 -0.0761 -0.0040  0.0226
 2179DPPC   NC347833  13.770  -2.224  17.965  0.0269  0.2112  0.0286
 2179DPPC   PO447834  14.018  -1.953  17.722 -0.4228 -0.0265  0.4643
 2179DPPC   GL147835  14.048  -1.926  17.302 -0.2248  0.1970  0.2690
 2179DPPC   GL247836  14.339  -1.817  17.095  0.1410  0.3320 -0.2622
 2179DPPC   C1A47837  13.927  -2.195  16.897 -0.2418  0.1075 -0.0285
 2179DPPC   C2A47838  14.116  -2.415  16.522  0.0625 -0.2074 -0.0083
 2179DPPC   C3A47839  14.326  -2.402  16.155 -0.0192  0.1347  0.1957
 2179DPPC   C4A47840  14.443  -2.696  15.883  0.2896 -0.0306  0.1305
 2179DPPC   C1B47841  14.284  -1.990  16.658 -0.0845 -0.2564 -0.1541
 2179DPPC   C2B47842  14.130  -1.962  16.271 -0.1040  0.1880 -0.3430
 2179DPPC   C3B47843  13.974  -1.759  15.882 -0.4751 -0.1613  0.1890
 2179DPPC   C4B47844  14.093  -1.423  15.604  0.0577 -0.0844  0.1306
 2180DPPC   NC347845   3.408   3.155  28.848  0.0915 -0.2833  0.0104
 2180DPPC   PO447846   3.135   3.412  28.632  0.0396 -0.4916  0.0749
 2180DPPC   GL147847   3.560   3.412  28.504 -0.1719  0.0233 -0.3875
 2180DPPC   GL247848   3.682   3.614  28.243 -0.1394 -0.0095 -0.1343
 2180DPPC   C1A47849   4.027   3.330  28.463 -0.0010  0.1807 -0.3380
 2180DPPC   C2A47850   4.369   3.143  28.357  0.0935  0.1468 -0.0178
 2180DPPC   C3A47851   4.672   3.237  28.123  0.0031 -0.1589  0.0702
 2180DPPC   C4A47852   4.991   3.102  27.931 -0.0251  0.1285  0.0730
 2180DPPC   C1B47853   3.973   3.874  28.321 -0.0372 -0.1604 -0.1984
 2180DPPC   C2B47854   4.365   4.070  28.350  0.1599  0.4114  0.3758
 2180DPPC   C3B47855   4.701   3.894  28.129 -0.1331 -0.0087 -0.0676
 2180DPPC   C4B47856   5.076   4.037  28.172 -0.1613 -0.0596  0.0253
 2181DPPC   NC347857   8.762  -5.071  30.631  0.1792 -0.1259 -0.0252
 2181DPPC   PO447858   8.658  -4.831  31.048 -0.0145 -0.3923 -0.1380
 2181DPPC   GL147859   8.853  -4.484  30.832  0.1317  0.2227  0.0275
 2181DPPC   GL247860   9.165  -4.449  30.783 -0.2072  0.0556  0.0987
 2181DPPC   C1A47861   8.753  -4.187  30.502  0.3179  0.1404 -0.2958
 2181DPPC   C2A47862   8.642  -4.014  30.133 -0.0073  0.0434 -0.2717
 2181DPPC   C3A47863   8.534  -3.679  29.843 -0.0820 -0.1565  0.1519
 2181DPPC   C4A47864   8.321  -3.442  29.505  0.0840 -0.2575 -0.1904
 2181DPPC   C1B47865   9.375  -4.053  30.581 -0.0547 -0.1850 -0.1881
 2181DPPC   C2B47866   9.427  -3.655  30.406 -0.0134 -0.1806 -0.1274
 2181DPPC   C3B47867   9.655  -3.368  30.239  0.0471 -0.0576 -0.2057
 2181DPPC   C4B47868   9.778  -3.099  29.945  0.2109  0.0589 -0.1676
 2182DPPC   NC347869   9.142   5.304  20.389  0.1624  0.1499 -0.0705
 2182DPPC   PO447870   8.982   5.664  20.627 -0.0644  0.3509 -0.2389
 2182DPPC   GL147871   8.808   5.956  20.365  0.1985  0.0581 -0.0241
 2182DPPC   GL247872   8.956   6.240  20.522 -0.0605  0.0287  0.0774
 2182DPPC   C1A47873   8.838   6.134  20.002 -0.2199  0.0974  0.2770
 2182DPPC   C2A47874   8.766   6.226  19.637 -0.1819  0.1781 -0.0493
 2182DPPC   C3A47875   8.570   6.058  19.272  0.2419 -0.1549 -0.1164
 2182DPPC   C4A47876   8.183   5.959  19.178 -0.0590 -0.1126 -0.0771
 2182DPPC   C1B47877   8.645   6.553  20.432  0.0315  0.3511  0.0897
 2182DPPC   C2B47878   8.300   6.648  20.107 -0.1413  0.2369 -0.1703
 2182DPPC   C3B47879   8.011   6.708  19.936  0.0017 -0.1754  0.1411
 2182DPPC   C4B47880   7.712   7.033  19.908 -0.1593 -0.2561 -0.1228
 2183DPPC   NC347881  24.234  -6.074  12.732  0.0773  0.3138  0.0025
 2183DPPC   PO447882  23.882  -5.815  12.576  0.1401  0.0366  0.0033
 2183DPPC   GL147883  23.819  -6.204  12.941  0.0220 -0.2320 -0.1538
 2183DPPC   GL247884  23.529  -6.408  12.841 -0.2023 -0.0733 -0.0193
 2183DPPC   C1A47885  23.633  -6.180  13.431  0.2282  0.0941  0.2053
 2183DPPC   C2A47886  23.714  -5.983  13.877 -0.1636  0.0721  0.0948
 2183DPPC   C3A47887  23.637  -5.508  14.134 -0.0448 -0.0422 -0.0041
 2183DPPC   C4A47888  23.662  -5.386  14.499 -0.0764  0.0013 -0.5191
 2183DPPC   C1B47889  23.290  -6.517  13.231  0.3449 -0.0678 -0.3271
 2183DPPC   C2B47890  23.353  -6.702  13.627  0.0452 -0.0739 -0.3492
 2183DPPC   C3B47891  23.138  -7.065  13.763 -0.0525 -0.2061  0.0971
 2183DPPC   C4B47892  23.079  -7.393  14.171 -0.0630  0.1548 -0.1657
 2184DPPC   NC347893  11.486  12.918  18.615 -0.2208 -0.2822 -0.1817
 2184DPPC   PO447894  11.610  12.626  18.261 -0.1876 -0.1718 -0.2625
 2184DPPC   GL147895  11.739  12.414  18.560  0.3485 -0.1404 -0.0985
 2184DPPC   GL247896  11.900  12.607  18.808  0.1296 -0.0844  0.2871
 2184DPPC   C1A47897  12.078  12.163  18.751 -0.2981  0.0603  0.2378
 2184DPPC   C2A47898  12.042  11.811  19.036 -0.0042 -0.0881  0.2577
 2184DPPC   C3A47899  12.407  11.632  19.321  0.0121 -0.0698 -0.0513
 2184DPPC   C4A47900  12.582  11.424  19.668 -0.0545 -0.0225 -0.1645
 2184DPPC   C1B47901  12.304  12.644  18.830 -0.1846 -0.1736  0.1571
 2184DPPC   C2B47902  12.588  12.288  18.912 -0.2525  0.2934  0.0945
 2184DPPC   C3B47903  12.582  11.821  18.940 -0.0320 -0.2046 -0.1437
 2184DPPC   C4B47904  12.880  11.533  18.668  0.0210  0.0322  0.4848
 2185DPPC   NC347905   6.730   3.329  25.068 -0.1695 -0.0876  0.0409
 2185DPPC   PO447906   7.031   3.285  24.709  0.6143  0.0903 -0.1847
 2185DPPC   GL147907   6.573   3.227  24.568  0.1932  0.2261  0.2694
 2185DPPC   GL247908   6.404   3.414  24.379 -0.0722 -0.0852 -0.1333
 2185DPPC   C1A47909   6.137   2.967  24.553  0.1139 -0.1484 -0.1357
 2185DPPC   C2A47910   5.773   3.081  24.513  0.0348 -0.2738 -0.0385
 2185DPPC   C3A47911   5.521   3.413  24.803  0.1685  0.1350 -0.0670
 2185DPPC   C4A47912   5.022   3.489  24.739  0.1850 -0.2848 -0.0042
 2185DPPC   C1B47913   5.935   3.579  24.346 -0.0442 -0.0296 -0.4074
 2185DPPC   C2B47914   5.611   3.999  24.341 -0.0362  0.1290  0.0389
 2185DPPC   C3B47915   5.269   4.323  24.168  0.1543 -0.0006  0.1190
 2185DPPC   C4B47916   5.227   4.498  23.808 -0.1790 -0.4479  0.0120
 2186DPPC   NC347917   9.579   9.977  25.497 -0.0936 -0.2885  0.1151
 2186DPPC   PO447918   9.969  10.275  25.268 -0.1423  0.1623 -0.1395
 2186DPPC   GL147919   9.645  10.537  25.076  0.1305 -0.1423  0.1865
 2186DPPC   GL247920   9.593  10.886  25.244  0.1224  0.3490 -0.2416
 2186DPPC   C1A47921   9.230  10.430  24.883  0.0095  0.0129 -0.1444
 2186DPPC   C2A47922   8.900  10.605  24.587 -0.0512  0.0420  0.1367
 2186DPPC   C3A47923   8.569  10.728  24.681  0.3500 -0.0780  0.1848
 2186DPPC   C4A47924   8.150  10.836  24.508 -0.0142 -0.0257 -0.2105
 2186DPPC   C1B47925   9.272  11.312  25.344 -0.2374 -0.1075 -0.1546
 2186DPPC   C2B47926   9.016  11.628  25.082 -0.3506  0.0020 -0.0965
 2186DPPC   C3B47927   8.857  11.524  24.676 -0.0243  0.0842 -0.0201
 2186DPPC   C4B47928   8.884  11.497  24.325  0.2385  0.0606  0.1578
 2187DPPC   NC347929  23.115  -1.590  10.290  0.1096  0.0282  0.0311
 2187DPPC   PO447930  23.433  -1.942  10.323 -0.2947 -0.0410 -0.1903
 2187DPPC   GL147931  23.303  -1.964  10.782 -0.0532 -0.0147 -0.0644
 2187DPPC   GL247932  23.052  -1.595  10.773  0.0776 -0.2753  0.2122
 2187DPPC   C1A47933  23.323  -1.697  11.161 -0.1057  0.0308  0.4122
 2187DPPC   C2A47934  23.085  -1.721  11.480 -0.1576  0.1738 -0.2296
 2187DPPC   C3A47935  22.815  -1.654  11.884  0.0782  0.3682  0.1190
 2187DPPC   C4A47936  22.874  -1.541  12.377 -0.2172 -0.1877 -0.2953
 2187DPPC   C1B47937  22.744  -1.549  10.897 -0.0650  0.5003 -0.4252
 2187DPPC   C2B47938  22.615  -1.685  11.305 -0.1016  0.1102  0.1439
 2187DPPC   C3B47939  22.366  -1.870  11.603  0.2388 -0.0774 -0.3308
 2187DPPC   C4B47940  22.132  -1.662  11.827  0.2388 -0.0416 -0.0952
 2188DPPC   NC347941  27.664   5.758  31.792 -0.0202 -0.1491  0.3123
 2188DPPC   PO447942  27.552   5.410  31.596 -0.0637 -0.4187 -0.2917
 2188DPPC   GL147943  26.972   5.374  31.642 -0.0955  0.5724  0.1015
 2188DPPC   GL247944  26.796   5.066  31.675  0.2671  0.0564 -0.2077
 2188DPPC   C1A47945  26.708   5.518  31.288  0.1279 -0.0388 -0.1515
 2188DPPC   C2A47946  26.382   5.271  31.231  0.0450  0.2158 -0.0241
 2188DPPC   C3A47947  26.145   5.181  30.899  0.2090  0.0184 -0.3274
 2188DPPC   C4A47948  25.833   4.931  30.713  0.0035  0.1567  0.3645
 2188DPPC   C1B47949  26.448   4.903  31.593 -0.0446 -0.1505 -0.2344
 2188DPPC   C2B47950  25.906   5.060  31.603 -0.0397 -0.0165  0.0888
 2188DPPC   C3B47951  25.622   5.179  31.389 -0.2221 -0.0517  0.2986
 2188DPPC   C4B47952  25.397   5.450  31.049  0.0177 -0.0741  0.2138
 2189DPPC   NC347953  24.304   1.366  23.768 -0.0815 -0.1315 -0.0476
 2189DPPC   PO447954  24.334   1.828  23.777 -0.2648 -0.0745 -0.0032
 2189DPPC   GL147955  24.769   1.501  23.678  0.2391  0.3256  0.1312
 2189DPPC   GL247956  24.980   1.720  23.736  0.0385  0.0818  0.4895
 2189DPPC   C1A47957  25.149   1.296  23.380  0.2496  0.1699  0.3335
 2189DPPC   C2A47958  25.426   1.200  23.040 -0.0040  0.2308 -0.1834
 2189DPPC   C3A47959  25.812   1.219  22.798  0.0866  0.0307 -0.2028
 2189DPPC   C4A47960  26.163   1.101  22.495 -0.0008  0.0133  0.3385
 2189DPPC   C1B47961  25.265   1.417  23.903  0.0264 -0.3455  0.1520
 2189DPPC   C2B47962  25.586   1.021  24.034  0.0432 -0.0570  0.0514
 2189DPPC   C3B47963  25.942   0.845  23.911  0.1666 -0.1577  0.2922
 2189DPPC   C4B47964  26.188   0.626  23.563  0.0988  0.2026 -0.1003
 2190DPPC   NC347965  17.429  -4.631  10.573 -0.3638  0.1092 -0.0010
 2190DPPC   PO447966  17.133  -4.340  10.730 -0.0440  0.0096 -0.0871
 2190DPPC   GL147967  17.469  -4.372  10.983 -0.1544 -0.2669  0.3495
 2190DPPC   GL247968  17.744  -4.611  11.074 -0.1576  0.0243 -0.3782
 2190DPPC   C1A47969  17.670  -4.295  11.457  0.2490 -0.0112 -0.3314
 2190DPPC   C2A47970  18.043  -4.315  11.808  0.0174 -0.0571  0.0315
 2190DPPC   C3A47971  18.197  -4.234  12.192  0.0977  0.0156 -0.1742
 2190DPPC   C4A47972  18.137  -3.997  12.554  0.0346 -0.2513  0.0195
 2190DPPC   C1B47973  18.074  -4.524  11.220 -0.1993  0.2221  0.1392
 2190DPPC   C2B47974  18.501  -4.489  11.123 -0.0028  0.2499 -0.2179
 2190DPPC   C3B47975  18.703  -4.406  10.731 -0.0403 -0.0004 -0.2051
 2190DPPC   C4B47976  18.921  -4.175  10.425 -0.0102  0.1484  0.0275
 2191DPPC   NC347977  11.431  14.340  32.681  0.0203 -0.2184 -0.1391
 2191DPPC   PO447978  11.404  13.926  32.891 -0.3018  0.1795 -0.0836
 2191DPPC   GL147979  11.599  13.609  32.782 -0.1459 -0.3550 -0.3579
 2191DPPC   GL247980  11.656  13.304  32.943 -0.0135 -0.0399 -0.0772
 2191DPPC   C1A47981  11.763  13.297  32.455 -0.0468 -0.3358 -0.2002
 2191DPPC   C2A47982  11.763  13.183  32.031 -0.1930  0.0166 -0.3302
 2191DPPC   C3A47983  11.581  12.733  31.847 -0.1407 -0.4073 -0.1902
 2191DPPC   C4A47984  11.334  12.437  31.703 -0.0331  0.1536 -0.0125
 2191DPPC   C1B47985  11.515  12.935  32.718 -0.2632  0.2837  0.0515
 2191DPPC   C2B47986  11.433  12.578  32.465  0.1731 -0.0044 -0.0681
 2191DPPC   C3B47987  11.124  12.344  32.126 -0.0094  0.0471  0.1703
 2191DPPC   C4B47988  10.825  12.034  32.270 -0.0552 -0.1637 -0.1363
 2192DPPC   NC347989   4.126   5.268  30.818  0.1431  0.2243 -0.0747
 2192DPPC   PO447990   3.970   5.199  30.356  0.2309 -0.1835 -0.0934
 2192DPPC   GL147991   4.292   5.075  30.359 -0.1375 -0.1193  0.3654
 2192DPPC   GL247992   4.349   5.109  30.012 -0.4164 -0.1407 -0.0058
 2192DPPC   C1A47993   4.770   4.973  30.220 -0.0123 -0.0522  0.0156
 2192DPPC   C2A47994   5.114   5.112  30.406 -0.3850  0.0317  0.0610
 2192DPPC   C3A47995   5.332   4.904  30.865 -0.1574  0.1016 -0.2047
 2192DPPC   C4A47996   5.358   4.990  31.294 -0.2550  0.3499 -0.2308
 2192DPPC   C1B47997   4.678   5.197  29.722 -0.0193  0.5324 -0.1608
 2192DPPC   C2B47998   4.989   5.217  29.432  0.1183 -0.1940 -0.0750
 2192DPPC   C3B47999   5.394   5.456  29.228  0.0901 -0.1738  0.1211
 2192DPPC   C4B48000   5.822   5.628  29.229 -0.0779 -0.0569  0.1927
 2193DPPC   NC348001  22.722  -5.049  29.169 -0.0954 -0.0913  0.2496
 2193DPPC   PO448002  22.833  -5.041  28.786 -0.2285  0.2140 -0.0109
 2193DPPC   GL148003  22.703  -4.673  28.789 -0.0886 -0.0566 -0.2317
 2193DPPC   GL248004  22.449  -4.768  28.614  0.0615  0.3183 -0.1481
 2193DPPC   C1A48005  22.927  -4.289  28.875  0.1213  0.0739  0.0186
 2193DPPC   C2A48006  22.854  -3.848  29.032  0.0131 -0.0162  0.0393
 2193DPPC   C3A48007  22.482  -3.624  29.152 -0.1478 -0.0888  0.3149
 2193DPPC   C4A48008  22.170  -3.609  29.335  0.3317 -0.1171  0.5523
 2193DPPC   C1B48009  22.378  -4.334  28.799  0.1853  0.1034 -0.2635
 2193DPPC   C2B48010  22.490  -3.780  28.641 -0.1131 -0.2403 -0.1502
 2193DPPC   C3B48011  22.507  -3.538  28.338 -0.1780 -0.1907 -0.0228
 2193DPPC   C4B48012  22.436  -3.060  28.177 -0.0945  0.1955 -0.0759
 2194DPPC   NC348013  21.764   4.006  12.526  0.0709 -0.0318  0.3414
 2194DPPC   PO448014  21.883   3.700  12.197  0.0383 -0.0600  0.0897
 2194DPPC   GL148015  21.665   3.411  12.414  0.2412 -0.1606  0.2938
 2194DPPC   GL248016  21.577   3.279  12.141 -0.0151  0.0152 -0.0689
 2194DPPC   C1A48017  21.692   3.123  12.611 -0.1921  0.1340 -0.3490
 2194DPPC   C2A48018  21.515   2.636  12.850  0.0373 -0.3889 -0.3666
 2194DPPC   C3A48019  21.514   2.530  13.283 -0.1341 -0.0106 -0.1131
 2194DPPC   C4A48020  21.260   2.517  13.664  0.0365 -0.1768  0.2475
 2194DPPC   C1B48021  21.428   2.835  12.210  0.0289  0.2501  0.0145
 2194DPPC   C2B48022  21.445   2.345  12.377 -0.0920 -0.3644  0.3556
 2194DPPC   C3B48023  21.475   1.891  12.604 -0.0346 -0.1369  0.2784
 2194DPPC   C4B48024  21.572   1.597  12.873  0.0291  0.1196  0.0697
 2195DPPC   NC348025  12.409  -6.793  17.650 -0.1312  0.1773  0.0100
 2195DPPC   PO448026  12.659  -7.012  17.848 -0.1357  0.2916  0.0752
 2195DPPC   GL148027  12.837  -6.844  18.189  0.4497  0.2554  0.2683
 2195DPPC   GL248028  12.583  -6.824  18.293 -0.0405  0.1115  0.1203
 2195DPPC   C1A48029  12.918  -6.585  18.629 -0.1555 -0.1832 -0.2185
 2195DPPC   C2A48030  13.291  -6.367  18.956  0.0225  0.1817 -0.2554
 2195DPPC   C3A48031  13.600  -6.158  19.138 -0.0996  0.0443 -0.2639
 2195DPPC   C4A48032  13.973  -6.313  19.454 -0.2397  0.2303 -0.1988
 2195DPPC   C1B48033  12.540  -6.406  18.234  0.2201  0.0290  0.0187
 2195DPPC   C2B48034  12.766  -6.002  18.299 -0.0114  0.0010 -0.1463
 2195DPPC   C3B48035  12.767  -5.639  18.619  0.0243  0.0269 -0.1132
 2195DPPC   C4B48036  12.432  -5.308  18.783 -0.0283 -0.0427 -0.0086
 2196DPPC   NC348037  14.450  -7.853  15.096  0.3313 -0.4899 -0.0882
 2196DPPC   PO448038  14.712  -7.955  15.507  0.0948  0.0415 -0.2509
 2196DPPC   GL148039  15.002  -7.640  15.542 -0.1805  0.1606  0.0452
 2196DPPC   GL248040  15.027  -7.353  15.621 -0.0587 -0.4023  0.0985
 2196DPPC   C1A48041  15.391  -7.534  15.323  0.2669 -0.0754 -0.1009
 2196DPPC   C2A48042  15.498  -7.240  15.037  0.0252  0.0853  0.0750
 2196DPPC   C3A48043  15.970  -7.155  14.932 -0.3678 -0.3040  0.0008
 2196DPPC   C4A48044  16.318  -6.990  15.043 -0.0529 -0.3033 -0.0760
 2196DPPC   C1B48045  15.142  -7.309  15.972  0.1990 -0.0188  0.0392
 2196DPPC   C2B48046  15.562  -7.184  16.146  0.1318  0.2281 -0.1361
 2196DPPC   C3B48047  15.656  -7.179  16.506 -0.3324  0.1578 -0.2359
 2196DPPC   C4B48048  15.921  -7.209  16.756 -0.1179  0.1493  0.5301
 2197DPPC   NC348049  11.177   6.491  31.175 -0.2749  0.0556  0.1656
 2197DPPC   PO448050  10.724   6.540  31.153  0.0058 -0.2217 -0.0742
 2197DPPC   GL148051  10.402   6.738  31.523  0.1232 -0.2285  0.1545
 2197DPPC   GL248052  10.197   6.884  31.509  0.2634 -0.0812 -0.2478
 2197DPPC   C1A48053  10.500   6.786  31.961 -0.0274  0.0570  0.1551
 2197DPPC   C2A48054  10.401   6.728  32.392 -0.3546 -0.1181 -0.1793
 2197DPPC   C3A48055  10.498   6.859  32.749  0.2556 -0.2078 -0.4238
 2197DPPC   C4A48056  10.391   7.037  33.125  0.2658 -0.2552 -0.2398
 2197DPPC   C1B48057  10.070   7.074  31.956 -0.0078  0.1060  0.2957
 2197DPPC   C2B48058   9.868   6.935  32.374 -0.0534 -0.2035 -0.0265
 2197DPPC   C3B48059   9.422   6.994  32.489  0.3677  0.0961  0.2169
 2197DPPC   C4B48060   9.230   6.987  32.983 -0.3772  0.0356  0.2684
 2198DPPC   NC348061   3.077   0.177  26.997 -0.0418  0.2028  0.0274
 2198DPPC   PO448062   3.141   0.598  27.046 -0.1286  0.2476  0.1125
 2198DPPC   GL148063   3.598   0.786  27.108  0.1701  0.1129  0.2290
 2198DPPC   GL248064   3.727   0.467  27.241 -0.1661  0.1075 -0.2372
 2198DPPC   C1A48065   3.932   1.050  27.268 -0.1526  0.3755 -0.1715
 2198DPPC   C2A48066   4.462   1.228  27.198  0.0482  0.1133 -0.2019
 2198DPPC   C3A48067   4.847   1.323  27.538  0.0243  0.0088 -0.3087
 2198DPPC   C4A48068   5.232   1.503  27.549 -0.1457 -0.1653  0.4220
 2198DPPC   C1B48069   4.050   0.365  27.008 -0.0190 -0.0998  0.2080
 2198DPPC   C2B48070   4.480   0.127  27.132 -0.0472 -0.1665 -0.1124
 2198DPPC   C3B48071   4.707  -0.112  27.094 -0.0702  0.1640  0.2580
 2198DPPC   C4B48072   4.947  -0.533  27.132  0.1450  0.1207 -0.1941
 2199DPPC   NC348073  13.679  -4.150  24.167  0.0329  0.0630  0.0147
 2199DPPC   PO448074  13.248  -4.212  24.252  0.3066 -0.2999  0.1245
 2199DPPC   GL148075  13.093  -4.630  24.428 -0.2702 -0.0190 -0.0986
 2199DPPC   GL248076  12.756  -4.690  24.480 -0.0787 -0.1306  0.0901
 2199DPPC   C1A48077  13.151  -4.939  24.652 -0.2085 -0.0277 -0.2570
 2199DPPC   C2A48078  13.109  -5.296  24.917  0.1143  0.2404  0.0012
 2199DPPC   C3A48079  13.397  -5.587  25.104 -0.3142 -0.0712  0.1236
 2199DPPC   C4A48080  13.531  -5.772  25.499 -0.1322 -0.2002  0.1023
 2199DPPC   C1B48081  12.924  -5.102  24.223 -0.1578 -0.2425 -0.1202
 2199DPPC   C2B48082  12.687  -5.488  24.275 -0.0818  0.1505 -0.4187
 2199DPPC   C3B48083  12.442  -5.741  24.655 -0.0664  0.0651  0.2106
 2199DPPC   C4B48084  12.132  -5.959  24.878  0.0517  0.0159  0.0505
 2200DPPC   NC348085  10.687  -0.280  29.720  0.0234 -0.0690  0.3397
 2200DPPC   PO448086  10.738  -0.428  30.129 -0.0556  0.2265 -0.1569
 2200DPPC   GL148087  10.636  -0.799  30.361 -0.2542 -0.1026 -0.3472
 2200DPPC   GL248088  10.549  -1.068  30.258 -0.1723 -0.2305 -0.1609
 2200DPPC   C1A48089  10.529  -0.863  30.719 -0.0970 -0.1420  0.0740
 2200DPPC   C2A48090  10.267  -0.900  31.115  0.1091 -0.2552  0.1054
 2200DPPC   C3A48091  10.036  -1.027  31.373  0.0023  0.1681  0.0783
 2200DPPC   C4A48092  10.003  -1.129  31.757 -0.0431 -0.3211  0.0263
 2200DPPC   C1B48093  10.306  -1.319  30.606  0.1715 -0.2124 -0.3637
 2200DPPC   C2B48094   9.967  -1.322  30.863  0.3421  0.0138 -0.0326
 2200DPPC   C3B48095   9.671  -1.625  31.097 -0.2580 -0.1680 -0.0604
 2200DPPC   C4B48096   9.345  -1.775  30.853 -0.0370  0.1004 -0.1316
 2201DPPC   NC348097  17.899   0.165  37.147 -0.0287 -0.0722  0.1687
 2201DPPC   PO448098  17.931   0.173  36.654  0.2220 -0.0378  0.4944
 2201DPPC   GL148099  17.735   0.257  36.226  0.1264 -0.2881 -0.1975
 2201DPPC   GL248100  17.415   0.098  36.273  0.1438  0.0596  0.0739
 2201DPPC   C1A48101  17.798   0.468  35.889  0.3068  0.1165 -0.2054
 2201DPPC   C2A48102  17.959   0.415  35.559 -0.0752 -0.2307 -0.0895
 2201DPPC   C3A48103  18.177   0.527  35.124 -0.2337  0.0692  0.4557
 2201DPPC   C4A48104  18.311   0.395  34.740  0.0744 -0.1484  0.0442
 2201DPPC   C1B48105  17.336   0.327  35.806  0.3199 -0.0477 -0.1099
 2201DPPC   C2B48106  17.508   0.548  35.455 -0.0094 -0.0403  0.0287
 2201DPPC   C3B48107  17.433   0.663  35.027 -0.0635  0.3170  0.4301
 2201DPPC   C4B48108  17.488   1.043  34.768 -0.1435  0.1785 -0.1638
 2202DPPC   NC348109  25.260  10.562  31.779 -0.2640 -0.2734  0.0754
 2202DPPC   PO448110  25.014  10.835  31.653 -0.0688  0.1056  0.0296
 2202DPPC   GL148111  24.769  10.487  31.786  0.4639  0.0348 -0.0379
 2202DPPC   GL248112  24.679  10.369  32.159 -0.1512 -0.1306  0.2843
 2202DPPC   C1A48113  24.500  10.215  31.591  0.2750  0.0333  0.2149
 2202DPPC   C2A48114  24.141   9.886  31.755  0.3513  0.0452  0.0545
 2202DPPC   C3A48115  23.763   9.610  31.653  0.1780 -0.2327 -0.0301
 2202DPPC   C4A48116  23.510   9.139  31.756 -0.2228 -0.2456  0.0794
 2202DPPC   C1B48117  24.545   9.992  32.028  0.0871 -0.1333 -0.2677
 2202DPPC   C2B48118  24.408   9.535  32.145 -0.1706 -0.3615 -0.3651
 2202DPPC   C3B48119  24.004   9.422  32.393 -0.1950  0.2722  0.2629
 2202DPPC   C4B48120  23.550   9.271  32.260  0.1943 -0.3284  0.0418
 2203DPPC   NC348121  28.872   1.291  26.906 -0.0166  0.0536 -0.0062
 2203DPPC   PO448122  28.820   0.871  26.954 -0.0454 -0.3320  0.1985
 2203DPPC   GL148123  28.407   0.965  26.752  0.1720  0.1673  0.0304
 2203DPPC   GL248124  28.177   1.178  26.533  0.2022  0.0227  0.2190
 2203DPPC   C1A48125  28.064   0.635  26.783 -0.1417 -0.2123  0.2676
 2203DPPC   C2A48126  27.638   0.578  26.751  0.0294  0.0069 -0.1630
 2203DPPC   C3A48127  27.272   0.731  26.798 -0.3032  0.1056  0.1522
 2203DPPC   C4A48128  26.885   0.925  26.889  0.0529  0.3560 -0.0330
 2203DPPC   C1B48129  28.015   0.852  26.199 -0.1330  0.2592 -0.1792
 2203DPPC   C2B48130  27.736   0.836  25.989  0.0832  0.0756 -0.2827
 2203DPPC   C3B48131  27.300   0.853  25.812  0.1925 -0.2906  0.0079
 2203DPPC   C4B48132  26.845   0.644  25.893 -0.1274  0.0843 -0.0876
 2204DPPC   NC348133  23.529  14.192  27.788 -0.2117 -0.3359 -0.0515
 2204DPPC   PO448134  23.561  14.284  28.281 -0.2999  0.0321  0.0219
 2204DPPC   GL148135  23.389  13.911  28.186 -0.0675 -0.0890  0.1508
 2204DPPC   GL248136  23.066  14.025  28.028 -0.1191  0.0692 -0.2873
 2204DPPC   C1A48137  23.320  13.473  28.133  0.0263 -0.0493 -0.1689
 2204DPPC   C2A48138  23.108  13.146  27.872 -0.2959 -0.1653 -0.0955
 2204DPPC   C3A48139  23.027  12.957  27.561 -0.0673  0.0778 -0.1425
 2204DPPC   C4A48140  23.120  12.517  27.587 -0.0484 -0.0842 -0.3795
 2204DPPC   C1B48141  22.840  13.709  28.058 -0.2019 -0.3427  0.0295
 2204DPPC   C2B48142  22.624  13.446  28.187  0.0801  0.1882  0.0651
 2204DPPC   C3B48143  22.276  13.111  28.086 -0.0196  0.0561 -0.2050
 2204DPPC   C4B48144  22.049  12.671  28.235 -0.0430 -0.3529  0.2899
 2205DPPC   NC348145   4.844  -2.078  20.612  0.0090 -0.1970  0.0752
 2205DPPC   PO448146   5.032  -1.750  20.288 -0.0015  0.2333 -0.0421
 2205DPPC   GL148147   5.243  -1.388  20.537  0.2519 -0.0144 -0.1174
 2205DPPC   GL248148   5.261  -1.028  20.326  0.0643  0.1316 -0.1583
 2205DPPC   C1A48149   5.590  -1.145  20.704 -0.0247 -0.2167  0.3407
 2205DPPC   C2A48150   5.973  -1.012  20.951  0.0980  0.1161 -0.0755
 2205DPPC   C3A48151   6.300  -1.163  21.243 -0.2298 -0.2853 -0.1871
 2205DPPC   C4A48152   6.607  -1.000  21.529  0.3003 -0.1164 -0.2492
 2205DPPC   C1B48153   5.700  -0.909  20.135 -0.1424  0.2275  0.2235
 2205DPPC   C2B48154   5.852  -0.584  19.880  0.3895  0.1380 -0.1032
 2205DPPC   C3B48155   5.962  -0.138  19.553  0.1022  0.1117 -0.2507
 2205DPPC   C4B48156   6.075   0.267  19.559  0.4169 -0.0903  0.0406
 2206DPPC   NC348157  15.256  16.162  29.163 -0.2395 -0.2999  0.0722
 2206DPPC   PO448158  15.072  16.343  29.537  0.1179  0.2396  0.1542
 2206DPPC   GL148159  14.825  15.983  29.379 -0.0227  0.3444  0.0818
 2206DPPC   GL248160  14.751  15.706  29.526 -0.1934 -0.1761  0.4997
 2206DPPC   C1A48161  14.735  15.745  28.986  0.0412 -0.0278  0.3193
 2206DPPC   C2A48162  14.831  15.298  28.857 -0.1484  0.1635  0.0161
 2206DPPC   C3A48163  14.838  15.082  29.194  0.2638 -0.1061 -0.0975
 2206DPPC   C4A48164  14.569  15.219  29.606  0.0960  0.2373  0.1617
 2206DPPC   C1B48165  15.045  15.360  29.537 -0.3218 -0.2221 -0.0718
 2206DPPC   C2B48166  15.332  15.300  29.093 -0.0087  0.2895 -0.1056
 2206DPPC   C3B48167  15.721  15.413  28.779  0.0160 -0.0767  0.3078
 2206DPPC   C4B48168  16.124  15.532  28.926 -0.2346 -0.1381  0.0748
 2207DPPC   NC348169  10.863  -3.298  25.983 -0.1460 -0.0449 -0.1520
 2207DPPC   PO448170  10.384  -3.476  25.739  0.0616 -0.2858  0.1105
 2207DPPC   GL148171  10.179  -3.767  25.922  0.2103 -0.4169 -0.1230
 2207DPPC   GL248172  10.161  -3.951  25.709  0.1149 -0.3047  0.1341
 2207DPPC   C1A48173   9.900  -3.857  26.141 -0.0395 -0.2953 -0.0566
 2207DPPC   C2A48174   9.605  -4.163  26.352  0.1781 -0.1254 -0.1746
 2207DPPC   C3A48175   9.250  -4.294  26.581 -0.3293 -0.0166 -0.0038
 2207DPPC   C4A48176   8.772  -4.325  26.693  0.0845  0.1264 -0.1977
 2207DPPC   C1B48177  10.070  -4.327  25.885 -0.3198 -0.0113  0.2941
 2207DPPC   C2B48178   9.775  -4.614  25.884  0.0254  0.1636  0.2274
 2207DPPC   C3B48179   9.306  -4.694  25.722  0.0655  0.0757  0.1216
 2207DPPC   C4B48180   9.038  -4.862  25.335 -0.0225 -0.0942  0.0637
 2208DPPC   NC348181  23.385  -5.415  11.766 -0.4045  0.2066  0.6141
 2208DPPC   PO448182  22.989  -5.249  11.546  0.0997  0.1392 -0.1570
 2208DPPC   GL148183  22.598  -5.106  11.655  0.0623 -0.2778 -0.2679
 2208DPPC   GL248184  22.280  -5.237  11.488 -0.0191  0.1630 -0.2015
 2208DPPC   C1A48185  22.278  -4.953  11.926 -0.0843  0.3461 -0.1786
 2208DPPC   C2A48186  22.210  -5.084  12.280 -0.0883 -0.4451  0.0728
 2208DPPC   C3A48187  22.000  -5.070  12.685 -0.0949  0.0414  0.3954
 2208DPPC   C4A48188  22.031  -4.972  13.146 -0.3099  0.3980  0.1929
 2208DPPC   C1B48189  21.869  -5.165  11.532 -0.1404 -0.2891  0.2311
 2208DPPC   C2B48190  21.743  -4.813  11.839 -0.1905  0.0266  0.1027
 2208DPPC   C3B48191  21.380  -4.639  11.965  0.3256  0.3551 -0.1712
 2208DPPC   C4B48192  20.958  -4.598  12.102 -0.0256  0.0634  0.3687
 2209DPPC   NC348193   6.644  11.621  20.441  0.0311  0.0373 -0.0520
 2209DPPC   PO448194   6.588  11.353  20.272 -0.1460 -0.0535  0.0327
 2209DPPC   GL148195   6.883  11.002  20.330  0.1566  0.1708  0.1081
 2209DPPC   GL248196   6.712  10.719  20.485  0.1350  0.1862 -0.1725
 2209DPPC   C1A48197   7.299  10.734  20.374  0.2118 -0.1047  0.2353
 2209DPPC   C2A48198   7.761  10.675  20.506  0.2979 -0.2073 -0.0943
 2209DPPC   C3A48199   8.167  10.603  20.365 -0.2063  0.4426 -0.0066
 2209DPPC   C4A48200   8.411  10.650  19.870  0.1576  0.1243 -0.0516
 2209DPPC   C1B48201   6.953  10.524  20.776 -0.0125 -0.0553 -0.0498
 2209DPPC   C2B48202   7.189  10.296  21.103 -0.1139 -0.0853  0.3077
 2209DPPC   C3B48203   7.539  10.246  21.425 -0.0806  0.1198 -0.1076
 2209DPPC   C4B48204   7.474  10.313  22.000 -0.2453 -0.0012  0.1266
 2210DPPC   NC348205  23.594   4.027  22.487  0.3145 -0.0493  0.1095
 2210DPPC   PO448206  23.975   3.911  22.378  0.0593  0.1847 -0.2332
 2210DPPC   GL148207  24.282   4.044  22.103 -0.1847  0.1347  0.1115
 2210DPPC   GL248208  24.267   3.711  21.884  0.0972  0.1034  0.0874
 2210DPPC   C1A48209  24.580   4.189  22.039  0.0877  0.0435 -0.2632
 2210DPPC   C2A48210  24.939   4.235  21.787  0.1149 -0.0590  0.0019
 2210DPPC   C3A48211  25.370   4.001  21.713 -0.0187  0.2011 -0.1484
 2210DPPC   C4A48212  25.779   3.834  21.424  0.2760 -0.0840  0.6730
 2210DPPC   C1B48213  24.554   3.921  21.556  0.0670  0.2486  0.1552
 2210DPPC   C2B48214  25.000   4.054  21.357  0.1212 -0.4038 -0.0275
 2210DPPC   C3B48215  25.430   4.153  21.246 -0.1634  0.0271  0.1625
 2210DPPC   C4B48216  25.598   4.137  20.863 -0.3310  0.0991 -0.0277
 2211DPPC   NC348217   9.809   9.780  23.404  0.3320 -0.1469 -0.1648
 2211DPPC   PO448218  10.057   9.565  23.041  0.2619  0.0205 -0.5350
 2211DPPC   GL148219   9.790   9.905  22.864 -0.0814 -0.2288  0.3041
 2211DPPC   GL248220   9.711  10.136  23.111 -0.0062 -0.1148  0.1037
 2211DPPC   C1A48221   9.641  10.132  22.623  0.0180  0.1687  0.1223
 2211DPPC   C2A48222   9.334  10.349  22.427 -0.0647 -0.0415  0.0601
 2211DPPC   C3A48223   9.098  10.714  22.464 -0.2266  0.0158  0.2086
 2211DPPC   C4A48224   8.723  10.932  22.114 -0.0056 -0.1624 -0.2138
 2211DPPC   C1B48225   9.544  10.516  22.968  0.0431  0.0985 -0.2222
 2211DPPC   C2B48226   9.673  10.752  22.477  0.0416 -0.0949 -0.2962
 2211DPPC   C3B48227   9.417  10.922  22.095 -0.1184  0.0152 -0.0177
 2211DPPC   C4B48228   9.551  11.339  21.908  0.2280  0.1288 -0.1957
 2212DPPC   NC348229  16.106  -9.110  16.023  0.0586 -0.1860  0.2681
 2212DPPC   PO448230  16.585  -9.158  16.173  0.0160 -0.2516 -0.1111
 2212DPPC   GL148231  16.497  -8.788  16.440 -0.1946  0.0419 -0.3289
 2212DPPC   GL248232  16.788  -8.744  16.288 -0.0966  0.0091 -0.2902
 2212DPPC   C1A48233  16.458  -8.550  16.730 -0.0664  0.1558 -0.1035
 2212DPPC   C2A48234  16.670  -8.121  16.642  0.0346 -0.3542 -0.0795
 2212DPPC   C3A48235  16.723  -7.742  16.701 -0.0218  0.2565 -0.0090
 2212DPPC   C4A48236  16.855  -7.383  16.845  0.2457 -0.0096  0.2432
 2212DPPC   C1B48237  17.033  -8.449  16.540  0.0791 -0.2914 -0.0306
 2212DPPC   C2B48238  17.169  -8.048  16.660 -0.2945 -0.1451 -0.1511
 2212DPPC   C3B48239  17.280  -7.638  16.776 -0.2162 -0.2172  0.1388
 2212DPPC   C4B48240  17.521  -7.338  16.938  0.1892 -0.0038  0.2974
 2213DPPC   NC348241  10.490  -4.347  32.165 -0.3937 -0.2955 -0.1066
 2213DPPC   PO448242   9.995  -4.462  32.245 -0.3335 -0.0817  0.0321
 2213DPPC   GL148243  10.092  -4.122  31.956  0.1391  0.0591 -0.0866
 2213DPPC   GL248244  10.233  -4.167  31.722 -0.1933 -0.0460  0.0743
 2213DPPC   C1A48245   9.987  -3.769  31.823 -0.1104 -0.0239 -0.0482
 2213DPPC   C2A48246   9.925  -3.371  31.628  0.0615  0.0528 -0.0172
 2213DPPC   C3A48247  10.052  -3.173  31.192  0.0998 -0.2006 -0.0431
 2213DPPC   C4A48248  10.229  -2.856  30.880 -0.3513  0.2743 -0.2526
 2213DPPC   C1B48249  10.442  -3.810  31.604 -0.3353  0.0587 -0.2255
 2213DPPC   C2B48250  10.844  -3.609  31.492 -0.0697 -0.0252  0.2092
 2213DPPC   C3B48251  11.094  -3.351  31.216  0.3973  0.2640 -0.1103
 2213DPPC   C4B48252  11.514  -3.178  31.264 -0.0027  0.0224  0.2283
 2214DPPC   NC348253  27.120   9.897  27.623 -0.1388 -0.3469  0.0594
 2214DPPC   PO448254  27.266   9.709  27.918  0.1284 -0.0913 -0.2455
 2214DPPC   GL148255  26.850   9.428  27.956 -0.0975 -0.2224  0.1929
 2214DPPC   GL248256  26.868   9.165  28.189  0.4292 -0.1914  0.2434
 2214DPPC   C1A48257  26.426   9.389  27.991  0.2037  0.1845  0.2307
 2214DPPC   C2A48258  26.033   9.248  28.031 -0.0040 -0.4247 -0.0603
 2214DPPC   C3A48259  25.769   9.051  28.181  0.4233 -0.0534 -0.2788
 2214DPPC   C4A48260  25.607   8.858  28.025  0.0257  0.0869 -0.0946
 2214DPPC   C1B48261  26.432   8.885  28.275  0.1561 -0.2054  0.0153
 2214DPPC   C2B48262  26.104   8.638  28.326 -0.2411  0.3396  0.2809
 2214DPPC   C3B48263  25.976   8.255  28.458 -0.0632  0.1694  0.0013
 2214DPPC   C4B48264  25.747   7.836  28.454  0.0532 -0.0533 -0.0056
 2215DPPC   NC348265  22.800   0.430  14.965  0.0787 -0.0301 -0.0941
 2215DPPC   PO448266  22.839   0.390  14.541  0.1512 -0.2869 -0.1857
 2215DPPC   GL148267  23.069   0.304  14.260  0.0360  0.1623 -0.4239
 2215DPPC   GL248268  22.898   0.169  13.935 -0.1973  0.1161  0.1391
 2215DPPC   C1A48269  23.383  -0.008  14.151  0.3495 -0.2077  0.4105
 2215DPPC   C2A48270  23.656  -0.329  14.083  0.1344  0.2125 -0.1455
 2215DPPC   C3A48271  23.706  -0.465  13.607  0.0324  0.0802 -0.0630
 2215DPPC   C4A48272  23.777  -0.733  13.301  0.0852 -0.3129  0.2380
 2215DPPC   C1B48273  23.050   0.164  13.537 -0.2595 -0.1329 -0.3945
 2215DPPC   C2B48274  23.345   0.026  13.318 -0.1270 -0.0331 -0.0457
 2215DPPC   C3B48275  23.713  -0.131  13.270  0.2026 -0.1899 -0.0550
 2215DPPC   C4B48276  24.170  -0.069  13.158 -0.0978 -0.0958  0.2094
 2216DPPC   NC348277  21.957  -5.066  16.595 -0.4253  0.2797 -0.0101
 2216DPPC   PO448278  22.264  -4.795  16.892 -0.1337 -0.3210  0.2624
 2216DPPC   GL148279  22.642  -5.177  16.761  0.1262  0.1155  0.1552
 2216DPPC   GL248280  22.361  -5.392  16.749 -0.0321 -0.2601  0.2142
 2216DPPC   C1A48281  23.016  -5.414  16.706  0.0205  0.1885 -0.1377
 2216DPPC   C2A48282  23.422  -5.534  17.141 -0.0208 -0.1171  0.2598
 2216DPPC   C3A48283  23.819  -5.334  17.125 -0.2101  0.0653  0.4236
 2216DPPC   C4A48284  24.150  -5.444  16.977 -0.0666 -0.4626 -0.1055
 2216DPPC   C1B48285  22.498  -5.690  16.504 -0.0728  0.1320  0.1642
 2216DPPC   C2B48286  22.440  -6.032  16.321  0.1657  0.2298  0.1540
 2216DPPC   C3B48287  22.276  -6.335  16.243  0.0876 -0.5952  0.1032
 2216DPPC   C4B48288  22.057  -6.486  15.969 -0.0572 -0.0774  0.0168
 2217DPPC   NC348289   2.853   6.077  27.935  0.1360 -0.0060 -0.0521
 2217DPPC   PO448290   3.240   5.787  28.187  0.0480  0.2045 -0.1918
 2217DPPC   GL148291   3.639   5.800  28.348  0.2785  0.1483  0.1620
 2217DPPC   GL248292   3.681   5.483  28.371 -0.1888 -0.1184 -0.3435
 2217DPPC   C1A48293   4.015   5.800  28.580  0.0087 -0.5606  0.2372
 2217DPPC   C2A48294   4.494   5.640  28.582 -0.0923  0.3563  0.0582
 2217DPPC   C3A48295   4.922   5.601  28.444  0.3035  0.0194  0.1860
 2217DPPC   C4A48296   5.283   5.546  28.101 -0.3124  0.3121 -0.0683
 2217DPPC   C1B48297   4.113   5.313  28.326  0.1572 -0.1966  0.0610
 2217DPPC   C2B48298   4.404   5.101  28.405 -0.1839  0.2658  0.1152
 2217DPPC   C3B48299   4.820   5.104  28.499 -0.0805 -0.0045  0.3652
 2217DPPC   C4B48300   5.023   5.144  28.879  0.0506 -0.0271  0.0125
 2218DPPC   NC348301  23.091   0.029  16.441 -0.0322  0.2504  0.2134
 2218DPPC   PO448302  23.143  -0.370  16.607  0.1769 -0.2546  0.1062
 2218DPPC   GL148303  23.545  -0.205  16.795 -0.3221  0.2405  0.1072
 2218DPPC   GL248304  23.508   0.146  16.717 -0.1724 -0.0305 -0.2304
 2218DPPC   C1A48305  23.992  -0.132  16.790  0.6689 -0.1343 -0.0208
 2218DPPC   C2A48306  23.970   0.218  17.048  0.1120  0.0335 -0.0712
 2218DPPC   C3A48307  24.011   0.528  17.425  0.1388  0.0604 -0.1705
 2218DPPC   C4A48308  23.739   0.561  17.888 -0.0281  0.1004  0.2989
 2218DPPC   C1B48309  23.911   0.532  16.607 -0.2131  0.0878  0.1860
 2218DPPC   C2B48310  24.348   0.874  16.698 -0.3504  0.0804 -0.1933
 2218DPPC   C3B48311  24.519   1.097  17.106 -0.0965  0.0448  0.1292
 2218DPPC   C4B48312  24.963   0.951  17.249  0.1406  0.4702  0.4179
 2219DPPC   NC348313   4.099   6.416  29.951  0.0404  0.0982  0.0180
 2219DPPC   PO448314   4.137   6.678  29.558  0.0577  0.0450  0.1484
 2219DPPC   GL148315   4.405   6.468  29.325 -0.2520 -0.0814  0.2249
 2219DPPC   GL248316   4.217   6.280  29.216  0.2605  0.3155  0.0209
 2219DPPC   C1A48317   4.825   6.441  29.133 -0.0457 -0.3578 -0.2061
 2219DPPC   C2A48318   5.263   6.427  29.248  0.2386 -0.6124  0.3111
 2219DPPC   C3A48319   5.656   6.280  29.455  0.2300  0.2775  0.3530
 2219DPPC   C4A48320   6.086   6.465  29.606  0.0398 -0.2187 -0.2063
 2219DPPC   C1B48321   4.324   5.992  29.000  0.3449 -0.4784  0.0606
 2219DPPC   C2B48322   4.444   6.097  28.599 -0.0809 -0.1647 -0.0265
 2219DPPC   C3B48323   4.794   6.076  28.417  0.3124  0.1663 -0.3410
 2219DPPC   C4B48324   4.969   5.973  28.103 -0.1268  0.1065  0.0778
 2220DPPC   NC348325  21.182  -4.906  15.417 -0.0996 -0.0396 -0.0811
 2220DPPC   PO448326  21.280  -5.126  15.810  0.2399  0.0436 -0.4442
 2220DPPC   GL148327  21.486  -5.499  15.804  0.0808 -0.2625 -0.1354
 2220DPPC   GL248328  21.415  -5.866  15.746  0.0717  0.2185 -0.1100
 2220DPPC   C1A48329  21.837  -5.723  15.944  0.2131 -0.0986  0.0699
 2220DPPC   C2A48330  22.186  -5.949  15.921 -0.1160  0.0401 -0.0032
 2220DPPC   C3A48331  22.311  -6.161  15.604 -0.2508  0.0471 -0.3213
 2220DPPC   C4A48332  22.641  -6.220  15.416  0.2039 -0.0542  0.0079
 2220DPPC   C1B48333  21.801  -6.108  15.653 -0.3540 -0.3074  0.1976
 2220DPPC   C2B48334  21.816  -6.551  15.504 -0.2089  0.0443  0.0544
 2220DPPC   C3B48335  21.823  -6.921  15.733  0.2143  0.3554  0.2113
 2220DPPC   C4B48336  21.975  -7.226  15.443 -0.0851 -0.3059 -0.1305
 2221DPPC   NC348337  17.998  -4.555  33.290  0.1801 -0.0548  0.1005
 2221DPPC   PO448338  18.325  -4.281  33.355  0.1990  0.5893  0.0642
 2221DPPC   GL148339  18.316  -3.984  33.011  0.1124 -0.1781  0.0482
 2221DPPC   GL248340  18.446  -3.593  33.021  0.0564 -0.2979  0.1117
 2221DPPC   C1A48341  18.359  -3.791  32.507 -0.0272 -0.1178  0.0039
 2221DPPC   C2A48342  18.168  -3.813  32.202  0.1350  0.0954  0.0654
 2221DPPC   C3A48343  17.907  -3.691  32.044 -0.2230 -0.1680 -0.0478
 2221DPPC   C4A48344  17.413  -3.674  31.967 -0.0423  0.3038 -0.2197
 2221DPPC   C1B48345  18.478  -3.157  32.806  0.3541  0.0557  0.4488
 2221DPPC   C2B48346  18.274  -2.741  32.915 -0.1193 -0.1514  0.0125
 2221DPPC   C3B48347  17.960  -2.428  33.122 -0.2904  0.1816  0.1450
 2221DPPC   C4B48348  17.588  -2.199  33.150  0.2745 -0.2039  0.0201
 2222DPPC   NC348349  12.175  14.611  32.614  0.1352 -0.1024 -0.1598
 2222DPPC   PO448350  11.775  14.568  32.377 -0.2528 -0.0487  0.3701
 2222DPPC   GL148351  11.870  14.233  32.372 -0.2967 -0.0909 -0.1026
 2222DPPC   GL248352  11.831  13.989  32.598  0.2377 -0.2785 -0.1436
 2222DPPC   C1A48353  12.045  13.767  32.156  0.0985 -0.3566  0.1115
 2222DPPC   C2A48354  12.120  13.565  31.814  0.2017  0.2569  0.3271
 2222DPPC   C3A48355  12.102  13.148  31.712 -0.1120  0.0302  0.1056
 2222DPPC   C4A48356  12.103  12.707  31.694 -0.0187 -0.1514 -0.3163
 2222DPPC   C1B48357  12.161  13.606  32.710 -0.1877 -0.2912 -0.1617
 2222DPPC   C2B48358  12.598  13.385  32.658 -0.2186  0.0407 -0.3206
 2222DPPC   C3B48359  12.778  13.104  32.258 -0.1293  0.0254 -0.0948
 2222DPPC   C4B48360  12.874  12.925  31.787  0.1769 -0.2235 -0.0180
 2223DPPC   NC348361  14.074   1.510  11.800  0.1968 -0.1445 -0.0765
 2223DPPC   PO448362  14.237   1.437  12.236 -0.3217  0.2328  0.0685
 2223DPPC   GL148363  14.426   1.561  12.540  0.0371 -0.0885  0.2271
 2223DPPC   GL248364  14.752   1.345  12.676  0.1470 -0.1513 -0.1336
 2223DPPC   C1A48365  14.691   1.779  12.958 -0.1890 -0.0403 -0.0607
 2223DPPC   C2A48366  15.047   1.775  13.224 -0.1330  0.0225  0.0597
 2223DPPC   C3A48367  15.231   1.925  13.506  0.0759 -0.0477 -0.2107
 2223DPPC   C4A48368  15.231   2.082  14.050 -0.0440  0.3214 -0.3032
 2223DPPC   C1B48369  14.883   1.322  13.094  0.0591  0.0308  0.3864
 2223DPPC   C2B48370  15.285   1.305  13.300  0.0470 -0.2725 -0.0195
 2223DPPC   C3B48371  15.709   1.259  13.397  0.0290 -0.0058 -0.3735
 2223DPPC   C4B48372  15.794   1.305  13.758 -0.0279  0.1626  0.0355
 2224DPPC   NC348373  23.099  -2.724  15.697 -0.2778 -0.1322 -0.1196
 2224DPPC   PO448374  23.247  -2.737  15.294 -0.1564 -0.1260  0.1620
 2224DPPC   GL148375  23.623  -2.789  15.077  0.0264  0.0395 -0.0644
 2224DPPC   GL248376  23.811  -3.018  15.291  0.2778 -0.1000  0.0606
 2224DPPC   C1A48377  23.960  -2.765  14.944 -0.1885 -0.1010 -0.0428
 2224DPPC   C2A48378  24.363  -2.830  14.944  0.0073 -0.4075  0.0266
 2224DPPC   C3A48379  24.700  -2.675  15.099  0.3638  0.0516 -0.0985
 2224DPPC   C4A48380  24.928  -2.333  15.236  0.1576 -0.0302  0.3444
 2224DPPC   C1B48381  24.118  -3.305  15.154 -0.1463 -0.1696  0.1711
 2224DPPC   C2B48382  24.396  -3.273  14.707  0.0618 -0.0130 -0.2347
 2224DPPC   C3B48383  24.637  -3.474  14.638  0.4206  0.0889  0.0106
 2224DPPC   C4B48384  24.944  -3.726  14.881 -0.2372  0.1333 -0.1668
 2225DPPC   NC348385  15.184  -2.696  11.939  0.0178  0.1078 -0.2277
 2225DPPC   PO448386  15.290  -2.338  11.738  0.0390  0.0572 -0.2101
 2225DPPC   GL148387  15.303  -2.275  12.145  0.1046  0.1454 -0.1358
 2225DPPC   GL248388  15.493  -1.970  12.113 -0.1639 -0.3706  0.4717
 2225DPPC   C1A48389  15.414  -2.253  12.534 -0.0910  0.1474  0.3494
 2225DPPC   C2A48390  15.675  -2.137  12.848  0.1323  0.1441 -0.2979
 2225DPPC   C3A48391  15.634  -1.908  13.198 -0.1152 -0.0381 -0.3369
 2225DPPC   C4A48392  15.434  -1.721  13.633  0.3468  0.1033 -0.1668
 2225DPPC   C1B48393  15.902  -1.983  12.448  0.1171  0.0895 -0.0822
 2225DPPC   C2B48394  16.373  -1.964  12.567  0.1742  0.3427 -0.2134
 2225DPPC   C3B48395  16.724  -1.662  12.837  0.0983 -0.0279 -0.0514
 2225DPPC   C4B48396  17.065  -1.604  13.122 -0.3264 -0.0219 -0.0808
 2226DPPC   NC348397  17.295  -8.393  12.538  0.0250 -0.0765 -0.2601
 2226DPPC   PO448398  17.263  -7.954  12.580  0.0159 -0.1898  0.0419
 2226DPPC   GL148399  17.194  -7.596  12.668 -0.0164 -0.0740  0.2513
 2226DPPC   GL248400  17.369  -7.381  12.444 -0.2126 -0.1931  0.1668
 2226DPPC   C1A48401  17.000  -7.233  12.738  0.1238  0.0560  0.4198
 2226DPPC   C2A48402  17.163  -6.769  12.960 -0.0652 -0.1008  0.2449
 2226DPPC   C3A48403  17.605  -6.615  13.050 -0.0736  0.2785 -0.2888
 2226DPPC   C4A48404  17.799  -6.528  13.431 -0.2419 -0.3007  0.0444
 2226DPPC   C1B48405  17.680  -7.126  12.649  0.0240  0.1133  0.1736
 2226DPPC   C2B48406  17.960  -6.812  12.823 -0.0355 -0.2364 -0.3211
 2226DPPC   C3B48407  18.197  -6.568  13.181 -0.2101 -0.0072  0.1158
 2226DPPC   C4B48408  18.290  -6.325  13.408 -0.1913 -0.3495  0.1860
 2227DPPC   NC348409  14.169  -4.956  33.060  0.2885  0.0999  0.1701
 2227DPPC   PO448410  13.735  -5.064  32.871 -0.1816  0.0981 -0.1516
 2227DPPC   GL148411  13.847  -4.777  32.596 -0.1370  0.0181  0.0850
 2227DPPC   GL248412  13.710  -4.474  32.540 -0.3004  0.1335  0.1705
 2227DPPC   C1A48413  13.824  -4.754  32.151 -0.2060  0.3166 -0.5563
 2227DPPC   C2A48414  13.691  -4.809  31.771  0.5436  0.2218  0.1315
 2227DPPC   C3A48415  13.446  -4.795  31.330 -0.3482  0.2135 -0.3320
 2227DPPC   C4A48416  13.347  -4.613  31.014 -0.1387 -0.0227 -0.0814
 2227DPPC   C1B48417  14.105  -4.304  32.234  0.1988 -0.2915  0.1366
 2227DPPC   C2B48418  14.482  -4.123  32.059 -0.1033  0.0107  0.0501
 2227DPPC   C3B48419  14.509  -3.924  31.722  0.1374 -0.2809 -0.2929
 2227DPPC   C4B48420  14.181  -3.713  31.461 -0.0196  0.0587 -0.1046
 2228DPPC   NC348421  18.582  -1.784  13.376  0.2702 -0.0320  0.1102
 2228DPPC   PO448422  18.201  -2.022  13.314  0.1993  0.0071  0.0155
 2228DPPC   GL148423  17.922  -1.870  13.045  0.3037  0.0206  0.1174
 2228DPPC   GL248424  17.900  -1.544  13.141  0.1011  0.0623 -0.0184
 2228DPPC   C1A48425  17.539  -1.735  12.785 -0.0923  0.0386 -0.1736
 2228DPPC   C2A48426  17.210  -1.521  12.623 -0.2709  0.0451  0.4626
 2228DPPC   C3A48427  16.972  -1.106  12.545  0.0601 -0.2925  0.0919
 2228DPPC   C4A48428  16.797  -0.858  12.305  0.0234 -0.0485  0.0567
 2228DPPC   C1B48429  17.866  -1.212  12.757  0.0032  0.1306 -0.0732
 2228DPPC   C2B48430  18.002  -1.161  12.343  0.0193  0.2039  0.1084
 2228DPPC   C3B48431  18.167  -0.962  12.066 -0.1876  0.2675  0.3953
 2228DPPC   C4B48432  18.436  -0.608  12.129  0.1693  0.2886 -0.0897
 2229DPPC   NC348433  22.405   0.655  14.642 -0.0347  0.1490 -0.2053
 2229DPPC   PO448434  22.766   0.925  14.695  0.5259 -0.1074 -0.0123
 2229DPPC   GL148435  23.091   1.155  14.819 -0.2393  0.1525 -0.0764
 2229DPPC   GL248436  23.334   1.207  15.094  0.1474 -0.0733 -0.0749
 2229DPPC   C1A48437  23.245   1.510  14.706  0.2180 -0.0574  0.1890
 2229DPPC   C2A48438  23.068   1.936  14.798 -0.2474  0.0452  0.1230
 2229DPPC   C3A48439  22.755   2.289  14.901  0.1907 -0.4337  0.1385
 2229DPPC   C4A48440  22.254   2.172  14.956  0.1959  0.2346  0.4766
 2229DPPC   C1B48441  23.319   1.703  15.172  0.2005 -0.0800  0.0287
 2229DPPC   C2B48442  23.530   2.085  15.198  0.1750  0.1128  0.1326
 2229DPPC   C3B48443  23.632   2.449  15.092  0.1202  0.0110  0.2402
 2229DPPC   C4B48444  23.424   2.896  15.221  0.2161  0.1147 -0.1017
 2230DPPC   NC348445  18.673  -3.275  17.056 -0.0524  0.0451 -0.3827
 2230DPPC   PO448446  18.297  -3.252  17.185  0.1185  0.1368  0.1287
 2230DPPC   GL148447  18.039  -3.068  17.375  0.1704 -0.1741 -0.0329
 2230DPPC   GL248448  17.826  -3.336  17.540 -0.0406  0.3082 -0.3134
 2230DPPC   C1A48449  18.012  -2.931  17.754  0.0994 -0.2791 -0.3141
 2230DPPC   C2A48450  17.868  -2.851  18.046  0.0420  0.1206  0.0117
 2230DPPC   C3A48451  17.864  -2.834  18.499 -0.1886  0.1442  0.1087
 2230DPPC   C4A48452  17.914  -3.194  18.753 -0.0729 -0.1506  0.2915
 2230DPPC   C1B48453  17.630  -3.620  17.878  0.1400  0.3653  0.1163
 2230DPPC   C2B48454  17.258  -3.511  18.098  0.1652  0.2716  0.0161
 2230DPPC   C3B48455  16.798  -3.408  18.214  0.3006 -0.2543  0.1372
 2230DPPC   C4B48456  16.461  -3.685  18.062  0.1749  0.1054 -0.2766
 2231DPPC   NC348457  13.928   9.529  36.742  0.1169 -0.3230  0.1363
 2231DPPC   PO448458  13.439   9.393  36.631 -0.1338 -0.0979 -0.1292
 2231DPPC   GL148459  13.541   9.483  36.263  0.1211 -0.3586  0.1019
 2231DPPC   GL248460  13.800   9.677  36.278  0.3483 -0.3166  0.2628
 2231DPPC   C1A48461  13.866   9.281  36.009  0.2035 -0.1725  0.0940
 2231DPPC   C2A48462  14.170   9.050  35.944  0.1398  0.2123  0.3572
 2231DPPC   C3A48463  14.447   8.795  35.732  0.0902  0.0959  0.0344
 2231DPPC   C4A48464  14.498   8.562  35.270 -0.1154  0.2056  0.2010
 2231DPPC   C1B48465  14.011   9.757  35.910 -0.0279 -0.1020  0.0102
 2231DPPC   C2B48466  14.104   9.673  35.536  0.6278 -0.3035 -0.5164
 2231DPPC   C3B48467  14.288   9.755  35.228 -0.0142 -0.0830  0.1862
 2231DPPC   C4B48468  14.264   9.837  34.755 -0.1743  0.0447  0.0223
 2232DPPC   NC348469  18.116  -2.734  16.362  0.1341 -0.1990  0.1387
 2232DPPC   PO448470  18.420  -2.875  16.729 -0.1295  0.0003  0.4595
 2232DPPC   GL148471  18.234  -2.663  17.077  0.3264 -0.2346 -0.1556
 2232DPPC   GL248472  17.983  -2.510  17.096 -0.1973  0.0286  0.1305
 2232DPPC   C1A48473  18.501  -2.613  17.487 -0.0934  0.3347 -0.4247
 2232DPPC   C2A48474  18.541  -2.378  17.794 -0.1010 -0.2977 -0.2243
 2232DPPC   C3A48475  18.598  -2.085  18.134 -0.1619 -0.2432  0.1041
 2232DPPC   C4A48476  18.518  -1.784  18.475  0.0076  0.0693  0.0085
 2232DPPC   C1B48477  18.034  -2.443  17.544  0.0738  0.3042 -0.0689
 2232DPPC   C2B48478  17.755  -2.420  17.810  0.0844  0.2347  0.1826
 2232DPPC   C3B48479  17.660  -2.326  18.221 -0.1990  0.1676 -0.1449
 2232DPPC   C4B48480  17.784  -2.445  18.782  0.1960  0.0708 -0.1332
 2233DPPC   NC348481  24.830  -1.694  10.769  0.0067  0.0288 -0.2417
 2233DPPC   PO448482  25.023  -1.269  10.923 -0.2455  0.0540 -0.1025
 2233DPPC   GL148483  24.687  -1.130  11.152 -0.0925  0.0973 -0.1826
 2233DPPC   GL248484  24.682  -1.533  11.263 -0.0181 -0.1675  0.0432
 2233DPPC   C1A48485  24.493  -1.103  11.592  0.3386 -0.2634 -0.1297
 2233DPPC   C2A48486  24.312  -1.268  12.016  0.0265  0.1072  0.0919
 2233DPPC   C3A48487  24.143  -1.644  12.167 -0.4565 -0.2106  0.1482
 2233DPPC   C4A48488  23.710  -1.674  12.411 -0.0694  0.1939  0.1996
 2233DPPC   C1B48489  24.254  -1.548  11.434  0.1346  0.2474  0.1027
 2233DPPC   C2B48490  23.943  -1.830  11.673  0.0457 -0.0721 -0.2099
 2233DPPC   C3B48491  23.901  -2.130  11.946  0.0969  0.1967 -0.0992
 2233DPPC   C4B48492  23.643  -2.246  12.197  0.0163  0.1980 -0.0497
 2234DPPC   NC348493  20.120  -5.581  17.923 -0.0202 -0.1869 -0.0540
 2234DPPC   PO448494  20.074  -5.945  17.650 -0.0239 -0.0159  0.1085
 2234DPPC   GL148495  20.210  -6.416  17.619 -0.3166 -0.2379  0.0222
 2234DPPC   GL248496  20.106  -6.447  17.272  0.2634 -0.0922  0.3027
 2234DPPC   C1A48497  20.424  -6.656  17.935 -0.0989  0.1058 -0.2694
 2234DPPC   C2A48498  20.393  -6.904  18.341 -0.0633 -0.2023 -0.0486
 2234DPPC   C3A48499  20.506  -7.081  18.771 -0.0529  0.2380  0.0851
 2234DPPC   C4A48500  20.463  -7.260  19.137  0.3158 -0.0381  0.1138
 2234DPPC   C1B48501  19.966  -6.830  17.327 -0.2558  0.0921 -0.3570
 2234DPPC   C2B48502  20.155  -7.206  17.141  0.0964  0.2762 -0.1347
 2234DPPC   C3B48503  20.682  -7.404  17.231 -0.1299 -0.0061 -0.0289
 2234DPPC   C4B48504  20.786  -7.533  17.648 -0.4046  0.2806  0.4190
 2235DPPC   NC348505  19.315  -2.851  16.621  0.1080 -0.0994 -0.1176
 2235DPPC   PO448506  18.911  -2.642  16.679  0.1039  0.0100 -0.1451
 2235DPPC   GL148507  18.657  -2.452  16.883 -0.1105 -0.0539  0.2738
 2235DPPC   GL248508  18.814  -2.312  17.069  0.1271 -0.0106 -0.0073
 2235DPPC   C1A48509  18.395  -2.241  17.266 -0.0644 -0.0294  0.1863
 2235DPPC   C2A48510  18.148  -1.842  17.343 -0.0394 -0.1056 -0.1389
 2235DPPC   C3A48511  18.109  -2.005  17.725  0.2011 -0.2289  0.2166
 2235DPPC   C4A48512  18.123  -2.115  18.136  0.0464 -0.0511 -0.2105
 2235DPPC   C1B48513  18.889  -2.246  17.519 -0.2934 -0.2558 -0.2131
 2235DPPC   C2B48514  19.057  -2.321  17.883 -0.1425 -0.1004  0.2122
 2235DPPC   C3B48515  18.888  -2.509  18.297 -0.0485  0.0281 -0.1527
 2235DPPC   C4B48516  18.768  -2.271  18.589 -0.1088 -0.5121  0.0113
 2236DPPC   NC348517   3.975   2.105  19.735  0.1857  0.0566  0.2264
 2236DPPC   PO448518   3.886   2.402  20.010  0.0414 -0.0288  0.2497
 2236DPPC   GL148519   4.211   2.248  20.164  0.0505  0.0701 -0.1108
 2236DPPC   GL248520   4.458   2.312  19.957 -0.0417 -0.1296 -0.1144
 2236DPPC   C1A48521   4.577   2.166  20.429 -0.3412 -0.0729  0.2836
 2236DPPC   C2A48522   4.892   2.304  20.699 -0.1262  0.1851  0.0837
 2236DPPC   C3A48523   5.256   2.080  20.814  0.0203  0.0461  0.0268
 2236DPPC   C4A48524   5.586   1.986  21.004 -0.0351 -0.1710 -0.2518
 2236DPPC   C1B48525   4.607   2.586  20.230  0.2895  0.1279  0.2574
 2236DPPC   C2B48526   4.973   2.680  20.319 -0.0549 -0.1200  0.2381
 2236DPPC   C3B48527   5.322   2.493  20.460  0.1303 -0.1187 -0.1667
 2236DPPC   C4B48528   5.677   2.435  20.690 -0.0365 -0.1531 -0.3642
 2237DPPC   NC348529  18.743   4.356  12.463  0.3860  0.0366 -0.1413
 2237DPPC   PO448530  18.759   3.914  12.340 -0.0325  0.2150 -0.1822
 2237DPPC   GL148531  18.870   3.538  12.684  0.2139  0.1147 -0.0451
 2237DPPC   GL248532  19.235   3.503  12.694 -0.1851  0.0619  0.0447
 2237DPPC   C1A48533  18.970   3.227  13.067  0.1292 -0.1716 -0.5532
 2237DPPC   C2A48534  18.965   2.921  13.337  0.1228 -0.3443  0.1550
 2237DPPC   C3A48535  18.807   2.688  13.591  0.2011  0.0437 -0.2333
 2237DPPC   C4A48536  18.504   2.420  13.569  0.0411 -0.2784  0.0086
 2237DPPC   C1B48537  19.484   3.263  13.182 -0.2359 -0.1810 -0.0594
 2237DPPC   C2B48538  19.526   3.171  13.677  0.1152  0.2703  0.0959
 2237DPPC   C3B48539  19.587   2.829  13.961  0.1481  0.1894  0.0634
 2237DPPC   C4B48540  19.765   2.421  14.042  0.2546 -0.0377  0.0785
 2238DPPC   NC348541  18.552  -9.988  15.097  0.0472  0.0345  0.1647
 2238DPPC   PO448542  18.388  -9.741  14.798 -0.3763  0.0292  0.0775
 2238DPPC   GL148543  18.520  -9.346  14.876  0.0061  0.0268 -0.2176
 2238DPPC   GL248544  18.619  -9.431  15.255 -0.0028  0.2078 -0.3780
 2238DPPC   C1A48545  18.681  -8.966  15.082  0.2609 -0.0469 -0.0805
 2238DPPC   C2A48546  18.976  -8.659  14.874 -0.2261  0.0258 -0.2652
 2238DPPC   C3A48547  19.070  -8.451  14.623 -0.2397 -0.5557 -0.3013
 2238DPPC   C4A48548  18.859  -8.317  14.337  0.1895  0.2075 -0.0896
 2238DPPC   C1B48549  18.641  -9.080  15.610  0.0599 -0.0639  0.0387
 2238DPPC   C2B48550  18.604  -8.965  15.946  0.2533 -0.0786  0.4630
 2238DPPC   C3B48551  18.686  -8.991  16.384 -0.0625  0.2447  0.2715
 2238DPPC   C4B48552  18.966  -8.879  16.657 -0.2311  0.0064 -0.0162
 2239DPPC   NC348553  20.539  -7.676  21.794  0.0770 -0.3303  0.0483
 2239DPPC   PO448554  20.249  -7.857  21.870 -0.0752  0.1608  0.0327
 2239DPPC   GL148555  20.154  -7.372  21.981 -0.4494  0.4041  0.4034
 2239DPPC   GL248556  20.033  -7.349  21.639  0.0071  0.1295 -0.0872
 2239DPPC   C1A48557  19.852  -7.160  22.061  0.3556 -0.3273  0.0899
 2239DPPC   C2A48558  19.961  -6.686  21.893 -0.0428  0.2071 -0.0511
 2239DPPC   C3A48559  19.883  -6.318  21.744  0.0350 -0.1989  0.0230
 2239DPPC   C4A48560  19.984  -5.907  21.805  0.0225  0.2337  0.0330
 2239DPPC   C1B48561  20.009  -6.953  21.478  0.0643 -0.0904 -0.2128
 2239DPPC   C2B48562  19.913  -6.582  21.340  0.0742  0.1620 -0.5059
 2239DPPC   C3B48563  19.776  -6.219  21.234  0.0418  0.0080 -0.1590
 2239DPPC   C4B48564  19.699  -5.806  21.348  0.2355  0.4529  0.3226
 2240DPPC   NC348565  22.339  14.224  31.097  0.1502 -0.1093  0.0717
 2240DPPC   PO448566  22.106  13.868  31.207 -0.6229 -0.2198  0.0002
 2240DPPC   GL148567  21.764  13.581  31.032 -0.1345  0.2713 -0.1332
 2240DPPC   GL248568  21.789  13.250  31.107  0.0952  0.1528  0.0906
 2240DPPC   C1A48569  21.533  13.568  30.676 -0.2380 -0.2571 -0.0116
 2240DPPC   C2A48570  21.186  13.324  30.433  0.1690  0.1769  0.3770
 2240DPPC   C3A48571  21.023  13.089  30.210 -0.0006  0.2289 -0.3394
 2240DPPC   C4A48572  20.779  12.855  30.211  0.1596 -0.0407  0.4611
 2240DPPC   C1B48573  21.416  13.140  30.843  0.2003  0.2473 -0.3912
 2240DPPC   C2B48574  21.104  12.807  30.707  0.1600 -0.0971 -0.2067
 2240DPPC   C3B48575  20.895  12.464  30.522  0.0333 -0.0194  0.3416
 2240DPPC   C4B48576  20.938  12.167  30.255  0.1887  0.0340 -0.0736
 2241DPPC   NC348577  27.006  -3.597  17.527  0.1139 -0.0809  0.1886
 2241DPPC   PO448578  27.154  -3.555  17.123  0.0539  0.2846 -0.0884
 2241DPPC   GL148579  26.736  -3.603  16.992  0.4106  0.0103  0.0451
 2241DPPC   GL248580  26.542  -3.840  17.167 -0.1571 -0.1279  0.0192
 2241DPPC   C1A48581  26.487  -3.735  16.666 -0.1620 -0.0875  0.3227
 2241DPPC   C2A48582  26.276  -4.042  16.563  0.0441  0.4098  0.0155
 2241DPPC   C3A48583  25.758  -3.960  16.626  0.3552 -0.0663  0.0490
 2241DPPC   C4A48584  25.524  -4.299  16.997  0.0564 -0.0347 -0.2365
 2241DPPC   C1B48585  26.309  -3.532  17.349  0.0848 -0.2975  0.2304
 2241DPPC   C2B48586  26.074  -3.236  17.301 -0.2468 -0.1263 -0.1347
 2241DPPC   C3B48587  25.968  -2.952  17.568  0.0533  0.1918  0.1097
 2241DPPC   C4B48588  26.148  -2.590  17.749  0.0285 -0.1038 -0.1149
 2242DPPC   NC348589  26.867  -2.784  19.341  0.1490  0.1444  0.1962
 2242DPPC   PO448590  26.387  -2.460  19.299 -0.2096  0.1422  0.1913
 2242DPPC   GL148591  25.998  -2.250  19.442 -0.0584  0.1749  0.1486
 2242DPPC   GL248592  25.951  -2.016  19.278 -0.1542  0.1042 -0.3463
 2242DPPC   C1A48593  25.666  -2.239  19.645 -0.0563  0.2486 -0.4205
 2242DPPC   C2A48594  25.342  -1.972  19.617 -0.0255 -0.0849 -0.1623
 2242DPPC   C3A48595  24.792  -1.858  19.754 -0.1670  0.3982 -0.1756
 2242DPPC   C4A48596  24.576  -2.013  20.081  0.2495 -0.2101  0.1757
 2242DPPC   C1B48597  25.562  -2.043  19.187  0.1034  0.2517 -0.1979
 2242DPPC   C2B48598  25.169  -2.091  18.897  0.2387 -0.0380  0.0193
 2242DPPC   C3B48599  24.944  -2.487  18.889 -0.0966  0.0223 -0.0224
 2242DPPC   C4B48600  24.734  -2.852  18.746 -0.1895  0.0446 -0.0928
 2243DPPC   NC348601  21.264  -5.543  17.154  0.0886  0.1255 -0.1193
 2243DPPC   PO448602  21.455  -5.280  17.447  0.3903  0.0681  0.3382
 2243DPPC   GL148603  21.478  -5.815  17.545 -0.2182  0.0528 -0.0426
 2243DPPC   GL248604  21.598  -5.985  17.240  0.2942  0.1639 -0.0501
 2243DPPC   C1A48605  21.204  -6.129  17.558 -0.2838 -0.0659  0.0139
 2243DPPC   C2A48606  21.091  -6.540  17.374  0.2252 -0.2394 -0.0443
 2243DPPC   C3A48607  21.007  -6.825  17.671  0.0554  0.0491 -0.0673
 2243DPPC   C4A48608  21.080  -7.133  17.930 -0.1438  0.0678  0.1625
 2243DPPC   C1B48609  21.859  -6.298  17.092  0.2121  0.1239  0.0495
 2243DPPC   C2B48610  22.016  -6.765  17.083  0.1904 -0.0765  0.0356
 2243DPPC   C3B48611  22.373  -6.904  17.156  0.0325  0.2265 -0.1290
 2243DPPC   C4B48612  22.609  -7.235  17.353 -0.2313 -0.1695  0.1221
 2244DPPC   NC348613  22.221  -5.458  18.818  0.2487  0.1058  0.0188
 2244DPPC   PO448614  22.392  -5.031  18.699 -0.0543 -0.1150  0.2127
 2244DPPC   GL148615  22.698  -5.193  18.919 -0.2179 -0.1838 -0.1276
 2244DPPC   GL248616  22.662  -5.346  19.223  0.3492  0.0179 -0.1885
 2244DPPC   C1A48617  23.166  -5.284  19.110  0.1521  0.1389  0.0769
 2244DPPC   C2A48618  23.537  -5.496  19.095 -0.0979 -0.0032  0.1247
 2244DPPC   C3A48619  23.954  -5.371  19.293  0.2624  0.0103  0.0465
 2244DPPC   C4A48620  24.277  -5.579  19.104 -0.2787  0.1248  0.2278
 2244DPPC   C1B48621  22.818  -4.934  19.349  0.0288  0.2061  0.0163
 2244DPPC   C2B48622  23.225  -4.828  19.464  0.0756 -0.1072  0.3195
 2244DPPC   C3B48623  23.450  -4.592  19.855 -0.0597  0.0072 -0.2155
 2244DPPC   C4B48624  23.338  -4.170  20.021  0.1056  0.3165 -0.0387
 2245DPPC   NC348625  28.016  -0.671  20.034 -0.1153  0.2573 -0.0835
 2245DPPC   PO448626  27.617  -0.520  20.239 -0.2675 -0.0678 -0.1195
 2245DPPC   GL148627  27.330  -0.374  20.582  0.0054 -0.1374  0.0494
 2245DPPC   GL248628  27.306  -0.088  20.798  0.0671 -0.3544 -0.0060
 2245DPPC   C1A48629  26.808  -0.276  20.520 -0.1645  0.4272  0.0388
 2245DPPC   C2A48630  26.391  -0.352  20.578 -0.2095 -0.0045  0.1876
 2245DPPC   C3A48631  26.102  -0.338  20.919 -0.1658  0.1535 -0.1674
 2245DPPC   C4A48632  25.728  -0.233  21.259  0.2367  0.0781  0.2394
 2245DPPC   C1B48633  26.894   0.165  20.770  0.0869 -0.2994  0.0894
 2245DPPC   C2B48634  26.547   0.406  21.045 -0.0537  0.0993  0.0918
 2245DPPC   C3B48635  26.124   0.503  21.071 -0.0248  0.0246 -0.2325
 2245DPPC   C4B48636  25.575   0.483  21.026  0.2956  0.2607 -0.1172
 2246DPPC   NC348637  19.167   0.185  31.769  0.1516 -0.0669  0.0078
 2246DPPC   PO448638  19.065   0.520  32.084  0.0636 -0.1871 -0.0411
 2246DPPC   GL148639  19.101   0.220  32.402 -0.1626 -0.2355  0.0626
 2246DPPC   GL248640  19.343   0.490  32.591  0.0964 -0.2204  0.2045
 2246DPPC   C1A48641  19.102   0.051  32.912 -0.0601 -0.3066 -0.1197
 2246DPPC   C2A48642  18.966  -0.308  33.160  0.3787 -0.0363 -0.1283
 2246DPPC   C3A48643  18.949  -0.744  33.198 -0.2481 -0.0928 -0.0442
 2246DPPC   C4A48644  19.033  -1.139  32.863  0.1824  0.1082  0.0968
 2246DPPC   C1B48645  19.562   0.287  32.948 -0.2239 -0.4414  0.0954
 2246DPPC   C2B48646  19.854   0.107  33.103 -0.1647  0.1515  0.2182
 2246DPPC   C3B48647  19.911  -0.203  33.327  0.2038 -0.0614  0.0501
 2246DPPC   C4B48648  19.743  -0.464  33.572 -0.0951 -0.0219 -0.2943
 2247DPPC   NC348649  21.609  -4.631  19.199  0.2061  0.0466  0.1072
 2247DPPC   PO448650  21.588  -5.017  19.433 -0.1229  0.1158 -0.1001
 2247DPPC   GL148651  21.662  -4.943  19.867 -0.1278  0.1606 -0.4062
 2247DPPC   GL248652  22.047  -4.785  19.832  0.1675  0.0303  0.0117
 2247DPPC   C1A48653  21.749  -4.851  20.344  0.1190 -0.3764  0.1377
 2247DPPC   C2A48654  21.463  -5.082  20.627 -0.1570  0.2761 -0.2321
 2247DPPC   C3A48655  21.332  -5.134  20.947 -0.0590 -0.1763 -0.4786
 2247DPPC   C4A48656  20.995  -5.131  21.272 -0.1296 -0.1787 -0.0794
 2247DPPC   C1B48657  22.275  -4.772  20.254 -0.3028 -0.1223 -0.1068
 2247DPPC   C2B48658  22.650  -4.594  20.363  0.2163  0.0483  0.2255
 2247DPPC   C3B48659  22.664  -4.110  20.574 -0.0622 -0.2055 -0.1470
 2247DPPC   C4B48660  22.892  -3.978  21.048 -0.0645 -0.0849 -0.3366
 2248DPPC   NC348661  18.104  -9.554  17.328  0.3510 -0.5469 -0.0526
 2248DPPC   PO448662  18.546  -9.366  17.251 -0.2221 -0.0388 -0.1952
 2248DPPC   GL148663  18.989  -9.218  17.117  0.1846  0.1430 -0.0528
 2248DPPC   GL248664  19.337  -9.424  16.990 -0.0298 -0.1572 -0.0320
 2248DPPC   C1A48665  19.188  -8.911  17.100 -0.2152 -0.0111 -0.1887
 2248DPPC   C2A48666  19.128  -8.540  17.347 -0.0203  0.2262  0.0535
 2248DPPC   C3A48667  19.487  -8.237  17.290  0.0554  0.0703 -0.3841
 2248DPPC   C4A48668  19.762  -8.358  17.049  0.0362 -0.3434 -0.0841
 2248DPPC   C1B48669  19.555  -9.076  16.750 -0.1542  0.4172 -0.0426
 2248DPPC   C2B48670  19.448  -8.662  16.765 -0.3123 -0.1101  0.1924
 2248DPPC   C3B48671  19.268  -8.347  16.453 -0.0501 -0.0305 -0.1078
 2248DPPC   C4B48672  18.873  -8.108  16.435  0.0185  0.0849  0.1043
 2249DPPC   NC348673   7.444  -1.687  16.252  0.2703  0.1793 -0.0667
 2249DPPC   PO448674   7.608  -1.483  16.559  0.0905 -0.0687  0.1180
 2249DPPC   GL148675   7.855  -1.345  16.791 -0.0100  0.1650 -0.2715
 2249DPPC   GL248676   8.152  -1.447  16.680  0.2175 -0.1534  0.2460
 2249DPPC   C1A48677   7.982  -0.903  16.966 -0.0274  0.1031  0.0823
 2249DPPC   C2A48678   8.504  -0.839  17.197 -0.3178 -0.1744  0.1829
 2249DPPC   C3A48679   8.773  -0.665  17.444 -0.1046  0.3602 -0.2347
 2249DPPC   C4A48680   8.906  -0.543  17.819  0.1160 -0.2594 -0.1780
 2249DPPC   C1B48681   8.280  -1.597  17.134 -0.1756 -0.2146 -0.2358
 2249DPPC   C2B48682   8.318  -1.639  17.507  0.2757 -0.0270 -0.1044
 2249DPPC   C3B48683   8.616  -1.628  17.861  0.4786 -0.2307 -0.0546
 2249DPPC   C4B48684   8.586  -1.488  18.252 -0.0644 -0.4562 -0.2207
 2250DPPC   NC348685  17.239  -3.947  15.392  0.1197 -0.3964 -0.1307
 2250DPPC   PO448686  17.072  -4.354  15.189  0.1380 -0.0518 -0.0397
 2250DPPC   GL148687  16.618  -4.513  15.063 -0.0961 -0.1063  0.0799
 2250DPPC   GL248688  16.539  -4.597  14.659 -0.1654 -0.0408 -0.0196
 2250DPPC   C1A48689  16.239  -4.601  15.036  0.3476  0.0149  0.1179
 2250DPPC   C2A48690  15.807  -4.671  15.015 -0.2157 -0.1809 -0.0242
 2250DPPC   C3A48691  15.458  -4.960  14.881 -0.0838  0.0911  0.1693
 2250DPPC   C4A48692  15.294  -5.173  14.581 -0.2495 -0.1250 -0.2373
 2250DPPC   C1B48693  16.316  -4.738  14.396  0.0794 -0.1273 -0.0113
 2250DPPC   C2B48694  15.939  -4.564  14.146  0.4446  0.0407  0.0508
 2250DPPC   C3B48695  15.817  -4.267  13.809  0.1182 -0.0584 -0.0808
 2250DPPC   C4B48696  15.756  -3.907  13.651 -0.1255 -0.3054  0.0689
 2251DPPC   NC348697   2.655   6.665  27.849 -0.0314  0.0437 -0.0597
 2251DPPC   PO448698   2.949   6.442  27.550 -0.4104 -0.3925  0.0280
 2251DPPC   GL148699   3.375   6.276  27.737 -0.2091 -0.0509 -0.1485
 2251DPPC   GL248700   3.491   6.190  27.437  0.0853  0.0284  0.0847
 2251DPPC   C1A48701   3.791   6.073  27.818  0.0394  0.3772  0.3051
 2251DPPC   C2A48702   4.049   5.749  27.926  0.1724  0.2359 -0.0704
 2251DPPC   C3A48703   4.510   5.734  28.070  0.0127  0.1440  0.1353
 2251DPPC   C4A48704   4.807   5.469  27.942 -0.2141  0.0858 -0.0310
 2251DPPC   C1B48705   3.901   6.255  27.183 -0.4075  0.2101  0.1693
 2251DPPC   C2B48706   4.291   6.234  27.395  0.0177 -0.2609  0.0463
 2251DPPC   C3B48707   4.669   6.199  27.143 -0.0419  0.1557 -0.0655
 2251DPPC   C4B48708   4.841   5.831  27.067  0.1431 -0.0348 -0.2124
 2252DPPC   NC348709  21.913  -2.877  14.460  0.1143  0.0112  0.1354
 2252DPPC   PO448710  21.748  -3.073  14.156  0.0522 -0.1125  0.1829
 2252DPPC   GL148711  21.948  -3.295  13.749  0.1222 -0.0267  0.1890
 2252DPPC   GL248712  21.899  -3.710  13.775  0.0183  0.1066  0.1354
 2252DPPC   C1A48713  21.799  -3.368  13.275  0.2780  0.0152 -0.1728
 2252DPPC   C2A48714  21.854  -3.260  12.837  0.5425  0.3258 -0.1101
 2252DPPC   C3A48715  22.040  -3.021  12.513 -0.0767 -0.2832 -0.0172
 2252DPPC   C4A48716  22.053  -2.969  12.261  0.0954 -0.1209 -0.0067
 2252DPPC   C1B48717  22.063  -3.961  13.515 -0.1384  0.0688  0.2046
 2252DPPC   C2B48718  22.421  -4.093  13.379  0.1467  0.4240 -0.0807
 2252DPPC   C3B48719  22.715  -4.392  13.440  0.1650  0.0629  0.3397
 2252DPPC   C4B48720  23.112  -4.530  13.546  0.0717  0.2211  0.2671
 2253DPPC   NC348721  18.655  -5.841  15.755  0.1190 -0.0491 -0.2469
 2253DPPC   PO448722  18.662  -6.163  15.998 -0.0141  0.2664 -0.2188
 2253DPPC   GL148723  18.388  -6.516  16.095 -0.1574  0.1254 -0.0149
 2253DPPC   GL248724  18.006  -6.552  16.148 -0.2992  0.2917 -0.1210
 2253DPPC   C1A48725  18.254  -6.959  16.404 -0.0375  0.1486  0.5715
 2253DPPC   C2A48726  18.208  -7.394  16.508  0.2329 -0.0543  0.0183
 2253DPPC   C3A48727  18.426  -7.600  16.751 -0.0261  0.0894  0.2205
 2253DPPC   C4A48728  18.639  -8.016  16.910  0.2340  0.1242  0.2075
 2253DPPC   C1B48729  17.693  -6.976  16.089 -0.0113 -0.0151  0.0513
 2253DPPC   C2B48730  17.671  -7.463  16.144  0.2167 -0.3396 -0.1965
 2253DPPC   C3B48731  17.324  -7.742  16.247  0.2136  0.1373  0.2491
 2253DPPC   C4B48732  16.996  -7.997  16.215  0.0990  0.0924 -0.0981
 2254DPPC   NC348733  11.894   0.917  12.438  0.0555  0.2186  0.1380
 2254DPPC   PO448734  11.538   0.727  12.734 -0.1911 -0.1360 -0.3469
 2254DPPC   GL148735  11.560   0.673  13.163  0.0962 -0.1627 -0.3647
 2254DPPC   GL248736  11.669   0.337  13.113  0.3915 -0.0026  0.3103
 2254DPPC   C1A48737  11.657   0.906  13.436 -0.2051  0.1246 -0.0481
 2254DPPC   C2A48738  11.707   0.950  13.911  0.0666 -0.0784 -0.2182
 2254DPPC   C3A48739  11.598   0.640  14.221  0.0620  0.1225 -0.0984
 2254DPPC   C4A48740  11.695   0.400  14.451 -0.2561  0.0302  0.1710
 2254DPPC   C1B48741  11.874   0.420  13.529 -0.2258  0.1691 -0.3473
 2254DPPC   C2B48742  12.236   0.337  13.873  0.0390 -0.0900  0.1071
 2254DPPC   C3B48743  12.661   0.400  14.171  0.1349  0.2546 -0.2591
 2254DPPC   C4B48744  12.719   0.686  14.534  0.0034  0.2479  0.0538
 2255DPPC   NC348745  19.168  -1.099  13.714  0.1454  0.0540 -0.2575
 2255DPPC   PO448746  18.735  -1.391  13.696 -0.0737 -0.0465  0.1397
 2255DPPC   GL148747  18.771  -1.338  13.175 -0.1466 -0.0706 -0.0121
 2255DPPC   GL248748  18.828  -1.625  12.961 -0.2521 -0.1434 -0.0479
 2255DPPC   C1A48749  18.801  -1.107  12.864 -0.5181 -0.1398  0.0503
 2255DPPC   C2A48750  18.494  -1.150  12.496  0.4042  0.1469  0.1028
 2255DPPC   C3A48751  18.435  -1.494  12.150  0.0564  0.0613 -0.1156
 2255DPPC   C4A48752  18.059  -1.728  12.084  0.0465 -0.2442  0.5982
 2255DPPC   C1B48753  18.738  -1.582  12.598  0.2375  0.2784 -0.1396
 2255DPPC   C2B48754  18.951  -1.366  12.302 -0.0275  0.0702 -0.3501
 2255DPPC   C3B48755  19.237  -1.193  12.031 -0.4106  0.1032  0.4126
 2255DPPC   C4B48756  19.624  -1.332  12.086  0.0650  0.2063 -0.3881
 2256DPPC   NC348757  18.609  -1.331  15.750 -0.1916 -0.0358 -0.1947
 2256DPPC   PO448758  18.290  -1.573  15.677 -0.1992  0.0141 -0.3429
 2256DPPC   GL148759  18.120  -1.360  16.083  0.0314 -0.2557 -0.1582
 2256DPPC   GL248760  17.813  -1.343  16.087 -0.1508 -0.2339 -0.2678
 2256DPPC   C1A48761  18.057  -1.023  16.487 -0.4009  0.0078  0.3867
 2256DPPC   C2A48762  17.974  -0.967  16.915 -0.0207  0.2391 -0.0598
 2256DPPC   C3A48763  17.993  -0.780  17.331  0.3875  0.1301 -0.2976
 2256DPPC   C4A48764  18.017  -0.936  17.746 -0.2888  0.0985  0.1533
 2256DPPC   C1B48765  17.552  -0.987  16.361 -0.1292 -0.0550 -0.1186
 2256DPPC   C2B48766  17.065  -1.108  16.286 -0.0706  0.3055 -0.1552
 2256DPPC   C3B48767  16.696  -0.778  16.022 -0.1857  0.2133 -0.0129
 2256DPPC   C4B48768  16.261  -0.457  16.122 -0.3536  0.3897 -0.0832
 2257DPPC   NC348769  12.041   5.403  37.796  0.1036  0.0186  0.0929
 2257DPPC   PO448770  12.483   5.350  37.617 -0.3374  0.2971  0.1511
 2257DPPC   GL148771  12.540   5.266  37.163 -0.0729 -0.0078 -0.0981
 2257DPPC   GL248772  12.716   4.986  37.121 -0.0616 -0.1374  0.0673
 2257DPPC   C1A48773  12.791   5.428  36.749 -0.2263 -0.0350 -0.1581
 2257DPPC   C2A48774  13.072   5.477  36.427  0.2732 -0.0066 -0.0632
 2257DPPC   C3A48775  13.279   5.738  36.147  0.2606 -0.2194 -0.0447
 2257DPPC   C4A48776  13.410   5.611  35.759 -0.0561  0.0003  0.0967
 2257DPPC   C1B48777  12.550   5.036  36.713  0.0225 -0.1299 -0.1919
 2257DPPC   C2B48778  12.740   5.093  36.371 -0.0060 -0.1385  0.2139
 2257DPPC   C3B48779  13.094   5.212  36.031  0.2703  0.0020 -0.3234
 2257DPPC   C4B48780  13.332   5.139  35.530 -0.5063 -0.0363 -0.1868
 2258DPPC   NC348781  19.073  -0.162  15.058 -0.0148 -0.2718 -0.1964
 2258DPPC   PO448782  18.770  -0.386  14.967  0.1750 -0.1149 -0.0963
 2258DPPC   GL148783  18.637  -0.232  15.305  0.0548  0.0122  0.2165
 2258DPPC   GL248784  18.403   0.072  15.148  0.2937  0.1015 -0.0357
 2258DPPC   C1A48785  18.781  -0.202  15.738  0.0041 -0.0438 -0.2549
 2258DPPC   C2A48786  18.712   0.066  16.074  0.1838 -0.1107 -0.0134
 2258DPPC   C3A48787  18.643   0.236  16.437 -0.1541  0.1420 -0.0287
 2258DPPC   C4A48788  18.582   0.552  16.716  0.1487 -0.1270 -0.0863
 2258DPPC   C1B48789  18.109   0.447  15.181  0.4269 -0.2330  0.0963
 2258DPPC   C2B48790  18.092   0.873  15.452  0.2026  0.0058 -0.1655
 2258DPPC   C3B48791  17.917   1.189  15.677 -0.1975 -0.1105 -0.1600
 2258DPPC   C4B48792  18.082   1.262  16.123  0.3546 -0.1186 -0.0112
 2259DPPC   NC348793   9.820   1.876  36.154  0.1457  0.1966 -0.1152
 2259DPPC   PO448794   9.531   2.071  36.028 -0.1095 -0.2830  0.0540
 2259DPPC   GL148795   9.571   1.950  35.608 -0.2710 -0.3000  0.0371
 2259DPPC   GL248796   9.734   1.675  35.709 -0.1297  0.0543  0.1842
 2259DPPC   C1A48797   9.732   2.223  35.210 -0.1647  0.3484 -0.1928
 2259DPPC   C2A48798   9.671   2.520  34.903 -0.1503  0.0682  0.3908
 2259DPPC   C3A48799   9.625   2.629  34.463  0.2041 -0.1647 -0.1042
 2259DPPC   C4A48800   9.719   2.727  34.048  0.2593  0.1424 -0.0782
 2259DPPC   C1B48801  10.009   1.780  35.433  0.2842 -0.1903 -0.0269
 2259DPPC   C2B48802  10.200   1.963  35.059  0.0039 -0.0363  0.1373
 2259DPPC   C3B48803  10.128   2.290  34.651  0.0380  0.0588 -0.1176
 2259DPPC   C4B48804  10.076   2.566  34.354 -0.0355  0.1060 -0.0490
 2260DPPC   NC348805  13.823  -4.458  33.813 -0.2098  0.2509  0.1959
 2260DPPC   PO448806  13.493  -4.358  34.067 -0.0157 -0.3359 -0.1536
 2260DPPC   GL148807  13.314  -4.068  33.784 -0.0000 -0.2899 -0.0851
 2260DPPC   GL248808  13.634  -3.914  33.682 -0.1866  0.1671  0.0047
 2260DPPC   C1A48809  13.117  -3.689  33.579 -0.3983  0.1472 -0.2592
 2260DPPC   C2A48810  13.031  -3.604  33.179  0.0545  0.2195  0.1091
 2260DPPC   C3A48811  13.160  -3.369  32.777  0.0988 -0.0617  0.0758
 2260DPPC   C4A48812  13.107  -3.255  32.373 -0.0979  0.0229  0.1770
 2260DPPC   C1B48813  13.643  -3.651  33.367  0.0228 -0.1504 -0.0948
 2260DPPC   C2B48814  13.593  -3.207  33.170 -0.3169 -0.1738 -0.0086
 2260DPPC   C3B48815  13.799  -3.113  32.789 -0.0685  0.1487 -0.0055
 2260DPPC   C4B48816  13.650  -2.941  32.424 -0.1360  0.2402 -0.3667
 2261DPPC   NC348817  21.540  -3.706  14.827  0.1315  0.0665 -0.2927
 2261DPPC   PO448818  21.961  -3.922  14.841  0.0361 -0.1911  0.3428
 2261DPPC   GL148819  22.222  -4.144  14.646  0.0387 -0.1029  0.2307
 2261DPPC   GL248820  22.256  -4.503  14.629  0.2527  0.0509 -0.0619
 2261DPPC   C1A48821  22.545  -4.111  14.395  0.0829  0.0070 -0.0099
 2261DPPC   C2A48822  22.921  -4.224  14.193 -0.1425 -0.0718 -0.3392
 2261DPPC   C3A48823  23.138  -4.066  13.978  0.1752  0.0107 -0.0424
 2261DPPC   C4A48824  23.372  -4.029  13.517 -0.1195 -0.1369  0.1014
 2261DPPC   C1B48825  22.612  -4.661  14.389 -0.0082  0.1037 -0.2572
 2261DPPC   C2B48826  23.012  -4.871  14.413 -0.3252 -0.0145  0.0540
 2261DPPC   C3B48827  23.220  -5.164  14.581  0.1049  0.1028 -0.2628
 2261DPPC   C4B48828  23.535  -5.143  14.919  0.0000 -0.0206  0.3169
 2262DPPC   NC348829  20.122   0.443  13.787  0.2921  0.0731 -0.0121
 2262DPPC   PO448830  19.730   0.764  13.838  0.3620  0.0089  0.0531
 2262DPPC   GL148831  19.685   1.156  13.540 -0.0609  0.1394 -0.1753
 2262DPPC   GL248832  19.645   1.458  13.544 -0.0524  0.1477 -0.4930
 2262DPPC   C1A48833  19.427   1.253  13.163 -0.0983  0.1772 -0.0399
 2262DPPC   C2A48834  19.338   0.917  13.187  0.0874  0.0792  0.2221
 2262DPPC   C3A48835  19.457   0.568  12.956 -0.0108  0.3369 -0.0643
 2262DPPC   C4A48836  19.466   0.099  13.030  0.0167 -0.0999  0.0342
 2262DPPC   C1B48837  19.224   1.652  13.507 -0.0028  0.0609 -0.0713
 2262DPPC   C2B48838  18.770   1.882  13.541  0.2054  0.0502 -0.0054
 2262DPPC   C3B48839  18.313   1.911  13.407 -0.0027  0.0874  0.0436
 2262DPPC   C4B48840  17.947   1.656  13.415  0.0936 -0.3146  0.0272
 2263DPPC   NC348841  22.005  -4.655  18.833 -0.0766  0.0662 -0.0594
 2263DPPC   PO448842  21.852  -5.051  18.990  0.2788 -0.2390 -0.1669
 2263DPPC   GL148843  22.219  -4.995  19.155 -0.0101  0.1930 -0.0522
 2263DPPC   GL248844  22.161  -4.666  19.346 -0.0754  0.0492  0.0453
 2263DPPC   C1A48845  22.400  -5.008  19.574  0.2824  0.0678 -0.2855
 2263DPPC   C2A48846  22.663  -4.789  19.847 -0.0192 -0.2164 -0.1491
 2263DPPC   C3A48847  23.009  -4.732  20.100  0.2986  0.4321 -0.0456
 2263DPPC   C4A48848  23.105  -4.371  20.410  0.0546  0.0574  0.1205
 2263DPPC   C1B48849  22.486  -4.487  19.424  0.1593 -0.2092  0.0214
 2263DPPC   C2B48850  22.820  -4.353  19.644  0.1291 -0.0738 -0.1983
 2263DPPC   C3B48851  22.837  -4.140  20.093  0.0203  0.1359 -0.0417
 2263DPPC   C4B48852  22.830  -3.761  20.195  0.0625  0.0091  0.0446
 2264DPPC   NC348853   8.082  11.000  33.507 -0.2349 -0.0309  0.1804
 2264DPPC   PO448854   8.128  10.607  33.725  0.3459  0.2088 -0.0241
 2264DPPC   GL148855   8.423  10.477  33.399 -0.1782  0.0295 -0.1980
 2264DPPC   GL248856   8.216  10.293  33.253  0.0359 -0.0032 -0.1621
 2264DPPC   C1A48857   8.685  10.363  33.053  0.1497  0.2714 -0.0348
 2264DPPC   C2A48858   8.896  10.010  32.888 -0.0315  0.1230 -0.0665
 2264DPPC   C3A48859   9.140   9.772  32.622  0.0480 -0.1006  0.3621
 2264DPPC   C4A48860   9.535   9.804  32.453 -0.5697 -0.0492 -0.1365
 2264DPPC   C1B48861   8.424   9.801  33.043 -0.2901 -0.2166 -0.2564
 2264DPPC   C2B48862   8.645   9.546  32.699 -0.0032  0.0131 -0.3953
 2264DPPC   C3B48863   8.939   9.349  32.493 -0.0808  0.1646  0.2063
 2264DPPC   C4B48864   9.374   9.263  32.280 -0.4063  0.3749  0.2046
 2265DPPC   NC348865  10.341  -0.255  35.895  0.1036  0.1342 -0.1241
 2265DPPC   PO448866  10.319  -0.435  35.562 -0.2047  0.0408  0.1448
 2265DPPC   GL148867  10.411  -0.568  35.156 -0.0615 -0.1385  0.1525
 2265DPPC   GL248868  10.565  -0.750  35.310  0.1359 -0.0178  0.2272
 2265DPPC   C1A48869  10.611  -0.638  34.719 -0.0931  0.1820  0.1480
 2265DPPC   C2A48870  10.472  -0.756  34.322  0.1735  0.0591 -0.3324
 2265DPPC   C3A48871  10.421  -1.117  34.018 -0.0402  0.4014  0.1918
 2265DPPC   C4A48872  10.267  -1.174  33.614  0.2681  0.2087  0.0104
 2265DPPC   C1B48873  10.900  -0.514  35.103  0.2618  0.1630  0.2800
 2265DPPC   C2B48874  11.328  -0.614  35.135  0.0247  0.0274 -0.1284
 2265DPPC   C3B48875  11.543  -0.731  34.837 -0.3529  0.0654  0.3343
 2265DPPC   C4B48876  11.449  -1.118  34.607 -0.2689 -0.1760  0.2079
 2266DPPC   NC348877  15.575  -3.609  11.332 -0.4707  0.1196  0.0538
 2266DPPC   PO448878  15.653  -3.138  11.107  0.1277 -0.1817 -0.0421
 2266DPPC   GL148879  15.893  -3.129  11.400  0.0084 -0.1911 -0.1998
 2266DPPC   GL248880  16.222  -3.074  11.450 -0.0914  0.1290 -0.0945
 2266DPPC   C1A48881  15.944  -3.277  11.851  0.2971  0.1565  0.0471
 2266DPPC   C2A48882  16.191  -3.255  12.203  0.0760  0.3364 -0.0455
 2266DPPC   C3A48883  16.544  -3.092  12.264 -0.0914  0.2220 -0.3592
 2266DPPC   C4A48884  16.766  -2.783  12.143 -0.1461 -0.1983 -0.1381
 2266DPPC   C1B48885  16.707  -3.015  11.374  0.2954 -0.0797 -0.2274
 2266DPPC   C2B48886  17.116  -3.012  11.560 -0.0098  0.1113  0.1851
 2266DPPC   C3B48887  17.423  -3.063  11.909 -0.2416  0.1737 -0.1458
 2266DPPC   C4B48888  17.837  -3.124  11.969  0.0529  0.5174  0.1180
 2267DPPC   NC348889  20.233   6.624  37.259 -0.4785 -0.1260 -0.0028
 2267DPPC   PO448890  20.403   6.397  37.030 -0.3070  0.1223  0.0416
 2267DPPC   GL148891  20.157   6.532  36.626 -0.1298 -0.0046  0.3565
 2267DPPC   GL248892  20.376   6.408  36.403 -0.2414  0.4605  0.0682
 2267DPPC   C1A48893  19.827   6.492  36.259 -0.0435  0.2047  0.0588
 2267DPPC   C2A48894  19.693   6.488  35.868  0.4199  0.1330 -0.1251
 2267DPPC   C3A48895  19.631   6.278  35.501  0.0546 -0.2823  0.0094
 2267DPPC   C4A48896  19.406   5.904  35.292 -0.2121  0.1810 -0.0788
 2267DPPC   C1B48897  20.334   6.179  36.117 -0.0418 -0.1625  0.0023
 2267DPPC   C2B48898  19.944   6.027  35.865 -0.2350  0.0423 -0.1875
 2267DPPC   C3B48899  19.892   5.767  35.558 -0.1269 -0.0348 -0.0497
 2267DPPC   C4B48900  20.067   5.436  35.166  0.0503 -0.4957 -0.1846
 2268DPPC   NC348901  15.383  16.418  30.276  0.4565  0.0159  0.3185
 2268DPPC   PO448902  15.547  16.019  30.127  0.0162  0.2313  0.0499
 2268DPPC   GL148903  15.436  15.628  29.929 -0.0806 -0.3060 -0.2979
 2268DPPC   GL248904  15.006  15.483  29.980 -0.3193 -0.1874  0.2463
 2268DPPC   C1A48905  15.597  15.414  29.624  0.1126  0.0584  0.1353
 2268DPPC   C2A48906  15.671  15.104  29.353 -0.0189 -0.0732 -0.2400
 2268DPPC   C3A48907  15.724  14.715  29.140 -0.1950 -0.0241  0.3154
 2268DPPC   C4A48908  15.516  14.545  28.742 -0.2573  0.0195  0.1835
 2268DPPC   C1B48909  14.933  15.050  29.914  0.2089 -0.3684 -0.3623
 2268DPPC   C2B48910  14.836  14.585  29.740  0.0464 -0.2423  0.0739
 2268DPPC   C3B48911  14.869  14.202  29.499 -0.2238  0.3494 -0.2371
 2268DPPC   C4B48912  15.014  13.941  29.147  0.0108 -0.0922  0.2786
 2269DPPC   NC348913  19.737  -5.562  15.122 -0.3762 -0.0893 -0.0286
 2269DPPC   PO448914  19.530  -5.860  15.473  0.0669 -0.2663  0.1060
 2269DPPC   GL148915  19.422  -6.296  15.385  0.0795  0.1508  0.1116
 2269DPPC   GL248916  19.249  -6.253  15.127  0.1898 -0.0234 -0.1000
 2269DPPC   C1A48917  19.266  -6.771  15.479  0.0183  0.4111 -0.0869
 2269DPPC   C2A48918  19.222  -7.216  15.276 -0.1947 -0.0959  0.1084
 2269DPPC   C3A48919  19.124  -7.620  15.137  0.0799 -0.0332  0.2642
 2269DPPC   C4A48920  18.948  -7.637  14.797 -0.0996  0.0207  0.3306
 2269DPPC   C1B48921  18.973  -6.543  15.078 -0.1609 -0.2145  0.1434
 2269DPPC   C2B48922  18.762  -6.917  15.082  0.0447 -0.2802 -0.1677
 2269DPPC   C3B48923  18.662  -7.327  15.042 -0.1115  0.2500  0.2877
 2269DPPC   C4B48924  18.601  -7.728  15.111 -0.0007 -0.1926 -0.0492
 2270DPPC   NC348925  20.180  -4.819  14.938 -0.1532  0.0903 -0.3410
 2270DPPC   PO448926  20.101  -5.277  15.006  0.0416  0.0764  0.0730
 2270DPPC   GL148927  20.293  -5.665  14.885  0.0697  0.0738 -0.0291
 2270DPPC   GL248928  20.091  -5.767  14.822  0.2213 -0.0014  0.0261
 2270DPPC   C1A48929  20.503  -5.886  14.606 -0.0659  0.2710 -0.2582
 2270DPPC   C2A48930  20.767  -6.017  14.502  0.1604 -0.1038 -0.0371
 2270DPPC   C3A48931  20.698  -6.431  14.282  0.2754 -0.1479  0.0832
 2270DPPC   C4A48932  20.934  -6.638  14.005  0.2634 -0.1343 -0.0535
 2270DPPC   C1B48933  20.029  -6.081  14.586 -0.1185  0.0592 -0.0322
 2270DPPC   C2B48934  19.975  -6.406  14.284 -0.4481  0.2129  0.0271
 2270DPPC   C3B48935  20.079  -6.644  14.062  0.0422  0.2266  0.1509
 2270DPPC   C4B48936  19.874  -7.051  14.037  0.2674 -0.2224 -0.0900
 2271DPPC   NC348937  26.179  -4.966  18.976  0.1792 -0.3603  0.2823
 2271DPPC   PO448938  26.083  -4.897  18.605 -0.0770  0.3322 -0.3983
 2271DPPC   GL148939  25.812  -4.574  18.642  0.1683 -0.1937  0.2501
 2271DPPC   GL248940  25.873  -4.320  18.404  0.0781 -0.0414 -0.0061
 2271DPPC   C1A48941  25.357  -4.346  18.568  0.2959 -0.0302 -0.0736
 2271DPPC   C2A48942  25.088  -3.978  18.545 -0.0386  0.0232  0.0244
 2271DPPC   C3A48943  24.997  -3.669  18.714 -0.0357 -0.3208  0.1615
 2271DPPC   C4A48944  24.880  -3.340  18.870  0.1927  0.0481 -0.0591
 2271DPPC   C1B48945  25.608  -3.962  18.554 -0.0122  0.1243 -0.1186
 2271DPPC   C2B48946  25.596  -3.583  18.602 -0.2507 -0.0725 -0.2968
 2271DPPC   C3B48947  25.297  -3.225  18.531  0.2388 -0.1523 -0.0574
 2271DPPC   C4B48948  25.293  -2.828  18.381  0.1287  0.0092 -0.0077
 2272DPPC   NC348949  22.392  -5.589  29.087 -0.2280  0.0291  0.0224
 2272DPPC   PO448950  22.022  -5.490  29.289  0.0315  0.0456  0.1407
 2272DPPC   GL148951  21.745  -5.380  29.156 -0.0038  0.4586 -0.0761
 2272DPPC   GL248952  21.613  -5.412  28.801  0.2733  0.0645 -0.1314
 2272DPPC   C1A48953  21.399  -5.042  29.156  0.0612 -0.2194  0.2108
 2272DPPC   C2A48954  21.076  -4.840  29.233  0.0145 -0.2512 -0.2641
 2272DPPC   C3A48955  20.842  -4.425  29.345  0.3244  0.0178  0.0256
 2272DPPC   C4A48956  20.621  -4.135  29.251  0.1838  0.3685 -0.2098
 2272DPPC   C1B48957  21.389  -5.077  28.611  0.1475 -0.0755 -0.2848
 2272DPPC   C2B48958  21.368  -4.701  28.298 -0.2522 -0.0762 -0.1972
 2272DPPC   C3B48959  21.329  -4.242  28.395  0.1738  0.2516  0.2190
 2272DPPC   C4B48960  21.534  -3.733  28.402 -0.0498  0.0059  0.3051
 2273DPPC   NC348961  10.556  11.366  25.856  0.2892  0.1439  0.4143
 2273DPPC   PO448962  10.797  11.700  25.952  0.3248 -0.2072  0.0912
 2273DPPC   GL148963  10.712  12.111  25.803  0.1264 -0.2413  0.3440
 2273DPPC   GL248964  10.497  12.025  25.630 -0.3100 -0.3188  0.2599
 2273DPPC   C1A48965  10.446  12.540  25.732 -0.4120 -0.0623  0.1471
 2273DPPC   C2A48966  10.031  12.777  25.708 -0.2250  0.1665 -0.0692
 2273DPPC   C3A48967   9.698  12.702  25.503 -0.0173 -0.0501 -0.1177
 2273DPPC   C4A48968   9.344  13.005  25.390  0.1886 -0.1896  0.0273
 2273DPPC   C1B48969  10.441  12.195  25.283 -0.2077  0.1063  0.4142
 2273DPPC   C2B48970  10.289  12.183  24.893 -0.1547  0.2684 -0.1489
 2273DPPC   C3B48971  10.218  12.468  24.660  0.1889 -0.2374 -0.1875
 2273DPPC   C4B48972  10.265  12.798  24.291 -0.0305  0.3178  0.1329
 2274DPPC   NC348973  20.656  -4.409  18.852 -0.0606 -0.1219  0.4900
 2274DPPC   PO448974  20.389  -4.067  18.814  0.2060  0.2711 -0.1459
 2274DPPC   GL148975  20.288  -4.223  19.172 -0.0304  0.4227  0.0544
 2274DPPC   GL248976  20.523  -4.531  19.376  0.2577  0.1055 -0.4779
 2274DPPC   C1A48977  20.049  -4.407  19.514  0.0542 -0.1303  0.2236
 2274DPPC   C2A48978  19.760  -4.592  19.767 -0.1477  0.1159 -0.2098
 2274DPPC   C3A48979  19.634  -4.607  20.155 -0.0826  0.2366  0.0197
 2274DPPC   C4A48980  19.445  -4.986  20.296  0.0379  0.2594 -0.0942
 2274DPPC   C1B48981  20.498  -4.124  19.645 -0.0083 -0.1785 -0.1395
 2274DPPC   C2B48982  20.242  -3.927  19.547  0.2520 -0.2213 -0.1055
 2274DPPC   C3B48983  19.919  -3.518  19.553 -0.3908  0.1246  0.0797
 2274DPPC   C4B48984  19.566  -3.266  19.738 -0.1037  0.0190  0.2313
 2275DPPC   NC348985  13.435   7.038  12.877 -0.0640 -0.2040 -0.0589
 2275DPPC   PO448986  13.037   7.266  13.018 -0.3572  0.2196  0.0223
 2275DPPC   GL148987  13.244   7.338  13.258  0.0469  0.1442  0.0325
 2275DPPC   GL248988  13.471   7.207  13.388  0.2290 -0.1523  0.1058
 2275DPPC   C1A48989  13.226   7.377  13.768 -0.0223  0.0704 -0.0467
 2275DPPC   C2A48990  13.425   7.364  14.122  0.2597  0.0715  0.0887
 2275DPPC   C3A48991  13.734   7.424  14.318  0.2671  0.1002  0.1354
 2275DPPC   C4A48992  14.081   7.217  14.577  0.0673 -0.0963  0.4586
 2275DPPC   C1B48993  13.477   6.937  13.758 -0.2566  0.0359  0.1113
 2275DPPC   C2B48994  13.629   6.837  14.091  0.0167 -0.0045  0.1293
 2275DPPC   C3B48995  13.715   6.905  14.465 -0.1143  0.4106 -0.0722
 2275DPPC   C4B48996  13.963   6.804  14.835 -0.1066 -0.0137 -0.0625
 2276DPPC   NC348997  25.000  -5.593  20.308 -0.0546  0.2233 -0.0140
 2276DPPC   PO448998  24.921  -6.061  20.077  0.1740  0.2256 -0.0310
 2276DPPC   GL148999  24.481  -5.969  19.891  0.1552  0.4408  0.1878
 2276DPPC   GL249000  24.244  -5.923  20.048  0.0089 -0.0939  0.3855
 2276DPPC   C1A49001  24.060  -5.841  19.604  0.1536 -0.2429  0.1323
 2276DPPC   C2A49002  23.839  -5.899  19.178 -0.0428  0.1206 -0.0759
 2276DPPC   C3A49003  23.654  -5.854  18.747  0.0995  0.2795  0.0550
 2276DPPC   C4A49004  23.344  -5.694  18.579 -0.1339 -0.0995  0.2484
 2276DPPC   C1B49005  23.929  -5.618  20.035 -0.1251 -0.1629  0.2039
 2276DPPC   C2B49006  23.692  -5.461  19.679  0.0356 -0.0093  0.0406
 2276DPPC   C3B49007  23.353  -5.339  19.605 -0.1578  0.0944 -0.2674
 2276DPPC   C4B49008  23.027  -5.343  19.571  0.0417  0.2498  0.0166
 2277DPPC   NC349009  25.085  -5.480  22.029 -0.2831  0.1459  0.2534
 2277DPPC   PO449010  24.972  -5.265  22.308  0.2916 -0.2791 -0.0872
 2277DPPC   GL149011  24.864  -4.804  22.425 -0.0033  0.1811 -0.1156
 2277DPPC   GL249012  24.940  -4.532  22.597  0.0578 -0.0058  0.0693
 2277DPPC   C1A49013  24.440  -4.629  22.259 -0.0956  0.0317  0.1778
 2277DPPC   C2A49014  24.220  -4.273  22.290 -0.0429  0.3352 -0.1522
 2277DPPC   C3A49015  24.099  -3.955  22.519  0.1072 -0.2092 -0.1736
 2277DPPC   C4A49016  24.080  -3.518  22.597  0.0814 -0.2127  0.0033
 2277DPPC   C1B49017  24.650  -4.198  22.551 -0.0940 -0.0994 -0.5135
 2277DPPC   C2B49018  24.560  -3.817  22.530  0.0563  0.1593 -0.2160
 2277DPPC   C3B49019  24.626  -3.319  22.396  0.4712 -0.0830 -0.0096
 2277DPPC   C4B49020  24.296  -2.949  22.336 -0.1074  0.1059 -0.0173
 2278DPPC   NC349021  22.797  -2.961  15.004 -0.2538  0.0785 -0.1663
 2278DPPC   PO449022  22.801  -2.542  15.154  0.4085  0.0813 -0.0962
 2278DPPC   GL149023  23.175  -2.608  14.797  0.1214 -0.4300 -0.2369
 2278DPPC   GL249024  23.094  -2.814  14.569  0.0251  0.2668 -0.0030
 2278DPPC   C1A49025  23.587  -2.836  14.567  0.5035  0.0179 -0.2638
 2278DPPC   C2A49026  23.941  -2.767  14.349  0.0865  0.1146  0.1463
 2278DPPC   C3A49027  24.280  -2.664  14.236  0.2404 -0.1162  0.1098
 2278DPPC   C4A49028  24.219  -2.665  13.867 -0.2554 -0.2671 -0.0656
 2278DPPC   C1B49029  23.091  -2.793  14.214  0.1050  0.4314  0.0760
 2278DPPC   C2B49030  23.247  -2.946  13.753  0.6145 -0.0072  0.0684
 2278DPPC   C3B49031  23.563  -2.907  13.474  0.0559 -0.1367 -0.2665
 2278DPPC   C4B49032  23.739  -2.739  13.122 -0.1261  0.3499 -0.1336
 2279DPPC   NC349033  13.918  -7.472  28.550  0.3609  0.1940  0.2124
 2279DPPC   PO449034  13.539  -7.282  28.401 -0.0169 -0.0304 -0.0551
 2279DPPC   GL149035  13.790  -6.945  28.729 -0.1503 -0.0377  0.0548
 2279DPPC   GL249036  13.854  -7.010  29.024  0.2355 -0.1161 -0.4354
 2279DPPC   C1A49037  13.920  -6.584  28.528  0.3783  0.1101 -0.4730
 2279DPPC   C2A49038  13.898  -6.239  28.283 -0.1622 -0.1414  0.0272
 2279DPPC   C3A49039  13.847  -5.787  28.182 -0.0693  0.2474  0.0042
 2279DPPC   C4A49040  13.705  -5.613  27.917  0.2276 -0.2790 -0.1112
 2279DPPC   C1B49041  14.085  -6.606  29.004  0.4559 -0.1836  0.1854
 2279DPPC   C2B49042  14.200  -6.262  28.722  0.2916  0.2465 -0.1961
 2279DPPC   C3B49043  14.314  -5.950  28.445  0.2915 -0.0698  0.2619
 2279DPPC   C4B49044  14.670  -5.626  28.467 -0.1229 -0.0355  0.0996
 2280DPPC   NC349045  20.769   6.291  36.666 -0.1533 -0.1783  0.0926
 2280DPPC   PO449046  21.032   6.643  36.547  0.2756  0.0604 -0.1678
 2280DPPC   GL149047  20.906   6.576  36.179  0.0814 -0.1500  0.1189
 2280DPPC   GL249048  21.088   6.445  36.033 -0.2409  0.1133 -0.2069
 2280DPPC   C1A49049  20.718   6.831  35.806 -0.0312  0.2168  0.0734
 2280DPPC   C2A49050  20.811   7.000  35.403  0.1176 -0.0913 -0.1153
 2280DPPC   C3A49051  20.917   7.195  34.938  0.1977  0.0529  0.0646
 2280DPPC   C4A49052  20.932   7.276  34.545 -0.4198 -0.5184  0.2184
 2280DPPC   C1B49053  21.102   6.590  35.683 -0.2460 -0.2493 -0.1471
 2280DPPC   C2B49054  21.049   6.602  35.201  0.2730  0.0718 -0.1850
 2280DPPC   C3B49055  21.044   6.775  34.771  0.0351  0.2708 -0.0501
 2280DPPC   C4B49056  20.836   6.478  34.398  0.1349 -0.2082  0.2300
 2281DPPC   NC349057   8.244   5.805  22.332 -0.0227 -0.1983  0.3983
 2281DPPC   PO449058   7.957   5.683  22.645  0.0576 -0.0956 -0.0918
 2281DPPC   GL149059   7.595   5.600  22.320 -0.1990 -0.2282 -0.0782
 2281DPPC   GL249060   7.456   5.418  22.593 -0.0804  0.2032  0.1324
 2281DPPC   C1A49061   7.279   5.678  22.106 -0.1000 -0.2028  0.1707
 2281DPPC   C2A49062   7.077   6.023  22.010  0.1312  0.1182  0.0652
 2281DPPC   C3A49063   6.939   6.379  22.038 -0.0021  0.3843 -0.3629
 2281DPPC   C4A49064   6.651   6.484  22.254  0.0208  0.2346 -0.1099
 2281DPPC   C1B49065   6.979   5.452  22.470  0.1706 -0.1184  0.1974
 2281DPPC   C2B49066   6.722   5.496  22.058 -0.0018  0.2066  0.1574
 2281DPPC   C3B49067   6.325   5.420  21.721  0.2860 -0.3394  0.1013
 2281DPPC   C4B49068   6.191   5.258  21.349  0.0136 -0.3577  0.2596
 2282DPPC   NC349069  20.567   0.214  15.602 -0.1787 -0.2584 -0.0770
 2282DPPC   PO449070  20.310  -0.131  15.977 -0.1037  0.0984 -0.1139
 2282DPPC   GL149071  20.012  -0.047  16.149  0.3311 -0.2310  0.1902
 2282DPPC   GL249072  19.762   0.128  16.024  0.0425 -0.1759  0.1335
 2282DPPC   C1A49073  19.911   0.309  16.415 -0.0452  0.0820 -0.1463
 2282DPPC   C2A49074  19.964   0.483  16.741 -0.2890 -0.0437 -0.0703
 2282DPPC   C3A49075  20.178   0.849  16.761  0.2399  0.1532  0.2813
 2282DPPC   C4A49076  20.202   1.027  17.070  0.1682 -0.1497 -0.1312
 2282DPPC   C1B49077  19.560   0.494  15.994 -0.0892  0.1700  0.1650
 2282DPPC   C2B49078  19.605   0.837  15.739 -0.2509 -0.2506  0.2022
 2282DPPC   C3B49079  19.633   1.268  15.659 -0.0673 -0.5775  0.3168
 2282DPPC   C4B49080  19.338   1.517  15.389  0.0111  0.0978 -0.1595
 2283DPPC   NC349081  17.509   1.510  11.210 -0.1150  0.1585 -0.2189
 2283DPPC   PO449082  17.879   1.695  11.381  0.0210  0.3812 -0.0961
 2283DPPC   GL149083  18.081   1.681  11.685  0.1184  0.1365  0.2302
 2283DPPC   GL249084  17.919   1.683  12.071 -0.0771  0.4672 -0.0265
 2283DPPC   C1A49085  18.304   1.394  11.891 -0.0373 -0.0539 -0.2004
 2283DPPC   C2A49086  18.691   1.223  12.018  0.1779  0.1642  0.4795
 2283DPPC   C3A49087  18.772   0.886  12.388  0.1796  0.0085  0.1855
 2283DPPC   C4A49088  18.667   0.486  12.381 -0.0138  0.1948 -0.2908
 2283DPPC   C1B49089  17.835   1.244  11.999  0.0406 -0.0675  0.2095
 2283DPPC   C2B49090  17.888   0.764  12.074  0.1329  0.0947  0.4030
 2283DPPC   C3B49091  17.718   0.574  12.343  0.0242 -0.1232 -0.2272
 2283DPPC   C4B49092  17.559   0.252  12.565 -0.0542  0.4039  0.2737
 2284DPPC   NC349093  21.827  -3.185  18.163 -0.0755 -0.0860 -0.3495
 2284DPPC   PO449094  22.079  -3.553  18.350 -0.2120 -0.1605  0.0072
 2284DPPC   GL149095  22.023  -3.215  18.670  0.1425 -0.2397  0.2742
 2284DPPC   GL249096  21.798  -3.042  18.628  0.0460  0.1825  0.2015
 2284DPPC   C1A49097  22.225  -2.898  18.942  0.1704 -0.2357  0.1059
 2284DPPC   C2A49098  22.552  -2.950  19.390  0.0977  0.2041 -0.0542
 2284DPPC   C3A49099  22.619  -2.786  19.823  0.1353 -0.0001 -0.0132
 2284DPPC   C4A49100  22.954  -2.955  20.089  0.1389  0.1255  0.0122
 2284DPPC   C1B49101  21.802  -3.116  19.076 -0.1758  0.0226  0.1627
 2284DPPC   C2B49102  22.043  -2.897  19.405 -0.1645  0.4645  0.2050
 2284DPPC   C3B49103  22.167  -3.053  19.833  0.3836  0.3045  0.0121
 2284DPPC   C4B49104  22.273  -2.988  20.319  0.1320 -0.0291  0.3444
 2285DPPC   NC349105  22.328  -2.610   9.751 -0.2290 -0.0905 -0.1263
 2285DPPC   PO449106  22.100  -2.862   9.987  0.1737 -0.3547 -0.0869
 2285DPPC   GL149107  21.875  -2.772  10.325  0.0351  0.0717  0.5359
 2285DPPC   GL249108  22.040  -2.995  10.579 -0.1570  0.0622  0.2205
 2285DPPC   C1A49109  21.613  -2.723  10.681  0.0800 -0.2766  0.0653
 2285DPPC   C2A49110  21.530  -2.503  11.076  0.0079 -0.1438 -0.1879
 2285DPPC   C3A49111  21.479  -2.169  11.213  0.0489  0.0243  0.2304
 2285DPPC   C4A49112  21.170  -2.025  11.588 -0.0791  0.0727  0.1796
 2285DPPC   C1B49113  22.044  -2.876  10.906 -0.1900 -0.2653  0.1011
 2285DPPC   C2B49114  21.982  -2.757  11.368  0.1601 -0.3343  0.1290
 2285DPPC   C3B49115  21.882  -3.000  11.703 -0.3839  0.1665 -0.0429
 2285DPPC   C4B49116  21.564  -2.994  12.039 -0.0932  0.0971 -0.1620
 2286DPPC   NC349117  18.219  -0.534  14.431 -0.0840 -0.0102 -0.0131
 2286DPPC   PO449118  18.274  -0.116  14.200  0.0270 -0.2128  0.2499
 2286DPPC   GL149119  17.942   0.044  13.858 -0.1582  0.0826 -0.2155
 2286DPPC   GL249120  18.044   0.358  13.749 -0.1837  0.2875 -0.1485
 2286DPPC   C1A49121  17.624   0.388  13.918 -0.0613  0.1239 -0.1126
 2286DPPC   C2A49122  17.371   0.788  13.807  0.1649  0.1779  0.3859
 2286DPPC   C3A49123  17.164   1.108  13.922  0.1858 -0.5329 -0.5596
 2286DPPC   C4A49124  16.965   1.494  14.122 -0.2513 -0.2466  0.3426
 2286DPPC   C1B49125  17.995   0.782  13.791  0.1316 -0.4128 -0.0691
 2286DPPC   C2B49126  17.899   1.207  13.676 -0.0770  0.2817 -0.0187
 2286DPPC   C3B49127  17.546   1.398  13.447 -0.2565  0.2301  0.0691
 2286DPPC   C4B49128  17.201   1.508  13.304 -0.6107  0.1319 -0.0032
 2287DPPC   NC349129  23.307  -5.568  28.586  0.2821  0.2068 -0.0628
 2287DPPC   PO449130  23.020  -5.383  28.363  0.4177  0.0845 -0.1971
 2287DPPC   GL149131  22.884  -4.970  28.159 -0.1612  0.2062 -0.0979
 2287DPPC   GL249132  22.960  -4.674  28.407  0.2193  0.0568  0.0167
 2287DPPC   C1A49133  22.915  -4.753  27.820 -0.0039 -0.1728  0.3249
 2287DPPC   C2A49134  23.035  -4.350  27.954 -0.2368  0.0411 -0.0336
 2287DPPC   C3A49135  22.900  -3.929  27.893  0.3770  0.2317  0.0190
 2287DPPC   C4A49136  22.699  -3.454  27.869  0.1078 -0.0983 -0.2584
 2287DPPC   C1B49137  22.614  -4.576  28.189 -0.2371 -0.1078  0.0272
 2287DPPC   C2B49138  22.475  -4.389  27.720 -0.1954  0.0071  0.0091
 2287DPPC   C3B49139  22.216  -4.250  27.357  0.2367 -0.2152  0.2215
 2287DPPC   C4B49140  22.182  -4.238  26.895 -0.0128  0.2486  0.0417
 2288DPPC   NC349141  12.902   3.207  37.419 -0.0014  0.0305  0.2338
 2288DPPC   PO449142  12.539   3.008  37.211  0.2143 -0.0822 -0.1631
 2288DPPC   GL149143  12.662   3.186  36.893 -0.2256 -0.2939  0.0911
 2288DPPC   GL249144  12.672   3.461  37.013 -0.0491 -0.0377  0.1360
 2288DPPC   C1A49145  12.942   3.180  36.538 -0.0291  0.0962 -0.3265
 2288DPPC   C2A49146  13.284   3.201  36.314  0.3020 -0.1275 -0.1148
 2288DPPC   C3A49147  13.698   3.423  36.282 -0.0864  0.1199  0.0502
 2288DPPC   C4A49148  13.912   3.398  35.909  0.1151 -0.1161 -0.1905
 2288DPPC   C1B49149  12.942   3.861  36.836 -0.1782 -0.0361 -0.0114
 2288DPPC   C2B49150  13.187   4.155  36.621 -0.1408  0.0686  0.3903
 2288DPPC   C3B49151  13.172   4.121  36.220  0.1678  0.2124  0.0713
 2288DPPC   C4B49152  12.992   4.284  36.051  0.2730 -0.1881 -0.1254
 2289DPPC   NC349153  18.944  -1.952  34.938  0.1806  0.0083 -0.1809
 2289DPPC   PO449154  19.280  -1.683  35.079 -0.4618  0.2872 -0.3381
 2289DPPC   GL149155  19.594  -1.530  34.830  0.0590  0.1259  0.5825
 2289DPPC   GL249156  19.865  -1.326  34.968  0.2920 -0.2528 -0.1963
 2289DPPC   C1A49157  19.663  -1.651  34.394 -0.0072 -0.0496 -0.1929
 2289DPPC   C2A49158  19.512  -1.686  34.004 -0.2186  0.0913 -0.0324
 2289DPPC   C3A49159  19.317  -1.402  33.670  0.2877 -0.1684 -0.2424
 2289DPPC   C4A49160  19.240  -1.321  33.262  0.1098 -0.1928 -0.2478
 2289DPPC   C1B49161  19.763  -0.894  34.789  0.0861  0.2848 -0.2348
 2289DPPC   C2B49162  19.501  -0.763  34.341 -0.0657  0.0091 -0.1243
 2289DPPC   C3B49163  19.368  -0.531  34.019 -0.1604  0.1657  0.3540
 2289DPPC   C4B49164  19.445  -0.141  33.829 -0.0476 -0.0961 -0.2080
 2290DPPC   NC349165   5.213   6.439  19.524  0.2769  0.0990  0.2114
 2290DPPC   PO449166   5.028   6.358  19.871  0.0027 -0.1743 -0.0648
 2290DPPC   GL149167   4.947   6.148  20.294  0.0667  0.2192 -0.0657
 2290DPPC   GL249168   4.644   5.935  20.375 -0.1310 -0.1369 -0.0666
 2290DPPC   C1A49169   5.166   6.239  20.770  0.1728 -0.0464  0.0971
 2290DPPC   C2A49170   5.594   6.094  20.953  0.0047  0.1730  0.1699
 2290DPPC   C3A49171   5.930   5.906  21.076 -0.0231  0.0990 -0.1133
 2290DPPC   C4A49172   6.306   5.823  21.403 -0.2337 -0.3082 -0.1532
 2290DPPC   C1B49173   4.954   5.744  20.586  0.1150  0.1594 -0.0804
 2290DPPC   C2B49174   5.365   5.625  20.739  0.2137 -0.1884 -0.1536
 2290DPPC   C3B49175   5.689   5.675  20.672 -0.2558  0.2202 -0.1399
 2290DPPC   C4B49176   6.033   5.724  20.399 -0.0532 -0.1350  0.3660
 2291DPPC   NC349177  25.593  -4.528  24.704  0.0914  0.1641  0.1612
 2291DPPC   PO449178  25.237  -4.426  24.843 -0.1547 -0.2001 -0.2497
 2291DPPC   GL149179  25.269  -4.173  24.579  0.1076  0.2164  0.3381
 2291DPPC   GL249180  25.381  -3.811  24.738 -0.1383  0.0018  0.1833
 2291DPPC   C1A49181  25.180  -3.964  24.293  0.0647  0.1218  0.1981
 2291DPPC   C2A49182  24.920  -3.796  23.941  0.2231 -0.0040 -0.2784
 2291DPPC   C3A49183  24.541  -3.446  23.894 -0.2803 -0.2103 -0.2220
 2291DPPC   C4A49184  24.164  -3.427  23.790 -0.0292 -0.1818  0.0320
 2291DPPC   C1B49185  25.053  -3.582  24.792 -0.0639  0.2447 -0.1001
 2291DPPC   C2B49186  24.801  -3.532  24.376  0.0374 -0.0228  0.1885
 2291DPPC   C3B49187  24.403  -3.729  24.293 -0.1085  0.1282 -0.0209
 2291DPPC   C4B49188  23.874  -3.805  24.312  0.1303 -0.0281  0.1330
 2292DPPC   NC349189  23.327  -3.713  16.168  0.0032  0.1371 -0.2227
 2292DPPC   PO449190  23.366  -3.571  16.519 -0.2372 -0.0240  0.1272
 2292DPPC   GL149191  23.770  -3.762  16.417 -0.3022 -0.1694  0.2223
 2292DPPC   GL249192  23.745  -4.020  16.202 -0.0384 -0.1443  0.1136
 2292DPPC   C1A49193  24.218  -3.782  16.252  0.0464 -0.0115 -0.3161
 2292DPPC   C2A49194  24.688  -3.780  16.216  0.3643 -0.0771  0.0875
 2292DPPC   C3A49195  24.920  -3.961  16.437 -0.2423  0.0057  0.0828
 2292DPPC   C4A49196  25.260  -4.282  16.579 -0.2248 -0.0490 -0.1456
 2292DPPC   C1B49197  23.999  -4.027  15.842 -0.0277 -0.0277  0.1387
 2292DPPC   C2B49198  24.386  -4.307  15.811 -0.1161  0.0458  0.0202
 2292DPPC   C3B49199  24.664  -4.528  16.105  0.1821  0.2170  0.0580
 2292DPPC   C4B49200  24.925  -4.503  16.331  0.1340 -0.0348 -0.1820
 2293DPPC   NC349201  14.709  -6.926  13.702  0.0557 -0.1411 -0.0122
 2293DPPC   PO449202  14.463  -6.881  14.107  0.3588 -0.1244  0.1692
 2293DPPC   GL149203  14.618  -6.691  14.396 -0.2857 -0.1687  0.0128
 2293DPPC   GL249204  14.677  -6.572  14.826  0.4547 -0.2098 -0.0391
 2293DPPC   C1A49205  14.970  -6.512  14.391 -0.3722  0.0559 -0.2566
 2293DPPC   C2A49206  15.223  -6.171  14.043  0.1349 -0.1546 -0.5311
 2293DPPC   C3A49207  14.983  -5.738  13.802  0.2433  0.0626 -0.0164
 2293DPPC   C4A49208  14.767  -5.476  13.762 -0.2267 -0.0836  0.2547
 2293DPPC   C1B49209  15.077  -6.632  14.850  0.0568  0.0994 -0.0657
 2293DPPC   C2B49210  15.390  -6.395  14.839  0.1395 -0.2879 -0.0857
 2293DPPC   C3B49211  15.611  -5.988  15.079  0.1640 -0.1119  0.0965
 2293DPPC   C4B49212  15.845  -5.700  15.129 -0.0622 -0.1047  0.1264
 2294DPPC   NC349213  21.446  -5.232  15.178  0.1991  0.1048  0.2097
 2294DPPC   PO449214  21.017  -5.381  15.194 -0.0688 -0.1012  0.1945
 2294DPPC   GL149215  21.177  -5.766  15.233 -0.0764  0.3245 -0.2892
 2294DPPC   GL249216  21.496  -5.702  15.274  0.2623  0.3069  0.2284
 2294DPPC   C1A49217  21.353  -6.215  15.329  0.0403 -0.1311  0.1921
 2294DPPC   C2A49218  21.278  -6.664  15.435  0.1001 -0.2498  0.1140
 2294DPPC   C3A49219  21.317  -6.914  15.816  0.2648  0.0609 -0.0350
 2294DPPC   C4A49220  21.268  -7.236  16.186  0.0824  0.4495 -0.3279
 2294DPPC   C1B49221  21.776  -6.067  15.162 -0.2815 -0.1500  0.3350
 2294DPPC   C2B49222  22.138  -6.324  15.206 -0.0510 -0.3003  0.1300
 2294DPPC   C3B49223  22.514  -6.287  14.896 -0.0132  0.4338 -0.2926
 2294DPPC   C4B49224  22.973  -6.477  14.999 -0.0497  0.1671  0.1743
 2295DPPC   NC349225  25.986   6.382  33.641  0.1946 -0.2121  0.0044
 2295DPPC   PO449226  26.140   5.970  33.474  0.1179  0.2554 -0.2937
 2295DPPC   GL149227  25.768   5.993  33.290 -0.1254  0.1957 -0.4631
 2295DPPC   GL249228  25.526   5.846  33.389  0.0406  0.0196  0.1861
 2295DPPC   C1A49229  25.678   6.114  32.996  0.1324  0.2912 -0.0752
 2295DPPC   C2A49230  25.544   6.471  32.982 -0.0331  0.0294  0.0320
 2295DPPC   C3A49231  25.590   6.836  32.775 -0.0942  0.1355 -0.5144
 2295DPPC   C4A49232  25.918   6.971  32.444  0.2457 -0.0614  0.3765
 2295DPPC   C1B49233  25.117   5.972  33.175  0.1495 -0.0665 -0.0929
 2295DPPC   C2B49234  24.780   5.996  33.094 -0.1558  0.1282  0.1900
 2295DPPC   C3B49235  24.447   6.280  32.928  0.3201 -0.1148 -0.2312
 2295DPPC   C4B49236  24.247   6.486  32.632  0.1269 -0.0415  0.1633
 2296DPPC   NC349237  22.183  -1.873  14.530 -0.2284 -0.0448 -0.1504
 2296DPPC   PO449238  22.461  -2.208  14.295 -0.1978 -0.1142 -0.0127
 2296DPPC   GL149239  22.661  -2.504  14.060  0.0817  0.0381 -0.1000
 2296DPPC   GL249240  22.698  -2.256  13.780 -0.2555  0.1293 -0.3645
 2296DPPC   C1A49241  22.740  -2.777  13.779 -0.0198 -0.1601  0.2510
 2296DPPC   C2A49242  22.923  -2.748  13.401 -0.1089  0.0369 -0.1246
 2296DPPC   C3A49243  22.800  -2.885  12.945 -0.1640 -0.3683 -0.0450
 2296DPPC   C4A49244  22.544  -3.188  12.877  0.0900 -0.0687  0.1193
 2296DPPC   C1B49245  22.823  -2.183  13.393  0.0928  0.3577 -0.1625
 2296DPPC   C2B49246  22.857  -1.824  13.190 -0.0873  0.0729  0.3116
 2296DPPC   C3B49247  23.000  -1.834  12.843 -0.3068 -0.3881 -0.0210
 2296DPPC   C4B49248  23.273  -2.018  12.470  0.4800 -0.0244 -0.1894
 2297DPPC   NC349249  17.417  -5.521  17.216  0.0969  0.2019 -0.1091
 2297DPPC   PO449250  17.628  -5.840  17.396  0.0166  0.0794 -0.1189
 2297DPPC   GL149251  17.521  -6.044  17.743 -0.1532 -0.0434 -0.1622
 2297DPPC   GL249252  17.753  -6.145  17.905  0.2354 -0.0793 -0.1117
 2297DPPC   C1A49253  17.338  -5.867  18.028 -0.1501 -0.0482  0.1993
 2297DPPC   C2A49254  17.040  -5.876  18.422  0.1941  0.0305 -0.1610
 2297DPPC   C3A49255  16.674  -6.168  18.556  0.1819 -0.3895 -0.2716
 2297DPPC   C4A49256  16.244  -6.435  18.429 -0.2464 -0.0904  0.1017
 2297DPPC   C1B49257  17.425  -6.263  18.305  0.4360  0.2071 -0.1076
 2297DPPC   C2B49258  17.104  -6.366  18.483 -0.2096  0.0235  0.2904
 2297DPPC   C3B49259  16.966  -6.711  18.768 -0.1972  0.2057 -0.2943
 2297DPPC   C4B49260  16.855  -7.023  18.948  0.0175  0.0534  0.0395
 2298DPPC   NC349261   5.089   9.254  31.217  0.0063 -0.1545 -0.0139
 2298DPPC   PO449262   5.228   9.023  30.885  0.2140 -0.1261  0.0348
 2298DPPC   GL149263   5.599   9.101  30.954  0.0989  0.1845 -0.3782
 2298DPPC   GL249264   5.830   9.182  31.118  0.0622  0.0333  0.0099
 2298DPPC   C1A49265   5.794   8.711  30.832  0.0936 -0.0412  0.0430
 2298DPPC   C2A49266   5.929   8.413  30.692  0.1322 -0.0022  0.0638
 2298DPPC   C3A49267   5.676   8.056  30.752  0.0429  0.1135 -0.1423
 2298DPPC   C4A49268   5.338   7.698  30.878  0.1501 -0.2306  0.0501
 2298DPPC   C1B49269   6.194   8.936  31.131 -0.0690  0.1043  0.0518
 2298DPPC   C2B49270   6.628   8.877  31.058  0.0566  0.2080 -0.5753
 2298DPPC   C3B49271   6.943   8.762  30.804 -0.4404  0.1133 -0.0445
 2298DPPC   C4B49272   7.179   8.880  30.420  0.0533  0.1606 -0.3110
 2299DPPC   NC349273  13.157  -6.240  16.215  0.0683  0.1986  0.4797
 2299DPPC   PO449274  13.640  -6.379  16.149  0.1213  0.1111 -0.3295
 2299DPPC   GL149275  13.695  -5.902  16.243 -0.0723  0.1767 -0.1425
 2299DPPC   GL249276  13.475  -5.876  16.419  0.4600  0.2311  0.0598
 2299DPPC   C1A49277  13.866  -5.622  16.627  0.2473 -0.2046  0.2383
 2299DPPC   C2A49278  13.850  -5.245  16.842  0.0164 -0.0655  0.0119
 2299DPPC   C3A49279  13.958  -4.985  17.167 -0.0622  0.0043  0.0440
 2299DPPC   C4A49280  14.003  -4.526  17.227 -0.1921  0.0447  0.2534
 2299DPPC   C1B49281  13.030  -5.587  16.390 -0.0361  0.1063 -0.0281
 2299DPPC   C2B49282  12.812  -5.657  16.775  0.2334 -0.0312 -0.0539
 2299DPPC   C3B49283  12.489  -5.563  16.786  0.2324  0.1589 -0.1442
 2299DPPC   C4B49284  12.133  -5.237  16.683 -0.1440 -0.0800  0.3757
 2300DPPC   NC349285   8.736  -5.636  18.712 -0.1133 -0.0397  0.2429
 2300DPPC   PO449286   9.096  -5.934  18.616  0.2071 -0.1359 -0.1231
 2300DPPC   GL149287   9.307  -5.640  18.841  0.0124 -0.0438 -0.0936
 2300DPPC   GL249288   9.479  -5.464  19.088 -0.2268  0.3051  0.1652
 2300DPPC   C1A49289   9.243  -5.078  18.937  0.1875 -0.2553 -0.2882
 2300DPPC   C2A49290   9.500  -4.839  19.219  0.2431  0.1754 -0.1139
 2300DPPC   C3A49291   9.945  -4.633  19.099 -0.3714  0.2440 -0.0502
 2300DPPC   C4A49292  10.439  -4.768  19.006  0.1194 -0.2008  0.0969
 2300DPPC   C1B49293   9.856  -5.688  18.861  0.0218 -0.0863  0.0458
 2300DPPC   C2B49294  10.365  -5.579  19.018  0.0323  0.0651 -0.0574
 2300DPPC   C3B49295  10.582  -5.252  19.091 -0.0978 -0.1961 -0.2013
 2300DPPC   C4B49296  10.858  -4.847  19.303 -0.0112 -0.0503  0.1183
 2301DPPC   NC349297   7.347  -5.315  20.347  0.0857  0.1916  0.3609
 2301DPPC   PO449298   7.710  -5.493  20.052 -0.3986  0.0947  0.1062
 2301DPPC   GL149299   8.050  -5.308  20.257  0.1003 -0.1298 -0.1857
 2301DPPC   GL249300   8.240  -5.376  20.577  0.4022  0.2139 -0.1010
 2301DPPC   C1A49301   8.153  -4.853  20.247 -0.2487 -0.1990  0.1036
 2301DPPC   C2A49302   8.260  -4.418  20.371  0.0713  0.2157  0.3275
 2301DPPC   C3A49303   8.153  -4.118  20.045  0.0724  0.3179 -0.1368
 2301DPPC   C4A49304   8.304  -3.722  19.829  0.3700 -0.0871 -0.0969
 2301DPPC   C1B49305   8.211  -5.065  20.768 -0.2141  0.1004 -0.1705
 2301DPPC   C2B49306   8.175  -4.662  20.770  0.3698 -0.3963 -0.0615
 2301DPPC   C3B49307   8.393  -4.202  20.778 -0.1430  0.0795 -0.3975
 2301DPPC   C4B49308   8.690  -4.009  20.957 -0.0107 -0.2189 -0.0967
 2302DPPC   NC349309  11.187   5.300  13.549 -0.0430  0.3087 -0.1482
 2302DPPC   PO449310  11.690   5.180  13.416  0.1090 -0.0544 -0.5026
 2302DPPC   GL149311  11.613   5.084  13.788  0.1083  0.1418  0.0216
 2302DPPC   GL249312  11.352   5.075  14.015 -0.1236  0.0556 -0.1803
 2302DPPC   C1A49313  11.812   4.828  14.051  0.2504 -0.3085  0.2114
 2302DPPC   C2A49314  11.883   4.728  14.455  0.0139  0.1719  0.1819
 2302DPPC   C3A49315  12.006   4.640  14.827 -0.0660 -0.0844  0.0429
 2302DPPC   C4A49316  11.858   4.569  15.236 -0.2919  0.0211  0.1760
 2302DPPC   C1B49317  11.312   4.896  14.338 -0.0944 -0.1381  0.1980
 2302DPPC   C2B49318  11.598   5.029  14.774 -0.2342  0.0736  0.3485
 2302DPPC   C3B49319  11.860   5.064  15.063 -0.2934 -0.3623 -0.0308
 2302DPPC   C4B49320  12.046   4.978  15.425  0.0192 -0.1045  0.2142
 2303DPPC   NC349321  19.752  -5.619  18.565  0.2139 -0.2126 -0.0441
 2303DPPC   PO449322  19.748  -5.901  18.215  0.0479 -0.0293  0.0535
 2303DPPC   GL149323  19.780  -6.304  18.136 -0.3316  0.0345 -0.0331
 2303DPPC   GL249324  19.603  -6.399  18.423 -0.0015 -0.0152  0.0978
 2303DPPC   C1A49325  19.934  -6.681  17.980 -0.1144 -0.2044 -0.1691
 2303DPPC   C2A49326  20.165  -7.048  17.773 -0.2556 -0.0862 -0.1342
 2303DPPC   C3A49327  20.250  -7.406  17.642  0.4783 -0.2500 -0.2130
 2303DPPC   C4A49328  20.346  -7.708  17.815  0.1600 -0.0204 -0.3085
 2303DPPC   C1B49329  19.581  -6.798  18.543  0.0218 -0.2132  0.3152
 2303DPPC   C2B49330  19.652  -7.052  18.108  0.2914  0.0698 -0.0610
 2303DPPC   C3B49331  19.684  -7.106  17.684 -0.5523  0.1854  0.1779
 2303DPPC   C4B49332  19.644  -7.201  17.301 -0.0675 -0.0297  0.0356
 2304DPPC   NC349333  17.943  -8.191  23.509  0.0155  0.1705  0.0990
 2304DPPC   PO449334  17.974  -8.095  23.933 -0.3644 -0.0549 -0.0461
 2304DPPC   GL149335  17.897  -7.707  23.807 -0.1234 -0.2237 -0.0531
 2304DPPC   GL249336  17.940  -7.645  23.409  0.0139  0.3013  0.1831
 2304DPPC   C1A49337  17.681  -7.376  23.771 -0.1250 -0.0825  0.0017
 2304DPPC   C2A49338  17.328  -7.193  23.614  0.0092 -0.1243  0.2584
 2304DPPC   C3A49339  17.350  -6.777  23.796  0.2045 -0.0413 -0.1023
 2304DPPC   C4A49340  17.059  -6.480  23.694  0.1406 -0.1054 -0.0720
 2304DPPC   C1B49341  18.226  -7.439  23.216  0.1055  0.0964  0.0528
 2304DPPC   C2B49342  18.592  -7.251  23.352  0.1370  0.0082  0.1106
 2304DPPC   C3B49343  18.360  -7.026  23.571  0.0568 -0.0492  0.1785
 2304DPPC   C4B49344  18.204  -6.590  23.786 -0.1859 -0.0579 -0.3392
 2305DPPC   NC349345  22.833  -2.182  14.750 -0.0949 -0.2421  0.2152
 2305DPPC   PO449346  22.611  -1.759  14.730  0.1454 -0.1982  0.0657
 2305DPPC   GL149347  23.023  -1.678  14.493  0.1189 -0.3136 -0.1696
 2305DPPC   GL249348  22.883  -1.912  14.315 -0.1221 -0.2569 -0.1364
 2305DPPC   C1A49349  23.361  -1.778  14.198  0.0777 -0.2780 -0.0038
 2305DPPC   C2A49350  23.642  -1.590  13.724  0.0566 -0.0377  0.1765
 2305DPPC   C3A49351  23.772  -1.567  13.373  0.0035  0.1748  0.0218
 2305DPPC   C4A49352  24.058  -1.548  13.007  0.0777 -0.1856  0.1274
 2305DPPC   C1B49353  23.095  -2.195  14.116  0.1604 -0.1936 -0.0196
 2305DPPC   C2B49354  23.170  -2.400  13.905  0.2487  0.0846  0.3381
 2305DPPC   C3B49355  23.325  -2.404  13.480  0.0513  0.1444 -0.0573
 2305DPPC   C4B49356  23.291  -2.706  13.149  0.1501  0.0713  0.1664
 2306DPPC   NC349357  18.019  10.567  36.682 -0.3725 -0.2540  0.1444
 2306DPPC   PO449358  17.885  10.909  36.373 -0.1869  0.4129 -0.1570
 2306DPPC   GL149359  17.733  10.638  35.990 -0.0008 -0.1582 -0.0978
 2306DPPC   GL249360  17.538  10.895  35.801  0.1909  0.2400  0.1480
 2306DPPC   C1A49361  17.325  10.262  35.869  0.0558  0.0627 -0.0760
 2306DPPC   C2A49362  17.016  10.262  35.694  0.0841  0.2280 -0.2091
 2306DPPC   C3A49363  16.751  10.066  35.419 -0.1792 -0.2054 -0.0910
 2306DPPC   C4A49364  16.388   9.675  35.335 -0.0063 -0.0643  0.1947
 2306DPPC   C1B49365  17.712  10.412  35.575  0.3211 -0.2727  0.1845
 2306DPPC   C2B49366  17.695  10.140  35.116  0.3351 -0.0937 -0.1567
 2306DPPC   C3B49367  17.453   9.941  34.710 -0.0405 -0.0980  0.2705
 2306DPPC   C4B49368  17.441   9.779  34.350 -0.4564 -0.1268 -0.4819
 2307DPPC   NC349369   9.948   0.143  35.965 -0.1680  0.0075 -0.2847
 2307DPPC   PO449370   9.770   0.363  35.667  0.1729 -0.0227  0.3773
 2307DPPC   GL149371   9.707   0.563  35.395  0.1266 -0.0160  0.0379
 2307DPPC   GL249372   9.926   0.382  35.174 -0.0029 -0.2659  0.3171
 2307DPPC   C1A49373   9.545   0.891  35.164 -0.1420 -0.1570  0.0140
 2307DPPC   C2A49374   9.758   1.258  34.862  0.0087  0.2283  0.2315
 2307DPPC   C3A49375   9.964   1.366  34.551  0.1709 -0.0787 -0.0594
 2307DPPC   C4A49376  10.028   1.869  34.359  0.3298  0.0106 -0.2176
 2307DPPC   C1B49377  10.197   0.343  34.845 -0.1599  0.3096  0.1925
 2307DPPC   C2B49378  10.628   0.266  34.732 -0.1393  0.0369 -0.2361
 2307DPPC   C3B49379  11.051   0.170  34.544  0.0774 -0.1081 -0.2755
 2307DPPC   C4B49380  11.383   0.392  34.226  0.0670  0.2965  0.0868
 2308DPPC   NC349381  20.255  -1.765  16.740 -0.1763  0.0363 -0.0822
 2308DPPC   PO449382  20.575  -1.554  16.630 -0.1437  0.1871 -0.0168
 2308DPPC   GL149383  20.396  -1.379  17.000 -0.1617 -0.0183 -0.0443
 2308DPPC   GL249384  20.682  -1.130  16.963  0.0696  0.1684 -0.0901
 2308DPPC   C1A49385  20.076  -1.405  17.314 -0.1356  0.5383  0.1020
 2308DPPC   C2A49386  19.868  -1.304  17.592  0.0585 -0.4699 -0.0086
 2308DPPC   C3A49387  19.722  -0.991  17.933 -0.0286  0.1619  0.1285
 2308DPPC   C4A49388  19.266  -1.098  18.354  0.2958 -0.0727 -0.0408
 2308DPPC   C1B49389  20.615  -1.145  17.331 -0.0771 -0.0978  0.1677
 2308DPPC   C2B49390  20.491  -1.304  17.699  0.2427  0.0476  0.1416
 2308DPPC   C3B49391  20.197  -1.580  17.859 -0.0548  0.1790 -0.2072
 2308DPPC   C4B49392  19.845  -1.562  18.166  0.3964 -0.0799  0.0169
 2309DPPC   NC349393  13.652  -6.037  15.736  0.3102 -0.0012 -0.2175
 2309DPPC   PO449394  13.282  -5.932  15.860  0.0901  0.0625 -0.1152
 2309DPPC   GL149395  13.407  -5.562  16.010 -0.3478 -0.1800  0.1353
 2309DPPC   GL249396  13.588  -5.507  15.850  0.0921 -0.0335  0.2972
 2309DPPC   C1A49397  13.585  -5.182  16.279 -0.1419 -0.0462  0.1781
 2309DPPC   C2A49398  13.912  -4.944  16.363 -0.1217 -0.1856  0.0136
 2309DPPC   C3A49399  14.148  -4.768  16.780 -0.0752  0.1671  0.2641
 2309DPPC   C4A49400  14.510  -4.609  17.000  0.0103 -0.1563  0.0337
 2309DPPC   C1B49401  14.028  -5.447  16.156  0.0003 -0.0989  0.1774
 2309DPPC   C2B49402  14.278  -5.316  16.561 -0.1387  0.3544  0.0304
 2309DPPC   C3B49403  14.424  -5.221  17.003 -0.2158 -0.0123 -0.1214
 2309DPPC   C4B49404  14.611  -4.994  17.342 -0.2817  0.1818  0.1321
 2310DPPC   NC349405  19.020   7.990  13.497 -0.0916  0.2699  0.1616
 2310DPPC   PO449406  19.113   7.603  13.465 -0.1666 -0.0715 -0.1170
 2310DPPC   GL149407  19.219   7.396  13.876 -0.0099  0.0496 -0.2527
 2310DPPC   GL249408  19.463   7.190  13.898 -0.1303  0.0852 -0.3769
 2310DPPC   C1A49409  19.272   7.462  14.239 -0.0114 -0.0707 -0.1919
 2310DPPC   C2A49410  19.342   7.716  14.699  0.0653 -0.4087  0.1904
 2310DPPC   C3A49411  19.036   7.891  15.087 -0.2162 -0.2074 -0.1166
 2310DPPC   C4A49412  18.631   7.602  15.232  0.1580 -0.2694 -0.1896
 2310DPPC   C1B49413  19.120   6.935  13.920  0.1251  0.2651  0.2870
 2310DPPC   C2B49414  18.959   6.699  14.267 -0.1014 -0.1941  0.0971
 2310DPPC   C3B49415  18.983   6.810  14.672  0.0480 -0.1493  0.0738
 2310DPPC   C4B49416  19.158   6.815  15.050 -0.1368  0.0973 -0.0060
 2311DPPC   NC349417  22.361  -6.081  12.080  0.0311  0.1691  0.2881
 2311DPPC   PO449418  22.779  -5.887  12.015 -0.1117  0.1067  0.0433
 2311DPPC   GL149419  22.875  -5.499  12.121  0.1357 -0.0005  0.1364
 2311DPPC   GL249420  23.211  -5.438  12.222  0.1373  0.1529  0.1368
 2311DPPC   C1A49421  22.685  -5.115  12.155  0.3075 -0.0687 -0.1710
 2311DPPC   C2A49422  22.640  -4.903  12.533 -0.0608  0.1344 -0.1313
 2311DPPC   C3A49423  22.301  -4.685  12.665 -0.3167  0.0541  0.1402
 2311DPPC   C4A49424  22.005  -4.352  12.689  0.1605  0.1343  0.3153
 2311DPPC   C1B49425  23.156  -5.108  12.431  0.0238  0.2741 -0.0451
 2311DPPC   C2B49426  23.208  -4.640  12.360 -0.0345  0.1302  0.3295
 2311DPPC   C3B49427  23.308  -4.205  12.376  0.0689 -0.1513 -0.2923
 2311DPPC   C4B49428  23.609  -3.878  12.390 -0.1442 -0.0793 -0.0701
 2312DPPC   NC349429  18.814   3.704  11.848  0.2067  0.1483  0.1858
 2312DPPC   PO449430  18.776   3.527  11.395 -0.0223  0.0514 -0.2041
 2312DPPC   GL149431  19.048   3.262  11.744  0.0717 -0.0780 -0.2553
 2312DPPC   GL249432  18.994   2.960  11.740  0.1617 -0.1261  0.0637
 2312DPPC   C1A49433  19.164   3.290  12.187 -0.2702  0.1259  0.1722
 2312DPPC   C2A49434  19.002   3.041  12.582 -0.0433 -0.0992 -0.2198
 2312DPPC   C3A49435  19.287   2.785  12.889 -0.0413  0.0798 -0.1615
 2312DPPC   C4A49436  19.368   2.678  13.303  0.1456  0.1598  0.0031
 2312DPPC   C1B49437  18.879   2.782  12.154 -0.2284  0.0108 -0.0146
 2312DPPC   C2B49438  19.010   2.539  12.444  0.1084 -0.0015 -0.1976
 2312DPPC   C3B49439  18.727   2.418  12.735 -0.2970  0.6483 -0.3044
 2312DPPC   C4B49440  18.395   2.423  13.063 -0.0252  0.1404  0.4030
 2313DPPC   NC349441  16.907  -5.132  16.615  0.1169  0.0371 -0.2476
 2313DPPC   PO449442  16.587  -5.206  16.351 -0.2455  0.3581  0.0396
 2313DPPC   GL149443  16.312  -5.277  16.575  0.0272  0.1838 -0.2221
 2313DPPC   GL249444  16.049  -5.169  16.393 -0.4014 -0.0328  0.1474
 2313DPPC   C1A49445  15.972  -5.298  16.826  0.0564  0.0345  0.1288
 2313DPPC   C2A49446  15.919  -5.329  17.259 -0.3778 -0.0060 -0.2689
 2313DPPC   C3A49447  15.966  -5.580  17.541  0.2323  0.0477 -0.0597
 2313DPPC   C4A49448  16.180  -5.492  17.921 -0.1519 -0.0888 -0.0227
 2313DPPC   C1B49449  15.825  -4.817  16.626 -0.1260  0.1146  0.1544
 2313DPPC   C2B49450  15.534  -4.959  16.988  0.3240  0.2389  0.3856
 2313DPPC   C3B49451  15.197  -4.871  17.231  0.2537  0.0422 -0.2008
 2313DPPC   C4B49452  15.079  -4.813  17.649 -0.0773 -0.0789 -0.2590
 2314DPPC   NC349453  22.716  -1.207  15.604  0.0349 -0.0435 -0.0122
 2314DPPC   PO449454  23.163  -1.235  15.509 -0.0365 -0.2049 -0.0877
 2314DPPC   GL149455  23.592  -0.926  15.342  0.0023  0.2738  0.1543
 2314DPPC   GL249456  23.693  -1.083  15.037  0.2246 -0.2436 -0.0018
 2314DPPC   C1A49457  24.028  -0.757  15.238  0.0789  0.1420  0.1285
 2314DPPC   C2A49458  24.339  -0.984  15.002  0.0787  0.0594  0.0627
 2314DPPC   C3A49459  24.647  -1.357  15.049  0.1908 -0.0210  0.0898
 2314DPPC   C4A49460  24.652  -1.770  15.146  0.2111 -0.1163  0.1146
 2314DPPC   C1B49461  23.892  -0.937  14.729  0.0125  0.1321  0.0498
 2314DPPC   C2B49462  24.197  -0.556  14.798  0.0981  0.0606  0.2275
 2314DPPC   C3B49463  24.648  -0.575  14.745 -0.0915  0.1666 -0.2443
 2314DPPC   C4B49464  24.979  -0.581  14.598 -0.0565 -0.3271 -0.1403
 2315DPPC   NC349465   7.949  14.467  25.354 -0.3012 -0.1839 -0.1150
 2315DPPC   PO449466   8.200  14.231  25.134 -0.0141  0.1666  0.1930
 2315DPPC   GL149467   8.207  13.838  25.017 -0.1387 -0.0774  0.1464
 2315DPPC   GL249468   7.976  13.616  25.098 -0.3535 -0.3678 -0.2219
 2315DPPC   C1A49469   8.527  13.592  24.987 -0.1123  0.1885 -0.1244
 2315DPPC   C2A49470   8.591  13.226  24.797  0.4168  0.1195  0.3338
 2315DPPC   C3A49471   8.608  12.728  24.948  0.0060 -0.0240  0.4494
 2315DPPC   C4A49472   8.616  12.332  25.121  0.1817 -0.1379 -0.1058
 2315DPPC   C1B49473   8.020  13.318  24.979  0.1208 -0.2749 -0.1636
 2315DPPC   C2B49474   8.030  12.819  25.146 -0.0956 -0.3404  0.3423
 2315DPPC   C3B49475   8.138  12.488  24.917 -0.0779 -0.0162  0.1320
 2315DPPC   C4B49476   8.409  12.362  24.661  0.3415  0.1040 -0.1194
 2316DPPC   NC349477  18.594  15.979  26.459 -0.0547 -0.2384 -0.1467
 2316DPPC   PO449478  18.075  16.165  26.610 -0.1586 -0.1060  0.0573
 2316DPPC   GL149479  18.180  15.795  26.271  0.2650 -0.3174 -0.2056
 2316DPPC   GL249480  17.957  15.709  26.079  0.0005 -0.1724  0.0868
 2316DPPC   C1A49481  18.419  15.420  26.169 -0.0021  0.0093 -0.0813
 2316DPPC   C2A49482  18.478  14.996  26.181 -0.1434 -0.1726  0.1503
 2316DPPC   C3A49483  18.349  14.604  26.180 -0.4591 -0.0016 -0.2192
 2316DPPC   C4A49484  18.602  14.460  25.882  0.0885  0.4354  0.2291
 2316DPPC   C1B49485  17.664  15.499  26.440 -0.0474 -0.1863  0.0269
 2316DPPC   C2B49486  17.477  15.163  26.679  0.3768 -0.1972 -0.1123
 2316DPPC   C3B49487  17.287  14.908  26.988  0.0597  0.0316  0.1300
 2316DPPC   C4B49488  17.318  14.497  27.303 -0.2109 -0.1593 -0.2372
 2317DPPC   NC349489  17.178  -5.683  15.345  0.1347 -0.0398 -0.1836
 2317DPPC   PO449490  17.618  -5.675  15.452  0.4752  0.0256 -0.2013
 2317DPPC   GL149491  17.612  -5.999  15.077  0.0342 -0.0455  0.3927
 2317DPPC   GL249492  17.417  -6.105  15.029  0.5417 -0.0740 -0.1848
 2317DPPC   C1A49493  17.744  -6.313  14.742 -0.2204 -0.1332 -0.0827
 2317DPPC   C2A49494  18.043  -6.603  14.662  0.0556 -0.0752  0.1747
 2317DPPC   C3A49495  18.297  -6.966  14.680  0.2763  0.2593 -0.1215
 2317DPPC   C4A49496  18.628  -7.237  14.535 -0.2729  0.1477 -0.2116
 2317DPPC   C1B49497  17.279  -6.181  14.597  0.3472  0.3252 -0.1186
 2317DPPC   C2B49498  16.838  -6.055  14.364  0.0666 -0.2990  0.0684
 2317DPPC   C3B49499  16.804  -5.945  13.974 -0.2342  0.3160 -0.1021
 2317DPPC   C4B49500  17.061  -5.962  13.588  0.4422  0.2087 -0.0309
 2318DPPC   NC349501  26.690   3.372  16.025 -0.2747 -0.1087  0.0985
 2318DPPC   PO449502  26.314   3.258  16.272  0.2321 -0.3750  0.0737
 2318DPPC   GL149503  26.023   3.125  16.567  0.2049  0.0858  0.1636
 2318DPPC   GL249504  25.718   3.190  16.462  0.0233 -0.1543 -0.0412
 2318DPPC   C1A49505  25.878   3.182  17.027  0.1945 -0.5758  0.0770
 2318DPPC   C2A49506  25.888   2.961  17.348 -0.0126 -0.1420  0.0197
 2318DPPC   C3A49507  25.606   2.676  17.431  0.1282  0.2480 -0.0725
 2318DPPC   C4A49508  25.238   2.600  17.458 -0.0371  0.3241  0.0591
 2318DPPC   C1B49509  25.324   3.136  16.516  0.2141 -0.0717 -0.1249
 2318DPPC   C2B49510  25.105   2.835  16.572 -0.1780 -0.0992  0.0403
 2318DPPC   C3B49511  24.729   2.571  16.571 -0.4825  0.1161  0.4488
 2318DPPC   C4B49512  24.224   2.724  16.517 -0.0443 -0.1789 -0.2324
 2319DPPC   NC349513  20.496  -1.262  35.223 -0.0017 -0.0851 -0.0205
 2319DPPC   PO449514  20.435  -1.613  34.951  0.0484  0.3693  0.2583
 2319DPPC   GL149515  20.330  -1.319  34.706  0.0615  0.0792 -0.2614
 2319DPPC   GL249516  20.244  -1.084  34.755 -0.0176  0.0761 -0.1187
 2319DPPC   C1A49517  20.519  -1.082  34.357  0.2356  0.0067 -0.1911
 2319DPPC   C2A49518  20.431  -0.804  34.036 -0.1330 -0.2733 -0.3663
 2319DPPC   C3A49519  20.316  -0.341  33.835 -0.2259 -0.1013 -0.1723
 2319DPPC   C4A49520  20.056   0.124  33.832  0.2536 -0.2009 -0.4178
 2319DPPC   C1B49521  20.059  -0.946  34.429  0.2704  0.0235  0.1156
 2319DPPC   C2B49522  19.979  -0.645  34.183  0.2683 -0.0648 -0.0137
 2319DPPC   C3B49523  19.842  -0.240  34.152 -0.0273  0.2082 -0.0500
 2319DPPC   C4B49524  19.729   0.171  34.204  0.2713 -0.1047 -0.1532
 2320DPPC   NC349525   7.149  -5.580  25.561  0.1942  0.5509  0.0036
 2320DPPC   PO449526   6.935  -5.177  25.428  0.1700  0.0583 -0.0519
 2320DPPC   GL149527   7.118  -4.760  25.538 -0.1989  0.2148 -0.1118
 2320DPPC   GL249528   7.131  -4.706  25.891 -0.0043  0.2562 -0.3986
 2320DPPC   C1A49529   7.282  -4.422  25.408 -0.1896  0.0250 -0.1420
 2320DPPC   C2A49530   7.386  -3.994  25.368  0.3295 -0.2256  0.2748
 2320DPPC   C3A49531   7.440  -3.647  25.629 -0.1836 -0.3676 -0.1737
 2320DPPC   C4A49532   7.735  -3.306  25.775  0.2582  0.0076  0.2866
 2320DPPC   C1B49533   7.516  -4.555  25.964 -0.0967  0.0964 -0.1874
 2320DPPC   C2B49534   7.790  -4.393  26.350 -0.2130  0.1320  0.2131
 2320DPPC   C3B49535   8.230  -4.466  26.345  0.1394 -0.0763  0.0908
 2320DPPC   C4B49536   8.491  -4.690  26.449  0.0606 -0.1923  0.0722
 2321DPPC   NC349537  16.919  -4.497  15.912  0.1428  0.0607  0.2472
 2321DPPC   PO449538  17.193  -4.110  15.911 -0.0448 -0.0483 -0.3352
 2321DPPC   GL149539  16.701  -4.055  16.139 -0.0807 -0.0341  0.2712
 2321DPPC   GL249540  16.497  -4.196  15.972  0.2548  0.2244 -0.1782
 2321DPPC   C1A49541  16.456  -3.850  16.503 -0.0106  0.1827  0.0557
 2321DPPC   C2A49542  16.087  -3.766  16.742  0.0854  0.2136 -0.1066
 2321DPPC   C3A49543  15.862  -3.846  16.992 -0.0124  0.0700  0.2943
 2321DPPC   C4A49544  15.572  -4.157  17.151  0.0989 -0.2989 -0.2510
 2321DPPC   C1B49545  16.245  -4.254  16.294 -0.2411  0.1842  0.1723
 2321DPPC   C2B49546  15.952  -4.303  16.664 -0.0202  0.1337  0.1388
 2321DPPC   C3B49547  15.582  -4.428  16.744 -0.0691  0.2672 -0.1504
 2321DPPC   C4B49548  15.329  -4.703  16.420 -0.0140  0.4137  0.0005
 2322DPPC   NC349549  24.990   9.585  17.591 -0.1618  0.0926  0.1437
 2322DPPC   PO449550  24.724   9.726  17.841 -0.0361  0.2235 -0.3591
 2322DPPC   GL149551  24.496   9.586  18.187 -0.1340 -0.3194 -0.0713
 2322DPPC   GL249552  24.455   9.691  18.547  0.3449  0.1777  0.0547
 2322DPPC   C1A49553  24.432   9.246  18.402 -0.0188  0.1066 -0.1756
 2322DPPC   C2A49554  24.068   9.025  18.659 -0.2055  0.1163 -0.0987
 2322DPPC   C3A49555  23.675   8.876  18.825 -0.0571 -0.2617 -0.2272
 2322DPPC   C4A49556  23.462   9.086  19.121  0.2358  0.2359  0.0318
 2322DPPC   C1B49557  24.192   9.534  18.818  0.0968 -0.1711  0.2246
 2322DPPC   C2B49558  23.767   9.451  18.797  0.1626  0.0027 -0.0212
 2322DPPC   C3B49559  23.375   9.463  18.767 -0.3280  0.0009 -0.4072
 2322DPPC   C4B49560  23.007   9.716  18.798  0.0345  0.1228  0.3750
 2323DPPC   NC349561  21.441  -1.151  35.150  0.1527  0.0494 -0.3615
 2323DPPC   PO449562  21.087  -1.408  35.175 -0.2140 -0.3224  0.1124
 2323DPPC   GL149563  20.877  -1.199  34.846 -0.0649 -0.4027 -0.3543
 2323DPPC   GL249564  20.826  -1.356  34.655 -0.4196 -0.1413  0.1228
 2323DPPC   C1A49565  20.815  -0.792  34.716 -0.1139  0.0470  0.0793
 2323DPPC   C2A49566  20.754  -0.516  34.352  0.0448  0.0504  0.0246
 2323DPPC   C3A49567  20.727  -0.183  34.173  0.1263 -0.1396  0.3118
 2323DPPC   C4A49568  20.570   0.139  33.803 -0.0222  0.1217  0.0082
 2323DPPC   C1B49569  20.917  -1.468  34.198 -0.0186  0.2067 -0.0643
 2323DPPC   C2B49570  20.999  -1.301  33.787 -0.1895 -0.2187 -0.2686
 2323DPPC   C3B49571  20.931  -1.251  33.446 -0.0272 -0.2602 -0.0237
 2323DPPC   C4B49572  20.790  -1.131  33.043  0.2146  0.0725  0.0828
 2324DPPC   NC349573  20.181  -3.456  14.213  0.0329 -0.1432  0.3435
 2324DPPC   PO449574  20.474  -3.749  14.062 -0.1179 -0.0561  0.3236
 2324DPPC   GL149575  20.515  -3.865  13.598  0.0414 -0.1486 -0.0269
 2324DPPC   GL249576  20.843  -4.120  13.489  0.2377 -0.2749  0.2036
 2324DPPC   C1A49577  20.252  -4.015  13.215  0.2340  0.1104  0.0685
 2324DPPC   C2A49578  19.860  -4.167  13.066  0.1873 -0.0107 -0.1482
 2324DPPC   C3A49579  19.715  -4.577  13.070 -0.4065 -0.1054 -0.2620
 2324DPPC   C4A49580  19.735  -4.943  13.260  0.0183  0.2671 -0.0888
 2324DPPC   C1B49581  20.556  -4.393  13.206  0.3879 -0.1567 -0.6320
 2324DPPC   C2B49582  20.274  -4.542  12.922 -0.1016  0.3173 -0.0423
 2324DPPC   C3B49583  20.264  -4.990  12.906 -0.1025 -0.2795 -0.1316
 2324DPPC   C4B49584  20.233  -5.405  12.889 -0.1198 -0.0347  0.0459
 2325DPPC   NC349585  20.478  -1.809  13.593 -0.3090 -0.0974 -0.1474
 2325DPPC   PO449586  20.325  -2.224  13.580  0.2253 -0.1737  0.2311
 2325DPPC   GL149587  20.077  -2.399  13.217  0.0589  0.1818  0.0955
 2325DPPC   GL249588  19.847  -2.694  13.336 -0.1436 -0.0063 -0.2051
 2325DPPC   C1A49589  19.678  -2.398  12.984 -0.0288 -0.0050  0.2382
 2325DPPC   C2A49590  19.591  -2.088  12.605  0.0464  0.3069 -0.3940
 2325DPPC   C3A49591  19.600  -2.216  12.194 -0.2927 -0.3780 -0.0208
 2325DPPC   C4A49592  19.852  -2.583  12.058  0.2155  0.0184 -0.0419
 2325DPPC   C1B49593  19.854  -3.060  13.023  0.1459  0.0640 -0.0627
 2325DPPC   C2B49594  19.966  -3.345  12.614  0.1759 -0.2248 -0.0998
 2325DPPC   C3B49595  20.006  -3.716  12.623 -0.0876  0.1066  0.1554
 2325DPPC   C4B49596  20.151  -4.146  12.648 -0.0060 -0.1903  0.0389
 2326DPPC   NC349597  22.275  -7.760  20.911 -0.0866 -0.2588  0.0070
 2326DPPC   PO449598  22.075  -7.897  20.553 -0.1209 -0.1380  0.0022
 2326DPPC   GL149599  22.148  -7.623  20.156  0.3708 -0.0743  0.0638
 2326DPPC   GL249600  21.886  -7.503  19.987 -0.0865 -0.2961 -0.2241
 2326DPPC   C1A49601  22.231  -7.103  19.973 -0.1092  0.0432  0.1740
 2326DPPC   C2A49602  22.138  -6.669  20.122 -0.3730 -0.2280  0.1263
 2326DPPC   C3A49603  22.020  -6.485  20.486  0.0035  0.0281 -0.4818
 2326DPPC   C4A49604  21.698  -6.263  20.329  0.0584 -0.1086 -0.3025
 2326DPPC   C1B49605  21.765  -7.201  19.816  0.0974 -0.0585  0.0592
 2326DPPC   C2B49606  21.670  -6.851  19.644  0.1778  0.0070  0.2964
 2326DPPC   C3B49607  21.689  -6.546  19.378  0.2203 -0.3843  0.0904
 2326DPPC   C4B49608  21.791  -6.329  19.043  0.1968  0.3260 -0.1779
 2327DPPC   NC349609  21.515  -2.170  14.300  0.2295 -0.0117 -0.0123
 2327DPPC   PO449610  21.815  -2.025  14.279  0.0216  0.1499  0.2667
 2327DPPC   GL149611  22.177  -1.950  13.919 -0.0069  0.1241  0.0081
 2327DPPC   GL249612  22.184  -2.305  13.888  0.3719 -0.2847  0.2942
 2327DPPC   C1A49613  22.358  -2.013  13.503  0.1190  0.1201  0.2970
 2327DPPC   C2A49614  22.353  -2.028  13.045 -0.2038  0.5671  0.2902
 2327DPPC   C3A49615  22.149  -2.251  12.783 -0.1017  0.0162  0.0074
 2327DPPC   C4A49616  22.116  -2.456  12.421  0.1423 -0.1991  0.0654
 2327DPPC   C1B49617  22.347  -2.512  13.559  0.0288 -0.0651 -0.1058
 2327DPPC   C2B49618  22.582  -2.524  13.138  0.0704 -0.0740 -0.0668
 2327DPPC   C3B49619  23.045  -2.314  12.937 -0.0326  0.2029 -0.2288
 2327DPPC   C4B49620  23.426  -2.260  12.923  0.2273  0.0227  0.1549
 2328DPPC   NC349621  16.321  -7.145  11.477 -0.1683  0.0925 -0.1103
 2328DPPC   PO449622  16.676  -7.072  11.817  0.2044  0.1736  0.0755
 2328DPPC   GL149623  16.883  -6.767  12.094 -0.2103 -0.1869  0.0506
 2328DPPC   GL249624  17.024  -6.914  12.379  0.1636 -0.1685  0.0901
 2328DPPC   C1A49625  17.143  -6.375  12.201  0.1771  0.1573 -0.0043
 2328DPPC   C2A49626  17.192  -5.926  11.963 -0.2385 -0.1315 -0.1686
 2328DPPC   C3A49627  17.146  -5.520  11.928 -0.1427  0.1684  0.4095
 2328DPPC   C4A49628  17.007  -5.124  11.539 -0.3033  0.2560  0.1688
 2328DPPC   C1B49629  17.442  -6.683  12.554 -0.0284 -0.3415  0.1114
 2328DPPC   C2B49630  17.720  -6.356  12.657 -0.1975 -0.1195 -0.2978
 2328DPPC   C3B49631  18.166  -6.298  12.581 -0.1475 -0.1815  0.1126
 2328DPPC   C4B49632  18.627  -6.425  12.490 -0.1432  0.2190  0.0032
 2329DPPC   NC349633  21.044  -3.692  18.267 -0.0099  0.1660 -0.0372
 2329DPPC   PO449634  20.831  -4.041  18.608 -0.1535 -0.2873  0.2912
 2329DPPC   GL149635  20.861  -3.922  19.107  0.0864 -0.0789 -0.2936
 2329DPPC   GL249636  20.897  -4.220  19.288  0.0860  0.0955 -0.1924
 2329DPPC   C1A49637  20.850  -3.728  19.505 -0.0945 -0.1906 -0.0071
 2329DPPC   C2A49638  21.134  -3.434  19.798  0.3891 -0.2009 -0.1416
 2329DPPC   C3A49639  21.228  -3.067  20.088  0.2729  0.1439 -0.1469
 2329DPPC   C4A49640  21.316  -2.817  20.447 -0.1454 -0.2080  0.3273
 2329DPPC   C1B49641  20.960  -4.367  19.590  0.3597 -0.2646  0.0753
 2329DPPC   C2B49642  21.302  -4.489  19.837  0.0298  0.3769 -0.4389
 2329DPPC   C3B49643  21.359  -4.632  20.228  0.2744 -0.0518  0.1348
 2329DPPC   C4B49644  21.381  -4.528  20.531 -0.1093  0.0957 -0.2879
 2330DPPC   NC349645  20.006  11.648  16.762  0.1943  0.0065 -0.2885
 2330DPPC   PO449646  19.480  11.549  16.561  0.2603  0.0025 -0.0416
 2330DPPC   GL149647  19.456  11.502  17.010 -0.0485  0.1569 -0.0427
 2330DPPC   GL249648  19.604  11.631  17.247 -0.1078  0.0162 -0.2331
 2330DPPC   C1A49649  19.513  11.024  17.133 -0.1055 -0.1383  0.4126
 2330DPPC   C2A49650  19.768  10.762  16.948  0.1112  0.0283 -0.3708
 2330DPPC   C3A49651  19.968  10.501  16.622  0.0612 -0.0847 -0.0529
 2330DPPC   C4A49652  19.972   9.993  16.451  0.2963 -0.1204  0.0203
 2330DPPC   C1B49653  19.584  11.361  17.574  0.1681 -0.0002 -0.0836
 2330DPPC   C2B49654  19.753  11.040  17.949 -0.0674 -0.1447 -0.2661
 2330DPPC   C3B49655  19.962  10.768  18.204  0.0800 -0.2361  0.0363
 2330DPPC   C4B49656  20.189  10.358  18.158  0.3456  0.0696 -0.1776
 2331DPPC   NC349657  19.909  -5.750  15.798  0.2372  0.1309 -0.0995
 2331DPPC   PO449658  19.534  -5.682  16.052  0.1358 -0.0293  0.1473
 2331DPPC   GL149659  19.621  -6.187  15.855 -0.2494 -0.1371  0.3577
 2331DPPC   GL249660  19.909  -6.232  15.629  0.1534  0.1348 -0.3641
 2331DPPC   C1A49661  19.687  -6.653  15.823  0.2635 -0.2675  0.1244
 2331DPPC   C2A49662  19.755  -7.014  15.585 -0.0828  0.0259  0.2246
 2331DPPC   C3A49663  19.656  -7.364  15.154 -0.1914  0.1691  0.1980
 2331DPPC   C4A49664  19.606  -7.265  14.798 -0.0875 -0.1305  0.0293
 2331DPPC   C1B49665  20.014  -6.514  15.386 -0.0812 -0.2984 -0.3612
 2331DPPC   C2B49666  19.708  -6.742  15.137  0.0629  0.0703 -0.0437
 2331DPPC   C3B49667  19.324  -6.854  14.903  0.1706  0.3309  0.0584
 2331DPPC   C4B49668  19.073  -7.142  14.729 -0.0870  0.0570 -0.1751
 2332DPPC   NC349669  17.637  -3.754  16.119  0.3333 -0.0508 -0.0383
 2332DPPC   PO449670  17.416  -3.355  16.233  0.1357  0.1597 -0.1650
 2332DPPC   GL149671  17.075  -3.224  16.469  0.1033 -0.2680 -0.3192
 2332DPPC   GL249672  16.803  -3.411  16.445 -0.1205 -0.1292 -0.0449
 2332DPPC   C1A49673  16.674  -2.951  16.763  0.0907  0.0508 -0.0516
 2332DPPC   C2A49674  16.441  -2.698  16.800  0.0504 -0.1373 -0.2203
 2332DPPC   C3A49675  16.223  -2.548  16.612  0.0364  0.0092 -0.0741
 2332DPPC   C4A49676  15.724  -2.373  16.491  0.1784 -0.0689 -0.0763
 2332DPPC   C1B49677  16.378  -3.387  16.611 -0.0563 -0.0479  0.1052
 2332DPPC   C2B49678  16.031  -3.021  16.654 -0.0557  0.0319 -0.3399
 2332DPPC   C3B49679  15.650  -2.809  16.678 -0.0521  0.0741 -0.3924
 2332DPPC   C4B49680  15.267  -2.640  16.521 -0.1364 -0.1442 -0.2269
 2333DPPC   NC349681  16.833  -5.200  33.319 -0.1594 -0.2395 -0.2964
 2333DPPC   PO449682  17.062  -4.860  33.068  0.1356 -0.0981 -0.2560
 2333DPPC   GL149683  16.695  -4.659  32.813 -0.0121  0.1173  0.2787
 2333DPPC   GL249684  16.359  -4.379  32.743  0.0798  0.2225  0.3115
 2333DPPC   C1A49685  16.610  -4.554  32.388 -0.0783 -0.1661 -0.2367
 2333DPPC   C2A49686  16.599  -4.456  32.048  0.1639 -0.0935  0.2594
 2333DPPC   C3A49687  16.415  -4.172  31.803  0.0220 -0.1883  0.4342
 2333DPPC   C4A49688  16.352  -3.913  31.411 -0.1798  0.1114 -0.0969
 2333DPPC   C1B49689  16.655  -4.023  32.567  0.1499 -0.1592 -0.0102
 2333DPPC   C2B49690  16.831  -3.851  32.242 -0.1928 -0.2220  0.1633
 2333DPPC   C3B49691  16.985  -3.420  32.165 -0.0691 -0.1249 -0.0866
 2333DPPC   C4B49692  17.095  -3.151  32.413  0.0911  0.2054  0.0583
 2334DPPC   NC349693  23.423   1.071  15.603 -0.3844  0.3889  0.2429
 2334DPPC   PO449694  23.073   0.794  15.299  0.1423 -0.2736  0.0860
 2334DPPC   GL149695  23.587   0.637  15.394 -0.2104  0.1022  0.1407
 2334DPPC   GL249696  23.535   0.416  15.737  0.1617 -0.2436 -0.0136
 2334DPPC   C1A49697  23.952   0.796  15.184 -0.2488  0.4521 -0.2457
 2334DPPC   C2A49698  24.382   0.794  15.191 -0.1989 -0.2656 -0.0319
 2334DPPC   C3A49699  24.597   1.135  15.089 -0.1564 -0.3126  0.2081
 2334DPPC   C4A49700  24.499   1.503  14.962 -0.1291  0.0688 -0.0806
 2334DPPC   C1B49701  23.869   0.226  15.965  0.1834 -0.1483 -0.0064
 2334DPPC   C2B49702  24.190   0.457  16.089 -0.4062  0.1037 -0.0829
 2334DPPC   C3B49703  24.573   0.510  16.294 -0.1562  0.0816 -0.2804
 2334DPPC   C4B49704  24.886   0.325  16.651  0.4293 -0.2144 -0.0632
 2335DPPC   NC349705  19.831  14.669  32.588 -0.0838 -0.1277  0.0582
 2335DPPC   PO449706  20.150  14.394  32.471 -0.1099  0.0644  0.2959
 2335DPPC   GL149707  19.926  14.012  32.368  0.1118  0.1335 -0.1084
 2335DPPC   GL249708  19.743  13.787  32.587 -0.1792 -0.1078 -0.1058
 2335DPPC   C1A49709  19.828  13.671  32.068 -0.1556 -0.0046  0.0744
 2335DPPC   C2A49710  19.652  13.252  31.953  0.1889 -0.2709 -0.1688
 2335DPPC   C3A49711  19.824  12.839  31.829  0.1967 -0.1184  0.0735
 2335DPPC   C4A49712  19.894  12.614  31.557  0.1429  0.2678 -0.2526
 2335DPPC   C1B49713  19.730  13.446  32.486  0.0622  0.1262  0.0369
 2335DPPC   C2B49714  19.985  13.159  32.384 -0.0069 -0.0460 -0.0679
 2335DPPC   C3B49715  20.186  12.869  32.288 -0.1375 -0.0247  0.2297
 2335DPPC   C4B49716  20.181  12.552  31.948  0.2714  0.2147 -0.0906
 2336DPPC   NC349717  23.649   1.578  34.799 -0.1409  0.2284  0.0550
 2336DPPC   PO449718  23.443   1.668  35.195 -0.3070 -0.0231 -0.1721
 2336DPPC   GL149719  23.095   1.722  34.892 -0.0547 -0.2427  0.1448
 2336DPPC   GL249720  23.146   1.424  34.739 -0.1640  0.0530  0.2479
 2336DPPC   C1A49721  22.791   1.959  34.800  0.1096  0.0059 -0.0277
 2336DPPC   C2A49722  22.480   2.014  34.838  0.3466 -0.1761  0.2189
 2336DPPC   C3A49723  22.003   2.030  34.832  0.2133 -0.0276  0.1284
 2336DPPC   C4A49724  21.598   2.058  34.630 -0.2038 -0.3369 -0.0922
 2336DPPC   C1B49725  23.049   1.422  34.281  0.1114 -0.0492 -0.0530
 2336DPPC   C2B49726  22.934   1.637  33.918  0.4482  0.2135 -0.0558
 2336DPPC   C3B49727  23.069   1.614  33.585 -0.1986  0.2288  0.3631
 2336DPPC   C4B49728  23.479   1.669  33.387  0.4305  0.0320 -0.0152
 2337DPPC   NC349729  23.286  -2.634  17.389 -0.3246 -0.0280  0.2515
 2337DPPC   PO449730  23.594  -2.477  17.080  0.0305  0.2525  0.1643
 2337DPPC   GL149731  23.840  -2.388  17.368  0.1357 -0.1354 -0.1036
 2337DPPC   GL249732  23.827  -1.949  17.414 -0.0733  0.1937 -0.0491
 2337DPPC   C1A49733  24.101  -2.365  17.703  0.0084  0.1875 -0.1585
 2337DPPC   C2A49734  24.204  -2.580  17.958 -0.1360 -0.0515 -0.1136
 2337DPPC   C3A49735  24.508  -2.887  17.944  0.0066  0.2733 -0.4471
 2337DPPC   C4A49736  24.824  -2.969  18.274  0.2712  0.0888 -0.0233
 2337DPPC   C1B49737  24.249  -2.004  17.375  0.2079  0.0546 -0.0520
 2337DPPC   C2B49738  24.657  -1.954  17.151  0.0226  0.0238 -0.1845
 2337DPPC   C3B49739  24.736  -1.861  16.746  0.0248 -0.1170 -0.2105
 2337DPPC   C4B49740  24.514  -1.504  16.542 -0.2683 -0.2058 -0.1900
 2338DPPC   NC349741  26.021  -6.512  18.556 -0.2906 -0.0071 -0.0963
 2338DPPC   PO449742  25.607  -6.325  18.609 -0.0538  0.0454 -0.1208
 2338DPPC   GL149743  25.245  -6.244  18.341 -0.0979  0.1356  0.2261
 2338DPPC   GL249744  24.947  -6.408  18.193  0.4002  0.3228 -0.0647
 2338DPPC   C1A49745  24.917  -5.911  18.386  0.2010  0.0832 -0.0068
 2338DPPC   C2A49746  24.450  -5.745  18.363  0.1294 -0.2655  0.1349
 2338DPPC   C3A49747  23.969  -5.779  18.338 -0.0220  0.1716 -0.2632
 2338DPPC   C4A49748  23.726  -5.532  18.231  0.0995 -0.0160  0.2889
 2338DPPC   C1B49749  24.828  -6.324  18.663  0.0648 -0.0133 -0.0532
 2338DPPC   C2B49750  24.438  -6.241  18.866 -0.3280  0.3855  0.1267
 2338DPPC   C3B49751  24.159  -5.957  18.796  0.2233 -0.0560  0.1795
 2338DPPC   C4B49752  23.956  -5.472  18.764 -0.0670 -0.1974  0.0084
 2339DPPC   NC349753  22.140   5.496  36.783  0.0814 -0.2067  0.0551
 2339DPPC   PO449754  21.847   5.612  36.454 -0.1147  0.3302  0.0133
 2339DPPC   GL149755  21.703   5.651  36.069 -0.3350 -0.1487 -0.0627
 2339DPPC   GL249756  21.511   5.860  36.097 -0.5602  0.0829  0.1223
 2339DPPC   C1A49757  21.681   5.621  35.689 -0.0107 -0.3193 -0.0782
 2339DPPC   C2A49758  21.370   5.772  35.376 -0.1646  0.1343  0.0606
 2339DPPC   C3A49759  20.965   5.693  35.534 -0.2373 -0.1447 -0.5061
 2339DPPC   C4A49760  20.582   5.849  35.650 -0.1930  0.0390 -0.1202
 2339DPPC   C1B49761  21.390   6.102  35.751 -0.0864 -0.1710  0.0674
 2339DPPC   C2B49762  21.018   6.110  35.355  0.2190  0.3583 -0.2554
 2339DPPC   C3B49763  20.808   5.869  35.067  0.0937  0.0583 -0.0326
 2339DPPC   C4B49764  20.443   5.812  34.937  0.0189 -0.1042  0.0681
 2340DPPC   NC349765  14.388  -5.153  32.595 -0.1067  0.2365 -0.0223
 2340DPPC   PO449766  14.374  -5.480  32.214  0.2582 -0.0644  0.0364
 2340DPPC   GL149767  14.285  -5.037  32.102  0.1303  0.3327  0.2665
 2340DPPC   GL249768  14.370  -4.791  32.265 -0.4068 -0.2059 -0.0383
 2340DPPC   C1A49769  14.238  -4.620  31.781  0.0277  0.3059 -0.3192
 2340DPPC   C2A49770  14.200  -4.347  31.408  0.1092 -0.1830 -0.1209
 2340DPPC   C3A49771  14.201  -4.081  31.023  0.3377  0.0050  0.0553
 2340DPPC   C4A49772  13.882  -3.997  30.760  0.2805 -0.1897  0.0806
 2340DPPC   C1B49773  14.705  -4.679  31.965  0.1145 -0.0997 -0.2330
 2340DPPC   C2B49774  14.739  -4.492  31.606  0.2637  0.2004  0.1807
 2340DPPC   C3B49775  14.920  -4.158  31.370  0.0732  0.1751 -0.2987
 2340DPPC   C4B49776  14.596  -3.835  31.152 -0.0906 -0.3253 -0.3728
 2341DPPC   NC349777  10.604  15.811  25.377  0.1006 -0.3802 -0.0362
 2341DPPC   PO449778  10.902  15.900  25.448  0.0796  0.1389  0.0262
 2341DPPC   GL149779  11.017  15.517  25.490 -0.2657 -0.2325  0.3067
 2341DPPC   GL249780  10.785  15.510  25.738  0.0586  0.0193  0.0923
 2341DPPC   C1A49781  11.320  15.281  25.650  0.0476  0.1083  0.2194
 2341DPPC   C2A49782  11.460  14.912  25.573  0.0613 -0.3747 -0.0007
 2341DPPC   C3A49783  11.553  14.488  25.601 -0.1907 -0.4380 -0.2226
 2341DPPC   C4A49784  11.868  14.210  25.874  0.2092  0.0051  0.1460
 2341DPPC   C1B49785  10.984  15.226  25.990  0.2833  0.0382 -0.1949
 2341DPPC   C2B49786  11.219  14.924  26.024 -0.2911 -0.0377  0.0184
 2341DPPC   C3B49787  11.311  14.487  26.121 -0.2397  0.1004 -0.1134
 2341DPPC   C4B49788  11.627  14.244  26.371 -0.0290  0.1142  0.5638
 2342DPPC   NC349789  26.481  -3.521  24.770  0.2440 -0.4488  0.0362
 2342DPPC   PO449790  26.519  -3.234  25.112  0.0150  0.1125 -0.1092
 2342DPPC   GL149791  26.259  -2.947  25.067 -0.1481 -0.1584  0.3332
 2342DPPC   GL249792  26.135  -3.183  24.856 -0.1606 -0.0012 -0.1388
 2342DPPC   C1A49793  26.008  -2.609  25.002 -0.1489  0.1179 -0.1820
 2342DPPC   C2A49794  25.799  -2.242  24.912 -0.0002 -0.0557 -0.3357
 2342DPPC   C3A49795  25.905  -1.886  24.631 -0.0568  0.0273  0.0274
 2342DPPC   C4A49796  26.195  -1.593  24.462  0.2112  0.1270  0.1263
 2342DPPC   C1B49797  26.093  -2.753  24.568  0.1662 -0.1254 -0.2489
 2342DPPC   C2B49798  25.779  -2.538  24.505  0.0885 -0.0400 -0.1159
 2342DPPC   C3B49799  25.457  -2.105  24.520 -0.0623  0.2138  0.1260
 2342DPPC   C4B49800  25.357  -1.812  24.663  0.0615 -0.1958  0.0739
 2343DPPC   NC349801  19.054  -5.728  18.041 -0.0899  0.2057 -0.1558
 2343DPPC   PO449802  19.192  -5.495  18.398 -0.0861 -0.0397 -0.1462
 2343DPPC   GL149803  18.833  -5.827  18.553  0.2135  0.0233  0.3028
 2343DPPC   GL249804  18.697  -6.029  18.330  0.0464  0.0017  0.1424
 2343DPPC   C1A49805  18.450  -5.905  18.836 -0.3354  0.1212  0.2420
 2343DPPC   C2A49806  18.174  -6.014  19.081  0.1402  0.1671  0.3008
 2343DPPC   C3A49807  17.733  -6.038  19.136  0.1185  0.0558 -0.0465
 2343DPPC   C4A49808  17.425  -5.634  19.255 -0.0643  0.1491 -0.5324
 2343DPPC   C1B49809  18.317  -6.242  18.527  0.0568  0.1484  0.0105
 2343DPPC   C2B49810  17.867  -6.120  18.594  0.1937 -0.1740 -0.0356
 2343DPPC   C3B49811  17.463  -5.939  18.694  0.2757 -0.1102  0.0453
 2343DPPC   C4B49812  17.047  -5.839  19.027 -0.2871  0.3150 -0.0117
 2344DPPC   NC349813  22.957  12.697  30.573 -0.0470 -0.1415 -0.4167
 2344DPPC   PO449814  23.121  13.122  30.537  0.0550 -0.1082 -0.0149
 2344DPPC   GL149815  22.911  12.890  30.133 -0.2271 -0.4211 -0.1608
 2344DPPC   GL249816  23.088  12.823  29.836  0.0127 -0.2646  0.0437
 2344DPPC   C1A49817  22.665  12.366  29.948 -0.0531  0.2507 -0.3385
 2344DPPC   C2A49818  22.482  11.954  29.762  0.2841 -0.0092  0.0163
 2344DPPC   C3A49819  22.219  11.734  29.634  0.0974 -0.0495 -0.1827
 2344DPPC   C4A49820  21.982  11.447  29.857 -0.3502 -0.0951  0.2351
 2344DPPC   C1B49821  23.115  12.953  29.390 -0.0067  0.1024 -0.0436
 2344DPPC   C2B49822  23.180  12.972  28.985  0.2074  0.0646  0.0314
 2344DPPC   C3B49823  23.030  12.701  28.742  0.0424 -0.0710  0.1056
 2344DPPC   C4B49824  22.804  12.337  28.624  0.3371  0.1582 -0.2205
 2345DPPC   NC349825  19.495  -3.505  17.659  0.1346 -0.0193  0.0307
 2345DPPC   PO449826  19.795  -3.350  17.713  0.1975 -0.2658  0.0087
 2345DPPC   GL149827  19.892  -3.116  18.107  0.0323  0.3420  0.1455
 2345DPPC   GL249828  20.120  -3.269  18.338 -0.0629 -0.2927  0.3888
 2345DPPC   C1A49829  19.890  -2.714  18.395  0.0698  0.1035  0.3026
 2345DPPC   C2A49830  20.113  -2.763  18.811  0.1571  0.3098 -0.2237
 2345DPPC   C3A49831  20.507  -2.802  19.138 -0.0548 -0.0137 -0.0231
 2345DPPC   C4A49832  20.776  -2.590  19.411 -0.1557 -0.2618  0.2981
 2345DPPC   C1B49833  20.355  -2.995  18.462 -0.3943  0.2220  0.3280
 2345DPPC   C2B49834  20.660  -2.918  18.667  0.0225 -0.0008  0.1477
 2345DPPC   C3B49835  21.038  -3.063  18.576  0.1579 -0.5187 -0.4163
 2345DPPC   C4B49836  21.333  -3.234  18.860  0.0423  0.2120  0.1909
 2346DPPC   NC349837  24.635  -8.671  18.428  0.1385 -0.3006 -0.1014
 2346DPPC   PO449838  24.324  -8.319  18.380 -0.2913  0.0520  0.1823
 2346DPPC   GL149839  23.931  -8.074  18.367 -0.2335 -0.0626 -0.2205
 2346DPPC   GL249840  23.956  -7.884  18.122 -0.0273 -0.1169  0.1925
 2346DPPC   C1A49841  23.863  -7.751  18.621  0.2035 -0.1396  0.0416
 2346DPPC   C2A49842  23.811  -7.292  18.933 -0.0315  0.0426 -0.0224
 2346DPPC   C3A49843  24.109  -6.925  19.025 -0.1225  0.2110  0.0318
 2346DPPC   C4A49844  24.204  -6.548  19.271 -0.5224  0.1893 -0.1644
 2346DPPC   C1B49845  23.946  -7.446  18.178  0.1453  0.1213 -0.4349
 2346DPPC   C2B49846  23.764  -7.024  18.068  0.0999 -0.0261  0.2104
 2346DPPC   C3B49847  23.635  -6.589  18.098  0.0884  0.1677  0.1387
 2346DPPC   C4B49848  23.855  -6.241  17.882 -0.1100 -0.3626  0.1968
 2347DPPC   NC349849  21.350  -0.598  17.001 -0.0670 -0.3295 -0.1736
 2347DPPC   PO449850  21.247  -1.037  17.086 -0.2509  0.1011 -0.0381
 2347DPPC   GL149851  21.031  -0.894  17.387  0.2219 -0.0616  0.0123
 2347DPPC   GL249852  21.194  -0.702  17.558 -0.3555 -0.0049 -0.2217
 2347DPPC   C1A49853  20.772  -0.866  17.748  0.1773  0.1760  0.1161
 2347DPPC   C2A49854  20.576  -0.948  18.173 -0.1543  0.2146 -0.2907
 2347DPPC   C3A49855  20.410  -0.809  18.518  0.2389 -0.1486 -0.1750
 2347DPPC   C4A49856  20.061  -0.861  18.682  0.3064  0.2413  0.1314
 2347DPPC   C1B49857  21.091  -0.304  17.757 -0.0511  0.2280  0.0657
 2347DPPC   C2B49858  20.962   0.037  18.039 -0.0784  0.0520  0.0479
 2347DPPC   C3B49859  20.744   0.368  18.327  0.3393  0.0054  0.0111
 2347DPPC   C4B49860  20.418   0.546  18.604 -0.1135 -0.2254 -0.2351
 2348DPPC   NC349861  17.177  -5.779  31.637  0.2676 -0.1858  0.1756
 2348DPPC   PO449862  17.601  -5.615  31.676 -0.0756  0.1459 -0.0368
 2348DPPC   GL149863  17.668  -5.647  31.299  0.0736 -0.1136  0.0762
 2348DPPC   GL249864  17.359  -5.454  31.243  0.1622  0.1044 -0.1862
 2348DPPC   C1A49865  17.903  -5.628  30.820 -0.1161  0.3426  0.1254
 2348DPPC   C2A49866  17.722  -5.377  30.471 -0.0405 -0.1854  0.1787
 2348DPPC   C3A49867  17.927  -5.415  30.127  0.1524 -0.0652  0.4022
 2348DPPC   C4A49868  17.853  -5.452  29.666  0.2016 -0.1119 -0.3241
 2348DPPC   C1B49869  17.298  -4.978  31.200 -0.0877 -0.2761 -0.0686
 2348DPPC   C2B49870  17.187  -4.498  31.341 -0.1561  0.0312  0.1025
 2348DPPC   C3B49871  17.378  -4.091  31.225 -0.0119 -0.0947 -0.0788
 2348DPPC   C4B49872  17.650  -3.902  31.078 -0.0763  0.0392 -0.2488
 2349DPPC   NC349873   5.417   6.241  32.588  0.1785  0.0140 -0.0687
 2349DPPC   PO449874   4.973   6.127  32.472 -0.0007  0.0247  0.2559
 2349DPPC   GL149875   5.201   6.359  32.065  0.0252 -0.2909  0.0850
 2349DPPC   GL249876   5.386   6.551  32.228 -0.0221 -0.0523  0.3401
 2349DPPC   C1A49877   5.140   6.386  31.608 -0.2183  0.0876 -0.0988
 2349DPPC   C2A49878   5.417   6.657  31.307  0.3303  0.0366 -0.0500
 2349DPPC   C3A49879   5.856   6.906  31.218 -0.1227  0.4066  0.2245
 2349DPPC   C4A49880   6.345   6.950  31.196 -0.2598  0.2357  0.2651
 2349DPPC   C1B49881   5.639   7.031  32.126 -0.5166  0.2534 -0.0061
 2349DPPC   C2B49882   5.858   7.302  32.312  0.1770 -0.1470 -0.0082
 2349DPPC   C3B49883   6.181   7.328  32.613 -0.3419 -0.2178  0.2500
 2349DPPC   C4B49884   6.667   7.378  32.534 -0.3034 -0.0547  0.0335
 2350DPPC   NC349885  23.717  -2.013  15.704 -0.1822  0.0745 -0.2477
 2350DPPC   PO449886  23.558  -2.438  15.565 -0.0699 -0.3234 -0.1276
 2350DPPC   GL149887  23.945  -2.449  15.470 -0.1609  0.1925  0.0911
 2350DPPC   GL249888  23.965  -2.334  15.254  0.2530 -0.1609  0.2483
 2350DPPC   C1A49889  24.210  -2.756  15.427  0.1919  0.0005  0.0686
 2350DPPC   C2A49890  24.405  -3.169  15.554 -0.0631 -0.3989  0.1526
 2350DPPC   C3A49891  24.802  -3.399  15.658 -0.1534  0.1138 -0.4023
 2350DPPC   C4A49892  24.989  -3.609  15.431 -0.2249  0.3754  0.1140
 2350DPPC   C1B49893  24.333  -2.147  15.341  0.0186 -0.0779  0.3477
 2350DPPC   C2B49894  24.312  -1.810  15.541 -0.0024 -0.0235 -0.0077
 2350DPPC   C3B49895  24.608  -1.449  15.542  0.3488 -0.0993 -0.0767
 2350DPPC   C4B49896  24.542  -1.025  15.454  0.1933  0.1142 -0.5783
 2351DPPC   NC349897   6.544  -4.390  27.339 -0.1563  0.1056  0.1404
 2351DPPC   PO449898   6.721  -4.290  27.776 -0.1623 -0.0134 -0.0492
 2351DPPC   GL149899   7.018  -4.385  27.558  0.0480  0.0593  0.0467
 2351DPPC   GL249900   7.048  -4.758  27.624  0.1482 -0.4120 -0.1564
 2351DPPC   C1A49901   7.364  -4.133  27.324 -0.2526  0.0143 -0.3384
 2351DPPC   C2A49902   7.725  -3.922  27.408 -0.0820  0.2101  0.1907
 2351DPPC   C3A49903   7.930  -3.597  27.273  0.0579  0.0155 -0.0868
 2351DPPC   C4A49904   7.864  -3.331  26.847  0.2568  0.1231  0.1343
 2351DPPC   C1B49905   7.510  -4.913  27.736 -0.1547  0.0712  0.1892
 2351DPPC   C2B49906   7.857  -4.673  27.806 -0.1748  0.0049  0.1572
 2351DPPC   C3B49907   8.082  -4.309  27.751  0.0496  0.3403 -0.3033
 2351DPPC   C4B49908   8.279  -3.863  27.564 -0.0353  0.0930 -0.1809
 2352DPPC   NC349909   9.911   0.585  30.658  0.1779  0.2079  0.1166
 2352DPPC   PO449910   9.656   0.735  30.228  0.0343  0.0434  0.1842
 2352DPPC   GL149911   9.424   0.517  30.543 -0.0106  0.3416 -0.2493
 2352DPPC   GL249912   9.129   0.465  30.372  0.0814  0.0534 -0.2368
 2352DPPC   C1A49913   9.370   0.085  30.590  0.0030 -0.0237  0.2163
 2352DPPC   C2A49914   9.126  -0.090  30.951  0.0063 -0.3784 -0.0872
 2352DPPC   C3A49915   8.863  -0.166  31.366  0.0304  0.3605  0.1617
 2352DPPC   C4A49916   8.740  -0.201  31.887 -0.4091 -0.0444  0.3284
 2352DPPC   C1B49917   8.810   0.184  30.261  0.1959 -0.2752 -0.1598
 2352DPPC   C2B49918   8.401  -0.003  30.304  0.0403  0.0405  0.0467
 2352DPPC   C3B49919   8.093  -0.368  30.411  0.1923  0.1128  0.0450
 2352DPPC   C4B49920   7.626  -0.499  30.386 -0.2301  0.0692 -0.0400
 2353DPPC   NC349921  22.446  -0.420  14.688 -0.3197  0.0898 -0.0825
 2353DPPC   PO449922  22.614   0.039  14.750 -0.0158  0.3852  0.2286
 2353DPPC   GL149923  22.965  -0.230  14.424  0.0079 -0.1154  0.1251
 2353DPPC   GL249924  23.222  -0.311  14.557  0.0664  0.1926 -0.1675
 2353DPPC   C1A49925  23.112  -0.398  14.054  0.1321  0.1107  0.1039
 2353DPPC   C2A49926  23.206  -0.349  13.682 -0.0117 -0.0197 -0.1215
 2353DPPC   C3A49927  23.269  -0.570  13.360  0.2285 -0.1922  0.0109
 2353DPPC   C4A49928  23.309  -0.825  13.111 -0.1823  0.0772  0.0059
 2353DPPC   C1B49929  23.681   0.021  14.536 -0.2316 -0.0540 -0.1680
 2353DPPC   C2B49930  24.068   0.239  14.577 -0.1098  0.0583  0.0917
 2353DPPC   C3B49931  24.495   0.414  14.411 -0.3644  0.3307 -0.2640
 2353DPPC   C4B49932  24.755   0.498  14.179  0.0301 -0.0786 -0.1150
 2354DPPC   NC349933  21.071  10.417  15.517  0.0366  0.1636 -0.1301
 2354DPPC   PO449934  21.112  10.551  16.013  0.2849 -0.1683 -0.0454
 2354DPPC   GL149935  21.060  10.378  16.387  0.1953 -0.1812  0.0078
 2354DPPC   GL249936  21.406  10.264  16.517 -0.4475 -0.1935 -0.1259
 2354DPPC   C1A49937  21.006  10.375  16.788  0.0198  0.1162  0.1720
 2354DPPC   C2A49938  20.755  10.451  17.131 -0.1304  0.0555  0.2533
 2354DPPC   C3A49939  20.398  10.554  17.436 -0.1068 -0.0652  0.1602
 2354DPPC   C4A49940  19.982  10.589  17.745  0.1130 -0.0358  0.1694
 2354DPPC   C1B49941  21.265   9.895  16.640 -0.1158 -0.0462 -0.1409
 2354DPPC   C2B49942  21.025   9.914  17.004 -0.1964 -0.0762  0.0462
 2354DPPC   C3B49943  20.599   9.952  17.096  0.3740  0.0371 -0.0067
 2354DPPC   C4B49944  20.282  10.007  17.419 -0.5163  0.2482 -0.0434
 2355DPPC   NC349945  26.382   4.584  17.722 -0.1152  0.1157 -0.2891
 2355DPPC   PO449946  26.191   4.299  17.393 -0.1463  0.1545  0.1030
 2355DPPC   GL149947  25.784   4.482  17.324 -0.1606 -0.1035  0.1072
 2355DPPC   GL249948  25.666   4.279  17.045 -0.2685 -0.0513 -0.2160
 2355DPPC   C1A49949  25.420   4.690  17.350 -0.2746 -0.1290 -0.3383
 2355DPPC   C2A49950  24.997   4.911  17.367 -0.2194 -0.2723 -0.1099
 2355DPPC   C3A49951  24.763   5.306  17.378  0.1346 -0.2517  0.0834
 2355DPPC   C4A49952  24.388   5.456  17.415 -0.0475  0.2534  0.2468
 2355DPPC   C1B49953  25.390   3.975  17.288 -0.0567 -0.0764 -0.0206
 2355DPPC   C2B49954  25.292   3.831  17.728 -0.0365  0.1332  0.0789
 2355DPPC   C3B49955  24.995   3.741  17.989  0.2292 -0.1138  0.0375
 2355DPPC   C4B49956  24.629   3.461  18.179 -0.4467  0.1689  0.0130
 2356DPPC   NC349957   6.983   4.913  34.485  0.0649 -0.2305 -0.2838
 2356DPPC   PO449958   7.287   5.266  34.604  0.0230  0.0929 -0.0938
 2356DPPC   GL149959   7.427   5.518  34.280  0.0045  0.0708 -0.2193
 2356DPPC   GL249960   7.332   5.851  34.208 -0.2934 -0.0873 -0.0027
 2356DPPC   C1A49961   7.325   5.523  33.869 -0.3269  0.2551 -0.0058
 2356DPPC   C2A49962   7.439   5.784  33.550 -0.3043 -0.2684  0.1012
 2356DPPC   C3A49963   7.589   6.002  33.245 -0.2050  0.0778  0.1835
 2356DPPC   C4A49964   7.989   6.004  33.052 -0.1655 -0.0197 -0.2672
 2356DPPC   C1B49965   7.671   5.864  34.009 -0.1696  0.1007 -0.1019
 2356DPPC   C2B49966   7.917   5.752  33.674 -0.5300  0.1036  0.4713
 2356DPPC   C3B49967   8.222   5.749  33.387  0.0390 -0.2826  0.1170
 2356DPPC   C4B49968   8.363   5.538  32.985 -0.2008 -0.1653  0.0576
 2357DPPC   NC349969   3.364   8.034  24.419 -0.0727  0.1472  0.0653
 2357DPPC   PO449970   3.830   7.947  24.415  0.2425  0.0414 -0.2043
 2357DPPC   GL149971   4.263   7.813  24.348  0.0403  0.1535 -0.0449
 2357DPPC   GL249972   4.460   7.758  24.013  0.0493  0.0886 -0.0418
 2357DPPC   C1A49973   4.668   7.717  24.456 -0.1168 -0.1618 -0.0938
 2357DPPC   C2A49974   5.067   7.656  24.501  0.1066  0.0507  0.2596
 2357DPPC   C3A49975   5.524   7.606  24.356  0.3382 -0.2123 -0.1078
 2357DPPC   C4A49976   5.931   7.651  24.353  0.3419 -0.0595 -0.0223
 2357DPPC   C1B49977   4.723   7.516  23.824  0.2553  0.0691  0.0192
 2357DPPC   C2B49978   4.924   7.088  23.817  0.1646  0.4941  0.1193
 2357DPPC   C3B49979   5.258   6.864  23.672  0.1690 -0.2100 -0.3553
 2357DPPC   C4B49980   5.485   6.845  23.353  0.0863  0.0170  0.0497
 2358DPPC   NC349981  17.467  -1.141  14.008 -0.0375  0.1978 -0.0539
 2358DPPC   PO449982  17.301  -1.542  14.093 -0.1105  0.1695  0.1382
 2358DPPC   GL149983  16.971  -1.242  13.878 -0.1089 -0.1016 -0.0178
 2358DPPC   GL249984  16.827  -1.430  14.188 -0.1042 -0.0367  0.1072
 2358DPPC   C1A49985  16.636  -1.099  13.607  0.2911  0.1486 -0.1567
 2358DPPC   C2A49986  16.349  -0.882  13.640  0.0556  0.0653 -0.1374
 2358DPPC   C3A49987  16.249  -0.612  13.879  0.1312  0.2926 -0.2767
 2358DPPC   C4A49988  15.871  -0.379  14.046  0.1833 -0.0720 -0.0072
 2358DPPC   C1B49989  16.437  -1.033  14.111 -0.2675 -0.1405  0.1193
 2358DPPC   C2B49990  16.113  -0.830  14.339  0.1364 -0.4767  0.0441
 2358DPPC   C3B49991  15.926  -0.482  14.497 -0.0669  0.1994 -0.0849
 2358DPPC   C4B49992  15.600  -0.257  14.500 -0.1265 -0.0585 -0.1201
 2359DPPC   NC349993  19.460  -4.200  17.119 -0.2657  0.2239 -0.1076
 2359DPPC   PO449994  19.300  -3.941  17.590 -0.0658  0.1438 -0.0199
 2359DPPC   GL149995  19.199  -3.722  18.077 -0.0717 -0.3009  0.2540
 2359DPPC   GL249996  18.886  -3.601  18.064  0.1392 -0.1832  0.3173
 2359DPPC   C1A49997  19.247  -3.476  18.377  0.1073  0.0730  0.1460
 2359DPPC   C2A49998  19.388  -3.600  18.842 -0.1038 -0.0689  0.1182
 2359DPPC   C3A49999  19.653  -3.448  19.117  0.1819 -0.0954 -0.1623
 2359DPPC   C4A50000  19.837  -3.124  19.118 -0.0078 -0.1069 -0.3108
 2359DPPC   C1B50001  18.701  -3.285  18.271  0.0797  0.0163  0.0634
 2359DPPC   C2B50002  18.844  -2.886  18.557 -0.1803  0.1500 -0.3699
 2359DPPC   C3B50003  19.138  -2.594  18.750 -0.2289 -0.0070 -0.1061
 2359DPPC   C4B50004  19.640  -2.645  18.938  0.0360 -0.0875  0.0190
 2360DPPC   NC350005   9.126  14.667  23.641 -0.1631 -0.0377  0.0766
 2360DPPC   PO450006   9.539  14.981  23.724 -0.0329  0.0802  0.1591
 2360DPPC   GL150007   9.715  14.705  24.108 -0.0609  0.0720 -0.0522
 2360DPPC   GL250008  10.069  14.716  24.054  0.2141 -0.0488 -0.2255
 2360DPPC   C1A50009   9.761  14.208  24.092 -0.0702 -0.1477  0.1751
 2360DPPC   C2A50010   9.941  13.794  24.173 -0.2553 -0.2394 -0.1830
 2360DPPC   C3A50011  10.196  13.503  24.048 -0.2023  0.1611 -0.1716
 2360DPPC   C4A50012  10.217  13.093  23.864  0.3038 -0.2059  0.0010
 2360DPPC   C1B50013  10.335  14.394  24.185 -0.4160  0.1388 -0.1196
 2360DPPC   C2B50014  10.665  14.131  24.386  0.0371 -0.1110 -0.2262
 2360DPPC   C3B50015  11.043  13.990  24.557 -0.1222  0.2759  0.4088
 2360DPPC   C4B50016  11.182  13.742  24.842 -0.4265 -0.0091 -0.0864
 2361DPPC   NC350017  23.002  -3.854  15.300  0.0823 -0.2439  0.2974
 2361DPPC   PO450018  23.181  -4.046  15.584 -0.1701 -0.0316  0.3199
 2361DPPC   GL150019  23.487  -4.304  15.567 -0.0651  0.1891 -0.1701
 2361DPPC   GL250020  23.367  -4.644  15.582 -0.1093 -0.2204  0.1717
 2361DPPC   C1A50021  23.976  -4.462  15.570 -0.1625 -0.2014 -0.1239
 2361DPPC   C2A50022  24.332  -4.144  15.327 -0.0615 -0.0248 -0.0688
 2361DPPC   C3A50023  24.475  -3.680  15.229  0.0794 -0.0056  0.1176
 2361DPPC   C4A50024  24.687  -3.322  15.124 -0.0711 -0.1335 -0.3041
 2361DPPC   C1B50025  23.557  -4.610  15.218 -0.1188  0.1301  0.1120
 2361DPPC   C2B50026  23.457  -4.623  14.846 -0.0304  0.4606 -0.1024
 2361DPPC   C3B50027  23.484  -4.641  14.413  0.0236  0.2013  0.0257
 2361DPPC   C4B50028  23.397  -4.514  13.922 -0.0047 -0.0542 -0.0569
 2362DPPC   NC350029  19.699   1.423  14.454 -0.0959 -0.1507 -0.5679
 2362DPPC   PO450030  19.704   1.312  13.991 -0.2762  0.1118  0.3226
 2362DPPC   GL150031  19.225   1.491  13.977  0.3251  0.0224 -0.4176
 2362DPPC   GL250032  18.897   1.303  14.110 -0.0002 -0.3112  0.2149
 2362DPPC   C1A50033  18.937   1.839  14.006  0.0756  0.1773 -0.1373
 2362DPPC   C2A50034  18.764   2.154  14.146  0.4321 -0.0849  0.0338
 2362DPPC   C3A50035  18.652   2.469  14.422 -0.0528 -0.0453 -0.4877
 2362DPPC   C4A50036  18.880   2.649  14.660 -0.2783  0.0154 -0.2671
 2362DPPC   C1B50037  18.807   1.386  13.668 -0.0935  0.0511 -0.3850
 2362DPPC   C2B50038  18.384   1.306  13.345 -0.2020  0.0298 -0.1357
 2362DPPC   C3B50039  18.168   1.308  12.976  0.2689 -0.0574 -0.2163
 2362DPPC   C4B50040  18.063   1.481  12.565 -0.0680  0.0688 -0.0400
 2363DPPC   NC350041  23.300  -3.073  18.181  0.1155  0.1473 -0.1465
 2363DPPC   PO450042  23.110  -2.810  17.866 -0.0458 -0.1087  0.2945
 2363DPPC   GL150043  23.562  -2.608  17.910  0.0294 -0.3329  0.0047
 2363DPPC   GL250044  23.789  -2.862  17.766  0.0240  0.1325 -0.1174
 2363DPPC   C1A50045  23.841  -2.436  18.193  0.0718  0.1197  0.2497
 2363DPPC   C2A50046  24.178  -2.252  18.303 -0.0106 -0.0016 -0.0708
 2363DPPC   C3A50047  24.592  -2.203  18.031 -0.1807  0.1089 -0.3710
 2363DPPC   C4A50048  24.999  -2.084  17.974  0.0372  0.0275 -0.0153
 2363DPPC   C1B50049  24.050  -3.082  18.054 -0.0344  0.1408 -0.1752
 2363DPPC   C2B50050  23.904  -3.225  18.374  0.1305  0.0450  0.3642
 2363DPPC   C3B50051  23.782  -3.440  18.719 -0.0179 -0.0568 -0.0793
 2363DPPC   C4B50052  23.436  -3.470  19.090 -0.0524  0.3609 -0.2039
 2364DPPC   NC350053  18.237  -4.913  17.551  0.0162 -0.0385  0.0839
 2364DPPC   PO450054  17.924  -5.333  17.520  0.1669  0.2632 -0.2075
 2364DPPC   GL150055  17.804  -5.105  17.978  0.1625  0.0892  0.3364
 2364DPPC   GL250056  17.448  -5.029  17.974 -0.1475 -0.1391 -0.3034
 2364DPPC   C1A50057  17.716  -4.938  18.424  0.1592 -0.4804  0.0363
 2364DPPC   C2A50058  17.780  -4.866  18.811 -0.0935  0.0953  0.0924
 2364DPPC   C3A50059  17.764  -4.669  19.163 -0.0399  0.0296  0.1791
 2364DPPC   C4A50060  17.386  -4.584  19.126 -0.0347 -0.1107 -0.0555
 2364DPPC   C1B50061  17.211  -5.037  18.354  0.0334 -0.2736  0.3598
 2364DPPC   C2B50062  17.233  -4.881  18.768  0.0608 -0.0143  0.0087
 2364DPPC   C3B50063  16.820  -4.624  18.955 -0.1106 -0.0115  0.1445
 2364DPPC   C4B50064  16.513  -4.467  18.871  0.0186 -0.0657  0.0344
 2365DPPC   NC350065  20.413  -2.106  34.790  0.4243  0.0432 -0.2871
 2365DPPC   PO450066  20.719  -2.477  34.676 -0.2760  0.1269 -0.0851
 2365DPPC   GL150067  20.814  -2.062  34.339  0.3222 -0.2958  0.0997
 2365DPPC   GL250068  20.605  -1.781  34.406 -0.1446  0.1477  0.0679
 2365DPPC   C1A50069  20.996  -1.885  33.951 -0.0402  0.0089  0.0242
 2365DPPC   C2A50070  21.158  -1.826  33.580  0.1883  0.1069  0.0027
 2365DPPC   C3A50071  21.519  -1.614  33.516 -0.1808  0.0132  0.3800
 2365DPPC   C4A50072  21.622  -1.402  33.154  0.4336  0.2483 -0.1366
 2365DPPC   C1B50073  20.523  -1.674  34.044 -0.0605 -0.0273 -0.0970
 2365DPPC   C2B50074  20.502  -1.250  33.849 -0.3434  0.1872  0.1068
 2365DPPC   C3B50075  20.398  -1.029  33.450 -0.2946 -0.0191 -0.0827
 2365DPPC   C4B50076  20.300  -0.975  33.013  0.1409 -0.0369 -0.1294
 2366DPPC   NC350077  17.707  -3.597  14.271  0.6581 -0.0452  0.1873
 2366DPPC   PO450078  17.769  -3.590  13.871  0.0250 -0.0148 -0.1709
 2366DPPC   GL150079  17.569  -3.374  13.555 -0.1005  0.0392 -0.0406
 2366DPPC   GL250080  17.768  -3.622  13.350 -0.4084  0.0149  0.1548
 2366DPPC   C1A50081  17.192  -3.528  13.377  0.2243 -0.1929  0.2501
 2366DPPC   C2A50082  17.034  -3.958  13.245  0.0148 -0.2584  0.3588
 2366DPPC   C3A50083  16.980  -4.328  13.022 -0.1285 -0.0718 -0.1509
 2366DPPC   C4A50084  17.038  -4.812  13.013 -0.0237  0.0606 -0.0045
 2366DPPC   C1B50085  17.728  -3.489  13.025 -0.2400  0.1429  0.3071
 2366DPPC   C2B50086  17.915  -3.323  12.511  0.4605  0.4103 -0.2194
 2366DPPC   C3B50087  17.916  -3.632  12.144  0.1350 -0.1470 -0.1533
 2366DPPC   C4B50088  17.780  -3.839  11.887 -0.0378 -0.0083  0.2847
 2367DPPC   NC350089  23.236  -7.145  21.431 -0.0372  0.1327 -0.1052
 2367DPPC   PO450090  22.850  -6.954  21.202 -0.1732  0.2845 -0.1125
 2367DPPC   GL150091  22.439  -6.837  21.173 -0.1088 -0.1179 -0.3919
 2367DPPC   GL250092  22.598  -6.540  21.076  0.3346 -0.1095 -0.1129
 2367DPPC   C1A50093  22.082  -6.579  21.275  0.0438  0.1419 -0.0228
 2367DPPC   C2A50094  21.777  -6.390  20.963  0.1442 -0.4522  0.0709
 2367DPPC   C3A50095  21.689  -5.975  20.803 -0.3655  0.1384  0.0505
 2367DPPC   C4A50096  21.624  -5.599  20.628 -0.1404 -0.0159 -0.3063
 2367DPPC   C1B50097  22.409  -6.182  20.706 -0.3424 -0.0575  0.1228
 2367DPPC   C2B50098  22.156  -5.848  20.576  0.2004 -0.3018  0.2463
 2367DPPC   C3B50099  22.319  -5.619  20.191 -0.0393 -0.1315 -0.1747
 2367DPPC   C4B50100  22.129  -5.277  19.913 -0.2497 -0.0469 -0.2130
 2368DPPC   NC350101   8.460  14.022  23.233 -0.5523 -0.3177 -0.1238
 2368DPPC   PO450102   8.877  14.247  23.183 -0.0685  0.1617  0.0076
 2368DPPC   GL150103   8.942  13.818  23.211 -0.2923 -0.2232  0.0585
 2368DPPC   GL250104   8.638  13.547  23.219 -0.1572 -0.1406 -0.3066
 2368DPPC   C1A50105   9.063  13.561  23.555 -0.3030 -0.0627  0.0746
 2368DPPC   C2A50106   9.267  13.255  23.705  0.0640  0.0930 -0.0212
 2368DPPC   C3A50107   9.463  12.877  23.754 -0.2234 -0.1650 -0.2476
 2368DPPC   C4A50108   9.799  12.642  23.510 -0.4426  0.1692 -0.2980
 2368DPPC   C1B50109   8.977  13.321  23.153 -0.0088  0.1195  0.2755
 2368DPPC   C2B50110   8.942  12.816  23.032  0.0608  0.2265  0.0427
 2368DPPC   C3B50111   8.819  12.424  22.769 -0.0093 -0.1010  0.0131
 2368DPPC   C4B50112   8.987  12.124  22.723  0.1152  0.1378  0.0593
 2369DPPC   NC350113  17.289  -0.594  14.758 -0.0119  0.2406  0.0562
 2369DPPC   PO450114  17.453  -0.738  14.309 -0.1785 -0.0806 -0.0317
 2369DPPC   GL150115  17.019  -0.601  14.279  0.1756 -0.0484 -0.2418
 2369DPPC   GL250116  16.775  -0.820  14.573  0.0701 -0.1665  0.0279
 2369DPPC   C1A50117  16.849  -0.225  14.487  0.3273  0.2972  0.0292
 2369DPPC   C2A50118  16.631   0.000  14.841 -0.2135 -0.2046  0.4512
 2369DPPC   C3A50119  16.721   0.272  15.131  0.1499  0.1979  0.3678
 2369DPPC   C4A50120  16.822   0.506  15.525 -0.1159 -0.4827  0.2738
 2369DPPC   C1B50121  16.374  -0.426  14.663 -0.0962  0.1261  0.0764
 2369DPPC   C2B50122  16.056   0.003  14.657  0.0887  0.1362  0.2357
 2369DPPC   C3B50123  15.677   0.254  14.833 -0.1457 -0.0096 -0.3155
 2369DPPC   C4B50124  15.567   0.470  15.252  0.1728  0.1366  0.0434
 2370DPPC   NC350125  16.847  -2.790  14.435 -0.2465  0.0463 -0.0028
 2370DPPC   PO450126  17.071  -2.870  14.102 -0.0409 -0.0589  0.4511
 2370DPPC   GL150127  16.621  -2.804  13.979  0.1635  0.0634 -0.0382
 2370DPPC   GL250128  16.499  -3.088  13.952 -0.5546  0.0894 -0.0337
 2370DPPC   C1A50129  16.251  -2.631  14.016  0.3601 -0.1082  0.1001
 2370DPPC   C2A50130  15.902  -2.499  14.095 -0.1584 -0.3119  0.1637
 2370DPPC   C3A50131  15.432  -2.487  14.204 -0.0927  0.6230 -0.0224
 2370DPPC   C4A50132  15.217  -2.565  14.577  0.2087 -0.0927 -0.1578
 2370DPPC   C1B50133  16.297  -2.788  13.546  0.4780  0.0803 -0.1589
 2370DPPC   C2B50134  15.997  -2.518  13.491  0.1272  0.0794  0.2355
 2370DPPC   C3B50135  15.683  -2.407  13.282 -0.0942 -0.3488  0.0148
 2370DPPC   C4B50136  15.288  -2.267  13.246  0.1106  0.0759 -0.0230
 2371DPPC   NC350137   5.404  -1.964  20.030 -0.0170  0.1013  0.2123
 2371DPPC   PO450138   5.446  -1.810  19.619  0.2627  0.3185 -0.0126
 2371DPPC   GL150139   5.889  -1.734  19.504 -0.0752  0.7240  0.0038
 2371DPPC   GL250140   5.873  -1.752  19.892 -0.1042  0.4132  0.3887
 2371DPPC   C1A50141   6.206  -1.556  19.372  0.0757  0.1640 -0.0336
 2371DPPC   C2A50142   6.518  -1.604  19.177  0.1031  0.1674 -0.0913
 2371DPPC   C3A50143   6.917  -1.490  19.005  0.0268 -0.2387  0.5089
 2371DPPC   C4A50144   7.324  -1.543  19.052  0.2840  0.1153  0.6739
 2371DPPC   C1B50145   6.298  -1.819  19.838 -0.3130  0.3490  0.0727
 2371DPPC   C2B50146   6.684  -1.893  19.896  0.1245  0.3847  0.2273
 2371DPPC   C3B50147   6.986  -1.772  20.114  0.3015  0.1188  0.1196
 2371DPPC   C4B50148   7.315  -1.545  20.446 -0.3575  0.1410 -0.0720
 2372DPPC   NC350149  22.223  13.202  31.768  0.1532  0.0267  0.0464
 2372DPPC   PO450150  22.310  12.935  31.399 -0.0043  0.0944 -0.3886
 2372DPPC   GL150151  21.866  12.788  31.382 -0.0164  0.2907  0.0396
 2372DPPC   GL250152  21.753  12.775  31.737  0.2202  0.3310  0.1944
 2372DPPC   C1A50153  21.672  12.497  31.085  0.0561  0.0237 -0.2046
 2372DPPC   C2A50154  21.726  12.075  30.755  0.4080 -0.1041  0.0470
 2372DPPC   C3A50155  21.811  11.898  30.345  0.2333  0.3195 -0.0635
 2372DPPC   C4A50156  21.543  11.688  30.086  0.4263  0.0247  0.1492
 2372DPPC   C1B50157  21.413  12.489  31.525 -0.1679  0.1311 -0.0927
 2372DPPC   C2B50158  21.439  12.101  31.396  0.0518  0.3153 -0.2059
 2372DPPC   C3B50159  21.182  11.812  31.230  0.1014 -0.1232 -0.0062
 2372DPPC   C4B50160  21.121  11.471  31.038  0.0139  0.0930  0.2964
 2373DPPC   NC350161   7.008   9.194  33.378 -0.0982 -0.1786 -0.0600
 2373DPPC   PO450162   7.118   9.716  33.307  0.1786  0.1324 -0.2888
 2373DPPC   GL150163   7.530   9.697  33.077  0.0827 -0.1981 -0.1317
 2373DPPC   GL250164   7.843   9.772  33.264 -0.0478  0.1476 -0.1013
 2373DPPC   C1A50165   7.562   9.655  32.577  0.1771 -0.3157 -0.0040
 2373DPPC   C2A50166   7.744   9.596  32.227  0.2302  0.1302 -0.0818
 2373DPPC   C3A50167   8.187   9.448  31.972 -0.4038  0.1038 -0.2680
 2373DPPC   C4A50168   8.496   9.654  31.727 -0.0734 -0.0878 -0.0676
 2373DPPC   C1B50169   7.999   9.535  33.006  0.0634 -0.0492 -0.0827
 2373DPPC   C2B50170   8.311   9.231  32.994  0.0427 -0.1490  0.2794
 2373DPPC   C3B50171   8.578   9.070  32.643 -0.0183  0.0703 -0.2268
 2373DPPC   C4B50172   8.944   8.804  32.685  0.0815  0.1547  0.2566
 2374DPPC   NC350173  17.447  -1.991  13.889  0.1226 -0.2368  0.1038
 2374DPPC   PO450174  17.852  -2.256  13.942  0.0948  0.0201 -0.0396
 2374DPPC   GL150175  17.793  -2.303  13.443  0.1385  0.0266  0.4671
 2374DPPC   GL250176  17.524  -2.028  13.384 -0.2207 -0.0701  0.0983
 2374DPPC   C1A50177  17.696  -2.464  13.069 -0.5318 -0.0703 -0.3127
 2374DPPC   C2A50178  17.399  -2.212  13.001  0.4342 -0.3170  0.0957
 2374DPPC   C3A50179  17.157  -2.064  12.596  0.0212  0.2385 -0.2757
 2374DPPC   C4A50180  16.840  -1.922  12.345 -0.0085  0.0739 -0.1029
 2374DPPC   C1B50181  17.090  -2.059  13.386  0.1296  0.2669  0.1923
 2374DPPC   C2B50182  16.847  -2.143  13.005  0.0200  0.2686 -0.0264
 2374DPPC   C3B50183  16.463  -2.354  12.986 -0.0942 -0.0073 -0.2327
 2374DPPC   C4B50184  16.102  -2.123  13.159 -0.0305 -0.0264  0.2213
 2375DPPC   NC350185  19.771  -0.132  15.628  0.1686 -0.1233 -0.0150
 2375DPPC   PO450186  19.561  -0.476  15.602 -0.2338  0.3240  0.3579
 2375DPPC   GL150187  19.451  -0.311  15.962 -0.1674  0.0680 -0.1796
 2375DPPC   GL250188  19.188  -0.371  16.073 -0.1512 -0.0262  0.2959
 2375DPPC   C1A50189  19.562  -0.135  16.331 -0.3151 -0.2043  0.0656
 2375DPPC   C2A50190  19.486   0.082  16.670 -0.1835  0.0685 -0.0684
 2375DPPC   C3A50191  19.491   0.374  16.892 -0.1914  0.0882  0.1100
 2375DPPC   C4A50192  19.716   0.715  17.120  0.0420  0.1037 -0.0705
 2375DPPC   C1B50193  19.098  -0.040  16.474 -0.2265  0.0283  0.1145
 2375DPPC   C2B50194  19.025   0.233  16.788  0.0411  0.0023  0.0598
 2375DPPC   C3B50195  18.764   0.119  17.040 -0.1778  0.1039  0.0478
 2375DPPC   C4B50196  18.601   0.520  17.422 -0.2423 -0.0558  0.0808
 2376DPPC   NC350197  19.443  -1.294  15.791 -0.0578  0.1616 -0.0789
 2376DPPC   PO450198  19.095  -1.185  15.676  0.0370 -0.1505  0.2086
 2376DPPC   GL150199  18.930  -0.803  15.818 -0.4964 -0.0563  0.1973
 2376DPPC   GL250200  19.041  -0.873  16.092 -0.1138  0.0864  0.1355
 2376DPPC   C1A50201  18.677  -0.490  16.114 -0.1712 -0.0015  0.2153
 2376DPPC   C2A50202  18.650  -0.326  16.512  0.1169  0.0799 -0.1195
 2376DPPC   C3A50203  18.281  -0.078  16.771  0.3071  0.2190  0.2270
 2376DPPC   C4A50204  18.220   0.295  17.021 -0.0967 -0.0504  0.1121
 2376DPPC   C1B50205  19.069  -0.677  16.469 -0.1316 -0.1383 -0.0537
 2376DPPC   C2B50206  18.918  -0.576  16.869  0.0334 -0.2299  0.0901
 2376DPPC   C3B50207  18.916  -0.429  17.338  0.1450 -0.0156 -0.2378
 2376DPPC   C4B50208  18.981  -0.369  17.711 -0.3053 -0.1533  0.0391
 2377DPPC   NC350209   7.707  14.163  26.247 -0.0457 -0.2574  0.2978
 2377DPPC   PO450210   7.599  14.313  26.524  0.1877 -0.0819  0.2753
 2377DPPC   GL150211   7.963  14.101  26.704 -0.0434 -0.1089  0.1397
 2377DPPC   GL250212   8.305  14.279  26.715  0.1242 -0.5285  0.1440
 2377DPPC   C1A50213   8.362  13.888  26.453  0.1525  0.1938 -0.3206
 2377DPPC   C2A50214   8.596  13.731  26.009 -0.1812 -0.0543  0.1395
 2377DPPC   C3A50215   8.681  13.358  25.733  0.1136  0.1285 -0.2224
 2377DPPC   C4A50216   8.895  13.245  25.267 -0.2649 -0.0937  0.3285
 2377DPPC   C1B50217   8.540  14.016  26.879 -0.0775  0.3891  0.1236
 2377DPPC   C2B50218   8.889  13.807  26.973 -0.1508 -0.1278  0.0465
 2377DPPC   C3B50219   9.346  13.825  27.165 -0.2922 -0.1862 -0.1646
 2377DPPC   C4B50220   9.739  13.666  27.055  0.0020 -0.1723 -0.0174
 2378DPPC   NC350221  24.994   6.414  14.514 -0.1700 -0.1735  0.1505
 2378DPPC   PO450222  24.796   6.006  14.795 -0.0494  0.0218 -0.2778
 2378DPPC   GL150223  24.345   5.763  14.966 -0.2675 -0.1046 -0.2010
 2378DPPC   GL250224  24.242   5.453  15.117  0.3365  0.0375 -0.3327
 2378DPPC   C1A50225  23.967   5.813  15.284 -0.0150  0.0301 -0.0772
 2378DPPC   C2A50226  23.552   5.740  15.393  0.1932  0.0388 -0.0437
 2378DPPC   C3A50227  23.216   5.578  15.654 -0.0642  0.0529  0.0810
 2378DPPC   C4A50228  22.894   5.570  15.900 -0.1786  0.0479 -0.0297
 2378DPPC   C1B50229  23.917   5.264  15.192 -0.3222 -0.0184 -0.3837
 2378DPPC   C2B50230  23.543   4.893  15.160  0.0839  0.1774  0.2500
 2378DPPC   C3B50231  23.398   4.513  15.137  0.1290 -0.0014  0.0289
 2378DPPC   C4B50232  23.751   4.280  15.315  0.2363 -0.0814 -0.2076
 2379DPPC   NC350233  18.336   1.764  11.261 -0.1548  0.0370 -0.4016
 2379DPPC   PO450234  18.544   2.070  11.440  0.0204  0.2896 -0.1573
 2379DPPC   GL150235  18.604   1.809  11.687  0.2281 -0.0391  0.0460
 2379DPPC   GL250236  18.969   1.731  11.597  0.0690  0.1748 -0.0415
 2379DPPC   C1A50237  18.452   1.773  12.197 -0.1871 -0.0020 -0.0764
 2379DPPC   C2A50238  18.574   1.835  12.657 -0.0324 -0.0830 -0.0060
 2379DPPC   C3A50239  18.677   2.000  13.029  0.0561  0.2196 -0.0408
 2379DPPC   C4A50240  18.868   2.329  13.286 -0.2125 -0.2079  0.0088
 2379DPPC   C1B50241  19.013   1.582  12.002 -0.0098  0.2340 -0.1559
 2379DPPC   C2B50242  18.960   1.498  12.444  0.0854  0.1779  0.3635
 2379DPPC   C3B50243  18.569   1.266  12.614  0.3568  0.1145  0.2126
 2379DPPC   C4B50244  18.226   1.076  12.350 -0.2533 -0.0079 -0.2510
 2380DPPC   NC350245  18.477   0.125  13.710 -0.2569 -0.4595 -0.1941
 2380DPPC   PO450246  18.507   0.373  13.989 -0.1991 -0.0587 -0.0132
 2380DPPC   GL150247  18.355   0.753  14.072  0.0711  0.4010 -0.2626
 2380DPPC   GL250248  18.321   0.728  14.386  0.0902 -0.1743 -0.0482
 2380DPPC   C1A50249  18.365   1.167  13.862  0.1849  0.0815  0.2137
 2380DPPC   C2A50250  18.328   1.562  13.850  0.1237  0.0102  0.0899
 2380DPPC   C3A50251  18.330   1.996  13.949  0.0293  0.0689  0.1339
 2380DPPC   C4A50252  18.273   2.437  14.081  0.2364 -0.2291 -0.0883
 2380DPPC   C1B50253  18.221   1.224  14.437  0.2362 -0.0044  0.4120
 2380DPPC   C2B50254  18.419   1.622  14.326  0.0430 -0.0297 -0.1371
 2380DPPC   C3B50255  18.743   1.881  14.523  0.0822  0.0012 -0.0081
 2380DPPC   C4B50256  18.782   1.930  14.826  0.2552 -0.2550  0.0083
 2381DPPC   NC350257   4.726  -0.331  19.212  0.0184 -0.1499  0.1250
 2381DPPC   PO450258   4.965   0.054  18.885 -0.2099  0.2987 -0.1954
 2381DPPC   GL150259   5.363   0.255  19.023  0.0651  0.0080  0.0375
 2381DPPC   GL250260   5.538   0.058  19.367  0.3497 -0.4112  0.0855
 2381DPPC   C1A50261   5.748   0.535  19.297  0.1804 -0.0505  0.1072
 2381DPPC   C2A50262   5.920   0.737  19.548 -0.2041 -0.1977  0.2209
 2381DPPC   C3A50263   6.186   1.021  19.778 -0.1878 -0.1376  0.3171
 2381DPPC   C4A50264   6.364   1.094  20.127 -0.1604  0.0934  0.0736
 2381DPPC   C1B50265   5.882   0.096  19.087 -0.0951  0.0758 -0.1261
 2381DPPC   C2B50266   6.304  -0.022  19.193 -0.1736 -0.0136  0.1059
 2381DPPC   C3B50267   6.545  -0.035  19.493 -0.1645 -0.1366 -0.0345
 2381DPPC   C4B50268   6.813   0.229  19.761 -0.1470 -0.0402  0.3613
 2382DPPC   NC350269  21.241   1.320  15.278 -0.0749 -0.0148 -0.1431
 2382DPPC   PO450270  21.471   1.622  14.962  0.5285  0.0933 -0.4536
 2382DPPC   GL150271  21.422   1.851  15.255 -0.1274  0.2421 -0.0510
 2382DPPC   GL250272  21.076   2.022  15.131  0.0177  0.1425  0.1781
 2382DPPC   C1A50273  21.386   2.253  15.407 -0.0825 -0.0494  0.1597
 2382DPPC   C2A50274  21.251   2.396  15.825 -0.0559  0.0308 -0.0328
 2382DPPC   C3A50275  21.053   2.347  16.311  0.0927  0.0402  0.1575
 2382DPPC   C4A50276  20.836   2.428  16.636  0.0412  0.1025 -0.2557
 2382DPPC   C1B50277  20.997   2.384  14.725  0.0830 -0.1143 -0.0290
 2382DPPC   C2B50278  20.880   2.755  14.852 -0.2598  0.1332 -0.2163
 2382DPPC   C3B50279  21.015   3.249  14.877  0.1842 -0.0213 -0.1746
 2382DPPC   C4B50280  20.982   3.561  14.480  0.0427 -0.3529 -0.1562
 2383DPPC   NC350281  22.903  -4.368  15.748  0.3417  0.2535 -0.2125
 2383DPPC   PO450282  22.613  -4.704  15.957 -0.0315  0.2108  0.3328
 2383DPPC   GL150283  23.041  -4.876  16.048 -0.0674  0.0520 -0.2330
 2383DPPC   GL250284  23.009  -5.030  16.334  0.1607  0.0332 -0.0771
 2383DPPC   C1A50285  23.357  -5.130  15.793  0.4072  0.3363  0.1480
 2383DPPC   C2A50286  23.762  -5.072  15.512 -0.2005 -0.0324  0.3321
 2383DPPC   C3A50287  23.953  -4.870  15.233  0.0683  0.2944  0.3217
 2383DPPC   C4A50288  24.146  -4.580  15.042  0.0624  0.1050  0.1773
 2383DPPC   C1B50289  23.353  -5.082  16.316  0.0062  0.2986 -0.0499
 2383DPPC   C2B50290  23.518  -5.388  16.570 -0.1111 -0.1034  0.1358
 2383DPPC   C3B50291  23.774  -5.681  16.683 -0.0982 -0.0383  0.1322
 2383DPPC   C4B50292  23.853  -6.045  16.736 -0.1330  0.1990 -0.1156
 2384DPPC   NC350293  11.951  -8.054  21.323 -0.1937 -0.2514  0.2453
 2384DPPC   PO450294  11.824  -8.067  21.701 -0.3262 -0.2327 -0.0122
 2384DPPC   GL150295  12.047  -7.636  21.699 -0.0158 -0.2109 -0.1073
 2384DPPC   GL250296  12.319  -7.391  21.853 -0.1640  0.1180 -0.0210
 2384DPPC   C1A50297  11.905  -7.241  21.833 -0.0559  0.2325  0.0635
 2384DPPC   C2A50298  12.274  -6.886  21.849 -0.2017 -0.0815 -0.2610
 2384DPPC   C3A50299  12.556  -6.645  21.857  0.1949 -0.1697 -0.0593
 2384DPPC   C4A50300  13.057  -6.711  21.695 -0.2858  0.0350 -0.4327
 2384DPPC   C1B50301  12.596  -7.147  21.578  0.0744 -0.3964 -0.0676
 2384DPPC   C2B50302  12.687  -6.852  21.284 -0.0817  0.0249 -0.2910
 2384DPPC   C3B50303  12.881  -6.523  21.176 -0.0114 -0.2382 -0.1334
 2384DPPC   C4B50304  13.248  -6.222  21.084  0.0937  0.2016 -0.0091
 2385DPPC   NC350305  20.647  -5.276  17.738  0.1359  0.1434 -0.2057
 2385DPPC   PO450306  20.649  -5.605  18.007  0.2438 -0.0633 -0.1775
 2385DPPC   GL150307  20.651  -6.037  18.038 -0.1277 -0.0536 -0.1051
 2385DPPC   GL250308  20.278  -6.061  18.081  0.2507  0.0507  0.2019
 2385DPPC   C1A50309  20.788  -6.432  18.079 -0.0135 -0.0379  0.0188
 2385DPPC   C2A50310  20.890  -6.745  18.207  0.0463  0.0374  0.0381
 2385DPPC   C3A50311  21.353  -6.854  18.354 -0.0268  0.0503 -0.1568
 2385DPPC   C4A50312  21.590  -7.262  18.300 -0.0624  0.2827 -0.3007
 2385DPPC   C1B50313  20.284  -6.404  18.329  0.3011 -0.0614  0.2547
 2385DPPC   C2B50314  20.184  -6.561  18.707  0.1148  0.0672  0.3189
 2385DPPC   C3B50315  20.388  -6.704  19.055 -0.0679 -0.1371 -0.0850
 2385DPPC   C4B50316  20.652  -6.801  19.398 -0.2169  0.0681 -0.2882
 2386DPPC   NC350317   5.605   4.624  17.869 -0.3693 -0.1758  0.0675
 2386DPPC   PO450318   5.949   4.384  17.678 -0.3883  0.2288  0.1419
 2386DPPC   GL150319   6.303   4.182  17.899 -0.1290  0.0843  0.3467
 2386DPPC   GL250320   6.373   4.499  17.999 -0.1876 -0.2013 -0.0457
 2386DPPC   C1A50321   6.474   4.077  18.332  0.0445 -0.1840  0.1389
 2386DPPC   C2A50322   6.790   4.011  18.742 -0.2620  0.3932  0.0916
 2386DPPC   C3A50323   6.927   4.151  19.121  0.1475  0.1103  0.3327
 2386DPPC   C4A50324   6.703   3.996  19.495 -0.0177  0.3452 -0.0286
 2386DPPC   C1B50325   6.847   4.331  18.026 -0.0881  0.2043 -0.1549
 2386DPPC   C2B50326   7.207   4.233  18.327 -0.0154  0.3410 -0.2558
 2386DPPC   C3B50327   7.328   3.924  18.585  0.4456 -0.1403  0.1373
 2386DPPC   C4B50328   7.761   3.823  18.722  0.0759 -0.1585 -0.1713
 2387DPPC   NC350329  11.040  15.724  30.142  0.3967 -0.4032  0.0203
 2387DPPC   PO450330  10.814  15.596  29.772  0.0235 -0.2357  0.3722
 2387DPPC   GL150331  11.041  15.152  29.619 -0.0077  0.2528 -0.0153
 2387DPPC   GL250332  11.010  15.043  29.869 -0.3743 -0.2032  0.1528
 2387DPPC   C1A50333  11.626  15.085  29.657  0.0860  0.2065  0.0559
 2387DPPC   C2A50334  11.793  14.743  29.523  0.2597  0.0038 -0.0888
 2387DPPC   C3A50335  11.828  14.325  29.580 -0.1971  0.0382 -0.1737
 2387DPPC   C4A50336  12.068  13.983  29.471 -0.0417  0.1308 -0.3040
 2387DPPC   C1B50337  10.915  14.675  29.498 -0.4005 -0.2554 -0.0407
 2387DPPC   C2B50338  10.815  14.545  29.162  0.3026 -0.2033 -0.1531
 2387DPPC   C3B50339  10.787  14.350  28.783  0.3418  0.2995 -0.1174
 2387DPPC   C4B50340  11.143  14.187  28.504  0.0896  0.2685  0.2015
 2388DPPC   NC350341  17.023  14.689  31.688  0.1342 -0.2143  0.0814
 2388DPPC   PO450342  17.074  14.946  31.409 -0.2181  0.3112 -0.2010
 2388DPPC   GL150343  17.048  14.721  30.969 -0.1025  0.1821  0.2187
 2388DPPC   GL250344  16.728  14.675  30.897 -0.1679 -0.2822 -0.1641
 2388DPPC   C1A50345  17.365  14.455  30.866 -0.0871  0.0087 -0.0716
 2388DPPC   C2A50346  17.790  14.527  31.072  0.0105  0.2801 -0.2161
 2388DPPC   C3A50347  18.150  14.163  30.949  0.0851  0.0117 -0.1287
 2388DPPC   C4A50348  18.098  13.874  31.123 -0.0653  0.1449  0.1474
 2388DPPC   C1B50349  16.415  14.542  30.595 -0.2241  0.2639 -0.0705
 2388DPPC   C2B50350  16.027  14.559  30.345  0.0799 -0.1195  0.3263
 2388DPPC   C3B50351  15.649  14.529  30.295 -0.0139  0.2264 -0.1931
 2388DPPC   C4B50352  15.324  14.696  30.221  0.4679 -0.0498 -0.2355
 2389DPPC   NC350353  26.831  -0.301  16.909  0.0576 -0.0499  0.0863
 2389DPPC   PO450354  26.695  -0.400  17.240  0.1070  0.0722  0.1375
 2389DPPC   GL150355  26.246  -0.333  17.305  0.1254  0.1266  0.1096
 2389DPPC   GL250356  25.959  -0.531  17.185  0.1788 -0.2549 -0.0296
 2389DPPC   C1A50357  25.896  -0.030  17.212 -0.3212  0.1959 -0.0823
 2389DPPC   C2A50358  25.700   0.407  17.119 -0.1661 -0.0139 -0.3580
 2389DPPC   C3A50359  25.519   0.740  17.229  0.0204  0.2031 -0.1022
 2389DPPC   C4A50360  25.467   1.204  17.483 -0.1023  0.0791  0.2789
 2389DPPC   C1B50361  25.427  -0.658  17.343  0.1512  0.1429  0.1583
 2389DPPC   C2B50362  25.077  -0.694  17.396  0.0954  0.0925 -0.3579
 2389DPPC   C3B50363  24.762  -0.366  17.405 -0.0989  0.1472 -0.0417
 2389DPPC   C4B50364  24.328  -0.383  17.104 -0.0509 -0.0078  0.1141
 2390DPPC   NC350365  17.894  -3.008   9.710 -0.2131 -0.1012 -0.0868
 2390DPPC   PO450366  18.122  -2.857  10.042  0.0472 -0.0996  0.2965
 2390DPPC   GL150367  18.206  -2.524  10.287 -0.4175  0.0312  0.0067
 2390DPPC   GL250368  18.144  -2.221  10.282 -0.0951 -0.2021 -0.3445
 2390DPPC   C1A50369  18.429  -2.444  10.676 -0.2013 -0.0328  0.3606
 2390DPPC   C2A50370  18.511  -2.258  11.048  0.0182 -0.2249 -0.1073
 2390DPPC   C3A50371  18.515  -2.204  11.513 -0.0944 -0.1067 -0.0025
 2390DPPC   C4A50372  18.483  -1.941  11.894 -0.1908  0.0887  0.2816
 2390DPPC   C1B50373  17.971  -2.311  10.653  0.1957 -0.0422  0.0747
 2390DPPC   C2B50374  17.845  -2.676  10.948  0.0447  0.1137  0.0581
 2390DPPC   C3B50375  17.579  -2.936  11.196  0.2493 -0.0847  0.0102
 2390DPPC   C4B50376  17.647  -3.268  11.459  0.1730 -0.0630  0.1639
 2391DPPC   NC350377  26.960   1.187  15.407  0.2968 -0.1665  0.0748
 2391DPPC   PO450378  26.510   1.138  15.290  0.0242  0.0798  0.0867
 2391DPPC   GL150379  26.076   0.983  15.113 -0.2641  0.0553 -0.0172
 2391DPPC   GL250380  25.911   1.009  14.760 -0.2460  0.0637 -0.3603
 2391DPPC   C1A50381  25.840   0.580  15.245 -0.0281  0.0650 -0.1187
 2391DPPC   C2A50382  25.663   0.133  15.329 -0.0839  0.0322  0.1225
 2391DPPC   C3A50383  25.273  -0.159  15.519 -0.0950 -0.1748  0.2357
 2391DPPC   C4A50384  24.823  -0.169  15.541  0.0034 -0.0399 -0.1464
 2391DPPC   C1B50385  25.599   0.503  14.846 -0.3124 -0.3585  0.0459
 2391DPPC   C2B50386  25.391   0.136  14.906  0.1246 -0.1882 -0.1506
 2391DPPC   C3B50387  25.117  -0.137  14.886  0.0988  0.2057  0.2428
 2391DPPC   C4B50388  24.819  -0.153  15.049  0.1862 -0.1664 -0.1920
 2392DPPC   NC350389  16.853  -3.758  14.715  0.3888  0.1370 -0.0867
 2392DPPC   PO450390  17.147  -3.657  14.442  0.0431 -0.1595 -0.1949
 2392DPPC   GL150391  16.901  -3.858  14.175 -0.0392  0.0508 -0.2383
 2392DPPC   GL250392  16.604  -3.940  14.351  0.3223  0.1171  0.1476
 2392DPPC   C1A50393  16.581  -3.784  13.835 -0.2434  0.0490 -0.3656
 2392DPPC   C2A50394  16.502  -3.595  13.471 -0.1334 -0.2225  0.0525
 2392DPPC   C3A50395  16.729  -3.196  13.456  0.2960  0.1619  0.2466
 2392DPPC   C4A50396  17.092  -3.140  13.082  0.0257 -0.1206 -0.1834
 2392DPPC   C1B50397  16.135  -3.779  14.148  0.0557  0.0542  0.0030
 2392DPPC   C2B50398  16.144  -3.414  13.814 -0.1513 -0.1157  0.2509
 2392DPPC   C3B50399  15.940  -2.969  13.812 -0.1973  0.2409 -0.2232
 2392DPPC   C4B50400  15.570  -2.816  13.837  0.1384 -0.1983 -0.1403
 2393DPPC   NC350401  21.278  -7.652  23.354 -0.0096 -0.1919 -0.0425
 2393DPPC   PO450402  20.945  -7.386  23.495  0.1587 -0.0430 -0.0435
 2393DPPC   GL150403  20.707  -7.066  23.814  0.1130  0.2891 -0.2864
 2393DPPC   GL250404  20.258  -7.188  23.898 -0.0038 -0.1829 -0.2961
 2393DPPC   C1A50405  20.619  -6.648  24.063  0.0405  0.0800  0.0160
 2393DPPC   C2A50406  20.345  -6.701  24.397  0.1077  0.2111 -0.2136
 2393DPPC   C3A50407  20.107  -6.527  24.704 -0.0464 -0.2388 -0.2539
 2393DPPC   C4A50408  19.839  -6.043  24.877 -0.1679  0.2329 -0.3799
 2393DPPC   C1B50409  19.995  -6.749  23.935 -0.4466 -0.3160 -0.1343
 2393DPPC   C2B50410  19.814  -6.712  24.350  0.0572 -0.1053  0.0876
 2393DPPC   C3B50411  19.599  -6.379  24.581 -0.3252  0.1336 -0.1755
 2393DPPC   C4B50412  19.294  -6.149  24.912 -0.1937  0.3107 -0.1289
 2394DPPC   NC350413  19.064  -8.474  20.333  0.0921  0.0562 -0.1346
 2394DPPC   PO450414  19.465  -8.191  20.079  0.3156 -0.3323  0.2730
 2394DPPC   GL150415  19.377  -7.827  19.976 -0.0530  0.0491 -0.3062
 2394DPPC   GL250416  19.689  -7.742  19.823  0.0777  0.1293 -0.1978
 2394DPPC   C1A50417  19.435  -7.315  20.092 -0.1456  0.1160 -0.3316
 2394DPPC   C2A50418  19.305  -6.893  20.090  0.0042  0.0261  0.1959
 2394DPPC   C3A50419  19.285  -6.593  19.797 -0.4844 -0.0608 -0.3393
 2394DPPC   C4A50420  19.117  -6.238  19.536 -0.1820  0.0781  0.1069
 2394DPPC   C1B50421  19.670  -7.362  19.650 -0.1869 -0.0153 -0.0747
 2394DPPC   C2B50422  19.910  -7.075  19.384  0.0762 -0.0565 -0.0262
 2394DPPC   C3B50423  19.905  -6.753  19.045  0.1354 -0.2005  0.1236
 2394DPPC   C4B50424  19.673  -6.455  18.903 -0.2323  0.0039  0.2567
 2395DPPC   NC350425  17.744  -6.210  16.921  0.2623  0.1947 -0.0536
 2395DPPC   PO450426  17.513  -5.849  16.829 -0.4422  0.0002 -0.2114
 2395DPPC   GL150427  17.146  -6.209  16.740  0.4754 -0.1475  0.1314
 2395DPPC   GL250428  16.773  -6.021  16.696 -0.0089 -0.0127 -0.2112
 2395DPPC   C1A50429  16.893  -6.473  16.975 -0.1252 -0.1209 -0.1782
 2395DPPC   C2A50430  16.501  -6.570  17.134  0.2938 -0.1122 -0.0506
 2395DPPC   C3A50431  16.193  -6.823  17.415 -0.0579 -0.2646 -0.1014
 2395DPPC   C4A50432  15.881  -7.182  17.717 -0.4860 -0.0292  0.0803
 2395DPPC   C1B50433  16.479  -6.115  16.341  0.1293 -0.1785  0.0356
 2395DPPC   C2B50434  16.504  -6.368  15.962 -0.2564  0.1458  0.0363
 2395DPPC   C3B50435  16.711  -6.366  15.605 -0.3057  0.0407  0.1036
 2395DPPC   C4B50436  16.639  -6.614  15.215 -0.0313 -0.0470  0.0894
 2396DPPC   NC350437  25.270  -6.576  13.675  0.1223 -0.1177 -0.3468
 2396DPPC   PO450438  24.861  -6.452  13.878 -0.0252 -0.0156 -0.4189
 2396DPPC   GL150439  24.484  -6.498  13.903  0.2809 -0.3445  0.1483
 2396DPPC   GL250440  24.468  -6.555  13.615 -0.1874  0.1602 -0.3707
 2396DPPC   C1A50441  24.162  -6.586  14.198  0.2231 -0.1021 -0.0632
 2396DPPC   C2A50442  23.719  -6.544  14.294 -0.5854 -0.0378 -0.0162
 2396DPPC   C3A50443  23.381  -6.332  14.168 -0.0087  0.0215  0.0922
 2396DPPC   C4A50444  23.050  -6.625  14.003 -0.1332  0.0093  0.0882
 2396DPPC   C1B50445  24.012  -6.634  13.749 -0.3841  0.0118  0.2389
 2396DPPC   C2B50446  23.713  -6.912  13.975  0.2968  0.1944 -0.2155
 2396DPPC   C3B50447  23.548  -7.310  14.208  0.0260 -0.3098  0.0844
 2396DPPC   C4B50448  23.307  -7.255  14.665 -0.2677 -0.4441 -0.0046
 2397DPPC   NC350449  20.825  -2.852  14.077 -0.1620  0.2899 -0.0356
 2397DPPC   PO450450  21.003  -2.663  13.785  0.0051 -0.0351 -0.1660
 2397DPPC   GL150451  21.097  -2.764  13.379 -0.0570 -0.1747 -0.0532
 2397DPPC   GL250452  21.325  -2.909  13.360 -0.0025  0.2903  0.1832
 2397DPPC   C1A50453  21.010  -3.009  13.054 -0.2073  0.0007  0.1591
 2397DPPC   C2A50454  20.923  -3.363  12.811 -0.1171  0.1027 -0.1434
 2397DPPC   C3A50455  20.947  -3.670  12.537 -0.3222  0.3293  0.2957
 2397DPPC   C4A50456  21.109  -4.008  12.207  0.1312  0.1906  0.0358
 2397DPPC   C1B50457  21.473  -2.959  13.019 -0.0553  0.0588  0.1188
 2397DPPC   C2B50458  21.639  -2.722  12.594 -0.0261 -0.0992 -0.5739
 2397DPPC   C3B50459  21.435  -2.549  12.243 -0.1546  0.0307  0.3138
 2397DPPC   C4B50460  20.930  -2.544  12.079 -0.4674  0.4320  0.0010
 2398DPPC   NC350461  27.192  -2.025  28.088 -0.0098  0.2559  0.0336
 2398DPPC   PO450462  27.498  -1.691  28.288  0.3049  0.2680 -0.3251
 2398DPPC   GL150463  27.075  -1.472  28.249  0.0668 -0.0540  0.0087
 2398DPPC   GL250464  26.847  -1.510  28.566  0.0184  0.0366 -0.0902
 2398DPPC   C1A50465  26.739  -1.311  27.963 -0.1364  0.0067  0.2965
 2398DPPC   C2A50466  26.431  -1.004  27.678 -0.0997 -0.0759  0.1392
 2398DPPC   C3A50467  26.215  -0.818  27.322 -0.2047  0.2093  0.1190
 2398DPPC   C4A50468  25.944  -0.511  27.140  0.1644 -0.0245 -0.1459
 2398DPPC   C1B50469  26.552  -1.134  28.513 -0.0466  0.1007 -0.0437
 2398DPPC   C2B50470  26.191  -1.055  28.131  0.2138 -0.0033 -0.2519
 2398DPPC   C3B50471  25.873  -0.877  27.842 -0.1575  0.1005 -0.0403
 2398DPPC   C4B50472  25.755  -0.580  27.654 -0.0910  0.0106  0.2255
 2399DPPC   NC350473   7.993  -6.865  24.414 -0.1873  0.1658  0.0182
 2399DPPC   PO450474   8.340  -6.758  24.489 -0.3267 -0.1503  0.3063
 2399DPPC   GL150475   8.714  -6.641  24.628  0.3236  0.0865  0.0881
 2399DPPC   GL250476   9.084  -6.752  24.606 -0.5311 -0.0562 -0.0692
 2399DPPC   C1A50477   8.869  -6.288  24.420 -0.0141  0.0039  0.3145
 2399DPPC   C2A50478   9.230  -6.321  24.248 -0.1764  0.2520  0.3231
 2399DPPC   C3A50479   9.495  -6.016  24.178 -0.1432  0.1934  0.1097
 2399DPPC   C4A50480   9.670  -5.714  23.831  0.1375 -0.1457  0.3552
 2399DPPC   C1B50481   9.502  -6.590  24.501  0.1652 -0.3804 -0.0541
 2399DPPC   C2B50482   9.821  -6.290  24.452  0.1518  0.0385 -0.1948
 2399DPPC   C3B50483   9.933  -5.885  24.296  0.1697  0.0055 -0.1176
 2399DPPC   C4B50484  10.069  -5.578  24.041 -0.0444 -0.1658 -0.0100
 2400DPPC   NC350485   4.971   0.200  30.469  0.0019 -0.2902  0.1858
 2400DPPC   PO450486   4.593   0.262  30.274 -0.0436  0.0248  0.2985
 2400DPPC   GL150487   4.879   0.422  29.971 -0.1357 -0.1220  0.0606
 2400DPPC   GL250488   4.994   0.056  29.884  0.0047  0.2050 -0.1020
 2400DPPC   C1A50489   5.185   0.681  29.687 -0.1054 -0.1329  0.1559
 2400DPPC   C2A50490   5.665   0.851  29.455 -0.0273 -0.1138 -0.1267
 2400DPPC   C3A50491   5.911   1.161  29.201  0.1850 -0.4687  0.3182
 2400DPPC   C4A50492   6.338   1.344  29.271 -0.0349 -0.0263 -0.0143
 2400DPPC   C1B50493   5.381   0.232  29.812  0.2777 -0.0353 -0.1169
 2400DPPC   C2B50494   5.694   0.511  29.837  0.0669  0.3563 -0.1111
 2400DPPC   C3B50495   6.052   0.845  29.765  0.1966 -0.1053 -0.2302
 2400DPPC   C4B50496   6.269   1.169  29.700  0.0675  0.0317  0.0570
 2401DPPC   NC350497  19.767  -0.481  15.193 -0.1766  0.0250 -0.0079
 2401DPPC   PO450498  19.547  -0.129  15.179 -0.2303 -0.1108  0.5998
 2401DPPC   GL150499  19.211  -0.068  15.517  0.1133 -0.0664  0.1564
 2401DPPC   GL250500  18.882   0.200  15.395 -0.0953  0.0535 -0.2097
 2401DPPC   C1A50501  19.164   0.176  15.869  0.0151  0.0545  0.0724
 2401DPPC   C2A50502  19.132   0.437  16.327 -0.0650 -0.2609 -0.0538
 2401DPPC   C3A50503  19.480   0.665  16.509 -0.1572  0.0114  0.0014
 2401DPPC   C4A50504  19.719   0.981  16.650  0.0931  0.0488  0.0362
 2401DPPC   C1B50505  18.744   0.409  15.789 -0.0405  0.0037 -0.0201
 2401DPPC   C2B50506  18.244   0.479  15.908 -0.0261 -0.1003 -0.0161
 2401DPPC   C3B50507  18.100   0.853  15.976 -0.0424  0.2500 -0.2298
 2401DPPC   C4B50508  17.859   0.858  16.336 -0.0255 -0.1691 -0.0031
 2402DPPC   NC350509  17.273  -4.332  14.746  0.0027  0.0262  0.0400
 2402DPPC   PO450510  16.899  -4.262  14.711  0.0926 -0.2844 -0.1795
 2402DPPC   GL150511  16.822  -4.432  14.251  0.1427  0.0282  0.1251
 2402DPPC   GL250512  17.055  -4.575  14.284  0.0803 -0.1481 -0.0707
 2402DPPC   C1A50513  16.634  -4.706  13.941 -0.1995  0.0732 -0.0229
 2402DPPC   C2A50514  16.270  -5.019  13.955  0.1215 -0.1088 -0.0695
 2402DPPC   C3A50515  15.943  -5.072  14.253  0.0715 -0.0699  0.2513
 2402DPPC   C4A50516  15.687  -4.860  14.463  0.1199 -0.1761 -0.0598
 2402DPPC   C1B50517  17.273  -4.530  13.925  0.1778 -0.2087 -0.1317
 2402DPPC   C2B50518  17.072  -4.703  13.577  0.1632 -0.2376  0.1100
 2402DPPC   C3B50519  16.719  -4.639  13.458  0.0141  0.1304  0.0079
 2402DPPC   C4B50520  16.501  -4.197  13.209 -0.0583  0.1838  0.1141
 2403DPPC   NC350521  21.701  -3.818  18.923  0.3846  0.0286  0.2719
 2403DPPC   PO450522  21.821  -4.177  19.197 -0.2587  0.2846 -0.2263
 2403DPPC   GL150523  21.832  -4.172  19.509  0.1004  0.0122  0.3993
 2403DPPC   GL250524  21.782  -4.391  19.616  0.3442 -0.0765  0.1575
 2403DPPC   C1A50525  21.758  -3.859  19.858  0.0133  0.4430 -0.0559
 2403DPPC   C2A50526  21.577  -3.535  20.068  0.1398  0.1242 -0.2392
 2403DPPC   C3A50527  21.248  -3.504  20.282 -0.2405  0.1420 -0.2309
 2403DPPC   C4A50528  20.810  -3.402  20.222  0.0280 -0.2348  0.2734
 2403DPPC   C1B50529  21.808  -4.286  20.182 -0.0353 -0.0813  0.0357
 2403DPPC   C2B50530  21.877  -3.886  20.356  0.0874  0.3846  0.1454
 2403DPPC   C3B50531  22.364  -3.681  20.453  0.1884  0.0041  0.0472
 2403DPPC   C4B50532  22.714  -3.626  20.747 -0.1422 -0.0304 -0.0357
 2404DPPC   NC350533  28.999   2.745  24.098 -0.0568 -0.0612  0.1672
 2404DPPC   PO450534  28.822   2.667  23.592  0.2229 -0.2067 -0.0288
 2404DPPC   GL150535  28.338   2.752  23.494  0.4309 -0.2014 -0.3120
 2404DPPC   GL250536  28.153   2.994  23.403  0.1171  0.3069  0.4253
 2404DPPC   C1A50537  27.880   2.710  23.749  0.1423  0.0386  0.0327
 2404DPPC   C2A50538  27.530   2.740  23.932 -0.0291 -0.1239 -0.1004
 2404DPPC   C3A50539  27.195   2.588  23.974  0.2983 -0.1187  0.2332
 2404DPPC   C4A50540  26.974   2.219  23.827  0.2779 -0.3481  0.0072
 2404DPPC   C1B50541  27.810   3.288  23.462  0.2303 -0.3928  0.0463
 2404DPPC   C2B50542  27.393   3.561  23.518  0.2337  0.3887  0.1954
 2404DPPC   C3B50543  26.947   3.468  23.703  0.1039 -0.1568  0.3037
 2404DPPC   C4B50544  26.662   3.355  23.899 -0.3118 -0.2792 -0.1091
 2405DPPC   NC350545  11.691   5.000  12.941  0.2437  0.1984  0.2515
 2405DPPC   PO450546  11.628   4.634  13.063 -0.1747 -0.1760  0.1576
 2405DPPC   GL150547  11.969   4.468  13.275  0.3303  0.0130 -0.1539
 2405DPPC   GL250548  11.791   4.664  13.544 -0.0561  0.1114 -0.1095
 2405DPPC   C1A50549  12.009   4.254  13.607 -0.1674  0.2497  0.3127
 2405DPPC   C2A50550  11.980   4.326  14.168  0.3910  0.0190  0.0652
 2405DPPC   C3A50551  11.892   4.135  14.648  0.3313  0.0020  0.0592
 2405DPPC   C4A50552  11.999   4.116  15.125  0.4635  0.1985 -0.1334
 2405DPPC   C1B50553  11.600   4.442  13.873 -0.1483 -0.3524 -0.0648
 2405DPPC   C2B50554  11.460   4.407  14.317 -0.0010 -0.1159 -0.1607
 2405DPPC   C3B50555  11.505   4.465  14.826 -0.1606 -0.1531 -0.0113
 2405DPPC   C4B50556  11.391   4.762  15.104  0.2094  0.2929  0.0078
 2406DPPC   NC350557  28.440   2.167  29.292  0.1533 -0.1847 -0.2895
 2406DPPC   PO450558  28.611   2.107  28.903  0.1171 -0.1289  0.2171
 2406DPPC   GL150559  28.330   2.477  28.865  0.4094 -0.2358 -0.1157
 2406DPPC   GL250560  28.358   2.652  28.536 -0.0876 -0.0417 -0.1455
 2406DPPC   C1A50561  27.927   2.684  28.906  0.1698  0.2254 -0.1286
 2406DPPC   C2A50562  27.563   2.858  29.130 -0.1777 -0.0785 -0.0613
 2406DPPC   C3A50563  27.262   2.855  29.464 -0.0346  0.1108  0.1568
 2406DPPC   C4A50564  27.179   3.021  29.957  0.0025 -0.0268 -0.1302
 2406DPPC   C1B50565  28.110   2.554  28.094  0.0734 -0.2643  0.0822
 2406DPPC   C2B50566  28.241   2.210  27.801 -0.2610 -0.1192  0.0832
 2406DPPC   C3B50567  27.976   1.842  27.578 -0.0311  0.1909 -0.2896
 2406DPPC   C4B50568  27.637   1.830  27.312  0.0422 -0.1077  0.1262
 2407DPPC   NC350569  21.686   7.184  36.460 -0.5037  0.3930 -0.1726
 2407DPPC   PO450570  22.010   7.131  36.178 -0.1132  0.0956 -0.2515
 2407DPPC   GL150571  21.664   7.194  35.980 -0.1694 -0.1324  0.0823
 2407DPPC   GL250572  21.389   7.347  36.082  0.1873  0.0258 -0.0552
 2407DPPC   C1A50573  21.664   7.338  35.559 -0.1269  0.0071 -0.2598
 2407DPPC   C2A50574  21.505   7.572  35.185 -0.1979  0.0319  0.0430
 2407DPPC   C3A50575  21.407   7.588  34.729  0.1033 -0.0544 -0.1099
 2407DPPC   C4A50576  21.281   7.631  34.278 -0.0991 -0.0691  0.2703
 2407DPPC   C1B50577  21.171   7.109  35.801  0.2817 -0.1142  0.0245
 2407DPPC   C2B50578  21.217   7.225  35.365 -0.3040 -0.0772  0.1989
 2407DPPC   C3B50579  21.418   7.030  35.004  0.1431  0.2342 -0.0887
 2407DPPC   C4B50580  21.849   6.891  34.699 -0.0216 -0.0263 -0.0271
 2408DPPC   NC350581  18.112  -5.747  17.159  0.0748 -0.1372 -0.2266
 2408DPPC   PO450582  18.194  -6.275  17.030  0.1497  0.1671  0.1107
 2408DPPC   GL150583  18.072  -6.675  16.816 -0.1457 -0.1372 -0.1028
 2408DPPC   GL250584  17.928  -6.653  16.630 -0.1150 -0.0672 -0.0298
 2408DPPC   C1A50585  18.180  -7.094  16.960 -0.0054 -0.1072 -0.2730
 2408DPPC   C2A50586  18.258  -7.233  17.408 -0.1544 -0.0160 -0.0015
 2408DPPC   C3A50587  18.394  -7.372  17.808  0.2989 -0.2036 -0.2404
 2408DPPC   C4A50588  18.353  -7.162  18.123 -0.0143 -0.1311  0.3220
 2408DPPC   C1B50589  17.531  -6.730  16.611  0.0778  0.0616  0.0056
 2408DPPC   C2B50590  17.093  -6.861  16.727  0.4381  0.2647 -0.2396
 2408DPPC   C3B50591  16.531  -6.880  16.703 -0.0822  0.1581  0.1661
 2408DPPC   C4B50592  16.341  -7.106  16.995  0.0746 -0.0350  0.1377
 2409DPPC   NC350593  18.601  -0.698  15.300 -0.0790  0.1698 -0.5478
 2409DPPC   PO450594  18.290  -0.511  14.946  0.0746 -0.2269  0.0958
 2409DPPC   GL150595  18.144  -0.423  15.340  0.0251  0.1565 -0.3197
 2409DPPC   GL250596  17.982  -0.153  15.400 -0.0651 -0.1463 -0.0165
 2409DPPC   C1A50597  18.282  -0.464  15.764 -0.5075  0.2247 -0.1160
 2409DPPC   C2A50598  18.198  -0.418  16.191  0.3935  0.0846  0.1276
 2409DPPC   C3A50599  17.958  -0.546  16.506  0.2802 -0.0197  0.0387
 2409DPPC   C4A50600  17.513  -0.521  16.652 -0.0762 -0.2515  0.0497
 2409DPPC   C1B50601  17.817  -0.297  15.737  0.0076  0.2928  0.0857
 2409DPPC   C2B50602  17.558  -0.078  15.930  0.0222 -0.2405  0.0161
 2409DPPC   C3B50603  17.230   0.167  16.082  0.1682 -0.1194 -0.2346
 2409DPPC   C4B50604  16.784   0.283  16.025  0.2459 -0.0794 -0.0168
 2410DPPC   NC350605  14.014  -1.855  35.797  0.1594 -0.1810 -0.0149
 2410DPPC   PO450606  14.463  -1.904  35.768  0.1327 -0.1657 -0.0463
 2410DPPC   GL150607  14.316  -1.892  35.315 -0.3053 -0.2657 -0.1531
 2410DPPC   GL250608  14.280  -1.604  35.385  0.1269  0.2274 -0.3746
 2410DPPC   C1A50609  14.488  -1.921  34.949  0.0254  0.0329 -0.0940
 2410DPPC   C2A50610  14.640  -1.770  34.593  0.0118 -0.0456 -0.2373
 2410DPPC   C3A50611  14.732  -1.749  34.238  0.0171  0.1891  0.0375
 2410DPPC   C4A50612  14.901  -1.554  33.866 -0.1173  0.6079 -0.1204
 2410DPPC   C1B50613  14.456  -1.439  34.941 -0.2119 -0.0352  0.1088
 2410DPPC   C2B50614  14.583  -1.098  34.604 -0.0270  0.2626 -0.3156
 2410DPPC   C3B50615  14.437  -0.865  34.319 -0.2867 -0.1490 -0.0416
 2410DPPC   C4B50616  14.273  -1.053  33.979 -0.2540 -0.0443  0.4112
 2411DPPC   NC350617   3.447   0.009  24.264 -0.1450 -0.1268 -0.1599
 2411DPPC   PO450618   3.916  -0.192  24.029 -0.0792  0.1653 -0.0997
 2411DPPC   GL150619   3.962   0.203  24.113 -0.2092 -0.0462 -0.0020
 2411DPPC   GL250620   3.714   0.491  24.147  0.1513  0.3612  0.0831
 2411DPPC   C1A50621   4.129   0.326  24.426 -0.2067  0.0019  0.2115
 2411DPPC   C2A50622   4.335   0.527  24.786 -0.1123  0.1905  0.2508
 2411DPPC   C3A50623   4.708   0.632  25.136 -0.2854  0.0777 -0.3918
 2411DPPC   C4A50624   4.884   0.686  25.433  0.1251 -0.1269  0.2677
 2411DPPC   C1B50625   4.063   0.790  23.992  0.3560  0.1766  0.0293
 2411DPPC   C2B50626   4.282   1.157  24.039 -0.0091 -0.2106  0.0568
 2411DPPC   C3B50627   4.617   1.422  23.876  0.1944  0.1457  0.0315
 2411DPPC   C4B50628   4.428   1.766  23.633 -0.2210 -0.2101  0.3039
 2412DPPC   NC350629   8.509   0.128  15.061  0.0962  0.0827 -0.1384
 2412DPPC   PO450630   8.710  -0.261  15.029 -0.2019  0.2139  0.1294
 2412DPPC   GL150631   9.066  -0.101  15.335  0.0566  0.1829  0.0762
 2412DPPC   GL250632   9.230  -0.219  15.169  0.1847 -0.3629  0.2129
 2412DPPC   C1A50633   9.485   0.217  15.378  0.3245 -0.1230  0.2390
 2412DPPC   C2A50634   9.907   0.432  15.532 -0.0554  0.1544  0.2520
 2412DPPC   C3A50635  10.144   0.579  15.887  0.2112  0.0193  0.0221
 2412DPPC   C4A50636  10.228   0.568  16.384 -0.2945 -0.1757  0.2362
 2412DPPC   C1B50637   9.645  -0.085  15.040  0.0383 -0.0855 -0.0513
 2412DPPC   C2B50638   9.995  -0.027  15.333  0.1244 -0.0050 -0.0074
 2412DPPC   C3B50639  10.277  -0.043  15.757  0.1634 -0.2959 -0.2779
 2412DPPC   C4B50640  10.401   0.195  16.130  0.3333 -0.0147 -0.0716
 2413DPPC   NC350641  14.361  16.858  27.811  0.1122 -0.1334  0.0932
 2413DPPC   PO450642  14.180  16.927  27.380 -0.2407 -0.0468 -0.2597
 2413DPPC   GL150643  14.353  16.676  27.198  0.1235  0.4311 -0.2525
 2413DPPC   GL250644  14.147  16.464  27.103  0.1445 -0.1414  0.0360
 2413DPPC   C1A50645  14.543  16.213  27.257 -0.0617 -0.0146  0.1541
 2413DPPC   C2A50646  14.910  16.052  27.464 -0.4744  0.0063 -0.0871
 2413DPPC   C3A50647  15.289  16.072  27.446  0.4293 -0.1536  0.0202
 2413DPPC   C4A50648  15.499  16.298  27.726  0.0098  0.0055 -0.1304
 2413DPPC   C1B50649  13.955  16.178  27.136  0.2735 -0.2222 -0.2209
 2413DPPC   C2B50650  14.187  15.857  27.350 -0.0135 -0.2058 -0.0991
 2413DPPC   C3B50651  14.172  15.499  27.422 -0.1485  0.0776 -0.2590
 2413DPPC   C4B50652  14.013  15.274  27.064 -0.2753  0.0008 -0.0686
 2414DPPC   NC350653   8.848  14.467  24.380  0.0768  0.2481 -0.2291
 2414DPPC   PO450654   9.107  14.498  24.820  0.0135  0.2307 -0.2394
 2414DPPC   GL150655   8.967  14.096  24.907  0.0168  0.3025  0.0807
 2414DPPC   GL250656   8.711  14.091  25.124 -0.2392  0.0322 -0.0590
 2414DPPC   C1A50657   9.108  13.755  25.156  0.0817  0.0762 -0.0200
 2414DPPC   C2A50658   9.376  13.481  25.395 -0.0724 -0.1813  0.3286
 2414DPPC   C3A50659   9.633  13.464  25.811 -0.2835 -0.0243  0.0241
 2414DPPC   C4A50660   9.791  13.021  26.068 -0.4265  0.2817  0.0369
 2414DPPC   C1B50661   8.630  13.840  25.476 -0.3809  0.0207 -0.0206
 2414DPPC   C2B50662   8.329  13.455  25.431  0.1458  0.2081 -0.0870
 2414DPPC   C3B50663   8.429  13.079  25.274 -0.1908  0.0371  0.0698
 2414DPPC   C4B50664   8.376  12.652  25.415 -0.0296 -0.2656 -0.2256
 2415DPPC   NC350665   5.666  -3.124  28.890 -0.2059  0.1881 -0.1630
 2415DPPC   PO450666   5.455  -2.784  29.279  0.0716  0.1754  0.0847
 2415DPPC   GL150667   5.817  -2.588  29.211 -0.2899 -0.0793  0.1892
 2415DPPC   GL250668   5.850  -2.551  28.868 -0.0354 -0.0949 -0.0060
 2415DPPC   C1A50669   6.304  -2.267  29.166  0.1028 -0.1257 -0.4123
 2415DPPC   C2A50670   6.540  -2.254  28.745  0.2297 -0.3254 -0.1878
 2415DPPC   C3A50671   6.726  -2.115  28.470  0.0771  0.1146 -0.0258
 2415DPPC   C4A50672   6.816  -1.645  28.282  0.0861 -0.1639 -0.0345
 2415DPPC   C1B50673   6.116  -2.473  28.574  0.2839 -0.1688  0.3288
 2415DPPC   C2B50674   6.383  -2.423  28.259 -0.0034 -0.2129  0.0293
 2415DPPC   C3B50675   6.822  -2.502  28.177  0.4431 -0.0870 -0.0054
 2415DPPC   C4B50676   7.156  -2.607  27.801  0.1956 -0.0595 -0.1612
 2416DPPC   NC350677   5.512  -3.898  26.031  0.0479 -0.0273 -0.1709
 2416DPPC   PO450678   5.292  -3.927  25.638 -0.0609  0.0703 -0.2530
 2416DPPC   GL150679   5.596  -3.598  25.633 -0.5425  0.0856 -0.3670
 2416DPPC   GL250680   5.387  -3.432  25.363 -0.2559  0.3144  0.2529
 2416DPPC   C1A50681   5.973  -3.375  25.574 -0.0234 -0.1306  0.0838
 2416DPPC   C2A50682   6.488  -3.334  25.337 -0.1201 -0.0490 -0.0154
 2416DPPC   C3A50683   6.874  -3.001  25.375 -0.1664  0.3255  0.1365
 2416DPPC   C4A50684   6.932  -2.559  25.666  0.0965  0.0506  0.5520
 2416DPPC   C1B50685   5.502  -3.071  25.066  0.0512 -0.0447 -0.1172
 2416DPPC   C2B50686   5.807  -2.734  25.087 -0.0484  0.0508 -0.2193
 2416DPPC   C3B50687   6.142  -2.422  25.216  0.0136 -0.2682  0.2291
 2416DPPC   C4B50688   6.505  -2.353  25.514  0.0652 -0.0026  0.1591
 2417DPPC   NC350689  26.960  -5.530  15.758 -0.0003 -0.3115 -0.4780
 2417DPPC   PO450690  26.657  -5.169  15.769  0.1830 -0.2266  0.0626
 2417DPPC   GL150691  26.360  -5.082  15.504  0.0375 -0.2088  0.3082
 2417DPPC   GL250692  26.247  -5.190  15.168 -0.0916  0.1123 -0.1976
 2417DPPC   C1A50693  25.903  -5.066  15.593  0.2341  0.2259  0.1533
 2417DPPC   C2A50694  25.542  -4.932  15.728 -0.2793 -0.0653 -0.2651
 2417DPPC   C3A50695  25.118  -4.698  15.639  0.0107 -0.0996 -0.2905
 2417DPPC   C4A50696  24.780  -4.483  15.589 -0.1736  0.0601 -0.0313
 2417DPPC   C1B50697  26.087  -4.720  15.108  0.3540  0.2075  0.1094
 2417DPPC   C2B50698  25.955  -4.526  15.524 -0.0989 -0.1930 -0.0144
 2417DPPC   C3B50699  25.552  -4.385  15.732 -0.1599  0.2071 -0.1346
 2417DPPC   C4B50700  25.324  -4.564  16.089  0.0122 -0.2356  0.1131
 2418DPPC   NC350701  14.332  13.245  34.578 -0.1529  0.2459  0.1623
 2418DPPC   PO450702  13.894  13.220  34.398  0.2074 -0.0302 -0.1115
 2418DPPC   GL150703  13.995  13.108  33.951  0.3344  0.0469 -0.1640
 2418DPPC   GL250704  13.781  13.226  33.677  0.4039  0.1711  0.1122
 2418DPPC   C1A50705  13.944  12.732  33.699  0.1524 -0.1986  0.1316
 2418DPPC   C2A50706  13.972  12.406  33.397 -0.3504  0.1577 -0.1945
 2418DPPC   C3A50707  13.914  12.199  32.980 -0.1888 -0.3313  0.1011
 2418DPPC   C4A50708  13.677  11.902  32.805  0.1717  0.0168  0.0754
 2418DPPC   C1B50709  13.563  13.023  33.302  0.2937  0.3088  0.2827
 2418DPPC   C2B50710  13.451  13.000  32.927  0.0480  0.3321  0.2844
 2418DPPC   C3B50711  13.477  13.071  32.458 -0.1276 -0.0367 -0.1504
 2418DPPC   C4B50712  13.790  13.221  32.211  0.2319  0.0076 -0.0962
 2419DPPC   NC350713   3.303   0.318  25.838  0.5356 -0.2445 -0.3665
 2419DPPC   PO450714   3.287  -0.059  25.498  0.1902 -0.0723 -0.0403
 2419DPPC   GL150715   3.660   0.055  25.573 -0.0326 -0.0531  0.0065
 2419DPPC   GL250716   3.768   0.292  25.767  0.2821 -0.0491 -0.1574
 2419DPPC   C1A50717   4.074   0.094  25.438 -0.4310 -0.3922  0.2971
 2419DPPC   C2A50718   4.363   0.202  25.170  0.0481 -0.2028 -0.3375
 2419DPPC   C3A50719   4.866   0.199  24.928  0.1356 -0.0095 -0.1784
 2419DPPC   C4A50720   5.212   0.269  25.222 -0.0714  0.3575 -0.1395
 2419DPPC   C1B50721   4.106  -0.070  25.961 -0.0310 -0.1895 -0.0211
 2419DPPC   C2B50722   4.413  -0.198  26.297  0.0029 -0.0593  0.0290
 2419DPPC   C3B50723   4.809   0.131  26.526 -0.1092 -0.0206  0.2420
 2419DPPC   C4B50724   5.256   0.387  26.492  0.1903  0.0108  0.0345
 2420DPPC   NC350725  21.696  -2.040  13.771  0.0181  0.0281 -0.1376
 2420DPPC   PO450726  21.541  -2.375  13.524  0.3479  0.0647 -0.1511
 2420DPPC   GL150727  21.497  -2.483  13.109 -0.0847 -0.0833 -0.1400
 2420DPPC   GL250728  21.246  -2.347  13.018  0.2701  0.1118  0.0796
 2420DPPC   C1A50729  21.650  -2.200  12.748 -0.2325  0.0557  0.2738
 2420DPPC   C2A50730  21.685  -1.949  12.442 -0.4649 -0.0753  0.2376
 2420DPPC   C3A50731  22.051  -1.821  12.321 -0.0587 -0.0446 -0.1975
 2420DPPC   C4A50732  22.434  -1.806  12.570 -0.0447 -0.1334  0.2743
 2420DPPC   C1B50733  21.169  -2.263  12.572  0.1624 -0.1896 -0.5749
 2420DPPC   C2B50734  21.262  -2.084  12.218 -0.0615 -0.3547  0.2065
 2420DPPC   C3B50735  21.621  -2.110  11.873 -0.0262 -0.1226  0.2941
 2420DPPC   C4B50736  21.692  -2.550  11.814 -0.0189  0.0405  0.0421
 2421DPPC   NC350737  21.750  -5.373  17.932  0.1927  0.4429 -0.1222
 2421DPPC   PO450738  21.421  -5.527  18.047 -0.1261  0.3096 -0.1672
 2421DPPC   GL150739  21.839  -5.848  17.949 -0.0601  0.0643  0.0323
 2421DPPC   GL250740  22.073  -5.978  18.187  0.2812 -0.1136 -0.1103
 2421DPPC   C1A50741  22.175  -5.977  17.602  0.0617  0.1498  0.2092
 2421DPPC   C2A50742  22.181  -6.466  17.464  0.0775  0.0198  0.1332
 2421DPPC   C3A50743  22.446  -6.781  17.664 -0.3046 -0.3304  0.1508
 2421DPPC   C4A50744  22.755  -6.943  18.069  0.0478  0.1693  0.0815
 2421DPPC   C1B50745  22.246  -6.392  17.948 -0.2329 -0.0838  0.0507
 2421DPPC   C2B50746  22.109  -6.828  18.021  0.0100 -0.3008 -0.0064
 2421DPPC   C3B50747  21.958  -7.007  18.442  0.0905 -0.1198 -0.1415
 2421DPPC   C4B50748  21.992  -6.791  18.938  0.1502  0.0393  0.4012
 2422DPPC   NC350749  18.393  -6.323  17.457 -0.5775  0.0541  0.0395
 2422DPPC   PO450750  18.597  -6.267  17.916  0.1422  0.0095  0.1071
 2422DPPC   GL150751  18.269  -6.462  18.047  0.3500  0.1318  0.1167
 2422DPPC   GL250752  18.362  -6.758  17.814 -0.1394  0.0871 -0.1194
 2422DPPC   C1A50753  17.879  -6.513  18.254 -0.1436 -0.1646 -0.0785
 2422DPPC   C2A50754  17.900  -6.734  18.687  0.0384 -0.2958 -0.0259
 2422DPPC   C3A50755  17.588  -6.492  18.872  0.1911  0.1325 -0.0690
 2422DPPC   C4A50756  17.270  -6.300  18.976  0.0527 -0.1600  0.0732
 2422DPPC   C1B50757  18.012  -7.011  17.807 -0.0341 -0.1280  0.2439
 2422DPPC   C2B50758  17.633  -6.792  17.630  0.1467 -0.0778 -0.2848
 2422DPPC   C3B50759  17.377  -6.475  17.847 -0.4289 -0.1689  0.1817
 2422DPPC   C4B50760  17.081  -6.272  17.923  0.2349 -0.1784 -0.0158
 2423DPPC   NC350761  19.137  -2.416  13.811  0.2724  0.1918 -0.0283
 2423DPPC   PO450762  18.936  -2.133  13.423 -0.0688  0.1583  0.2729
 2423DPPC   GL150763  18.707  -2.101  12.979  0.0511  0.1029 -0.0411
 2423DPPC   GL250764  18.396  -1.903  12.831 -0.1380 -0.2735  0.1115
 2423DPPC   C1A50765  18.632  -2.440  12.638 -0.0910  0.2613 -0.0224
 2423DPPC   C2A50766  18.520  -2.812  12.422 -0.0560  0.1400 -0.0518
 2423DPPC   C3A50767  18.285  -3.026  12.188  0.0002  0.0964 -0.4436
 2423DPPC   C4A50768  18.418  -3.276  11.795 -0.0037  0.3141 -0.0834
 2423DPPC   C1B50769  18.460  -1.972  12.463  0.0101 -0.0388 -0.2346
 2423DPPC   C2B50770  18.838  -1.879  12.221  0.3193 -0.2029 -0.0427
 2423DPPC   C3B50771  18.862  -1.612  11.774 -0.1795  0.2644  0.2320
 2423DPPC   C4B50772  18.841  -1.325  11.592 -0.2086  0.2237  0.0570
 2424DPPC   NC350773   8.137  -4.996  19.226  0.3683 -0.1720  0.0566
 2424DPPC   PO450774   8.120  -4.557  19.184 -0.0580 -0.0892  0.0374
 2424DPPC   GL150775   8.382  -4.352  19.358 -0.1367  0.0043  0.1187
 2424DPPC   GL250776   8.260  -4.051  19.496  0.1243  0.1914  0.0556
 2424DPPC   C1A50777   8.732  -4.467  19.524  0.1556  0.1696  0.0723
 2424DPPC   C2A50778   9.033  -4.409  19.827  0.2345 -0.2569  0.1107
 2424DPPC   C3A50779   9.028  -3.947  20.025  0.2297  0.3425  0.2270
 2424DPPC   C4A50780   8.791  -3.641  20.182  0.0448  0.2753 -0.2695
 2424DPPC   C1B50781   8.645  -4.015  19.578 -0.3188  0.0841  0.0599
 2424DPPC   C2B50782   9.158  -3.908  19.537 -0.0768  0.1170  0.4024
 2424DPPC   C3B50783   9.532  -3.886  19.666 -0.2423 -0.0404  0.1525
 2424DPPC   C4B50784   9.784  -3.851  19.919  0.1089  0.2562  0.0320
 2425DPPC   NC350785  19.126  -6.026  15.737 -0.4570  0.2319 -0.2404
 2425DPPC   PO450786  18.949  -5.826  15.331  0.2291  0.4731  0.0441
 2425DPPC   GL150787  18.739  -6.273  15.455 -0.1219  0.0530 -0.1753
 2425DPPC   GL250788  18.445  -6.382  15.616  0.2182  0.0764 -0.3447
 2425DPPC   C1A50789  18.747  -6.742  15.539 -0.0402  0.2917  0.2932
 2425DPPC   C2A50790  18.779  -7.122  15.576  0.1012  0.0076  0.1703
 2425DPPC   C3A50791  18.555  -7.554  15.621 -0.0536 -0.2814 -0.2594
 2425DPPC   C4A50792  18.455  -7.886  15.639 -0.0441  0.2523  0.0506
 2425DPPC   C1B50793  18.129  -6.635  15.660 -0.1949  0.0128  0.1906
 2425DPPC   C2B50794  18.166  -6.956  15.810 -0.1264  0.2960 -0.0696
 2425DPPC   C3B50795  18.169  -7.304  15.873 -0.0338  0.2653  0.2783
 2425DPPC   C4B50796  18.193  -7.650  16.055 -0.0049 -0.0132 -0.2936
 2426DPPC   NC350797   5.039   4.250  32.172  0.1466  0.1397 -0.2797
 2426DPPC   PO450798   5.216   4.729  32.263  0.0237  0.1506  0.2348
 2426DPPC   GL150799   5.398   5.073  32.006  0.3820 -0.2989 -0.3715
 2426DPPC   GL250800   5.574   5.278  32.255  0.0399 -0.1168  0.1709
 2426DPPC   C1A50801   5.774   5.102  31.805 -0.1548 -0.1929  0.1579
 2426DPPC   C2A50802   6.155   5.227  31.524  0.1457  0.0909  0.2582
 2426DPPC   C3A50803   6.311   5.381  31.216  0.2393 -0.0323 -0.1004
 2426DPPC   C4A50804   6.646   5.381  30.913  0.1064  0.2096 -0.0494
 2426DPPC   C1B50805   5.705   5.583  31.993  0.0505  0.0210  0.3299
 2426DPPC   C2B50806   6.069   5.656  31.801  0.0230  0.0254 -0.1800
 2426DPPC   C3B50807   6.492   5.617  31.789 -0.3953 -0.0433 -0.0081
 2426DPPC   C4B50808   6.664   5.596  31.436  0.0880 -0.1322 -0.4445
 2427DPPC   NC350809  18.016  -5.644  15.053 -0.0797 -0.3083  0.2785
 2427DPPC   PO450810  17.861  -5.704  14.662 -0.0010  0.1245  0.2867
 2427DPPC   GL150811  17.521  -5.767  14.491  0.2110 -0.1066 -0.1737
 2427DPPC   GL250812  17.077  -5.664  14.679  0.3348  0.0810 -0.3022
 2427DPPC   C1A50813  17.267  -5.977  14.114 -0.1284  0.0478 -0.2405
 2427DPPC   C2A50814  17.108  -6.359  13.898  0.3497 -0.2680 -0.1207
 2427DPPC   C3A50815  17.086  -6.758  14.001 -0.1932  0.0905  0.0070
 2427DPPC   C4A50816  17.128  -7.223  13.817 -0.2322 -0.1480 -0.0351
 2427DPPC   C1B50817  17.087  -5.585  14.306 -0.1182 -0.0097 -0.4687
 2427DPPC   C2B50818  17.034  -5.497  13.904  0.1754  0.1302  0.0779
 2427DPPC   C3B50819  16.841  -5.138  13.711  0.1034  0.1574  0.2579
 2427DPPC   C4B50820  16.448  -5.024  13.513 -0.0671  0.2067  0.1353
 2428DPPC   NC350821  25.444   5.191  15.546 -0.1160 -0.0166  0.1166
 2428DPPC   PO450822  25.284   5.638  15.526 -0.1968 -0.2519  0.1335
 2428DPPC   GL150823  24.858   5.587  15.613  0.0595 -0.0833  0.3698
 2428DPPC   GL250824  24.864   5.710  15.930 -0.2099 -0.2917  0.1335
 2428DPPC   C1A50825  24.424   5.758  15.527 -0.0754 -0.0042  0.0634
 2428DPPC   C2A50826  24.070   5.977  15.721 -0.1732 -0.2749 -0.0961
 2428DPPC   C3A50827  23.536   6.042  15.846 -0.1291 -0.0725 -0.1061
 2428DPPC   C4A50828  23.108   6.118  16.016 -0.2983 -0.2417 -0.1042
 2428DPPC   C1B50829  24.496   5.559  15.968 -0.4486  0.2764 -0.2118
 2428DPPC   C2B50830  24.122   5.377  16.192  0.2785 -0.0820 -0.2305
 2428DPPC   C3B50831  23.762   5.194  16.364 -0.3344  0.3320 -0.1396
 2428DPPC   C4B50832  23.480   5.117  16.676  0.2075  0.0105 -0.0029
 2429DPPC   NC350833  13.448  -5.365  15.108  0.0218 -0.2117 -0.0179
 2429DPPC   PO450834  13.758  -5.452  14.892  0.2081 -0.0282 -0.3441
 2429DPPC   GL150835  13.869  -5.040  14.963 -0.1227  0.0516  0.0067
 2429DPPC   GL250836  13.709  -4.876  14.880 -0.0858  0.0722 -0.0527
 2429DPPC   C1A50837  14.148  -4.849  15.265  0.1377  0.0882 -0.1601
 2429DPPC   C2A50838  14.242  -4.616  15.643 -0.1600 -0.1327  0.3636
 2429DPPC   C3A50839  14.618  -4.481  15.955 -0.1484  0.1378  0.0174
 2429DPPC   C4A50840  14.926  -4.452  16.198 -0.2759 -0.2095  0.3307
 2429DPPC   C1B50841  13.657  -4.558  15.095 -0.0271  0.1692  0.0970
 2429DPPC   C2B50842  13.893  -4.347  15.414 -0.3756  0.2912  0.0620
 2429DPPC   C3B50843  14.082  -4.088  15.788  0.5950 -0.0974  0.0543
 2429DPPC   C4B50844  14.441  -4.104  16.137  0.2569 -0.1049 -0.3279
 2430DPPC   NC350845  24.191   2.267  34.558 -0.1983 -0.1396 -0.1728
 2430DPPC   PO450846  23.898   1.773  34.421  0.0016 -0.0346 -0.3017
 2430DPPC   GL150847  23.703   2.113  34.355 -0.1610 -0.1265 -0.1536
 2430DPPC   GL250848  23.874   2.108  34.029  0.0029  0.2672 -0.1094
 2430DPPC   C1A50849  23.284   1.982  34.193 -0.1014 -0.0496 -0.2787
 2430DPPC   C2A50850  22.862   2.104  33.999  0.3204 -0.0710  0.0026
 2430DPPC   C3A50851  22.472   2.281  34.048  0.0422 -0.1417 -0.2804
 2430DPPC   C4A50852  22.090   2.344  33.807 -0.1404 -0.2568 -0.0291
 2430DPPC   C1B50853  23.826   2.183  33.570 -0.0309  0.0164 -0.1117
 2430DPPC   C2B50854  23.883   1.979  33.059 -0.0252  0.0629  0.1187
 2430DPPC   C3B50855  24.047   1.738  32.749  0.0657 -0.1682  0.2756
 2430DPPC   C4B50856  24.044   1.490  32.323  0.3408  0.2639 -0.1435
 2431DPPC   NC350857  20.768  -4.580  14.851  0.0462  0.0208  0.2357
 2431DPPC   PO450858  20.863  -4.337  14.430 -0.1077  0.1347 -0.1209
 2431DPPC   GL150859  20.926  -4.631  14.071 -0.1171 -0.1319 -0.0232
 2431DPPC   GL250860  21.052  -4.915  13.941 -0.1455  0.0880 -0.3594
 2431DPPC   C1A50861  20.782  -4.827  13.576  0.0674  0.2600 -0.2311
 2431DPPC   C2A50862  20.822  -4.822  13.082  0.0348 -0.0041  0.1435
 2431DPPC   C3A50863  20.791  -5.348  12.851 -0.0253  0.0064  0.2985
 2431DPPC   C4A50864  20.804  -5.874  12.905 -0.3098  0.1134  0.1154
 2431DPPC   C1B50865  21.280  -4.890  13.501 -0.5435 -0.3568  0.1078
 2431DPPC   C2B50866  21.299  -4.872  12.992  0.0275 -0.0595 -0.1588
 2431DPPC   C3B50867  21.620  -4.740  12.729 -0.4671 -0.1491  0.1638
 2431DPPC   C4B50868  21.973  -4.683  12.297 -0.1240 -0.1455 -0.0252
 2432DPPC   NC350869  21.846  -4.940  17.368  0.0544 -0.1767 -0.1733
 2432DPPC   PO450870  22.283  -5.209  17.343 -0.2436 -0.0287  0.0823
 2432DPPC   GL150871  22.376  -5.623  17.172  0.0342  0.0107 -0.1463
 2432DPPC   GL250872  22.701  -5.531  17.138  0.0057  0.4600 -0.2858
 2432DPPC   C1A50873  22.488  -6.024  17.198 -0.0735  0.0865 -0.4502
 2432DPPC   C2A50874  23.017  -6.187  17.198  0.0389 -0.0806 -0.2033
 2432DPPC   C3A50875  23.257  -6.501  17.319 -0.3659  0.2394  0.3822
 2432DPPC   C4A50876  23.564  -6.849  17.237 -0.2568 -0.0117  0.3366
 2432DPPC   C1B50877  22.884  -5.845  16.831  0.1380 -0.1330  0.0714
 2432DPPC   C2B50878  22.930  -6.216  16.615 -0.0930  0.1368 -0.0607
 2432DPPC   C3B50879  22.785  -6.456  16.280 -0.1100 -0.0697  0.1470
 2432DPPC   C4B50880  22.676  -6.483  15.849  0.0757  0.2594 -0.1038
 2433DPPC   NC350881  27.334  -0.565  14.986 -0.4219 -0.0944 -0.1743
 2433DPPC   PO450882  27.222  -1.071  15.112  0.2740 -0.0365  0.0521
 2433DPPC   GL150883  26.755  -0.953  14.955  0.2384 -0.0447 -0.4607
 2433DPPC   GL250884  26.541  -0.939  14.618  0.2051 -0.2373  0.2803
 2433DPPC   C1A50885  26.378  -0.756  15.112  0.1906  0.0115 -0.0028
 2433DPPC   C2A50886  25.938  -0.725  15.023 -0.1062 -0.0549  0.4021
 2433DPPC   C3A50887  25.670  -0.960  15.073  0.0190  0.0233  0.2314
 2433DPPC   C4A50888  25.305  -1.092  14.957 -0.0217 -0.0613 -0.4962
 2433DPPC   C1B50889  26.379  -1.498  14.631 -0.3771  0.0758 -0.1980
 2433DPPC   C2B50890  26.112  -1.678  14.927 -0.3386  0.2018  0.3634
 2433DPPC   C3B50891  25.911  -1.882  15.352 -0.0741 -0.1820 -0.1175
 2433DPPC   C4B50892  25.737  -2.310  15.354 -0.1167  0.1805  0.3763
 2434DPPC   NC350893  17.109  -3.129  10.103 -0.1388 -0.1083 -0.2497
 2434DPPC   PO450894  17.329  -3.410  10.216 -0.3510  0.1569 -0.0900
 2434DPPC   GL150895  17.683  -3.442  10.361  0.1798 -0.0793  0.3512
 2434DPPC   GL250896  17.596  -3.685  10.662  0.0045 -0.3159 -0.0189
 2434DPPC   C1A50897  18.035  -3.320  10.516 -0.0359 -0.1788 -0.2355
 2434DPPC   C2A50898  18.230  -2.978  10.784  0.3604  0.1745  0.2004
 2434DPPC   C3A50899  18.328  -2.673  11.173 -0.3085  0.3509  0.0684
 2434DPPC   C4A50900  18.054  -2.218  11.261 -0.2304  0.0405  0.0739
 2434DPPC   C1B50901  17.574  -3.883  11.032  0.3725  0.0708  0.1293
 2434DPPC   C2B50902  17.650  -3.786  11.400 -0.1194  0.2145  0.1195
 2434DPPC   C3B50903  18.023  -3.573  11.544  0.0218 -0.0089  0.5682
 2434DPPC   C4B50904  18.287  -3.803  11.773  0.0917  0.0487 -0.0331
 2435DPPC   NC350905  10.090  -6.486  29.209 -0.4797 -0.0423 -0.1075
 2435DPPC   PO450906  10.488  -6.409  29.155 -0.1918  0.0809 -0.0327
 2435DPPC   GL150907  10.547  -5.998  29.301 -0.0380 -0.0259  0.2673
 2435DPPC   GL250908  10.415  -5.827  29.486  0.1892 -0.0939  0.1425
 2435DPPC   C1A50909  10.835  -5.774  29.195  0.1865  0.1328  0.0109
 2435DPPC   C2A50910  11.152  -5.523  29.018 -0.0292  0.3544 -0.0913
 2435DPPC   C3A50911  11.543  -5.269  28.959  0.0320  0.0106 -0.3106
 2435DPPC   C4A50912  11.538  -5.028  28.602 -0.1810 -0.0214  0.5095
 2435DPPC   C1B50913  10.139  -5.527  29.343  0.3455 -0.2326  0.1273
 2435DPPC   C2B50914   9.693  -5.365  29.221 -0.3754  0.1697 -0.0729
 2435DPPC   C3B50915   9.685  -4.975  29.198  0.3025  0.0379 -0.2169
 2435DPPC   C4B50916   9.782  -4.597  29.192  0.0569  0.3045 -0.1371
 2436DPPC   NC350917  16.789  -3.340  14.233  0.3246  0.2959 -0.2158
 2436DPPC   PO450918  16.500  -3.436  14.541 -0.0146  0.0138 -0.0162
 2436DPPC   GL150919  16.143  -3.443  14.545 -0.0643  0.1367 -0.2459
 2436DPPC   GL250920  15.936  -3.198  14.634  0.5382  0.0003  0.1569
 2436DPPC   C1A50921  15.780  -3.741  14.505 -0.0039  0.1418  0.0998
 2436DPPC   C2A50922  15.792  -4.018  14.867 -0.1684 -0.0913 -0.2509
 2436DPPC   C3A50923  15.833  -4.243  15.223  0.4657  0.0144  0.2150
 2436DPPC   C4A50924  15.618  -4.348  15.530 -0.0750  0.2524 -0.0424
 2436DPPC   C1B50925  15.653  -2.984  14.935 -0.2784 -0.1717  0.2661
 2436DPPC   C2B50926  15.347  -2.567  15.031 -0.0902  0.2965 -0.1608
 2436DPPC   C3B50927  15.236  -2.268  14.974 -0.0601 -0.1987  0.3077
 2436DPPC   C4B50928  14.992  -2.096  14.551  0.0920 -0.1154  0.1420
 2437DPPC   NC350929  20.389  -4.246  14.205 -0.0906 -0.1249 -0.1139
 2437DPPC   PO450930  20.296  -4.495  14.567  0.0997  0.4380 -0.0641
 2437DPPC   GL150931  20.378  -4.797  14.134 -0.3671  0.1583 -0.4139
 2437DPPC   GL250932  20.085  -4.896  13.879  0.0149  0.1208 -0.0947
 2437DPPC   C1A50933  20.582  -5.079  13.936 -0.0786 -0.0319 -0.2589
 2437DPPC   C2A50934  20.880  -5.337  13.786 -0.3811  0.4515  0.0204
 2437DPPC   C3A50935  21.228  -5.554  13.891  0.1159 -0.6283 -0.1750
 2437DPPC   C4A50936  21.677  -5.613  13.886 -0.1327  0.1366 -0.0355
 2437DPPC   C1B50937  20.061  -5.227  13.606  0.1138  0.2680  0.1590
 2437DPPC   C2B50938  20.071  -5.686  13.408 -0.0055  0.0559  0.0646
 2437DPPC   C3B50939  19.757  -6.024  13.295 -0.1582 -0.1205 -0.6224
 2437DPPC   C4B50940  19.459  -6.171  13.502  0.0850  0.2226  0.3145
 2438DPPC   NC350941   9.254  -4.995  16.531 -0.0104 -0.2928  0.0909
 2438DPPC   PO450942   9.063  -4.841  16.918 -0.0906 -0.1581  0.1076
 2438DPPC   GL150943   9.351  -4.548  17.210  0.2297 -0.0753 -0.0393
 2438DPPC   GL250944   9.161  -4.287  17.393 -0.1812  0.0893  0.1133
 2438DPPC   C1A50945   9.726  -4.433  17.394  0.1111 -0.1044  0.0972
 2438DPPC   C2A50946  10.007  -4.519  17.851  0.0537 -0.0965  0.1930
 2438DPPC   C3A50947  10.335  -4.407  18.135  0.2839  0.0169 -0.1551
 2438DPPC   C4A50948  10.226  -4.066  18.508  0.0605 -0.2314 -0.3670
 2438DPPC   C1B50949   9.040  -3.822  17.670 -0.1022 -0.0924  0.0265
 2438DPPC   C2B50950   8.984  -3.382  17.533 -0.0772  0.2867  0.1137
 2438DPPC   C3B50951   9.098  -3.075  17.414  0.0515 -0.2325 -0.3032
 2438DPPC   C4B50952   9.202  -2.764  17.065  0.1771  0.1513  0.3129
 2439DPPC   NC350953  25.757  -3.416  20.536  0.1080 -0.0346 -0.1435
 2439DPPC   PO450954  25.617  -3.601  20.862 -0.4710  0.1813  0.0769
 2439DPPC   GL150955  25.275  -3.579  20.689 -0.0933 -0.1929 -0.1310
 2439DPPC   GL250956  25.286  -3.298  20.335 -0.3403 -0.1091  0.2694
 2439DPPC   C1A50957  24.893  -3.450  20.577  0.1681 -0.5537  0.0122
 2439DPPC   C2A50958  24.426  -3.343  20.601  0.0898 -0.0859  0.1913
 2439DPPC   C3A50959  24.063  -3.381  20.466  0.2599 -0.1504  0.0982
 2439DPPC   C4A50960  23.896  -3.023  20.766  0.2763 -0.1520 -0.2201
 2439DPPC   C1B50961  25.075  -2.965  20.555  0.1161  0.2022 -0.0508
 2439DPPC   C2B50962  24.725  -2.732  20.676 -0.2336  0.0834  0.0700
 2439DPPC   C3B50963  24.313  -2.702  20.623 -0.3528  0.0589  0.1809
 2439DPPC   C4B50964  24.050  -2.577  20.927  0.1165 -0.1470  0.0991
 2440DPPC   NC350965  22.441  -3.625  10.244  0.1294 -0.3371 -0.0361
 2440DPPC   PO450966  22.476  -3.902  10.472 -0.2390  0.0905 -0.3092
 2440DPPC   GL150967  22.214  -3.773  10.771 -0.4805  0.3152  0.0112
 2440DPPC   GL250968  22.110  -3.517  10.641 -0.2094  0.2708 -0.1257
 2440DPPC   C1A50969  21.881  -3.728  11.091 -0.2599 -0.0644 -0.0909
 2440DPPC   C2A50970  21.823  -3.400  11.355  0.0302 -0.1468  0.0260
 2440DPPC   C3A50971  21.462  -3.300  11.636 -0.0391  0.0114 -0.0710
 2440DPPC   C4A50972  21.033  -3.329  11.567  0.1435  0.0946 -0.2629
 2440DPPC   C1B50973  22.225  -3.358  10.963  0.0851  0.2393 -0.2347
 2440DPPC   C2B50974  22.612  -3.140  11.099 -0.2250  0.1673 -0.0192
 2440DPPC   C3B50975  22.517  -2.715  11.219  0.4035  0.0799  0.1277
 2440DPPC   C4B50976  22.288  -2.379  11.110 -0.1574  0.1731  0.3058
 2441DPPC   NC350977  19.028  -4.037  14.069 -0.2785 -0.1964 -0.0393
 2441DPPC   PO450978  19.282  -4.343  14.010  0.1493 -0.1691  0.4243
 2441DPPC   GL150979  19.123  -4.663  13.790  0.0928 -0.0456  0.1012
 2441DPPC   GL250980  18.744  -4.526  13.744 -0.1434 -0.2059 -0.0481
 2441DPPC   C1A50981  19.282  -4.811  13.413  0.0551  0.3410 -0.0665
 2441DPPC   C2A50982  19.293  -5.197  13.080 -0.4288  0.0447  0.0984
 2441DPPC   C3A50983  19.262  -5.610  12.659 -0.0792 -0.1992 -0.0719
 2441DPPC   C4A50984  19.188  -5.818  12.280 -0.2882 -0.3774 -0.3276
 2441DPPC   C1B50985  18.690  -4.887  13.466 -0.4268  0.1756  0.0243
 2441DPPC   C2B50986  18.867  -5.178  13.349 -0.0344  0.1755 -0.0483
 2441DPPC   C3B50987  18.813  -5.570  12.980  0.2579  0.0594  0.1229
 2441DPPC   C4B50988  18.786  -5.543  12.618  0.0727  0.0477 -0.3251
 2442DPPC   NC350989  27.438   0.157  20.344  0.2649  0.2917  0.0545
 2442DPPC   PO450990  27.573   0.503  20.156 -0.0806  0.1525  0.0129
 2442DPPC   GL150991  27.059   0.474  20.193 -0.0624 -0.2934  0.0793
 2442DPPC   GL250992  26.918   0.165  20.297 -0.2858  0.0470  0.1458
 2442DPPC   C1A50993  26.684   0.640  20.447 -0.0202 -0.0172 -0.0800
 2442DPPC   C2A50994  26.361   0.833  20.664  0.2914 -0.0172  0.2014
 2442DPPC   C3A50995  26.162   1.191  20.470  0.0757 -0.1031  0.0323
 2442DPPC   C4A50996  25.963   1.495  20.247 -0.1389 -0.1327 -0.0704
 2442DPPC   C1B50997  26.473   0.165  20.477  0.0975 -0.1135 -0.0127
 2442DPPC   C2B50998  26.179   0.132  20.777 -0.0692 -0.5608 -0.1795
 2442DPPC   C3B50999  25.702  -0.008  20.831  0.1498 -0.3029  0.1629
 2442DPPC   C4B51000  25.241   0.085  20.959  0.1156  0.0189  0.0651
 2443DPPC   NC351001  16.694  -2.889  15.705 -0.0488  0.4464 -0.2125
 2443DPPC   PO451002  16.511  -3.300  15.632  0.1417  0.2508 -0.3696
 2443DPPC   GL151003  16.295  -3.080  15.460  0.1404 -0.2093 -0.1104
 2443DPPC   GL251004  16.137  -3.269  15.290 -0.0394  0.2342 -0.0090
 2443DPPC   C1A51005  15.999  -2.922  15.674  0.0345  0.0811  0.0597
 2443DPPC   C2A51006  15.718  -3.129  16.010  0.0630  0.2750  0.1500
 2443DPPC   C3A51007  15.554  -3.242  16.464 -0.1540  0.2913  0.2848
 2443DPPC   C4A51008  15.667  -3.291  16.837  0.0556 -0.1818 -0.1334
 2443DPPC   C1B51009  15.729  -3.199  15.428 -0.2737 -0.0761  0.0890
 2443DPPC   C2B51010  15.585  -3.522  15.671  0.1638  0.0978  0.1044
 2443DPPC   C3B51011  15.476  -3.668  16.116 -0.0117 -0.1555  0.0025
 2443DPPC   C4B51012  15.558  -3.819  16.548  0.0804 -0.2132 -0.0857
 2444DPPC   NC351013  23.795  -8.518  18.219  0.1314  0.0836 -0.1147
 2444DPPC   PO451014  23.666  -8.428  18.737 -0.0751  0.0476 -0.1187
 2444DPPC   GL151015  23.422  -8.107  18.430  0.2086 -0.0977 -0.1108
 2444DPPC   GL251016  23.174  -8.406  18.277 -0.2318 -0.1214  0.0737
 2444DPPC   C1A51017  23.428  -7.647  18.382  0.2216  0.3481 -0.0920
 2444DPPC   C2A51018  23.560  -7.272  18.503  0.1176 -0.0100  0.1347
 2444DPPC   C3A51019  23.776  -6.893  18.559 -0.0574  0.1608  0.0732
 2444DPPC   C4A51020  23.615  -6.800  18.973  0.0643  0.1069 -0.2177
 2444DPPC   C1B51021  22.777  -8.141  18.222 -0.0818  0.1025  0.1059
 2444DPPC   C2B51022  22.395  -8.256  18.046 -0.0643  0.0514 -0.2382
 2444DPPC   C3B51023  21.939  -8.282  17.972  0.0065 -0.0878 -0.0271
 2444DPPC   C4B51024  21.679  -8.250  18.104  0.0993  0.0961  0.0818
 2445DPPC   NC351025  20.338  -5.122  14.547 -0.2840  0.1490  0.0256
 2445DPPC   PO451026  20.008  -4.956  14.375 -0.0110  0.1161  0.2058
 2445DPPC   GL151027  20.137  -5.326  14.130 -0.3492 -0.2699 -0.2669
 2445DPPC   GL251028  20.179  -5.631  14.350  0.0030 -0.0390  0.2732
 2445DPPC   C1A51029  20.402  -5.542  13.824 -0.0426  0.1862  0.1914
 2445DPPC   C2A51030  20.462  -5.949  13.613  0.1364  0.0994 -0.1825
 2445DPPC   C3A51031  20.731  -6.243  13.397  0.2270 -0.1700  0.3691
 2445DPPC   C4A51032  20.899  -6.665  13.185  0.0010 -0.1851  0.2131
 2445DPPC   C1B51033  20.321  -5.978  14.135  0.0669 -0.0856  0.2468
 2445DPPC   C2B51034  20.414  -6.385  13.850  0.1509 -0.1959  0.0564
 2445DPPC   C3B51035  20.566  -6.746  13.556 -0.1524  0.2446  0.0020
 2445DPPC   C4B51036  20.321  -7.129  13.676  0.0895 -0.1143 -0.0069
 2446DPPC   NC351037  29.123   3.220  28.566  0.3827  0.0862 -0.2211
 2446DPPC   PO451038  28.754   2.963  28.419  0.0568  0.1639  0.2635
 2446DPPC   GL151039  28.389   3.079  28.062  0.0259  0.3231  0.1649
 2446DPPC   GL251040  28.416   3.348  27.834 -0.0882  0.1134  0.0562
 2446DPPC   C1A51041  27.916   3.046  27.965 -0.1102  0.1696 -0.2121
 2446DPPC   C2A51042  27.557   3.002  27.728  0.2079  0.2291  0.3282
 2446DPPC   C3A51043  27.205   3.230  27.581  0.0949 -0.0419  0.2875
 2446DPPC   C4A51044  26.939   3.174  27.296  0.1101 -0.2148 -0.0894
 2446DPPC   C1B51045  28.186   3.751  27.872 -0.1923  0.1107  0.2174
 2446DPPC   C2B51046  27.858   3.889  28.033  0.0448 -0.1501 -0.0150
 2446DPPC   C3B51047  27.437   4.151  28.223 -0.1132  0.0507 -0.0141
 2446DPPC   C4B51048  26.979   4.011  28.246  0.1229  0.1927 -0.1357
 2447DPPC   NC351049  20.818  -0.182  16.136 -0.0431  0.0966 -0.1132
 2447DPPC   PO451050  21.154  -0.400  16.559 -0.3476 -0.2391  0.1586
 2447DPPC   GL151051  20.915  -0.460  16.870 -0.2472 -0.1730 -0.0156
 2447DPPC   GL251052  21.036  -0.275  17.102  0.0212 -0.0235  0.3796
 2447DPPC   C1A51053  20.626  -0.671  17.120 -0.3854  0.1676 -0.0476
 2447DPPC   C2A51054  20.404  -0.609  17.476 -0.2182  0.1127  0.1377
 2447DPPC   C3A51055  20.242  -0.856  17.803  0.0260  0.1968  0.0938
 2447DPPC   C4A51056  20.129  -1.113  18.127 -0.0565 -0.1808  0.2102
 2447DPPC   C1B51057  20.760  -0.271  17.420  0.1929 -0.0632  0.1763
 2447DPPC   C2B51058  20.688   0.084  17.592  0.0589 -0.1049  0.0210
 2447DPPC   C3B51059  20.753   0.460  17.434  0.1527 -0.1491  0.0045
 2447DPPC   C4B51060  20.555   0.711  17.160  0.2231 -0.1007 -0.0716
 2448DPPC   NC351061  19.936  -6.971  28.562 -0.1409 -0.2487  0.0551
 2448DPPC   PO451062  20.260  -6.566  28.659  0.4374  0.0182  0.0000
 2448DPPC   GL151063  20.389  -6.140  28.446  0.1792 -0.2300  0.0952
 2448DPPC   GL251064  20.846  -6.162  28.194  0.1466  0.0373  0.2878
 2448DPPC   C1A51065  20.240  -5.830  28.107  0.1552  0.1741 -0.0610
 2448DPPC   C2A51066  20.074  -5.342  27.901  0.0693 -0.1065  0.1630
 2448DPPC   C3A51067  19.831  -5.009  27.782  0.1739  0.1078  0.5119
 2448DPPC   C4A51068  19.946  -4.886  27.453 -0.0071  0.1514 -0.0445
 2448DPPC   C1B51069  20.720  -5.689  28.206  0.1619  0.0411  0.0125
 2448DPPC   C2B51070  20.463  -5.252  28.179  0.0770 -0.1480  0.2529
 2448DPPC   C3B51071  20.332  -4.883  27.946 -0.0536  0.3150 -0.1967
 2448DPPC   C4B51072  20.232  -4.520  27.620 -0.0928 -0.0577 -0.1511
 2449DPPC   NC351073  27.295  -0.866  20.382 -0.3365 -0.0906 -0.0109
 2449DPPC   PO451074  27.387  -0.894  20.831  0.2054  0.2202 -0.2546
 2449DPPC   GL151075  27.221  -0.602  21.023 -0.2492  0.2215 -0.0350
 2449DPPC   GL251076  27.344  -0.632  21.332 -0.0198  0.0740 -0.1187
 2449DPPC   C1A51077  26.863  -0.323  21.021 -0.4050  0.1281  0.3250
 2449DPPC   C2A51078  26.541  -0.097  21.011  0.0605 -0.0602  0.0365
 2449DPPC   C3A51079  26.192   0.075  21.297  0.2436 -0.1260  0.1358
 2449DPPC   C4A51080  25.950   0.144  21.534  0.1253 -0.0432 -0.1722
 2449DPPC   C1B51081  27.056  -0.361  21.700 -0.0635  0.1939 -0.3580
 2449DPPC   C2B51082  26.887  -0.192  22.016  0.0790 -0.1360  0.1245
 2449DPPC   C3B51083  26.575   0.043  22.107 -0.2565  0.2274 -0.1911
 2449DPPC   C4B51084  26.383   0.335  21.915  0.1789  0.0992  0.3440
 2450DPPC   NC351085  18.315  -1.653  13.795  0.3152  0.1572 -0.0404
 2450DPPC   PO451086  18.270  -1.326  13.449  0.2579 -0.1701  0.2320
 2450DPPC   GL151087  18.339  -1.088  13.114 -0.1790 -0.0765 -0.1287
 2450DPPC   GL251088  18.313  -1.372  12.912  0.3567 -0.0524  0.3427
 2450DPPC   C1A51089  18.369  -0.746  12.802  0.2024 -0.2704 -0.3120
 2450DPPC   C2A51090  18.673  -0.464  12.691  0.0643  0.0120 -0.0766
 2450DPPC   C3A51091  18.833  -0.349  12.449  0.0316  0.0915  0.0417
 2450DPPC   C4A51092  19.104  -0.317  12.123 -0.3112  0.0913  0.1442
 2450DPPC   C1B51093  18.056  -1.658  12.631  0.3759  0.1562 -0.0522
 2450DPPC   C2B51094  17.846  -2.119  12.620 -0.1370 -0.1562 -0.0315
 2450DPPC   C3B51095  17.985  -2.502  12.441 -0.3068 -0.1387 -0.2986
 2450DPPC   C4B51096  18.243  -2.292  12.203  0.2403 -0.1314 -0.0478
 2451DPPC   NC351097  13.019  -8.087  20.138 -0.0457 -0.0148  0.2868
 2451DPPC   PO451098  12.545  -7.832  20.101 -0.1572 -0.4199 -0.0469
 2451DPPC   GL151099  12.624  -7.433  20.086 -0.0207 -0.0669  0.0173
 2451DPPC   GL251100  12.984  -7.395  19.938 -0.0250 -0.3454  0.0036
 2451DPPC   C1A51101  12.484  -7.104  20.273 -0.1125  0.1000  0.2207
 2451DPPC   C2A51102  12.480  -6.756  20.524  0.0502 -0.3799  0.1354
 2451DPPC   C3A51103  12.503  -6.525  20.884  0.0925 -0.0604  0.0506
 2451DPPC   C4A51104  12.666  -6.098  20.992  0.0530 -0.0026  0.0403
 2451DPPC   C1B51105  13.300  -7.352  19.672  0.4518 -0.0136 -0.2827
 2451DPPC   C2B51106  13.735  -7.232  19.702  0.1867 -0.1805  0.1328
 2451DPPC   C3B51107  13.962  -6.905  19.960  0.1536  0.2299  0.0059
 2451DPPC   C4B51108  14.315  -6.751  20.232 -0.2574 -0.1771  0.0967
 2452DPPC   NC351109  22.074  -6.202  11.197  0.0442 -0.0337 -0.1181
 2452DPPC   PO451110  22.207  -5.993  11.611  0.1587  0.5469 -0.5956
 2452DPPC   GL151111  22.146  -5.649  11.892  0.0023  0.2384  0.4098
 2452DPPC   GL251112  22.348  -5.527  12.039 -0.1234  0.1322 -0.0532
 2452DPPC   C1A51113  21.950  -5.553  12.361  0.1054 -0.3248 -0.2360
 2452DPPC   C2A51114  21.860  -5.513  12.837 -0.1206  0.0136 -0.1097
 2452DPPC   C3A51115  21.416  -5.330  12.998 -0.1354 -0.0325  0.0795
 2452DPPC   C4A51116  21.001  -5.351  13.286  0.1231  0.1471  0.2315
 2452DPPC   C1B51117  22.460  -5.553  12.409  0.1507 -0.0250 -0.1571
 2452DPPC   C2B51118  22.371  -5.597  12.843 -0.1826 -0.0302 -0.0043
 2452DPPC   C3B51119  22.364  -5.432  13.263 -0.0890 -0.0821 -0.1297
 2452DPPC   C4B51120  22.260  -5.572  13.735 -0.1078  0.2388 -0.2647
 2453DPPC   NC351121   9.672  -2.092  34.184  0.0511  0.2225  0.0461
 2453DPPC   PO451122   9.834  -2.364  33.817  0.0061 -0.2032  0.2052
 2453DPPC   GL151123  10.105  -2.243  33.481  0.1985 -0.0831  0.2216
 2453DPPC   GL251124  10.196  -2.021  33.759  0.4724 -0.0604 -0.1542
 2453DPPC   C1A51125  10.325  -1.888  33.219  0.0765 -0.1835 -0.2324
 2453DPPC   C2A51126  10.221  -1.432  33.139 -0.1979 -0.4427  0.1560
 2453DPPC   C3A51127  10.315  -0.975  33.000  0.0126 -0.3160 -0.1621
 2453DPPC   C4A51128  10.139  -0.795  32.641 -0.2317 -0.2138  0.2943
 2453DPPC   C1B51129  10.091  -1.663  33.668  0.1586 -0.1748 -0.0608
 2453DPPC   C2B51130   9.847  -1.476  33.441 -0.3439  0.0063  0.2470
 2453DPPC   C3B51131   9.840  -1.102  33.231  0.2593 -0.1268  0.3988
 2453DPPC   C4B51132   9.747  -0.714  32.926 -0.1987 -0.2276  0.0350
 2454DPPC   NC351133  23.384   4.570  13.412 -0.3042  0.4595  0.0274
 2454DPPC   PO451134  23.402   4.290  13.757 -0.0736 -0.0359 -0.3174
 2454DPPC   GL151135  23.061   4.147  14.055  0.2433  0.1717 -0.0409
 2454DPPC   GL251136  22.892   4.287  14.223 -0.1483  0.0494 -0.3158
 2454DPPC   C1A51137  22.740   3.821  13.990  0.0878  0.0457 -0.0550
 2454DPPC   C2A51138  22.796   3.537  14.362  0.2175  0.3244 -0.0939
 2454DPPC   C3A51139  22.526   3.332  14.676  0.2175  0.2709 -0.1347
 2454DPPC   C4A51140  22.179   3.003  14.672 -0.0355 -0.1995 -0.1014
 2454DPPC   C1B51141  22.662   4.008  14.525 -0.3155  0.1358  0.3829
 2454DPPC   C2B51142  22.668   3.950  14.996  0.0367 -0.3574  0.1669
 2454DPPC   C3B51143  22.712   3.808  15.334  0.0278  0.2645 -0.2596
 2454DPPC   C4B51144  22.574   3.557  15.767 -0.1270  0.0940 -0.0279
 2455DPPC   NC351145  22.804  -4.797  18.427 -0.0689 -0.5750 -0.0492
 2455DPPC   PO451146  22.539  -5.160  18.213 -0.2160  0.1633 -0.1022
 2455DPPC   GL151147  22.679  -5.374  18.409  0.1570 -0.3292  0.0513
 2455DPPC   GL251148  23.062  -5.205  18.283 -0.0219  0.0893 -0.2470
 2455DPPC   C1A51149  22.879  -5.681  18.731  0.0463  0.0735  0.1213
 2455DPPC   C2A51150  22.854  -6.099  18.933  0.1954  0.0797 -0.1333
 2455DPPC   C3A51151  22.885  -6.520  18.785  0.1861  0.0383  0.1930
 2455DPPC   C4A51152  23.099  -6.801  18.989  0.2675 -0.2444  0.2916
 2455DPPC   C1B51153  23.229  -5.591  18.049  0.1384  0.2261  0.2113
 2455DPPC   C2B51154  23.497  -5.915  18.017  0.0445 -0.0508  0.3043
 2455DPPC   C3B51155  23.532  -6.119  18.310 -0.1205 -0.1515  0.1826
 2455DPPC   C4B51156  23.134  -6.138  18.496  0.2718  0.1890 -0.1764
 2456DPPC   NC351157   7.455   2.253  15.038 -0.2319 -0.0175  0.0162
 2456DPPC   PO451158   7.654   1.933  15.376  0.1151 -0.0696 -0.0084
 2456DPPC   GL151159   7.768   1.717  15.773  0.1598  0.3878 -0.2566
 2456DPPC   GL251160   7.676   1.788  15.992 -0.1304  0.1745  0.1622
 2456DPPC   C1A51161   8.091   1.534  15.929 -0.2865 -0.1453 -0.0646
 2456DPPC   C2A51162   8.331   1.458  16.318 -0.0713 -0.1675 -0.0044
 2456DPPC   C3A51163   8.289   1.402  16.720  0.2594  0.1012  0.1053
 2456DPPC   C4A51164   8.324   1.141  17.141 -0.3134  0.1499 -0.2414
 2456DPPC   C1B51165   7.804   1.627  16.369  0.2835  0.3171  0.0773
 2456DPPC   C2B51166   8.039   1.807  16.775 -0.0722  0.0224  0.1481
 2456DPPC   C3B51167   8.408   1.674  17.172  0.0363 -0.1440 -0.0042
 2456DPPC   C4B51168   8.522   1.471  17.489 -0.2742 -0.1290  0.1648
 2457DPPC   NC351169   8.501  14.641  26.386 -0.1912 -0.0904  0.0979
 2457DPPC   PO451170   8.680  14.780  26.093  0.1948 -0.0639 -0.0774
 2457DPPC   GL151171   9.077  14.551  26.105  0.0915 -0.0283 -0.0809
 2457DPPC   GL251172   8.888  14.321  26.299  0.0244  0.1634 -0.0147
 2457DPPC   C1A51173   9.365  14.220  26.119 -0.2318  0.2037 -0.0069
 2457DPPC   C2A51174   9.591  13.791  26.233 -0.2197  0.2456 -0.0899
 2457DPPC   C3A51175   9.807  13.409  26.427  0.0278  0.2292 -0.3015
 2457DPPC   C4A51176   9.784  13.205  26.759 -0.0179 -0.1570  0.3624
 2457DPPC   C1B51177   8.872  14.004  26.468  0.4637  0.2774  0.0142
 2457DPPC   C2B51178   8.800  13.540  26.447 -0.0263 -0.1802  0.0481
 2457DPPC   C3B51179   8.793  13.153  26.152  0.0281  0.0017 -0.3220
 2457DPPC   C4B51180   8.751  12.859  25.782  0.0392  0.0377 -0.1091
 2458DPPC   NC351181  10.673  -1.314  13.830  0.1659  0.2771 -0.2619
 2458DPPC   PO451182  11.146  -1.140  13.773  0.2704 -0.0155  0.1181
 2458DPPC   GL151183  11.104  -0.662  13.921  0.0180  0.0668 -0.1941
 2458DPPC   GL251184  11.157  -0.559  13.689  0.0316  0.1333  0.0627
 2458DPPC   C1A51185  11.163  -0.694  14.400  0.0848 -0.2476  0.0821
 2458DPPC   C2A51186  11.471  -0.605  14.684  0.1148 -0.1156 -0.1928
 2458DPPC   C3A51187  11.718  -0.445  15.056  0.1371 -0.0467 -0.0950
 2458DPPC   C4A51188  12.227  -0.416  15.187  0.1436 -0.2465 -0.0367
 2458DPPC   C1B51189  11.095  -0.205  14.034 -0.1990 -0.1725 -0.1668
 2458DPPC   C2B51190  11.483   0.146  14.038  0.2542 -0.1502  0.0490
 2458DPPC   C3B51191  11.355   0.467  13.776 -0.0685  0.0416  0.1592
 2458DPPC   C4B51192  11.211   0.795  13.925 -0.1773  0.2302  0.2980
 2459DPPC   NC351193  10.934  -6.807  29.268  0.0193 -0.0848  0.0296
 2459DPPC   PO451194  11.037  -6.925  28.781 -0.1679  0.0080 -0.1028
 2459DPPC   GL151195  10.997  -6.382  28.765  0.1105 -0.1134 -0.1316
 2459DPPC   GL251196  10.736  -6.103  28.675  0.1513 -0.0831  0.1592
 2459DPPC   C1A51197  11.229  -5.961  28.654 -0.2543 -0.1765  0.1829
 2459DPPC   C2A51198  11.154  -5.593  28.359 -0.3460  0.2055  0.3183
 2459DPPC   C3A51199  11.388  -5.298  28.075 -0.2951 -0.1572  0.3768
 2459DPPC   C4A51200  11.622  -5.007  27.838  0.1799 -0.1015 -0.1085
 2459DPPC   C1B51201  10.761  -5.568  28.616  0.1412  0.0161  0.0292
 2459DPPC   C2B51202  11.080  -5.155  28.632  0.2336 -0.0853  0.1037
 2459DPPC   C3B51203  11.165  -4.782  28.872 -0.0376 -0.0949  0.0531
 2459DPPC   C4B51204  10.999  -4.410  29.016  0.3525 -0.0795 -0.2161
 2460DPPC   NC351205   4.367   3.862  31.970 -0.0168 -0.2831 -0.3980
 2460DPPC   PO451206   4.699   4.090  31.864 -0.0685 -0.0749 -0.3296
 2460DPPC   GL151207   5.021   4.045  31.629 -0.1141 -0.1786 -0.1394
 2460DPPC   GL251208   5.292   4.268  31.751 -0.0581  0.0845 -0.1005
 2460DPPC   C1A51209   5.227   4.024  31.216  0.0810  0.0479 -0.1956
 2460DPPC   C2A51210   5.682   4.004  31.051  0.2369 -0.3106  0.2010
 2460DPPC   C3A51211   6.015   3.857  31.299  0.0866 -0.0047  0.4439
 2460DPPC   C4A51212   6.036   3.643  31.689  0.1597  0.0776  0.1150
 2460DPPC   C1B51213   5.560   4.662  31.631 -0.2628  0.0287 -0.1046
 2460DPPC   C2B51214   5.821   4.653  32.014  0.0113 -0.3456 -0.0108
 2460DPPC   C3B51215   6.024   4.824  32.201  0.0824  0.2725 -0.2153
 2460DPPC   C4B51216   6.424   4.831  32.414 -0.0053 -0.0297  0.0229
 2461DPPC   NC351217  12.666  -4.242  20.920 -0.1036  0.4183  0.0685
 2461DPPC   PO451218  12.988  -4.196  21.247  0.1428 -0.3075  0.1150
 2461DPPC   GL151219  12.933  -4.548  21.254  0.1948 -0.2037  0.1903
 2461DPPC   GL251220  12.980  -4.593  21.633 -0.1407  0.1806  0.2629
 2461DPPC   C1A51221  12.739  -4.927  21.093  0.1985  0.0281 -0.0797
 2461DPPC   C2A51222  12.633  -5.051  20.736  0.3753  0.0878 -0.0802
 2461DPPC   C3A51223  12.556  -5.408  20.493 -0.0934  0.1303  0.0235
 2461DPPC   C4A51224  12.663  -5.803  20.392  0.2659 -0.0127  0.0605
 2461DPPC   C1B51225  13.029  -5.020  21.471  0.2656  0.1162  0.0694
 2461DPPC   C2B51226  12.787  -5.412  21.354  0.1913  0.0684  0.0307
 2461DPPC   C3B51227  12.855  -5.585  20.939 -0.1535 -0.2002 -0.1753
 2461DPPC   C4B51228  13.108  -5.758  20.710 -0.2458 -0.0586  0.1242
 2462DPPC   NC351229  11.084   0.050  36.398 -0.0326  0.0227 -0.2636
 2462DPPC   PO451230  11.097   0.450  36.567 -0.1461  0.1782  0.3523
 2462DPPC   GL151231  11.183   0.477  36.125 -0.0474  0.1440  0.2922
 2462DPPC   GL251232  11.252   0.822  36.165 -0.4153  0.1994  0.1211
 2462DPPC   C1A51233  11.344   0.572  35.744 -0.0123  0.3090  0.0453
 2462DPPC   C2A51234  11.419   0.781  35.369  0.2909  0.0929  0.3135
 2462DPPC   C3A51235  11.653   0.591  34.993  0.0631 -0.1407 -0.1264
 2462DPPC   C4A51236  11.657   0.201  34.858  0.0143  0.1524 -0.3091
 2462DPPC   C1B51237  11.313   1.180  35.954 -0.0979  0.1055  0.3179
 2462DPPC   C2B51238  11.356   1.244  35.530  0.0095  0.3270  0.0530
 2462DPPC   C3B51239  11.681   1.551  35.368  0.4261 -0.1633 -0.0705
 2462DPPC   C4B51240  11.848   1.551  35.037 -0.0241 -0.4826  0.0735
 2463DPPC   NC351241  22.587  -4.042  15.535  0.2587 -0.0906 -0.2781
 2463DPPC   PO451242  22.264  -4.315  15.109  0.1286 -0.1198  0.0572
 2463DPPC   GL151243  22.629  -4.301  14.916  0.2154 -0.1098  0.0897
 2463DPPC   GL251244  22.791  -3.971  14.870  0.3128  0.0104  0.1451
 2463DPPC   C1A51245  22.976  -4.407  14.686 -0.0190  0.1784 -0.3151
 2463DPPC   C2A51246  23.313  -4.201  14.440 -0.6183  0.4297  0.0813
 2463DPPC   C3A51247  23.452  -3.781  14.284 -0.2166 -0.0612 -0.0980
 2463DPPC   C4A51248  23.641  -3.672  13.900 -0.0139 -0.3446  0.1056
 2463DPPC   C1B51249  23.030  -3.790  14.516 -0.1120  0.1497 -0.2284
 2463DPPC   C2B51250  23.370  -3.295  14.485 -0.2122 -0.1275  0.1550
 2463DPPC   C3B51251  23.588  -3.069  14.177 -0.1486 -0.1985 -0.3099
 2463DPPC   C4B51252  23.890  -3.001  13.911 -0.0944  0.1991  0.1637
 2464DPPC   NC351253  20.554  -5.278  18.675 -0.0487  0.2568  0.1134
 2464DPPC   PO451254  20.866  -5.675  18.519  0.0432 -0.0093 -0.1843
 2464DPPC   GL151255  21.135  -6.007  18.446 -0.1666  0.0677  0.0964
 2464DPPC   GL251256  21.164  -6.020  18.101 -0.1143 -0.4896 -0.2389
 2464DPPC   C1A51257  21.207  -6.382  18.470 -0.1887 -0.1120  0.2441
 2464DPPC   C2A51258  21.456  -6.611  18.818 -0.0174 -0.0288  0.2187
 2464DPPC   C3A51259  21.466  -6.978  19.133  0.0417  0.2894 -0.0031
 2464DPPC   C4A51260  21.521  -7.437  19.335 -0.1612 -0.0998  0.1423
 2464DPPC   C1B51261  21.312  -6.532  18.014 -0.1179 -0.1375  0.0126
 2464DPPC   C2B51262  21.589  -6.852  17.808  0.1907 -0.0079  0.0275
 2464DPPC   C3B51263  21.888  -7.070  17.488 -0.1459 -0.0461 -0.1917
 2464DPPC   C4B51264  22.122  -7.375  17.253 -0.1451 -0.0932 -0.1506
 2465DPPC   NC351265  21.016  -0.754  16.088  0.4003  0.0777  0.2890
 2465DPPC   PO451266  20.557  -0.564  16.036  0.1546  0.3258  0.0486
 2465DPPC   GL151267  20.576  -0.506  16.484  0.1287  0.0024  0.0518
 2465DPPC   GL251268  20.392  -0.249  16.450  0.0620 -0.0425  0.0063
 2465DPPC   C1A51269  20.394  -0.242  16.978 -0.1322 -0.0969  0.2953
 2465DPPC   C2A51270  20.170  -0.156  17.452  0.3566 -0.1461 -0.0155
 2465DPPC   C3A51271  20.042   0.218  17.738 -0.2428  0.0122  0.0004
 2465DPPC   C4A51272  19.980   0.588  17.967  0.1219 -0.2066  0.0470
 2465DPPC   C1B51273  20.338   0.162  16.591  0.2659 -0.1311 -0.0651
 2465DPPC   C2B51274  20.623   0.464  16.666 -0.2140 -0.1370  0.0721
 2465DPPC   C3B51275  20.680   0.831  16.612 -0.2492  0.2665  0.1194
 2465DPPC   C4B51276  20.569   1.248  16.734 -0.4865 -0.3501 -0.1985
 2466DPPC   NC351277   3.838  -0.804  20.978  0.2385  0.2454  0.0751
 2466DPPC   PO451278   4.154  -0.931  21.197 -0.2452  0.0920 -0.0082
 2466DPPC   GL151279   4.614  -0.898  21.188 -0.0094  0.0286 -0.2342
 2466DPPC   GL251280   4.653  -0.614  21.015 -0.0958 -0.2934 -0.0918
 2466DPPC   C1A51281   4.896  -0.792  21.464  0.1453 -0.0426 -0.0933
 2466DPPC   C2A51282   5.295  -0.628  21.569 -0.0532  0.0888 -0.0578
 2466DPPC   C3A51283   5.489  -0.219  21.555 -0.0037 -0.1430 -0.0394
 2466DPPC   C4A51284   5.742  -0.011  21.895  0.2626  0.0558 -0.0089
 2466DPPC   C1B51285   5.074  -0.466  21.122  0.0668  0.1076 -0.2122
 2466DPPC   C2B51286   5.510  -0.219  21.092  0.0350  0.0872 -0.0696
 2466DPPC   C3B51287   5.969  -0.128  21.143  0.0052 -0.0356 -0.0133
 2466DPPC   C4B51288   6.344   0.210  21.193 -0.3595 -0.1572 -0.3696
 2467DPPC   NC351289  17.674  -5.884  15.914 -0.1539 -0.2181 -0.1066
 2467DPPC   PO451290  18.115  -5.627  15.757  0.1436 -0.3278 -0.4010
 2467DPPC   GL151291  18.019  -6.068  15.524 -0.0859  0.1326 -0.1743
 2467DPPC   GL251292  17.856  -6.239  15.621 -0.2661  0.0180 -0.0721
 2467DPPC   C1A51293  18.082  -6.264  15.144  0.1409 -0.3647 -0.0162
 2467DPPC   C2A51294  18.211  -6.660  15.166  0.2014  0.2726 -0.3840
 2467DPPC   C3A51295  18.337  -6.997  15.391 -0.0369  0.3124 -0.4049
 2467DPPC   C4A51296  18.191  -7.363  15.213 -0.1157  0.3659  0.2347
 2467DPPC   C1B51297  17.629  -6.458  15.263  0.4731  0.4600 -0.2174
 2467DPPC   C2B51298  17.389  -6.575  14.875 -0.1514 -0.0404 -0.2679
 2467DPPC   C3B51299  17.231  -6.974  14.987  0.1161 -0.1835 -0.0791
 2467DPPC   C4B51300  16.836  -7.085  15.102 -0.2007 -0.3334  0.0433
 2468DPPC   NC351301  25.990  -3.518  27.280 -0.1619  0.0054 -0.0848
 2468DPPC   PO451302  26.193  -3.056  27.298 -0.1000  0.4515  0.1678
 2468DPPC   GL151303  26.108  -2.621  27.258  0.1375  0.1009  0.0384
 2468DPPC   GL251304  26.221  -2.454  27.618  0.2130 -0.2096  0.0285
 2468DPPC   C1A51305  26.050  -2.270  27.022  0.0422 -0.3724  0.1354
 2468DPPC   C2A51306  25.691  -2.028  27.058  0.1738  0.3101 -0.2168
 2468DPPC   C3A51307  25.378  -1.805  26.875  0.0042 -0.0358 -0.1545
 2468DPPC   C4A51308  24.993  -1.644  27.142 -0.2339  0.0080 -0.0645
 2468DPPC   C1B51309  25.797  -2.359  27.521 -0.0085  0.4324 -0.1261
 2468DPPC   C2B51310  25.403  -2.223  27.456 -0.1469  0.1276 -0.1764
 2468DPPC   C3B51311  25.065  -2.145  27.185  0.2248 -0.1790  0.5813
 2468DPPC   C4B51312  24.655  -1.959  26.994  0.0817  0.2589  0.1921
 2469DPPC   NC351313  20.414  -3.022  33.674  0.0794  0.1934 -0.1805
 2469DPPC   PO451314  20.532  -2.944  34.163  0.1276 -0.0663 -0.0731
 2469DPPC   GL151315  20.381  -2.592  33.888 -0.1997 -0.1195 -0.2724
 2469DPPC   GL251316  20.541  -2.552  33.600 -0.0912  0.0675 -0.0378
 2469DPPC   C1A51317  20.508  -2.148  33.878 -0.0802 -0.5340  0.1036
 2469DPPC   C2A51318  20.628  -1.735  33.565 -0.2717 -0.2902 -0.0357
 2469DPPC   C3A51319  20.694  -1.651  33.128 -0.0194  0.0620 -0.1797
 2469DPPC   C4A51320  20.919  -1.728  32.720 -0.0442  0.0707 -0.0989
 2469DPPC   C1B51321  20.548  -2.237  33.311  0.2302  0.0490  0.1280
 2469DPPC   C2B51322  20.586  -2.077  32.872  0.0798 -0.0455  0.1365
 2469DPPC   C3B51323  20.396  -1.855  32.556 -0.2255 -0.3364  0.1825
 2469DPPC   C4B51324  20.290  -1.947  32.109 -0.2132  0.0456  0.2912
 2470DPPC   NC351325  14.450  11.194  15.534  0.1699 -0.1174 -0.0447
 2470DPPC   PO451326  14.819  10.958  15.406  0.0869 -0.1524  0.0481
 2470DPPC   GL151327  14.635  10.576  15.465 -0.2080 -0.4296 -0.5596
 2470DPPC   GL251328  14.867  10.437  15.218  0.1591 -0.0946  0.0085
 2470DPPC   C1A51329  14.669  10.289  15.635  0.1145  0.0678 -0.0952
 2470DPPC   C2A51330  14.719  10.304  15.936 -0.1654 -0.0312 -0.1957
 2470DPPC   C3A51331  14.769  10.175  16.489  0.2521 -0.0501  0.2449
 2470DPPC   C4A51332  14.740  10.017  16.897  0.0809  0.0405  0.0922
 2470DPPC   C1B51333  15.182  10.137  15.383 -0.0178 -0.2603 -0.1665
 2470DPPC   C2B51334  15.414   9.960  15.735 -0.1429  0.1228  0.0995
 2470DPPC   C3B51335  15.474   9.651  16.041 -0.1206  0.1258 -0.2824
 2470DPPC   C4B51336  15.621   9.320  16.134 -0.2981 -0.0795 -0.0618
 2471DPPC   NC351337  13.136  -6.770  16.954  0.1398  0.1542  0.0117
 2471DPPC   PO451338  13.482  -7.017  16.848  0.1706 -0.0255  0.2619
 2471DPPC   GL151339  13.601  -6.584  16.660 -0.1202  0.1062 -0.2708
 2471DPPC   GL251340  13.365  -6.341  16.693  0.3904 -0.1413 -0.3865
 2471DPPC   C1A51341  14.012  -6.406  16.646  0.0957 -0.2004 -0.1644
 2471DPPC   C2A51342  14.387  -6.233  16.471 -0.0934 -0.3131 -0.2524
 2471DPPC   C3A51343  14.840  -5.956  16.554  0.1733  0.0405 -0.4247
 2471DPPC   C4A51344  15.134  -5.704  16.508 -0.0390 -0.1200 -0.1686
 2471DPPC   C1B51345  13.680  -6.220  16.954 -0.1728 -0.3170 -0.0388
 2471DPPC   C2B51346  13.722  -5.791  17.130 -0.0277 -0.3875  0.1029
 2471DPPC   C3B51347  13.616  -5.488  17.229 -0.2727 -0.0778 -0.0220
 2471DPPC   C4B51348  13.680  -5.446  17.588  0.0082 -0.3135  0.2398
 2472DPPC   NC351349  25.163   6.492  15.981 -0.0403 -0.1605  0.2010
 2472DPPC   PO451350  25.105   6.675  16.430  0.0304 -0.0320 -0.1814
 2472DPPC   GL151351  24.757   6.601  16.579 -0.0377 -0.3176 -0.0280
 2472DPPC   GL251352  24.637   6.344  16.424  0.0510  0.0198  0.0849
 2472DPPC   C1A51353  24.583   6.678  16.973 -0.0203  0.0741 -0.1040
 2472DPPC   C2A51354  24.253   6.773  17.238  0.0441 -0.0696 -0.2692
 2472DPPC   C3A51355  23.787   6.841  17.304 -0.2025 -0.0042  0.2428
 2472DPPC   C4A51356  23.353   6.908  17.378 -0.0882  0.0784  0.0860
 2472DPPC   C1B51357  24.717   5.840  16.476  0.0061 -0.1114  0.0301
 2472DPPC   C2B51358  24.488   5.475  16.550  0.0533 -0.1129  0.3076
 2472DPPC   C3B51359  24.010   5.478  16.642  0.0330 -0.0061 -0.5641
 2472DPPC   C4B51360  23.725   5.425  17.038 -0.2373  0.0370  0.2944
 2473DPPC   NC351361  19.312  15.031  20.958  0.0990 -0.1788 -0.1932
 2473DPPC   PO451362  18.923  15.007  20.931 -0.0056  0.0411  0.0274
 2473DPPC   GL151363  18.877  14.740  21.275  0.1790  0.1125  0.0562
 2473DPPC   GL251364  18.700  14.691  21.421 -0.4034  0.1642 -0.1320
 2473DPPC   C1A51365  18.810  14.257  21.658  0.1527  0.2714  0.0046
 2473DPPC   C2A51366  19.109  13.873  21.852 -0.1017 -0.0936  0.5346
 2473DPPC   C3A51367  19.067  13.493  22.113 -0.3114 -0.0534  0.1438
 2473DPPC   C4A51368  18.805  13.196  22.266  0.2738  0.3059  0.1873
 2473DPPC   C1B51369  18.390  14.528  21.753  0.1835 -0.1495 -0.2846
 2473DPPC   C2B51370  18.192  14.153  21.984 -0.1995 -0.1252 -0.1349
 2473DPPC   C3B51371  18.134  13.958  22.321  0.0868 -0.0828  0.1690
 2473DPPC   C4B51372  17.889  13.743  22.700  0.0191  0.2817  0.3073
 2474DPPC   NC351373  18.351  -5.060  32.613 -0.1396 -0.1027  0.0905
 2474DPPC   PO451374  18.044  -4.999  32.885  0.0918 -0.1389  0.0772
 2474DPPC   GL151375  17.880  -4.606  32.748 -0.1168 -0.3510 -0.2140
 2474DPPC   GL251376  17.637  -4.640  32.500  0.0386 -0.1717 -0.0920
 2474DPPC   C1A51377  17.967  -4.190  32.549 -0.0604  0.0159  0.0422
 2474DPPC   C2A51378  17.648  -3.881  32.413  0.0058  0.0354 -0.1685
 2474DPPC   C3A51379  17.275  -3.696  32.501 -0.2513  0.2299  0.2128
 2474DPPC   C4A51380  16.845  -3.533  32.617 -0.1164  0.0199  0.0079
 2474DPPC   C1B51381  17.545  -4.419  32.261  0.1037 -0.3298  0.0052
 2474DPPC   C2B51382  17.476  -4.162  31.915 -0.1345 -0.0174  0.3100
 2474DPPC   C3B51383  17.091  -3.962  31.771 -0.0228 -0.2076 -0.1295
 2474DPPC   C4B51384  16.885  -3.988  31.421  0.2531 -0.2627  0.0027
 2475DPPC   NC351385  13.014  -5.359  15.343 -0.0481 -0.0028  0.1062
 2475DPPC   PO451386  12.998  -5.488  15.772 -0.0432  0.4243 -0.0378
 2475DPPC   GL151387  12.911  -5.238  16.075 -0.2332 -0.0865 -0.4801
 2475DPPC   GL251388  12.552  -5.311  16.177 -0.2800 -0.1980 -0.0049
 2475DPPC   C1A51389  13.116  -5.072  16.469  0.1149 -0.0513  0.5201
 2475DPPC   C2A51390  13.435  -4.959  16.663  0.1874  0.1129 -0.1364
 2475DPPC   C3A51391  13.620  -4.635  16.899  0.1493 -0.2471  0.3696
 2475DPPC   C4A51392  13.503  -4.314  17.269 -0.2127  0.1010 -0.0628
 2475DPPC   C1B51393  12.651  -5.145  16.510  0.0544  0.1888 -0.0223
 2475DPPC   C2B51394  12.785  -5.057  16.836  0.2023 -0.1658 -0.1409
 2475DPPC   C3B51395  12.755  -4.679  16.967 -0.0000 -0.1335  0.1108
 2475DPPC   C4B51396  13.062  -4.582  17.229 -0.0504 -0.2470  0.2170
 2476DPPC   NC351397  24.497  13.481  25.343 -0.0958 -0.2699  0.1557
 2476DPPC   PO451398  24.095  13.355  25.124  0.3436 -0.4556  0.1033
 2476DPPC   GL151399  23.768  13.168  25.267  0.2444 -0.0323  0.0607
 2476DPPC   GL251400  23.468  13.320  25.151  0.1197  0.1529 -0.1707
 2476DPPC   C1A51401  23.877  12.845  25.487 -0.1153  0.0272 -0.1782
 2476DPPC   C2A51402  23.852  12.497  25.841  0.1825 -0.0552 -0.0666
 2476DPPC   C3A51403  23.807  12.106  25.988 -0.1310 -0.1585 -0.1176
 2476DPPC   C4A51404  23.879  11.631  25.904 -0.2338 -0.1501 -0.0155
 2476DPPC   C1B51405  23.364  12.826  25.249  0.0025 -0.0121  0.0210
 2476DPPC   C2B51406  23.248  12.387  25.059  0.2387  0.1727  0.0360
 2476DPPC   C3B51407  22.814  12.161  25.097 -0.1874 -0.1230 -0.1378
 2476DPPC   C4B51408  22.615  11.818  25.201 -0.1755  0.1576  0.1369
 2477DPPC   NC351409  23.154  14.091  22.174  0.2097 -0.1817 -0.3762
 2477DPPC   PO451410  22.766  14.072  22.265 -0.0986 -0.2076  0.1249
 2477DPPC   GL151411  22.616  13.641  22.585  0.1622  0.0786  0.1569
 2477DPPC   GL251412  22.335  13.670  22.720 -0.2228  0.1156 -0.1526
 2477DPPC   C1A51413  22.686  13.249  22.603  0.1144 -0.3927 -0.2269
 2477DPPC   C2A51414  22.528  12.799  22.642  0.0523  0.1309  0.1512
 2477DPPC   C3A51415  22.523  12.373  22.572  0.3697  0.0975  0.2409
 2477DPPC   C4A51416  22.102  12.145  22.633  0.0124 -0.1901  0.1914
 2477DPPC   C1B51417  22.136  13.418  22.940 -0.2558 -0.1492 -0.0187
 2477DPPC   C2B51418  21.920  13.103  23.061 -0.0842 -0.2331 -0.1658
 2477DPPC   C3B51419  21.614  12.714  23.237  0.0658 -0.1601 -0.2200
 2477DPPC   C4B51420  21.290  12.399  23.298 -0.1382 -0.4787  0.1286
 2478DPPC   NC351421   6.171   1.321  33.072  0.1216  0.2310  0.2943
 2478DPPC   PO451422   5.960   1.017  32.828 -0.0486  0.0062 -0.1051
 2478DPPC   GL151423   6.346   1.023  32.681  0.1310  0.0024 -0.2128
 2478DPPC   GL251424   6.459   1.318  32.622 -0.3002  0.0189  0.4264
 2478DPPC   C1A51425   6.824   1.004  32.651 -0.2146 -0.0575  0.0612
 2478DPPC   C2A51426   7.155   0.852  32.414  0.1900  0.1074  0.0408
 2478DPPC   C3A51427   7.613   0.880  32.347  0.0141  0.0134  0.1147
 2478DPPC   C4A51428   8.132   0.971  32.355 -0.0098  0.1960  0.1816
 2478DPPC   C1B51429   6.414   1.711  32.308 -0.0635 -0.0685  0.0179
 2478DPPC   C2B51430   6.619   2.074  32.084  0.3523  0.1736  0.0362
 2478DPPC   C3B51431   6.647   2.213  31.668 -0.1820 -0.0700  0.0709
 2478DPPC   C4B51432   6.824   1.922  31.269  0.2345 -0.0761 -0.0931
 2479DPPC   NC351433  18.791  -7.475  29.240 -0.1343  0.1661 -0.1059
 2479DPPC   PO451434  18.864  -7.138  28.907 -0.1936 -0.0974 -0.2693
 2479DPPC   GL151435  18.710  -6.600  28.795 -0.0896  0.1261 -0.0383
 2479DPPC   GL251436  18.830  -6.678  29.136  0.0164 -0.3199 -0.0353
 2479DPPC   C1A51437  18.937  -6.218  28.838 -0.0369  0.2343 -0.0586
 2479DPPC   C2A51438  18.903  -5.905  28.621  0.2467  0.0009  0.0319
 2479DPPC   C3A51439  18.779  -5.505  28.282 -0.1936 -0.0484  0.2236
 2479DPPC   C4A51440  18.656  -5.068  28.091  0.0937 -0.0026  0.4510
 2479DPPC   C1B51441  18.407  -6.440  29.161 -0.0472  0.0320  0.5541
 2479DPPC   C2B51442  18.256  -6.215  28.871  0.0651  0.1181  0.1851
 2479DPPC   C3B51443  18.165  -5.835  28.744  0.0828  0.3835 -0.0518
 2479DPPC   C4B51444  17.888  -5.432  28.701 -0.2234  0.0332 -0.1252
 2480DPPC   NC351445  20.527  -5.424  15.295  0.0625 -0.1595 -0.0957
 2480DPPC   PO451446  20.603  -5.117  15.029 -0.3705 -0.2121 -0.2071
 2480DPPC   GL151447  20.697  -5.419  14.712 -0.0394 -0.0112 -0.2370
 2480DPPC   GL251448  20.908  -5.616  14.753 -0.1301 -0.2427 -0.1946
 2480DPPC   C1A51449  20.689  -5.520  14.310  0.1885 -0.3461 -0.0833
 2480DPPC   C2A51450  20.804  -5.803  13.985  0.4241  0.0963 -0.0139
 2480DPPC   C3A51451  21.077  -6.141  13.850 -0.0777  0.0977  0.0134
 2480DPPC   C4A51452  21.176  -6.525  13.587 -0.2938  0.2543  0.0256
 2480DPPC   C1B51453  21.207  -6.035  14.780 -0.0066 -0.0138 -0.4242
 2480DPPC   C2B51454  21.540  -6.191  14.673  0.0065 -0.0868  0.6229
 2480DPPC   C3B51455  21.682  -6.362  14.313 -0.2339  0.0722  0.1150
 2480DPPC   C4B51456  21.583  -6.454  13.938 -0.1481  0.4096 -0.1052
 2481DPPC   NC351457  18.883  -1.856  21.049  0.1387  0.0457 -0.1329
 2481DPPC   PO451458  18.658  -2.181  21.203  0.1968 -0.0717  0.2185
 2481DPPC   GL151459  18.763  -2.337  20.779  0.1051 -0.1577  0.0874
 2481DPPC   GL251460  18.655  -2.234  20.529  0.3596  0.0462 -0.0489
 2481DPPC   C1A51461  19.093  -2.480  20.477  0.1432 -0.0379 -0.0375
 2481DPPC   C2A51462  19.405  -2.668  20.261 -0.2631  0.0193  0.2347
 2481DPPC   C3A51463  19.345  -2.790  19.827 -0.1601  0.1112  0.0734
 2481DPPC   C4A51464  19.498  -2.685  19.440  0.2684  0.3321 -0.2064
 2481DPPC   C1B51465  18.474  -2.308  20.228 -0.0293 -0.3933 -0.0906
 2481DPPC   C2B51466  18.710  -2.512  19.874  0.0785 -0.0270  0.2330
 2481DPPC   C3B51467  18.976  -2.672  19.564  0.1394  0.4326  0.0265
 2481DPPC   C4B51468  19.003  -2.927  19.225 -0.3051 -0.3387  0.1295
 2482DPPC   NC351469  23.511  -3.132  16.516  0.2368  0.2236 -0.1216
 2482DPPC   PO451470  23.769  -2.798  16.350  0.1320  0.0830 -0.1769
 2482DPPC   GL151471  24.199  -2.736  16.198 -0.1226 -0.0168  0.5239
 2482DPPC   GL251472  24.329  -2.923  15.973  0.2248 -0.0136  0.1125
 2482DPPC   C1A51473  24.347  -2.478  16.291  0.2549 -0.1105 -0.0453
 2482DPPC   C2A51474  24.823  -2.228  16.321 -0.0515  0.0843  0.1547
 2482DPPC   C3A51475  25.232  -2.057  16.538  0.0289  0.0600  0.0851
 2482DPPC   C4A51476  25.179  -1.974  16.982 -0.2216 -0.1839 -0.1037
 2482DPPC   C1B51477  24.539  -3.300  16.125  0.1199  0.2279  0.0563
 2482DPPC   C2B51478  24.710  -3.313  16.452 -0.2688  0.0414 -0.5281
 2482DPPC   C3B51479  24.971  -3.555  16.674 -0.0776  0.2864 -0.0617
 2482DPPC   C4B51480  25.270  -3.841  16.806  0.1483 -0.2094  0.2961
 2483DPPC   NC351481  21.015   0.079  13.934  0.0036  0.2495 -0.1357
 2483DPPC   PO451482  21.464   0.246  14.039  0.1334  0.0306 -0.3146
 2483DPPC   GL151483  21.751   0.238  13.719  0.0807  0.1545  0.0327
 2483DPPC   GL251484  21.919  -0.064  13.719  0.1539  0.2977  0.0668
 2483DPPC   C1A51485  21.890   0.127  13.295  0.0193 -0.1685 -0.0634
 2483DPPC   C2A51486  21.951   0.093  12.848 -0.0104 -0.0804 -0.1623
 2483DPPC   C3A51487  22.034   0.029  12.494  0.2556 -0.4103 -0.2123
 2483DPPC   C4A51488  21.846  -0.067  12.171 -0.1776 -0.0872  0.0321
 2483DPPC   C1B51489  22.143  -0.279  13.343 -0.1484 -0.4373 -0.1531
 2483DPPC   C2B51490  22.117  -0.392  12.937  0.4407 -0.1328 -0.0885
 2483DPPC   C3B51491  22.271  -0.387  12.503  0.0373  0.0945  0.1363
 2483DPPC   C4B51492  22.199  -0.356  12.019 -0.4699  0.1288  0.4974
 2484DPPC   NC351493  22.583  -4.385  16.672 -0.0342 -0.1139 -0.1215
 2484DPPC   PO451494  22.823  -4.729  16.776  0.1004 -0.0145  0.2572
 2484DPPC   GL151495  23.161  -4.905  16.897  0.3648  0.0408 -0.1156
 2484DPPC   GL251496  23.243  -5.097  17.239  0.0146 -0.0935  0.4029
 2484DPPC   C1A51497  23.586  -4.854  16.903  0.1792 -0.1956  0.1696
 2484DPPC   C2A51498  23.839  -4.561  16.859  0.1484 -0.4243 -0.2870
 2484DPPC   C3A51499  24.014  -4.175  16.625  0.0792 -0.1161  0.0591
 2484DPPC   C4A51500  24.358  -4.204  16.460  0.2569  0.3271 -0.0771
 2484DPPC   C1B51501  23.092  -5.515  17.548 -0.0159 -0.0541 -0.0685
 2484DPPC   C2B51502  23.141  -5.928  17.578 -0.1161 -0.1719 -0.1256
 2484DPPC   C3B51503  23.369  -6.331  17.808 -0.2072 -0.0379 -0.0515
 2484DPPC   C4B51504  23.385  -6.845  17.774  0.0559  0.0670 -0.0368
 2485DPPC   NC351505  23.111  -3.863  31.049 -0.1491 -0.1985 -0.1622
 2485DPPC   PO451506  22.711  -4.124  31.111  0.0649  0.4014 -0.4719
 2485DPPC   GL151507  22.694  -3.593  31.088  0.1985 -0.0972 -0.1263
 2485DPPC   GL251508  22.974  -3.332  31.090 -0.2389 -0.2793  0.2031
 2485DPPC   C1A51509  22.399  -3.319  30.806  0.0461  0.2317 -0.0900
 2485DPPC   C2A51510  22.070  -3.396  30.482  0.1253  0.1470 -0.0788
 2485DPPC   C3A51511  21.992  -3.067  30.232 -0.0695 -0.1725  0.3382
 2485DPPC   C4A51512  21.798  -2.949  30.025  0.1613 -0.3516  0.2911
 2485DPPC   C1B51513  22.869  -3.189  30.697 -0.0535 -0.4461 -0.0428
 2485DPPC   C2B51514  22.825  -2.994  30.238  0.0309  0.0407 -0.1712
 2485DPPC   C3B51515  22.612  -2.654  30.007 -0.1106  0.1303  0.1785
 2485DPPC   C4B51516  22.461  -2.208  29.708  0.0329  0.1462 -0.3432
 2486DPPC   NC351517  13.641  -5.256  13.976 -0.2884  0.1744 -0.1525
 2486DPPC   PO451518  13.697  -5.048  14.308  0.1592  0.1323  0.0570
 2486DPPC   GL151519  14.055  -5.063  14.492  0.1990  0.0723 -0.0299
 2486DPPC   GL251520  14.193  -5.424  14.584  0.0353 -0.0273  0.2859
 2486DPPC   C1A51521  14.420  -4.761  14.422  0.1491  0.0051 -0.2898
 2486DPPC   C2A51522  14.669  -4.452  14.611  0.0134 -0.2836 -0.1343
 2486DPPC   C3A51523  14.909  -3.991  14.561 -0.1482  0.1416  0.1272
 2486DPPC   C4A51524  15.268  -3.872  14.663  0.2712  0.0302 -0.2073
 2486DPPC   C1B51525  14.420  -5.076  14.805  0.0389 -0.1455 -0.0331
 2486DPPC   C2B51526  14.745  -4.682  14.977 -0.0094  0.3565  0.1127
 2486DPPC   C3B51527  15.149  -4.254  14.968  0.3363  0.2012 -0.1275
 2486DPPC   C4B51528  15.367  -4.034  15.200  0.0824 -0.1779 -0.2545
 2487DPPC   NC351529  23.167  -2.215  15.269  0.0338  0.2593  0.0559
 2487DPPC   PO451530  23.397  -1.882  15.342 -0.4454 -0.3016  0.1740
 2487DPPC   GL151531  23.794  -1.885  15.135 -0.3515  0.0882 -0.0485
 2487DPPC   GL251532  23.734  -1.645  14.847 -0.1303  0.0991 -0.1585
 2487DPPC   C1A51533  24.175  -1.883  14.913  0.0742  0.2257  0.0248
 2487DPPC   C2A51534  24.577  -2.147  14.856  0.3632  0.0296 -0.1425
 2487DPPC   C3A51535  24.976  -1.982  14.780  0.0157  0.2970  0.0604
 2487DPPC   C4A51536  25.223  -1.624  14.902 -0.3048  0.0380  0.0259
 2487DPPC   C1B51537  23.814  -1.944  14.443 -0.1504 -0.1785 -0.0074
 2487DPPC   C2B51538  23.939  -2.238  14.125 -0.2869 -0.0338  0.2328
 2487DPPC   C3B51539  23.551  -2.054  13.803 -0.3598  0.0428 -0.1095
 2487DPPC   C4B51540  23.132  -1.915  13.726 -0.0623 -0.0804  0.0086
 2488DPPC   NC351541   9.890  15.590  28.839 -0.0001  0.0342 -0.3114
 2488DPPC   PO451542   9.572  15.605  28.599  0.2056  0.3468  0.0764
 2488DPPC   GL151543   9.710  15.233  28.414  0.0770  0.1960  0.2178
 2488DPPC   GL251544   9.786  15.376  28.100  0.0557 -0.2644 -0.0117
 2488DPPC   C1A51545  10.048  14.900  28.581  0.0725  0.2869 -0.1867
 2488DPPC   C2A51546  10.239  14.536  28.488 -0.0061  0.1479  0.0318
 2488DPPC   C3A51547  10.663  14.418  28.338  0.2511 -0.1006 -0.2193
 2488DPPC   C4A51548  10.796  14.146  28.022 -0.3949  0.3411  0.1582
 2488DPPC   C1B51549   9.819  15.060  27.879 -0.0925  0.0736 -0.1485
 2488DPPC   C2B51550  10.040  14.966  27.504  0.0601  0.3389  0.0963
 2488DPPC   C3B51551  10.483  14.808  27.502 -0.2186  0.1763 -0.0455
 2488DPPC   C4B51552  10.816  14.449  27.597 -0.1976  0.2003  0.0918
 2489DPPC   NC351553  21.703  -1.325  17.412  0.0270 -0.0191  0.0115
 2489DPPC   PO451554  21.349  -1.624  17.188  0.0138  0.3722 -0.2628
 2489DPPC   GL151555  21.207  -1.394  17.469 -0.3152 -0.2656 -0.1498
 2489DPPC   GL251556  21.163  -1.700  17.766  0.3048  0.0736  0.1470
 2489DPPC   C1A51557  21.251  -1.083  17.850  0.0822  0.0166 -0.3546
 2489DPPC   C2A51558  21.472  -0.715  17.990 -0.1328  0.2710  0.2349
 2489DPPC   C3A51559  21.834  -0.594  18.268 -0.0898  0.3560 -0.0691
 2489DPPC   C4A51560  22.182  -0.520  18.578  0.2121 -0.1654  0.2039
 2489DPPC   C1B51561  21.047  -1.431  18.150  0.0333  0.0062 -0.0186
 2489DPPC   C2B51562  20.832  -1.237  18.585 -0.1572 -0.1177 -0.0046
 2489DPPC   C3B51563  20.824  -1.110  19.052  0.1473 -0.0494  0.0328
 2489DPPC   C4B51564  20.572  -1.062  19.351  0.0312 -0.1341 -0.0610
 2490DPPC   NC351565  20.745   3.572  37.272  0.1214  0.1009  0.0211
 2490DPPC   PO451566  20.635   3.635  36.813  0.0992  0.2923  0.1166
 2490DPPC   GL151567  20.769   3.902  36.498  0.1001 -0.1578 -0.0023
 2490DPPC   GL251568  20.738   4.226  36.549  0.1103 -0.1501 -0.2028
 2490DPPC   C1A51569  20.735   3.900  35.991 -0.1757  0.2259  0.0908
 2490DPPC   C2A51570  20.489   3.858  35.650 -0.0259 -0.3196  0.2250
 2490DPPC   C3A51571  20.333   3.747  35.331 -0.0497 -0.2374  0.1299
 2490DPPC   C4A51572  20.202   3.625  34.890  0.0586 -0.0568  0.1377
 2490DPPC   C1B51573  20.500   4.283  36.184  0.1437  0.1277  0.2227
 2490DPPC   C2B51574  20.196   4.395  35.932 -0.1538  0.3327  0.1084
 2490DPPC   C3B51575  19.885   4.626  35.649 -0.3571  0.1256 -0.1895
 2490DPPC   C4B51576  19.485   4.703  35.430  0.1042 -0.1226 -0.2554
 2491DPPC   NC351577  19.474  -1.919  16.487 -0.1185  0.1036  0.2439
 2491DPPC   PO451578  19.083  -1.899  16.292 -0.5340 -0.3959  0.0773
 2491DPPC   GL151579  19.049  -1.668  16.649 -0.0387  0.0012 -0.2443
 2491DPPC   GL251580  18.715  -1.598  16.701  0.0677 -0.0465  0.2475
 2491DPPC   C1A51581  19.043  -1.372  17.034 -0.2923  0.3027 -0.0627
 2491DPPC   C2A51582  18.979  -0.977  17.291 -0.1505 -0.0846 -0.3959
 2491DPPC   C3A51583  18.640  -0.749  17.594  0.2170 -0.2262 -0.1868
 2491DPPC   C4A51584  18.398  -0.791  18.034 -0.0629 -0.0841 -0.1829
 2491DPPC   C1B51585  18.569  -1.357  16.845  0.2266 -0.0759  0.0246
 2491DPPC   C2B51586  18.477  -1.116  17.300 -0.1269 -0.1489  0.1478
 2491DPPC   C3B51587  18.495  -1.195  17.705  0.1403 -0.0021  0.2566
 2491DPPC   C4B51588  18.750  -1.125  17.995 -0.2089 -0.1484  0.2154
 2492DPPC   NC351589  19.540  -3.926  13.871  0.1177  0.0468  0.1307
 2492DPPC   PO451590  19.816  -3.548  13.832 -0.0619  0.0756  0.2536
 2492DPPC   GL151591  19.509  -3.577  13.510  0.2613  0.0026 -0.0315
 2492DPPC   GL251592  19.336  -3.361  13.384  0.3094 -0.0800  0.1831
 2492DPPC   C1A51593  19.458  -3.970  13.244 -0.1373 -0.0683  0.0790
 2492DPPC   C2A51594  19.258  -4.341  13.080 -0.0510 -0.1926 -0.1274
 2492DPPC   C3A51595  18.983  -4.818  12.935  0.2534  0.0545  0.0733
 2492DPPC   C4A51596  18.562  -5.130  12.975  0.3993  0.2427 -0.2699
 2492DPPC   C1B51597  19.400  -3.535  12.953  0.0216  0.0419 -0.1712
 2492DPPC   C2B51598  19.470  -3.911  12.711 -0.2299 -0.3488  0.1057
 2492DPPC   C3B51599  19.692  -4.365  12.555  0.2332 -0.0012 -0.1833
 2492DPPC   C4B51600  19.860  -4.750  12.616  0.2298  0.2207  0.1040
 2493DPPC   NC351601  20.574  -5.731  16.182 -0.0503  0.2384  0.3871
 2493DPPC   PO451602  20.439  -5.445  15.868  0.1011  0.2815 -0.2127
 2493DPPC   GL151603  20.437  -5.893  15.713 -0.0951 -0.2569  0.0323
 2493DPPC   GL251604  20.736  -5.949  15.492 -0.1961  0.0688 -0.0602
 2493DPPC   C1A51605  20.425  -6.321  15.598 -0.1736 -0.1326 -0.1091
 2493DPPC   C2A51606  20.587  -6.574  15.408  0.0396  0.0138  0.3560
 2493DPPC   C3A51607  20.766  -6.951  15.487 -0.0889  0.1814  0.1053
 2493DPPC   C4A51608  21.141  -7.222  15.476  0.0625  0.1860  0.0848
 2493DPPC   C1B51609  20.877  -6.154  15.134  0.1189 -0.1041 -0.1612
 2493DPPC   C2B51610  20.671  -6.453  14.852 -0.1684 -0.1272  0.0849
 2493DPPC   C3B51611  20.836  -6.849  14.552 -0.1451  0.0490 -0.3107
 2493DPPC   C4B51612  20.992  -7.060  14.319 -0.0197 -0.0533  0.0347
 2494DPPC   NC351613  15.813  -7.612  12.638 -0.1539 -0.2192  0.2346
 2494DPPC   PO451614  15.997  -8.029  12.858  0.3833  0.1242  0.0939
 2494DPPC   GL151615  16.279  -7.619  12.797 -0.1630  0.1851  0.0045
 2494DPPC   GL251616  16.280  -7.594  12.533  0.0365 -0.2741  0.0457
 2494DPPC   C1A51617  16.468  -7.175  12.830  0.0248  0.1333 -0.0451
 2494DPPC   C2A51618  16.650  -6.804  12.741  0.3954 -0.1405  0.3496
 2494DPPC   C3A51619  16.540  -6.427  12.370  0.1115  0.3810  0.0186
 2494DPPC   C4A51620  16.740  -6.164  12.014 -0.2254  0.3515  0.2403
 2494DPPC   C1B51621  16.730  -7.606  12.882  0.2882 -0.0558 -0.1371
 2494DPPC   C2B51622  16.838  -7.345  13.256 -0.2949 -0.0390  0.0305
 2494DPPC   C3B51623  17.226  -7.106  13.356 -0.1227 -0.0001 -0.2363
 2494DPPC   C4B51624  17.489  -6.904  13.520 -0.1835  0.1192 -0.0991
 2495DPPC   NC351625  20.994  -1.920  27.291  0.0950 -0.1071 -0.0810
 2495DPPC   PO451626  21.451  -1.707  27.516 -0.0283 -0.0856  0.1329
 2495DPPC   GL151627  21.395  -2.099  27.670 -0.1303 -0.0020 -0.0236
 2495DPPC   GL251628  21.164  -2.438  27.584 -0.0178 -0.0467 -0.0399
 2495DPPC   C1A51629  21.649  -2.489  27.795  0.0282 -0.4772 -0.0030
 2495DPPC   C2A51630  21.755  -2.805  27.888  0.0452 -0.1748 -0.3288
 2495DPPC   C3A51631  21.967  -2.963  28.151  0.1100  0.1583  0.0610
 2495DPPC   C4A51632  21.916  -3.310  28.297 -0.1547  0.1279  0.4294
 2495DPPC   C1B51633  21.222  -2.899  27.757  0.2903  0.0610  0.0450
 2495DPPC   C2B51634  20.947  -3.200  27.965 -0.1833 -0.3118  0.3653
 2495DPPC   C3B51635  20.847  -3.638  27.937 -0.1329  0.0185  0.1863
 2495DPPC   C4B51636  21.147  -3.980  27.824  0.1806 -0.2082  0.0098
 2496DPPC   NC351637   9.275  -3.383  15.182  0.0772 -0.1248  0.1174
 2496DPPC   PO451638   9.573  -3.232  15.426 -0.2609 -0.1098 -0.1001
 2496DPPC   GL151639   9.880  -3.066  15.767  0.3849  0.2397  0.3382
 2496DPPC   GL251640   9.758  -3.096  16.083 -0.2113 -0.0933  0.1312
 2496DPPC   C1A51641  10.183  -2.851  16.057  0.2533  0.1446 -0.1568
 2496DPPC   C2A51642  10.596  -2.929  16.277  0.2344  0.1941  0.1960
 2496DPPC   C3A51643  10.891  -2.851  16.551  0.3616 -0.1906 -0.0672
 2496DPPC   C4A51644  11.215  -2.898  16.925  0.1394 -0.2483  0.0559
 2496DPPC   C1B51645  10.086  -3.220  16.484 -0.0872 -0.1091  0.0024
 2496DPPC   C2B51646  10.331  -3.397  16.828 -0.2645 -0.0145  0.2313
 2496DPPC   C3B51647  10.343  -3.247  17.300  0.1376 -0.1360  0.1246
 2496DPPC   C4B51648  10.145  -3.101  17.670  0.0146  0.2451  0.0835
 2497DPPC   NC351649  22.683  -1.279  17.410  0.1023  0.2699 -0.2446
 2497DPPC   PO451650  22.878  -1.644  17.223 -0.2088  0.1341  0.0500
 2497DPPC   GL151651  23.153  -1.415  17.571  0.2485  0.1339  0.1031
 2497DPPC   GL251652  23.537  -1.638  17.613 -0.0184  0.0198 -0.1764
 2497DPPC   C1A51653  23.270  -1.216  17.895 -0.1339  0.0574  0.0133
 2497DPPC   C2A51654  23.611  -1.374  18.065  0.2130 -0.4197 -0.1568
 2497DPPC   C3A51655  24.048  -1.421  18.251  0.1528 -0.0087  0.0328
 2497DPPC   C4A51656  24.304  -1.735  18.578 -0.2210 -0.1897  0.0544
 2497DPPC   C1B51657  23.906  -1.753  17.885 -0.4743  0.4019  0.1391
 2497DPPC   C2B51658  24.286  -1.767  17.848  0.3637 -0.2492 -0.1667
 2497DPPC   C3B51659  24.645  -1.857  17.709  0.1959  0.1031  0.0809
 2497DPPC   C4B51660  24.965  -1.767  17.480  0.4133 -0.2300 -0.2025
 2498DPPC   NC351661  19.117  -4.532  17.846  0.1625 -0.0775  0.2704
 2498DPPC   PO451662  19.064  -4.334  17.506  0.0886 -0.0718  0.1996
 2498DPPC   GL151663  18.804  -4.162  17.872 -0.2796  0.4721 -0.2262
 2498DPPC   GL251664  18.535  -3.961  17.926 -0.1833  0.3528  0.2745
 2498DPPC   C1A51665  18.919  -4.075  18.298  0.3734 -0.2295 -0.2420
 2498DPPC   C2A51666  18.790  -3.732  18.569 -0.0635 -0.3497 -0.0907
 2498DPPC   C3A51667  18.847  -3.339  18.811 -0.0448  0.3205  0.1332
 2498DPPC   C4A51668  19.277  -3.066  18.838  0.1296  0.1780 -0.1000
 2498DPPC   C1B51669  18.447  -3.730  18.195  0.2928  0.0461 -0.0001
 2498DPPC   C2B51670  18.018  -3.579  18.350  0.0732 -0.1320  0.0457
 2498DPPC   C3B51671  17.736  -3.336  18.219 -0.0435 -0.1629 -0.2541
 2498DPPC   C4B51672  17.441  -3.127  17.806 -0.0904  0.3180 -0.1599
 2499DPPC   NC351673  23.298  -1.919  17.293  0.3040 -0.2371  0.1786
 2499DPPC   PO451674  23.352  -2.209  17.610  0.0075  0.0732  0.1572
 2499DPPC   GL151675  23.604  -2.101  17.898  0.0910 -0.0355 -0.0244
 2499DPPC   GL251676  23.438  -2.161  18.188 -0.0605  0.2124 -0.3112
 2499DPPC   C1A51677  23.730  -1.847  18.376  0.2595 -0.2170 -0.5418
 2499DPPC   C2A51678  23.587  -1.413  18.552 -0.2420  0.1694 -0.0332
 2499DPPC   C3A51679  23.582  -1.071  18.837 -0.1604 -0.2135  0.2402
 2499DPPC   C4A51680  23.735  -0.626  18.889 -0.0746 -0.0011  0.0573
 2499DPPC   C1B51681  23.519  -2.245  18.624 -0.0278  0.0763 -0.1448
 2499DPPC   C2B51682  23.641  -2.367  19.051  0.2420 -0.1444  0.1478
 2499DPPC   C3B51683  23.402  -2.417  19.380  0.0329  0.2522 -0.3770
 2499DPPC   C4B51684  23.113  -2.665  19.560 -0.0402 -0.0444  0.1062
 2500DPPC   NC351685  19.662   7.147  37.238  0.0632  0.2963  0.0811
 2500DPPC   PO451686  20.102   7.047  37.097 -0.0077  0.1640  0.1698
 2500DPPC   GL151687  19.865   7.140  36.704 -0.3212 -0.0470  0.0432
 2500DPPC   GL251688  20.053   7.099  36.505  0.1360 -0.0239  0.0711
 2500DPPC   C1A51689  19.504   7.009  36.433  0.2631  0.1274  0.2433
 2500DPPC   C2A51690  19.291   7.027  36.004  0.3165 -0.0646  0.0095
 2500DPPC   C3A51691  19.061   7.040  35.680 -0.1151  0.1224  0.3023
 2500DPPC   C4A51692  18.905   6.969  35.262 -0.1249 -0.2710  0.0233
 2500DPPC   C1B51693  19.881   7.031  36.088  0.0969 -0.0645 -0.1485
 2500DPPC   C2B51694  19.659   6.975  35.684 -0.1406  0.0745  0.0620
 2500DPPC   C3B51695  19.366   6.809  35.298 -0.1169  0.1045  0.0154
 2500DPPC   C4B51696  19.454   6.924  34.830  0.1310  0.2949 -0.0578
 2501DPPC   NC351697  18.747  -1.291  15.276  0.0348 -0.1148  0.0046
 2501DPPC   PO451698  18.406  -1.229  15.329  0.1829  0.2284 -0.1934
 2501DPPC   GL151699  18.227  -1.024  15.743  0.0206 -0.0845 -0.1167
 2501DPPC   GL251700  18.448  -0.919  15.990  0.0519  0.1043 -0.2043
 2501DPPC   C1A51701  17.934  -0.779  15.982 -0.3735  0.1281  0.3263
 2501DPPC   C2A51702  17.620  -0.513  16.160  0.4047 -0.2142  0.1271
 2501DPPC   C3A51703  17.261  -0.367  16.252  0.2155 -0.0514 -0.0605
 2501DPPC   C4A51704  16.962  -0.051  16.418  0.0249  0.1107 -0.0551
 2501DPPC   C1B51705  18.523  -0.810  16.476  0.0525 -0.2048 -0.1271
 2501DPPC   C2B51706  18.370  -0.550  16.894 -0.1035  0.1559 -0.0515
 2501DPPC   C3B51707  18.385  -0.299  17.256 -0.0646 -0.1916  0.3464
 2501DPPC   C4B51708  18.740   0.059  17.530 -0.1577 -0.0557  0.4815
 2502DPPC   NC351709  26.850   7.987  31.735  0.1189 -0.0037 -0.0959
 2502DPPC   PO451710  26.948   8.143  31.280  0.3439 -0.0615  0.2929
 2502DPPC   GL151711  26.646   8.399  31.057  0.1886  0.0480  0.2218
 2502DPPC   GL251712  26.619   8.597  31.323 -0.0847 -0.2731  0.1890
 2502DPPC   C1A51713  26.272   8.397  30.790  0.4073  0.0609  0.0651
 2502DPPC   C2A51714  25.748   8.257  30.613 -0.0320  0.0789 -0.3357
 2502DPPC   C3A51715  25.520   8.188  30.201 -0.0163  0.0856 -0.0284
 2502DPPC   C4A51716  25.348   8.263  29.807  0.0491 -0.0428 -0.0583
 2502DPPC   C1B51717  26.186   8.313  31.293 -0.1385  0.4913 -0.1321
 2502DPPC   C2B51718  25.992   8.095  31.048  0.5436 -0.0159 -0.1995
 2502DPPC   C3B51719  25.629   7.831  30.859 -0.0610  0.1773 -0.0770
 2502DPPC   C4B51720  25.344   7.383  30.869  0.3587  0.2100 -0.0150
 2503DPPC   NC351721  21.121  -3.594  17.693  0.4752  0.1465  0.1655
 2503DPPC   PO451722  21.377  -3.241  17.995 -0.1820 -0.2578 -0.1995
 2503DPPC   GL151723  21.430  -2.829  18.375 -0.1102  0.1943 -0.2029
 2503DPPC   GL251724  21.699  -2.603  18.276  0.1625  0.2819  0.0528
 2503DPPC   C1A51725  21.466  -2.705  18.835 -0.2738  0.3097 -0.1045
 2503DPPC   C2A51726  21.457  -2.737  19.251 -0.5011 -0.1900 -0.1271
 2503DPPC   C3A51727  21.681  -2.643  19.619 -0.0796  0.0848  0.0236
 2503DPPC   C4A51728  21.432  -2.571  20.051 -0.3851 -0.3470 -0.0684
 2503DPPC   C1B51729  21.626  -2.213  18.572 -0.1187 -0.0002  0.1436
 2503DPPC   C2B51730  21.749  -1.865  18.826  0.3769  0.0786  0.1414
 2503DPPC   C3B51731  21.737  -1.461  19.175 -0.1806  0.3218  0.3647
 2503DPPC   C4B51732  21.936  -1.216  19.391  0.5231  0.4224  0.1645
 2504DPPC   NC351733   9.502  10.484  34.697 -0.1732  0.0648  0.0036
 2504DPPC   PO451734   9.781  10.503  35.008  0.3975  0.1837  0.1629
 2504DPPC   GL151735   9.964  10.269  34.669 -0.4673  0.2702  0.1711
 2504DPPC   GL251736   9.779  10.124  34.452  0.1037  0.0127  0.2272
 2504DPPC   C1A51737  10.274  10.008  34.394  0.0293  0.0143 -0.1681
 2504DPPC   C2A51738  10.547   9.791  34.076  0.1134  0.0639 -0.4528
 2504DPPC   C3A51739  10.795   9.581  33.778 -0.2057 -0.4088  0.3080
 2504DPPC   C4A51740  11.138   9.592  33.497  0.1060 -0.0366  0.2094
 2504DPPC   C1B51741   9.710   9.716  34.261  0.1362  0.1582  0.0127
 2504DPPC   C2B51742   9.833   9.286  34.374  0.0371  0.0267  0.0299
 2504DPPC   C3B51743  10.035   8.957  33.991  0.1525  0.2681  0.0258
 2504DPPC   C4B51744  10.159   8.984  33.569  0.2862  0.0643 -0.0094
 2505DPPC   NC351745  21.378  -5.393  18.554 -0.2622 -0.0502  0.0966
 2505DPPC   PO451746  21.663  -5.714  18.443  0.0901  0.0940 -0.1515
 2505DPPC   GL151747  21.670  -6.192  18.356  0.2607  0.2473  0.1011
 2505DPPC   GL251748  21.801  -6.389  18.116  0.1257  0.0675 -0.0604
 2505DPPC   C1A51749  22.006  -6.409  18.556 -0.2938 -0.0642  0.1114
 2505DPPC   C2A51750  22.333  -6.660  18.439  0.2973 -0.0883  0.0465
 2505DPPC   C3A51751  22.628  -6.368  18.241  0.1783  0.0834 -0.0068
 2505DPPC   C4A51752  22.933  -6.069  18.074  0.0091 -0.0230  0.3879
 2505DPPC   C1B51753  21.694  -6.374  17.711  0.3121 -0.0505  0.1172
 2505DPPC   C2B51754  21.538  -6.569  17.355 -0.0891 -0.0736  0.1361
 2505DPPC   C3B51755  21.497  -6.919  17.202  0.1168 -0.0678  0.1740
 2505DPPC   C4B51756  21.527  -7.341  17.172 -0.0872  0.0260  0.2475
 2506DPPC   NC351757  18.639  11.440  15.856  0.0653  0.1109  0.2875
 2506DPPC   PO451758  18.543  11.456  16.243  0.1162  0.4075  0.1364
 2506DPPC   GL151759  18.765  11.212  16.720  0.1082  0.2287 -0.1138
 2506DPPC   GL251760  19.132  11.205  16.782 -0.0391 -0.1040  0.2783
 2506DPPC   C1A51761  18.669  11.068  17.099  0.4609 -0.4231 -0.0431
 2506DPPC   C2A51762  18.661  11.046  17.515 -0.0087  0.0761 -0.1025
 2506DPPC   C3A51763  18.663  10.822  18.008 -0.0344  0.1172 -0.0519
 2506DPPC   C4A51764  18.355  10.606  18.162 -0.1239  0.1988  0.2386
 2506DPPC   C1B51765  19.114  10.736  16.891 -0.0350  0.5007 -0.1931
 2506DPPC   C2B51766  19.294  10.592  17.276  0.0897  0.3459  0.4389
 2506DPPC   C3B51767  19.044  10.487  17.595 -0.1757  0.3405  0.2783
 2506DPPC   C4B51768  18.722  10.222  17.799 -0.1468  0.0049 -0.2597
 2507DPPC   NC351769  12.285  15.955  30.914 -0.0052 -0.0848  0.3451
 2507DPPC   PO451770  12.217  15.619  31.089  0.1667  0.1462 -0.0666
 2507DPPC   GL151771  12.198  15.208  30.932  0.0410  0.2115  0.3245
 2507DPPC   GL251772  12.508  15.099  30.742  0.1463 -0.1500 -0.1860
 2507DPPC   C1A51773  11.993  15.131  30.564  0.0152  0.3973  0.5306
 2507DPPC   C2A51774  11.870  14.915  30.194 -0.0823 -0.0629 -0.1992
 2507DPPC   C3A51775  11.730  14.609  30.041  0.3449 -0.1632 -0.0512
 2507DPPC   C4A51776  11.322  14.707  29.835 -0.0558  0.1345  0.2075
 2507DPPC   C1B51777  12.722  14.735  30.677  0.5208  0.2402 -0.0515
 2507DPPC   C2B51778  13.056  14.436  30.380 -0.0367  0.1186  0.2440
 2507DPPC   C3B51779  13.360  14.135  30.441  0.3110  0.3885  0.1610
 2507DPPC   C4B51780  13.329  13.872  30.088  0.2371 -0.0724  0.3131
 2508DPPC   NC351781  23.053  -3.519  18.046 -0.0508 -0.0124 -0.2522
 2508DPPC   PO451782  22.959  -3.330  18.374 -0.0841 -0.0103 -0.1595
 2508DPPC   GL151783  23.139  -2.998  18.699 -0.1495 -0.4220 -0.0323
 2508DPPC   GL251784  23.442  -3.049  18.672  0.0255 -0.0837 -0.2044
 2508DPPC   C1A51785  23.113  -3.089  19.144 -0.2648 -0.0243  0.2264
 2508DPPC   C2A51786  23.141  -3.143  19.578  0.0599  0.1384 -0.0059
 2508DPPC   C3A51787  23.371  -3.108  19.940 -0.1863  0.3405  0.1043
 2508DPPC   C4A51788  23.633  -3.165  20.316 -0.1077 -0.3059 -0.1319
 2508DPPC   C1B51789  23.597  -2.968  19.085  0.1937 -0.1371 -0.0299
 2508DPPC   C2B51790  23.601  -2.896  19.487 -0.2667  0.2033  0.1281
 2508DPPC   C3B51791  23.657  -2.678  19.824 -0.3475 -0.0958  0.0602
 2508DPPC   C4B51792  23.318  -2.625  20.276  0.2774  0.0714 -0.0470
 2509DPPC   NC351793  22.832   4.321  36.144 -0.1833 -0.0209  0.0273
 2509DPPC   PO451794  23.142   4.240  35.895 -0.2678  0.1364  0.1422
 2509DPPC   GL151795  22.962   4.533  35.553 -0.0854 -0.3701 -0.0641
 2509DPPC   GL251796  22.733   4.647  35.714 -0.0220 -0.2915  0.1522
 2509DPPC   C1A51797  22.986   4.780  35.185 -0.1368  0.0990 -0.0675
 2509DPPC   C2A51798  22.923   4.840  34.750  0.1376  0.3655 -0.1027
 2509DPPC   C3A51799  22.853   4.808  34.297 -0.1604  0.0408 -0.1710
 2509DPPC   C4A51800  22.666   4.490  34.113  0.0725 -0.1121  0.0569
 2509DPPC   C1B51801  22.486   4.682  35.319  0.1591 -0.1574 -0.0713
 2509DPPC   C2B51802  22.322   4.769  34.917  0.0494  0.0774  0.0642
 2509DPPC   C3B51803  21.986   4.683  34.700  0.1174 -0.0004 -0.3353
 2509DPPC   C4B51804  21.794   4.343  34.232  0.0748  0.1970 -0.0090
 2510DPPC   NC351805  11.949  -4.119  15.230  0.0373  0.2895 -0.0881
 2510DPPC   PO451806  12.271  -4.428  15.141  0.0744  0.0994 -0.0809
 2510DPPC   GL151807  12.381  -4.240  15.502  0.2452  0.3395 -0.0830
 2510DPPC   GL251808  12.114  -4.343  15.671  0.3085 -0.3566 -0.0116
 2510DPPC   C1A51809  12.464  -3.923  15.792 -0.1190 -0.2411  0.0508
 2510DPPC   C2A51810  12.693  -3.627  16.103 -0.1060  0.1524  0.1669
 2510DPPC   C3A51811  12.677  -3.714  16.568 -0.0484 -0.2528  0.2001
 2510DPPC   C4A51812  12.967  -3.933  16.837  0.0839  0.0298  0.1926
 2510DPPC   C1B51813  12.333  -4.389  16.042  0.1318  0.1273  0.1548
 2510DPPC   C2B51814  12.508  -4.224  16.274 -0.0927 -0.1195 -0.3844
 2510DPPC   C3B51815  12.513  -4.246  16.785 -0.5092 -0.1289  0.1655
 2510DPPC   C4B51816  12.387  -4.163  17.201 -0.0234  0.1246 -0.1093
 2511DPPC   NC351817  18.060  -1.265  14.955 -0.1598  0.2256 -0.0213
 2511DPPC   PO451818  17.773  -1.656  15.055 -0.0871  0.0580  0.0470
 2511DPPC   GL151819  17.299  -1.564  15.158  0.2218 -0.0004  0.0796
 2511DPPC   GL251820  17.076  -1.831  14.973 -0.1050  0.3488 -0.0940
 2511DPPC   C1A51821  17.042  -1.327  15.388 -0.1374  0.0546  0.3835
 2511DPPC   C2A51822  16.663  -1.237  15.649  0.0272 -0.3114  0.0954
 2511DPPC   C3A51823  16.335  -1.015  15.687  0.0537 -0.0192  0.2954
 2511DPPC   C4A51824  15.991  -0.786  15.802 -0.2213  0.3881 -0.2052
 2511DPPC   C1B51825  16.669  -1.594  15.251  0.1794 -0.3657 -0.2298
 2511DPPC   C2B51826  16.285  -1.600  15.467 -0.2332 -0.2918  0.1135
 2511DPPC   C3B51827  16.036  -1.463  15.848  0.3482  0.3306  0.2032
 2511DPPC   C4B51828  16.126  -1.550  16.237  0.0229  0.2464 -0.2365
 2512DPPC   NC351829  15.470  -2.277  35.491 -0.2690 -0.0956 -0.0366
 2512DPPC   PO451830  15.098  -2.223  35.751 -0.1389  0.0971 -0.0534
 2512DPPC   GL151831  15.190  -1.767  35.606  0.1219 -0.0352  0.1099
 2512DPPC   GL251832  15.534  -1.566  35.786 -0.0452  0.4420  0.0756
 2512DPPC   C1A51833  15.137  -1.330  35.366  0.2115 -0.0821  0.0639
 2512DPPC   C2A51834  15.103  -0.886  35.353 -0.1415 -0.2263  0.1335
 2512DPPC   C3A51835  15.081  -0.560  35.002 -0.1033  0.0062 -0.0122
 2512DPPC   C4A51836  15.025  -0.253  34.718  0.1748  0.2635 -0.1299
 2512DPPC   C1B51837  15.626  -1.396  35.408  0.0712 -0.1749 -0.0420
 2512DPPC   C2B51838  15.573  -1.142  35.070 -0.1369 -0.2271  0.2941
 2512DPPC   C3B51839  15.812  -0.859  34.867 -0.3698  0.0544  0.2124
 2512DPPC   C4B51840  15.965  -0.608  34.599  0.1915 -0.0676 -0.2806
 2513DPPC   NC351841  21.932   1.228  15.744  0.0702 -0.2191 -0.0318
 2513DPPC   PO451842  21.693   0.932  16.021  0.0754  0.2179  0.1544
 2513DPPC   GL151843  21.547   1.345  16.075 -0.0381 -0.1700 -0.0533
 2513DPPC   GL251844  21.503   1.466  15.726 -0.0016  0.0262  0.1170
 2513DPPC   C1A51845  21.809   1.699  16.181  0.4363 -0.4916 -0.2825
 2513DPPC   C2A51846  22.033   2.032  16.126 -0.0395 -0.2341 -0.2688
 2513DPPC   C3A51847  22.131   2.488  16.219  0.0961  0.0893 -0.0254
 2513DPPC   C4A51848  22.200   2.893  16.028 -0.3008  0.0375  0.0742
 2513DPPC   C1B51849  21.629   1.908  15.749  0.0394  0.1875 -0.0192
 2513DPPC   C2B51850  21.735   2.283  15.809  0.0959  0.0936  0.0197
 2513DPPC   C3B51851  22.033   2.696  15.619 -0.1064 -0.0844  0.2834
 2513DPPC   C4B51852  22.276   3.107  15.546 -0.0751  0.1248  0.2488
 2514DPPC   NC351853  21.806   0.622  14.085 -0.1317  0.0072  0.0515
 2514DPPC   PO451854  22.038   0.867  14.371  0.2438 -0.0924 -0.3740
 2514DPPC   GL151855  22.420   0.703  14.136 -0.0247  0.1635  0.0952
 2514DPPC   GL251856  22.710   0.678  14.141  0.1398 -0.1006 -0.0965
 2514DPPC   C1A51857  22.528   0.858  13.627 -0.0029 -0.4721 -0.3625
 2514DPPC   C2A51858  22.390   0.896  13.241  0.5117 -0.1045 -0.0366
 2514DPPC   C3A51859  22.111   0.886  12.962  0.0876 -0.1826  0.3503
 2514DPPC   C4A51860  21.847   1.172  12.735 -0.4131  0.0860 -0.0354
 2514DPPC   C1B51861  23.192   0.807  14.136  0.0568  0.0132 -0.1653
 2514DPPC   C2B51862  23.396   0.979  14.443 -0.0326  0.0140  0.0158
 2514DPPC   C3B51863  23.786   0.797  14.691  0.0618  0.0261 -0.0458
 2514DPPC   C4B51864  24.198   0.649  14.791 -0.1146  0.2020  0.0760
 2515DPPC   NC351865   6.294   3.059  33.977  0.0522 -0.1412  0.0781
 2515DPPC   PO451866   6.220   3.436  34.023  0.1588 -0.1756 -0.3226
 2515DPPC   GL151867   6.603   3.538  33.859  0.0437  0.0302 -0.1057
 2515DPPC   GL251868   6.811   3.436  34.135 -0.0242 -0.1399  0.2606
 2515DPPC   C1A51869   6.873   3.482  33.497 -0.3336  0.2712 -0.0171
 2515DPPC   C2A51870   7.150   3.235  33.161  0.0702 -0.2288  0.3127
 2515DPPC   C3A51871   6.997   2.881  33.097 -0.1349  0.0138  0.2595
 2515DPPC   C4A51872   6.740   2.668  32.984 -0.0465  0.0273  0.4213
 2515DPPC   C1B51873   7.085   3.705  33.907  0.1037  0.0596  0.3789
 2515DPPC   C2B51874   7.329   4.043  33.865  0.1355 -0.2309 -0.2410
 2515DPPC   C3B51875   7.569   4.124  33.511  0.1350 -0.2153 -0.1578
 2515DPPC   C4B51876   7.726   4.449  33.180  0.0955 -0.2632 -0.1050
 2516DPPC   NC351877  18.211  -4.674  10.351  0.3216  0.1605  0.1381
 2516DPPC   PO451878  17.996  -4.431  10.485 -0.2964  0.1132 -0.2516
 2516DPPC   GL151879  17.993  -4.122  10.886 -0.3011  0.0564 -0.1556
 2516DPPC   GL251880  18.286  -3.963  10.786 -0.0102  0.3228  0.0993
 2516DPPC   C1A51881  18.068  -4.054  11.346  0.0310 -0.3012  0.0431
 2516DPPC   C2A51882  18.405  -4.207  11.490 -0.0573 -0.2580 -0.3741
 2516DPPC   C3A51883  18.543  -4.351  11.814  0.0688  0.0331  0.0136
 2516DPPC   C4A51884  18.721  -4.606  12.125 -0.3212  0.2847  0.0970
 2516DPPC   C1B51885  18.249  -3.544  10.925 -0.2324 -0.1789 -0.2235
 2516DPPC   C2B51886  18.440  -3.474  11.291 -0.2500  0.3545  0.1900
 2516DPPC   C3B51887  18.675  -3.789  11.482  0.1270 -0.2012  0.1732
 2516DPPC   C4B51888  18.918  -4.033  11.797  0.0685  0.0388 -0.0354
 2517DPPC   NC351889  21.009   1.549  14.752 -0.0152  0.0504  0.0958
 2517DPPC   PO451890  20.850   1.603  15.053  0.1595 -0.0249  0.0801
 2517DPPC   GL151891  20.565   2.027  15.111 -0.1122 -0.0377  0.3285
 2517DPPC   GL251892  20.483   2.155  15.477 -0.0276  0.2248 -0.3719
 2517DPPC   C1A51893  20.488   2.548  15.105  0.2310 -0.0190  0.0023
 2517DPPC   C2A51894  20.337   2.918  15.025  0.0184 -0.1331 -0.1182
 2517DPPC   C3A51895  20.341   3.214  14.644  0.2290 -0.0651  0.0164
 2517DPPC   C4A51896  20.193   3.685  14.555  0.1975  0.3432 -0.0052
 2517DPPC   C1B51897  20.278   2.387  15.848 -0.1213 -0.0561  0.1075
 2517DPPC   C2B51898  19.943   2.333  16.117 -0.1604 -0.0841  0.0830
 2517DPPC   C3B51899  19.849   2.343  16.528 -0.0690 -0.1871 -0.0568
 2517DPPC   C4B51900  19.994   2.699  16.785 -0.1332 -0.0327 -0.2833
 2518DPPC   NC351901  24.574  12.423  21.810 -0.0863 -0.2257  0.0093
 2518DPPC   PO451902  24.348  12.810  21.900 -0.3459  0.0109 -0.2265
 2518DPPC   GL151903  24.105  12.531  22.068  0.3954 -0.1140  0.1165
 2518DPPC   GL251904  24.085  12.278  21.773  0.1095 -0.3841  0.0436
 2518DPPC   C1A51905  23.824  12.334  22.391  0.0542 -0.3649  0.0367
 2518DPPC   C2A51906  23.756  11.979  22.654  0.0594 -0.0415 -0.2084
 2518DPPC   C3A51907  23.627  11.613  22.857 -0.0170 -0.3804 -0.0248
 2518DPPC   C4A51908  23.314  11.175  22.912 -0.2132  0.1279 -0.0633
 2518DPPC   C1B51909  23.988  11.995  22.015  0.1157  0.1305 -0.0910
 2518DPPC   C2B51910  23.756  11.615  22.221  0.0408  0.3965  0.0671
 2518DPPC   C3B51911  23.409  11.405  22.454  0.3141 -0.0765  0.3113
 2518DPPC   C4B51912  22.969  11.129  22.413 -0.1251  0.0067 -0.1790
 2519DPPC   NC351913  10.359   3.375  32.312 -0.1170 -0.2078  0.2087
 2519DPPC   PO451914  10.667   3.420  32.578 -0.1434  0.5396  0.1292
 2519DPPC   GL151915  10.367   3.526  32.876  0.0280  0.2476 -0.0108
 2519DPPC   GL251916  10.418   3.673  33.081  0.1260  0.0004  0.2703
 2519DPPC   C1A51917  10.227   3.328  33.372 -0.2283 -0.0952  0.2292
 2519DPPC   C2A51918  10.244   3.341  33.767  0.0818  0.1095  0.0962
 2519DPPC   C3A51919  10.404   3.400  34.140  0.0408 -0.1699 -0.1335
 2519DPPC   C4A51920  10.519   3.116  34.437  0.0793  0.2197 -0.4138
 2519DPPC   C1B51921  10.065   3.939  32.958  0.1014  0.0624 -0.2362
 2519DPPC   C2B51922   9.738   4.156  33.124 -0.3057  0.5126 -0.0371
 2519DPPC   C3B51923   9.497   4.254  33.510 -0.0403  0.2450  0.2635
 2519DPPC   C4B51924   9.279   4.565  33.683 -0.1614  0.0552  0.1223
 2520DPPC   NC351925  26.442   0.760  13.638  0.1479  0.0247 -0.0010
 2520DPPC   PO451926  26.038   0.640  13.566  0.1945  0.0689 -0.1239
 2520DPPC   GL151927  25.646   0.661  13.690  0.3592 -0.3485  0.3989
 2520DPPC   GL251928  25.454   0.955  13.969  0.0556  0.0640  0.2849
 2520DPPC   C1A51929  25.518   0.460  13.980 -0.1087 -0.1371 -0.1472
 2520DPPC   C2A51930  25.214   0.458  14.340  0.0707  0.1092 -0.1852
 2520DPPC   C3A51931  24.930   0.313  14.676 -0.1699 -0.0441  0.1616
 2520DPPC   C4A51932  24.564   0.342  14.947  0.1401  0.2202  0.1972
 2520DPPC   C1B51933  25.076   0.759  13.861 -0.1262  0.4785  0.0199
 2520DPPC   C2B51934  24.771   0.506  13.646 -0.1730 -0.0922  0.4131
 2520DPPC   C3B51935  24.344   0.425  13.846  0.0757 -0.0302 -0.0946
 2520DPPC   C4B51936  24.090   0.159  14.106  0.0218 -0.2726 -0.1234
 2521DPPC   NC351937   3.800   8.301  27.301  0.0601  0.3496  0.1700
 2521DPPC   PO451938   3.935   8.731  27.264  0.1462  0.0345 -0.0613
 2521DPPC   GL151939   4.274   8.532  27.136 -0.1774  0.4793  0.2921
 2521DPPC   GL251940   4.276   8.282  27.236 -0.2254 -0.0423  0.3480
 2521DPPC   C1A51941   4.687   8.391  26.932 -0.0440  0.1661 -0.0540
 2521DPPC   C2A51942   5.077   8.174  26.803  0.0291 -0.1224  0.0493
 2521DPPC   C3A51943   5.224   7.824  27.075  0.1679  0.0868 -0.0205
 2521DPPC   C4A51944   5.525   7.471  27.171  0.0850 -0.0478 -0.0172
 2521DPPC   C1B51945   4.707   8.447  27.421  0.2737  0.1524 -0.4001
 2521DPPC   C2B51946   5.122   8.737  27.580 -0.0387  0.1389 -0.0343
 2521DPPC   C3B51947   5.487   8.481  27.679 -0.0709  0.3364  0.0612
 2521DPPC   C4B51948   5.833   8.427  27.478  0.2675  0.0887 -0.1846
 2522DPPC   NC351949  19.979  -0.744  36.385 -0.0431 -0.1035 -0.1703
 2522DPPC   PO451950  19.651  -0.558  36.368 -0.5334 -0.1326 -0.0764
 2522DPPC   GL151951  19.501  -0.349  36.026  0.0576  0.0312  0.0576
 2522DPPC   GL251952  19.568   0.013  36.050 -0.0673  0.4480  0.0884
 2522DPPC   C1A51953  19.196  -0.105  35.675 -0.3027 -0.0729 -0.1207
 2522DPPC   C2A51954  19.091   0.142  35.345  0.0623  0.4611  0.2038
 2522DPPC   C3A51955  18.973   0.468  35.172 -0.2384 -0.0317  0.4008
 2522DPPC   C4A51956  18.684   0.619  34.987 -0.4581  0.0188  0.0163
 2522DPPC   C1B51957  19.787   0.208  35.853  0.4406 -0.3272 -0.0755
 2522DPPC   C2B51958  19.703   0.522  35.455 -0.1253 -0.1646  0.1405
 2522DPPC   C3B51959  19.693   0.913  35.229 -0.1161  0.1354  0.0299
 2522DPPC   C4B51960  19.723   1.227  35.487 -0.0401  0.0483  0.1532
 2523DPPC   NC351961  27.158  -1.629  28.992 -0.1864 -0.1285  0.4520
 2523DPPC   PO451962  27.293  -1.342  28.706  0.1920 -0.0660 -0.2100
 2523DPPC   GL151963  27.069  -1.041  28.564  0.3451  0.1832 -0.0097
 2523DPPC   GL251964  27.059  -0.987  28.242 -0.1709 -0.0372  0.1465
 2523DPPC   C1A51965  26.816  -0.721  28.614 -0.2287 -0.0297  0.3007
 2523DPPC   C2A51966  26.773  -0.277  28.828 -0.0808 -0.0966  0.1268
 2523DPPC   C3A51967  26.947   0.147  29.006 -0.3636  0.1949  0.2338
 2523DPPC   C4A51968  27.105   0.567  28.962  0.0426  0.1391  0.0267
 2523DPPC   C1B51969  26.672  -0.826  28.091  0.1397  0.1609 -0.1246
 2523DPPC   C2B51970  26.349  -0.575  28.039 -0.1706 -0.0318 -0.0453
 2523DPPC   C3B51971  25.984  -0.346  28.159  0.3580  0.0614  0.0155
 2523DPPC   C4B51972  25.902  -0.211  28.461  0.2640  0.0076  0.0320
 2524DPPC   NC351973  19.185   0.206  14.558 -0.2788  0.0147 -0.2296
 2524DPPC   PO451974  18.904   0.133  14.689 -0.0712  0.4979  0.2837
 2524DPPC   GL151975  18.708   0.401  14.949 -0.0055  0.1901 -0.1599
 2524DPPC   GL251976  18.539   0.601  14.796  0.4422 -0.5495 -0.0371
 2524DPPC   C1A51977  18.552   0.642  15.335  0.0276 -0.0127 -0.1830
 2524DPPC   C2A51978  18.543   0.871  15.676 -0.1287  0.0868  0.1586
 2524DPPC   C3A51979  18.547   1.164  16.014  0.0329  0.0368 -0.0166
 2524DPPC   C4A51980  18.474   1.157  16.455 -0.0852  0.1679  0.0295
 2524DPPC   C1B51981  18.343   0.907  14.947 -0.1601 -0.2024  0.0677
 2524DPPC   C2B51982  18.160   1.302  15.172  0.1627 -0.0171 -0.1006
 2524DPPC   C3B51983  17.951   1.581  15.271 -0.0411  0.0067  0.1221
 2524DPPC   C4B51984  17.859   1.990  15.132  0.0979 -0.2020  0.0996
 2525DPPC   NC351985  25.527  -5.786  13.875 -0.1967 -0.0154 -0.1730
 2525DPPC   PO451986  25.275  -6.076  13.652  0.0034  0.2168 -0.3178
 2525DPPC   GL151987  24.942  -5.943  13.915  0.1324 -0.1504  0.1927
 2525DPPC   GL251988  25.076  -5.553  13.949  0.0469 -0.1658  0.1299
 2525DPPC   C1A51989  24.591  -5.741  14.212 -0.0602 -0.1763  0.0775
 2525DPPC   C2A51990  24.138  -5.632  14.435  0.0993  0.1445  0.3312
 2525DPPC   C3A51991  23.936  -5.605  14.880 -0.1677 -0.3662  0.0320
 2525DPPC   C4A51992  24.002  -5.405  15.243  0.1207  0.0394  0.1018
 2525DPPC   C1B51993  24.908  -5.229  13.678  0.1023  0.1979  0.1780
 2525DPPC   C2B51994  24.677  -4.922  13.807  0.0128  0.1035 -0.2894
 2525DPPC   C3B51995  24.543  -4.707  14.207  0.0591 -0.0641  0.2820
 2525DPPC   C4B51996  24.406  -4.702  14.539  0.0907  0.0040  0.3648
 2526DPPC   NC351997  17.177  -5.379  16.175  0.0472 -0.1852  0.0382
 2526DPPC   PO451998  17.197  -5.657  15.830  0.3150 -0.0064  0.0815
 2526DPPC   GL151999  17.222  -6.061  15.767  0.0937  0.1155 -0.0418
 2526DPPC   GL252000  17.385  -6.130  15.521  0.0937  0.2725  0.0438
 2526DPPC   C1A52001  17.086  -6.466  15.885  0.0290 -0.3157  0.2414
 2526DPPC   C2A52002  17.185  -6.822  16.123  0.0255  0.0817 -0.2047
 2526DPPC   C3A52003  17.378  -7.170  16.466  0.0526 -0.0223  0.1267
 2526DPPC   C4A52004  17.806  -7.094  16.559 -0.1216  0.2027  0.1812
 2526DPPC   C1B52005  17.119  -6.487  15.275  0.2977  0.0966 -0.0584
 2526DPPC   C2B52006  17.038  -6.866  15.553 -0.0333 -0.1573 -0.3706
 2526DPPC   C3B52007  17.308  -7.151  15.628 -0.1284  0.0036 -0.0070
 2526DPPC   C4B52008  17.741  -7.250  15.623  0.1297 -0.2181  0.0978
 2527DPPC   NC352009  11.027  -6.694  17.675 -0.1185 -0.0248 -0.1693
 2527DPPC   PO452010  11.202  -6.507  18.072  0.2857  0.0646  0.0632
 2527DPPC   GL152011  11.535  -6.267  18.322  0.0601 -0.0812 -0.2430
 2527DPPC   GL252012  11.388  -6.223  18.612 -0.0459  0.2920  0.4899
 2527DPPC   C1A52013  11.759  -5.935  18.646 -0.2629  0.1756  0.3131
 2527DPPC   C2A52014  12.179  -5.719  18.694  0.2053 -0.0023  0.2189
 2527DPPC   C3A52015  12.474  -5.700  19.071 -0.1426  0.0155  0.0358
 2527DPPC   C4A52016  12.824  -5.582  19.186  0.2006  0.0325 -0.1510
 2527DPPC   C1B52017  11.265  -5.772  18.816 -0.0171 -0.0552  0.2003
 2527DPPC   C2B52018  11.465  -5.418  18.913 -0.2592 -0.0535 -0.0850
 2527DPPC   C3B52019  11.619  -5.092  19.206 -0.1654  0.2646  0.0052
 2527DPPC   C4B52020  11.971  -4.896  19.383  0.1142 -0.1032 -0.3955
 2528DPPC   NC352021  21.475   1.555  14.462 -0.1717 -0.1409  0.2154
 2528DPPC   PO452022  21.583   1.173  14.187 -0.1018  0.3180 -0.2355
 2528DPPC   GL152023  21.744   1.207  13.694  0.0952  0.0841  0.0518
 2528DPPC   GL252024  22.040   0.997  13.755 -0.1246  0.0441 -0.1131
 2528DPPC   C1A52025  21.701   0.952  13.286  0.0905  0.1838 -0.0360
 2528DPPC   C2A52026  21.389   0.964  12.922 -0.0474 -0.0383 -0.0723
 2528DPPC   C3A52027  20.931   1.099  12.826  0.0971  0.0400  0.0170
 2528DPPC   C4A52028  20.615   1.292  12.972 -0.3051 -0.0785  0.0959
 2528DPPC   C1B52029  22.171   1.350  13.420  0.0831 -0.1947 -0.0502
 2528DPPC   C2B52030  22.049   1.555  13.038  0.2475 -0.1337 -0.1008
 2528DPPC   C3B52031  21.961   1.922  12.920 -0.0895 -0.0088 -0.4805
 2528DPPC   C4B52032  21.876   2.316  12.846 -0.1790  0.0550 -0.1570
 2529DPPC   NC352033  14.783  16.551  28.540 -0.4899  0.0536 -0.4412
 2529DPPC   PO452034  14.655  16.791  28.207 -0.1507  0.6398  0.1839
 2529DPPC   GL152035  14.464  16.417  28.219 -0.1497 -0.1368 -0.1702
 2529DPPC   GL252036  14.057  16.522  28.114  0.0930  0.0518 -0.1029
 2529DPPC   C1A52037  14.585  15.962  28.351 -0.0241 -0.1311 -0.0597
 2529DPPC   C2A52038  14.488  15.594  28.578 -0.1923  0.1317 -0.0960
 2529DPPC   C3A52039  14.496  15.112  28.559  0.0562 -0.0446  0.0193
 2529DPPC   C4A52040  14.930  14.860  28.650 -0.0825  0.0757 -0.3911
 2529DPPC   C1B52041  14.010  16.083  28.227 -0.1450 -0.1193  0.2930
 2529DPPC   C2B52042  13.951  15.783  28.373 -0.1794 -0.0212 -0.3212
 2529DPPC   C3B52043  13.935  15.284  28.389 -0.1237 -0.3339 -0.1206
 2529DPPC   C4B52044  13.874  14.885  28.161 -0.0251  0.1397 -0.1693
 2530DPPC   NC352045  13.982   4.560  12.072 -0.1242 -0.1348 -0.1248
 2530DPPC   PO452046  14.163   4.440  12.444  0.2538 -0.2562  0.0304
 2530DPPC   GL152047  14.332   4.423  12.784 -0.1113 -0.5238 -0.0003
 2530DPPC   GL252048  14.320   4.560  13.084  0.2197 -0.2495 -0.2207
 2530DPPC   C1A52049  14.221   4.035  13.137  0.5059  0.2100 -0.0141
 2530DPPC   C2A52050  14.292   3.844  13.533 -0.1811 -0.1874 -0.3602
 2530DPPC   C3A52051  14.392   3.371  13.683 -0.0860  0.1765 -0.0390
 2530DPPC   C4A52052  14.393   3.083  13.761 -0.1157 -0.2211 -0.0112
 2530DPPC   C1B52053  14.501   5.019  13.197  0.1462  0.0643  0.1818
 2530DPPC   C2B52054  14.551   5.212  13.589  0.5280  0.0542  0.1800
 2530DPPC   C3B52055  14.765   5.224  14.030 -0.2434  0.2735  0.2146
 2530DPPC   C4B52056  14.983   5.469  14.303 -0.1579  0.2687  0.3975
 2531DPPC   NC352057   7.656  -5.589  23.820  0.1205 -0.2818 -0.0416
 2531DPPC   PO452058   7.811  -6.028  23.970 -0.1738 -0.1499 -0.0371
 2531DPPC   GL152059   8.188  -5.672  24.083  0.0738  0.0316 -0.0009
 2531DPPC   GL252060   8.011  -5.362  23.997 -0.1924 -0.1568 -0.1362
 2531DPPC   C1A52061   8.298  -5.506  24.563  0.2946 -0.1595  0.1413
 2531DPPC   C2A52062   8.337  -5.251  24.876  0.0348 -0.2267 -0.3421
 2531DPPC   C3A52063   8.616  -4.829  24.966 -0.1536  0.1988 -0.0635
 2531DPPC   C4A52064   8.591  -4.294  25.042 -0.0024 -0.1771 -0.1564
 2531DPPC   C1B52065   8.196  -5.059  23.674  0.1583  0.1990 -0.0563
 2531DPPC   C2B52066   8.312  -4.586  23.463 -0.0013  0.2226 -0.1329
 2531DPPC   C3B52067   8.711  -4.411  23.301  0.2607  0.0827  0.0815
 2531DPPC   C4B52068   8.987  -4.084  23.213 -0.4440  0.1991  0.2084
 2532DPPC   NC352069  26.187   4.378  16.898  0.0191  0.0155  0.1475
 2532DPPC   PO452070  25.841   4.553  16.678  0.0221 -0.2961  0.2261
 2532DPPC   GL152071  25.494   4.722  16.835 -0.0644  0.0643  0.1345
 2532DPPC   GL252072  25.276   4.610  16.661  0.0675 -0.0266 -0.3406
 2532DPPC   C1A52073  25.425   5.149  17.161  0.1200 -0.1924 -0.1935
 2532DPPC   C2A52074  25.145   5.485  17.149 -0.1943 -0.1374 -0.1792
 2532DPPC   C3A52075  24.679   5.625  17.014  0.2653 -0.0739 -0.0322
 2532DPPC   C4A52076  24.316   5.320  16.990  0.0742 -0.1504 -0.1069
 2532DPPC   C1B52077  25.039   4.518  17.024 -0.1410  0.2213 -0.1540
 2532DPPC   C2B52078  24.609   4.450  17.217 -0.2861 -0.1815  0.0319
 2532DPPC   C3B52079  24.345   4.010  17.304  0.2531 -0.0199  0.0245
 2532DPPC   C4B52080  24.082   3.716  17.093 -0.0983 -0.3514 -0.1538
 2533DPPC   NC352081  23.545   3.370  12.726  0.1331 -0.2268 -0.2479
 2533DPPC   PO452082  23.347   3.153  12.846  0.3760 -0.0262  0.4178
 2533DPPC   GL152083  23.122   2.892  13.107 -0.0754 -0.0636  0.1526
 2533DPPC   GL252084  23.253   3.103  13.355 -0.0539 -0.2898 -0.6734
 2533DPPC   C1A52085  23.157   2.546  13.272 -0.1213  0.2600 -0.0712
 2533DPPC   C2A52086  23.088   2.265  13.565 -0.0146 -0.0503 -0.0642
 2533DPPC   C3A52087  22.717   2.179  13.740 -0.1370  0.3072  0.0260
 2533DPPC   C4A52088  22.236   2.153  13.793 -0.1073 -0.2252 -0.0055
 2533DPPC   C1B52089  23.171   2.854  13.699  0.2101  0.1225  0.0079
 2533DPPC   C2B52090  22.982   2.599  14.070  0.1789 -0.0510  0.4832
 2533DPPC   C3B52091  22.843   2.341  14.446  0.3929  0.0523 -0.1327
 2533DPPC   C4B52092  22.524   2.131  14.465  0.2974  0.1776  0.0221
 2534DPPC   NC352093  18.805  -3.440  13.559 -0.0756 -0.2764 -0.2180
 2534DPPC   PO452094  19.114  -3.615  13.884 -0.3597  0.3286  0.0030
 2534DPPC   GL152095  19.056  -3.902  13.556 -0.2232 -0.1505 -0.0565
 2534DPPC   GL252096  19.116  -4.192  13.525  0.0978 -0.2678  0.3351
 2534DPPC   C1A52097  18.985  -3.852  13.129 -0.1711  0.0881  0.2562
 2534DPPC   C2A52098  18.972  -4.040  12.690 -0.0400  0.1059  0.2545
 2534DPPC   C3A52099  19.199  -4.454  12.596  0.1884  0.2094 -0.0143
 2534DPPC   C4A52100  19.401  -4.850  12.626  0.1093  0.0179  0.0130
 2534DPPC   C1B52101  18.841  -4.356  13.320  0.0668  0.1177  0.0563
 2534DPPC   C2B52102  18.529  -4.190  13.173 -0.2003 -0.0179  0.2082
 2534DPPC   C3B52103  18.521  -3.891  12.928  0.0673  0.0543  0.2369
 2534DPPC   C4B52104  18.167  -3.652  12.941  0.3768  0.0590 -0.1448
 2535DPPC   NC352105  18.798  -0.244  13.726 -0.1186 -0.4802  0.1229
 2535DPPC   PO452106  18.526  -0.246  13.338 -0.0901 -0.2068 -0.0753
 2535DPPC   GL152107  18.597   0.186  13.202  0.0478  0.0610  0.1058
 2535DPPC   GL252108  18.547   0.288  12.879 -0.2269  0.2277  0.0933
 2535DPPC   C1A52109  18.941   0.397  13.124 -0.0402 -0.2422 -0.0861
 2535DPPC   C2A52110  18.987   0.763  12.817 -0.0637  0.2771 -0.0116
 2535DPPC   C3A52111  19.043   1.160  12.772 -0.0840 -0.0705  0.1016
 2535DPPC   C4A52112  19.371   1.400  12.622 -0.1796 -0.2114 -0.1233
 2535DPPC   C1B52113  18.185  -0.068  12.858  0.2669  0.1820 -0.1425
 2535DPPC   C2B52114  17.968  -0.505  13.012 -0.0742 -0.0278 -0.0781
 2535DPPC   C3B52115  17.721  -0.794  13.091  0.0385  0.1062  0.2823
 2535DPPC   C4B52116  17.243  -0.676  13.151  0.3156  0.2887  0.1655
 2536DPPC   NC352117   6.906   8.211  17.616  0.3354  0.2051  0.2033
 2536DPPC   PO452118   6.984   7.862  17.620  0.2697  0.0119  0.3696
 2536DPPC   GL152119   7.188   7.569  17.945  0.2971 -0.0506 -0.2153
 2536DPPC   GL252120   7.120   7.238  18.174 -0.1904  0.0936  0.2643
 2536DPPC   C1A52121   7.411   7.620  18.207 -0.2055 -0.0270 -0.0538
 2536DPPC   C2A52122   7.591   7.738  18.599 -0.2593  0.1972  0.0220
 2536DPPC   C3A52123   7.997   7.570  18.703  0.0680  0.1312 -0.0384
 2536DPPC   C4A52124   8.404   7.566  18.713  0.1370 -0.0305  0.3149
 2536DPPC   C1B52125   7.144   7.138  18.609  0.1614  0.1722  0.1716
 2536DPPC   C2B52126   7.336   6.813  18.828  0.0283 -0.0203 -0.1135
 2536DPPC   C3B52127   7.737   6.693  18.929 -0.3862 -0.0374  0.1760
 2536DPPC   C4B52128   8.001   6.361  19.041 -0.1144  0.5387  0.1869
 2537DPPC   NC352129  20.616   1.198  14.071 -0.3259 -0.2263  0.1877
 2537DPPC   PO452130  20.776   1.231  13.654  0.0756 -0.1351  0.1221
 2537DPPC   GL152131  20.755   1.658  13.798  0.1976  0.3521 -0.2455
 2537DPPC   GL252132  21.019   1.802  13.772 -0.1185  0.2879 -0.0307
 2537DPPC   C1A52133  20.492   1.877  13.619  0.0630 -0.1158 -0.2493
 2537DPPC   C2A52134  20.596   1.865  13.229 -0.0864  0.1761 -0.2372
 2537DPPC   C3A52135  21.008   1.842  13.248  0.0291 -0.1122  0.1016
 2537DPPC   C4A52136  21.115   1.464  13.163 -0.1662  0.1306 -0.3129
 2537DPPC   C1B52137  21.428   2.046  13.658 -0.1832 -0.0384  0.2692
 2537DPPC   C2B52138  21.827   2.209  13.495  0.4335  0.0936 -0.3296
 2537DPPC   C3B52139  22.200   2.343  13.293 -0.3212  0.0966 -0.0557
 2537DPPC   C4B52140  22.660   2.374  13.308 -0.2289 -0.1978  0.0820
 2538DPPC   NC352141   8.664  -0.762  35.201  0.1513 -0.0766  0.1538
 2538DPPC   PO452142   9.133  -0.820  35.183  0.2228  0.2346 -0.1139
 2538DPPC   GL152143   9.361  -0.591  34.861  0.4246  0.4244 -0.0004
 2538DPPC   GL252144   9.744  -0.536  34.869 -0.0891 -0.0380  0.1656
 2538DPPC   C1A52145   9.519  -0.135  34.688 -0.1296  0.0666 -0.0390
 2538DPPC   C2A52146   9.810   0.114  34.565 -0.2946 -0.1778  0.0422
 2538DPPC   C3A52147  10.243   0.214  34.314  0.1534  0.1227  0.0639
 2538DPPC   C4A52148  10.681   0.246  34.211  0.1076  0.0577 -0.0295
 2538DPPC   C1B52149  10.079  -0.459  34.613 -0.2269  0.1208 -0.0316
 2538DPPC   C2B52150  10.068  -0.250  34.231 -0.3118 -0.0050 -0.3336
 2538DPPC   C3B52151  10.353  -0.278  34.026 -0.0581  0.0629 -0.0064
 2538DPPC   C4B52152  10.720  -0.088  33.882 -0.0400  0.0862  0.2078
 2539DPPC   NC352153  14.916  11.740  35.691  0.2542 -0.0022 -0.0710
 2539DPPC   PO452154  15.039  11.982  35.296  0.1406  0.1746 -0.0957
 2539DPPC   GL152155  14.746  11.810  34.980  0.2311 -0.3207  0.1874
 2539DPPC   GL252156  14.632  12.052  34.707 -0.2609  0.1705  0.1538
 2539DPPC   C1A52157  14.971  11.545  34.760  0.2466 -0.1137 -0.0171
 2539DPPC   C2A52158  15.238  11.599  34.405  0.0632  0.3867  0.0639
 2539DPPC   C3A52159  15.538  11.377  34.091 -0.0902 -0.0287  0.2384
 2539DPPC   C4A52160  15.672  11.117  33.762  0.1576 -0.1975 -0.1062
 2539DPPC   C1B52161  14.995  11.993  34.452 -0.0411 -0.2608  0.0281
 2539DPPC   C2B52162  15.282  11.924  33.999  0.4931  0.0140  0.3867
 2539DPPC   C3B52163  15.593  12.115  33.706  0.2360  0.2089 -0.2960
 2539DPPC   C4B52164  15.739  11.925  33.304 -0.0889  0.2107 -0.1203
 2540DPPC   NC352165  19.615  -6.062  17.766 -0.0674 -0.3099  0.0468
 2540DPPC   PO452166  19.176  -5.970  17.644 -0.2034 -0.0129 -0.0967
 2540DPPC   GL152167  19.185  -6.304  17.881 -0.0058 -0.0917  0.1992
 2540DPPC   GL252168  19.255  -6.055  18.341 -0.2496  0.0380  0.1173
 2540DPPC   C1A52169  19.240  -6.734  18.175 -0.3189  0.2860  0.3141
 2540DPPC   C2A52170  19.078  -6.905  18.633  0.1783  0.1191 -0.0108
 2540DPPC   C3A52171  19.058  -6.754  19.042 -0.0511 -0.1995  0.0971
 2540DPPC   C4A52172  18.904  -6.729  19.466 -0.1881 -0.0029 -0.2066
 2540DPPC   C1B52173  19.150  -6.408  18.506 -0.0214  0.2178  0.1684
 2540DPPC   C2B52174  18.730  -6.403  18.818 -0.2057  0.0481 -0.2435
 2540DPPC   C3B52175  18.606  -6.278  19.257 -0.1307  0.1226  0.2290
 2540DPPC   C4B52176  18.604  -6.295  19.759 -0.0663  0.0984 -0.1326
 2541DPPC   NC352177  10.297  16.599  26.608 -0.1019 -0.2203  0.4538
 2541DPPC   PO452178  10.600  16.233  26.848  0.2302 -0.2388  0.3608
 2541DPPC   GL152179  10.949  16.076  26.798 -0.0974  0.0207  0.0549
 2541DPPC   GL252180  11.193  16.222  26.729 -0.3468  0.1407 -0.1421
 2541DPPC   C1A52181  11.297  15.864  27.080 -0.1583 -0.0150 -0.1052
 2541DPPC   C2A52182  11.616  15.489  26.980  0.0832  0.1986  0.2387
 2541DPPC   C3A52183  11.786  15.080  26.801  0.0935  0.0783 -0.0494
 2541DPPC   C4A52184  12.012  14.674  26.709 -0.0987  0.1042 -0.0771
 2541DPPC   C1B52185  11.253  15.768  26.558  0.2083  0.1104  0.2040
 2541DPPC   C2B52186  10.847  15.660  26.409 -0.2046 -0.0844 -0.0609
 2541DPPC   C3B52187  10.559  15.463  26.194 -0.0002  0.2606 -0.0860
 2541DPPC   C4B52188  10.472  15.134  25.902 -0.4382  0.0580 -0.0277
 2542DPPC   NC352189   7.217   4.561  24.359 -0.0178 -0.1170  0.1917
 2542DPPC   PO452190   7.010   4.499  24.726  0.2166 -0.1941  0.1355
 2542DPPC   GL152191   6.757   4.616  24.435  0.2438  0.1050 -0.0925
 2542DPPC   GL252192   6.694   4.514  24.062 -0.2219 -0.0025 -0.1665
 2542DPPC   C1A52193   6.354   4.688  24.346  0.0835  0.1920  0.2403
 2542DPPC   C2A52194   6.014   4.850  24.027  0.2372 -0.1207 -0.0020
 2542DPPC   C3A52195   5.778   5.038  23.771 -0.0650  0.1455  0.0991
 2542DPPC   C4A52196   5.521   5.308  23.452 -0.2187 -0.0356 -0.3904
 2542DPPC   C1B52197   6.228   4.277  23.971 -0.2955  0.0872 -0.0604
 2542DPPC   C2B52198   5.724   4.461  23.989 -0.0504 -0.2430 -0.1578
 2542DPPC   C3B52199   5.580   4.792  24.261  0.0231  0.0830  0.1280
 2542DPPC   C4B52200   5.538   5.281  24.197 -0.0748  0.1155 -0.3977
 2543DPPC   NC352201  23.159  -1.777  16.807  0.1458 -0.0019 -0.2054
 2543DPPC   PO452202  23.605  -1.983  16.911  0.1152 -0.0937  0.1700
 2543DPPC   GL152203  23.958  -1.729  16.704  0.1387  0.1478  0.2452
 2543DPPC   GL252204  24.054  -1.464  16.550  0.1916  0.3120 -0.0778
 2543DPPC   C1A52205  24.351  -2.056  16.575  0.1206  0.1994 -0.0290
 2543DPPC   C2A52206  24.549  -2.392  16.926 -0.0919 -0.0681  0.4041
 2543DPPC   C3A52207  24.218  -2.668  17.166 -0.3121 -0.6260  0.1175
 2543DPPC   C4A52208  24.183  -2.912  17.499 -0.1075  0.0180  0.0901
 2543DPPC   C1B52209  24.216  -1.168  16.886 -0.0763 -0.0874 -0.2538
 2543DPPC   C2B52210  24.641  -1.340  17.009  0.1321 -0.0999  0.0672
 2543DPPC   C3B52211  25.026  -1.497  16.978  0.2252 -0.1177  0.0081
 2543DPPC   C4B52212  25.328  -1.494  16.668 -0.3211  0.1603  0.2238
 2544DPPC   NC352213   5.979   8.322  34.255  0.2128 -0.2181  0.3914
 2544DPPC   PO452214   6.292   8.491  33.930 -0.0195  0.0925  0.2330
 2544DPPC   GL152215   6.467   8.172  33.590  0.0597 -0.1527 -0.1986
 2544DPPC   GL252216   6.826   8.115  33.555  0.0865  0.0908  0.0030
 2544DPPC   C1A52217   6.592   8.137  33.061  0.2753  0.0895  0.1590
 2544DPPC   C2A52218   6.948   8.218  32.873  0.2153  0.2916 -0.0541
 2544DPPC   C3A52219   7.234   8.479  32.817 -0.2624 -0.1225  0.5515
 2544DPPC   C4A52220   7.585   8.410  32.647  0.5049 -0.1838  0.3644
 2544DPPC   C1B52221   7.242   8.204  33.446 -0.2901 -0.1131 -0.0017
 2544DPPC   C2B52222   7.642   8.345  33.174 -0.1981  0.5462  0.1903
 2544DPPC   C3B52223   7.961   8.242  32.880  0.0584  0.1219 -0.0668
 2544DPPC   C4B52224   7.866   8.029  32.548 -0.1743  0.1247 -0.0958
 2545DPPC   NC352225  21.657  -5.958  28.497 -0.1111  0.1557  0.2269
 2545DPPC   PO452226  22.082  -6.040  28.414  0.0695  0.3943  0.0630
 2545DPPC   GL152227  21.998  -5.684  28.266  0.2593 -0.1059  0.3950
 2545DPPC   GL252228  21.704  -5.464  28.231  0.0314  0.3559  0.1586
 2545DPPC   C1A52229  22.240  -5.288  28.117 -0.2396 -0.1824 -0.1273
 2545DPPC   C2A52230  22.287  -4.906  27.905 -0.0568  0.0031 -0.2211
 2545DPPC   C3A52231  21.968  -4.565  27.650  0.1100  0.2827 -0.0642
 2545DPPC   C4A52232  21.972  -4.119  27.758  0.1849 -0.0266 -0.2308
 2545DPPC   C1B52233  21.880  -5.155  28.501 -0.2092  0.3316 -0.1699
 2545DPPC   C2B52234  21.991  -4.727  28.519  0.1834 -0.1532  0.1786
 2545DPPC   C3B52235  21.858  -4.245  28.556 -0.2758  0.0574 -0.1723
 2545DPPC   C4B52236  22.005  -3.774  28.397  0.1065  0.0394  0.2695
 2546DPPC   NC352237  20.165  -3.609  17.906 -0.1404  0.1404  0.0375
 2546DPPC   PO452238  20.550  -3.552  18.185 -0.1710  0.2137  0.0890
 2546DPPC   GL152239  20.485  -3.571  18.634  0.1171  0.2284 -0.0106
 2546DPPC   GL252240  20.772  -3.421  18.700 -0.1411 -0.0058  0.3177
 2546DPPC   C1A52241  20.297  -3.220  18.881 -0.0498  0.3343  0.1886
 2546DPPC   C2A52242  20.349  -3.259  19.390 -0.0160  0.2949 -0.3290
 2546DPPC   C3A52243  20.509  -3.514  19.737 -0.0570  0.0008  0.2694
 2546DPPC   C4A52244  20.334  -3.778  20.089 -0.1140  0.0548  0.0132
 2546DPPC   C1B52245  20.813  -3.392  19.132  0.1610  0.1143 -0.1202
 2546DPPC   C2B52246  20.783  -3.066  19.455 -0.0070  0.3027  0.3778
 2546DPPC   C3B52247  20.749  -3.062  19.872 -0.0230  0.2155 -0.2099
 2546DPPC   C4B52248  20.830  -2.816  20.296  0.0304 -0.2138  0.0271
 2547DPPC   NC352249  18.526  -0.179  14.594 -0.1086 -0.4157  0.1879
 2547DPPC   PO452250  18.416   0.167  14.587  0.0380 -0.1326  0.0831
 2547DPPC   GL152251  18.088   0.341  14.688  0.0745 -0.2177 -0.1118
 2547DPPC   GL252252  18.002   0.298  14.309 -0.3249 -0.0012  0.0676
 2547DPPC   C1A52253  17.881   0.765  14.864  0.0466  0.0448 -0.2409
 2547DPPC   C2A52254  17.881   1.163  14.806 -0.0865  0.2038 -0.0654
 2547DPPC   C3A52255  17.665   1.426  14.548 -0.1112 -0.2152 -0.0857
 2547DPPC   C4A52256  17.935   1.704  14.308 -0.1392  0.3281 -0.3079
 2547DPPC   C1B52257  17.809   0.774  14.293  0.1932 -0.0312 -0.0432
 2547DPPC   C2B52258  17.705   1.207  14.092 -0.4386 -0.0896 -0.1035
 2547DPPC   C3B52259  17.477   1.622  14.021 -0.0766  0.3683 -0.1443
 2547DPPC   C4B52260  17.310   1.890  14.267 -0.0220 -0.0030 -0.1270
 2548DPPC   NC352261  11.951  15.827  23.081 -0.1826 -0.0492  0.0982
 2548DPPC   PO452262  11.931  15.800  23.536  0.1215  0.1556 -0.1663
 2548DPPC   GL152263  11.744  15.429  23.685  0.2744 -0.1779  0.1822
 2548DPPC   GL252264  11.953  15.204  23.439 -0.0651 -0.0472  0.0358
 2548DPPC   C1A52265  11.632  14.972  23.866  0.2803 -0.0225  0.1779
 2548DPPC   C2A52266  11.526  14.524  23.942  0.0561  0.1819 -0.0133
 2548DPPC   C3A52267  11.742  14.097  24.089  0.0474  0.1225  0.1584
 2548DPPC   C4A52268  12.193  14.109  24.166  0.1703 -0.1518 -0.0797
 2548DPPC   C1B52269  12.182  14.832  23.429 -0.1251  0.2317  0.1225
 2548DPPC   C2B52270  12.300  14.480  23.631  0.0414  0.0184  0.0674
 2548DPPC   C3B52271  12.014  14.530  23.966  0.1409  0.3057  0.0576
 2548DPPC   C4B52272  11.957  14.418  24.444  0.0219 -0.0538  0.0970
 2549DPPC   NC352273  13.342  -3.325  14.073  0.0293 -0.2308 -0.2185
 2549DPPC   PO452274  12.855  -3.065  13.896  0.3450 -0.2243 -0.0268
 2549DPPC   GL152275  13.091  -2.836  14.342  0.1545 -0.2795 -0.0810
 2549DPPC   GL252276  12.906  -2.775  14.502 -0.0516  0.2261  0.0270
 2549DPPC   C1A52277  13.271  -2.689  14.834 -0.4331 -0.0348 -0.0028
 2549DPPC   C2A52278  13.460  -2.464  15.290 -0.0464  0.2051 -0.0668
 2549DPPC   C3A52279  13.519  -2.180  15.684 -0.0206  0.0765  0.0189
 2549DPPC   C4A52280  13.763  -2.258  16.112  0.3214 -0.2163 -0.0083
 2549DPPC   C1B52281  12.565  -2.780  14.829 -0.0470 -0.0199 -0.1305
 2549DPPC   C2B52282  12.414  -2.490  15.106 -0.0180 -0.2087  0.2879
 2549DPPC   C3B52283  12.490  -2.136  15.255  0.0018  0.4008  0.0011
 2549DPPC   C4B52284  12.532  -2.038  15.662 -0.4897  0.1858  0.1301
 2550DPPC   NC352285   7.275  -6.381  25.998  0.4068  0.0632  0.0020
 2550DPPC   PO452286   7.689  -6.072  26.055  0.1345 -0.1829  0.0155
 2550DPPC   GL152287   8.089  -5.796  26.117 -0.2265 -0.1730 -0.0461
 2550DPPC   GL252288   8.046  -5.442  25.942 -0.1203  0.2639 -0.0902
 2550DPPC   C1A52289   8.408  -5.776  25.793 -0.0503  0.2914 -0.2680
 2550DPPC   C2A52290   8.791  -5.802  25.602 -0.1452  0.0964 -0.1803
 2550DPPC   C3A52291   9.257  -5.711  25.751  0.1948  0.3361 -0.0305
 2550DPPC   C4A52292   9.566  -5.658  25.571  0.1864 -0.4605  0.0779
 2550DPPC   C1B52293   8.498  -5.248  25.858 -0.0828 -0.1112  0.4522
 2550DPPC   C2B52294   8.801  -4.899  26.036  0.0981  0.0204 -0.0118
 2550DPPC   C3B52295   8.962  -4.604  26.117 -0.1336 -0.2983 -0.2946
 2550DPPC   C4B52296   9.238  -4.298  25.998 -0.2732  0.2126 -0.0688
 2551DPPC   NC352297  18.295  -5.416  17.925 -0.1332 -0.2239 -0.2393
 2551DPPC   PO452298  18.643  -5.449  18.217  0.0118 -0.1211 -0.1934
 2551DPPC   GL152299  18.301  -5.725  18.387 -0.1057 -0.1142 -0.2654
 2551DPPC   GL252300  18.200  -5.919  18.157 -0.1445  0.0794 -0.0066
 2551DPPC   C1A52301  17.987  -5.677  18.780  0.0003  0.1766  0.0012
 2551DPPC   C2A52302  17.705  -5.454  18.855  0.0706  0.1920  0.2882
 2551DPPC   C3A52303  17.554  -5.114  19.236 -0.1102 -0.4013  0.1316
 2551DPPC   C4A52304  17.541  -4.864  19.606  0.1220  0.2105  0.0782
 2551DPPC   C1B52305  17.794  -5.736  18.295 -0.1037  0.2248  0.1866
 2551DPPC   C2B52306  17.482  -5.465  18.386 -0.1665  0.3027 -0.3184
 2551DPPC   C3B52307  17.140  -5.453  18.740  0.1400 -0.0643 -0.2261
 2551DPPC   C4B52308  17.073  -5.243  19.164 -0.0698  0.1455  0.2386
 2552DPPC   NC352309  18.550  -4.104  14.338  0.2634 -0.1623 -0.3534
 2552DPPC   PO452310  18.585  -3.875  13.877 -0.1080  0.0383  0.0519
 2552DPPC   GL152311  18.310  -4.136  13.690 -0.1948 -0.0309 -0.0941
 2552DPPC   GL252312  18.083  -4.019  13.718 -0.0886 -0.1122  0.3421
 2552DPPC   C1A52313  18.310  -4.572  13.450  0.0445 -0.0301  0.0690
 2552DPPC   C2A52314  18.105  -5.061  13.276  0.0454 -0.2184 -0.1052
 2552DPPC   C3A52315  18.188  -5.460  12.964  0.2662  0.0485  0.2981
 2552DPPC   C4A52316  18.258  -5.881  13.027 -0.1118  0.1127  0.4347
 2552DPPC   C1B52317  17.999  -4.040  13.278 -0.1296  0.2788 -0.1688
 2552DPPC   C2B52318  17.542  -3.960  13.084 -0.1890  0.0728  0.0652
 2552DPPC   C3B52319  17.258  -3.645  12.913 -0.0972 -0.3009  0.0153
 2552DPPC   C4B52320  16.957  -3.495  12.616  0.0754  0.3639 -0.0881
 2553DPPC   NC352321  22.085  -4.879  15.264 -0.4630 -0.0259 -0.1791
 2553DPPC   PO452322  22.456  -4.631  15.483  0.0819  0.0240 -0.1354
 2553DPPC   GL152323  22.551  -4.800  15.128 -0.1078 -0.0021 -0.0631
 2553DPPC   GL252324  22.604  -5.059  15.159  0.1385  0.0752  0.2110
 2553DPPC   C1A52325  22.970  -4.898  14.943  0.3411 -0.0780  0.1819
 2553DPPC   C2A52326  23.292  -5.019  15.280 -0.0546  0.3884  0.4554
 2553DPPC   C3A52327  23.467  -5.502  15.349  0.0226  0.2166  0.2113
 2553DPPC   C4A52328  23.717  -5.590  15.661 -0.0324 -0.1606  0.1303
 2553DPPC   C1B52329  22.931  -5.410  15.467 -0.2294  0.0701  0.1204
 2553DPPC   C2B52330  23.150  -5.659  15.830 -0.0333  0.0947  0.2706
 2553DPPC   C3B52331  23.453  -5.543  16.086 -0.0155 -0.2065 -0.0690
 2553DPPC   C4B52332  23.836  -5.249  16.013  0.3134 -0.1384  0.1705
 2554DPPC   NC352333  25.552  -6.930  14.603 -0.0049  0.0240 -0.2192
 2554DPPC   PO452334  25.460  -6.743  15.066 -0.1464  0.0618 -0.2589
 2554DPPC   GL152335  25.285  -6.303  15.192  0.0426  0.1949  0.1121
 2554DPPC   GL252336  25.372  -5.959  15.115 -0.0117  0.2021  0.2760
 2554DPPC   C1A52337  24.889  -6.243  15.301  0.1083 -0.4303  0.0103
 2554DPPC   C2A52338  24.575  -6.335  15.060 -0.0367  0.0652  0.1135
 2554DPPC   C3A52339  24.174  -6.115  15.067  0.4986 -0.0563  0.1539
 2554DPPC   C4A52340  23.821  -5.967  15.227 -0.0736 -0.2425  0.0655
 2554DPPC   C1B52341  25.264  -5.626  15.137  0.2262  0.1384 -0.1826
 2554DPPC   C2B52342  25.265  -5.173  15.217 -0.0738 -0.0014 -0.0493
 2554DPPC   C3B52343  25.290  -4.941  14.913  0.1753 -0.2251  0.1226
 2554DPPC   C4B52344  25.680  -4.632  14.737  0.1883  0.0869 -0.1506
 2555DPPC   NC352345  18.470  -4.148  17.454 -0.2705  0.0929  0.1201
 2555DPPC   PO452346  18.085  -4.066  17.450 -0.0776 -0.2660 -0.2768
 2555DPPC   GL152347  17.941  -4.081  17.881 -0.1300  0.1663 -0.5580
 2555DPPC   GL252348  18.087  -4.095  18.118  0.2628  0.0433  0.0531
 2555DPPC   C1A52349  17.514  -4.057  18.025 -0.1812 -0.3702 -0.1795
 2555DPPC   C2A52350  17.083  -4.066  18.128  0.3473  0.1177 -0.0561
 2555DPPC   C3A52351  16.676  -4.003  18.397  0.1058  0.0461  0.0611
 2555DPPC   C4A52352  16.345  -4.028  18.713 -0.2532 -0.3511 -0.0177
 2555DPPC   C1B52353  18.269  -4.178  18.450 -0.0736 -0.2798 -0.0605
 2555DPPC   C2B52354  18.577  -4.180  18.618 -0.0098  0.0948  0.0893
 2555DPPC   C3B52355  18.954  -4.143  18.798  0.1167  0.0893 -0.0723
 2555DPPC   C4B52356  19.360  -4.085  19.042  0.1864 -0.0142  0.1030
 2556DPPC   NC352357   5.227  -3.051  28.013  0.0206  0.0084 -0.3444
 2556DPPC   PO452358   5.515  -3.210  27.714 -0.2316 -0.0034 -0.3329
 2556DPPC   GL152359   6.026  -3.182  27.709  0.2236  0.3039 -0.0464
 2556DPPC   GL252360   6.289  -3.333  27.850  0.1334  0.1423  0.0979
 2556DPPC   C1A52361   6.372  -2.966  27.514  0.1322  0.1715 -0.0994
 2556DPPC   C2A52362   6.649  -2.599  27.558  0.0609  0.1391  0.0656
 2556DPPC   C3A52363   6.550  -2.223  27.860 -0.1010 -0.3412  0.2066
 2556DPPC   C4A52364   6.307  -1.882  27.920 -0.0414 -0.0535  0.0845
 2556DPPC   C1B52365   6.755  -3.224  27.770  0.2347  0.0831 -0.0844
 2556DPPC   C2B52366   7.199  -3.172  27.628  0.2346 -0.1032  0.2278
 2556DPPC   C3B52367   7.664  -3.292  27.635 -0.0653 -0.2944 -0.3130
 2556DPPC   C4B52368   7.883  -3.682  27.809 -0.1562 -0.2412 -0.1204
 2557DPPC   NC352369  20.000  -5.168  15.819  0.3093  0.0181 -0.2854
 2557DPPC   PO452370  20.055  -5.459  15.459 -0.0286 -0.1058 -0.6234
 2557DPPC   GL152371  20.134  -5.889  15.326  0.0682 -0.0803  0.2405
 2557DPPC   GL252372  19.841  -6.063  15.166 -0.1710 -0.0190  0.3661
 2557DPPC   C1A52373  20.322  -6.142  15.119  0.0074  0.1489  0.2810
 2557DPPC   C2A52374  20.207  -6.571  14.974  0.1561  0.2443  0.0421
 2557DPPC   C3A52375  20.286  -6.734  14.587 -0.1150  0.1965 -0.0633
 2557DPPC   C4A52376  20.271  -7.074  14.535 -0.2172 -0.2242  0.3159
 2557DPPC   C1B52377  19.677  -6.358  14.805 -0.0554  0.0843  0.3431
 2557DPPC   C2B52378  19.811  -6.816  14.655  0.0694 -0.0528 -0.2442
 2557DPPC   C3B52379  19.559  -7.003  14.445 -0.0167 -0.1495  0.2707
 2557DPPC   C4B52380  19.360  -7.015  14.033 -0.0522  0.0182 -0.1783
 2558DPPC   NC352381  22.603  -0.001  15.713  0.3229  0.1303  0.1903
 2558DPPC   PO452382  22.681   0.193  16.172 -0.1939 -0.1757  0.3700
 2558DPPC   GL152383  23.081   0.518  16.263 -0.1236  0.0020  0.2253
 2558DPPC   GL252384  23.411   0.347  16.231 -0.0095 -0.3772 -0.0601
 2558DPPC   C1A52385  23.395   0.665  16.638 -0.2264  0.2466 -0.2203
 2558DPPC   C2A52386  23.586   0.918  16.807 -0.0073 -0.2912 -0.1427
 2558DPPC   C3A52387  23.953   1.000  17.042  0.0950 -0.0951  0.2489
 2558DPPC   C4A52388  24.155   1.073  17.506 -0.4465 -0.1225  0.2699
 2558DPPC   C1B52389  23.660   0.677  16.134  0.0768  0.0864 -0.1709
 2558DPPC   C2B52390  23.888   0.976  16.373 -0.0059 -0.0261  0.3013
 2558DPPC   C3B52391  24.074   1.324  16.305  0.0986 -0.0504 -0.0783
 2558DPPC   C4B52392  23.944   1.670  15.916 -0.0009  0.2438 -0.3238
 2559DPPC   NC352393  18.530  15.823  30.776 -0.1339  0.2285 -0.2968
 2559DPPC   PO452394  18.142  15.671  30.732  0.1945 -0.1260  0.0688
 2559DPPC   GL152395  18.143  15.292  30.473  0.0765  0.2646  0.2155
 2559DPPC   GL252396  18.454  15.086  30.270  0.0230  0.3362 -0.2963
 2559DPPC   C1A52397  18.051  14.779  30.320  0.1701 -0.2150 -0.0582
 2559DPPC   C2A52398  18.177  14.376  30.126 -0.1334 -0.2351 -0.0054
 2559DPPC   C3A52399  18.133  13.977  30.061 -0.1140  0.1228  0.3397
 2559DPPC   C4A52400  18.400  13.753  29.904 -0.1724  0.1668 -0.4057
 2559DPPC   C1B52401  18.342  14.794  29.901  0.2561 -0.0171  0.1960
 2559DPPC   C2B52402  18.313  14.485  29.552  0.0482  0.1124  0.1549
 2559DPPC   C3B52403  18.512  14.303  29.130 -0.0219  0.1545 -0.3832
 2559DPPC   C4B52404  18.513  14.485  28.745 -0.0403 -0.2018 -0.0221
 2560DPPC   NC352405   3.343   1.875  28.812 -0.1143  0.0671 -0.1769
 2560DPPC   PO452406   3.634   1.846  29.064 -0.1186  0.0853  0.2098
 2560DPPC   GL152407   3.987   2.113  29.182 -0.1620  0.0392 -0.2612
 2560DPPC   GL252408   4.007   2.416  29.206  0.4150  0.0930  0.2613
 2560DPPC   C1A52409   4.357   1.983  29.372  0.0869 -0.4063  0.2056
 2560DPPC   C2A52410   4.793   2.230  29.442 -0.0858  0.2521 -0.1347
 2560DPPC   C3A52411   5.139   2.154  29.315 -0.0639 -0.1238 -0.0597
 2560DPPC   C4A52412   5.491   2.237  29.113  0.2507  0.1435 -0.3134
 2560DPPC   C1B52413   4.360   2.434  29.042  0.1474 -0.4548 -0.1292
 2560DPPC   C2B52414   4.792   2.458  28.843 -0.2584  0.0822  0.1508
 2560DPPC   C3B52415   5.149   2.570  28.863 -0.1138  0.0180  0.1870
 2560DPPC   C4B52416   5.512   2.898  28.992  0.1015  0.1778 -0.3280
 2561DPPC   NC352417  13.126  16.546  26.280 -0.0524  0.1291 -0.0531
 2561DPPC   PO452418  13.263  16.451  25.832  0.0648 -0.3072 -0.1204
 2561DPPC   GL152419  13.221  16.035  26.045  0.0284  0.0688  0.2717
 2561DPPC   GL252420  13.423  15.844  25.828 -0.2114 -0.0204  0.3530
 2561DPPC   C1A52421  13.122  15.589  26.143  0.0449 -0.1315  0.2611
 2561DPPC   C2A52422  13.161  15.099  26.121  0.0321 -0.3326 -0.0512
 2561DPPC   C3A52423  13.281  14.650  26.125  0.0013 -0.1436 -0.0005
 2561DPPC   C4A52424  13.176  14.273  26.231 -0.1654  0.1658  0.1896
 2561DPPC   C1B52425  13.431  15.462  25.785 -0.2158 -0.1048 -0.0900
 2561DPPC   C2B52426  13.556  15.077  25.859  0.2827  0.1858 -0.1324
 2561DPPC   C3B52427  13.817  14.726  25.896 -0.0712 -0.0599 -0.2924
 2561DPPC   C4B52428  13.974  14.440  26.231  0.3675 -0.0293  0.1552
 2562DPPC   NC352429  21.446  -0.232  13.747 -0.0228 -0.1870 -0.0107
 2562DPPC   PO452430  21.024  -0.462  13.703  0.3148 -0.3064  0.0545
 2562DPPC   GL152431  21.270  -0.340  13.260  0.2071  0.0663  0.3166
 2562DPPC   GL252432  21.676  -0.299  13.293 -0.0581 -0.1870  0.3023
 2562DPPC   C1A52433  21.376  -0.068  12.951 -0.0674  0.0297  0.2612
 2562DPPC   C2A52434  21.537   0.042  12.562  0.2421 -0.2222 -0.0968
 2562DPPC   C3A52435  21.663   0.355  12.335  0.0699  0.1151  0.0073
 2562DPPC   C4A52436  21.562   0.346  11.936 -0.0848  0.3376  0.1644
 2562DPPC   C1B52437  21.616  -0.550  12.961 -0.2276 -0.1106  0.3292
 2562DPPC   C2B52438  21.345  -0.490  12.644  0.1071 -0.0645  0.2126
 2562DPPC   C3B52439  21.297  -0.723  12.275 -0.0611 -0.0592 -0.1809
 2562DPPC   C4B52440  21.463  -1.020  12.029  0.2783  0.0475  0.1497
 2563DPPC   NC352441  18.189  -8.575  12.539 -0.0236 -0.0467 -0.1636
 2563DPPC   PO452442  18.170  -8.858  12.881 -0.1407  0.0082  0.1075
 2563DPPC   GL152443  17.976  -8.652  13.179 -0.0109  0.2649 -0.0600
 2563DPPC   GL252444  17.962  -8.671  13.515  0.0916 -0.1490 -0.2579
 2563DPPC   C1A52445  17.880  -8.280  13.206  0.1143  0.0876  0.0974
 2563DPPC   C2A52446  17.707  -8.047  13.569 -0.0769 -0.1094  0.0516
 2563DPPC   C3A52447  17.490  -8.073  13.868  0.2570  0.0317 -0.1588
 2563DPPC   C4A52448  17.336  -8.301  14.185  0.0713  0.2095  0.1019
 2563DPPC   C1B52449  18.299  -8.322  13.466 -0.0176  0.2457  0.0207
 2563DPPC   C2B52450  18.684  -8.123  13.368  0.0199 -0.0470 -0.4422
 2563DPPC   C3B52451  18.898  -7.768  13.381  0.2149  0.1097  0.1623
 2563DPPC   C4B52452  19.212  -7.421  13.390 -0.1108  0.0552 -0.1413
 2564DPPC   NC352453  18.139  -0.927  13.708 -0.0043  0.1216 -0.2419
 2564DPPC   PO452454  17.698  -0.822  13.775 -0.3175 -0.2650 -0.0120
 2564DPPC   GL152455  17.430  -0.624  13.728  0.3451  0.0422  0.2469
 2564DPPC   GL252456  17.124  -0.733  13.766 -0.2957  0.2728 -0.1783
 2564DPPC   C1A52457  17.132  -0.289  13.465 -0.1182  0.3009 -0.0645
 2564DPPC   C2A52458  16.945  -0.229  13.150  0.2500  0.0572 -0.0836
 2564DPPC   C3A52459  16.469  -0.339  12.949 -0.3300  0.4093  0.2553
 2564DPPC   C4A52460  16.201  -0.674  13.092  0.0161 -0.2497  0.0441
 2564DPPC   C1B52461  16.706  -0.528  13.746 -0.1407 -0.1623 -0.0677
 2564DPPC   C2B52462  16.562  -0.327  14.086 -0.1691  0.1305 -0.1127
 2564DPPC   C3B52463  16.144  -0.056  14.187 -0.2010 -0.1726  0.0753
 2564DPPC   C4B52464  16.229   0.420  14.065  0.0959  0.0200  0.0306
 2565DPPC   NC352465  23.334  12.313  31.264 -0.2042 -0.1758  0.2218
 2565DPPC   PO452466  23.390  12.466  30.806  0.0630 -0.1780  0.3856
 2565DPPC   GL152467  23.316  12.319  30.410  0.1205 -0.1923  0.1240
 2565DPPC   GL252468  22.957  12.200  30.330 -0.0287  0.1842 -0.1484
 2565DPPC   C1A52469  23.384  11.980  30.179 -0.3054  0.1194 -0.0002
 2565DPPC   C2A52470  23.369  11.538  30.027 -0.2678 -0.0654 -0.0264
 2565DPPC   C3A52471  23.582  11.253  29.890  0.1903 -0.1979  0.0693
 2565DPPC   C4A52472  23.858  11.018  29.557  0.2988 -0.0240 -0.0895
 2565DPPC   C1B52473  22.879  11.871  30.211 -0.0090  0.0007  0.2264
 2565DPPC   C2B52474  22.703  11.560  30.052 -0.0678 -0.1163 -0.1426
 2565DPPC   C3B52475  22.474  11.313  29.747 -0.0759 -0.1925 -0.2226
 2565DPPC   C4B52476  22.774  11.153  29.410  0.0453  0.0420  0.0464
 2566DPPC   NC352477   6.477  13.131  25.475 -0.0369  0.2632 -0.1472
 2566DPPC   PO452478   6.421  12.819  25.706  0.1921 -0.0462 -0.3158
 2566DPPC   GL152479   6.583  12.425  25.824  0.2469 -0.0335  0.1529
 2566DPPC   GL252480   6.791  12.491  26.066 -0.0780  0.2182 -0.3405
 2566DPPC   C1A52481   6.699  11.996  26.177  0.0420  0.1669  0.0933
 2566DPPC   C2A52482   6.916  11.647  26.139  0.2026 -0.0734  0.1388
 2566DPPC   C3A52483   7.116  11.224  26.015  0.0296 -0.3143 -0.0036
 2566DPPC   C4A52484   7.328  11.190  25.544 -0.0714  0.0316  0.3970
 2566DPPC   C1B52485   7.154  12.243  26.122 -0.0350  0.0282 -0.1401
 2566DPPC   C2B52486   7.551  12.104  26.134 -0.0161  0.1640 -0.1566
 2566DPPC   C3B52487   7.838  11.770  26.058 -0.1785  0.0211  0.3365
 2566DPPC   C4B52488   7.874  11.457  26.455  0.0570  0.0106  0.2774
 2567DPPC   NC352489  19.921  -4.426  14.195  0.2282  0.4464  0.1045
 2567DPPC   PO452490  19.980  -3.920  14.184  0.1388  0.1223  0.2326
 2567DPPC   GL152491  19.995  -4.159  13.786 -0.0053 -0.0086  0.1913
 2567DPPC   GL252492  19.918  -3.940  13.530 -0.0663 -0.4351 -0.0671
 2567DPPC   C1A52493  20.035  -4.447  13.479 -0.4294  0.0120  0.2000
 2567DPPC   C2A52494  20.186  -4.771  13.371 -0.2559 -0.4594 -0.1916
 2567DPPC   C3A52495  20.468  -5.175  13.352 -0.0153 -0.0977  0.1638
 2567DPPC   C4A52496  20.577  -5.587  13.262  0.1991  0.1555 -0.0262
 2567DPPC   C1B52497  19.872  -3.673  13.135 -0.0867 -0.2275  0.0904
 2567DPPC   C2B52498  20.295  -3.441  12.980 -0.0347 -0.0675  0.2909
 2567DPPC   C3B52499  20.474  -3.565  12.602  0.0761 -0.1867  0.0579
 2567DPPC   C4B52500  20.313  -3.328  12.267  0.0018  0.4006 -0.1964
 2568DPPC   NC352501  26.318  -2.004  18.944 -0.1614 -0.3100 -0.0310
 2568DPPC   PO452502  26.363  -2.301  18.647 -0.1541 -0.0185 -0.0514
 2568DPPC   GL152503  25.889  -2.249  18.707 -0.1495 -0.2083 -0.0030
 2568DPPC   GL252504  25.763  -2.446  19.047 -0.0690  0.0187 -0.1052
 2568DPPC   C1A52505  25.577  -2.136  18.491  0.2526 -0.4175 -0.0282
 2568DPPC   C2A52506  25.233  -1.964  18.400  0.1200 -0.4212  0.0709
 2568DPPC   C3A52507  24.768  -1.967  18.447  0.1621 -0.3664  0.0668
 2568DPPC   C4A52508  24.560  -2.131  18.710  0.0232  0.1606 -0.3255
 2568DPPC   C1B52509  25.458  -2.478  18.751  0.2903 -0.0259 -0.0641
 2568DPPC   C2B52510  25.037  -2.413  18.396  0.0783 -0.1885 -0.0064
 2568DPPC   C3B52511  24.591  -2.526  18.433  0.1703 -0.0101 -0.0729
 2568DPPC   C4B52512  24.315  -2.849  18.411  0.0871  0.0114  0.0111
 2569DPPC   NC352513  20.133   6.763  12.746 -0.0747  0.0215  0.0922
 2569DPPC   PO452514  20.313   6.943  13.116 -0.2029  0.2773 -0.2481
 2569DPPC   GL152515  19.987   6.856  13.425  0.0948  0.1068 -0.1733
 2569DPPC   GL252516  20.039   6.935  13.696  0.0781 -0.0946  0.1472
 2569DPPC   C1A52517  19.612   6.726  13.699 -0.1321  0.1125  0.1198
 2569DPPC   C2A52518  19.449   6.726  14.193  0.0332 -0.0621  0.0876
 2569DPPC   C3A52519  19.378   7.017  14.390  0.1106 -0.1977  0.2827
 2569DPPC   C4A52520  19.342   7.198  14.794  0.0215 -0.2971 -0.3564
 2569DPPC   C1B52521  19.875   6.980  14.144 -0.1567  0.0308 -0.0677
 2569DPPC   C2B52522  20.082   6.819  14.508  0.3295 -0.2171 -0.0532
 2569DPPC   C3B52523  20.209   6.646  14.856 -0.1697  0.0778 -0.0307
 2569DPPC   C4B52524  19.831   6.562  15.045  0.2502 -0.0206 -0.0247
 2570DPPC   NC352525  11.100  16.874  25.588 -0.1798  0.0431 -0.1935
 2570DPPC   PO452526  11.399  16.491  25.472  0.0046  0.0265  0.2720
 2570DPPC   GL152527  11.284  16.159  25.750 -0.2729  0.1100  0.2546
 2570DPPC   GL252528  11.385  15.872  25.532 -0.2520  0.0965 -0.0098
 2570DPPC   C1A52529  11.191  15.701  25.965  0.0671  0.0680 -0.1021
 2570DPPC   C2A52530  11.377  15.405  26.186  0.0474  0.1064 -0.2704
 2570DPPC   C3A52531  11.746  15.393  26.431 -0.0591  0.3018  0.4342
 2570DPPC   C4A52532  11.866  15.768  26.706  0.0008 -0.1128  0.3552
 2570DPPC   C1B52533  11.614  15.645  25.296 -0.0353  0.0018  0.0045
 2570DPPC   C2B52534  11.743  15.256  25.364  0.2241 -0.3763  0.0499
 2570DPPC   C3B52535  11.969  14.866  25.368  0.0725 -0.0615  0.2380
 2570DPPC   C4B52536  12.262  14.518  25.304 -0.1695 -0.3014  0.1325
 2571DPPC   NC352537  18.341  -2.563  15.800  0.1004 -0.0638 -0.0891
 2571DPPC   PO452538  18.330  -2.062  15.622 -0.0482 -0.0215  0.3362
 2571DPPC   GL152539  18.056  -1.871  15.999  0.0170 -0.0299  0.0468
 2571DPPC   GL252540  18.153  -1.847  16.180  0.0895  0.0234  0.0400
 2571DPPC   C1A52541  17.721  -1.862  16.371 -0.1394  0.3946 -0.2367
 2571DPPC   C2A52542  17.427  -2.105  16.505  0.4053  0.2382  0.0156
 2571DPPC   C3A52543  17.105  -2.016  16.763  0.0177 -0.1353 -0.2277
 2571DPPC   C4A52544  16.961  -1.608  17.055 -0.1256  0.0632 -0.0050
 2571DPPC   C1B52545  18.191  -1.539  16.583 -0.0383  0.1492  0.0026
 2571DPPC   C2B52546  18.073  -1.507  16.991  0.0394  0.0711 -0.1575
 2571DPPC   C3B52547  18.096  -1.376  17.440  0.0265  0.1265  0.0721
 2571DPPC   C4B52548  18.124  -1.471  17.979  0.2703 -0.0206  0.0686
 2572DPPC   NC352549   2.815   3.843  24.679  0.3183  0.2848 -0.1246
 2572DPPC   PO452550   2.859   3.409  24.704  0.0143 -0.3903 -0.0738
 2572DPPC   GL152551   3.273   3.572  24.663  0.0219  0.0108  0.2040
 2572DPPC   GL252552   3.338   3.371  24.394 -0.0328 -0.4531 -0.0733
 2572DPPC   C1A52553   3.649   3.583  24.818 -0.1704  0.2214 -0.1443
 2572DPPC   C2A52554   3.987   3.625  25.083  0.0611 -0.0119 -0.2079
 2572DPPC   C3A52555   4.290   3.887  25.159 -0.2946 -0.1158 -0.0433
 2572DPPC   C4A52556   4.300   4.311  24.969  0.2169  0.2704  0.1657
 2572DPPC   C1B52557   3.765   3.350  24.384 -0.0344 -0.0923  0.0742
 2572DPPC   C2B52558   4.191   3.240  24.474  0.4281 -0.2208  0.0698
 2572DPPC   C3B52559   4.535   3.067  24.677  0.1219  0.0511  0.2024
 2572DPPC   C4B52560   4.872   2.983  24.894  0.0456  0.1274  0.2224
 2573DPPC   NC352561   8.536  11.779  33.365 -0.1529  0.0257  0.4030
 2573DPPC   PO452562   8.710  12.127  33.165 -0.1744  0.0150  0.1571
 2573DPPC   GL152563   9.074  12.143  32.905 -0.3512 -0.3733 -0.1486
 2573DPPC   GL252564   8.901  12.164  32.630  0.2176  0.2508  0.2605
 2573DPPC   C1A52565   9.263  11.749  32.704 -0.0036 -0.3982  0.1510
 2573DPPC   C2A52566   9.282  11.390  32.357  0.0849 -0.0654 -0.0709
 2573DPPC   C3A52567   9.481  11.121  32.039 -0.0031 -0.1569  0.2332
 2573DPPC   C4A52568   9.646  10.812  31.806 -0.3004  0.0148 -0.0724
 2573DPPC   C1B52569   8.837  11.736  32.438  0.2826  0.0873 -0.1949
 2573DPPC   C2B52570   8.715  11.543  31.988 -0.0251 -0.1910 -0.0549
 2573DPPC   C3B52571   8.745  11.388  31.656 -0.2249  0.0264  0.0407
 2573DPPC   C4B52572   8.975  11.209  31.309 -0.2288 -0.4434 -0.1208
 2574DPPC   NC352573  22.832  -0.745  17.032 -0.1065  0.0721  0.0714
 2574DPPC   PO452574  23.291  -0.765  16.938 -0.4540 -0.0354  0.0348
 2574DPPC   GL152575  23.700  -0.671  17.162  0.1313  0.2453  0.0996
 2574DPPC   GL252576  23.975  -0.756  17.098  0.0421  0.3330  0.1084
 2574DPPC   C1A52577  23.924  -0.654  17.549  0.0391  0.0082 -0.1785
 2574DPPC   C2A52578  24.078  -0.477  18.018 -0.0945  0.3416  0.2938
 2574DPPC   C3A52579  24.355  -0.389  18.334  0.3757  0.3596  0.3702
 2574DPPC   C4A52580  24.629  -0.349  18.617 -0.1547  0.0794  0.0425
 2574DPPC   C1B52581  24.296  -0.940  17.312  0.0310  0.0533 -0.2925
 2574DPPC   C2B52582  24.516  -0.766  17.658 -0.0513  0.3134  0.0152
 2574DPPC   C3B52583  24.606  -0.455  17.882 -0.0383 -0.1019 -0.2822
 2574DPPC   C4B52584  24.471  -0.019  17.929  0.3264  0.1990  0.0199
 2575DPPC   NC352585  19.592   0.650  15.074 -0.0003 -0.0528  0.0727
 2575DPPC   PO452586  19.293   0.289  15.053  0.1495 -0.1752 -0.1768
 2575DPPC   GL152587  19.087   0.668  15.301  0.0486  0.0207  0.1924
 2575DPPC   GL252588  19.168   0.667  15.544  0.3588  0.2532  0.0791
 2575DPPC   C1A52589  18.997   1.159  15.620  0.1304 -0.1121  0.0925
 2575DPPC   C2A52590  18.769   1.544  15.720  0.0319  0.0977  0.0241
 2575DPPC   C3A52591  18.337   1.530  15.712 -0.3637 -0.0809  0.1379
 2575DPPC   C4A52592  17.911   1.679  15.749 -0.1337  0.2427  0.0879
 2575DPPC   C1B52593  19.061   0.761  15.944 -0.2365  0.1005 -0.0076
 2575DPPC   C2B52594  18.631   0.728  16.170 -0.3235  0.0670  0.0895
 2575DPPC   C3B52595  18.220   0.606  16.459  0.4537 -0.0507  0.1044
 2575DPPC   C4B52596  17.910   0.325  16.639 -0.2028 -0.2486  0.2035
 2576DPPC   NC352597   8.518  12.809  19.749 -0.0694  0.0504  0.0308
 2576DPPC   PO452598   8.408  12.481  20.051 -0.1347 -0.1059 -0.0465
 2576DPPC   GL152599   8.605  12.250  19.786  0.1708 -0.1163  0.1255
 2576DPPC   GL252600   8.878  12.374  19.673 -0.2609  0.1679  0.0634
 2576DPPC   C1A52601   8.758  11.880  19.925  0.0050  0.0077 -0.0637
 2576DPPC   C2A52602   8.943  11.704  20.281 -0.2832  0.1728 -0.2038
 2576DPPC   C3A52603   8.945  11.482  20.684  0.0466  0.1166 -0.1777
 2576DPPC   C4A52604   8.844  11.304  21.101 -0.0083 -0.0142  0.1334
 2576DPPC   C1B52605   9.153  12.173  19.990  0.2229 -0.1151 -0.1109
 2576DPPC   C2B52606   9.385  12.046  20.407  0.2181 -0.1992 -0.1240
 2576DPPC   C3B52607   9.419  11.685  20.786 -0.2509  0.1409 -0.4039
 2576DPPC   C4B52608   9.367  11.245  20.863  0.0229 -0.1445 -0.5147
 2577DPPC   NC352609  14.455  15.909  30.607  0.1059 -0.1884  0.1011
 2577DPPC   PO452610  14.030  15.837  30.694 -0.0780 -0.1965 -0.0561
 2577DPPC   GL152611  13.993  15.514  30.378  0.3505  0.1479 -0.0449
 2577DPPC   GL252612  13.732  15.278  30.298  0.0002  0.2060 -0.0225
 2577DPPC   C1A52613  14.151  15.053  30.427 -0.0269  0.2095 -0.2293
 2577DPPC   C2A52614  14.170  14.636  30.315 -0.0584 -0.2049 -0.1512
 2577DPPC   C3A52615  14.263  14.242  30.228 -0.0265  0.3464  0.2691
 2577DPPC   C4A52616  14.535  14.047  29.928 -0.2755 -0.1011 -0.5774
 2577DPPC   C1B52617  13.702  14.761  30.261 -0.0213  0.0655 -0.2750
 2577DPPC   C2B52618  13.766  14.343  30.052 -0.2762  0.0992  0.1131
 2577DPPC   C3B52619  13.859  14.030  29.827 -0.2830 -0.0059  0.2563
 2577DPPC   C4B52620  13.678  13.626  29.726 -0.0299 -0.0916  0.2580
 2578DPPC   NC352621  22.372   1.062  16.410  0.0078 -0.1863  0.1526
 2578DPPC   PO452622  22.541   1.413  16.561 -0.1961 -0.0007 -0.3420
 2578DPPC   GL152623  22.538   1.830  16.321  0.0962 -0.2962  0.0583
 2578DPPC   GL252624  22.616   2.136  16.426  0.0517 -0.2338  0.0299
 2578DPPC   C1A52625  22.635   1.998  15.916  0.2947 -0.2196 -0.0047
 2578DPPC   C2A52626  22.949   2.387  15.854  0.0693  0.3517  0.2566
 2578DPPC   C3A52627  22.963   2.795  15.722  0.1193 -0.0616  0.0017
 2578DPPC   C4A52628  22.935   2.863  15.273  0.0290 -0.0629 -0.1573
 2578DPPC   C1B52629  22.845   2.411  16.756  0.0219  0.1862  0.4101
 2578DPPC   C2B52630  23.110   2.764  16.957 -0.1120  0.4566  0.0134
 2578DPPC   C3B52631  23.242   3.232  17.112 -0.2666 -0.2000  0.3106
 2578DPPC   C4B52632  23.648   3.478  17.159  0.1103  0.2333  0.0991
 2579DPPC   NC352633  21.019  -7.620  21.707 -0.1314 -0.0177 -0.0774
 2579DPPC   PO452634  21.110  -7.531  22.086  0.3948 -0.2910  0.1348
 2579DPPC   GL152635  21.005  -7.020  21.938  0.0665  0.0676 -0.2177
 2579DPPC   GL252636  20.794  -7.200  21.790 -0.1980 -0.3796 -0.0588
 2579DPPC   C1A52637  21.042  -6.538  21.966  0.1450  0.0776 -0.3823
 2579DPPC   C2A52638  20.932  -6.079  22.014  0.0033 -0.2449  0.0372
 2579DPPC   C3A52639  20.963  -5.593  22.116 -0.2356  0.2531  0.0599
 2579DPPC   C4A52640  21.258  -5.256  22.176  0.1696 -0.2708  0.0985
 2579DPPC   C1B52641  20.456  -6.895  21.813 -0.2035 -0.2638  0.0790
 2579DPPC   C2B52642  20.533  -6.545  21.935  0.1187 -0.0407 -0.2150
 2579DPPC   C3B52643  20.449  -6.116  21.816 -0.3231  0.0419  0.4139
 2579DPPC   C4B52644  20.481  -5.715  21.982 -0.2570 -0.0132  0.1876
 2580DPPC   NC352645   6.967  -4.886  26.402  0.0961 -0.0808  0.0180
 2580DPPC   PO452646   6.621  -4.597  26.309  0.3276 -0.3432 -0.3025
 2580DPPC   GL152647   6.670  -4.263  26.481 -0.2299 -0.0039  0.1640
 2580DPPC   GL252648   6.650  -4.181  26.834 -0.0339  0.0849 -0.2978
 2580DPPC   C1A52649   6.816  -3.851  26.365  0.0640 -0.0769 -0.1789
 2580DPPC   C2A52650   7.092  -3.655  26.040  0.1691  0.0342 -0.0056
 2580DPPC   C3A52651   7.336  -3.267  26.025  0.0227  0.1711 -0.1157
 2580DPPC   C4A52652   7.386  -2.758  25.983 -0.1324  0.0699  0.1521
 2580DPPC   C1B52653   7.038  -3.901  26.861  0.2796  0.1207  0.1348
 2580DPPC   C2B52654   7.231  -3.559  26.516  0.1007 -0.1423  0.0925
 2580DPPC   C3B52655   7.358  -3.114  26.521  0.0001 -0.4405  0.1463
 2580DPPC   C4B52656   7.241  -2.660  26.617 -0.0025 -0.2560  0.2847
 2581DPPC   NC352657  16.102  -9.553  15.047 -0.2771  0.2217  0.0928
 2581DPPC   PO452658  16.057  -9.112  15.142 -0.1788  0.0347  0.0101
 2581DPPC   GL152659  16.289  -8.741  15.185 -0.0143 -0.0938 -0.0062
 2581DPPC   GL252660  16.508  -8.733  14.871  0.1395  0.0766  0.0523
 2581DPPC   C1A52661  16.589  -8.460  15.441  0.0457  0.3215 -0.1496
 2581DPPC   C2A52662  16.898  -8.365  15.810  0.1095  0.3050  0.0693
 2581DPPC   C3A52663  17.224  -8.439  16.065 -0.2311  0.1038 -0.0210
 2581DPPC   C4A52664  17.479  -8.357  16.360  0.1826 -0.0358  0.2087
 2581DPPC   C1B52665  16.725  -8.336  14.904  0.2181  0.3344 -0.0174
 2581DPPC   C2B52666  16.631  -7.884  14.839  0.0504  0.1911 -0.1423
 2581DPPC   C3B52667  16.626  -7.521  15.067  0.2103  0.0699  0.1238
 2581DPPC   C4B52668  16.551  -7.336  15.414  0.4089  0.1726 -0.1594
 2582DPPC   NC352669  26.866  10.217  26.959  0.1443 -0.3850  0.1368
 2582DPPC   PO452670  26.922  10.221  27.333 -0.0043 -0.2759  0.1919
 2582DPPC   GL152671  26.704   9.838  27.317 -0.0340  0.1565  0.1494
 2582DPPC   GL252672  26.702   9.739  27.034 -0.1077 -0.2971  0.1114
 2582DPPC   C1A52673  26.572   9.491  27.497 -0.3881 -0.1820  0.0688
 2582DPPC   C2A52674  26.110   9.265  27.505  0.2663  0.0725 -0.0277
 2582DPPC   C3A52675  25.949   8.856  27.665 -0.1307  0.0022 -0.0487
 2582DPPC   C4A52676  25.906   8.378  27.533 -0.3084  0.0328  0.2353
 2582DPPC   C1B52677  26.370   9.516  26.971  0.0648 -0.1487  0.5388
 2582DPPC   C2B52678  26.073   9.274  27.016 -0.0067  0.1031  0.2425
 2582DPPC   C3B52679  25.645   9.286  27.126 -0.0026  0.1330  0.2151
 2582DPPC   C4B52680  25.398   9.554  27.375 -0.1940 -0.0764  0.2509
 2583DPPC   NC352681  15.712  -6.988  30.140 -0.1755  0.0178 -0.0336
 2583DPPC   PO452682  15.930  -6.640  30.411 -0.1750 -0.3290 -0.0682
 2583DPPC   GL152683  16.187  -6.202  30.289  0.0747  0.0076  0.3551
 2583DPPC   GL252684  16.164  -5.940  30.535 -0.1031  0.0409 -0.3770
 2583DPPC   C1A52685  16.118  -6.114  29.880 -0.1488  0.0473 -0.0989
 2583DPPC   C2A52686  16.070  -5.885  29.432 -0.3339 -0.0362 -0.2993
 2583DPPC   C3A52687  15.868  -5.533  29.306 -0.2436 -0.0605 -0.0112
 2583DPPC   C4A52688  15.674  -5.143  29.212 -0.0412 -0.1332  0.0832
 2583DPPC   C1B52689  15.821  -5.698  30.607 -0.0252 -0.1130 -0.1635
 2583DPPC   C2B52690  15.505  -5.316  30.717 -0.0959  0.0812 -0.2675
 2583DPPC   C3B52691  15.238  -4.989  30.427  0.1182 -0.0940 -0.1649
 2583DPPC   C4B52692  15.249  -4.880  30.009  0.3492  0.1225 -0.0350
 2584DPPC   NC352693  23.137  14.165  23.394 -0.0604 -0.0978 -0.0390
 2584DPPC   PO452694  22.962  13.907  23.141 -0.0925  0.0122 -0.1553
 2584DPPC   GL152695  22.645  13.497  23.112 -0.2258  0.1825 -0.1474
 2584DPPC   GL252696  22.533  13.500  23.349 -0.2899 -0.1426 -0.1052
 2584DPPC   C1A52697  22.643  13.011  23.097  0.2667  0.1458 -0.0076
 2584DPPC   C2A52698  22.542  12.581  23.129  0.1540  0.1594  0.0002
 2584DPPC   C3A52699  22.379  12.227  23.085  0.2720  0.0045  0.1128
 2584DPPC   C4A52700  22.599  11.848  23.242 -0.2239  0.0214 -0.1126
 2584DPPC   C1B52701  22.264  13.172  23.393 -0.1223  0.1936 -0.2231
 2584DPPC   C2B52702  22.094  12.737  23.448  0.1670 -0.1004 -0.2820
 2584DPPC   C3B52703  22.175  12.194  23.526 -0.0784  0.0113  0.1522
 2584DPPC   C4B52704  22.527  11.989  23.828  0.0226  0.0008 -0.0317
 2585DPPC   NC352705  17.439  15.306  31.301 -0.2032 -0.3464 -0.2958
 2585DPPC   PO452706  17.562  14.984  31.593 -0.0503  0.0366  0.0556
 2585DPPC   GL152707  17.375  14.539  31.359  0.1175 -0.1498 -0.3114
 2585DPPC   GL252708  17.351  14.257  31.657 -0.0302  0.1016 -0.0611
 2585DPPC   C1A52709  17.085  14.217  31.191 -0.0862  0.1093 -0.2036
 2585DPPC   C2A52710  16.918  13.765  31.212  0.2153 -0.0564  0.1568
 2585DPPC   C3A52711  16.698  13.385  31.215  0.2403  0.0329 -0.2147
 2585DPPC   C4A52712  16.444  12.990  31.392 -0.0160 -0.0462 -0.0419
 2585DPPC   C1B52713  17.392  13.869  31.525  0.3475 -0.1303 -0.1112
 2585DPPC   C2B52714  17.505  13.542  31.306 -0.2588  0.1214 -0.2473
 2585DPPC   C3B52715  17.747  13.551  30.900 -0.2017 -0.0438 -0.1999
 2585DPPC   C4B52716  18.006  13.830  30.631 -0.1017 -0.1511  0.0272
 2586DPPC   NC352717  16.779  -4.104  15.594  0.1429 -0.0943 -0.4006
 2586DPPC   PO452718  16.806  -3.734  15.641  0.4014  0.1044 -0.3569
 2586DPPC   GL152719  16.352  -3.826  15.666 -0.2152 -0.1092  0.0859
 2586DPPC   GL252720  16.301  -4.118  15.392  0.1137  0.2268 -0.1030
 2586DPPC   C1A52721  15.795  -3.944  15.714  0.4034 -0.0103 -0.2660
 2586DPPC   C2A52722  15.340  -3.995  15.779 -0.2961  0.1413 -0.0120
 2586DPPC   C3A52723  15.042  -3.536  15.912  0.2754 -0.1124  0.0160
 2586DPPC   C4A52724  14.601  -3.611  16.174  0.1232 -0.0783 -0.2036
 2586DPPC   C1B52725  16.075  -3.750  15.281  0.1259 -0.1555  0.0179
 2586DPPC   C2B52726  15.722  -3.518  15.004 -0.0472 -0.2212  0.1468
 2586DPPC   C3B52727  15.233  -3.497  15.023  0.1347  0.1298 -0.2581
 2586DPPC   C4B52728  14.866  -3.451  14.798  0.5912 -0.0073 -0.2125
 2587DPPC   NC352729  22.296  12.699  19.430  0.1057  0.0511  0.0683
 2587DPPC   PO452730  22.515  12.958  19.709  0.1261  0.3003 -0.0886
 2587DPPC   GL152731  22.303  12.685  19.969 -0.1038  0.0335  0.2980
 2587DPPC   GL252732  22.012  12.451  19.840  0.0599  0.2893  0.0633
 2587DPPC   C1A52733  22.165  12.480  20.333 -0.0684 -0.1122  0.0120
 2587DPPC   C2A52734  22.188  12.139  20.621  0.3889  0.6714 -0.1891
 2587DPPC   C3A52735  21.962  11.937  20.977 -0.1101  0.2713  0.4012
 2587DPPC   C4A52736  22.166  11.650  21.312  0.2623  0.2567 -0.1690
 2587DPPC   C1B52737  21.705  12.176  19.941  0.1531 -0.1290 -0.0175
 2587DPPC   C2B52738  21.405  11.930  20.223  0.1449  0.0185  0.1708
 2587DPPC   C3B52739  21.111  11.670  20.507 -0.1043 -0.1961  0.0418
 2587DPPC   C4B52740  20.705  11.392  20.492 -0.2228  0.4430 -0.0065
 2588DPPC   NC352741  19.168  14.375  19.861  0.1707  0.1043 -0.1514
 2588DPPC   PO452742  18.793  14.272  19.758  0.3716  0.1416 -0.0193
 2588DPPC   GL152743  18.594  13.835  19.633  0.2602  0.0023 -0.1193
 2588DPPC   GL252744  18.662  13.583  19.428 -0.3589 -0.0886 -0.1670
 2588DPPC   C1A52745  18.460  13.432  19.867 -0.1899  0.1066 -0.0074
 2588DPPC   C2A52746  18.704  13.037  19.936 -0.0314 -0.2622 -0.3286
 2588DPPC   C3A52747  19.080  12.890  19.649 -0.1682  0.1973 -0.1452
 2588DPPC   C4A52748  18.923  12.628  19.331 -0.1284 -0.2552  0.1658
 2588DPPC   C1B52749  18.720  13.154  19.335  0.3492 -0.1318 -0.3253
 2588DPPC   C2B52750  18.948  13.004  18.980 -0.0603  0.1139  0.0932
 2588DPPC   C3B52751  19.190  12.756  18.823  0.1338  0.0291 -0.0477
 2588DPPC   C4B52752  19.267  12.381  18.950  0.0518 -0.0140  0.2169
 2589DPPC   NC352753  19.777  -5.267  14.652 -0.2004  0.2774 -0.1009
 2589DPPC   PO452754  19.359  -5.088  14.597 -0.1928  0.1228 -0.0734
 2589DPPC   GL152755  19.436  -5.497  14.367  0.3091  0.2154 -0.0499
 2589DPPC   GL252756  19.720  -5.744  14.413  0.0579 -0.0950 -0.0176
 2589DPPC   C1A52757  19.331  -5.820  13.928 -0.1028  0.1025  0.1406
 2589DPPC   C2A52758  18.886  -5.993  13.813 -0.1170  0.1258  0.3569
 2589DPPC   C3A52759  18.508  -6.090  13.728  0.1353 -0.2608 -0.0373
 2589DPPC   C4A52760  18.162  -6.292  13.868 -0.1780 -0.0307  0.0253
 2589DPPC   C1B52761  19.545  -6.100  14.331 -0.0192  0.0076 -0.0149
 2589DPPC   C2B52762  19.218  -6.233  14.055 -0.0517 -0.0606 -0.1090
 2589DPPC   C3B52763  19.049  -6.485  13.752  0.1327 -0.0561  0.0660
 2589DPPC   C4B52764  18.597  -6.686  13.581 -0.1906 -0.0063  0.1208
 2590DPPC   NC352765  16.148  -8.120  19.367  0.0971 -0.2460  0.1526
 2590DPPC   PO452766  16.380  -8.395  19.044  0.1825 -0.1720  0.0984
 2590DPPC   GL152767  16.419  -7.998  18.968 -0.2527  0.0370  0.0978
 2590DPPC   GL252768  16.141  -7.826  18.909 -0.0000 -0.1890  0.2101
 2590DPPC   C1A52769  16.768  -7.761  18.962  0.0170 -0.1658 -0.0937
 2590DPPC   C2A52770  17.040  -7.458  19.174 -0.0883  0.1538  0.0270
 2590DPPC   C3A52771  17.283  -7.119  19.324 -0.1660 -0.3263  0.1761
 2590DPPC   C4A52772  17.564  -6.805  19.298  0.3032  0.0853 -0.1529
 2590DPPC   C1B52773  16.225  -7.427  18.828 -0.0661  0.1512  0.3846
 2590DPPC   C2B52774  16.312  -7.077  18.695  0.4024 -0.0275 -0.2004
 2590DPPC   C3B52775  16.452  -6.745  18.835  0.0202 -0.2518 -0.2439
 2590DPPC   C4B52776  16.693  -6.319  18.995 -0.1532 -0.0473 -0.1511
 2591DPPC   NC352777  28.842   4.489  29.883 -0.1280  0.0245 -0.1992
 2591DPPC   PO452778  28.425   4.578  29.838 -0.0931 -0.0537 -0.1242
 2591DPPC   GL152779  28.143   4.713  29.569 -0.1520  0.0822 -0.2974
 2591DPPC   GL252780  28.211   4.742  29.188 -0.0611  0.1087 -0.0008
 2591DPPC   C1A52781  27.684   4.750  29.380 -0.0888  0.1289 -0.1633
 2591DPPC   C2A52782  27.224   4.726  29.431  0.1748 -0.0699 -0.2193
 2591DPPC   C3A52783  26.781   4.717  29.190 -0.0075  0.2928 -0.0823
 2591DPPC   C4A52784  26.598   4.670  28.859  0.0864  0.4293 -0.0431
 2591DPPC   C1B52785  27.818   4.759  28.841 -0.1128  0.1719 -0.0898
 2591DPPC   C2B52786  27.611   4.920  28.502 -0.3518 -0.3710  0.1480
 2591DPPC   C3B52787  27.303   5.229  28.384 -0.2588  0.3186 -0.2118
 2591DPPC   C4B52788  26.849   5.364  28.278 -0.1898  0.1649  0.2642
 2592DPPC   NC352789  28.896   7.963  28.367 -0.1223  0.0449  0.2138
 2592DPPC   PO452790  28.413   7.993  28.423 -0.1941 -0.0130 -0.3126
 2592DPPC   GL152791  28.029   7.838  28.152  0.3802  0.2578 -0.0155
 2592DPPC   GL252792  27.800   7.899  28.334  0.0709 -0.2141  0.1091
 2592DPPC   C1A52793  27.795   7.450  28.109  0.1231 -0.0185  0.3478
 2592DPPC   C2A52794  27.472   7.353  28.332 -0.1329  0.1335  0.1696
 2592DPPC   C3A52795  27.210   7.001  28.249 -0.0636 -0.3297  0.1773
 2592DPPC   C4A52796  26.829   6.721  28.109  0.0861 -0.0127  0.0406
 2592DPPC   C1B52797  27.347   7.803  28.465  0.0093 -0.1530  0.0002
 2592DPPC   C2B52798  26.968   7.465  28.292  0.1113 -0.0036 -0.2473
 2592DPPC   C3B52799  26.938   7.095  28.613  0.1528  0.2774 -0.0093
 2592DPPC   C4B52800  27.162   6.668  28.633  0.1481  0.1460  0.5092
 2593DPPC   NC352801   3.232  -0.404  22.881 -0.0980 -0.0050 -0.1966
 2593DPPC   PO452802   3.674  -0.363  23.075  0.1920 -0.1605 -0.0598
 2593DPPC   GL152803   4.073  -0.472  23.101  0.1975 -0.0804 -0.1605
 2593DPPC   GL252804   4.185  -0.417  22.798  0.0478  0.0342  0.0529
 2593DPPC   C1A52805   4.551  -0.584  23.257  0.1609  0.2727  0.0639
 2593DPPC   C2A52806   4.904  -0.395  23.064 -0.0248 -0.0882 -0.3388
 2593DPPC   C3A52807   5.285  -0.352  23.323 -0.0109  0.1649  0.0956
 2593DPPC   C4A52808   5.655  -0.208  23.396  0.2484 -0.0178 -0.1179
 2593DPPC   C1B52809   4.629  -0.313  22.643  0.0240 -0.2063  0.4190
 2593DPPC   C2B52810   5.039  -0.002  22.768  0.1399 -0.1970  0.0491
 2593DPPC   C3B52811   5.388  -0.180  22.890  0.1355 -0.1647 -0.1297
 2593DPPC   C4B52812   5.844  -0.160  22.934  0.2067  0.0802  0.0191
 2594DPPC   NC352813  12.809  -1.652  13.007  0.0654  0.0810 -0.0909
 2594DPPC   PO452814  12.494  -1.598  13.386  0.3994  0.2658 -0.0473
 2594DPPC   GL152815  12.698  -1.480  13.764  0.1162 -0.0164  0.1587
 2594DPPC   GL252816  12.535  -1.619  14.089  0.2422 -0.0256  0.1614
 2594DPPC   C1A52817  13.024  -1.148  13.804 -0.0946  0.2691  0.4037
 2594DPPC   C2A52818  13.177  -0.892  14.116  0.1151  0.1179 -0.0998
 2594DPPC   C3A52819  13.097  -0.849  14.570  0.1731  0.2033 -0.2314
 2594DPPC   C4A52820  13.344  -0.946  14.950  0.1328 -0.0955 -0.0119
 2594DPPC   C1B52821  12.720  -1.251  14.167  0.2416 -0.3459 -0.0028
 2594DPPC   C2B52822  12.598  -0.818  14.057 -0.0216 -0.0899  0.0128
 2594DPPC   C3B52823  12.547  -0.529  14.421 -0.3223 -0.3053  0.1795
 2594DPPC   C4B52824  12.446  -0.542  14.805 -0.2616  0.0738  0.2128
 2595DPPC   NC352825   3.290  -0.699  25.762  0.0648 -0.2143 -0.2182
 2595DPPC   PO452826   3.630  -0.913  25.836 -0.3361 -0.1333  0.0827
 2595DPPC   GL152827   3.981  -0.876  25.673  0.0686 -0.2318 -0.2458
 2595DPPC   GL252828   3.943  -0.962  25.382  0.2820 -0.2331  0.1596
 2595DPPC   C1A52829   4.157  -0.539  25.548 -0.1141  0.0977  0.2883
 2595DPPC   C2A52830   4.493  -0.164  25.615  0.0132 -0.0634 -0.1003
 2595DPPC   C3A52831   4.877  -0.084  25.881  0.0262 -0.2641  0.0241
 2595DPPC   C4A52832   5.212  -0.018  26.143  0.1149  0.1963 -0.1728
 2595DPPC   C1B52833   4.275  -0.798  25.149 -0.0956 -0.1407 -0.4078
 2595DPPC   C2B52834   4.661  -0.593  25.307 -0.3533  0.1846  0.1824
 2595DPPC   C3B52835   5.017  -0.375  25.465 -0.1077  0.1555  0.2745
 2595DPPC   C4B52836   5.387  -0.085  25.620  0.1832 -0.2383  0.1311
 2596DPPC   NC352837  22.764  -4.270  18.640 -0.0247  0.2287 -0.2717
 2596DPPC   PO452838  22.418  -4.516  18.556  0.2126  0.1438  0.2100
 2596DPPC   GL152839  22.643  -4.702  18.966 -0.2458 -0.2138  0.2962
 2596DPPC   GL252840  22.900  -4.407  19.133  0.1057 -0.0310 -0.0117
 2596DPPC   C1A52841  23.176  -4.790  18.977 -0.1046  0.0980 -0.1813
 2596DPPC   C2A52842  23.601  -4.529  18.888 -0.0736  0.4700  0.1571
 2596DPPC   C3A52843  24.036  -4.362  18.956 -0.1150 -0.1576 -0.0558
 2596DPPC   C4A52844  24.414  -4.435  18.908 -0.2360 -0.1430 -0.1788
 2596DPPC   C1B52845  23.335  -4.394  19.334 -0.3089  0.0748 -0.0101
 2596DPPC   C2B52846  23.680  -4.238  19.407  0.2040  0.4692 -0.0746
 2596DPPC   C3B52847  23.774  -3.933  19.747  0.1365 -0.0924 -0.0464
 2596DPPC   C4B52848  23.587  -3.439  19.577 -0.3431  0.0734  0.0959
 2597DPPC   NC352849  19.818  15.782  26.123  0.3369 -0.1987 -0.1617
 2597DPPC   PO452850  19.604  15.757  26.462  0.2395 -0.1661  0.0370
 2597DPPC   GL152851  19.475  15.409  26.765 -0.0839 -0.0838  0.1728
 2597DPPC   GL252852  19.210  15.260  26.615  0.0678 -0.3408 -0.0476
 2597DPPC   C1A52853  19.248  15.405  27.163  0.0430  0.0270  0.0925
 2597DPPC   C2A52854  19.092  15.001  27.469 -0.1285  0.2527  0.1008
 2597DPPC   C3A52855  19.089  14.505  27.454  0.1378 -0.1097 -0.1002
 2597DPPC   C4A52856  19.224  14.040  27.353 -0.0752 -0.1269 -0.0406
 2597DPPC   C1B52857  19.331  14.827  26.529  0.1572 -0.0768  0.2289
 2597DPPC   C2B52858  19.531  14.471  26.529 -0.1730  0.2347  0.0478
 2597DPPC   C3B52859  19.629  14.090  26.354  0.1153 -0.0733  0.0839
 2597DPPC   C4B52860  19.595  13.709  25.976  0.0634 -0.1205 -0.0121
 2598DPPC   NC352861  22.368   0.583  16.310  0.2601 -0.0393 -0.0776
 2598DPPC   PO452862  22.276   0.653  16.713 -0.2890  0.0437  0.2282
 2598DPPC   GL152863  22.447   0.939  16.949  0.0810  0.1077 -0.1313
 2598DPPC   GL252864  22.279   0.769  17.230 -0.0786 -0.1757  0.2982
 2598DPPC   C1A52865  22.764   1.232  17.093  0.1697 -0.2988 -0.0570
 2598DPPC   C2A52866  23.136   1.489  16.925  0.3024 -0.0607 -0.2831
 2598DPPC   C3A52867  23.175   1.897  16.699 -0.1826 -0.1878 -0.0213
 2598DPPC   C4A52868  23.336   2.287  16.851  0.2228 -0.0797  0.0782
 2598DPPC   C1B52869  22.538   1.042  17.476 -0.0247  0.1604  0.0465
 2598DPPC   C2B52870  23.007   1.106  17.527 -0.1602  0.0182 -0.0460
 2598DPPC   C3B52871  23.257   1.397  17.614  0.0438 -0.0295  0.1963
 2598DPPC   C4B52872  23.330   1.554  18.001 -0.0202  0.3536 -0.0749
 2599DPPC   NC352873  16.894  -3.314  15.983  0.0115 -0.2926  0.4300
 2599DPPC   PO452874  17.171  -2.881  15.968 -0.0008  0.3371 -0.1395
 2599DPPC   GL152875  16.926  -2.785  16.318 -0.1395 -0.0610  0.2099
 2599DPPC   GL252876  16.971  -2.527  16.475 -0.1415  0.3028 -0.1152
 2599DPPC   C1A52877  16.500  -2.902  16.298 -0.1941  0.1875  0.0862
 2599DPPC   C2A52878  16.163  -3.109  16.108 -0.1037 -0.0866 -0.0424
 2599DPPC   C3A52879  15.982  -3.491  16.317 -0.0445 -0.0676 -0.2284
 2599DPPC   C4A52880  15.898  -3.971  16.159 -0.5037 -0.1450  0.0160
 2599DPPC   C1B52881  16.542  -2.390  16.212  0.0300 -0.1924 -0.2944
 2599DPPC   C2B52882  16.116  -2.569  16.070 -0.4113 -0.1413 -0.0805
 2599DPPC   C3B52883  15.666  -2.691  16.101 -0.1371  0.1053  0.1413
 2599DPPC   C4B52884  15.259  -2.932  16.102  0.0461 -0.2284  0.0141
 2600DPPC   NC352885   8.559   6.421  35.667 -0.1785 -0.0812  0.0685
 2600DPPC   PO452886   8.976   6.568  35.624  0.0742  0.0435 -0.0649
 2600DPPC   GL152887   9.309   6.582  35.347 -0.0010  0.0915 -0.0233
 2600DPPC   GL252888   9.216   6.697  35.132 -0.0322 -0.0510 -0.0336
 2600DPPC   C1A52889   9.479   6.283  35.089  0.2373  0.1845 -0.0063
 2600DPPC   C2A52890   9.634   5.895  34.741  0.0887 -0.0930 -0.3300
 2600DPPC   C3A52891   9.636   5.500  34.333  0.2232 -0.0698  0.0084
 2600DPPC   C4A52892   9.887   5.222  34.125 -0.0211 -0.3662  0.2819
 2600DPPC   C1B52893   9.333   6.679  34.740 -0.1081  0.2816  0.0068
 2600DPPC   C2B52894   9.432   6.917  34.420 -0.0657 -0.0424  0.2310
 2600DPPC   C3B52895   9.576   7.059  34.063  0.2938 -0.2599 -0.0236
 2600DPPC   C4B52896   9.793   7.163  33.634 -0.1248  0.0523 -0.0507
 2601DPPC   NC352897  27.471   4.687  31.650  0.1020  0.0348  0.0981
 2601DPPC   PO452898  27.288   5.035  31.845  0.0740 -0.0502  0.1167
 2601DPPC   GL152899  27.299   5.098  31.356 -0.1318  0.1609 -0.1075
 2601DPPC   GL252900  27.496   4.987  31.140 -0.0504  0.0005  0.0560
 2601DPPC   C1A52901  27.064   5.295  31.057 -0.3051  0.3125 -0.0111
 2601DPPC   C2A52902  26.721   5.164  30.889 -0.1985  0.0065  0.1490
 2601DPPC   C3A52903  26.499   4.929  30.522 -0.3314  0.1979  0.0339
 2601DPPC   C4A52904  26.541   4.780  30.148 -0.1216  0.0797 -0.2489
 2601DPPC   C1B52905  27.342   4.915  30.740  0.1936 -0.0809  0.0012
 2601DPPC   C2B52906  27.079   4.630  30.601  0.0909 -0.1213  0.0007
 2601DPPC   C3B52907  26.826   4.269  30.860  0.3855 -0.2466 -0.0780
 2601DPPC   C4B52908  26.701   4.381  31.378  0.1596 -0.0817 -0.2858
 2602DPPC   NC352909  19.798  -1.375  14.016 -0.0572  0.0211 -0.1287
 2602DPPC   PO452910  19.531  -1.485  13.704  0.1227 -0.0999  0.2355
 2602DPPC   GL152911  19.659  -1.603  13.134  0.0206 -0.0157 -0.1449
 2602DPPC   GL252912  19.684  -1.938  13.154  0.1961  0.1828  0.0681
 2602DPPC   C1A52913  19.829  -1.516  12.642 -0.0919 -0.0475  0.2306
 2602DPPC   C2A52914  19.897  -1.793  12.251  0.0405  0.1962  0.1744
 2602DPPC   C3A52915  20.102  -2.080  11.982 -0.0061  0.4374 -0.2289
 2602DPPC   C4A52916  19.833  -2.288  11.669  0.1216  0.4330 -0.1136
 2602DPPC   C1B52917  19.302  -1.833  12.907 -0.2016  0.4780  0.3674
 2602DPPC   C2B52918  19.052  -2.022  12.648 -0.0694 -0.1192 -0.1815
 2602DPPC   C3B52919  19.196  -2.349  12.428 -0.3674  0.0330 -0.1344
 2602DPPC   C4B52920  19.510  -2.704  12.475 -0.0460  0.0834 -0.1164
 2603DPPC   NC352921   3.483   5.806  23.184 -0.1310 -0.1451  0.1494
 2603DPPC   PO452922   3.205   5.580  23.464 -0.1581  0.1728  0.0979
 2603DPPC   GL152923   3.632   5.459  23.548 -0.1127  0.0454  0.1428
 2603DPPC   GL252924   3.649   5.451  23.849  0.1145 -0.2827  0.0901
 2603DPPC   C1A52925   4.141   5.351  23.576 -0.3096  0.0089 -0.1649
 2603DPPC   C2A52926   4.240   4.930  23.605  0.0814  0.0194 -0.0265
 2603DPPC   C3A52927   4.446   4.595  23.488 -0.0442 -0.1828 -0.2082
 2603DPPC   C4A52928   4.855   4.630  23.440 -0.2829 -0.2500  0.0861
 2603DPPC   C1B52929   3.957   5.138  23.972  0.1567  0.1393 -0.4060
 2603DPPC   C2B52930   4.341   4.955  24.152  0.2941 -0.1447 -0.2244
 2603DPPC   C3B52931   4.566   4.974  24.532 -0.2404 -0.1865  0.1239
 2603DPPC   C4B52932   4.742   5.116  24.902 -0.0833  0.1172 -0.1114
 2604DPPC   NC352933  23.494  -1.480  16.628 -0.2633  0.0709  0.0355
 2604DPPC   PO452934  23.504  -1.838  16.374 -0.0626  0.0118 -0.0027
 2604DPPC   GL152935  23.783  -1.562  16.201 -0.1337 -0.2354 -0.0616
 2604DPPC   GL252936  23.859  -1.529  15.856 -0.1403 -0.2121 -0.1634
 2604DPPC   C1A52937  24.304  -1.338  16.040  0.5224 -0.0170 -0.0059
 2604DPPC   C2A52938  24.610  -1.117  16.003  0.0780 -0.0529 -0.2911
 2604DPPC   C3A52939  24.996  -0.942  16.113  0.1155 -0.0040  0.1378
 2604DPPC   C4A52940  25.009  -0.565  16.371  0.1988 -0.1829  0.1224
 2604DPPC   C1B52941  24.094  -1.298  15.536  0.1719  0.1566 -0.2920
 2604DPPC   C2B52942  24.080  -1.442  15.107 -0.2816 -0.3341  0.3514
 2604DPPC   C3B52943  24.160  -1.411  14.708 -0.0576 -0.1433  0.1581
 2604DPPC   C4B52944  24.629  -1.645  14.663 -0.1379  0.1158 -0.1379
 2605DPPC   NC352945  19.369  -5.580  30.986  0.2744 -0.2274  0.1946
 2605DPPC   PO452946  19.740  -5.638  30.807 -0.0316  0.2199  0.1662
 2605DPPC   GL152947  19.544  -5.325  30.582 -0.5094  0.0905 -0.0563
 2605DPPC   GL252948  19.850  -5.190  30.585 -0.0623  0.0085  0.1405
 2605DPPC   C1A52949  19.231  -5.293  30.310  0.0643  0.2734  0.3028
 2605DPPC   C2A52950  19.043  -5.210  29.887  0.0881 -0.1931  0.0642
 2605DPPC   C3A52951  18.850  -4.894  29.698  0.1337 -0.3580  0.0405
 2605DPPC   C4A52952  18.779  -4.527  29.589  0.0263  0.0441 -0.2144
 2605DPPC   C1B52953  19.947  -4.796  30.560 -0.1072  0.5591 -0.1120
 2605DPPC   C2B52954  19.788  -4.413  30.373  0.2055 -0.0897  0.1074
 2605DPPC   C3B52955  19.581  -4.331  30.012  0.2570 -0.1352 -0.3221
 2605DPPC   C4B52956  19.230  -4.488  29.984  0.0854  0.2372  0.1483
 2606DPPC   NC352957   8.696   8.534  27.059 -0.0358  0.0051  0.1428
 2606DPPC   PO452958   8.650   8.844  26.753 -0.0256 -0.2393  0.0086
 2606DPPC   GL152959   8.342   9.080  26.819 -0.1787 -0.1161 -0.0021
 2606DPPC   GL252960   8.332   9.160  26.534 -0.0086 -0.3519 -0.2980
 2606DPPC   C1A52961   8.131   9.368  27.144  0.0748  0.0084 -0.0720
 2606DPPC   C2A52962   7.806   9.720  27.252 -0.3558 -0.0378 -0.0137
 2606DPPC   C3A52963   7.538  10.103  27.418 -0.0363  0.1409  0.2906
 2606DPPC   C4A52964   7.309  10.410  27.066  0.1189  0.1239 -0.1317
 2606DPPC   C1B52965   8.050   9.416  26.681  0.0482  0.2520  0.3010
 2606DPPC   C2B52966   7.751   9.642  26.779  0.0944 -0.3096  0.0047
 2606DPPC   C3B52967   7.393   9.845  27.052  0.1843  0.1564  0.0597
 2606DPPC   C4B52968   6.924   9.954  27.237  0.4706 -0.2072 -0.2489
 2607DPPC   NC352969  17.279  15.458  22.345  0.3026  0.1422  0.0642
 2607DPPC   PO452970  17.705  15.431  22.285  0.2185  0.3028  0.0799
 2607DPPC   GL152971  17.851  14.936  22.260  0.0242  0.1212 -0.0241
 2607DPPC   GL252972  17.891  14.719  22.025  0.0268  0.1036  0.2490
 2607DPPC   C1A52973  17.949  14.632  22.507  0.2489 -0.0931  0.1195
 2607DPPC   C2A52974  18.103  14.298  22.684  0.3664  0.0474  0.0496
 2607DPPC   C3A52975  18.364  13.963  22.717 -0.4022 -0.1114 -0.1290
 2607DPPC   C4A52976  18.669  13.534  22.601  0.1786 -0.3230 -0.1316
 2607DPPC   C1B52977  17.576  14.375  22.158  0.0998  0.0350 -0.1887
 2607DPPC   C2B52978  17.627  13.984  22.288 -0.2340  0.1769 -0.1681
 2607DPPC   C3B52979  17.393  13.783  22.474  0.0447  0.5781 -0.0339
 2607DPPC   C4B52980  17.431  13.401  22.604  0.3850 -0.0273 -0.1238
 2608DPPC   NC352981  18.427  -8.725  19.640 -0.1715  0.2462  0.1061
 2608DPPC   PO452982  18.897  -8.651  19.570  0.3458 -0.1816  0.1726
 2608DPPC   GL152983  18.738  -8.464  19.271 -0.0221 -0.4068 -0.1145
 2608DPPC   GL252984  18.534  -8.220  19.296  0.1728 -0.2552 -0.0367
 2608DPPC   C1A52985  18.976  -8.140  19.057 -0.0222 -0.2406  0.0872
 2608DPPC   C2A52986  19.082  -7.777  18.992  0.0523  0.0696  0.1550
 2608DPPC   C3A52987  19.423  -7.659  18.822  0.0664  0.0595  0.2400
 2608DPPC   C4A52988  19.568  -7.312  18.547  0.2799  0.2289 -0.1290
 2608DPPC   C1B52989  18.341  -7.761  18.970  0.0994  0.0289  0.1064
 2608DPPC   C2B52990  18.673  -7.553  18.839 -0.1082 -0.0089  0.2900
 2608DPPC   C3B52991  18.655  -7.135  18.550  0.2460 -0.1789 -0.0042
 2608DPPC   C4B52992  18.413  -6.739  18.431 -0.0353 -0.0341  0.1320
 2609DPPC   NC352993  22.822  -6.387  24.563 -0.0156  0.3546 -0.1970
 2609DPPC   PO452994  22.668  -6.602  24.262 -0.2396  0.3301 -0.0320
 2609DPPC   GL152995  22.348  -6.484  24.243  0.2270  0.1091 -0.0708
 2609DPPC   GL252996  22.035  -6.724  24.107  0.0830 -0.1103 -0.0173
 2609DPPC   C1A52997  22.003  -6.298  24.382 -0.5078  0.2621  0.0031
 2609DPPC   C2A52998  21.720  -6.153  24.137  0.3132 -0.1422  0.0981
 2609DPPC   C3A52999  21.352  -6.015  24.038 -0.0515  0.1763  0.1001
 2609DPPC   C4A53000  21.019  -5.733  24.060  0.3137  0.1354  0.0345
 2609DPPC   C1B53001  21.916  -6.430  23.785  0.0725  0.1136  0.0106
 2609DPPC   C2B53002  22.004  -6.037  23.572  0.1524 -0.0455 -0.0495
 2609DPPC   C3B53003  22.134  -5.604  23.527  0.3104  0.0282 -0.0323
 2609DPPC   C4B53004  22.343  -5.351  23.852  0.5391  0.1817 -0.2930
 2610DPPC   NC353005  16.071   1.277  32.846  0.5519 -0.2150  0.3935
 2610DPPC   PO453006  16.319   0.985  32.949  0.0708 -0.3225  0.0893
 2610DPPC   GL153007  16.195   0.837  33.206 -0.1781 -0.0758 -0.0911
 2610DPPC   GL253008  16.109   1.136  33.386  0.1157 -0.1311 -0.0591
 2610DPPC   C1A53009  16.199   0.567  33.523 -0.2213 -0.0341  0.2295
 2610DPPC   C2A53010  16.292   0.419  33.883 -0.5237 -0.1694  0.1496
 2610DPPC   C3A53011  16.268   0.258  34.309 -0.1713  0.1357 -0.0810
 2610DPPC   C4A53012  16.020  -0.081  34.359  0.3103 -0.0297 -0.0494
 2610DPPC   C1B53013  16.432   0.996  33.736 -0.2889 -0.0555  0.2352
 2610DPPC   C2B53014  16.506   0.801  34.137  0.0853  0.0367  0.1608
 2610DPPC   C3B53015  16.741   0.675  34.411  0.0145 -0.0188 -0.1073
 2610DPPC   C4B53016  16.935   0.819  34.874  0.0431  0.0689  0.1078
 2611DPPC   NC353017  11.534  -2.676  28.044  0.0676 -0.1142 -0.2299
 2611DPPC   PO453018  11.175  -2.481  28.065  0.2446  0.0386 -0.1733
 2611DPPC   GL153019  10.913  -2.737  28.392  0.1313  0.0285 -0.0701
 2611DPPC   GL253020  11.145  -2.802  28.483 -0.1122  0.1057 -0.3001
 2611DPPC   C1A53021  10.628  -3.027  28.338  0.1807  0.0350  0.3735
 2611DPPC   C2A53022  10.644  -3.514  28.384  0.2183  0.1596 -0.4020
 2611DPPC   C3A53023  10.331  -3.837  28.463 -0.1533  0.2548  0.3114
 2611DPPC   C4A53024  10.139  -4.029  28.797  0.0560 -0.0148 -0.0555
 2611DPPC   C1B53025  11.074  -3.261  28.601  0.0416  0.2638  0.0813
 2611DPPC   C2B53026  11.076  -3.609  28.701  0.0912 -0.3727 -0.1000
 2611DPPC   C3B53027  10.923  -4.008  28.592 -0.1097 -0.2062 -0.3385
 2611DPPC   C4B53028  10.581  -4.336  28.713 -0.2078  0.1579 -0.0694
 2612DPPC   NC353029  17.495   4.288  33.708  0.0834 -0.0878  0.0457
 2612DPPC   PO453030  17.400   4.740  33.653  0.4118 -0.0333 -0.1077
 2612DPPC   GL153031  17.312   4.583  34.054  0.0980 -0.0883 -0.3967
 2612DPPC   GL253032  17.601   4.333  34.200  0.0031 -0.3363  0.1385
 2612DPPC   C1A53033  17.130   4.528  34.406 -0.1507 -0.1444  0.0964
 2612DPPC   C2A53034  17.007   4.162  34.762 -0.2113  0.3492 -0.2130
 2612DPPC   C3A53035  17.023   4.068  35.138 -0.1127  0.1833  0.1904
 2612DPPC   C4A53036  17.211   3.927  35.442  0.0344 -0.2347  0.0790
 2612DPPC   C1B53037  17.479   4.132  34.610  0.2139 -0.4510 -0.1806
 2612DPPC   C2B53038  17.502   4.104  35.078 -0.1416 -0.0310  0.5436
 2612DPPC   C3B53039  17.794   3.823  35.341  0.2624 -0.1070  0.0443
 2612DPPC   C4B53040  18.046   3.753  35.786  0.0175 -0.0117  0.1050
 2613DPPC   NC353041  24.160  -6.970  12.933 -0.2736 -0.5954  0.0427
 2613DPPC   PO453042  24.417  -6.568  13.092  0.0207 -0.0420 -0.3188
 2613DPPC   GL153043  24.166  -6.316  13.341 -0.0752 -0.1471  0.1641
 2613DPPC   GL253044  24.253  -5.951  13.377  0.1118  0.1160 -0.0351
 2613DPPC   C1A53045  24.153  -6.188  13.803  0.0373  0.0355 -0.0620
 2613DPPC   C2A53046  24.227  -6.085  14.257 -0.0298 -0.3547  0.0982
 2613DPPC   C3A53047  24.424  -6.018  14.647  0.3318  0.1265 -0.1693
 2613DPPC   C4A53048  24.433  -5.619  14.883  0.3232  0.1147  0.1676
 2613DPPC   C1B53049  23.941  -5.724  13.395  0.0449 -0.0736 -0.2002
 2613DPPC   C2B53050  23.512  -5.660  13.464 -0.0831 -0.0685 -0.1140
 2613DPPC   C3B53051  23.117  -5.431  13.413  0.3726 -0.2036  0.0016
 2613DPPC   C4B53052  22.809  -5.477  13.135 -0.2529 -0.0507  0.0059
 2614DPPC   NC353053  24.941  -2.348  31.966 -0.0209  0.0913  0.3684
 2614DPPC   PO453054  24.434  -2.360  32.063 -0.0701  0.0176  0.1823
 2614DPPC   GL153055  24.372  -1.974  31.809 -0.4415 -0.3451 -0.0486
 2614DPPC   GL253056  24.354  -1.678  32.015 -0.0004  0.0516 -0.2290
 2614DPPC   C1A53057  24.217  -1.601  31.528 -0.0787  0.4334  0.3277
 2614DPPC   C2A53058  24.058  -1.168  31.510 -0.0488  0.4090 -0.1617
 2614DPPC   C3A53059  23.834  -0.766  31.479  0.4243 -0.1825  0.0516
 2614DPPC   C4A53060  23.474  -0.657  31.723 -0.2128 -0.3063 -0.2613
 2614DPPC   C1B53061  24.609  -1.404  31.802 -0.1198 -0.1582 -0.2076
 2614DPPC   C2B53062  24.607  -1.214  31.437  0.1489 -0.0415  0.3626
 2614DPPC   C3B53063  24.720  -0.936  31.052  0.4832  0.0992 -0.1908
 2614DPPC   C4B53064  24.763  -0.892  30.543  0.0562  0.1154  0.2851
 2615DPPC   NC353065  27.168   1.119  16.448 -0.1483 -0.0901 -0.0147
 2615DPPC   PO453066  26.949   0.730  16.600  0.0124 -0.2210 -0.1385
 2615DPPC   GL153067  26.495   0.755  16.733 -0.0140  0.3166  0.1247
 2615DPPC   GL253068  26.327   0.636  16.984  0.1781  0.0864  0.0927
 2615DPPC   C1A53069  26.192   0.644  16.431 -0.0308  0.1423  0.1345
 2615DPPC   C2A53070  25.833   0.822  16.181 -0.0584  0.0833 -0.2502
 2615DPPC   C3A53071  25.336   0.715  16.284  0.0592  0.1105  0.0642
 2615DPPC   C4A53072  24.843   0.982  16.448 -0.2471 -0.0563 -0.1079
 2615DPPC   C1B53073  26.009   0.301  16.761 -0.3369  0.1423  0.1765
 2615DPPC   C2B53074  25.694   0.001  16.691 -0.1756 -0.2266  0.0701
 2615DPPC   C3B53075  25.464  -0.193  16.380 -0.1025 -0.1831  0.2157
 2615DPPC   C4B53076  25.477  -0.659  16.297 -0.2242 -0.1663 -0.2304
 2616DPPC   NC353077  28.207  -0.597  24.728 -0.1680  0.3291  0.2252
 2616DPPC   PO453078  28.035  -0.460  25.124  0.4512 -0.0575  0.0830
 2616DPPC   GL153079  27.676  -0.331  25.183  0.2770  0.2078  0.2678
 2616DPPC   GL253080  27.648  -0.264  25.529 -0.1481 -0.0097  0.2464
 2616DPPC   C1A53081  27.602   0.168  25.336 -0.1347 -0.0924  0.0949
 2616DPPC   C2A53082  27.199   0.378  25.408 -0.1163 -0.0690 -0.0089
 2616DPPC   C3A53083  26.757   0.301  25.481 -0.0816  0.2356 -0.1071
 2616DPPC   C4A53084  26.436   0.412  25.652  0.2169  0.1950 -0.4737
 2616DPPC   C1B53085  27.132  -0.056  25.543 -0.1076  0.2495  0.4151
 2616DPPC   C2B53086  26.785  -0.225  25.419  0.0035  0.1893 -0.3487
 2616DPPC   C3B53087  26.361  -0.070  25.261 -0.0612 -0.5383  0.1414
 2616DPPC   C4B53088  26.097   0.095  24.951 -0.1605 -0.0798  0.0095
 2617DPPC   NC353089  29.480   7.015  25.952 -0.0058  0.2536 -0.0215
 2617DPPC   PO453090  29.110   6.838  26.117 -0.5665 -0.1229 -0.1659
 2617DPPC   GL153091  28.582   6.814  26.144 -0.0563  0.3863 -0.0045
 2617DPPC   GL253092  28.347   6.694  26.482  0.0913  0.1975 -0.1476
 2617DPPC   C1A53093  28.257   6.815  25.828 -0.0460 -0.3923  0.2240
 2617DPPC   C2A53094  28.024   6.693  25.566 -0.2615  0.2344  0.3046
 2617DPPC   C3A53095  27.632   6.503  25.388 -0.1362 -0.0174  0.2566
 2617DPPC   C4A53096  27.229   6.417  25.424 -0.0629 -0.0680  0.2541
 2617DPPC   C1B53097  27.866   6.659  26.608 -0.1882 -0.2565  0.0000
 2617DPPC   C2B53098  27.450   6.502  26.762 -0.2337 -0.0536  0.1156
 2617DPPC   C3B53099  27.033   6.415  26.712  0.0108 -0.1357  0.0940
 2617DPPC   C4B53100  26.612   6.325  26.714 -0.3314 -0.4425 -0.1178
 2618DPPC   NC353101  13.881  -6.803  29.873 -0.0072 -0.1117  0.0766
 2618DPPC   PO453102  13.867  -7.058  29.560  0.0068  0.3046 -0.0533
 2618DPPC   GL153103  13.769  -6.712  29.419 -0.3360  0.0873  0.4003
 2618DPPC   GL253104  13.402  -6.572  29.541  0.4189 -0.2532  0.0024
 2618DPPC   C1A53105  13.623  -6.360  29.098  0.0920  0.1858  0.0430
 2618DPPC   C2A53106  13.715  -6.152  28.765  0.3170 -0.0365 -0.0871
 2618DPPC   C3A53107  13.498  -5.706  28.589 -0.1237 -0.2224 -0.2049
 2618DPPC   C4A53108  13.538  -5.331  28.466  0.0366 -0.1399  0.1321
 2618DPPC   C1B53109  13.507  -6.036  29.479  0.1443 -0.2459 -0.0185
 2618DPPC   C2B53110  13.776  -5.783  29.637  0.0930 -0.1271  0.0717
 2618DPPC   C3B53111  13.736  -5.270  29.711  0.0976  0.2487 -0.0243
 2618DPPC   C4B53112  13.922  -4.856  29.540 -0.1241  0.0961  0.2460
 2619DPPC   NC353113  22.262  -1.763  17.896 -0.1607  0.0997  0.1250
 2619DPPC   PO453114  22.080  -1.470  17.683 -0.0937  0.1375 -0.1625
 2619DPPC   GL153115  22.017  -1.388  18.152 -0.1604 -0.0167 -0.0099
 2619DPPC   GL253116  21.754  -1.539  18.362 -0.1218 -0.0186  0.1634
 2619DPPC   C1A53117  22.005  -1.069  18.473 -0.1441 -0.2767  0.3158
 2619DPPC   C2A53118  21.677  -0.956  18.802  0.1450  0.1435 -0.1464
 2619DPPC   C3A53119  21.538  -1.039  19.129  0.2635  0.1543  0.2458
 2619DPPC   C4A53120  21.361  -1.329  19.433 -0.0102 -0.0216 -0.1101
 2619DPPC   C1B53121  21.555  -1.178  18.352  0.2059 -0.3052  0.0186
 2619DPPC   C2B53122  21.188  -0.906  18.355  0.5109 -0.0714  0.0815
 2619DPPC   C3B53123  21.008  -0.597  18.147  0.2605  0.3671  0.0123
 2619DPPC   C4B53124  20.571  -0.417  17.954 -0.0277  0.3809 -0.2155
 2620DPPC   NC353125   8.408   0.244  34.772 -0.2237 -0.1720 -0.0577
 2620DPPC   PO453126   8.208   0.294  34.350 -0.1494 -0.0463  0.1641
 2620DPPC   GL153127   8.642   0.380  34.249  0.0181  0.0018  0.2716
 2620DPPC   GL253128   8.774   0.067  34.042  0.2613 -0.2978 -0.3305
 2620DPPC   C1A53129   8.793   0.647  33.876 -0.0712 -0.1553  0.2227
 2620DPPC   C2A53130   8.871   0.971  33.579 -0.1114  0.1762  0.1250
 2620DPPC   C3A53131   9.204   1.119  33.299 -0.1957 -0.1060  0.0992
 2620DPPC   C4A53132   9.560   1.244  32.984 -0.2038 -0.1508 -0.1793
 2620DPPC   C1B53133   9.146   0.235  33.771 -0.0911  0.1022  0.0403
 2620DPPC   C2B53134   9.499   0.423  33.723  0.1558  0.2494  0.1000
 2620DPPC   C3B53135   9.824   0.491  33.453  0.2249 -0.1561 -0.1747
 2620DPPC   C4B53136  10.168   0.387  33.363 -0.4474  0.1254 -0.0754
 2621DPPC   NC353137  21.155  -6.539  28.215  0.2488 -0.3275 -0.1161
 2621DPPC   PO453138  20.864  -6.475  27.760  0.1419  0.2354 -0.0442
 2621DPPC   GL153139  20.602  -6.164  27.495  0.2518 -0.0984  0.0236
 2621DPPC   GL253140  20.458  -6.161  27.853 -0.1669 -0.0607  0.3959
 2621DPPC   C1A53141  20.478  -5.957  27.132 -0.0641  0.3427  0.0861
 2621DPPC   C2A53142  20.384  -5.989  26.734  0.0387 -0.1524  0.1730
 2621DPPC   C3A53143  20.166  -5.846  26.436  0.0453  0.5548  0.0263
 2621DPPC   C4A53144  20.094  -5.747  25.959  0.2921 -0.0147  0.2006
 2621DPPC   C1B53145  20.555  -5.683  27.712  0.1309 -0.0028 -0.3524
 2621DPPC   C2B53146  20.211  -5.649  27.356  0.0998  0.0388  0.2730
 2621DPPC   C3B53147  19.947  -5.286  27.153  0.0609  0.1373 -0.0106
 2621DPPC   C4B53148  19.614  -5.211  27.329 -0.1400 -0.0392 -0.1241
 2622DPPC   NC353149  21.390   4.152  11.845 -0.1036  0.0787 -0.1811
 2622DPPC   PO453150  20.971   3.985  11.813  0.0910  0.0593  0.2127
 2622DPPC   GL153151  21.188   3.677  11.995 -0.1330 -0.2381 -0.0774
 2622DPPC   GL253152  20.801   3.538  12.011 -0.1447  0.1986  0.1659
 2622DPPC   C1A53153  21.161   3.584  12.476 -0.0274  0.0245  0.1016
 2622DPPC   C2A53154  21.319   3.440  12.833 -0.2724 -0.0090 -0.1256
 2622DPPC   C3A53155  21.309   3.593  13.253  0.1768  0.4136 -0.3923
 2622DPPC   C4A53156  21.527   3.557  13.602  0.4529 -0.1642  0.0051
 2622DPPC   C1B53157  20.675   3.390  12.386 -0.5351  0.0420 -0.2240
 2622DPPC   C2B53158  20.506   3.055  12.590 -0.3440 -0.1048 -0.0118
 2622DPPC   C3B53159  20.277   2.781  12.325 -0.0112  0.2648 -0.0188
 2622DPPC   C4B53160  19.848   2.670  12.110 -0.1481  0.0900 -0.1057
 2623DPPC   NC353161   8.705  -3.363  16.134 -0.2198 -0.0704 -0.1762
 2623DPPC   PO453162   9.119  -3.261  16.124 -0.3480 -0.0874 -0.3152
 2623DPPC   GL153163   9.366  -3.017  16.362  0.2089  0.1546  0.1818
 2623DPPC   GL253164   9.193  -3.095  16.621 -0.0760  0.3404  0.2560
 2623DPPC   C1A53165   9.785  -2.778  16.459 -0.0034 -0.0683  0.1243
 2623DPPC   C2A53166  10.214  -2.692  16.543  0.0667  0.1291 -0.0238
 2623DPPC   C3A53167  10.464  -2.891  16.821  0.0206  0.1087  0.1267
 2623DPPC   C4A53168  10.784  -2.740  17.122  0.1705  0.2885  0.1307
 2623DPPC   C1B53169   9.652  -3.223  16.747 -0.3653  0.2379  0.0777
 2623DPPC   C2B53170   9.973  -3.004  16.970 -0.1095 -0.0932  0.0698
 2623DPPC   C3B53171  10.195  -2.742  17.265  0.0412  0.0054  0.0926
 2623DPPC   C4B53172  10.030  -2.382  17.424 -0.3180 -0.1018  0.2270
 2624DPPC   NC353173  21.037   9.922  15.407  0.1334  0.3009 -0.1782
 2624DPPC   PO453174  21.421   9.844  15.610  0.2799 -0.0946 -0.1556
 2624DPPC   GL153175  21.292   9.488  15.918 -0.1337 -0.0792 -0.1020
 2624DPPC   GL253176  21.230   9.609  16.198  0.0446  0.1313 -0.1190
 2624DPPC   C1A53177  21.201   9.024  16.153  0.1359  0.0119  0.1146
 2624DPPC   C2A53178  20.963   8.771  16.368 -0.0147 -0.0839 -0.1159
 2624DPPC   C3A53179  20.714   8.618  16.621 -0.1514  0.1507 -0.0085
 2624DPPC   C4A53180  20.721   8.478  17.127 -0.1483 -0.1229 -0.1720
 2624DPPC   C1B53181  21.154   9.356  16.554 -0.2632  0.0023 -0.0373
 2624DPPC   C2B53182  21.030   9.040  16.871  0.2057  0.1217 -0.1629
 2624DPPC   C3B53183  20.974   8.895  17.343 -0.2949  0.2875  0.1815
 2624DPPC   C4B53184  20.890   8.519  17.572 -0.0519 -0.2688  0.0763
 2625DPPC   NC353185  14.812  -3.901  33.967 -0.0649  0.3324  0.1421
 2625DPPC   PO453186  14.510  -3.801  34.131  0.2488 -0.0435 -0.1697
 2625DPPC   GL153187  14.325  -3.404  33.782  0.0901  0.0946 -0.3121
 2625DPPC   GL253188  14.038  -3.495  33.728 -0.1056  0.2981  0.0328
 2625DPPC   C1A53189  14.406  -3.111  33.456 -0.0620 -0.2158 -0.4070
 2625DPPC   C2A53190  14.114  -2.915  33.136 -0.2782  0.2237 -0.0792
 2625DPPC   C3A53191  14.096  -2.688  32.748  0.1598 -0.1091 -0.0382
 2625DPPC   C4A53192  13.701  -2.602  32.826 -0.3147 -0.2862  0.0794
 2625DPPC   C1B53193  14.091  -3.395  33.252 -0.0837  0.2674  0.1150
 2625DPPC   C2B53194  14.082  -3.615  32.659 -0.1247  0.3472  0.0846
 2625DPPC   C3B53195  13.857  -3.930  32.562  0.1127  0.1601  0.1416
 2625DPPC   C4B53196  13.500  -4.086  32.474  0.0335 -0.1676 -0.2147
 2626DPPC   NC353197  20.315   5.296  17.116 -0.2578 -0.1014  0.1170
 2626DPPC   PO453198  20.171   4.879  17.246 -0.1260  0.2076 -0.0344
 2626DPPC   GL153199  20.432   4.959  16.776  0.1028 -0.1967  0.1920
 2626DPPC   GL253200  20.468   5.331  16.633  0.1250  0.0520 -0.1091
 2626DPPC   C1A53201  20.579   4.955  16.375 -0.0657  0.0464 -0.2388
 2626DPPC   C2A53202  20.680   5.163  16.066  0.0503 -0.0531 -0.1018
 2626DPPC   C3A53203  20.714   5.394  15.746  0.0200 -0.0797  0.2110
 2626DPPC   C4A53204  20.826   5.828  15.642  0.2158 -0.0734  0.1282
 2626DPPC   C1B53205  20.531   5.647  16.281 -0.1345  0.3400  0.4676
 2626DPPC   C2B53206  20.431   5.846  15.883  0.3109  0.0777 -0.1554
 2626DPPC   C3B53207  20.320   6.030  15.496  0.2440 -0.0454  0.2715
 2626DPPC   C4B53208  20.281   6.408  15.319  0.3856 -0.2612 -0.3078
 2627DPPC   NC353209  22.159  -7.335  24.733  0.0946  0.1905  0.2201
 2627DPPC   PO453210  22.038  -6.884  24.773  0.1255 -0.0924 -0.0995
 2627DPPC   GL153211  21.741  -6.633  24.631 -0.1858  0.0850 -0.0400
 2627DPPC   GL253212  21.544  -6.753  24.282  0.1033  0.3089  0.0994
 2627DPPC   C1A53213  21.435  -6.330  24.559  0.1815  0.0774 -0.1281
 2627DPPC   C2A53214  21.133  -5.960  24.494  0.0108  0.1013 -0.0945
 2627DPPC   C3A53215  20.776  -5.743  24.496  0.2091 -0.1188 -0.2273
 2627DPPC   C4A53216  20.586  -5.458  24.724  0.0239  0.0109 -0.1405
 2627DPPC   C1B53217  21.099  -6.503  24.170  0.1784 -0.0793  0.1905
 2627DPPC   C2B53218  20.844  -6.183  24.124  0.0326  0.1129 -0.2529
 2627DPPC   C3B53219  20.557  -5.985  24.068 -0.2631  0.1566 -0.0550
 2627DPPC   C4B53220  20.352  -5.590  24.231 -0.1080 -0.0329  0.0381
 2628DPPC   NC353221  20.810  -8.514  12.559 -0.0171  0.1676 -0.0726
 2628DPPC   PO453222  20.768  -8.773  12.871  0.1255  0.2020  0.2948
 2628DPPC   GL153223  20.587  -8.718  13.273  0.2139 -0.0864 -0.0547
 2628DPPC   GL253224  20.776  -8.498  13.463 -0.0387 -0.2073 -0.1945
 2628DPPC   C1A53225  20.227  -8.660  13.560  0.2113  0.1217 -0.1310
 2628DPPC   C2A53226  19.980  -8.388  13.628  0.3560  0.3490  0.1447
 2628DPPC   C3A53227  19.791  -8.523  14.023 -0.2280  0.2375  0.1759
 2628DPPC   C4A53228  20.060  -8.447  14.314  0.1351 -0.1568  0.0811
 2628DPPC   C1B53229  20.725  -8.138  13.741 -0.0847  0.1186  0.0727
 2628DPPC   C2B53230  20.961  -7.772  13.960 -0.2817 -0.1227 -0.1823
 2628DPPC   C3B53231  21.280  -7.468  14.135 -0.1105  0.0322  0.1669
 2628DPPC   C4B53232  21.408  -7.258  14.544 -0.1303 -0.4465 -0.1373
 2629DPPC   NC353233  21.508  -7.235  24.588 -0.1737  0.2790 -0.0692
 2629DPPC   PO453234  21.677  -7.212  25.025 -0.3744  0.2272 -0.1055
 2629DPPC   GL153235  21.359  -6.986  25.037  0.0541  0.2518  0.2457
 2629DPPC   GL253236  21.063  -7.002  24.856  0.1817  0.2105 -0.0201
 2629DPPC   C1A53237  21.198  -6.472  25.112  0.0391  0.3417  0.1817
 2629DPPC   C2A53238  21.032  -6.074  25.035 -0.0263 -0.4619 -0.1388
 2629DPPC   C3A53239  20.806  -5.659  25.134  0.1946  0.1231 -0.1731
 2629DPPC   C4A53240  20.478  -5.334  25.278 -0.0233  0.3434 -0.3700
 2629DPPC   C1B53241  20.910  -6.554  24.690 -0.0411 -0.1853  0.1126
 2629DPPC   C2B53242  20.554  -6.238  24.576 -0.0545 -0.0437 -0.1991
 2629DPPC   C3B53243  20.227  -5.981  24.546 -0.1584  0.0333 -0.2018
 2629DPPC   C4B53244  19.907  -5.595  24.604 -0.1155 -0.0038 -0.0708
 2630DPPC   NC353245  19.396  10.552  21.987  0.1197  0.0343  0.1303
 2630DPPC   PO453246  19.278  10.528  21.546 -0.0091 -0.1175  0.3205
 2630DPPC   GL153247  19.166  10.814  21.283 -0.3269 -0.1412 -0.0054
 2630DPPC   GL253248  19.406  10.756  21.057  0.1248 -0.2386  0.3584
 2630DPPC   C1A53249  18.969  11.182  21.061  0.1698  0.2603  0.2906
 2630DPPC   C2A53250  18.998  11.537  20.836 -0.1882 -0.1806 -0.2608
 2630DPPC   C3A53251  18.990  11.743  20.462  0.2434  0.0191 -0.0528
 2630DPPC   C4A53252  18.910  11.961  20.185 -0.1151 -0.1550  0.0697
 2630DPPC   C1B53253  19.309  11.072  20.714 -0.1045  0.0509  0.0288
 2630DPPC   C2B53254  19.225  11.359  20.333 -0.1997  0.3102 -0.1801
 2630DPPC   C3B53255  19.402  11.755  20.122 -0.0180  0.1210  0.5430
 2630DPPC   C4B53256  19.417  12.139  20.087  0.0248 -0.2588 -0.1875
 2631DPPC   NC353257  17.886  -1.777  13.650 -0.1010  0.1104 -0.1977
 2631DPPC   PO453258  17.865  -1.453  13.989  0.1001 -0.2897 -0.0641
 2631DPPC   GL153259  17.710  -1.315  13.578 -0.0698 -0.1966 -0.1680
 2631DPPC   GL253260  17.407  -1.085  13.531 -0.1255  0.0725  0.1559
 2631DPPC   C1A53261  17.518  -1.330  13.147 -0.2779  0.3660 -0.0228
 2631DPPC   C2A53262  17.384  -1.082  12.877 -0.1131 -0.0145  0.0194
 2631DPPC   C3A53263  17.483  -0.775  12.595 -0.1371  0.5448 -0.2664
 2631DPPC   C4A53264  17.911  -0.696  12.544 -0.2196 -0.0835  0.2047
 2631DPPC   C1B53265  16.913  -1.125  13.219 -0.1481  0.1401 -0.0730
 2631DPPC   C2B53266  16.430  -1.107  13.079  0.1252 -0.0250 -0.3224
 2631DPPC   C3B53267  15.906  -1.236  12.980 -0.0715  0.0782  0.1453
 2631DPPC   C4B53268  15.739  -1.581  12.656 -0.0742 -0.1702  0.1071
 2632DPPC   NC353269  17.910  -5.300  15.455 -0.0664 -0.2513  0.0172
 2632DPPC   PO453270  17.812  -5.091  14.959 -0.1883  0.1499 -0.0150
 2632DPPC   GL153271  17.569  -5.263  14.534 -0.0458 -0.1530  0.0513
 2632DPPC   GL253272  17.194  -5.118  14.412 -0.3247  0.2501  0.1145
 2632DPPC   C1A53273  17.578  -5.515  14.111  0.1005 -0.1652 -0.5010
 2632DPPC   C2A53274  17.454  -5.528  13.591  0.0801  0.4388 -0.0072
 2632DPPC   C3A53275  17.302  -5.828  13.168 -0.0781  0.0675 -0.0221
 2632DPPC   C4A53276  17.457  -5.687  12.786 -0.2040 -0.1816 -0.0837
 2632DPPC   C1B53277  16.876  -5.111  14.170  0.2127  0.0333  0.1321
 2632DPPC   C2B53278  16.473  -5.265  14.406  0.3057  0.0707 -0.0294
 2632DPPC   C3B53279  16.067  -5.541  14.414 -0.1145 -0.2097  0.1436
 2632DPPC   C4B53280  15.834  -5.946  14.293  0.0551  0.1955  0.2155
 2633DPPC   NC353281  19.834   0.886  14.329  0.2207  0.1132 -0.0419
 2633DPPC   PO453282  19.621   0.961  14.648 -0.3274 -0.1520  0.2736
 2633DPPC   GL153283  19.367   1.399  14.862  0.0175 -0.3178  0.0977
 2633DPPC   GL253284  19.195   1.487  14.561  0.1117  0.0766 -0.2587
 2633DPPC   C1A53285  18.973   1.548  15.043 -0.0393 -0.0362 -0.0636
 2633DPPC   C2A53286  18.938   1.917  15.311 -0.2154  0.1102 -0.1938
 2633DPPC   C3A53287  18.714   2.294  15.295  0.0419 -0.1886 -0.0315
 2633DPPC   C4A53288  18.793   2.763  15.431  0.1927 -0.2744  0.2595
 2633DPPC   C1B53289  19.243   1.892  14.421  0.1983  0.2773  0.1897
 2633DPPC   C2B53290  19.164   2.332  14.340  0.2636  0.0112  0.0612
 2633DPPC   C3B53291  19.084   2.721  14.110 -0.0306 -0.1736  0.1288
 2633DPPC   C4B53292  19.082   3.090  13.764 -0.1586 -0.0186  0.0818
 2634DPPC   NC353293  20.963  -5.243  16.902 -0.2265 -0.0909  0.1390
 2634DPPC   PO453294  21.376  -5.167  16.723 -0.0073  0.3021 -0.0707
 2634DPPC   GL153295  21.529  -5.541  16.771  0.0667 -0.2517 -0.0142
 2634DPPC   GL253296  21.787  -5.584  16.465 -0.0863 -0.0917 -0.0251
 2634DPPC   C1A53297  22.036  -5.789  16.893  0.2908 -0.0917  0.0151
 2634DPPC   C2A53298  22.275  -6.072  16.774  0.1566  0.3472 -0.1261
 2634DPPC   C3A53299  22.397  -6.448  16.896  0.0581 -0.0183 -0.3542
 2634DPPC   C4A53300  22.525  -6.665  16.602 -0.0004  0.4191  0.1931
 2634DPPC   C1B53301  21.924  -5.972  16.433  0.2434  0.0748 -0.1582
 2634DPPC   C2B53302  21.879  -6.369  16.627 -0.2337  0.2957 -0.3799
 2634DPPC   C3B53303  21.596  -6.597  16.809  0.1807 -0.1576 -0.2578
 2634DPPC   C4B53304  21.173  -6.730  16.787  0.2650  0.3439 -0.1267
 2635DPPC   NC353305  22.586   0.326  17.016  0.0398  0.1303 -0.1767
 2635DPPC   PO453306  22.775   0.446  16.644 -0.1331  0.1035 -0.1681
 2635DPPC   GL153307  23.048   0.666  16.986  0.1226 -0.0294 -0.1813
 2635DPPC   GL253308  22.850   0.739  17.231  0.0518  0.4331 -0.0869
 2635DPPC   C1A53309  23.342   1.104  17.129 -0.2268  0.2147  0.4135
 2635DPPC   C2A53310  23.572   1.423  17.155 -0.0069  0.3491 -0.1031
 2635DPPC   C3A53311  23.640   1.749  17.003 -0.1663 -0.3115 -0.1650
 2635DPPC   C4A53312  23.692   2.181  17.179  0.1439 -0.0958  0.1147
 2635DPPC   C1B53313  23.146   0.662  17.560  0.5318  0.0962  0.2720
 2635DPPC   C2B53314  23.287   0.911  17.924 -0.3466 -0.0332 -0.1877
 2635DPPC   C3B53315  23.189   0.905  18.369  0.0537  0.1401  0.0545
 2635DPPC   C4B53316  23.558   0.877  18.739  0.2133 -0.0347 -0.1121
 2636DPPC   NC353317   9.444   9.814  29.369 -0.0170 -0.1824  0.1999
 2636DPPC   PO453318   9.454   9.423  29.566  0.1298 -0.0673  0.0899
 2636DPPC   GL153319   9.187   9.495  29.756 -0.0284  0.1331  0.2283
 2636DPPC   GL253320   9.237   9.341  30.156 -0.1724  0.0686 -0.0060
 2636DPPC   C1A53321   8.821   9.642  29.984 -0.1349  0.4754 -0.0969
 2636DPPC   C2A53322   8.353   9.684  29.956 -0.0489 -0.1117 -0.3550
 2636DPPC   C3A53323   7.897   9.717  30.032  0.0723  0.0173  0.2913
 2636DPPC   C4A53324   7.632   9.709  30.508  0.3187 -0.1149 -0.0875
 2636DPPC   C1B53325   8.977   9.558  30.446 -0.4264 -0.2470 -0.1841
 2636DPPC   C2B53326   8.989   9.827  30.805 -0.4069 -0.1864 -0.0513
 2636DPPC   C3B53327   9.067  10.062  31.213  0.1952  0.0599 -0.1496
 2636DPPC   C4B53328   8.920  10.049  31.748 -0.1134  0.0320 -0.2134
 2637DPPC   NC353329  19.741   0.506  20.024 -0.3307  0.2256 -0.0738
 2637DPPC   PO453330  19.856   0.120  20.272 -0.0940 -0.0444 -0.0715
 2637DPPC   GL153331  20.024  -0.112  19.937 -0.0351  0.0440  0.1076
 2637DPPC   GL253332  19.672  -0.123  19.847  0.1890 -0.1610  0.2020
 2637DPPC   C1A53333  20.298  -0.351  19.846 -0.1059 -0.0911  0.1384
 2637DPPC   C2A53334  20.611  -0.469  19.534  0.0854  0.1274 -0.1723
 2637DPPC   C3A53335  20.893  -0.595  19.123  0.1153 -0.1334 -0.3526
 2637DPPC   C4A53336  20.939  -0.788  18.743 -0.0675  0.1406 -0.2159
 2637DPPC   C1B53337  19.748  -0.335  19.488 -0.0010  0.0596  0.1230
 2637DPPC   C2B53338  19.814  -0.342  19.047  0.0750 -0.2956  0.1005
 2637DPPC   C3B53339  19.598  -0.593  18.723 -0.1880 -0.0958 -0.1593
 2637DPPC   C4B53340  19.557  -0.727  18.362  0.0287 -0.3134 -0.2138
 2638DPPC   NC353341  21.042   0.780  20.557 -0.4202  0.3118 -0.1461
 2638DPPC   PO453342  20.804   0.851  20.248  0.2096 -0.0786  0.1598
 2638DPPC   GL153343  20.478   0.547  19.959  0.2580 -0.0473 -0.2280
 2638DPPC   GL253344  20.200   0.363  19.929 -0.1054  0.0973  0.0234
 2638DPPC   C1A53345  20.543   0.455  19.533 -0.2827 -0.0763  0.5170
 2638DPPC   C2A53346  20.763   0.529  19.244  0.1921  0.1135 -0.0344
 2638DPPC   C3A53347  21.185   0.324  19.177 -0.3495 -0.0110  0.1333
 2638DPPC   C4A53348  21.235  -0.158  19.379 -0.0420  0.2030  0.1747
 2638DPPC   C1B53349  20.255   0.064  19.504 -0.1333 -0.1929  0.2803
 2638DPPC   C2B53350  20.226  -0.198  19.230  0.1459  0.4708  0.2731
 2638DPPC   C3B53351  20.404  -0.468  18.872  0.4149  0.3690 -0.3175
 2638DPPC   C4B53352  20.618  -0.370  18.444 -0.1298  0.0681 -0.3135
 2639DPPC   NC353353  15.406   2.311  33.391 -0.3229  0.1882  0.0412
 2639DPPC   PO453354  15.478   2.631  33.510  0.0999  0.1239 -0.0729
 2639DPPC   GL153355  15.340   2.638  33.934  0.0365 -0.0093 -0.3448
 2639DPPC   GL253356  15.127   2.415  33.830 -0.0530 -0.2501 -0.0524
 2639DPPC   C1A53357  15.133   2.820  34.224  0.0282 -0.0271  0.0605
 2639DPPC   C2A53358  15.084   2.921  34.621  0.2627 -0.1585 -0.1202
 2639DPPC   C3A53359  14.910   3.000  35.004 -0.2477 -0.0304  0.1545
 2639DPPC   C4A53360  14.712   3.023  35.437 -0.1381 -0.0884  0.0250
 2639DPPC   C1B53361  15.010   2.332  34.231 -0.0017 -0.1244 -0.2391
 2639DPPC   C2B53362  14.870   2.463  34.545  0.2455  0.1411  0.0390
 2639DPPC   C3B53363  14.522   2.796  34.792  0.1533 -0.3883 -0.1016
 2639DPPC   C4B53364  14.309   2.617  35.214 -0.1479  0.2364 -0.3691
 2640DPPC   NC353365  15.402   0.546  16.407  0.0798 -0.1223 -0.0746
 2640DPPC   PO453366  15.724   0.775  16.249  0.0191  0.0911  0.0551
 2640DPPC   GL153367  16.191   0.744  16.126 -0.0271 -0.0113  0.0570
 2640DPPC   GL253368  16.426   0.763  16.342 -0.3896 -0.1347 -0.1831
 2640DPPC   C1A53369  16.403   0.469  15.807 -0.0651  0.0815 -0.1202
 2640DPPC   C2A53370  16.610   0.066  15.591 -0.0580  0.0089  0.0660
 2640DPPC   C3A53371  16.441  -0.159  15.274  0.1058 -0.1011 -0.1431
 2640DPPC   C4A53372  16.730  -0.512  15.033  0.3015 -0.1145 -0.2287
 2640DPPC   C1B53373  16.287   0.249  16.289  0.1990  0.2449 -0.0196
 2640DPPC   C2B53374  16.195  -0.008  15.954 -0.1828  0.1989 -0.1304
 2640DPPC   C3B53375  16.154  -0.341  15.620 -0.0004 -0.1325 -0.0867
 2640DPPC   C4B53376  16.187  -0.641  15.254 -0.1744 -0.0273 -0.0353
 2641DPPC   NC353377  26.522   7.741  32.563 -0.3363  0.0979 -0.1435
 2641DPPC   PO453378  26.719   7.984  32.313 -0.2437  0.0399 -0.2020
 2641DPPC   GL153379  26.472   7.816  32.014 -0.1750  0.1263 -0.1202
 2641DPPC   GL253380  26.544   7.621  31.818  0.1479  0.3733  0.0455
 2641DPPC   C1A53381  26.161   7.891  31.711  0.4666  0.2360  0.0906
 2641DPPC   C2A53382  25.810   7.880  31.712 -0.3324  0.0063 -0.2815
 2641DPPC   C3A53383  25.424   7.978  31.681  0.0298 -0.0402 -0.2052
 2641DPPC   C4A53384  25.042   8.053  31.577 -0.1402 -0.1925 -0.1366
 2641DPPC   C1B53385  26.325   7.511  31.400 -0.1555 -0.2359 -0.1011
 2641DPPC   C2B53386  25.966   7.557  31.251  0.3406  0.2862 -0.0250
 2641DPPC   C3B53387  25.504   7.624  31.295  0.1287 -0.0019 -0.3181
 2641DPPC   C4B53388  25.098   7.423  31.313  0.0626  0.0126 -0.0925
 2642DPPC   NC353389  18.094  -2.865  28.785  0.0516 -0.0073 -0.0821
 2642DPPC   PO453390  18.293  -2.547  29.013 -0.2337  0.0716  0.0875
 2642DPPC   GL153391  18.582  -2.694  29.255  0.0342  0.0488  0.0255
 2642DPPC   GL253392  18.852  -2.551  29.353 -0.0971  0.3138 -0.4207
 2642DPPC   C1A53393  18.534  -2.992  29.543  0.2618 -0.2768  0.2053
 2642DPPC   C2A53394  18.716  -3.351  29.792 -0.1454  0.3313  0.0611
 2642DPPC   C3A53395  18.735  -3.732  29.897 -0.2687  0.2208  0.1954
 2642DPPC   C4A53396  18.576  -4.200  30.092 -0.2780  0.1648  0.1512
 2642DPPC   C1B53397  19.025  -2.848  29.556  0.1660  0.2030 -0.0337
 2642DPPC   C2B53398  19.189  -3.214  29.710 -0.5183 -0.0553 -0.1742
 2642DPPC   C3B53399  19.096  -3.388  30.085  0.0161 -0.1281  0.2230
 2642DPPC   C4B53400  19.097  -3.290  30.545  0.0446 -0.1525  0.1260
 2643DPPC   NC353401  16.044   9.702  19.913 -0.0306 -0.0857 -0.2169
 2643DPPC   PO453402  16.056  10.044  19.537 -0.1673 -0.0012  0.0652
 2643DPPC   GL153403  15.861  10.384  19.504  0.2449 -0.3618  0.0852
 2643DPPC   GL253404  16.084  10.539  19.367 -0.0185  0.1833 -0.0828
 2643DPPC   C1A53405  15.763  10.897  19.387 -0.1987  0.1014 -0.1636
 2643DPPC   C2A53406  15.655  11.281  19.162  0.1135  0.0043  0.0527
 2643DPPC   C3A53407  15.684  11.641  19.057  0.1052 -0.1212  0.1888
 2643DPPC   C4A53408  15.755  12.100  19.095  0.0727 -0.0274  0.1113
 2643DPPC   C1B53409  16.249  10.531  18.919 -0.1195 -0.0855 -0.0295
 2643DPPC   C2B53410  16.218  10.796  18.643 -0.1658  0.0343 -0.0420
 2643DPPC   C3B53411  15.854  10.765  18.420 -0.0059 -0.0249 -0.0307
 2643DPPC   C4B53412  15.407  10.743  18.397  0.1524  0.0020  0.0586
 2644DPPC   NC353413  17.014  16.510  25.541  0.2307 -0.0773 -0.0860
 2644DPPC   PO453414  17.345  16.280  25.688  0.1746  0.1094 -0.0909
 2644DPPC   GL153415  17.511  15.770  25.785 -0.0226 -0.1456  0.2797
 2644DPPC   GL253416  17.757  15.612  25.598  0.5124  0.0225 -0.0990
 2644DPPC   C1A53417  17.475  15.347  25.995 -0.2924 -0.1495 -0.1132
 2644DPPC   C2A53418  17.510  14.938  26.234 -0.2753  0.2513  0.1277
 2644DPPC   C3A53419  17.492  14.642  26.606  0.0437  0.2963  0.0309
 2644DPPC   C4A53420  17.338  14.326  26.829 -0.2732  0.1613 -0.2847
 2644DPPC   C1B53421  17.345  15.449  25.416  0.4199  0.1274  0.4046
 2644DPPC   C2B53422  17.258  14.947  25.765 -0.2415  0.1006 -0.2299
 2644DPPC   C3B53423  17.515  14.537  25.926  0.1733 -0.3433 -0.3016
 2644DPPC   C4B53424  17.581  14.062  25.860 -0.4143  0.0497  0.1043
 2645DPPC   NC353425  17.580  11.933  23.707  0.0703 -0.0942 -0.2188
 2645DPPC   PO453426  17.930  11.894  23.769  0.0796 -0.1204 -0.1225
 2645DPPC   GL153427  17.942  12.321  23.712 -0.0412 -0.0705 -0.0012
 2645DPPC   GL253428  18.123  12.370  23.961  0.0640  0.2076  0.0488
 2645DPPC   C1A53429  18.004  12.775  23.622  0.2053  0.1323 -0.2559
 2645DPPC   C2A53430  17.848  12.988  23.417 -0.1549  0.0724  0.0005
 2645DPPC   C3A53431  17.796  13.389  23.233 -0.1911 -0.1963 -0.2835
 2645DPPC   C4A53432  17.458  13.626  23.012  0.0255 -0.0521  0.0840
 2645DPPC   C1B53433  18.202  12.743  24.077 -0.2405  0.0485 -0.1479
 2645DPPC   C2B53434  18.403  13.083  24.177  0.3201  0.2291  0.2398
 2645DPPC   C3B53435  18.633  13.360  24.344 -0.3115 -0.0954 -0.1199
 2645DPPC   C4B53436  18.990  13.271  24.521 -0.1581  0.4254 -0.3052
 2646DPPC   NC353437  17.219  -2.263  29.610  0.2763 -0.0178  0.1311
 2646DPPC   PO453438  17.453  -2.165  29.956  0.1619  0.0828 -0.2341
 2646DPPC   GL153439  17.158  -2.590  30.044 -0.3687 -0.1572  0.3049
 2646DPPC   GL253440  16.912  -2.806  29.922  0.3324 -0.0207 -0.0016
 2646DPPC   C1A53441  17.177  -2.932  30.353 -0.1084 -0.1209  0.0955
 2646DPPC   C2A53442  17.106  -3.261  30.470  0.1060 -0.0168  0.1763
 2646DPPC   C3A53443  17.095  -3.429  30.917 -0.1690  0.2874  0.0475
 2646DPPC   C4A53444  17.295  -3.554  31.227 -0.0606 -0.1819 -0.0274
 2646DPPC   C1B53445  16.947  -3.180  30.008  0.0651 -0.0815 -0.1520
 2646DPPC   C2B53446  16.659  -3.523  30.242 -0.0796 -0.2365 -0.2252
 2646DPPC   C3B53447  16.661  -3.557  30.694  0.0981 -0.2579 -0.0867
 2646DPPC   C4B53448  16.689  -3.623  31.164  0.0624  0.0476  0.5635
 2647DPPC   NC353449  22.210   3.013  30.704  0.0465  0.1028 -0.3357
 2647DPPC   PO453450  22.482   3.304  30.883 -0.3514 -0.1105 -0.1983
 2647DPPC   GL153451  22.808   3.169  31.295  0.1126  0.2508 -0.0318
 2647DPPC   GL253452  22.965   2.873  31.336  0.2043 -0.2371  0.1734
 2647DPPC   C1A53453  23.183   3.281  31.510  0.1780 -0.0621  0.0320
 2647DPPC   C2A53454  23.573   3.351  31.745 -0.3133  0.0002 -0.0762
 2647DPPC   C3A53455  23.863   3.251  32.100 -0.3307  0.1120  0.1704
 2647DPPC   C4A53456  24.171   3.365  32.309 -0.0439 -0.0058  0.0754
 2647DPPC   C1B53457  23.195   2.821  31.675 -0.1061 -0.0749 -0.1657
 2647DPPC   C2B53458  23.370   2.472  31.988 -0.0718 -0.0150 -0.1090
 2647DPPC   C3B53459  23.667   2.288  32.200 -0.1404  0.2033  0.3162
 2647DPPC   C4B53460  23.976   2.085  32.444  0.2949  0.1613 -0.3271
 2648DPPC   NC353461  19.619  -0.398  30.765 -0.1085  0.2404 -0.1341
 2648DPPC   PO453462  19.591  -0.187  31.190 -0.1523  0.1082  0.0126
 2648DPPC   GL153463  19.912  -0.463  31.402 -0.0175  0.2059  0.1963
 2648DPPC   GL253464  20.103  -0.619  31.243 -0.7301 -0.2624  0.0306
 2648DPPC   C1A53465  19.766  -0.748  31.713  0.1381  0.4634  0.3462
 2648DPPC   C2A53466  19.924  -0.761  32.111 -0.0966  0.1663  0.0141
 2648DPPC   C3A53467  20.254  -0.928  32.488  0.2002 -0.0743  0.0429
 2648DPPC   C4A53468  20.519  -0.631  32.545  0.2701 -0.0692 -0.0341
 2648DPPC   C1B53469  20.061  -1.059  31.161 -0.0958  0.0474  0.5454
 2648DPPC   C2B53470  19.937  -1.477  31.179  0.3438 -0.1021 -0.0266
 2648DPPC   C3B53471  20.038  -1.741  31.414 -0.1295 -0.0092 -0.0400
 2648DPPC   C4B53472  19.916  -1.728  31.794 -0.1283  0.1380 -0.4013
 2649DPPC   NC353473   8.589   4.909  21.611  0.2388 -0.1406  0.1217
 2649DPPC   PO453474   8.180   4.952  21.993 -0.4503 -0.0767  0.0875
 2649DPPC   GL153475   7.723   5.079  21.865  0.3119  0.0038  0.0375
 2649DPPC   GL253476   7.465   5.151  22.097 -0.0622 -0.2715 -0.1235
 2649DPPC   C1A53477   7.318   5.152  21.624 -0.2223  0.1186  0.1208
 2649DPPC   C2A53478   6.992   5.437  21.704  0.0276  0.2235  0.0093
 2649DPPC   C3A53479   6.769   5.725  21.561 -0.2079  0.2982  0.0508
 2649DPPC   C4A53480   6.638   5.479  21.167  0.0123 -0.0060 -0.1750
 2649DPPC   C1B53481   7.094   5.004  22.366  0.2013 -0.2188 -0.1116
 2649DPPC   C2B53482   6.622   5.034  22.305 -0.1467 -0.0714 -0.3235
 2649DPPC   C3B53483   6.186   5.131  22.144  0.0771 -0.1257  0.0082
 2649DPPC   C4B53484   5.926   5.127  21.801  0.1854  0.0357  0.0967
 2650DPPC   NC353485  23.615  11.134  33.464 -0.4109 -0.1719 -0.0875
 2650DPPC   PO453486  23.326  10.868  33.271 -0.0155 -0.1212  0.0664
 2650DPPC   GL153487  23.025  10.639  33.098  0.1953  0.1426  0.2142
 2650DPPC   GL253488  22.712  10.668  33.208  0.2983 -0.1022  0.0154
 2650DPPC   C1A53489  23.148  10.244  32.939 -0.1296  0.2140 -0.1888
 2650DPPC   C2A53490  23.183   9.852  32.938 -0.3052  0.1551  0.4443
 2650DPPC   C3A53491  23.159   9.395  32.924 -0.0583 -0.1428 -0.0853
 2650DPPC   C4A53492  22.883   9.122  32.798  0.0784  0.0470 -0.1608
 2650DPPC   C1B53493  22.663  10.286  33.482  0.2015  0.0805  0.3359
 2650DPPC   C2B53494  22.596   9.838  33.470  0.4016  0.0078  0.0232
 2650DPPC   C3B53495  22.212   9.635  33.586  0.2149  0.1299 -0.2216
 2650DPPC   C4B53496  21.892   9.338  33.505  0.0407 -0.3362 -0.0409
 2651DPPC   NC353497  16.244  -1.868  19.234  0.0310 -0.1938 -0.0340
 2651DPPC   PO453498  15.902  -1.978  18.948 -0.2738  0.1076  0.1063
 2651DPPC   GL153499  15.798  -2.135  18.561  0.2989 -0.1907  0.0702
 2651DPPC   GL253500  15.727  -2.500  18.431 -0.1029  0.4019  0.1978
 2651DPPC   C1A53501  15.832  -2.146  18.110  0.0299  0.1092  0.0368
 2651DPPC   C2A53502  15.920  -2.098  17.742  0.3756 -0.1458  0.4503
 2651DPPC   C3A53503  15.993  -2.354  17.273  0.1231 -0.1307  0.1291
 2651DPPC   C4A53504  15.973  -2.715  17.071 -0.2048 -0.3746 -0.0838
 2651DPPC   C1B53505  16.243  -2.367  18.359 -0.1674  0.1523  0.0055
 2651DPPC   C2B53506  16.402  -2.153  18.012  0.0389  0.0024 -0.0518
 2651DPPC   C3B53507  16.445  -2.264  17.574  0.0999  0.0648  0.0877
 2651DPPC   C4B53508  16.490  -2.348  17.241  0.1969  0.1968 -0.1272
 2652DPPC   NC353509  13.170   1.215  16.152 -0.1279  0.2021 -0.1639
 2652DPPC   PO453510  12.797   1.130  16.464  0.2509 -0.0144  0.0079
 2652DPPC   GL153511  12.700   0.975  16.056  0.1081  0.3127 -0.1291
 2652DPPC   GL253512  12.914   1.023  15.763  0.3345 -0.1570  0.3735
 2652DPPC   C1A53513  12.418   0.867  15.757  0.1151  0.1074  0.1865
 2652DPPC   C2A53514  12.173   0.953  15.377  0.0455 -0.0654  0.1966
 2652DPPC   C3A53515  11.745   0.781  15.242  0.0079  0.1997  0.0417
 2652DPPC   C4A53516  11.355   0.949  15.186  0.2301 -0.2172  0.1039
 2652DPPC   C1B53517  12.753   1.039  15.336  0.0406 -0.0837 -0.1562
 2652DPPC   C2B53518  12.592   1.048  14.928 -0.0513 -0.3353  0.0937
 2652DPPC   C3B53519  12.263   0.872  14.655  0.1925 -0.1833 -0.0397
 2652DPPC   C4B53520  11.894   0.776  14.767  0.0807  0.0582 -0.0923
 2653DPPC   NC353521  18.290  11.003  22.267 -0.1081  0.1140  0.2362
 2653DPPC   PO453522  18.684  10.988  22.401 -0.1260 -0.0213 -0.0411
 2653DPPC   GL153523  18.753  11.254  22.093  0.0977 -0.0470 -0.0977
 2653DPPC   GL253524  19.003  11.485  22.226 -0.2520 -0.4830 -0.0806
 2653DPPC   C1A53525  18.781  11.576  21.743 -0.0827 -0.1997  0.1209
 2653DPPC   C2A53526  19.120  11.757  21.412 -0.1125  0.0234 -0.1225
 2653DPPC   C3A53527  19.224  12.051  21.027  0.2142  0.0286 -0.2595
 2653DPPC   C4A53528  18.989  12.166  20.677  0.3190 -0.3001 -0.3132
 2653DPPC   C1B53529  19.214  11.805  21.918  0.0144  0.1684 -0.4453
 2653DPPC   C2B53530  19.509  11.905  21.630 -0.2706 -0.0166 -0.1204
 2653DPPC   C3B53531  19.633  11.862  21.244  0.0343  0.1347 -0.0777
 2653DPPC   C4B53532  19.679  12.136  21.056  0.0595 -0.2425 -0.1328
 2654DPPC   NC353533  23.115   4.067  29.884  0.0143  0.1747  0.1772
 2654DPPC   PO453534  23.587   4.223  30.033 -0.0654 -0.2611 -0.0798
 2654DPPC   GL153535  24.015   4.387  30.381 -0.2722 -0.1728 -0.0723
 2654DPPC   GL253536  24.387   4.400  30.333  0.1214 -0.1746 -0.1111
 2654DPPC   C1A53537  24.215   4.489  30.802  0.1160 -0.0394 -0.1097
 2654DPPC   C2A53538  24.521   4.437  31.110  0.1175 -0.0548  0.0007
 2654DPPC   C3A53539  24.869   4.320  31.402 -0.2849  0.0598  0.0075
 2654DPPC   C4A53540  24.987   3.990  31.605 -0.0390  0.0348  0.2866
 2654DPPC   C1B53541  24.684   4.486  30.581 -0.1112 -0.0518  0.0585
 2654DPPC   C2B53542  25.026   4.432  30.486  0.3488  0.2403  0.1386
 2654DPPC   C3B53543  25.232   4.820  30.632 -0.0256 -0.3238  0.2014
 2654DPPC   C4B53544  25.349   4.988  30.923 -0.1434  0.0878 -0.0215
 2655DPPC   NC353545  15.705  13.982  33.945  0.0114 -0.0519 -0.2108
 2655DPPC   PO453546  15.293  13.959  33.855  0.0950 -0.1639  0.0674
 2655DPPC   GL153547  15.450  13.686  33.546 -0.1503 -0.1296  0.1631
 2655DPPC   GL253548  15.288  13.832  33.193 -0.1325 -0.0324  0.1557
 2655DPPC   C1A53549  15.599  13.463  33.066  0.0161  0.1163 -0.0522
 2655DPPC   C2A53550  15.322  13.231  32.726 -0.1075  0.0736 -0.0791
 2655DPPC   C3A53551  15.181  12.941  32.416 -0.1011 -0.1251 -0.0718
 2655DPPC   C4A53552  15.225  12.529  32.534  0.0271  0.3052  0.3751
 2655DPPC   C1B53553  15.456  13.850  32.711  0.2353  0.1458  0.0354
 2655DPPC   C2B53554  15.563  13.601  32.370 -0.1792  0.2913 -0.2665
 2655DPPC   C3B53555  15.602  13.158  32.182  0.0187  0.0578 -0.1803
 2655DPPC   C4B53556  15.840  13.022  32.230  0.1258  0.0313 -0.3268
 2656DPPC   NC353557  21.624  12.055  33.208  0.0503  0.1963 -0.0646
 2656DPPC   PO453558  21.548  11.693  33.515  0.1754 -0.1496 -0.3287
 2656DPPC   GL153559  21.757  11.559  33.150 -0.0153  0.2151 -0.0043
 2656DPPC   GL253560  21.827  11.246  33.184 -0.0377 -0.0674  0.0893
 2656DPPC   C1A53561  21.715  11.419  32.650 -0.1689 -0.0057  0.0953
 2656DPPC   C2A53562  21.700  11.142  32.369  0.1119  0.0913 -0.0786
 2656DPPC   C3A53563  21.615  10.826  32.061  0.2645  0.0330 -0.3313
 2656DPPC   C4A53564  21.762  10.556  31.652 -0.4824 -0.1974 -0.1878
 2656DPPC   C1B53565  21.467  11.148  32.971 -0.1748  0.2530  0.3985
 2656DPPC   C2B53566  21.415  10.751  32.669  0.1761 -0.2147 -0.0223
 2656DPPC   C3B53567  21.424  10.427  32.292 -0.0968 -0.3736  0.0177
 2656DPPC   C4B53568  21.324  10.400  31.904 -0.1874  0.2416 -0.1811
 2657DPPC   NC353569  14.084  11.509  23.420 -0.0574 -0.0605  0.2208
 2657DPPC   PO453570  13.849  11.478  23.047 -0.0434  0.4326 -0.2847
 2657DPPC   GL153571  13.432  11.504  22.732  0.0637  0.1689  0.0585
 2657DPPC   GL253572  13.652  11.605  22.630 -0.2774 -0.0938  0.1422
 2657DPPC   C1A53573  13.118  11.848  22.626  0.0162  0.1202 -0.0880
 2657DPPC   C2A53574  12.767  12.114  22.432  0.1280  0.1830 -0.0059
 2657DPPC   C3A53575  12.405  12.251  22.293 -0.2611  0.3496  0.3527
 2657DPPC   C4A53576  12.218  12.479  22.106  0.2210 -0.0856  0.0527
 2657DPPC   C1B53577  13.626  12.044  22.569 -0.0336 -0.2516  0.2558
 2657DPPC   C2B53578  13.804  12.387  22.703  0.0523  0.2482 -0.0390
 2657DPPC   C3B53579  13.991  12.774  22.652 -0.1958  0.2655 -0.1371
 2657DPPC   C4B53580  14.295  13.071  22.760  0.0974 -0.1812  0.1328
 2658DPPC   NC353581   7.228   3.240  27.673  0.0086 -0.0067 -0.0959
 2658DPPC   PO453582   7.082   2.817  27.927  0.2096 -0.3687  0.0769
 2658DPPC   GL153583   6.685   2.680  28.033  0.1293 -0.2309  0.4583
 2658DPPC   GL253584   6.557   2.973  28.092  0.0003  0.0696  0.1529
 2658DPPC   C1A53585   6.210   2.620  27.995  0.3216 -0.3070 -0.0457
 2658DPPC   C2A53586   5.891   2.295  27.873  0.2798 -0.0106  0.1860
 2658DPPC   C3A53587   5.714   1.922  27.643 -0.0891  0.2231  0.3563
 2658DPPC   C4A53588   5.676   1.491  27.700  0.1349 -0.0731 -0.1239
 2658DPPC   C1B53589   6.189   3.016  28.324  0.0546 -0.1551  0.1948
 2658DPPC   C2B53590   5.766   3.115  28.317  0.2426 -0.4539  0.1742
 2658DPPC   C3B53591   5.410   3.282  28.306  0.2490 -0.2034 -0.2665
 2658DPPC   C4B53592   5.064   3.546  28.413  0.1311  0.0568 -0.0487
 2659DPPC   NC353593  14.894   8.255  18.356  0.1039 -0.0899 -0.0361
 2659DPPC   PO453594  14.667   8.184  17.944  0.0264 -0.0341 -0.1610
 2659DPPC   GL153595  14.633   8.414  17.608  0.2255 -0.1972  0.1357
 2659DPPC   GL253596  14.700   8.767  17.555  0.3693 -0.2233  0.0180
 2659DPPC   C1A53597  14.570   8.465  17.194  0.1168 -0.0373 -0.3550
 2659DPPC   C2A53598  14.657   8.412  16.744  0.0331  0.2234  0.0630
 2659DPPC   C3A53599  14.480   8.551  16.411  0.0924  0.3181 -0.0720
 2659DPPC   C4A53600  14.210   8.908  16.269 -0.1468 -0.0732  0.0393
 2659DPPC   C1B53601  14.812   8.902  17.124  0.0446  0.1644 -0.0102
 2659DPPC   C2B53602  14.800   9.193  16.771  0.1455 -0.0123  0.3228
 2659DPPC   C3B53603  14.428   9.346  16.453  0.5561 -0.1731  0.0036
 2659DPPC   C4B53604  14.272   9.419  15.989 -0.1461 -0.1735  0.0149
 2660DPPC   NC353605  23.558  -0.785  26.064  0.0381 -0.0507 -0.4236
 2660DPPC   PO453606  23.419  -0.601  26.430  0.2213 -0.1668 -0.0377
 2660DPPC   GL153607  23.781  -0.811  26.575  0.2202  0.1084 -0.3447
 2660DPPC   GL253608  23.933  -1.033  26.385 -0.4996 -0.4057  0.0830
 2660DPPC   C1A53609  24.109  -0.965  26.838 -0.0268 -0.5237 -0.2399
 2660DPPC   C2A53610  24.524  -0.970  26.909 -0.3195  0.0348  0.1601
 2660DPPC   C3A53611  24.923  -0.889  26.998 -0.2036  0.1607 -0.0985
 2660DPPC   C4A53612  25.309  -1.209  27.184  0.0995 -0.1188  0.0646
 2660DPPC   C1B53613  24.278  -1.315  26.530  0.0443 -0.2903 -0.1429
 2660DPPC   C2B53614  24.685  -1.438  26.776 -0.1001  0.0403 -0.0207
 2660DPPC   C3B53615  25.127  -1.328  26.747 -0.0127 -0.2942  0.1979
 2660DPPC   C4B53616  25.527  -1.331  26.708 -0.2285  0.0984 -0.1393
 2661DPPC   NC353617   7.829  -6.078  28.916 -0.0828  0.2814  0.2616
 2661DPPC   PO453618   7.871  -5.531  28.909  0.1440 -0.1871  0.0559
 2661DPPC   GL153619   7.978  -5.199  28.648  0.1213  0.4009  0.0682
 2661DPPC   GL253620   7.710  -5.071  28.555  0.0606  0.0841  0.1820
 2661DPPC   C1A53621   8.223  -5.049  28.291  0.2127 -0.1211  0.0695
 2661DPPC   C2A53622   8.330  -4.767  27.894  0.0246 -0.0183 -0.3133
 2661DPPC   C3A53623   8.640  -5.062  27.610 -0.0071 -0.2672 -0.1748
 2661DPPC   C4A53624   8.979  -5.373  27.591 -0.2235  0.2342  0.1856
 2661DPPC   C1B53625   7.790  -4.761  28.385  0.1994  0.0274  0.1427
 2661DPPC   C2B53626   8.197  -4.565  28.401  0.0561  0.0271 -0.1001
 2661DPPC   C3B53627   8.473  -4.284  28.235 -0.1360  0.1836 -0.2848
 2661DPPC   C4B53628   8.589  -4.129  27.810 -0.1049 -0.1229 -0.1147
 2662DPPC   NC353629  24.721   3.667  26.735  0.2283  0.1031 -0.3883
 2662DPPC   PO453630  24.848   3.825  27.160  0.1570 -0.0331  0.0547
 2662DPPC   GL153631  25.285   3.869  27.314  0.1178 -0.2879 -0.0854
 2662DPPC   GL253632  25.483   4.117  27.624  0.3397  0.1170 -0.3403
 2662DPPC   C1A53633  25.698   3.682  27.484  0.0453  0.1404 -0.0553
 2662DPPC   C2A53634  26.061   3.604  27.498 -0.1985 -0.0339  0.2777
 2662DPPC   C3A53635  26.409   3.250  27.718 -0.1043 -0.2737 -0.2194
 2662DPPC   C4A53636  26.703   2.846  27.606 -0.0267 -0.3417 -0.1450
 2662DPPC   C1B53637  25.955   4.378  27.745  0.0241 -0.1325 -0.1452
 2662DPPC   C2B53638  26.408   4.393  27.905 -0.0412 -0.3110  0.1631
 2662DPPC   C3B53639  26.814   4.442  27.938 -0.1963  0.1824  0.0706
 2662DPPC   C4B53640  27.149   4.239  27.758  0.3080  0.3331 -0.2094
 2663DPPC   NC353641  15.749  12.480  28.020 -0.0487  0.1522  0.1688
 2663DPPC   PO453642  15.911  12.296  28.460 -0.3225  0.0509  0.0563
 2663DPPC   GL153643  15.966  12.664  28.668 -0.2934  0.1756  0.0528
 2663DPPC   GL253644  16.260  12.665  28.821 -0.0359 -0.0457  0.0619
 2663DPPC   C1A53645  15.875  13.072  28.758  0.1069 -0.2740 -0.0622
 2663DPPC   C2A53646  15.963  13.435  28.987  0.1567  0.1519 -0.1941
 2663DPPC   C3A53647  16.256  13.457  29.389  0.0169 -0.3889  0.0792
 2663DPPC   C4A53648  16.596  13.112  29.614  0.4191  0.0447 -0.2238
 2663DPPC   C1B53649  15.885  12.745  29.144  0.1115  0.0096  0.3506
 2663DPPC   C2B53650  15.573  13.024  29.147 -0.0370  0.2399  0.0758
 2663DPPC   C3B53651  15.188  13.204  29.001  0.1249  0.0817  0.3232
 2663DPPC   C4B53652  15.060  13.559  28.800  0.1033 -0.1695  0.3841
 2664DPPC   NC353653   7.699   7.677  24.101  0.1992  0.4290  0.0035
 2664DPPC   PO453654   7.614   7.354  24.510 -0.0773 -0.0221 -0.0804
 2664DPPC   GL153655   7.268   7.559  24.547  0.2457 -0.1814  0.1691
 2664DPPC   GL253656   7.077   7.333  24.767  0.4618  0.0813 -0.3894
 2664DPPC   C1A53657   6.903   7.808  24.417  0.1096  0.1457  0.0946
 2664DPPC   C2A53658   6.484   8.046  24.479  0.2153 -0.3595  0.0006
 2664DPPC   C3A53659   6.045   8.133  24.261 -0.0309 -0.2158 -0.0044
 2664DPPC   C4A53660   5.822   8.112  23.789  0.1277 -0.0640 -0.3603
 2664DPPC   C1B53661   6.635   7.311  24.667 -0.1474 -0.1895 -0.0529
 2664DPPC   C2B53662   6.418   7.523  24.366  0.0790 -0.0570  0.0759
 2664DPPC   C3B53663   6.172   7.494  23.945  0.3595 -0.0521 -0.1950
 2664DPPC   C4B53664   5.714   7.542  23.831 -0.0696 -0.0088  0.0284
 2665DPPC   NC353665  24.178   1.955  27.189  0.0943 -0.0634  0.1173
 2665DPPC   PO453666  24.431   1.612  27.116 -0.0801  0.0572  0.2113
 2665DPPC   GL153667  24.892   1.588  27.206 -0.0251 -0.1046  0.0240
 2665DPPC   GL253668  24.852   1.600  26.849  0.0773  0.1842 -0.3982
 2665DPPC   C1A53669  25.247   1.480  27.200 -0.0707 -0.0638  0.2827
 2665DPPC   C2A53670  25.600   1.271  27.220  0.0162 -0.0433 -0.1377
 2665DPPC   C3A53671  26.040   1.176  27.427  0.1452 -0.0108  0.1180
 2665DPPC   C4A53672  26.392   0.826  27.449 -0.0121 -0.2452  0.1899
 2665DPPC   C1B53673  25.231   1.555  26.638 -0.0422  0.1791 -0.1529
 2665DPPC   C2B53674  25.695   1.592  26.685 -0.1601 -0.2715  0.1352
 2665DPPC   C3B53675  26.019   1.413  26.910 -0.0568 -0.1422  0.0044
 2665DPPC   C4B53676  26.425   1.190  27.122  0.1682 -0.1324  0.0461
 2666DPPC   NC353677  23.923   0.176  22.924  0.0833  0.2730  0.1944
 2666DPPC   PO453678  23.592   0.361  22.551 -0.5014 -0.2340  0.1199
 2666DPPC   GL153679  23.987   0.165  22.420 -0.1749  0.1664 -0.0602
 2666DPPC   GL253680  24.253   0.516  22.408 -0.2474 -0.3013 -0.0843
 2666DPPC   C1A53681  24.432   0.062  22.288  0.1332 -0.1782  0.0084
 2666DPPC   C2A53682  24.799   0.010  22.061  0.2268  0.3063  0.3497
 2666DPPC   C3A53683  25.324   0.043  21.968  0.0216 -0.0229  0.1633
 2666DPPC   C4A53684  25.720   0.116  22.081  0.2453 -0.1236 -0.0162
 2666DPPC   C1B53685  24.716   0.541  22.376  0.1645  0.6014 -0.2551
 2666DPPC   C2B53686  25.087   0.456  22.178  0.2912 -0.0945  0.0290
 2666DPPC   C3B53687  25.512   0.583  22.001  0.4496 -0.2012 -0.3501
 2666DPPC   C4B53688  25.919   0.614  22.127 -0.2981 -0.0021 -0.1703
 2667DPPC   NC353689  19.020  -8.494  12.374 -0.2292  0.0302  0.0316
 2667DPPC   PO453690  19.291  -8.774  12.543  0.0964 -0.0505  0.2817
 2667DPPC   GL153691  19.211  -8.440  12.882 -0.0090 -0.2294 -0.0298
 2667DPPC   GL253692  19.436  -8.410  13.134  0.1384  0.0769 -0.0171
 2667DPPC   C1A53693  18.945  -8.048  12.954  0.1227 -0.0994  0.1188
 2667DPPC   C2A53694  19.041  -7.589  12.857 -0.0031  0.2301 -0.3323
 2667DPPC   C3A53695  18.986  -7.384  12.424 -0.2431  0.1137 -0.0357
 2667DPPC   C4A53696  18.740  -7.212  12.187 -0.1108  0.1183 -0.0657
 2667DPPC   C1B53697  19.792  -8.105  13.291 -0.1106 -0.0332  0.2726
 2667DPPC   C2B53698  19.806  -7.774  13.530  0.0593 -0.2258  0.3592
 2667DPPC   C3B53699  20.030  -7.518  13.753  0.4076  0.1756 -0.0550
 2667DPPC   C4B53700  20.137  -7.472  14.097  0.3144  0.3182 -0.1772
 2668DPPC   NC353701  20.384   8.072  19.613  0.1109  0.1924 -0.0520
 2668DPPC   PO453702  20.205   7.959  19.215 -0.0170  0.2342 -0.2917
 2668DPPC   GL153703  20.174   8.301  18.949 -0.3094  0.2197 -0.3208
 2668DPPC   GL253704  20.434   8.420  19.032  0.1655  0.3163  0.1076
 2668DPPC   C1A53705  20.331   8.692  18.683  0.3068  0.1473  0.1455
 2668DPPC   C2A53706  20.327   9.092  18.629  0.1495 -0.0055 -0.0767
 2668DPPC   C3A53707  20.376   9.486  18.857 -0.1521  0.2093 -0.0838
 2668DPPC   C4A53708  20.310   9.931  18.926 -0.0876  0.1051  0.0055
 2668DPPC   C1B53709  20.787   8.694  18.799 -0.2482 -0.1878  0.0284
 2668DPPC   C2B53710  21.158   8.823  18.524  0.0738  0.0655  0.5118
 2668DPPC   C3B53711  21.492   9.017  18.496 -0.0782 -0.3551 -0.0507
 2668DPPC   C4B53712  21.806   9.035  18.383  0.0788  0.2863 -0.0180
 2669DPPC   NC353713  10.961  10.019  22.511 -0.0629  0.1649 -0.0576
 2669DPPC   PO453714  10.836  10.070  23.027  0.0416  0.0317  0.0485
 2669DPPC   GL153715  10.583  10.408  22.871  0.1895  0.0011 -0.1023
 2669DPPC   GL253716  10.449  10.728  23.057  0.1491 -0.1464 -0.0971
 2669DPPC   C1A53717  10.396  10.679  22.496  0.1389 -0.0110  0.0941
 2669DPPC   C2A53718  10.507  10.762  22.073  0.2516  0.5099 -0.1706
 2669DPPC   C3A53719  10.430  11.044  21.891 -0.1921 -0.1966  0.1655
 2669DPPC   C4A53720  10.568  11.412  21.823  0.1497  0.1558 -0.1950
 2669DPPC   C1B53721  10.225  11.153  23.115  0.3716 -0.3746  0.2448
 2669DPPC   C2B53722  10.030  11.517  23.049  0.0429  0.3325 -0.3095
 2669DPPC   C3B53723   9.643  11.625  22.723  0.1474 -0.0757  0.1895
 2669DPPC   C4B53724   9.237  11.668  22.558 -0.1244  0.0817  0.5467
 2670DPPC   NC353725   7.815   1.933  23.073  0.3002 -0.0857 -0.0675
 2670DPPC   PO453726   7.499   1.720  22.986  0.1653 -0.1211  0.2137
 2670DPPC   GL153727   7.150   1.777  22.838 -0.1199  0.2528 -0.1186
 2670DPPC   GL253728   6.948   1.463  22.610 -0.1284 -0.0169 -0.2641
 2670DPPC   C1A53729   6.792   2.112  22.879 -0.1557 -0.1870 -0.2104
 2670DPPC   C2A53730   6.458   2.285  23.194 -0.0889  0.1308  0.1823
 2670DPPC   C3A53731   6.034   2.096  23.206 -0.0364  0.0769 -0.1091
 2670DPPC   C4A53732   5.650   2.056  23.496 -0.0697 -0.1573  0.1742
 2670DPPC   C1B53733   6.639   1.463  22.497 -0.0216 -0.0303 -0.1779
 2670DPPC   C2B53734   6.236   1.428  22.172  0.0369 -0.0666 -0.1185
 2670DPPC   C3B53735   5.771   1.161  22.228  0.4660  0.1466 -0.2642
 2670DPPC   C4B53736   5.577   0.740  22.374 -0.1376  0.4014 -0.1826
 2671DPPC   NC353737  11.148   0.107  19.322 -0.1604  0.3972 -0.1318
 2671DPPC   PO453738  10.953  -0.180  19.063  0.0416  0.1360  0.0156
 2671DPPC   GL153739  10.693  -0.338  18.718  0.0439 -0.0595 -0.2406
 2671DPPC   GL253740  10.803  -0.215  18.446 -0.1718 -0.3401  0.1674
 2671DPPC   C1A53741  10.477  -0.627  18.512  0.2676 -0.1243 -0.1170
 2671DPPC   C2A53742  10.354  -0.904  18.208 -0.2667  0.0102  0.2792
 2671DPPC   C3A53743  10.341  -1.060  17.712  0.1335 -0.2164 -0.1371
 2671DPPC   C4A53744  10.035  -0.777  17.377  0.3079 -0.2830  0.2037
 2671DPPC   C1B53745  10.575  -0.336  18.167 -0.1380  0.0428  0.0171
 2671DPPC   C2B53746  10.250  -0.492  17.953 -0.0474 -0.1432  0.1022
 2671DPPC   C3B53747   9.857  -0.324  17.831  0.1745  0.0019 -0.0615
 2671DPPC   C4B53748   9.434  -0.364  17.776  0.2694  0.3169 -0.1107
 2672DPPC   NC353749  18.422   5.727  37.656  0.0255 -0.0774 -0.0311
 2672DPPC   PO453750  18.833   5.603  37.447  0.4724  0.2280  0.3217
 2672DPPC   GL153751  19.008   5.247  37.040 -0.0149 -0.0764 -0.2084
 2672DPPC   GL253752  18.823   5.072  37.011 -0.0030  0.0563  0.1523
 2672DPPC   C1A53753  19.241   5.273  36.636 -0.0062 -0.1490  0.0691
 2672DPPC   C2A53754  19.155   5.455  36.364  0.0221 -0.3403 -0.1674
 2672DPPC   C3A53755  19.080   5.508  35.966 -0.0141 -0.1501 -0.1841
 2672DPPC   C4A53756  19.133   5.862  35.753  0.0783 -0.2850  0.2010
 2672DPPC   C1B53757  18.606   5.088  36.620 -0.4895 -0.0601 -0.3609
 2672DPPC   C2B53758  18.669   5.260  36.158  0.0688 -0.2141 -0.0837
 2672DPPC   C3B53759  18.631   5.383  35.745 -0.0766 -0.0803  0.0168
 2672DPPC   C4B53760  18.757   5.614  35.473 -0.0418  0.0098  0.1107
 2673DPPC   NC353761  19.695  -1.269  20.915 -0.0304 -0.0170  0.1341
 2673DPPC   PO453762  19.279  -1.577  21.065  0.2429 -0.0422 -0.3102
 2673DPPC   GL153763  19.426  -1.683  20.670 -0.0709  0.1672 -0.3073
 2673DPPC   GL253764  19.682  -1.462  20.468 -0.1279 -0.1945  0.0226
 2673DPPC   C1A53765  19.256  -2.047  20.383  0.1967 -0.1679  0.1415
 2673DPPC   C2A53766  19.133  -2.230  20.005 -0.0891 -0.0628  0.0745
 2673DPPC   C3A53767  19.304  -2.266  19.663  0.3859  0.2946 -0.2730
 2673DPPC   C4A53768  19.703  -2.246  19.407  0.0826  0.0835 -0.1032
 2673DPPC   C1B53769  19.736  -1.444  20.018  0.0606  0.1041  0.0362
 2673DPPC   C2B53770  19.760  -1.720  19.734  0.1500  0.0485  0.1939
 2673DPPC   C3B53771  20.069  -2.122  19.706 -0.3520 -0.3003  0.0423
 2673DPPC   C4B53772  20.496  -2.308  19.691  0.1937 -0.5942  0.2686
 2674DPPC   NC353773  17.529  11.927  28.214 -0.3096  0.1895 -0.1389
 2674DPPC   PO453774  17.181  12.188  27.951  0.1017 -0.0639  0.2685
 2674DPPC   GL153775  17.104  12.582  28.195  0.2052  0.2426  0.0065
 2674DPPC   GL253776  17.384  12.475  28.332 -0.3915 -0.0776  0.0895
 2674DPPC   C1A53777  17.178  12.980  28.110  0.1008  0.2754 -0.1526
 2674DPPC   C2A53778  17.054  13.383  28.212  0.0652  0.1631  0.1677
 2674DPPC   C3A53779  17.215  13.752  28.471  0.1218  0.0881 -0.1208
 2674DPPC   C4A53780  17.566  13.957  28.527  0.1484  0.1416 -0.1109
 2674DPPC   C1B53781  17.631  12.875  28.323 -0.0807 -0.0759  0.0207
 2674DPPC   C2B53782  18.023  12.822  28.462  0.1440 -0.2083 -0.2901
 2674DPPC   C3B53783  18.361  12.995  28.647 -0.0929 -0.0565 -0.2268
 2674DPPC   C4B53784  18.410  13.333  28.830 -0.5095 -0.0516 -0.2160
 2675DPPC   NC353785   8.366   7.797  29.608 -0.1101  0.0019  0.1716
 2675DPPC   PO453786   8.293   8.083  29.233 -0.1029 -0.0149 -0.0491
 2675DPPC   GL153787   7.997   8.174  29.170  0.1502 -0.1292  0.1043
 2675DPPC   GL253788   7.838   8.265  28.858  0.0172  0.0273 -0.1466
 2675DPPC   C1A53789   7.598   8.056  29.299 -0.0905  0.0972 -0.0404
 2675DPPC   C2A53790   7.329   8.331  29.519  0.3915 -0.1412  0.3063
 2675DPPC   C3A53791   7.026   8.464  29.421  0.0697 -0.1199 -0.0025
 2675DPPC   C4A53792   6.696   8.658  29.656 -0.1227  0.1011 -0.1387
 2675DPPC   C1B53793   7.440   8.314  28.895  0.0695  0.1559 -0.2055
 2675DPPC   C2B53794   7.093   8.022  29.144 -0.1867  0.0767  0.2188
 2675DPPC   C3B53795   6.871   7.972  29.512  0.1362  0.0880  0.1807
 2675DPPC   C4B53796   6.671   8.107  29.775  0.0488  0.0607 -0.1608
 2676DPPC   NC353797  12.525  -3.464  24.866 -0.2633  0.1632  0.2085
 2676DPPC   PO453798  12.263  -3.915  24.725 -0.2497  0.0203 -0.3693
 2676DPPC   GL153799  12.016  -4.181  24.910 -0.1150  0.5930 -0.2784
 2676DPPC   GL253800  11.742  -4.348  24.728 -0.0078 -0.1813 -0.4717
 2676DPPC   C1A53801  11.982  -4.551  25.190  0.2220 -0.1052 -0.2812
 2676DPPC   C2A53802  11.993  -4.922  25.454  0.1432  0.2126  0.3265
 2676DPPC   C3A53803  12.218  -5.141  25.688 -0.0810 -0.3347 -0.1503
 2676DPPC   C4A53804  12.263  -5.360  26.068  0.0748 -0.0926  0.4080
 2676DPPC   C1B53805  11.422  -4.711  24.730  0.2627  0.0110 -0.0572
 2676DPPC   C2B53806  11.301  -5.123  24.610 -0.0108 -0.1188  0.2865
 2676DPPC   C3B53807  11.107  -5.454  24.565 -0.1045  0.1827  0.3319
 2676DPPC   C4B53808  10.782  -5.794  24.600 -0.0649  0.0104 -0.0783
 2677DPPC   NC353809  22.386  -1.244  25.875 -0.0835 -0.1462 -0.0510
 2677DPPC   PO453810  22.661  -1.210  26.278  0.3022 -0.1317 -0.4740
 2677DPPC   GL153811  22.722  -1.580  26.110  0.2526 -0.2092  0.1097
 2677DPPC   GL253812  22.464  -1.734  26.201  0.1769  0.1644 -0.2110
 2677DPPC   C1A53813  22.875  -2.009  26.219 -0.1408 -0.0065 -0.3043
 2677DPPC   C2A53814  22.948  -2.493  26.312 -0.0333 -0.0595 -0.0242
 2677DPPC   C3A53815  23.104  -2.781  26.161 -0.2284  0.1130 -0.0666
 2677DPPC   C4A53816  23.145  -3.202  26.214  0.2080  0.1109 -0.1129
 2677DPPC   C1B53817  22.456  -1.816  26.656  0.1959 -0.3609  0.2354
 2677DPPC   C2B53818  22.642  -2.289  26.672 -0.1505  0.1102 -0.0387
 2677DPPC   C3B53819  22.898  -2.578  26.870 -0.0730 -0.0938 -0.2088
 2677DPPC   C4B53820  23.054  -3.023  26.999 -0.0437  0.2487 -0.0098
 2678DPPC   NC353821  13.606  11.216  23.393 -0.3641 -0.0819 -0.2673
 2678DPPC   PO453822  13.578  11.516  23.687 -0.2769  0.0890  0.3008
 2678DPPC   GL153823  13.657  11.813  23.450  0.0013  0.0055  0.2694
 2678DPPC   GL253824  13.511  11.774  23.232 -0.2706  0.3625 -0.0183
 2678DPPC   C1A53825  13.790  12.158  23.161 -0.2185 -0.3189  0.0907
 2678DPPC   C2A53826  13.947  12.601  23.185 -0.3325 -0.1296 -0.0539
 2678DPPC   C3A53827  13.824  13.029  23.038 -0.5737 -0.0408 -0.2322
 2678DPPC   C4A53828  13.461  13.241  23.075  0.0051 -0.1028 -0.0750
 2678DPPC   C1B53829  13.315  12.106  23.022 -0.0345  0.3078 -0.2812
 2678DPPC   C2B53830  13.233  12.357  22.643 -0.0557 -0.0921  0.0053
 2678DPPC   C3B53831  13.014  12.531  22.417  0.3901 -0.0590  0.0325
 2678DPPC   C4B53832  12.732  12.780  22.136  0.0576 -0.1942  0.1109
 2679DPPC   NC353833  19.755   2.049  37.080 -0.0380 -0.2508 -0.0644
 2679DPPC   PO453834  20.057   1.700  37.002 -0.0826  0.1481  0.1062
 2679DPPC   GL153835  19.729   1.586  36.621  0.0850 -0.0851  0.1085
 2679DPPC   GL253836  19.505   1.763  36.471  0.2840 -0.1976 -0.1416
 2679DPPC   C1A53837  19.526   1.308  36.260 -0.0883  0.3350 -0.1373
 2679DPPC   C2A53838  19.145   1.111  36.038 -0.1060  0.4127  0.4419
 2679DPPC   C3A53839  18.953   1.431  35.725 -0.2271  0.0268 -0.1087
 2679DPPC   C4A53840  18.952   1.668  35.408 -0.0550 -0.1951  0.2075
 2679DPPC   C1B53841  19.685   1.939  36.095 -0.1429 -0.3699  0.1720
 2679DPPC   C2B53842  19.736   2.163  35.669 -0.1221 -0.3553 -0.0889
 2679DPPC   C3B53843  19.592   2.154  35.285 -0.3575 -0.2808  0.2963
 2679DPPC   C4B53844  19.694   2.198  34.921  0.1503 -0.1945  0.1767
 2680DPPC   NC353845   4.149   9.279  30.171  0.0759  0.1101  0.4727
 2680DPPC   PO453846   4.597   9.498  30.053  0.2316 -0.0021  0.3239
 2680DPPC   GL153847   5.041   9.510  30.103 -0.0332 -0.3123  0.0049
 2680DPPC   GL253848   5.266   9.623  30.258 -0.2098 -0.1663  0.1395
 2680DPPC   C1A53849   5.264   9.404  29.748 -0.2313  0.1598  0.2118
 2680DPPC   C2A53850   5.651   9.579  29.705 -0.1275  0.1915 -0.1758
 2680DPPC   C3A53851   5.876   9.405  29.312  0.6330 -0.1434 -0.0454
 2680DPPC   C4A53852   6.295   9.447  29.043  0.0123 -0.0023 -0.1351
 2680DPPC   C1B53853   5.709   9.625  30.269 -0.0130  0.1351 -0.2349
 2680DPPC   C2B53854   6.133   9.500  30.076 -0.0507 -0.1910  0.3668
 2680DPPC   C3B53855   6.529   9.465  29.934 -0.0200  0.1333  0.4661
 2680DPPC   C4B53856   6.779   9.081  29.878 -0.3852  0.0003 -0.1349
 2681DPPC   NC353857  20.205   2.281  36.959  0.1362  0.0566  0.0518
 2681DPPC   PO453858  19.896   2.572  36.821  0.1683  0.6886 -0.1756
 2681DPPC   GL153859  19.814   2.305  36.557  0.1971 -0.5532 -0.2345
 2681DPPC   GL253860  19.987   2.011  36.597  0.1171 -0.0633 -0.3711
 2681DPPC   C1A53861  19.767   2.459  36.196 -0.1414 -0.0268 -0.4097
 2681DPPC   C2A53862  19.654   2.606  35.773 -0.0865 -0.1772 -0.0326
 2681DPPC   C3A53863  19.290   2.460  35.587  0.0016 -0.2000  0.1993
 2681DPPC   C4A53864  19.037   2.143  35.261 -0.1454  0.3041 -0.2998
 2681DPPC   C1B53865  20.257   1.916  36.203 -0.2172 -0.0843 -0.0687
 2681DPPC   C2B53866  20.307   2.294  35.901  0.0207  0.0294 -0.2735
 2681DPPC   C3B53867  20.154   2.541  35.777 -0.1114 -0.3549 -0.1090
 2681DPPC   C4B53868  20.035   2.626  35.407 -0.0535 -0.4427  0.1261
 2682DPPC   NC353869  11.174  -7.598  21.965 -0.0008  0.0565  0.0643
 2682DPPC   PO453870  11.251  -7.518  22.369 -0.2139  0.1407 -0.2332
 2682DPPC   GL153871  11.289  -7.186  22.634 -0.0000 -0.2184 -0.2499
 2682DPPC   GL253872  11.219  -6.924  22.374 -0.2191 -0.0079 -0.4926
 2682DPPC   C1A53873  11.251  -6.879  22.958 -0.2311 -0.2132  0.2911
 2682DPPC   C2A53874  11.098  -6.535  23.053 -0.1567 -0.4310 -0.1650
 2682DPPC   C3A53875  10.864  -6.194  22.842 -0.1269  0.0539 -0.3754
 2682DPPC   C4A53876  10.878  -5.840  22.953 -0.1656  0.3234  0.3712
 2682DPPC   C1B53877  11.458  -6.689  22.570 -0.1752 -0.2223  0.0744
 2682DPPC   C2B53878  11.316  -6.289  22.583  0.1813  0.2097  0.1782
 2682DPPC   C3B53879  11.162  -5.893  22.520  0.0496  0.0924  0.0552
 2682DPPC   C4B53880  10.725  -5.890  22.477  0.0365  0.1829 -0.0206
 2683DPPC   NC353881  19.520   0.791  32.065  0.1961  0.3381  0.0522
 2683DPPC   PO453882  19.426   0.635  31.714 -0.1974  0.1202 -0.0487
 2683DPPC   GL153883  19.627   0.294  31.945  0.0334  0.1513 -0.2730
 2683DPPC   GL253884  19.551   0.207  32.213 -0.1995  0.0766 -0.0059
 2683DPPC   C1A53885  20.018  -0.006  32.113  0.0239 -0.0635 -0.1172
 2683DPPC   C2A53886  20.227  -0.344  32.283  0.1303  0.2653  0.0169
 2683DPPC   C3A53887  20.419  -0.747  32.046 -0.0878 -0.0754  0.2296
 2683DPPC   C4A53888  20.220  -0.853  31.637 -0.2457 -0.2533 -0.0003
 2683DPPC   C1B53889  19.723   0.005  32.510 -0.1478  0.0728 -0.1177
 2683DPPC   C2B53890  20.084  -0.138  32.708 -0.1996  0.2103  0.1112
 2683DPPC   C3B53891  20.514  -0.150  32.844  0.2926  0.1554  0.1434
 2683DPPC   C4B53892  20.872   0.074  32.804  0.4514 -0.0612  0.0079
 2684DPPC   NC353893   9.331   0.735  29.847 -0.0019 -0.0660  0.0513
 2684DPPC   PO453894   9.162   0.893  30.214  0.2608 -0.0978  0.0368
 2684DPPC   GL153895   8.774   0.875  30.374  0.1628 -0.4122  0.0076
 2684DPPC   GL253896   8.657   0.640  30.159 -0.3452 -0.3414 -0.0811
 2684DPPC   C1A53897   8.556   0.762  30.720 -0.0889 -0.1154 -0.0486
 2684DPPC   C2A53898   8.325   0.481  30.986  0.2489  0.1909 -0.1006
 2684DPPC   C3A53899   8.509   0.223  31.197 -0.0378 -0.1222 -0.0857
 2684DPPC   C4A53900   8.372   0.020  31.537  0.0403  0.0896 -0.3520
 2684DPPC   C1B53901   8.292   0.534  30.349  0.1012  0.3108 -0.0107
 2684DPPC   C2B53902   8.101   0.352  30.555 -0.2228  0.1054 -0.0034
 2684DPPC   C3B53903   8.034   0.075  30.824  0.2372 -0.0241 -0.1492
 2684DPPC   C4B53904   7.772  -0.189  30.731 -0.0004  0.1950 -0.0863
 2685DPPC   NC353905  20.786  -1.168  29.090 -0.0487  0.1374 -0.1612
 2685DPPC   PO453906  20.914  -1.085  28.677  0.0170 -0.1251 -0.2234
 2685DPPC   GL153907  21.133  -1.448  28.900 -0.1124 -0.3965 -0.3114
 2685DPPC   GL253908  21.439  -1.545  28.934 -0.0090  0.1480  0.0051
 2685DPPC   C1A53909  21.017  -1.698  29.275  0.4016  0.2363  0.1443
 2685DPPC   C2A53910  21.364  -2.041  29.273  0.2304  0.1552 -0.1035
 2685DPPC   C3A53911  21.613  -2.379  29.430 -0.0779 -0.0919  0.0688
 2685DPPC   C4A53912  21.868  -2.747  29.557 -0.3693  0.1349  0.0985
 2685DPPC   C1B53913  21.835  -1.799  29.073  0.0914  0.2455  0.0044
 2685DPPC   C2B53914  22.105  -2.103  29.040  0.0511  0.1795 -0.4248
 2685DPPC   C3B53915  22.164  -2.379  29.279 -0.0967 -0.1254  0.0122
 2685DPPC   C4B53916  22.455  -2.641  29.489 -0.1254  0.2926 -0.0435
 2686DPPC   NC353917  20.031   4.571  16.837 -0.1584 -0.0943 -0.0414
 2686DPPC   PO453918  19.574   4.685  16.723 -0.1146 -0.0232  0.1833
 2686DPPC   GL153919  19.623   4.320  16.332 -0.0478 -0.0942  0.0702
 2686DPPC   GL253920  19.414   4.309  16.217 -0.2974 -0.3088  0.1893
 2686DPPC   C1A53921  19.854   4.267  15.960 -0.1000 -0.0298 -0.0519
 2686DPPC   C2A53922  19.998   4.018  15.546  0.3397  0.3203  0.0186
 2686DPPC   C3A53923  20.326   3.997  15.150  0.1569  0.1170 -0.1080
 2686DPPC   C4A53924  20.604   3.814  14.760  0.0284  0.0108  0.2402
 2686DPPC   C1B53925  19.425   4.482  15.767  0.0380  0.1427 -0.2720
 2686DPPC   C2B53926  19.697   4.439  15.449  0.1118  0.0081  0.0388
 2686DPPC   C3B53927  19.876   4.365  15.034 -0.2360 -0.1038 -0.0352
 2686DPPC   C4B53928  20.022   4.282  14.626 -0.3850 -0.0969  0.3195
 2687DPPC   NC353929  16.893  -3.720  20.193 -0.6383  0.0226  0.2425
 2687DPPC   PO453930  16.997  -3.996  19.963 -0.1956  0.2570 -0.2266
 2687DPPC   GL153931  17.056  -4.326  19.759 -0.2216 -0.2182 -0.0760
 2687DPPC   GL253932  17.272  -4.559  19.905  0.0221  0.1064  0.1271
 2687DPPC   C1A53933  17.000  -4.715  19.507 -0.2534 -0.2073 -0.1593
 2687DPPC   C2A53934  16.759  -5.034  19.465  0.3336 -0.1008 -0.0570
 2687DPPC   C3A53935  16.556  -5.371  19.317 -0.1538 -0.0124  0.1966
 2687DPPC   C4A53936  16.214  -5.446  18.963  0.2744 -0.2373  0.0596
 2687DPPC   C1B53937  17.137  -4.970  19.968 -0.2452  0.1223 -0.1437
 2687DPPC   C2B53938  17.050  -5.317  19.761 -0.0849  0.1608 -0.2582
 2687DPPC   C3B53939  16.893  -5.715  19.495 -0.0599  0.1772 -0.1637
 2687DPPC   C4B53940  16.727  -6.172  19.695  0.0736  0.1451 -0.3975
 2688DPPC   NC353941  22.134  -1.997  25.311  0.1996  0.1155  0.0142
 2688DPPC   PO453942  21.868  -2.169  24.980  0.0815 -0.0649 -0.0683
 2688DPPC   GL153943  22.005  -2.502  25.095 -0.1176  0.0696  0.2510
 2688DPPC   GL253944  21.833  -2.742  24.956 -0.0108 -0.2257 -0.1474
 2688DPPC   C1A53945  22.140  -2.764  25.357 -0.3101 -0.1290 -0.1589
 2688DPPC   C2A53946  22.341  -3.111  25.447  0.1890  0.3050 -0.0257
 2688DPPC   C3A53947  22.661  -3.353  25.370  0.0678  0.0677 -0.3508
 2688DPPC   C4A53948  23.003  -3.521  25.652  0.2489  0.0734  0.0600
 2688DPPC   C1B53949  22.141  -3.026  24.932  0.0118  0.1197  0.0621
 2688DPPC   C2B53950  22.326  -3.482  25.062 -0.0182 -0.1565 -0.4740
 2688DPPC   C3B53951  22.636  -3.907  24.919  0.1681 -0.0177 -0.0096
 2688DPPC   C4B53952  22.845  -4.227  25.195 -0.0871  0.5350 -0.1580
 2689DPPC   NC353953  15.578  -0.957  17.716 -0.0988 -0.1562  0.2675
 2689DPPC   PO453954  15.303  -0.699  17.520 -0.0154 -0.0822 -0.1831
 2689DPPC   GL153955  15.444  -0.855  17.066 -0.0596  0.1164 -0.0116
 2689DPPC   GL253956  15.264  -0.956  16.836 -0.0632 -0.2068 -0.1630
 2689DPPC   C1A53957  15.817  -0.955  16.953 -0.0462  0.1702 -0.1286
 2689DPPC   C2A53958  15.942  -1.368  16.688  0.1269  0.2109  0.0165
 2689DPPC   C3A53959  16.013  -1.852  16.723 -0.2952 -0.2708 -0.2779
 2689DPPC   C4A53960  16.205  -2.088  16.814 -0.3814  0.1456 -0.1700
 2689DPPC   C1B53961  15.310  -1.089  16.439 -0.1468 -0.3980  0.0091
 2689DPPC   C2B53962  15.569  -1.381  16.163 -0.4216  0.1645  0.0397
 2689DPPC   C3B53963  15.689  -1.802  15.922 -0.1086  0.2215 -0.2571
 2689DPPC   C4B53964  15.753  -2.284  15.810  0.1539 -0.0031 -0.0703
 2690DPPC   NC353965  28.761   2.544  21.725 -0.0827  0.0205  0.0766
 2690DPPC   PO453966  28.799   2.102  21.893 -0.4312 -0.4050 -0.3309
 2690DPPC   GL153967  28.438   2.121  22.168 -0.1575  0.0048 -0.6553
 2690DPPC   GL253968  28.377   2.395  21.994 -0.3074  0.0954 -0.0219
 2690DPPC   C1A53969  28.003   2.281  22.276  0.1869  0.1032  0.0232
 2690DPPC   C2A53970  27.579   2.348  22.236  0.2237 -0.2290 -0.2024
 2690DPPC   C3A53971  27.296   2.538  22.485  0.3027  0.2076 -0.0959
 2690DPPC   C4A53972  26.956   2.872  22.513 -0.1136  0.0867  0.2035
 2690DPPC   C1B53973  28.056   2.051  21.828  0.1579 -0.0845 -0.0414
 2690DPPC   C2B53974  27.635   2.045  21.725  0.3166 -0.1412 -0.0834
 2690DPPC   C3B53975  27.266   2.074  21.862  0.0412 -0.0803  0.1144
 2690DPPC   C4B53976  26.822   2.232  21.862 -0.2348 -0.1226  0.0502
 2691DPPC   NC353977  12.170   6.841  32.460 -0.2669  0.1076 -0.3200
 2691DPPC   PO453978  12.306   6.488  32.712 -0.1159 -0.2617  0.1887
 2691DPPC   GL153979  12.028   6.646  32.898  0.2157  0.1992  0.2382
 2691DPPC   GL253980  11.895   6.475  32.988  0.0639  0.1581  0.0456
 2691DPPC   C1A53981  12.020   6.905  33.306  0.1658 -0.2666  0.0088
 2691DPPC   C2A53982  11.802   6.983  33.545 -0.2106  0.0576  0.0222
 2691DPPC   C3A53983  11.746   6.943  33.937  0.0922 -0.2992 -0.1466
 2691DPPC   C4A53984  11.392   6.767  34.141 -0.2922  0.2451 -0.0654
 2691DPPC   C1B53985  12.035   6.386  33.376  0.0282 -0.0655 -0.0546
 2691DPPC   C2B53986  12.047   6.067  33.631  0.0376  0.2199 -0.0864
 2691DPPC   C3B53987  11.969   6.011  34.139  0.0869  0.1718  0.0477
 2691DPPC   C4B53988  11.654   6.003  34.439  0.1121  0.1139  0.0546
 2692DPPC   NC353989  12.105   3.782  17.638  0.0174 -0.0522  0.1126
 2692DPPC   PO453990  12.168   3.342  17.324 -0.3190 -0.1102  0.0754
 2692DPPC   GL153991  11.916   3.652  17.104 -0.0992  0.0252 -0.1682
 2692DPPC   GL253992  11.801   3.982  17.254  0.1805  0.2425  0.0113
 2692DPPC   C1A53993  11.616   3.742  16.854  0.3612 -0.0373  0.1728
 2692DPPC   C2A53994  11.322   3.630  16.538  0.4493 -0.0977  0.1806
 2692DPPC   C3A53995  11.160   3.283  16.238  0.0027  0.2492  0.0147
 2692DPPC   C4A53996  10.707   3.102  16.340 -0.2810 -0.0268  0.4006
 2692DPPC   C1B53997  11.901   4.367  17.160 -0.3488  0.0785  0.1915
 2692DPPC   C2B53998  11.584   4.452  16.812 -0.4482 -0.2708  0.0863
 2692DPPC   C3B53999  11.230   4.602  16.528 -0.4034  0.1083 -0.0153
 2692DPPC   C4B54000  10.947   4.794  16.313  0.1302  0.0878 -0.4093
 2693DPPC   NC354001   7.000  -3.869  19.340  0.1736 -0.0848 -0.2134
 2693DPPC   PO454002   7.427  -4.069  19.617 -0.0075  0.0994 -0.1464
 2693DPPC   GL154003   7.834  -3.805  19.654 -0.1004  0.0313 -0.0546
 2693DPPC   GL254004   7.746  -3.673  19.884  0.1978 -0.1525 -0.1069
 2693DPPC   C1A54005   7.859  -3.308  19.548 -0.2480  0.2383  0.0849
 2693DPPC   C2A54006   7.843  -2.871  19.659 -0.2782 -0.4742 -0.2505
 2693DPPC   C3A54007   8.200  -2.606  19.749 -0.2635  0.1847 -0.0212
 2693DPPC   C4A54008   8.438  -2.335  20.092  0.0592  0.2867 -0.0850
 2693DPPC   C1B54009   8.093  -3.313  19.993 -0.0055 -0.0724  0.1822
 2693DPPC   C2B54010   8.558  -3.259  19.927  0.0990  0.2877  0.0255
 2693DPPC   C3B54011   9.014  -3.142  20.041  0.0471  0.2595  0.1232
 2693DPPC   C4B54012   9.103  -2.848  20.318 -0.1791  0.1775  0.0976
 2694DPPC   NC354013  16.590  10.276  20.733 -0.1746 -0.1441  0.2215
 2694DPPC   PO454014  16.502   9.960  20.456  0.0043  0.0715  0.0833
 2694DPPC   GL154015  16.692  10.311  20.204  0.2358  0.3396  0.0774
 2694DPPC   GL254016  16.520  10.501  20.256  0.0935  0.0690  0.2892
 2694DPPC   C1A54017  16.924  10.582  20.037  0.2707 -0.2714 -0.1038
 2694DPPC   C2A54018  17.258  10.841  19.790 -0.1569 -0.3540  0.3410
 2694DPPC   C3A54019  17.411  11.253  19.664  0.3491 -0.0935 -0.3239
 2694DPPC   C4A54020  17.414  11.473  19.346  0.2459  0.2867 -0.4888
 2694DPPC   C1B54021  16.539  11.021  20.320  0.0106 -0.0301  0.1796
 2694DPPC   C2B54022  16.582  11.386  20.554  0.0672 -0.1714  0.1350
 2694DPPC   C3B54023  16.970  11.673  20.505  0.0149 -0.1189  0.0185
 2694DPPC   C4B54024  17.152  12.048  20.506  0.2096 -0.1419  0.0343
 2695DPPC   NC354025   5.586   3.224  33.414  0.0812  0.2140 -0.2461
 2695DPPC   PO454026   5.762   3.586  33.171  0.2033  0.0950  0.1177
 2695DPPC   GL154027   6.125   3.506  32.916 -0.1541 -0.2519 -0.1558
 2695DPPC   GL254028   6.372   3.313  33.024 -0.0298 -0.0515 -0.2968
 2695DPPC   C1A54029   6.357   3.371  32.516  0.1621  0.1975  0.0910
 2695DPPC   C2A54030   6.719   3.700  32.408  0.0036 -0.2750 -0.0844
 2695DPPC   C3A54031   7.158   3.694  32.263 -0.1014  0.0241  0.0699
 2695DPPC   C4A54032   7.507   3.868  32.190 -0.4520  0.2883  0.3388
 2695DPPC   C1B54033   6.643   3.668  33.003  0.1647  0.0919 -0.1000
 2695DPPC   C2B54034   6.980   3.806  32.974  0.1244  0.1222  0.0976
 2695DPPC   C3B54035   7.246   3.739  33.368  0.0029  0.1098  0.0885
 2695DPPC   C4B54036   7.396   3.429  33.550 -0.2531  0.0736 -0.2879
 2696DPPC   NC354037  13.445  10.441  21.871 -0.0425 -0.0114 -0.0182
 2696DPPC   PO454038  13.625  10.779  21.955  0.0478 -0.0144 -0.0106
 2696DPPC   GL154039  13.339  11.147  22.047 -0.0019 -0.0813  0.0272
 2696DPPC   GL254040  13.532  11.284  22.297 -0.0482 -0.1268  0.2313
 2696DPPC   C1A54041  12.955  11.160  21.879 -0.0056  0.1211  0.0848
 2696DPPC   C2A54042  12.644  11.268  21.639  0.0160  0.1008 -0.1323
 2696DPPC   C3A54043  12.390  11.540  21.425  0.2219  0.1778 -0.2945
 2696DPPC   C4A54044  12.269  11.927  21.332 -0.0475 -0.0218  0.0249
 2696DPPC   C1B54045  13.437  11.718  22.209 -0.3148  0.1194  0.0895
 2696DPPC   C2B54046  13.148  12.012  22.063  0.0366 -0.2407 -0.3089
 2696DPPC   C3B54047  12.787  12.310  21.974  0.2499  0.1849  0.0928
 2696DPPC   C4B54048  12.480  12.590  21.724  0.0445  0.0333 -0.0698
 2697DPPC   NC354049   5.589  -0.072  17.403  0.2011 -0.1967 -0.2385
 2697DPPC   PO454050   5.949  -0.357  17.434 -0.0560  0.3264  0.1185
 2697DPPC   GL154051   6.407  -0.330  17.558 -0.0682 -0.1529  0.0878
 2697DPPC   GL254052   6.649  -0.570  17.723 -0.0470 -0.1411 -0.0552
 2697DPPC   C1A54053   6.872  -0.143  17.516 -0.0287  0.1841 -0.4859
 2697DPPC   C2A54054   7.272  -0.006  17.566 -0.0709  0.0784 -0.1079
 2697DPPC   C3A54055   7.543  -0.221  17.998  0.2605 -0.0703 -0.2717
 2697DPPC   C4A54056   7.635  -0.041  18.419  0.3046  0.0039 -0.2984
 2697DPPC   C1B54057   7.063  -0.481  17.833  0.1628  0.0749  0.2202
 2697DPPC   C2B54058   7.505  -0.759  17.819 -0.1446 -0.1633  0.0657
 2697DPPC   C3B54059   7.824  -0.911  17.824  0.1830 -0.2037  0.0153
 2697DPPC   C4B54060   7.930  -0.767  18.184 -0.3209 -0.2447 -0.0172
 2698DPPC   NC354061  15.323   7.405  17.300  0.0093  0.0800 -0.4631
 2698DPPC   PO454062  14.945   7.507  17.209 -0.0615  0.0003 -0.2086
 2698DPPC   GL154063  15.027   7.718  16.953  0.0453 -0.0566  0.1152
 2698DPPC   GL254064  15.327   7.869  16.997 -0.0650 -0.0178  0.0003
 2698DPPC   C1A54065  14.738   7.914  16.728 -0.0395 -0.1673 -0.1101
 2698DPPC   C2A54066  14.580   8.015  16.346 -0.0744  0.2463 -0.2217
 2698DPPC   C3A54067  14.654   7.935  16.033  0.3321 -0.2497 -0.2100
 2698DPPC   C4A54068  14.952   7.974  15.850 -0.1630  0.0285 -0.0826
 2698DPPC   C1B54069  15.251   8.029  16.543  0.1288  0.1274 -0.0796
 2698DPPC   C2B54070  14.977   8.285  16.301 -0.0537  0.0236 -0.1849
 2698DPPC   C3B54071  14.695   8.460  15.900 -0.3921  0.4308 -0.0326
 2698DPPC   C4B54072  14.442   8.777  15.850 -0.0380 -0.0127  0.2505
 2699DPPC   NC354073  15.584  16.941  27.871 -0.1117 -0.0509  0.0105
 2699DPPC   PO454074  15.481  17.065  28.262  0.0618 -0.2130 -0.0358
 2699DPPC   GL154075  15.696  16.532  28.186  0.1314  0.2797 -0.0654
 2699DPPC   GL254076  15.656  16.304  28.479  0.3243  0.2773  0.0786
 2699DPPC   C1A54077  15.832  16.119  28.067 -0.0038  0.2987 -0.1490
 2699DPPC   C2A54078  15.827  15.783  27.974 -0.1589 -0.2489  0.0388
 2699DPPC   C3A54079  15.612  15.402  27.905 -0.2891  0.0254  0.1712
 2699DPPC   C4A54080  15.378  15.143  27.649 -0.2457 -0.3098 -0.0425
 2699DPPC   C1B54081  15.501  15.843  28.374  0.1229  0.1041 -0.0424
 2699DPPC   C2B54082  15.348  15.389  28.362  0.0103  0.4259  0.2244
 2699DPPC   C3B54083  15.425  15.067  28.645 -0.3243 -0.0033  0.1297
 2699DPPC   C4B54084  15.221  14.843  29.037 -0.1273  0.1225 -0.1767
 2700DPPC   NC354085  15.092   5.952  17.212 -0.0810 -0.2617 -0.1872
 2700DPPC   PO454086  14.778   6.030  16.934  0.1361  0.4321  0.2315
 2700DPPC   GL154087  14.678   6.312  16.672 -0.3484  0.2320  0.0293
 2700DPPC   GL254088  14.281   6.530  16.718  0.1919  0.0791 -0.2559
 2700DPPC   C1A54089  14.690   6.552  16.264  0.2429  0.3287  0.1373
 2700DPPC   C2A54090  14.693   6.403  15.897  0.2412  0.0401  0.0533
 2700DPPC   C3A54091  15.017   6.587  15.641  0.0235  0.3175 -0.0347
 2700DPPC   C4A54092  15.306   6.718  15.339  0.3911  0.2701  0.0733
 2700DPPC   C1B54093  14.137   6.713  16.302 -0.0268 -0.1072 -0.4869
 2700DPPC   C2B54094  14.255   6.696  15.940  0.1767 -0.1497  0.0379
 2700DPPC   C3B54095  14.086   6.481  15.603 -0.2775 -0.0366 -0.3064
 2700DPPC   C4B54096  13.703   6.631  15.336 -0.1955  0.3164  0.1990
 2701DPPC   NC354097  11.951  14.960  32.035  0.3366  0.2713  0.3203
 2701DPPC   PO454098  12.356  14.855  32.191 -0.0580  0.1921 -0.2462
 2701DPPC   GL154099  12.218  14.452  32.096 -0.3571  0.1926  0.1006
 2701DPPC   GL254100  12.390  14.226  32.269  0.1379 -0.3534  0.0632
 2701DPPC   C1A54101  11.973  14.260  31.834  0.1752  0.1347 -0.0668
 2701DPPC   C2A54102  11.631  14.037  32.009  0.4230 -0.0999  0.0341
 2701DPPC   C3A54103  11.561  13.653  32.217 -0.1385 -0.0716  0.1219
 2701DPPC   C4A54104  11.257  13.415  31.912 -0.0847  0.2442  0.1555
 2701DPPC   C1B54105  12.516  13.747  32.286  0.1052  0.1557  0.0979
 2701DPPC   C2B54106  12.337  13.293  32.256  0.0971 -0.2488  0.2574
 2701DPPC   C3B54107  12.356  12.877  32.078 -0.0796  0.3407 -0.0998
 2701DPPC   C4B54108  12.537  12.523  31.838  0.0094 -0.0082  0.0185
 2702DPPC   NC354109  13.603  -3.496  23.506 -0.0602  0.0438 -0.3899
 2702DPPC   PO454110  13.800  -3.965  23.712  0.1727 -0.3068 -0.3252
 2702DPPC   GL154111  13.815  -4.404  23.770  0.2206  0.0432 -0.4124
 2702DPPC   GL254112  13.973  -4.524  24.043  0.1321  0.0912  0.3571
 2702DPPC   C1A54113  13.641  -4.790  23.780 -0.2869  0.2831  0.0024
 2702DPPC   C2A54114  13.630  -5.200  23.760 -0.1370 -0.0203  0.3695
 2702DPPC   C3A54115  13.351  -5.633  23.774  0.1709  0.0447 -0.2068
 2702DPPC   C4A54116  13.220  -6.050  23.595 -0.0116 -0.1053  0.0775
 2702DPPC   C1B54117  14.002  -4.946  24.207  0.1927 -0.0461 -0.2417
 2702DPPC   C2B54118  13.851  -5.378  24.190 -0.1224  0.1650  0.1114
 2702DPPC   C3B54119  13.802  -5.811  24.190 -0.0412 -0.0494 -0.2879
 2702DPPC   C4B54120  13.412  -6.031  24.131 -0.1401  0.3868 -0.1669
 2703DPPC   NC354121  20.839  14.856  30.457 -0.2814  0.0019 -0.1102
 2703DPPC   PO454122  20.967  14.721  30.040 -0.4149 -0.2627  0.1732
 2703DPPC   GL154123  20.688  14.456  30.187 -0.1645  0.1472  0.1850
 2703DPPC   GL254124  20.549  14.517  29.791 -0.1253 -0.0455 -0.0308
 2703DPPC   C1A54125  20.583  14.114  30.062 -0.0564  0.1900 -0.0782
 2703DPPC   C2A54126  20.622  13.727  29.793 -0.2681 -0.4152  0.2268
 2703DPPC   C3A54127  20.269  13.489  29.532  0.1653 -0.2673  0.2671
 2703DPPC   C4A54128  19.959  13.467  29.239  0.1949  0.2304 -0.1057
 2703DPPC   C1B54129  20.451  14.108  29.553 -0.4635 -0.2772 -0.1884
 2703DPPC   C2B54130  20.243  13.873  29.160  0.1511  0.0159 -0.1186
 2703DPPC   C3B54131  20.030  13.707  28.828  0.1680  0.0143 -0.0773
 2703DPPC   C4B54132  20.248  13.603  28.428  0.1443 -0.1758 -0.3413
 2704DPPC   NC354133   5.456   9.996  20.878  0.0100  0.0389  0.0646
 2704DPPC   PO454134   5.792  10.201  20.542 -0.0699  0.0829  0.2332
 2704DPPC   GL154135   6.095  10.122  20.749 -0.2191  0.3638 -0.2544
 2704DPPC   GL254136   6.153   9.905  20.998 -0.0155 -0.3098  0.1272
 2704DPPC   C1A54137   6.477  10.304  21.151 -0.1091 -0.2162  0.1797
 2704DPPC   C2A54138   6.830   9.968  21.317  0.0099  0.0772  0.1500
 2704DPPC   C3A54139   6.904   9.545  21.599  0.0167 -0.0259 -0.0558
 2704DPPC   C4A54140   6.843   9.097  21.546  0.3573  0.1135  0.1593
 2704DPPC   C1B54141   6.416   9.743  21.227 -0.0023  0.0551  0.2632
 2704DPPC   C2B54142   6.803   9.521  21.109  0.0807  0.3206  0.0641
 2704DPPC   C3B54143   7.185   9.315  21.248  0.0861  0.3548 -0.2811
 2704DPPC   C4B54144   7.417   9.236  21.635 -0.0179  0.2809  0.5300
 2705DPPC   NC354145   8.365   8.635  27.863 -0.0547  0.1092  0.0997
 2705DPPC   PO454146   8.320   8.374  28.242  0.2068 -0.1131 -0.0336
 2705DPPC   GL154147   7.905   8.631  28.120 -0.1756  0.0492  0.0962
 2705DPPC   GL254148   7.936   8.701  28.440  0.1924  0.0789 -0.3362
 2705DPPC   C1A54149   7.496   8.536  27.971 -0.1085  0.0390  0.0034
 2705DPPC   C2A54150   7.090   8.663  28.188 -0.0285  0.1104 -0.0863
 2705DPPC   C3A54151   6.989   8.908  28.567 -0.1597 -0.0821  0.0870
 2705DPPC   C4A54152   7.225   9.087  28.999 -0.1298  0.2884  0.2232
 2705DPPC   C1B54153   7.928   9.063  28.736  0.0333 -0.4029 -0.0747
 2705DPPC   C2B54154   7.654   9.295  28.942 -0.0789  0.0087  0.1672
 2705DPPC   C3B54155   7.352   9.463  28.674 -0.1595 -0.0955  0.1068
 2705DPPC   C4B54156   7.118   9.715  28.414 -0.0437  0.1432 -0.0990
 2706DPPC   NC354157  20.558   2.626  18.667  0.2815 -0.1627  0.0796
 2706DPPC   PO454158  20.449   2.202  18.797  0.1519  0.1721  0.0044
 2706DPPC   GL154159  20.604   1.812  18.583 -0.2272 -0.5302  0.1584
 2706DPPC   GL254160  20.326   1.658  18.629  0.1272  0.0985  0.0640
 2706DPPC   C1A54161  20.869   1.527  18.272 -0.0857 -0.1107  0.2582
 2706DPPC   C2A54162  21.136   1.340  17.910 -0.1360 -0.0167  0.2265
 2706DPPC   C3A54163  21.369   1.498  17.574 -0.1022 -0.2345 -0.0672
 2706DPPC   C4A54164  21.735   1.652  17.377 -0.2365  0.1372 -0.2912
 2706DPPC   C1B54165  20.310   1.479  18.289 -0.0579 -0.1365 -0.0533
 2706DPPC   C2B54166  19.948   1.227  17.964 -0.0836 -0.1045 -0.1245
 2706DPPC   C3B54167  19.755   1.381  17.526 -0.1583  0.0190  0.0203
 2706DPPC   C4B54168  19.761   1.306  17.108  0.0747  0.2941 -0.0374
 2707DPPC   NC354169  22.427  -1.217  21.986  0.0287  0.0067  0.1040
 2707DPPC   PO454170  22.528  -1.568  21.904 -0.1613  0.1814 -0.1443
 2707DPPC   GL154171  22.759  -2.008  21.805  0.2698 -0.0028  0.1312
 2707DPPC   GL254172  23.061  -1.999  22.014  0.1329 -0.1412  0.4083
 2707DPPC   C1A54173  22.831  -2.380  21.840 -0.1952 -0.0365  0.0107
 2707DPPC   C2A54174  22.933  -2.810  21.574  0.0376  0.1629  0.0936
 2707DPPC   C3A54175  23.040  -3.128  21.289  0.0832  0.3458  0.0653
 2707DPPC   C4A54176  23.155  -3.428  20.970  0.0136  0.0908  0.1298
 2707DPPC   C1B54177  23.304  -2.219  21.871  0.1824  0.2211 -0.0023
 2707DPPC   C2B54178  23.564  -1.900  21.644 -0.1396 -0.0177 -0.2036
 2707DPPC   C3B54179  23.994  -1.797  21.422 -0.1194 -0.0964  0.3613
 2707DPPC   C4B54180  24.356  -1.711  21.602  0.1209 -0.0313  0.1634
 2708DPPC   NC354181  11.814   6.381  32.480  0.2888  0.1221 -0.3758
 2708DPPC   PO454182  11.603   6.083  32.627  0.1337  0.0947  0.1942
 2708DPPC   GL154183  11.444   6.400  32.824  0.0145 -0.0087  0.0318
 2708DPPC   GL254184  11.278   6.448  32.557  0.2539 -0.4530 -0.1182
 2708DPPC   C1A54185  11.194   6.589  33.097  0.2695  0.4400 -0.1446
 2708DPPC   C2A54186  10.838   6.782  33.289 -0.0072  0.2858  0.0416
 2708DPPC   C3A54187  10.812   7.103  33.416  0.2344  0.0008 -0.1032
 2708DPPC   C4A54188  10.848   7.467  33.653  0.2854  0.0913  0.1230
 2708DPPC   C1B54189  11.142   6.780  32.687 -0.1371  0.0377 -0.0982
 2708DPPC   C2B54190  11.065   7.097  32.887  0.1915  0.0285 -0.2246
 2708DPPC   C3B54191  10.937   7.506  33.170 -0.2637 -0.1356 -0.0222
 2708DPPC   C4B54192  10.992   7.925  33.406  0.1603  0.3985  0.2143
 2709DPPC   NC354193  24.507   4.548  24.767 -0.3346  0.1924  0.1282
 2709DPPC   PO454194  24.767   4.237  24.875  0.1612  0.0853  0.0452
 2709DPPC   GL154195  25.070   4.541  24.717 -0.3424  0.1275  0.3251
 2709DPPC   GL254196  25.315   4.477  24.398 -0.0173 -0.0874  0.0000
 2709DPPC   C1A54197  25.510   4.695  24.881 -0.2415  0.1467 -0.0758
 2709DPPC   C2A54198  25.850   4.919  25.151  0.1241 -0.1690  0.2030
 2709DPPC   C3A54199  26.095   5.079  25.498 -0.1137 -0.2791 -0.2587
 2709DPPC   C4A54200  26.270   5.071  25.877 -0.5694 -0.0557 -0.1234
 2709DPPC   C1B54201  25.371   4.143  24.120 -0.0765 -0.4083  0.0477
 2709DPPC   C2B54202  25.511   3.765  24.250  0.1402  0.0187 -0.3757
 2709DPPC   C3B54203  25.665   3.447  24.608  0.1703  0.3530  0.3314
 2709DPPC   C4B54204  26.058   3.244  24.438 -0.1582 -0.1321 -0.2015
 2710DPPC   NC354205  21.713   1.466  19.409  0.0357  0.0738 -0.0319
 2710DPPC   PO454206  22.037   1.238  19.517  0.2021  0.3246 -0.1493
 2710DPPC   GL154207  21.835   0.984  19.126 -0.2254  0.1801 -0.5336
 2710DPPC   GL254208  21.883   1.058  18.834  0.0722 -0.0270 -0.1372
 2710DPPC   C1A54209  21.610   0.591  19.059 -0.1611 -0.1692 -0.1957
 2710DPPC   C2A54210  21.459   0.361  18.729  0.0051  0.2446 -0.0259
 2710DPPC   C3A54211  21.383   0.301  18.296  0.0248 -0.1113  0.0805
 2710DPPC   C4A54212  21.395   0.012  17.901 -0.0865  0.0820 -0.0849
 2710DPPC   C1B54213  21.614   0.843  18.585 -0.0404 -0.3027  0.1476
 2710DPPC   C2B54214  21.166   0.754  18.322  0.2709  0.2336  0.0884
 2710DPPC   C3B54215  20.722   0.929  18.371 -0.1651  0.0745  0.2178
 2710DPPC   C4B54216  20.292   0.957  18.227 -0.2914 -0.1651  0.0775
 2711DPPC   NC354217  23.035  -2.328   9.958  0.1034  0.0557  0.1751
 2711DPPC   PO454218  22.684  -1.972   9.947  0.1176 -0.1963  0.1195
 2711DPPC   GL154219  22.479  -1.856  10.333 -0.3085  0.2885 -0.4959
 2711DPPC   GL254220  22.287  -1.615  10.439 -0.2769 -0.1226 -0.0553
 2711DPPC   C1A54221  22.439  -1.943  10.835 -0.0586 -0.1850  0.1079
 2711DPPC   C2A54222  22.135  -1.754  11.059 -0.0017  0.1169  0.0045
 2711DPPC   C3A54223  21.884  -1.486  11.251 -0.0026  0.3136 -0.1913
 2711DPPC   C4A54224  21.724  -1.301  11.721  0.2586  0.1684 -0.1255
 2711DPPC   C1B54225  21.856  -1.582  10.605  0.2268  0.2658 -0.1321
 2711DPPC   C2B54226  21.451  -1.342  10.526  0.1690  0.0356 -0.0622
 2711DPPC   C3B54227  21.099  -1.135  10.753 -0.1057  0.0064  0.0290
 2711DPPC   C4B54228  20.766  -0.771  10.961  0.2550 -0.3809  0.0350
 2712DPPC   NC354229  16.018   0.999  16.598 -0.3121 -0.2767  0.1547
 2712DPPC   PO454230  16.245   1.287  16.424  0.0129  0.0632 -0.1511
 2712DPPC   GL154231  16.479   1.237  16.126 -0.0303  0.1830 -0.2453
 2712DPPC   GL254232  16.564   1.432  16.001  0.3912 -0.2432  0.2022
 2712DPPC   C1A54233  16.705   0.959  15.920  0.0973  0.2184  0.2381
 2712DPPC   C2A54234  17.057   0.744  15.903  0.0024  0.3395  0.0855
 2712DPPC   C3A54235  17.300   0.403  15.671  0.1816 -0.4436  0.1038
 2712DPPC   C4A54236  17.447   0.085  15.469 -0.0992  0.2882  0.0261
 2712DPPC   C1B54237  16.660   1.350  15.605  0.0292 -0.3242 -0.2292
 2712DPPC   C2B54238  16.723   1.283  15.100 -0.5023 -0.1976 -0.0293
 2712DPPC   C3B54239  17.086   1.224  15.005  0.2968  0.0219 -0.3025
 2712DPPC   C4B54240  17.482   1.536  14.977 -0.1053  0.1064  0.0423
 2713DPPC   NC354241  28.938   0.460  27.191  0.1561  0.1875 -0.0030
 2713DPPC   PO454242  28.766   0.267  27.527  0.0313 -0.0202 -0.1219
 2713DPPC   GL154243  28.284   0.324  27.556 -0.1547  0.0089 -0.0027
 2713DPPC   GL254244  28.306   0.660  27.629 -0.0935 -0.0055 -0.2489
 2713DPPC   C1A54245  27.858   0.454  27.528 -0.3162 -0.1962  0.1414
 2713DPPC   C2A54246  27.556   0.602  27.247  0.1153 -0.0564 -0.0624
 2713DPPC   C3A54247  27.220   0.932  27.272 -0.2384 -0.0644 -0.0803
 2713DPPC   C4A54248  26.829   1.049  27.346 -0.1691 -0.1336 -0.1291
 2713DPPC   C1B54249  28.022   0.814  27.278  0.0612  0.0099 -0.1518
 2713DPPC   C2B54250  27.734   1.000  26.966  0.1434  0.0836 -0.1601
 2713DPPC   C3B54251  27.602   1.052  26.512 -0.2712 -0.2871  0.2351
 2713DPPC   C4B54252  27.516   1.238  26.103 -0.0513  0.0563  0.0752
 2714DPPC   NC354253  27.073   9.320  23.160 -0.0181  0.0299  0.2362
 2714DPPC   PO454254  27.225   8.969  23.048 -0.0529  0.0717  0.0917
 2714DPPC   GL154255  26.899   8.872  22.726  0.2961  0.0480  0.1947
 2714DPPC   GL254256  26.876   9.069  22.464  0.2692 -0.1179  0.1316
 2714DPPC   C1A54257  26.751   8.549  22.964 -0.0683  0.2727 -0.3989
 2714DPPC   C2A54258  26.535   8.170  23.076 -0.2849  0.2972 -0.2237
 2714DPPC   C3A54259  26.364   7.910  23.433  0.0765 -0.1190 -0.3218
 2714DPPC   C4A54260  25.961   7.663  23.506  0.1362 -0.0447  0.2312
 2714DPPC   C1B54261  26.498   8.842  22.498  0.1651  0.2538  0.0563
 2714DPPC   C2B54262  26.069   8.888  22.637 -0.3545 -0.1633  0.3300
 2714DPPC   C3B54263  25.716   8.634  22.743  0.1705 -0.0136 -0.1366
 2714DPPC   C4B54264  25.477   8.381  23.113 -0.0383 -0.1713 -0.1782
 2715DPPC   NC354265  15.984  -8.721  21.828 -0.2786  0.1852  0.0238
 2715DPPC   PO454266  15.526  -8.409  21.720 -0.1595  0.1430 -0.0137
 2715DPPC   GL154267  15.678  -8.058  21.631 -0.0755 -0.2963  0.1773
 2715DPPC   GL254268  15.489  -7.954  21.355  0.1657 -0.0834  0.2598
 2715DPPC   C1A54269  15.946  -7.797  21.503 -0.3305 -0.2131  0.0328
 2715DPPC   C2A54270  15.788  -7.418  21.352 -0.0229  0.1055  0.0625
 2715DPPC   C3A54271  15.554  -7.232  20.965  0.1010  0.1445 -0.0229
 2715DPPC   C4A54272  15.457  -7.035  20.621 -0.0269  0.1432  0.0876
 2715DPPC   C1B54273  15.570  -7.891  20.946 -0.3695 -0.0406 -0.3023
 2715DPPC   C2B54274  15.668  -7.654  20.642  0.1011  0.0197  0.0053
 2715DPPC   C3B54275  15.860  -7.351  20.539  0.1294  0.4795  0.1252
 2715DPPC   C4B54276  16.023  -7.176  20.105  0.2540  0.1214  0.4283
 2716DPPC   NC354277  11.674   2.092  17.836  0.2580 -0.2066  0.1791
 2716DPPC   PO454278  11.768   2.123  17.448  0.1166 -0.2045  0.1978
 2716DPPC   GL154279  11.507   2.286  17.108  0.3422  0.0318  0.2106
 2716DPPC   GL254280  11.172   2.267  17.152 -0.3210  0.3156 -0.1151
 2716DPPC   C1A54281  11.465   2.394  16.633  0.0305  0.0929 -0.1214
 2716DPPC   C2A54282  11.394   2.313  16.236 -0.0015  0.1543  0.0350
 2716DPPC   C3A54283  11.459   2.395  15.795 -0.0869 -0.1666  0.0211
 2716DPPC   C4A54284  11.233   2.591  15.469 -0.1227 -0.1339  0.2824
 2716DPPC   C1B54285  11.024   2.501  16.930 -0.1461 -0.0951  0.0695
 2716DPPC   C2B54286  10.806   2.548  16.511  0.0292  0.0491 -0.1007
 2716DPPC   C3B54287  10.551   2.620  16.217 -0.1215  0.1301  0.2588
 2716DPPC   C4B54288  10.498   2.894  15.842  0.0304 -0.2519 -0.3276
 2717DPPC   NC354289  21.578   2.736  18.061 -0.1432  0.0133 -0.2106
 2717DPPC   PO454290  21.894   2.679  18.321  0.0945  0.0231  0.0300
 2717DPPC   GL154291  22.184   2.330  18.227 -0.1194 -0.0358 -0.1445
 2717DPPC   GL254292  22.515   2.337  18.172 -0.1540 -0.0323  0.0695
 2717DPPC   C1A54293  22.290   2.028  17.875  0.0659  0.0148 -0.0264
 2717DPPC   C2A54294  22.301   1.862  17.452 -0.2533 -0.1365  0.0528
 2717DPPC   C3A54295  22.251   1.847  17.035 -0.0204  0.0006 -0.0139
 2717DPPC   C4A54296  21.847   1.566  16.867  0.3609  0.0402  0.1135
 2717DPPC   C1B54297  22.680   1.840  18.067  0.1527  0.2885 -0.3182
 2717DPPC   C2B54298  22.694   1.572  17.736 -0.1985 -0.0087  0.0420
 2717DPPC   C3B54299  22.692   1.630  17.342 -0.0833  0.0996 -0.1738
 2717DPPC   C4B54300  22.796   1.919  17.018 -0.0548 -0.0623 -0.0796
 2718DPPC   NC354301  24.730   5.707  27.434 -0.0721  0.2271 -0.3216
 2718DPPC   PO454302  24.996   5.940  27.076  0.0718 -0.0061 -0.0527
 2718DPPC   GL154303  25.415   5.951  26.889 -0.0522  0.1320 -0.0871
 2718DPPC   GL254304  25.353   6.184  26.753 -0.5438  0.0696 -0.0508
 2718DPPC   C1A54305  25.817   6.117  27.058 -0.1069  0.0734  0.1768
 2718DPPC   C2A54306  26.098   5.975  27.360  0.0186 -0.0018  0.0312
 2718DPPC   C3A54307  26.342   5.660  27.279  0.0818 -0.0844 -0.1715
 2718DPPC   C4A54308  26.319   5.452  26.893  0.2446 -0.0786  0.0885
 2718DPPC   C1B54309  25.468   6.613  26.977  0.1958  0.0333 -0.0888
 2718DPPC   C2B54310  25.246   7.006  26.936  0.2021 -0.0134  0.0234
 2718DPPC   C3B54311  25.292   7.184  26.560  0.2757  0.1938  0.2754
 2718DPPC   C4B54312  25.196   7.054  26.151  0.2103  0.1517 -0.0141
 2719DPPC   NC354313  11.515   4.954  18.338  0.0914 -0.3460 -0.2172
 2719DPPC   PO454314  11.725   5.353  18.269  0.0669 -0.0744  0.2748
 2719DPPC   GL154315  11.479   5.297  17.868 -0.2861  0.0267  0.4154
 2719DPPC   GL254316  11.584   5.331  17.533 -0.2216 -0.0232 -0.1068
 2719DPPC   C1A54317  11.083   5.477  17.725  0.0429 -0.0682 -0.0680
 2719DPPC   C2A54318  10.884   5.607  17.372 -0.0626 -0.0267  0.1077
 2719DPPC   C3A54319  10.586   5.639  17.078  0.0149 -0.1020  0.4901
 2719DPPC   C4A54320  10.656   6.159  16.781  0.2799  0.0444 -0.1970
 2719DPPC   C1B54321  11.811   5.306  17.082 -0.0929  0.3628  0.0112
 2719DPPC   C2B54322  11.735   5.303  16.568 -0.0347  0.1547 -0.0933
 2719DPPC   C3B54323  11.535   5.511  16.175 -0.3135  0.0039  0.0020
 2719DPPC   C4B54324  11.407   5.366  15.834 -0.0215 -0.0966  0.1376
 2720DPPC   NC354325   6.846  -5.122  27.946  0.1692  0.0152  0.1604
 2720DPPC   PO454326   7.199  -5.291  28.162 -0.0360 -0.3200  0.0450
 2720DPPC   GL154327   7.254  -4.859  28.293 -0.2772 -0.0619  0.3485
 2720DPPC   GL254328   7.226  -4.939  28.636 -0.0047  0.3130 -0.4564
 2720DPPC   C1A54329   7.340  -4.493  27.990  0.1160  0.1092 -0.1612
 2720DPPC   C2A54330   7.461  -3.976  27.854  0.1568 -0.0201  0.0055
 2720DPPC   C3A54331   7.179  -3.669  27.615  0.1851 -0.0958 -0.1820
 2720DPPC   C4A54332   6.958  -3.497  27.352 -0.1457  0.0866 -0.2259
 2720DPPC   C1B54333   7.432  -4.368  28.446  0.0072  0.1626  0.1311
 2720DPPC   C2B54334   7.854  -4.218  28.175  0.0053  0.1189 -0.2511
 2720DPPC   C3B54335   8.207  -3.837  28.217  0.1295 -0.2936 -0.2454
 2720DPPC   C4B54336   8.354  -3.463  28.056  0.2291 -0.2753  0.0329
 2721DPPC   NC354337  12.057  13.935  19.534  0.0094  0.0038 -0.0839
 2721DPPC   PO454338  12.383  14.077  19.880  0.0038 -0.2991  0.0266
 2721DPPC   GL154339  12.569  13.728  20.195  0.3408 -0.2326  0.2256
 2721DPPC   GL254340  12.870  13.665  20.062  0.2180  0.2201 -0.1418
 2721DPPC   C1A54341  12.556  13.376  20.433 -0.4381 -0.1228  0.0010
 2721DPPC   C2A54342  12.586  12.931  20.706  0.1737  0.1759  0.0593
 2721DPPC   C3A54343  12.752  12.572  20.865 -0.0031 -0.2225  0.1638
 2721DPPC   C4A54344  13.118  12.584  21.061 -0.6003 -0.3329  0.0359
 2721DPPC   C1B54345  13.045  13.310  20.335  0.1083  0.0257  0.3672
 2721DPPC   C2B54346  13.165  12.934  20.570  0.1007  0.1229 -0.0553
 2721DPPC   C3B54347  13.219  12.520  20.621  0.1643 -0.3340 -0.0235
 2721DPPC   C4B54348  13.034  12.181  20.674 -0.1447 -0.2183  0.2776
 2722DPPC   NC354349   5.305  -1.040  18.788 -0.1769 -0.0212  0.0761
 2722DPPC   PO454350   5.061  -0.731  18.938 -0.2254  0.0827 -0.0836
 2722DPPC   GL154351   5.505  -0.815  19.187  0.2873 -0.0935 -0.0462
 2722DPPC   GL254352   5.741  -0.878  18.916 -0.2357  0.1282 -0.2514
 2722DPPC   C1A54353   5.744  -0.595  19.371 -0.0211 -0.1289 -0.3992
 2722DPPC   C2A54354   6.202  -0.595  19.509  0.1087  0.2445 -0.2148
 2722DPPC   C3A54355   6.399  -0.434  19.838 -0.0274 -0.1664  0.1881
 2722DPPC   C4A54356   6.764  -0.308  19.894  0.2069 -0.0898  0.1205
 2722DPPC   C1B54357   6.027  -0.926  19.111  0.0694 -0.1347 -0.0267
 2722DPPC   C2B54358   6.373  -1.090  19.401 -0.0657  0.2756  0.0845
 2722DPPC   C3B54359   6.595  -1.314  19.672 -0.0833 -0.1668  0.0968
 2722DPPC   C4B54360   7.099  -1.311  19.892 -0.1835 -0.0663  0.0819
 2723DPPC   NC354361  24.365   6.009  28.703 -0.2986  0.2014 -0.0273
 2723DPPC   PO454362  24.314   5.608  28.593  0.4329  0.2764 -0.1201
 2723DPPC   GL154363  24.696   5.573  28.759  0.3844  0.0437 -0.1423
 2723DPPC   GL254364  24.758   5.719  28.461  0.3554  0.2343  0.0003
 2723DPPC   C1A54365  24.996   5.784  28.852 -0.0700 -0.2038  0.0366
 2723DPPC   C2A54366  25.251   5.715  29.237  0.0086 -0.2568  0.0779
 2723DPPC   C3A54367  25.742   5.795  29.159  0.2581  0.1603 -0.0157
 2723DPPC   C4A54368  26.113   5.796  28.960 -0.0277  0.1390 -0.0914
 2723DPPC   C1B54369  25.237   5.604  28.467  0.3056 -0.0604 -0.2668
 2723DPPC   C2B54370  25.674   5.645  28.587 -0.0195 -0.0316 -0.1584
 2723DPPC   C3B54371  26.093   5.365  28.684  0.0272  0.3097  0.1298
 2723DPPC   C4B54372  26.344   5.028  28.557  0.2657  0.3407  0.2955
 2724DPPC   NC354373  13.865  -1.647  30.318  0.0414  0.1933  0.0024
 2724DPPC   PO454374  14.067  -2.011  30.499  0.2039  0.0751 -0.2005
 2724DPPC   GL154375  14.052  -2.271  30.721  0.1250 -0.1595 -0.0080
 2724DPPC   GL254376  14.049  -2.110  31.037 -0.2818 -0.1856  0.0022
 2724DPPC   C1A54377  13.972  -2.610  30.910 -0.0362  0.0315  0.0685
 2724DPPC   C2A54378  13.751  -2.713  31.352 -0.1038 -0.1260  0.0540
 2724DPPC   C3A54379  13.484  -2.655  31.726  0.1302 -0.4175  0.2933
 2724DPPC   C4A54380  13.358  -2.672  32.108 -0.2929  0.0790 -0.0983
 2724DPPC   C1B54381  14.109  -2.334  31.475  0.2687 -0.1362 -0.0012
 2724DPPC   C2B54382  13.849  -2.331  31.914 -0.1665  0.1151  0.1416
 2724DPPC   C3B54383  13.768  -2.398  32.361  0.0460 -0.0608 -0.2333
 2724DPPC   C4B54384  13.551  -2.120  32.558  0.0581 -0.1741 -0.0138
 2725DPPC   NC354385  14.526   4.396  16.519 -0.1747  0.0517  0.1440
 2725DPPC   PO454386  14.727   4.753  16.513 -0.0604  0.0542  0.0573
 2725DPPC   GL154387  14.789   5.070  16.201  0.0958  0.2022  0.1445
 2725DPPC   GL254388  15.105   5.112  16.227 -0.2059 -0.0177  0.3585
 2725DPPC   C1A54389  14.876   4.998  15.744  0.1278 -0.2702  0.1869
 2725DPPC   C2A54390  14.792   5.175  15.415 -0.1212  0.0226  0.1077
 2725DPPC   C3A54391  14.651   5.178  14.982 -0.0213 -0.0678  0.1170
 2725DPPC   C4A54392  14.699   4.991  14.511 -0.1359  0.2018 -0.1311
 2725DPPC   C1B54393  14.948   5.522  16.088 -0.0763  0.3101 -0.2152
 2725DPPC   C2B54394  15.209   5.824  15.878 -0.1759 -0.2796  0.0912
 2725DPPC   C3B54395  15.385   6.108  15.577 -0.5024  0.0405  0.1925
 2725DPPC   C4B54396  15.300   6.067  15.128  0.3952 -0.2478 -0.1323
 2726DPPC   NC354397  24.292  -7.482  15.065  0.0882  0.3406  0.1215
 2726DPPC   PO454398  24.703  -7.638  15.375  0.2359 -0.0335 -0.0343
 2726DPPC   GL154399  24.369  -7.222  15.451  0.2061 -0.1530  0.2997
 2726DPPC   GL254400  24.385  -6.883  15.388 -0.4459 -0.2317  0.4624
 2726DPPC   C1A54401  23.909  -7.111  15.416  0.2354 -0.2084  0.1771
 2726DPPC   C2A54402  23.645  -6.967  15.157  0.2030  0.3752 -0.1366
 2726DPPC   C3A54403  23.352  -6.725  14.787  0.1134  0.2183  0.1704
 2726DPPC   C4A54404  22.983  -6.414  14.519  0.0403 -0.1829 -0.1257
 2726DPPC   C1B54405  24.050  -6.653  15.143  0.1725 -0.2937 -0.5341
 2726DPPC   C2B54406  23.670  -6.397  14.994  0.1985 -0.3224 -0.0455
 2726DPPC   C3B54407  23.382  -6.168  14.740 -0.2284 -0.0875  0.0479
 2726DPPC   C4B54408  22.918  -5.982  14.798  0.3076  0.2481 -0.0554
 2727DPPC   NC354409  15.520  10.997  30.795  0.3030  0.0859  0.1565
 2727DPPC   PO454410  15.858  10.903  30.938 -0.1108 -0.1512 -0.1999
 2727DPPC   GL154411  15.830  11.379  30.937 -0.1058  0.0972  0.0088
 2727DPPC   GL254412  15.573  11.499  30.815 -0.2776  0.0175 -0.0544
 2727DPPC   C1A54413  15.793  11.513  31.280 -0.1306 -0.0482 -0.1416
 2727DPPC   C2A54414  16.057  11.613  31.578 -0.5175  0.0644 -0.2023
 2727DPPC   C3A54415  16.228  11.892  31.836 -0.1439  0.1410  0.1345
 2727DPPC   C4A54416  16.163  12.148  32.110  0.3225 -0.0599  0.2062
 2727DPPC   C1B54417  15.593  11.904  30.943  0.6131 -0.2423 -0.0244
 2727DPPC   C2B54418  15.596  12.431  31.203  0.0385 -0.0093 -0.0257
 2727DPPC   C3B54419  15.233  12.424  31.535 -0.1131 -0.3379 -0.0020
 2727DPPC   C4B54420  15.266  12.224  32.047  0.0780 -0.0818  0.1558
 2728DPPC   NC354421  24.645   2.223  29.244  0.0985  0.1706 -0.0469
 2728DPPC   PO454422  24.687   1.984  28.912  0.1207  0.2685 -0.1360
 2728DPPC   GL154423  24.967   1.779  28.964 -0.0204  0.2372  0.3369
 2728DPPC   GL254424  24.962   1.700  29.255 -0.2000  0.3564 -0.1787
 2728DPPC   C1A54425  25.421   1.811  29.008  0.3195 -0.1635 -0.4202
 2728DPPC   C2A54426  25.784   1.952  29.176  0.2350  0.2904 -0.2188
 2728DPPC   C3A54427  25.968   2.126  29.595 -0.2584  0.2085 -0.0404
 2728DPPC   C4A54428  26.097   2.269  30.053  0.1477  0.2269 -0.0647
 2728DPPC   C1B54429  25.011   1.701  29.672  0.0158  0.1001 -0.0574
 2728DPPC   C2B54430  25.002   1.740  30.125 -0.1682  0.1431 -0.2415
 2728DPPC   C3B54431  25.311   1.770  30.439 -0.2136  0.2776  0.0409
 2728DPPC   C4B54432  25.669   1.562  30.561  0.1106 -0.0747  0.2553
 2729DPPC   NC354433  18.966  10.721  30.082  0.0682 -0.0325  0.2986
 2729DPPC   PO454434  19.198  10.775  29.722  0.1615  0.0219  0.3356
 2729DPPC   GL154435  19.139  11.130  29.838  0.0104 -0.0905  0.1190
 2729DPPC   GL254436  19.046  11.275  30.149  0.2544 -0.4112 -0.1448
 2729DPPC   C1A54437  19.354  11.581  29.984  0.3808 -0.2625  0.2308
 2729DPPC   C2A54438  19.532  11.862  30.261 -0.0865 -0.1492  0.2585
 2729DPPC   C3A54439  19.800  12.054  30.607 -0.1411  0.1113  0.0141
 2729DPPC   C4A54440  19.836  12.296  31.042  0.1762  0.1851  0.0254
 2729DPPC   C1B54441  19.176  11.594  30.464  0.2521 -0.3318 -0.2846
 2729DPPC   C2B54442  19.337  11.851  30.728 -0.3925 -0.1356  0.0104
 2729DPPC   C3B54443  19.311  12.078  31.081  0.1589  0.0330 -0.0549
 2729DPPC   C4B54444  19.141  12.390  31.123  0.2172 -0.1409 -0.0780
 2730DPPC   NC354445  19.995  -0.941  29.585  0.3233 -0.0660  0.1320
 2730DPPC   PO454446  19.677  -1.007  29.722  0.2729 -0.1472 -0.0069
 2730DPPC   GL154447  19.761  -1.278  30.035 -0.0004 -0.3697  0.2859
 2730DPPC   GL254448  19.961  -1.015  30.154  0.0073 -0.0473 -0.0589
 2730DPPC   C1A54449  19.930  -1.604  30.248  0.2328 -0.1044 -0.0809
 2730DPPC   C2A54450  20.204  -1.801  30.430  0.0432  0.0858 -0.1205
 2730DPPC   C3A54451  20.337  -2.102  30.701  0.2765  0.1931  0.0212
 2730DPPC   C4A54452  20.203  -2.185  31.165  0.1440  0.2027 -0.1874
 2730DPPC   C1B54453  20.136  -1.231  30.570 -0.0849 -0.2325 -0.1005
 2730DPPC   C2B54454  20.243  -1.480  30.792  0.1750  0.2543 -0.1806
 2730DPPC   C3B54455  20.423  -1.506  31.133  0.1630 -0.1954  0.2831
 2730DPPC   C4B54456  20.493  -1.152  31.351  0.2888 -0.2517 -0.2196
 2731DPPC   NC354457  20.021  -8.710  12.476 -0.1642 -0.1767 -0.1387
 2731DPPC   PO454458  20.417  -8.519  12.274 -0.2035 -0.1520  0.1741
 2731DPPC   GL154459  20.335  -8.386  12.691  0.2428 -0.0082 -0.0635
 2731DPPC   GL254460  20.545  -8.155  12.823 -0.2440 -0.0199  0.5168
 2731DPPC   C1A54461  20.075  -8.150  12.909  0.0073 -0.0355  0.0095
 2731DPPC   C2A54462  20.057  -7.743  13.071  0.0814  0.3324  0.0152
 2731DPPC   C3A54463  20.185  -7.530  13.313  0.0256 -0.1421  0.1061
 2731DPPC   C4A54464  20.534  -7.589  13.698 -0.3317 -0.0569 -0.1397
 2731DPPC   C1B54465  20.404  -8.225  13.238  0.2525 -0.3254  0.0586
 2731DPPC   C2B54466  20.265  -7.943  13.604  0.0761  0.3162 -0.1945
 2731DPPC   C3B54467  20.118  -8.054  13.990  0.1502  0.2147 -0.2901
 2731DPPC   C4B54468  20.128  -8.021  14.478 -0.1999  0.2112  0.0056
 2732DPPC   NC354469  16.793   1.774  18.089 -0.0523  0.4014  0.0877
 2732DPPC   PO454470  16.760   1.485  18.400 -0.2050 -0.2023 -0.0191
 2732DPPC   GL154471  16.979   1.138  18.199  0.0381  0.1225 -0.0606
 2732DPPC   GL254472  16.820   0.927  18.000 -0.2796  0.2875  0.1588
 2732DPPC   C1A54473  17.300   0.780  18.302  0.2904 -0.2061 -0.1637
 2732DPPC   C2A54474  17.506   0.485  18.557  0.2461 -0.0510  0.2815
 2732DPPC   C3A54475  17.801   0.400  18.885 -0.6983 -0.3148  0.1197
 2732DPPC   C4A54476  18.199   0.361  19.188  0.0522 -0.0861 -0.0273
 2732DPPC   C1B54477  17.052   0.525  17.739  0.2867 -0.4038 -0.0770
 2732DPPC   C2B54478  16.832   0.373  17.488  0.0221  0.3394 -0.2353
 2732DPPC   C3B54479  16.878   0.010  17.313 -0.0420 -0.1131  0.4991
 2732DPPC   C4B54480  16.986  -0.205  16.909 -0.1954 -0.1636 -0.1715
 2733DPPC   NC354481  16.518  -0.868  20.208  0.0417  0.2389  0.1358
 2733DPPC   PO454482  16.747  -0.840  19.890  0.1105 -0.2476  0.1453
 2733DPPC   GL154483  17.081  -1.014  19.718  0.0665  0.3377  0.1255
 2733DPPC   GL254484  17.400  -0.961  19.703  0.0595  0.0201  0.0244
 2733DPPC   C1A54485  17.155  -1.220  19.309 -0.0614  0.2608  0.0177
 2733DPPC   C2A54486  17.332  -1.344  18.820  0.1328  0.1262 -0.1215
 2733DPPC   C3A54487  17.280  -1.058  18.486  0.3527  0.1540 -0.2958
 2733DPPC   C4A54488  17.114  -1.061  18.011  0.1268  0.1784  0.0727
 2733DPPC   C1B54489  17.311  -0.745  19.331 -0.2281 -0.2155  0.1355
 2733DPPC   C2B54490  17.441  -0.889  18.948 -0.0269 -0.0588  0.2624
 2733DPPC   C3B54491  17.753  -1.166  18.717 -0.2108 -0.0619 -0.1336
 2733DPPC   C4B54492  17.739  -1.425  18.457 -0.2520 -0.0489  0.0963
 2734DPPC   NC354493  20.872   2.242  18.495  0.0003 -0.0737  0.2368
 2734DPPC   PO454494  20.781   2.574  18.174  0.1208  0.1688 -0.0596
 2734DPPC   GL154495  20.755   2.093  17.972 -0.3211  0.0465 -0.1175
 2734DPPC   GL254496  20.630   1.914  18.024  0.3995  0.2422 -0.0735
 2734DPPC   C1A54497  20.971   1.899  17.650 -0.0076 -0.0267 -0.1066
 2734DPPC   C2A54498  21.194   1.829  17.280  0.2718  0.3754 -0.1706
 2734DPPC   C3A54499  21.372   1.735  16.997  0.1269  0.0342 -0.1292
 2734DPPC   C4A54500  21.708   2.028  17.073 -0.0588  0.2191  0.1952
 2734DPPC   C1B54501  20.573   1.594  17.806  0.0662 -0.0221  0.1261
 2734DPPC   C2B54502  20.642   1.188  17.896 -0.2091  0.0647 -0.2203
 2734DPPC   C3B54503  20.887   0.887  17.870  0.0362  0.0015 -0.1810
 2734DPPC   C4B54504  21.121   0.490  17.869 -0.0340  0.3881  0.2331
 2735DPPC   NC354505  27.981   9.899  30.117 -0.2946  0.2914 -0.4494
 2735DPPC   PO454506  27.571   9.804  30.229 -0.0354 -0.5353  0.1070
 2735DPPC   GL154507  27.182   9.696  29.969 -0.3035  0.0325 -0.5559
 2735DPPC   GL254508  26.883   9.908  29.939  0.0418  0.2802 -0.2435
 2735DPPC   C1A54509  26.908   9.397  30.036 -0.0298  0.1899  0.3464
 2735DPPC   C2A54510  26.663   9.151  29.864 -0.0841 -0.1249 -0.2153
 2735DPPC   C3A54511  26.312   8.931  29.910 -0.2468 -0.0912  0.0775
 2735DPPC   C4A54512  25.918   9.016  30.134  0.0884  0.0382  0.1781
 2735DPPC   C1B54513  26.605   9.672  29.668  0.0782  0.5920 -0.0473
 2735DPPC   C2B54514  26.647   9.763  29.189  0.0474 -0.1963 -0.0913
 2735DPPC   C3B54515  26.599   9.451  28.927 -0.2683 -0.2408 -0.3942
 2735DPPC   C4B54516  26.715   9.082  28.688  0.2962 -0.1352  0.5647
 2736DPPC   NC354517  16.826  -8.679  13.602 -0.2102 -0.3220 -0.0345
 2736DPPC   PO454518  16.430  -8.440  13.410 -0.0217 -0.1924  0.0860
 2736DPPC   GL154519  16.646  -8.135  13.642  0.0590 -0.0991  0.2384
 2736DPPC   GL254520  16.534  -7.887  13.524 -0.1523  0.1219  0.2721
 2736DPPC   C1A54521  16.956  -7.905  13.822  0.1307  0.2671  0.1351
 2736DPPC   C2A54522  17.231  -7.690  14.116  0.1840 -0.0478 -0.0479
 2736DPPC   C3A54523  17.594  -7.488  14.101 -0.1099 -0.3151  0.2448
 2736DPPC   C4A54524  17.623  -7.035  13.938  0.3347 -0.1358  0.0018
 2736DPPC   C1B54525  16.654  -7.529  13.894  0.0664  0.0629 -0.0059
 2736DPPC   C2B54526  16.849  -7.265  14.180  0.0191 -0.2178 -0.3147
 2736DPPC   C3B54527  17.300  -7.165  14.388 -0.2412 -0.0207 -0.1126
 2736DPPC   C4B54528  17.615  -6.732  14.374 -0.0081  0.0178 -0.1021
 2737DPPC   NC354529  18.161   0.463  32.077 -0.1370  0.0734  0.0350
 2737DPPC   PO454530  17.813   0.337  32.333 -0.0467  0.0481 -0.0898
 2737DPPC   GL154531  17.798   0.238  32.722 -0.1513  0.0911 -0.3261
 2737DPPC   GL254532  17.600   0.435  32.981 -0.3711 -0.1110 -0.2317
 2737DPPC   C1A54533  17.819  -0.005  33.087 -0.1133 -0.0530 -0.0382
 2737DPPC   C2A54534  17.779  -0.259  33.367 -0.0224  0.3378 -0.0394
 2737DPPC   C3A54535  17.754  -0.432  33.776  0.1447  0.0620 -0.1916
 2737DPPC   C4A54536  17.687  -0.787  33.953 -0.1820  0.0211  0.3430
 2737DPPC   C1B54537  17.775   0.441  33.355  0.0546 -0.2472  0.0193
 2737DPPC   C2B54538  17.663   0.545  33.701 -0.4891  0.1344 -0.2367
 2737DPPC   C3B54539  17.461   0.487  34.120  0.0402 -0.0648  0.0925
 2737DPPC   C4B54540  17.337   0.537  34.542  0.1442 -0.0631 -0.1204
 2738DPPC   NC354541  15.626   8.186  33.630  0.1719  0.1817  0.0270
 2738DPPC   PO454542  15.277   8.040  33.609 -0.2111 -0.3840 -0.0659
 2738DPPC   GL154543  15.082   8.288  33.831 -0.0991  0.0979  0.1907
 2738DPPC   GL254544  14.950   8.107  34.057 -0.4258 -0.4758  0.1709
 2738DPPC   C1A54545  15.010   8.521  34.280 -0.1196 -0.0160 -0.1220
 2738DPPC   C2A54546  15.016   8.384  34.719 -0.3205 -0.0270 -0.1562
 2738DPPC   C3A54547  15.001   8.442  35.219  0.0372  0.0637 -0.1243
 2738DPPC   C4A54548  15.110   8.734  35.563  0.1272 -0.1518  0.4180
 2738DPPC   C1B54549  15.350   8.115  34.252 -0.0389  0.2341 -0.0546
 2738DPPC   C2B54550  15.446   8.160  34.719 -0.1652  0.0024  0.2862
 2738DPPC   C3B54551  15.820   7.902  34.777  0.0477 -0.5210  0.2992
 2738DPPC   C4B54552  16.010   7.733  35.151  0.1898 -0.0115 -0.0658
 2739DPPC   NC354553  14.349   8.905  18.563  0.1493 -0.0133  0.0485
 2739DPPC   PO454554  14.720   8.756  18.555  0.0366  0.1579  0.2354
 2739DPPC   GL154555  14.634   9.129  18.307 -0.2595 -0.1109 -0.0260
 2739DPPC   GL254556  14.650   9.017  17.990  0.1682  0.2531  0.0972
 2739DPPC   C1A54557  14.505   9.493  18.084 -0.0930 -0.3281 -0.1582
 2739DPPC   C2A54558  14.479   9.859  17.901  0.0000  0.2995 -0.0419
 2739DPPC   C3A54559  14.455  10.266  18.247  0.2761 -0.2344 -0.1231
 2739DPPC   C4A54560  14.198  10.569  18.282  0.0470  0.2736 -0.2363
 2739DPPC   C1B54561  14.400   9.249  17.509  0.0341 -0.0049 -0.2550
 2739DPPC   C2B54562  14.137   9.602  17.540  0.5361  0.0418 -0.2267
 2739DPPC   C3B54563  13.960   9.991  17.497 -0.0723 -0.2423 -0.1261
 2739DPPC   C4B54564  14.248  10.401  17.731  0.1946  0.1529 -0.1638
 2740DPPC   NC354565  16.115  -4.330  20.653 -0.0701 -0.3642  0.2499
 2740DPPC   PO454566  15.734  -4.297  20.305  0.0419 -0.1103 -0.0936
 2740DPPC   GL154567  15.737  -4.763  20.270 -0.0284 -0.3881 -0.3181
 2740DPPC   GL254568  15.370  -4.978  20.201 -0.1373 -0.2696 -0.1235
 2740DPPC   C1A54569  16.090  -4.976  20.153 -0.1651 -0.0613  0.0786
 2740DPPC   C2A54570  16.441  -5.246  20.401  0.3563 -0.0364  0.1522
 2740DPPC   C3A54571  16.585  -5.763  20.476 -0.0713  0.1582  0.1031
 2740DPPC   C4A54572  16.846  -6.047  20.782  0.0002 -0.2526  0.0315
 2740DPPC   C1B54573  15.152  -5.441  20.146 -0.1338  0.1045  0.0261
 2740DPPC   C2B54574  15.145  -5.873  20.381 -0.0982  0.2238 -0.2045
 2740DPPC   C3B54575  15.466  -6.080  20.583  0.1764 -0.0323  0.1172
 2740DPPC   C4B54576  15.893  -6.140  20.466 -0.0616  0.0121  0.3732
 2741DPPC   NC354577  21.623  10.383  26.965  0.0287 -0.2922 -0.0923
 2741DPPC   PO454578  21.535  10.668  27.284 -0.3219 -0.1352  0.0146
 2741DPPC   GL154579  21.420  10.913  27.615 -0.0903  0.1201  0.3722
 2741DPPC   GL254580  21.159  10.896  27.792  0.1799 -0.0733  0.1535
 2741DPPC   C1A54581  21.487  11.388  27.564 -0.1111  0.0598 -0.2057
 2741DPPC   C2A54582  21.651  11.767  27.710 -0.1175 -0.1496 -0.1781
 2741DPPC   C3A54583  21.764  12.092  27.964  0.0947 -0.4581 -0.0683
 2741DPPC   C4A54584  21.692  12.450  27.807  0.1256 -0.1276 -0.0426
 2741DPPC   C1B54585  21.008  11.319  27.843  0.1212 -0.1158 -0.1001
 2741DPPC   C2B54586  21.002  11.673  28.059  0.3219 -0.0238  0.1039
 2741DPPC   C3B54587  21.389  11.887  28.264  0.2951 -0.5370  0.0712
 2741DPPC   C4B54588  21.508  12.336  28.393  0.0543 -0.1672 -0.1631
 2742DPPC   NC354589  11.876  -2.749  20.904 -0.0006 -0.1190  0.5918
 2742DPPC   PO454590  11.761  -3.200  20.920  0.0274 -0.1371  0.1780
 2742DPPC   GL154591  11.761  -3.588  20.661  0.2217  0.1968  0.0530
 2742DPPC   GL254592  11.859  -3.438  20.398  0.2037 -0.1691 -0.3012
 2742DPPC   C1A54593  11.507  -3.997  20.545 -0.3227 -0.1537  0.1959
 2742DPPC   C2A54594  11.353  -4.362  20.358 -0.1081  0.0712 -0.2259
 2742DPPC   C3A54595  11.052  -4.640  20.213  0.2124  0.1092  0.2857
 2742DPPC   C4A54596  10.935  -4.672  19.756  0.0124  0.2998  0.3084
 2742DPPC   C1B54597  11.498  -3.463  20.159 -0.1296 -0.1202  0.0641
 2742DPPC   C2B54598  11.200  -3.619  20.359  0.1022  0.0989 -0.0605
 2742DPPC   C3B54599  10.962  -3.905  20.554 -0.0375  0.1294  0.1658
 2742DPPC   C4B54600  10.751  -4.273  20.428 -0.0578  0.1019 -0.1082
 2743DPPC   NC354601   7.197  -0.522  32.994 -0.3386  0.0750  0.0024
 2743DPPC   PO454602   7.388  -0.974  33.088 -0.2201 -0.0439 -0.2966
 2743DPPC   GL154603   7.530  -0.814  32.612 -0.0267 -0.4109 -0.0451
 2743DPPC   GL254604   7.365  -0.613  32.522 -0.0322  0.0906 -0.2814
 2743DPPC   C1A54605   7.867  -0.876  32.299 -0.1192  0.0950 -0.0870
 2743DPPC   C2A54606   8.319  -0.793  32.266 -0.0202 -0.1954 -0.0949
 2743DPPC   C3A54607   8.640  -0.642  32.336 -0.0448 -0.1880 -0.4644
 2743DPPC   C4A54608   9.031  -0.662  32.459  0.0332  0.1493  0.0773
 2743DPPC   C1B54609   7.397  -0.630  32.088  0.0679  0.0293 -0.1239
 2743DPPC   C2B54610   7.894  -0.512  31.900  0.0602  0.1484  0.1026
 2743DPPC   C3B54611   7.954  -0.209  31.664  0.0482 -0.0083 -0.3882
 2743DPPC   C4B54612   7.789  -0.068  31.277 -0.0247  0.0112  0.1904
 2744DPPC   NC354613  11.937  11.331  29.953  0.1072 -0.1814 -0.0418
 2744DPPC   PO454614  11.514  11.491  30.192 -0.2257  0.1987  0.0444
 2744DPPC   GL154615  11.179  11.797  30.198  0.1109 -0.1199 -0.2467
 2744DPPC   GL254616  10.958  11.519  30.346 -0.2818  0.0827  0.1428
 2744DPPC   C1A54617  11.131  12.308  30.272  0.1072 -0.1111  0.1343
 2744DPPC   C2A54618  10.754  12.604  30.336 -0.0030  0.4335  0.0965
 2744DPPC   C3A54619  10.439  12.762  30.136  0.0915  0.2102  0.2826
 2744DPPC   C4A54620  10.127  12.859  30.312 -0.0871  0.3442 -0.1692
 2744DPPC   C1B54621  10.698  11.668  30.632  0.1756  0.2547  0.0288
 2744DPPC   C2B54622  10.421  11.990  30.782  0.3922  0.1905  0.1217
 2744DPPC   C3B54623  10.107  12.420  31.054 -0.3065 -0.0392 -0.0966
 2744DPPC   C4B54624  10.301  12.456  31.508 -0.0079 -0.0607 -0.2230
 2745DPPC   NC354625  16.048  10.813  21.309 -0.0693  0.1645  0.0163
 2745DPPC   PO454626  15.931  10.631  20.979  0.3631  0.0141 -0.4184
 2745DPPC   GL154627  15.863  11.020  20.715  0.1403 -0.1939 -0.3524
 2745DPPC   GL254628  16.091  11.116  20.474 -0.1157 -0.1087  0.3662
 2745DPPC   C1A54629  15.667  11.371  20.526  0.2440 -0.0101 -0.1190
 2745DPPC   C2A54630  15.796  11.804  20.498  0.0342  0.1484  0.0457
 2745DPPC   C3A54631  15.701  12.143  20.649  0.4690 -0.2491  0.1211
 2745DPPC   C4A54632  15.679  12.429  20.321  0.0153 -0.0139  0.0865
 2745DPPC   C1B54633  16.117  11.467  20.723  0.0477 -0.2683 -0.6642
 2745DPPC   C2B54634  16.390  11.761  20.842  0.1068  0.0169  0.0727
 2745DPPC   C3B54635  16.622  11.994  20.622  0.1505 -0.2183  0.0551
 2745DPPC   C4B54636  16.728  12.199  20.265 -0.0559  0.0405  0.1100
 2746DPPC   NC354637  16.578  -9.572  16.452 -0.0250  0.1847 -0.2556
 2746DPPC   PO454638  16.888  -9.179  16.621  0.2080  0.0622  0.3044
 2746DPPC   GL154639  16.981  -8.842  16.848 -0.1352  0.2326 -0.2867
 2746DPPC   GL254640  16.998  -8.809  17.160 -0.0797  0.0425 -0.0008
 2746DPPC   C1A54641  17.321  -8.565  16.927  0.0864 -0.0270  0.0984
 2746DPPC   C2A54642  17.660  -8.503  16.787  0.0162  0.0521 -0.1672
 2746DPPC   C3A54643  17.971  -8.448  16.335  0.1186 -0.0124 -0.2000
 2746DPPC   C4A54644  18.212  -8.613  16.059  0.1202 -0.3311  0.1592
 2746DPPC   C1B54645  16.846  -8.409  17.006 -0.0223 -0.0314  0.0626
 2746DPPC   C2B54646  16.751  -8.026  17.106 -0.2358  0.1312  0.2162
 2746DPPC   C3B54647  16.511  -7.686  17.267  0.2425  0.1584  0.1048
 2746DPPC   C4B54648  16.105  -7.424  17.282  0.2941 -0.2816 -0.1083
 2747DPPC   NC354649  10.626   0.892  19.544  0.0867  0.2093 -0.4151
 2747DPPC   PO454650  10.311   1.092  19.266 -0.0143  0.4631 -0.0072
 2747DPPC   GL154651  10.266   0.985  18.806 -0.1135 -0.0975 -0.1345
 2747DPPC   GL254652  10.487   0.926  18.628 -0.0608 -0.2449 -0.1686
 2747DPPC   C1A54653   9.969   0.913  18.458 -0.5071 -0.1719 -0.0363
 2747DPPC   C2A54654   9.663   0.983  18.135  0.1717 -0.2183  0.1221
 2747DPPC   C3A54655   9.167   1.149  18.189 -0.0916 -0.1043  0.0001
 2747DPPC   C4A54656   9.017   1.642  18.086 -0.1157  0.3562 -0.0982
 2747DPPC   C1B54657  10.357   0.659  18.234 -0.0812  0.2064  0.1081
 2747DPPC   C2B54658  10.055   0.598  17.958 -0.2177  0.3088  0.1129
 2747DPPC   C3B54659   9.794   0.728  17.710  0.1093  0.0913 -0.0453
 2747DPPC   C4B54660   9.405   1.022  17.606  0.0753 -0.0889 -0.2756
 2748DPPC   NC354661   8.420  -0.051  25.891  0.0774 -0.2748  0.0293
 2748DPPC   PO454662   8.057  -0.201  25.871 -0.2901  0.0581  0.2337
 2748DPPC   GL154663   7.671  -0.173  25.740  0.2204 -0.4749  0.3126
 2748DPPC   GL254664   7.536  -0.466  25.737  0.2377  0.3340  0.0988
 2748DPPC   C1A54665   7.188  -0.221  25.580 -0.0874  0.1024  0.0268
 2748DPPC   C2A54666   6.883  -0.582  25.434 -0.2626 -0.0952  0.1029
 2748DPPC   C3A54667   6.546  -0.879  25.509 -0.0730  0.0648 -0.1770
 2748DPPC   C4A54668   6.300  -1.185  25.562 -0.3505  0.1788  0.1432
 2748DPPC   C1B54669   7.438  -0.652  25.375 -0.0109  0.2550  0.1754
 2748DPPC   C2B54670   7.190  -0.958  25.080  0.0376  0.2407 -0.1913
 2748DPPC   C3B54671   6.790  -1.040  24.955  0.0132  0.4156  0.0654
 2748DPPC   C4B54672   6.630  -1.159  24.572  0.1018  0.0613  0.3254
 2749DPPC   NC354673  11.048  11.055  25.212  0.1066  0.0288 -0.0224
 2749DPPC   PO454674  10.672  11.104  25.462 -0.1907  0.1943  0.0554
 2749DPPC   GL154675  10.630  11.577  25.394  0.2261 -0.1834 -0.2109
 2749DPPC   GL254676  10.258  11.642  25.267 -0.1539 -0.1902  0.1159
 2749DPPC   C1A54677  10.632  11.775  25.049 -0.3775 -0.2715  0.1683
 2749DPPC   C2A54678  10.726  12.111  24.653  0.2762 -0.0649 -0.1788
 2749DPPC   C3A54679  10.877  12.511  24.526 -0.1131  0.0058 -0.1235
 2749DPPC   C4A54680  10.829  12.738  24.107  0.1246 -0.2733 -0.2540
 2749DPPC   C1B54681   9.974  11.943  25.344 -0.3648 -0.0491  0.0612
 2749DPPC   C2B54682   9.933  12.317  25.331 -0.1748 -0.1105  0.0985
 2749DPPC   C3B54683  10.220  12.663  25.206  0.1571 -0.0166 -0.0109
 2749DPPC   C4B54684  10.468  12.978  25.275 -0.0886  0.0233 -0.2373
 2750DPPC   NC354685  21.453  -4.530  10.187 -0.1340  0.2254 -0.0310
 2750DPPC   PO454686  21.578  -4.097  10.100  0.2142 -0.2172 -0.1092
 2750DPPC   GL154687  21.588  -3.992  10.582 -0.2409  0.0066 -0.2046
 2750DPPC   GL254688  21.664  -3.713  10.640 -0.2163  0.0256 -0.0155
 2750DPPC   C1A54689  21.620  -4.136  10.993 -0.2739 -0.4683  0.3568
 2750DPPC   C2A54690  21.758  -4.234  11.488  0.1600  0.0664  0.0100
 2750DPPC   C3A54691  21.748  -4.326  11.977 -0.0643 -0.2830  0.0332
 2750DPPC   C4A54692  21.467  -4.312  12.313  0.0079 -0.0760  0.1800
 2750DPPC   C1B54693  21.672  -3.259  10.855 -0.1050 -0.0373 -0.2823
 2750DPPC   C2B54694  21.602  -2.987  11.196  0.0962 -0.0388  0.1871
 2750DPPC   C3B54695  21.395  -2.817  11.487 -0.0344  0.0633 -0.0078
 2750DPPC   C4B54696  21.188  -2.526  11.603  0.4574  0.0726  0.0894
 2751DPPC   NC354697  16.039  11.452  22.935 -0.3366 -0.1544  0.0681
 2751DPPC   PO454698  15.831  11.867  22.744 -0.1410  0.1053  0.3429
 2751DPPC   GL154699  15.928  12.179  22.411  0.2703  0.2652 -0.0142
 2751DPPC   GL254700  16.229  12.325  22.533  0.7279 -0.0446  0.0265
 2751DPPC   C1A54701  15.897  12.517  22.021 -0.3420  0.1300  0.0023
 2751DPPC   C2A54702  15.612  12.794  21.955 -0.4358  0.0066 -0.1004
 2751DPPC   C3A54703  15.269  12.953  21.664  0.1243 -0.4462  0.0565
 2751DPPC   C4A54704  15.226  13.346  21.331 -0.2687  0.2243  0.0294
 2751DPPC   C1B54705  16.133  12.879  22.409  0.0130 -0.2497 -0.0409
 2751DPPC   C2B54706  15.985  13.235  22.754  0.0890 -0.1876  0.2647
 2751DPPC   C3B54707  16.036  13.527  23.029  0.0852  0.0862 -0.0355
 2751DPPC   C4B54708  16.151  13.873  23.339  0.1936 -0.3121 -0.2306
 2752DPPC   NC354709  10.879  14.302  20.473  0.1544  0.2381 -0.1024
 2752DPPC   PO454710  11.067  14.119  20.130  0.0719 -0.3133  0.0711
 2752DPPC   GL154711  11.184  13.756  20.389 -0.1186 -0.0350  0.1731
 2752DPPC   GL254712  11.106  13.853  20.625  0.0859 -0.0313  0.3581
 2752DPPC   C1A54713  11.545  13.596  20.583  0.0396  0.2147  0.0776
 2752DPPC   C2A54714  11.952  13.370  20.741 -0.2129  0.2479 -0.0288
 2752DPPC   C3A54715  12.045  12.943  20.917 -0.1410  0.0109  0.0016
 2752DPPC   C4A54716  11.789  12.613  20.990 -0.0218  0.1550 -0.1081
 2752DPPC   C1B54717  11.097  13.421  20.732 -0.3498 -0.0512 -0.3448
 2752DPPC   C2B54718  11.083  13.070  21.019  0.4055 -0.0561  0.4108
 2752DPPC   C3B54719  11.323  12.787  21.232 -0.1310  0.0135  0.1000
 2752DPPC   C4B54720  11.418  12.468  21.577  0.0222  0.0596  0.2192
 2753DPPC   NC354721  27.107  -2.832  22.846 -0.0277 -0.1359 -0.2941
 2753DPPC   PO454722  26.727  -2.801  22.969  0.0054 -0.2595 -0.4341
 2753DPPC   GL154723  26.330  -2.698  23.051  0.0218  0.1837  0.2400
 2753DPPC   GL254724  26.210  -2.971  23.004  0.2119 -0.0125 -0.1628
 2753DPPC   C1A54725  26.144  -2.335  23.088  0.1074 -0.0729  0.2484
 2753DPPC   C2A54726  25.687  -2.194  23.174  0.2550 -0.0468 -0.2522
 2753DPPC   C3A54727  25.445  -1.783  23.178  0.2131 -0.1608  0.0158
 2753DPPC   C4A54728  25.207  -1.459  23.242  0.2330 -0.2563 -0.0247
 2753DPPC   C1B54729  25.850  -2.794  23.169  0.0746  0.0987 -0.0003
 2753DPPC   C2B54730  25.880  -2.647  23.577 -0.0547 -0.1705  0.0665
 2753DPPC   C3B54731  26.098  -2.307  23.679 -0.1038 -0.2500 -0.0445
 2753DPPC   C4B54732  26.431  -2.274  23.940  0.3112 -0.0578  0.1035
 2754DPPC   NC354733  19.473  -3.577  23.297  0.1505  0.0195  0.0835
 2754DPPC   PO454734  19.517  -3.754  23.611 -0.0939 -0.3130 -0.0286
 2754DPPC   GL154735  19.424  -4.075  23.928  0.4653  0.1075  0.4817
 2754DPPC   GL254736  19.495  -4.241  23.663  0.3076  0.0060 -0.4153
 2754DPPC   C1A54737  19.269  -4.489  24.069  0.0491 -0.1274  0.0852
 2754DPPC   C2A54738  19.456  -4.919  23.928  0.0305 -0.1429 -0.1670
 2754DPPC   C3A54739  19.678  -5.103  23.629 -0.0730 -0.1579  0.0552
 2754DPPC   C4A54740  20.082  -5.159  23.449 -0.1177 -0.1683 -0.2981
 2754DPPC   C1B54741  19.693  -4.572  23.579 -0.2704  0.1963  0.2010
 2754DPPC   C2B54742  19.930  -4.673  23.235 -0.0032  0.1239 -0.1817
 2754DPPC   C3B54743  20.079  -4.778  22.830 -0.0826  0.1146 -0.0406
 2754DPPC   C4B54744  20.524  -4.801  22.667 -0.5398 -0.1155  0.0449
 2755DPPC   NC354745  13.842  -3.994  19.664  0.1503 -0.0579  0.1533
 2755DPPC   PO454746  14.190  -3.699  19.427 -0.0824  0.0455  0.0355
 2755DPPC   GL154747  14.062  -4.102  19.239  0.1193  0.2951 -0.2633
 2755DPPC   GL254748  14.267  -4.348  19.431 -0.0885  0.1062  0.5399
 2755DPPC   C1A54749  13.935  -4.401  19.008 -0.1488 -0.1622 -0.0547
 2755DPPC   C2A54750  13.838  -4.896  19.035  0.3101 -0.1344 -0.2840
 2755DPPC   C3A54751  13.534  -5.148  19.168  0.1379 -0.0632 -0.0990
 2755DPPC   C4A54752  13.273  -5.396  19.006  0.0019  0.1791  0.0594
 2755DPPC   C1B54753  14.201  -4.635  19.329 -0.0051 -0.0538 -0.1326
 2755DPPC   C2B54754  14.460  -4.832  19.142 -0.2140 -0.2158 -0.2826
 2755DPPC   C3B54755  14.736  -5.131  19.009 -0.1446 -0.2713 -0.1225
 2755DPPC   C4B54756  14.830  -5.428  19.404  0.0177  0.1838 -0.2470
 2756DPPC   NC354757  11.352  -0.313  36.723 -0.3586 -0.0090  0.2319
 2756DPPC   PO454758  11.483  -0.285  36.250  0.0779 -0.3027  0.1795
 2756DPPC   GL154759  11.796  -0.267  35.937  0.0444  0.2432 -0.0674
 2756DPPC   GL254760  11.917   0.085  35.918 -0.0505 -0.0830 -0.2387
 2756DPPC   C1A54761  11.659  -0.287  35.489 -0.2977 -0.1213 -0.1981
 2756DPPC   C2A54762  11.828  -0.273  35.116  0.1703 -0.0832  0.0630
 2756DPPC   C3A54763  11.782  -0.248  34.715 -0.1940 -0.4469 -0.1858
 2756DPPC   C4A54764  11.748  -0.168  34.333  0.0135 -0.1918 -0.1804
 2756DPPC   C1B54765  12.119   0.031  35.511  0.0822 -0.0190 -0.0930
 2756DPPC   C2B54766  12.126   0.246  35.168  0.2232  0.0799 -0.0400
 2756DPPC   C3B54767  12.142   0.629  34.961 -0.0052 -0.3607 -0.1734
 2756DPPC   C4B54768  12.144   0.766  34.509  0.1993 -0.1548  0.1421
 2757DPPC   NC354769  21.626  -2.772  23.300  0.0160  0.1942 -0.2536
 2757DPPC   PO454770  21.899  -2.688  22.995 -0.1761  0.2072  0.1733
 2757DPPC   GL154771  22.169  -3.018  23.052 -0.3210  0.0830  0.1433
 2757DPPC   GL254772  22.512  -3.082  23.030 -0.2431 -0.1591 -0.2009
 2757DPPC   C1A54773  21.882  -3.397  23.180  0.3322 -0.2456  0.0482
 2757DPPC   C2A54774  21.994  -3.876  23.257 -0.1080 -0.1833  0.2142
 2757DPPC   C3A54775  22.515  -3.912  23.255  0.0825 -0.1497  0.1445
 2757DPPC   C4A54776  23.029  -3.928  23.075  0.2712 -0.2536 -0.0813
 2757DPPC   C1B54777  22.803  -3.041  22.764  0.3545 -0.6608  0.3914
 2757DPPC   C2B54778  23.103  -3.114  22.427 -0.2214  0.2394  0.1294
 2757DPPC   C3B54779  23.393  -3.289  22.097  0.1190  0.0023  0.1548
 2757DPPC   C4B54780  23.453  -3.541  21.798 -0.2381  0.1494 -0.0161
 2758DPPC   NC354781  22.308  -1.379  22.718  0.0931  0.0057  0.4018
 2758DPPC   PO454782  22.795  -1.374  22.860  0.2789 -0.1359  0.0848
 2758DPPC   GL154783  23.144  -1.698  22.821 -0.3095  0.0076  0.0488
 2758DPPC   GL254784  23.229  -1.621  23.174  0.0260 -0.0803  0.1690
 2758DPPC   C1A54785  23.532  -1.985  22.879  0.3230  0.2117 -0.1105
 2758DPPC   C2A54786  23.760  -2.343  22.739  0.0222  0.1768 -0.2600
 2758DPPC   C3A54787  23.982  -2.767  22.807 -0.0347  0.4489 -0.2308
 2758DPPC   C4A54788  24.260  -3.111  22.806 -0.0919 -0.1385  0.2192
 2758DPPC   C1B54789  23.632  -1.513  23.013  0.0392 -0.3392 -0.0836
 2758DPPC   C2B54790  23.990  -1.798  23.040 -0.0932 -0.1742 -0.2670
 2758DPPC   C3B54791  24.437  -2.003  23.173  0.3936 -0.2091  0.1760
 2758DPPC   C4B54792  24.662  -2.363  23.121 -0.1600  0.0952  0.0495
 2759DPPC   NC354793  15.538  11.022  22.564  0.0065 -0.2410  0.2450
 2759DPPC   PO454794  15.821  11.407  22.486 -0.0188 -0.1187 -0.0727
 2759DPPC   GL154795  15.697  11.739  22.213  0.2791  0.1441 -0.1144
 2759DPPC   GL254796  15.472  11.602  22.049  0.1003  0.0556 -0.1631
 2759DPPC   C1A54797  15.711  12.062  21.884  0.1374  0.1267  0.0097
 2759DPPC   C2A54798  15.777  12.286  21.606  0.5001 -0.0125  0.4220
 2759DPPC   C3A54799  15.658  12.654  21.452 -0.0275 -0.1310 -0.1393
 2759DPPC   C4A54800  15.413  12.943  21.118  0.0633  0.3088  0.0174
 2759DPPC   C1B54801  15.221  11.905  21.899 -0.1636  0.2671 -0.0449
 2759DPPC   C2B54802  15.288  12.372  21.658  0.0342 -0.0889  0.1550
 2759DPPC   C3B54803  15.010  12.549  21.558 -0.1113 -0.1208 -0.0142
 2759DPPC   C4B54804  14.967  12.929  21.285  0.4488  0.2201  0.2643
 2760DPPC   NC354805  15.613  11.782  24.960 -0.4916 -0.0945  0.0978
 2760DPPC   PO454806  15.250  11.975  24.847 -0.0268 -0.0372  0.1064
 2760DPPC   GL154807  15.248  12.446  24.769  0.1817  0.1357  0.0127
 2760DPPC   GL254808  15.079  12.511  24.557 -0.0345 -0.0590  0.0912
 2760DPPC   C1A54809  15.388  12.866  24.769  0.1545 -0.2200 -0.0466
 2760DPPC   C2A54810  15.563  13.191  25.051  0.2481 -0.0051  0.1033
 2760DPPC   C3A54811  15.810  13.561  25.244 -0.0931 -0.2210 -0.0270
 2760DPPC   C4A54812  15.963  13.924  24.985  0.2113 -0.1072  0.0800
 2760DPPC   C1B54813  14.912  12.835  24.621 -0.2919  0.1439  0.2669
 2760DPPC   C2B54814  14.962  13.153  24.342  0.3921  0.1569  0.0180
 2760DPPC   C3B54815  14.738  13.305  24.004  0.1137 -0.1184 -0.1634
 2760DPPC   C4B54816  14.671  13.244  23.527 -0.0924 -0.0563  0.3442
 2761DPPC   NC354817  14.639  -8.779  22.718 -0.1715  0.0762  0.0936
 2761DPPC   PO454818  14.583  -8.375  22.491  0.4213  0.2012  0.5875
 2761DPPC   GL154819  14.419  -7.893  22.437  0.0355  0.1174 -0.0831
 2761DPPC   GL254820  14.206  -8.055  22.677  0.0960 -0.0245 -0.1873
 2761DPPC   C1A54821  14.399  -7.557  22.459  0.0324  0.3225 -0.2295
 2761DPPC   C2A54822  14.699  -7.265  22.628 -0.0057  0.0884 -0.2758
 2761DPPC   C3A54823  14.893  -6.889  22.515 -0.1267 -0.0562  0.1318
 2761DPPC   C4A54824  15.078  -6.601  22.278 -0.2759 -0.1048  0.0023
 2761DPPC   C1B54825  14.478  -7.800  22.896  0.6073  0.0895  0.1228
 2761DPPC   C2B54826  14.515  -7.342  23.108 -0.1407  0.0590  0.2328
 2761DPPC   C3B54827  14.664  -6.967  23.120  0.1666  0.0867  0.1645
 2761DPPC   C4B54828  14.757  -6.503  22.890  0.1661 -0.3435 -0.1812
 2762DPPC   NC354829  23.998   2.939  35.092 -0.3105 -0.1473 -0.1017
 2762DPPC   PO454830  23.558   2.716  35.155  0.3229 -0.0589  0.3451
 2762DPPC   GL154831  23.342   2.780  34.840 -0.1552  0.2779 -0.0573
 2762DPPC   GL254832  23.352   2.359  34.697 -0.0852 -0.0039 -0.2445
 2762DPPC   C1A54833  22.964   2.898  34.637  0.2606 -0.1232 -0.2888
 2762DPPC   C2A54834  22.975   3.198  34.195 -0.1785  0.0216 -0.0776
 2762DPPC   C3A54835  23.314   3.352  33.931  0.3244  0.3893 -0.1181
 2762DPPC   C4A54836  23.587   3.649  34.053 -0.1732 -0.0049  0.0440
 2762DPPC   C1B54837  23.105   2.410  34.386  0.0543 -0.0767 -0.1469
 2762DPPC   C2B54838  22.708   2.675  34.138  0.0897  0.0093 -0.1270
 2762DPPC   C3B54839  22.680   2.684  33.773  0.0429  0.4581 -0.1927
 2762DPPC   C4B54840  22.474   2.857  33.397 -0.3409 -0.2722 -0.0722
 2763DPPC   NC354841  20.089  10.333  24.159 -0.1328 -0.2198  0.2151
 2763DPPC   PO454842  20.505  10.404  23.941  0.0480 -0.2465  0.2061
 2763DPPC   GL154843  20.807  10.821  23.972 -0.2425  0.2275 -0.0136
 2763DPPC   GL254844  20.721  11.128  23.962  0.0267  0.0175  0.0040
 2763DPPC   C1A54845  21.216  10.983  24.057 -0.1153  0.0923 -0.1810
 2763DPPC   C2A54846  21.396  11.336  23.823 -0.1903 -0.0048  0.1254
 2763DPPC   C3A54847  21.337  11.724  23.632  0.2655  0.2254  0.3663
 2763DPPC   C4A54848  21.117  11.944  23.701 -0.1251 -0.1102  0.0642
 2763DPPC   C1B54849  20.910  11.449  23.922  0.2849 -0.2902 -0.0582
 2763DPPC   C2B54850  21.223  11.680  24.148 -0.2742 -0.2218  0.3292
 2763DPPC   C3B54851  21.596  11.929  24.237 -0.0810 -0.0176 -0.3258
 2763DPPC   C4B54852  21.973  11.785  24.443 -0.2148 -0.0896  0.0088
 2764DPPC   NC354853  15.010  -8.752  24.566  0.1923  0.1989  0.1064
 2764DPPC   PO454854  15.242  -8.585  24.312  0.2225  0.2208  0.0283
 2764DPPC   GL154855  15.418  -8.250  24.204  0.2895 -0.1330 -0.0977
 2764DPPC   GL254856  15.695  -8.318  24.083 -0.0382 -0.1002 -0.0024
 2764DPPC   C1A54857  15.451  -7.867  24.470  0.0300 -0.0185  0.1441
 2764DPPC   C2A54858  15.303  -7.416  24.353 -0.0409  0.0813  0.1920
 2764DPPC   C3A54859  14.968  -7.072  24.234  0.0889  0.1699 -0.2579
 2764DPPC   C4A54860  14.552  -7.024  24.047 -0.0923  0.2433 -0.0711
 2764DPPC   C1B54861  15.979  -7.964  24.211  0.2183  0.2684  0.1604
 2764DPPC   C2B54862  15.879  -7.498  24.381 -0.1962  0.2665  0.0321
 2764DPPC   C3B54863  16.011  -6.991  24.350  0.2509  0.0116  0.2626
 2764DPPC   C4B54864  16.204  -6.667  24.197  0.2752  0.1686  0.0105
 2765DPPC   NC354865  13.917  11.026  30.794  0.0231 -0.1307  0.0548
 2765DPPC   PO454866  13.521  11.267  30.792  0.4175  0.1488 -0.3476
 2765DPPC   GL154867  13.543  11.693  31.031  0.0212  0.1232 -0.0909
 2765DPPC   GL254868  13.881  11.849  31.067 -0.1000  0.1800 -0.2572
 2765DPPC   C1A54869  13.571  11.972  31.401 -0.0531  0.5165  0.0705
 2765DPPC   C2A54870  13.549  12.316  31.769 -0.0611 -0.0043 -0.2386
 2765DPPC   C3A54871  13.732  12.722  31.781  0.1844  0.0916 -0.0468
 2765DPPC   C4A54872  14.068  12.849  31.996 -0.2776  0.0911 -0.0625
 2765DPPC   C1B54873  13.752  12.266  30.931  0.3302 -0.2076  0.3412
 2765DPPC   C2B54874  13.847  12.689  30.882 -0.3095  0.1750  0.0583
 2765DPPC   C3B54875  13.592  13.027  30.912  0.1141  0.0577  0.0014
 2765DPPC   C4B54876  13.393  13.218  31.065 -0.2767 -0.0792  0.0927
 2766DPPC   NC354877  26.147   2.982  33.288 -0.2179 -0.0032  0.3766
 2766DPPC   PO454878  26.186   3.401  33.135  0.0885 -0.2034  0.1113
 2766DPPC   GL154879  25.784   3.475  32.844  0.1308 -0.0388 -0.2606
 2766DPPC   GL254880  25.729   3.404  32.503 -0.2983  0.0889  0.0853
 2766DPPC   C1A54881  25.425   3.768  32.723  0.0638 -0.0310  0.1026
 2766DPPC   C2A54882  25.123   3.835  32.420  0.1484 -0.0340 -0.2763
 2766DPPC   C3A54883  24.828   3.972  32.041 -0.0908  0.4364  0.3308
 2766DPPC   C4A54884  24.570   4.295  31.768 -0.1716 -0.0885  0.0240
 2766DPPC   C1B54885  25.509   3.207  32.095  0.1016  0.0333  0.0926
 2766DPPC   C2B54886  25.507   2.751  31.973 -0.0630 -0.1330 -0.0490
 2766DPPC   C3B54887  25.408   2.552  31.570  0.0646 -0.0195  0.2488
 2766DPPC   C4B54888  25.259   2.513  31.087  0.5171  0.3205 -0.0398
 2767DPPC   NC354889  20.633   2.779  32.459 -0.0246  0.1557  0.3522
 2767DPPC   PO454890  20.900   3.155  32.281 -0.0269  0.3156  0.1647
 2767DPPC   GL154891  21.170   2.958  32.474 -0.0277  0.2118 -0.3622
 2767DPPC   GL254892  21.399   3.206  32.557 -0.1882 -0.1969  0.2986
 2767DPPC   C1A54893  21.175   2.666  32.832  0.1326 -0.2093  0.0280
 2767DPPC   C2A54894  21.237   2.592  33.358  0.0376 -0.1189  0.0361
 2767DPPC   C3A54895  21.064   2.679  33.763 -0.3082 -0.0222  0.0068
 2767DPPC   C4A54896  20.880   2.962  34.076 -0.0015 -0.0626 -0.2237
 2767DPPC   C1B54897  21.634   2.810  32.531 -0.3736  0.1009 -0.1229
 2767DPPC   C2B54898  22.003   2.592  32.727  0.0068  0.0108  0.1381
 2767DPPC   C3B54899  22.306   2.295  32.948  0.1889  0.1943  0.3615
 2767DPPC   C4B54900  22.419   2.253  33.363  0.1759  0.0538  0.0245
 2768DPPC   NC354901  14.734  -4.457  20.803  0.1108 -0.0433  0.1009
 2768DPPC   PO454902  14.535  -4.783  20.495  0.2464 -0.1790 -0.1691
 2768DPPC   GL154903  14.744  -5.037  20.300 -0.0439 -0.1065  0.0024
 2768DPPC   GL254904  14.466  -5.229  20.173 -0.1038  0.1675 -0.0332
 2768DPPC   C1A54905  14.929  -5.016  19.871  0.0022 -0.1334 -0.2433
 2768DPPC   C2A54906  15.191  -5.112  19.678 -0.0353  0.0268 -0.0724
 2768DPPC   C3A54907  15.632  -5.152  19.760  0.1718  0.2430 -0.0003
 2768DPPC   C4A54908  15.937  -5.417  19.981 -0.0625 -0.0256  0.0041
 2768DPPC   C1B54909  14.716  -5.500  19.857 -0.1174  0.0527  0.3584
 2768DPPC   C2B54910  15.137  -5.729  19.745 -0.1304 -0.1669  0.4396
 2768DPPC   C3B54911  15.552  -5.632  19.748  0.0241 -0.0002 -0.0470
 2768DPPC   C4B54912  15.910  -5.962  19.884  0.1680  0.1765  0.1810
 2769DPPC   NC354913  10.009   7.784  30.524 -0.2096  0.3490 -0.1005
 2769DPPC   PO454914   9.539   7.685  30.460 -0.0847  0.1134  0.0636
 2769DPPC   GL154915   9.185   7.488  30.653  0.1070 -0.1520  0.1437
 2769DPPC   GL254916   9.224   7.557  31.069  0.1408  0.1533 -0.0240
 2769DPPC   C1A54917   8.756   7.440  30.846 -0.0287  0.1498  0.1114
 2769DPPC   C2A54918   8.369   7.562  30.879  0.1218  0.1565 -0.3195
 2769DPPC   C3A54919   7.900   7.677  31.060 -0.0572 -0.2390  0.0394
 2769DPPC   C4A54920   7.680   7.551  31.442  0.2159 -0.3379 -0.4393
 2769DPPC   C1B54921   9.152   7.628  31.537  0.4587  0.0051 -0.1253
 2769DPPC   C2B54922   8.845   7.936  31.698  0.0966  0.0553  0.2113
 2769DPPC   C3B54923   8.496   8.189  31.704  0.0395  0.0871  0.2364
 2769DPPC   C4B54924   8.230   8.422  31.720  0.1571 -0.0119  0.1704
 2770DPPC   NC354925   8.737   9.780  27.615 -0.0245  0.3173 -0.0454
 2770DPPC   PO454926   9.050   9.912  27.863 -0.2658  0.6513 -0.3097
 2770DPPC   GL154927   8.609  10.145  27.938 -0.1278 -0.2703  0.0320
 2770DPPC   GL254928   8.523  10.242  27.610  0.2525 -0.2989  0.0226
 2770DPPC   C1A54929   8.189  10.187  28.017 -0.0123  0.0892  0.4206
 2770DPPC   C2A54930   7.845  10.330  27.762 -0.0165  0.0298 -0.0188
 2770DPPC   C3A54931   7.405  10.517  27.651 -0.0923  0.0284 -0.0217
 2770DPPC   C4A54932   7.025  10.277  27.686 -0.0543  0.3023  0.0004
 2770DPPC   C1B54933   8.397  10.660  27.695  0.1984  0.1211 -0.1291
 2770DPPC   C2B54934   8.501  11.126  27.608  0.0062 -0.0504  0.0546
 2770DPPC   C3B54935   8.398  11.573  27.725 -0.2801  0.0108 -0.1194
 2770DPPC   C4B54936   8.593  11.959  27.849 -0.3342 -0.0508  0.4713
 2771DPPC   NC354937  11.619  -2.346  14.360 -0.0296  0.0879  0.0382
 2771DPPC   PO454938  11.266  -2.085  14.389 -0.0619 -0.1367 -0.2246
 2771DPPC   GL154939  11.185  -1.840  14.779  0.1660  0.0178 -0.0509
 2771DPPC   GL254940  11.372  -1.568  14.646  0.1771  0.1471 -0.3701
 2771DPPC   C1A54941  11.032  -1.605  15.235  0.1014 -0.0142  0.0816
 2771DPPC   C2A54942  11.135  -1.618  15.708  0.2278 -0.2093 -0.3648
 2771DPPC   C3A54943  11.138  -1.304  15.990  0.1171  0.0298  0.1961
 2771DPPC   C4A54944  10.920  -1.191  16.376 -0.2394  0.1188  0.1659
 2771DPPC   C1B54945  11.784  -1.543  14.567 -0.3461  0.1954  0.0854
 2771DPPC   C2B54946  12.266  -1.456  14.421  0.6407 -0.6090 -0.0497
 2771DPPC   C3B54947  12.728  -1.476  14.626 -0.1672 -0.2027 -0.2440
 2771DPPC   C4B54948  13.124  -1.401  14.892 -0.0555  0.1022 -0.1567
 2772DPPC   NC354949  16.974  14.192  19.687  0.1634 -0.1128 -0.2162
 2772DPPC   PO454950  17.337  14.188  19.394 -0.1404 -0.1642  0.0833
 2772DPPC   GL154951  17.481  13.832  19.554 -0.3388 -0.2075  0.1190
 2772DPPC   GL254952  17.799  13.730  19.805 -0.1823  0.1023 -0.0591
 2772DPPC   C1A54953  17.329  13.555  19.886 -0.1310  0.1542 -0.1023
 2772DPPC   C2A54954  17.220  13.104  19.986  0.0635 -0.4335 -0.0223
 2772DPPC   C3A54955  16.769  12.959  19.835  0.0526 -0.1073 -0.4089
 2772DPPC   C4A54956  16.698  12.574  19.616 -0.0522 -0.0035  0.2375
 2772DPPC   C1B54957  18.066  13.567  20.135  0.1567  0.0608  0.0767
 2772DPPC   C2B54958  18.199  13.307  20.367  0.1149 -0.0712 -0.1723
 2772DPPC   C3B54959  18.343  13.089  20.771 -0.2730 -0.2854 -0.1217
 2772DPPC   C4B54960  18.070  12.920  21.167  0.4007  0.0657 -0.2509
 2773DPPC   NC354961   8.887   5.590  14.633 -0.0725 -0.1010 -0.0244
 2773DPPC   PO454962   9.226   5.451  14.580  0.0948 -0.0036  0.0410
 2773DPPC   GL154963   9.594   5.400  14.771  0.1318 -0.1233 -0.0707
 2773DPPC   GL254964   9.862   5.564  14.605  0.2527  0.0395 -0.1349
 2773DPPC   C1A54965   9.875   5.243  15.167 -0.0601  0.1314  0.6405
 2773DPPC   C2A54966  10.089   5.026  15.470 -0.1274  0.0759  0.2279
 2773DPPC   C3A54967  10.208   4.841  15.919 -0.1089  0.2533 -0.3311
 2773DPPC   C4A54968  10.453   4.899  16.289 -0.0624 -0.1111 -0.2771
 2773DPPC   C1B54969  10.139   5.664  14.897  0.0801  0.3463 -0.1571
 2773DPPC   C2B54970  10.313   5.671  15.203 -0.1065 -0.1764 -0.0175
 2773DPPC   C3B54971  10.654   5.663  15.236 -0.0434  0.1289 -0.2990
 2773DPPC   C4B54972  11.102   5.458  15.463  0.1479  0.0754 -0.2014
 2774DPPC   NC354973  12.715  10.024  31.200  0.2428  0.0906  0.2387
 2774DPPC   PO454974  12.928   9.648  31.442 -0.0583  0.3581 -0.0354
 2774DPPC   GL154975  12.865   9.818  31.777  0.0779 -0.0835  0.0739
 2774DPPC   GL254976  12.957  10.133  31.649  0.0297  0.0466 -0.1400
 2774DPPC   C1A54977  12.802  10.017  32.127  0.1799 -0.3017  0.0526
 2774DPPC   C2A54978  12.904  10.384  32.416  0.1531  0.1252  0.0642
 2774DPPC   C3A54979  12.836  10.739  32.702  0.1290 -0.1380 -0.0468
 2774DPPC   C4A54980  12.808  11.040  32.948  0.0952  0.0603  0.0019
 2774DPPC   C1B54981  12.801  10.540  31.885 -0.1939  0.0574  0.0757
 2774DPPC   C2B54982  12.733  10.897  32.182 -0.0636  0.0391 -0.4254
 2774DPPC   C3B54983  12.757  11.359  32.198 -0.7525 -0.0976  0.0026
 2774DPPC   C4B54984  12.811  11.638  31.964 -0.1984  0.2242 -0.1768
 2775DPPC   NC354985  11.085  -3.425  24.770  0.2637  0.0278  0.0435
 2775DPPC   PO454986  11.366  -3.605  24.418  0.3665  0.0084 -0.1308
 2775DPPC   GL154987  11.391  -3.971  24.257  0.3619  0.1064 -0.1756
 2775DPPC   GL254988  11.399  -4.193  24.442  0.1223 -0.0878 -0.0189
 2775DPPC   C1A54989  11.053  -4.248  24.094 -0.1245  0.3777  0.1578
 2775DPPC   C2A54990  10.766  -4.555  24.179 -0.0098  0.0703  0.1431
 2775DPPC   C3A54991  10.517  -4.857  24.242 -0.3349 -0.3177 -0.0812
 2775DPPC   C4A54992  10.287  -4.993  24.470  0.0748  0.1525  0.1599
 2775DPPC   C1B54993  11.232  -4.662  24.288 -0.1127 -0.2905  0.0462
 2775DPPC   C2B54994  11.016  -5.049  24.032  0.1589 -0.3762  0.0175
 2775DPPC   C3B54995  10.659  -5.377  24.283  0.2772 -0.3154 -0.1718
 2775DPPC   C4B54996  10.317  -5.595  24.503  0.2147  0.0482  0.2095
 2776DPPC   NC354997   4.807  -3.545  23.444  0.0877 -0.0238 -0.2398
 2776DPPC   PO454998   4.785  -3.175  23.697  0.0579 -0.0113  0.1526
 2776DPPC   GL154999   5.207  -3.346  23.698 -0.1594 -0.0552  0.1152
 2776DPPC   GL255000   5.278  -3.314  24.024  0.3051  0.1708  0.0719
 2776DPPC   C1A55001   5.523  -3.095  23.548 -0.0755  0.2348  0.4582
 2776DPPC   C2A55002   5.769  -2.608  23.729 -0.0956  0.1631  0.1516
 2776DPPC   C3A55003   5.468  -2.296  23.484 -0.2556 -0.2193  0.0792
 2776DPPC   C4A55004   5.035  -2.244  23.431 -0.0315  0.1742  0.2243
 2776DPPC   C1B55005   5.678  -3.206  24.018  0.1258  0.0760 -0.1740
 2776DPPC   C2B55006   5.934  -2.878  24.173 -0.0779 -0.2497 -0.0317
 2776DPPC   C3B55007   6.204  -2.565  23.937  0.1754 -0.0429  0.0254
 2776DPPC   C4B55008   6.324  -2.195  23.851 -0.3002 -0.0811  0.2228
 2777DPPC   NC355009  26.508  -5.628  16.532  0.1337 -0.3039  0.0438
 2777DPPC   PO455010  26.294  -5.954  16.350 -0.0327 -0.1083 -0.0721
 2777DPPC   GL155011  25.949  -5.621  16.248 -0.0804  0.1569  0.2575
 2777DPPC   GL255012  25.981  -5.465  16.001 -0.0045 -0.0485 -0.0241
 2777DPPC   C1A55013  25.474  -5.634  16.313  0.0383 -0.0672  0.1000
 2777DPPC   C2A55014  25.185  -5.818  16.547 -0.0034 -0.0873  0.0011
 2777DPPC   C3A55015  24.807  -6.009  16.450 -0.1897  0.2481  0.3168
 2777DPPC   C4A55016  24.592  -6.377  16.530  0.0693  0.0335  0.3546
 2777DPPC   C1B55017  25.690  -5.230  16.127  0.2016  0.2996  0.0425
 2777DPPC   C2B55018  25.515  -4.931  16.320 -0.2046 -0.2194 -0.2720
 2777DPPC   C3B55019  25.279  -4.797  16.773 -0.5013  0.1067  0.0391
 2777DPPC   C4B55020  25.074  -4.478  17.034 -0.1617  0.2276 -0.1098
 2778DPPC   NC355021  22.983   5.220  19.100  0.0982  0.1050  0.2222
 2778DPPC   PO455022  22.675   5.617  19.020  0.0307  0.4448  0.1390
 2778DPPC   GL155023  23.001   5.672  18.744  0.0934  0.4125 -0.0881
 2778DPPC   GL255024  23.334   5.617  18.854  0.4849  0.0083  0.0191
 2778DPPC   C1A55025  23.137   5.514  18.291  0.0750 -0.2242 -0.1701
 2778DPPC   C2A55026  23.385   5.641  18.037  0.0385 -0.1879 -0.0818
 2778DPPC   C3A55027  23.795   5.729  17.968 -0.2385 -0.1685  0.1383
 2778DPPC   C4A55028  23.938   5.541  17.498  0.1669  0.1750  0.2169
 2778DPPC   C1B55029  23.675   5.498  18.582 -0.0692 -0.2424  0.0133
 2778DPPC   C2B55030  24.120   5.525  18.665 -0.2478 -0.0361 -0.0814
 2778DPPC   C3B55031  24.490   5.727  18.849  0.1701  0.0455 -0.0444
 2778DPPC   C4B55032  24.804   6.018  18.836  0.0903  0.1968 -0.0924
 2779DPPC   NC355033  27.406  -4.247  15.920  0.1108 -0.0581  0.3663
 2779DPPC   PO455034  27.078  -4.148  15.920 -0.0118  0.2014 -0.1403
 2779DPPC   GL155035  26.738  -4.465  15.759  0.2063  0.0770 -0.3157
 2779DPPC   GL255036  26.428  -4.347  15.583 -0.0618 -0.0721  0.0668
 2779DPPC   C1A55037  26.282  -4.658  15.918  0.2686  0.0449  0.1448
 2779DPPC   C2A55038  25.884  -4.729  16.087  0.1162  0.0613 -0.0225
 2779DPPC   C3A55039  25.754  -4.416  16.469 -0.2815 -0.1524  0.3608
 2779DPPC   C4A55040  26.063  -4.402  16.784 -0.2533 -0.0477  0.1297
 2779DPPC   C1B55041  26.217  -4.211  15.195 -0.1717  0.3913  0.0976
 2779DPPC   C2B55042  26.174  -3.851  14.973  0.0809  0.1750 -0.1373
 2779DPPC   C3B55043  26.324  -3.466  14.814 -0.1613 -0.0116 -0.2829
 2779DPPC   C4B55044  26.595  -3.166  15.197  0.0462 -0.1295  0.1788
 2780DPPC   NC355045  21.692  -2.156  34.657  0.1046  0.1259 -0.1501
 2780DPPC   PO455046  21.625  -2.377  34.323 -0.0610  0.0843  0.4941
 2780DPPC   GL155047  21.516  -2.016  34.106  0.0853 -0.1683  0.1187
 2780DPPC   GL255048  21.368  -2.235  33.932 -0.2162  0.0305 -0.1302
 2780DPPC   C1A55049  21.393  -1.612  34.053 -0.0952 -0.4294  0.1170
 2780DPPC   C2A55050  21.510  -1.258  33.785  0.0327 -0.1521 -0.0806
 2780DPPC   C3A55051  21.400  -0.966  33.426 -0.1988  0.3253 -0.0842
 2780DPPC   C4A55052  21.157  -0.791  33.180  0.1040 -0.1570 -0.0383
 2780DPPC   C1B55053  21.511  -2.194  33.546  0.2781  0.0830 -0.0579
 2780DPPC   C2B55054  21.505  -2.382  33.176  0.2744 -0.0598 -0.0547
 2780DPPC   C3B55055  21.300  -2.582  32.926  0.1244  0.2616  0.1303
 2780DPPC   C4B55056  20.914  -2.481  32.808 -0.3900  0.4002 -0.1246
 2781DPPC   NC355057  13.436   6.947  32.423 -0.0497  0.2472 -0.2015
 2781DPPC   PO455058  13.519   7.070  32.856  0.2123  0.2515 -0.1814
 2781DPPC   GL155059  13.377   7.348  33.201  0.0446 -0.0335 -0.2518
 2781DPPC   GL255060  13.221   7.670  33.099 -0.3264 -0.2003  0.2208
 2781DPPC   C1A55061  13.296   7.518  33.567 -0.1521  0.0916  0.2493
 2781DPPC   C2A55062  13.140   7.224  33.800  0.3186  0.2002 -0.0027
 2781DPPC   C3A55063  13.453   6.970  34.074  0.1212  0.0292 -0.1597
 2781DPPC   C4A55064  13.482   6.681  34.455  0.1792 -0.6023 -0.1480
 2781DPPC   C1B55065  12.922   7.903  33.452 -0.2879  0.2244  0.0272
 2781DPPC   C2B55066  12.715   8.124  33.785 -0.0887 -0.0513 -0.1076
 2781DPPC   C3B55067  12.611   8.286  34.159 -0.4163  0.1023 -0.3046
 2781DPPC   C4B55068  12.497   8.457  34.583 -0.2131  0.0330 -0.1235
 2782DPPC   NC355069  13.827   6.696  12.704  0.2193 -0.3126 -0.0222
 2782DPPC   PO455070  13.926   7.117  12.820  0.0003 -0.1757  0.1875
 2782DPPC   GL155071  13.841   6.842  13.176  0.0141 -0.4058  0.2434
 2782DPPC   GL255072  14.134   6.662  13.154  0.1037 -0.0925 -0.0723
 2782DPPC   C1A55073  13.930   6.765  13.646  0.0199  0.3230 -0.2174
 2782DPPC   C2A55074  14.039   6.511  13.998  0.0260 -0.4586 -0.0570
 2782DPPC   C3A55075  13.935   6.419  14.387  0.0772  0.2273 -0.0155
 2782DPPC   C4A55076  13.962   6.244  14.852 -0.0047 -0.0439  0.0800
 2782DPPC   C1B55077  14.035   6.200  13.517 -0.0465  0.0027  0.2861
 2782DPPC   C2B55078  13.823   5.824  13.680 -0.0307 -0.2195 -0.2072
 2782DPPC   C3B55079  13.896   5.500  14.053 -0.2915 -0.0352  0.0427
 2782DPPC   C4B55080  14.008   5.647  14.409 -0.4022 -0.1888 -0.0167
 2783DPPC   NC355081  28.474   5.874  25.677  0.0381  0.1440  0.0716
 2783DPPC   PO455082  28.330   6.169  25.281 -0.1300 -0.0299 -0.3245
 2783DPPC   GL155083  27.988   5.963  25.342  0.2074  0.1389  0.4550
 2783DPPC   GL255084  27.986   5.653  25.398 -0.0773  0.1161 -0.2218
 2783DPPC   C1A55085  27.548   6.027  25.199  0.0369  0.1931 -0.1029
 2783DPPC   C2A55086  27.114   6.116  24.892  0.1391  0.0208  0.1037
 2783DPPC   C3A55087  26.920   6.464  25.029  0.2133  0.0768 -0.2361
 2783DPPC   C4A55088  26.790   6.722  25.320  0.0938  0.0844 -0.0915
 2783DPPC   C1B55089  27.548   5.638  25.535  0.3777  0.0314 -0.1512
 2783DPPC   C2B55090  27.297   5.619  25.865  0.1786  0.1376  0.0050
 2783DPPC   C3B55091  27.026   5.321  26.032 -0.1866 -0.0457 -0.0327
 2783DPPC   C4B55092  26.774   5.105  26.133  0.0499 -0.1055  0.1089
 2784DPPC   NC355093  14.954   7.817  37.159  0.0446  0.2254  0.0784
 2784DPPC   PO455094  14.665   8.214  37.063  0.0283 -0.1602 -0.4465
 2784DPPC   GL155095  14.689   7.991  36.629  0.3494 -0.0322 -0.1811
 2784DPPC   GL255096  14.753   7.679  36.659 -0.0013  0.0050  0.2978
 2784DPPC   C1A55097  14.948   8.008  36.288  0.3063  0.0513  0.0489
 2784DPPC   C2A55098  15.044   7.985  35.810  0.6091  0.0985 -0.0328
 2784DPPC   C3A55099  15.306   7.996  35.470 -0.1316  0.0301  0.1972
 2784DPPC   C4A55100  15.573   8.180  35.205  0.2592  0.2114 -0.2742
 2784DPPC   C1B55101  14.849   7.530  36.211  0.1296 -0.3507  0.0065
 2784DPPC   C2B55102  14.913   7.500  35.829  0.0834 -0.1244 -0.2469
 2784DPPC   C3B55103  14.686   7.440  35.440  0.0054 -0.1480  0.1115
 2784DPPC   C4B55104  14.786   7.520  35.039 -0.0620 -0.0257  0.0538
 2785DPPC   NC355105  18.678   7.180  32.711  0.3631  0.0927  0.1264
 2785DPPC   PO455106  18.328   7.077  33.046 -0.0068 -0.1075  0.0677
 2785DPPC   GL155107  18.474   7.122  33.573 -0.2506 -0.0107  0.0259
 2785DPPC   GL255108  18.361   7.469  33.749  0.0865 -0.2911 -0.3462
 2785DPPC   C1A55109  18.724   7.206  33.938  0.1593 -0.0062  0.0881
 2785DPPC   C2A55110  18.813   7.178  34.270 -0.2128  0.1947 -0.1138
 2785DPPC   C3A55111  18.949   7.280  34.653  0.0873 -0.1041  0.0384
 2785DPPC   C4A55112  19.206   7.414  34.964 -0.0756 -0.2524 -0.2893
 2785DPPC   C1B55113  18.434   7.713  34.103  0.1125  0.0587  0.0552
 2785DPPC   C2B55114  18.796   7.737  34.351 -0.1513  0.1709  0.0311
 2785DPPC   C3B55115  18.949   7.776  34.714  0.0974  0.4120 -0.1212
 2785DPPC   C4B55116  19.328   7.939  34.834 -0.3037  0.0563 -0.0999
 2786DPPC   NC355117  14.665  11.302  35.724 -0.2118  0.2681  0.3316
 2786DPPC   PO455118  14.208  11.225  35.666 -0.0880  0.2390  0.2291
 2786DPPC   GL155119  14.499  11.068  35.297  0.1394 -0.2093  0.0165
 2786DPPC   GL255120  14.740  11.254  35.215 -0.4414  0.3808 -0.0328
 2786DPPC   C1A55121  14.465  10.764  34.968  0.1520  0.1661 -0.0326
 2786DPPC   C2A55122  14.120  10.605  34.846  0.1890  0.1947  0.0913
 2786DPPC   C3A55123  13.972  10.216  34.636  0.0367  0.0737  0.0018
 2786DPPC   C4A55124  13.851   9.918  34.240 -0.0049 -0.0255 -0.0443
 2786DPPC   C1B55125  14.885  11.022  34.914 -0.1185 -0.3085  0.2225
 2786DPPC   C2B55126  15.165  10.715  34.935 -0.0322  0.2521 -0.1629
 2786DPPC   C3B55127  15.439  10.555  34.656 -0.0875 -0.0614 -0.1375
 2786DPPC   C4B55128  15.219  10.311  34.351  0.1598 -0.1178  0.3188
 2787DPPC   NC355129  17.333   0.286  19.594  0.2381 -0.1549 -0.2255
 2787DPPC   PO455130  17.083   0.393  19.209  0.0658  0.1795 -0.0408
 2787DPPC   GL155131  17.445   0.065  19.120 -0.1201 -0.0795 -0.0099
 2787DPPC   GL255132  17.327  -0.288  19.256 -0.0561  0.1755 -0.1554
 2787DPPC   C1A55133  17.586   0.003  18.635  0.2970  0.0112  0.1259
 2787DPPC   C2A55134  17.835  -0.216  18.385  0.1369  0.1421 -0.1897
 2787DPPC   C3A55135  17.847  -0.664  18.191  0.1408  0.0612 -0.1679
 2787DPPC   C4A55136  17.659  -1.043  18.090 -0.0311  0.3754 -0.2947
 2787DPPC   C1B55137  17.638  -0.440  19.013  0.0915 -0.2731 -0.0341
 2787DPPC   C2B55138  17.969  -0.189  18.867 -0.0969  0.3328  0.2813
 2787DPPC   C3B55139  18.130   0.144  18.601 -0.2076  0.2092  0.4017
 2787DPPC   C4B55140  17.944   0.617  18.472  0.0061  0.4200 -0.0526
 2788DPPC   NC355141  12.000   4.710  12.597  0.3062  0.3593  0.3436
 2788DPPC   PO455142  12.435   4.561  12.739  0.1515  0.0953 -0.0806
 2788DPPC   GL155143  12.657   4.266  12.916  0.1282 -0.1004  0.2844
 2788DPPC   GL255144  12.419   4.078  13.238  0.0366  0.0136  0.2815
 2788DPPC   C1A55145  12.868   4.008  13.262 -0.0804  0.0084 -0.0398
 2788DPPC   C2A55146  12.968   3.599  13.418  0.2638 -0.3585  0.1795
 2788DPPC   C3A55147  12.991   3.138  13.729  0.1722 -0.1564  0.0293
 2788DPPC   C4A55148  13.170   3.082  14.053  0.0500 -0.2431  0.0583
 2788DPPC   C1B55149  12.559   4.424  13.465  0.0204  0.0550  0.0447
 2788DPPC   C2B55150  12.358   4.564  13.736 -0.0548  0.2140  0.1232
 2788DPPC   C3B55151  12.479   4.415  14.154 -0.2311 -0.0738 -0.0422
 2788DPPC   C4B55152  12.378   4.287  14.472 -0.3565  0.1757 -0.4143
 2789DPPC   NC355153   9.867   0.810  19.344  0.3018  0.0152  0.2614
 2789DPPC   PO455154   9.846   1.145  19.038 -0.2355 -0.1470  0.1331
 2789DPPC   GL155155   9.597   1.028  18.815  0.0903  0.1116 -0.0654
 2789DPPC   GL255156   9.269   1.174  18.902  0.0701  0.1843  0.3374
 2789DPPC   C1A55157   9.403   0.822  18.529 -0.1609  0.0087 -0.3429
 2789DPPC   C2A55158   9.025   0.709  18.280  0.0384 -0.0266 -0.0254
 2789DPPC   C3A55159   8.855   0.228  18.260  0.2642 -0.1852  0.0952
 2789DPPC   C4A55160   8.753  -0.069  17.918  0.3507 -0.0070 -0.2901
 2789DPPC   C1B55161   8.986   0.830  18.805  0.0379 -0.0085 -0.1683
 2789DPPC   C2B55162   8.718   0.516  18.638 -0.1022  0.4018 -0.1690
 2789DPPC   C3B55163   8.326   0.406  18.476 -0.2745 -0.0740 -0.1009
 2789DPPC   C4B55164   7.963   0.146  18.686  0.2335 -0.3687  0.0483
 2790DPPC   NC355165  17.454  11.653  25.517  0.1525 -0.3520 -0.2146
 2790DPPC   PO455166  17.643  12.058  25.426  0.2126 -0.2606  0.2481
 2790DPPC   GL155167  17.755  12.456  25.309 -0.3561  0.0401  0.1103
 2790DPPC   GL255168  17.542  12.655  25.243 -0.0819 -0.1607 -0.1684
 2790DPPC   C1A55169  18.020  12.761  24.952  0.0173 -0.1149 -0.5052
 2790DPPC   C2A55170  17.837  13.223  24.930  0.0903  0.3923 -0.4881
 2790DPPC   C3A55171  17.872  13.630  25.098  0.3332 -0.0533 -0.3099
 2790DPPC   C4A55172  17.992  13.854  25.428  0.1483  0.4022  0.0575
 2790DPPC   C1B55173  17.284  12.947  24.994 -0.2158 -0.2027  0.1135
 2790DPPC   C2B55174  17.122  13.290  24.707 -0.2373  0.4082 -0.1054
 2790DPPC   C3B55175  17.267  13.538  24.313  0.2159  0.4178  0.1489
 2790DPPC   C4B55176  17.696  13.590  24.038  0.0343 -0.3973  0.4126
 2791DPPC   NC355177  21.336   0.294  20.556 -0.5000 -0.0085 -0.1425
 2791DPPC   PO455178  21.525  -0.104  20.736 -0.1725  0.3215 -0.0122
 2791DPPC   GL155179  21.711  -0.455  20.342 -0.0863  0.0637 -0.1374
 2791DPPC   GL255180  21.853  -0.786  20.214  0.1673 -0.1583  0.1578
 2791DPPC   C1A55181  21.554  -0.506  19.880 -0.3715 -0.2498 -0.2889
 2791DPPC   C2A55182  21.696  -0.251  19.477 -0.2189  0.0538  0.0349
 2791DPPC   C3A55183  21.873  -0.405  18.972  0.3518 -0.0146 -0.1715
 2791DPPC   C4A55184  22.196  -0.868  19.003 -0.0876 -0.2636  0.0469
 2791DPPC   C1B55185  22.126  -0.970  19.854  0.3243 -0.0195  0.1054
 2791DPPC   C2B55186  22.420  -0.919  19.396  0.0799 -0.1289 -0.0314
 2791DPPC   C3B55187  22.671  -0.621  19.124  0.2487 -0.1751 -0.1397
 2791DPPC   C4B55188  22.783  -0.315  18.798  0.2739  0.0863 -0.0153
 2792DPPC   NC355189  25.003  -5.393  24.170 -0.2946  0.1143 -0.2713
 2792DPPC   PO455190  24.806  -5.654  23.786  0.2227 -0.0095 -0.0216
 2792DPPC   GL155191  24.475  -5.396  23.779 -0.0935  0.1985  0.2551
 2792DPPC   GL255192  24.198  -5.453  23.889  0.0863 -0.0788  0.0280
 2792DPPC   C1A55193  24.159  -5.086  23.566 -0.0063 -0.0411  0.1324
 2792DPPC   C2A55194  24.001  -4.676  23.824 -0.1203  0.1181 -0.0766
 2792DPPC   C3A55195  23.909  -4.222  23.938 -0.0006  0.0462 -0.2540
 2792DPPC   C4A55196  23.823  -3.774  23.793 -0.2161  0.2016  0.3838
 2792DPPC   C1B55197  24.269  -5.146  24.130 -0.3422 -0.0842  0.0425
 2792DPPC   C2B55198  24.555  -4.887  24.059 -0.3680  0.0023  0.2411
 2792DPPC   C3B55199  24.611  -4.423  23.859 -0.0377 -0.1328 -0.0126
 2792DPPC   C4B55200  24.792  -4.350  23.496  0.0536  0.3159 -0.0658
 2793DPPC   NC355201  23.846   0.938  27.109 -0.2351 -0.2478  0.0367
 2793DPPC   PO455202  24.033   0.757  27.439  0.1717 -0.2825  0.1052
 2793DPPC   GL155203  24.471   0.643  27.542 -0.1231  0.0330 -0.0239
 2793DPPC   GL255204  24.601   0.831  27.751  0.2672  0.2431  0.0491
 2793DPPC   C1A55205  24.789   0.409  27.309  0.1151 -0.3071 -0.0626
 2793DPPC   C2A55206  25.017   0.311  26.961 -0.0369  0.0873  0.0457
 2793DPPC   C3A55207  25.285   0.109  27.017 -0.1510 -0.3317 -0.3516
 2793DPPC   C4A55208  25.566  -0.133  27.083 -0.1155  0.0102  0.1871
 2793DPPC   C1B55209  24.357   0.486  27.974 -0.2154 -0.1944  0.1857
 2793DPPC   C2B55210  24.586   0.121  28.263 -0.0661 -0.0750  0.1284
 2793DPPC   C3B55211  24.831  -0.185  28.523  0.1473 -0.4921 -0.0455
 2793DPPC   C4B55212  24.898  -0.502  28.706 -0.2330 -0.3551  0.0574
 2794DPPC   NC355213  16.814  16.664  26.787  0.2180  0.0215 -0.0436
 2794DPPC   PO455214  16.610  16.626  27.170 -0.0396  0.5366  0.0558
 2794DPPC   GL155215  16.750  16.272  27.224 -0.0214  0.0098 -0.3002
 2794DPPC   GL255216  17.136  16.241  27.330 -0.2284  0.0059  0.0023
 2794DPPC   C1A55217  16.735  15.983  27.559  0.1399 -0.0484 -0.1251
 2794DPPC   C2A55218  16.707  15.705  28.043 -0.1348 -0.1583  0.2339
 2794DPPC   C3A55219  16.411  15.574  28.389  0.0391 -0.0144 -0.0468
 2794DPPC   C4A55220  16.552  15.352  28.702  0.0904 -0.1272  0.1909
 2794DPPC   C1B55221  17.042  15.826  27.238  0.0514  0.2328 -0.1469
 2794DPPC   C2B55222  17.007  15.415  26.910 -0.0979 -0.1066 -0.1244
 2794DPPC   C3B55223  16.668  15.343  26.753 -0.0030  0.1742  0.0496
 2794DPPC   C4B55224  16.234  15.194  26.586 -0.1292 -0.1096  0.1851
 2795DPPC   NC355225  20.686  -0.798  20.613  0.2864 -0.0401  0.0515
 2795DPPC   PO455226  21.033  -0.989  20.481 -0.1886  0.0409 -0.3655
 2795DPPC   GL155227  20.870  -1.057  20.184  0.0873  0.0761 -0.0631
 2795DPPC   GL255228  20.633  -1.222  19.957  0.1410 -0.0815  0.2902
 2795DPPC   C1A55229  20.794  -0.768  19.853  0.0001  0.1541  0.0004
 2795DPPC   C2A55230  21.150  -0.695  19.550  0.1817 -0.2295  0.1367
 2795DPPC   C3A55231  21.370  -0.573  19.136  0.2970  0.0837 -0.2210
 2795DPPC   C4A55232  21.373  -0.562  18.663  0.0995  0.0374 -0.0563
 2795DPPC   C1B55233  20.881  -1.308  19.676  0.0129 -0.1611  0.2580
 2795DPPC   C2B55234  20.889  -1.576  19.435 -0.1686 -0.0441 -0.0394
 2795DPPC   C3B55235  21.183  -1.556  18.970  0.0225  0.0179 -0.3737
 2795DPPC   C4B55236  21.440  -1.426  18.759  0.0134  0.1243  0.2427
 2796DPPC   NC355237  17.437   8.114  18.526  0.1226 -0.0461  0.1219
 2796DPPC   PO455238  17.606   8.372  18.336 -0.0452 -0.0745 -0.0870
 2796DPPC   GL155239  17.420   8.646  17.944 -0.0228  0.0232 -0.1643
 2796DPPC   GL255240  17.146   8.591  17.866 -0.0760 -0.2088  0.0956
 2796DPPC   C1A55241  17.204   9.057  17.794  0.1375 -0.2239 -0.0704
 2796DPPC   C2A55242  16.896   9.417  17.801 -0.2953  0.5708  0.2964
 2796DPPC   C3A55243  16.760   9.602  17.552  0.1523 -0.0342  0.1149
 2796DPPC   C4A55244  16.524   9.625  17.169  0.0906 -0.2955 -0.0034
 2796DPPC   C1B55245  17.126   8.547  17.469 -0.0479 -0.0504  0.1992
 2796DPPC   C2B55246  17.213   8.914  17.203  0.1512 -0.0738 -0.3992
 2796DPPC   C3B55247  17.204   9.326  17.279 -0.0586 -0.0856 -0.1829
 2796DPPC   C4B55248  17.527   9.644  17.128  0.0637  0.2234  0.2094
 2797DPPC   NC355249   8.595  -1.091  33.930  0.2033  0.0408  0.0491
 2797DPPC   PO455250   8.783  -1.208  33.591  0.1289 -0.1927  0.4584
 2797DPPC   GL155251   8.878  -1.054  33.230  0.1020 -0.0541 -0.1286
 2797DPPC   GL255252   9.060  -1.250  33.103 -0.2169 -0.0717 -0.0929
 2797DPPC   C1A55253   9.222  -0.849  32.890  0.0344 -0.0083  0.1368
 2797DPPC   C2A55254   9.567  -0.872  32.536  0.1169 -0.1009 -0.0298
 2797DPPC   C3A55255   9.508  -0.658  32.156  0.0848  0.0815 -0.2302
 2797DPPC   C4A55256   9.567  -0.212  31.867 -0.0431 -0.2063 -0.3238
 2797DPPC   C1B55257   9.358  -0.981  33.351  0.2508 -0.0521  0.0553
 2797DPPC   C2B55258   9.513  -0.608  33.405  0.0579  0.2605  0.0279
 2797DPPC   C3B55259   9.470  -0.361  33.115  0.1918  0.1407 -0.2975
 2797DPPC   C4B55260   9.495  -0.317  32.587 -0.0617  0.1315  0.1649
 2798DPPC   NC355261  20.541  -2.772  25.492  0.1678  0.0430  0.1260
 2798DPPC   PO455262  20.822  -2.485  25.344 -0.1152  0.0415 -0.1127
 2798DPPC   GL155263  21.219  -2.799  25.295  0.2830 -0.1812 -0.0527
 2798DPPC   GL255264  21.045  -3.027  25.373 -0.2961  0.2606  0.3090
 2798DPPC   C1A55265  21.464  -3.148  25.044 -0.3231  0.0963 -0.1838
 2798DPPC   C2A55266  21.512  -3.574  24.909 -0.2100 -0.4481 -0.0833
 2798DPPC   C3A55267  21.466  -3.954  24.767 -0.0047  0.0513 -0.1666
 2798DPPC   C4A55268  21.459  -4.223  24.413 -0.2351  0.0240 -0.0931
 2798DPPC   C1B55269  21.226  -3.423  25.449 -0.0733  0.1308  0.0903
 2798DPPC   C2B55270  21.338  -3.840  25.254 -0.3447 -0.2017  0.2148
 2798DPPC   C3B55271  21.530  -4.264  25.181 -0.0096  0.1302 -0.1412
 2798DPPC   C4B55272  21.636  -4.717  25.270  0.0326 -0.0990  0.3678
 2799DPPC   NC355273  13.433  -8.810  21.769 -0.0514 -0.2764  0.2037
 2799DPPC   PO455274  13.026  -8.577  21.860  0.0817  0.2497 -0.2262
 2799DPPC   GL155275  12.924  -8.104  21.924 -0.2486  0.1897  0.2795
 2799DPPC   GL255276  12.642  -7.943  21.834  0.0119 -0.0326  0.2076
 2799DPPC   C1A55277  13.124  -7.680  22.065  0.2885 -0.1271  0.0376
 2799DPPC   C2A55278  13.550  -7.629  22.140 -0.0070 -0.2241  0.1510
 2799DPPC   C3A55279  14.031  -7.465  21.948 -0.1702 -0.1409  0.2080
 2799DPPC   C4A55280  14.259  -7.078  22.119  0.1439 -0.0185 -0.3102
 2799DPPC   C1B55281  12.832  -7.652  21.551  0.0679 -0.3124 -0.1473
 2799DPPC   C2B55282  13.101  -7.312  21.334  0.1931 -0.0354  0.2873
 2799DPPC   C3B55283  13.228  -6.937  21.115  0.0095 -0.2959  0.3740
 2799DPPC   C4B55284  13.599  -6.789  20.932 -0.0416 -0.0286 -0.0702
 2800DPPC   NC355285   5.362   7.500  19.237  0.0624 -0.3260 -0.0235
 2800DPPC   PO455286   5.431   7.951  19.550  0.1370  0.3060 -0.0769
 2800DPPC   GL155287   5.855   7.837  19.810  0.1741 -0.0306 -0.0550
 2800DPPC   GL255288   5.844   8.195  19.908 -0.4299  0.1212 -0.1553
 2800DPPC   C1A55289   6.231   7.782  19.975  0.0503  0.0161 -0.2056
 2800DPPC   C2A55290   6.312   7.523  20.343 -0.3255  0.1682 -0.0794
 2800DPPC   C3A55291   6.676   7.391  20.603  0.2644 -0.2654  0.2157
 2800DPPC   C4A55292   7.111   7.197  20.602 -0.2158  0.2003  0.2326
 2800DPPC   C1B55293   6.022   8.216  20.308 -0.0272  0.1822  0.3721
 2800DPPC   C2B55294   6.389   8.293  20.561 -0.3540 -0.0020 -0.5432
 2800DPPC   C3B55295   6.754   7.916  20.659  0.1794 -0.4250  0.1154
 2800DPPC   C4B55296   7.074   7.643  20.356  0.0554 -0.4004 -0.2150
 2801DPPC   NC355297  18.740  15.757  28.022  0.0977 -0.0304 -0.1973
 2801DPPC   PO455298  19.163  15.668  28.197 -0.1353 -0.1377 -0.0180
 2801DPPC   GL155299  18.974  15.289  27.975  0.0647  0.1342 -0.0908
 2801DPPC   GL255300  18.803  15.263  27.766 -0.0940 -0.0259  0.3227
 2801DPPC   C1A55301  18.956  14.788  27.904 -0.2357 -0.0388 -0.0021
 2801DPPC   C2A55302  18.823  14.407  28.118  0.0552 -0.2777 -0.0386
 2801DPPC   C3A55303  18.915  14.006  28.076 -0.2309  0.1153 -0.4308
 2801DPPC   C4A55304  19.037  13.627  28.200 -0.0653 -0.3696 -0.0857
 2801DPPC   C1B55305  18.576  15.055  27.553 -0.0592  0.4265 -0.2856
 2801DPPC   C2B55306  18.626  14.652  27.452  0.0293  0.2460  0.3054
 2801DPPC   C3B55307  18.850  14.274  27.086  0.1659  0.0050 -0.3233
 2801DPPC   C4B55308  19.141  14.358  26.866 -0.1001 -0.1384  0.2580
 2802DPPC   NC355309  18.727  11.690  24.239  0.0371  0.2056 -0.0731
 2802DPPC   PO455310  18.566  11.562  23.854  0.1245 -0.0421 -0.0157
 2802DPPC   GL155311  18.538  12.035  23.723 -0.1642  0.2315 -0.1681
 2802DPPC   GL255312  18.259  12.044  23.385 -0.0187 -0.0238 -0.0737
 2802DPPC   C1A55313  18.428  12.485  23.590  0.0742  0.0421 -0.2517
 2802DPPC   C2A55314  18.586  12.887  23.705  0.2222  0.0727 -0.0523
 2802DPPC   C3A55315  18.524  13.382  23.654  0.2062 -0.0877 -0.1281
 2802DPPC   C4A55316  18.843  13.778  23.562 -0.0052  0.0041 -0.2246
 2802DPPC   C1B55317  18.341  12.456  23.126 -0.2376  0.1732  0.1815
 2802DPPC   C2B55318  18.337  12.839  23.293 -0.1231  0.0465  0.1301
 2802DPPC   C3B55319  18.205  13.174  23.098 -0.1044 -0.2996 -0.1393
 2802DPPC   C4B55320  18.213  13.526  22.947  0.1584  0.1411 -0.0493
 2803DPPC   NC355321  23.443   1.482  21.069 -0.2452  0.0772 -0.0654
 2803DPPC   PO455322  23.402   1.702  20.662  0.0736 -0.1373 -0.1299
 2803DPPC   GL155323  23.832   1.529  20.742  0.3439  0.3410 -0.2505
 2803DPPC   GL255324  23.896   1.332  20.478  0.3252 -0.1840 -0.0921
 2803DPPC   C1A55325  24.228   1.647  20.689 -0.4659  0.5435 -0.2058
 2803DPPC   C2A55326  24.676   1.550  20.548  0.0172 -0.0529 -0.0089
 2803DPPC   C3A55327  25.058   1.352  20.812 -0.0720 -0.3402 -0.0756
 2803DPPC   C4A55328  25.532   1.354  20.782  0.1193 -0.0380 -0.0728
 2803DPPC   C1B55329  24.103   1.059  20.273 -0.1817 -0.0689  0.3189
 2803DPPC   C2B55330  24.217   0.730  20.049 -0.0393 -0.0272  0.0353
 2803DPPC   C3B55331  24.234   0.314  19.755  0.0405 -0.1599 -0.2119
 2803DPPC   C4B55332  24.559   0.337  19.439 -0.2794  0.3764 -0.3784
 2804DPPC   NC355333  14.504  15.011  32.275 -0.3275 -0.0945 -0.1736
 2804DPPC   PO455334  14.616  15.149  31.986  0.0291  0.0592  0.0280
 2804DPPC   GL155335  14.565  14.860  31.630 -0.1500 -0.1155  0.1623
 2804DPPC   GL255336  14.636  14.592  31.946 -0.0521 -0.1277 -0.1425
 2804DPPC   C1A55337  14.212  14.672  31.385  0.1570  0.0926  0.1477
 2804DPPC   C2A55338  14.043  14.381  31.017 -0.0844  0.2136  0.1327
 2804DPPC   C3A55339  14.317  14.329  30.718 -0.2905 -0.0726  0.2948
 2804DPPC   C4A55340  14.666  14.218  30.550 -0.1740 -0.0132  0.5781
 2804DPPC   C1B55341  14.470  14.327  31.680  0.4737 -0.3327  0.1734
 2804DPPC   C2B55342  14.401  13.840  31.592 -0.0385 -0.2208 -0.0878
 2804DPPC   C3B55343  14.332  13.486  31.338  0.3997  0.0979 -0.0439
 2804DPPC   C4B55344  14.521  13.143  31.171  0.1077  0.0541 -0.1328
 2805DPPC   NC355345   9.721  10.453  26.383 -0.2700 -0.2095 -0.0342
 2805DPPC   PO455346   9.708  10.602  26.756 -0.0396 -0.2604 -0.1076
 2805DPPC   GL155347   9.396  10.804  26.509  0.2621  0.1410  0.0141
 2805DPPC   GL255348   9.443  10.890  26.216 -0.1551 -0.0625 -0.0223
 2805DPPC   C1A55349   9.070  11.169  26.564  0.4274  0.2466  0.2516
 2805DPPC   C2A55350   8.877  11.466  26.275 -0.4734 -0.2289 -0.0198
 2805DPPC   C3A55351   8.610  11.498  25.919  0.0571 -0.1502  0.1202
 2805DPPC   C4A55352   8.225  11.634  25.709  0.1544  0.1296 -0.0092
 2805DPPC   C1B55353   9.013  10.897  26.223  0.1379 -0.0290 -0.1897
 2805DPPC   C2B55354   8.479  11.021  26.113  0.0240  0.1892  0.1834
 2805DPPC   C3B55355   8.034  11.170  26.013 -0.1237 -0.0174 -0.3382
 2805DPPC   C4B55356   7.665  11.140  26.012  0.1249  0.3250 -0.2764
 2806DPPC   NC355357  18.277  11.146  29.060  0.0768  0.1404 -0.3577
 2806DPPC   PO455358  18.590  11.454  29.188 -0.1839  0.4117 -0.3091
 2806DPPC   GL155359  18.689  11.955  29.284  0.0168  0.1232  0.0568
 2806DPPC   GL255360  18.614  11.977  29.601 -0.5293 -0.1834 -0.1035
 2806DPPC   C1A55361  19.007  12.257  29.252 -0.1052 -0.1485  0.3269
 2806DPPC   C2A55362  19.083  12.658  29.414 -0.1547  0.0244  0.3081
 2806DPPC   C3A55363  18.883  12.858  29.623 -0.0342 -0.2214 -0.1533
 2806DPPC   C4A55364  18.768  13.295  29.764  0.0396  0.0779 -0.3028
 2806DPPC   C1B55365  18.724  12.343  29.872  0.2084  0.0738  0.1984
 2806DPPC   C2B55366  18.496  12.730  29.926  0.1748 -0.0223  0.0541
 2806DPPC   C3B55367  18.166  12.803  30.133  0.0523  0.0121 -0.0057
 2806DPPC   C4B55368  17.686  12.823  30.179  0.0210  0.0618 -0.1116
 2807DPPC   NC355369  17.868   5.608  38.062  0.3755 -0.2076  0.4788
 2807DPPC   PO455370  17.949   6.025  37.887 -0.0186  0.3425 -0.0978
 2807DPPC   GL155371  18.003   5.948  37.400  0.1060  0.2241 -0.0656
 2807DPPC   GL255372  17.707   6.206  37.341  0.2304 -0.1144 -0.2805
 2807DPPC   C1A55373  17.965   5.551  37.114  0.4165 -0.2221  0.1050
 2807DPPC   C2A55374  17.980   5.146  36.919  0.3924 -0.0240 -0.0945
 2807DPPC   C3A55375  18.057   5.066  36.466 -0.1751 -0.0220  0.1367
 2807DPPC   C4A55376  18.284   4.804  36.295  0.1065 -0.2339 -0.3085
 2807DPPC   C1B55377  17.532   5.895  37.115 -0.0612 -0.0763 -0.0292
 2807DPPC   C2B55378  17.268   5.897  36.693 -0.5001 -0.3104  0.3606
 2807DPPC   C3B55379  17.104   5.783  36.238 -0.4023  0.0565  0.1374
 2807DPPC   C4B55380  16.754   6.021  36.074 -0.0557  0.0453  0.1524
 2808DPPC   NC355381  12.567  -2.315  18.330  0.0262 -0.3193  0.0613
 2808DPPC   PO455382  12.959  -2.483  18.683  0.2253  0.0487  0.3517
 2808DPPC   GL155383  13.017  -2.681  18.301 -0.0017 -0.1652  0.2700
 2808DPPC   GL255384  12.949  -2.460  18.033  0.2425 -0.2466  0.1436
 2808DPPC   C1A55385  13.136  -3.007  18.061 -0.1690  0.0273  0.0674
 2808DPPC   C2A55386  13.132  -3.366  17.965 -0.2355 -0.0452  0.1165
 2808DPPC   C3A55387  12.842  -3.731  17.921 -0.3662 -0.1682 -0.0650
 2808DPPC   C4A55388  12.747  -4.126  17.755  0.2468  0.0221 -0.1104
 2808DPPC   C1B55389  12.917  -2.757  17.706 -0.1055  0.0853 -0.1324
 2808DPPC   C2B55390  12.562  -2.795  17.458  0.0449  0.0931 -0.1251
 2808DPPC   C3B55391  12.529  -2.895  17.111 -0.0179 -0.0121 -0.1454
 2808DPPC   C4B55392  12.579  -2.860  16.691 -0.2945  0.1649  0.1461
 2809DPPC   NC355393  21.674   1.248  31.210 -0.0351  0.4221  0.3049
 2809DPPC   PO455394  21.432   1.532  31.422 -0.0845 -0.3128  0.4022
 2809DPPC   GL155395  21.667   1.513  31.747 -0.1939  0.1054 -0.1300
 2809DPPC   GL255396  21.977   1.558  31.557  0.2145 -0.1153  0.1309
 2809DPPC   C1A55397  21.868   1.482  32.036 -0.1953  0.0091 -0.1037
 2809DPPC   C2A55398  22.244   1.550  32.267 -0.0792 -0.0611 -0.0942
 2809DPPC   C3A55399  22.683   1.556  32.290 -0.1498  0.2036 -0.0199
 2809DPPC   C4A55400  23.029   1.726  32.294 -0.1057 -0.0036  0.0047
 2809DPPC   C1B55401  22.333   1.409  31.780 -0.2026  0.1311 -0.0557
 2809DPPC   C2B55402  22.499   1.092  32.115  0.1072  0.0057 -0.2071
 2809DPPC   C3B55403  22.849   1.045  32.352 -0.1390  0.0627 -0.1215
 2809DPPC   C4B55404  23.224   1.279  32.551  0.0595 -0.0130  0.3855
 2810DPPC   NC355405  16.657  -3.161  27.761 -0.1248 -0.0548 -0.1804
 2810DPPC   PO455406  16.237  -3.140  28.048 -0.0087  0.2698  0.2196
 2810DPPC   GL155407  16.303  -3.466  28.412 -0.0770  0.0411 -0.0677
 2810DPPC   GL255408  16.320  -3.802  28.412  0.1610  0.1979  0.1716
 2810DPPC   C1A55409  16.296  -3.671  28.854  0.0325 -0.4944  0.1123
 2810DPPC   C2A55410  16.268  -4.018  29.072  0.3168 -0.0559 -0.0821
 2810DPPC   C3A55411  16.184  -4.336  29.373  0.0544  0.0523 -0.2707
 2810DPPC   C4A55412  15.920  -4.696  29.359 -0.2609  0.0715  0.1328
 2810DPPC   C1B55413  16.657  -4.116  28.525 -0.1191  0.4356 -0.2302
 2810DPPC   C2B55414  16.764  -4.464  28.785 -0.2856  0.2299  0.1677
 2810DPPC   C3B55415  16.724  -4.394  29.233  0.2899 -0.2068  0.1162
 2810DPPC   C4B55416  16.847  -4.525  29.613  0.2198  0.5105  0.0743
 2811DPPC   NC355417  13.122   9.521  31.021  0.0903  0.0664 -0.1586
 2811DPPC   PO455418  13.119   9.916  30.801 -0.1359  0.0382 -0.3839
 2811DPPC   GL155419  13.012  10.371  31.043 -0.2208  0.2150  0.1592
 2811DPPC   GL255420  12.689  10.552  31.068  0.1096  0.0580 -0.2062
 2811DPPC   C1A55421  13.092  10.834  31.262 -0.4568  0.0434  0.0926
 2811DPPC   C2A55422  12.912  11.032  31.672 -0.0360 -0.0949 -0.0852
 2811DPPC   C3A55423  12.620  11.125  31.778 -0.2149 -0.4518  0.0703
 2811DPPC   C4A55424  12.342  11.429  31.674  0.4432 -0.1694 -0.3617
 2811DPPC   C1B55425  12.601  10.936  31.301  0.0467  0.1200  0.2704
 2811DPPC   C2B55426  12.775  11.329  31.284  0.0794  0.1178 -0.0819
 2811DPPC   C3B55427  13.034  11.648  31.463  0.0180  0.0998  0.0487
 2811DPPC   C4B55428  13.251  11.815  31.721  0.1423  0.1903  0.1713
 2812DPPC   NC355429  14.283  -3.846  20.232 -0.0070 -0.0963 -0.0006
 2812DPPC   PO455430  14.266  -4.236  19.888 -0.0433  0.0680 -0.1363
 2812DPPC   GL155431  14.042  -4.535  19.798  0.1807  0.1173 -0.2650
 2812DPPC   GL255432  13.736  -4.488  19.945  0.3267  0.1438  0.0076
 2812DPPC   C1A55433  13.650  -4.624  19.437 -0.4927  0.2940  0.0892
 2812DPPC   C2A55434  13.294  -4.795  19.457  0.4053 -0.1998 -0.2713
 2812DPPC   C3A55435  13.052  -4.987  19.071 -0.2360 -0.0947  0.4959
 2812DPPC   C4A55436  13.127  -5.016  18.639 -0.0567  0.1729 -0.1751
 2812DPPC   C1B55437  13.484  -4.811  19.959 -0.0399 -0.1472 -0.0735
 2812DPPC   C2B55438  13.177  -5.138  19.958 -0.2727 -0.1500  0.0132
 2812DPPC   C3B55439  12.729  -5.265  20.037  0.2692  0.1337  0.0581
 2812DPPC   C4B55440  12.205  -5.290  20.141  0.0663  0.1309 -0.1236
 2813DPPC   NC355441  16.809   8.401  33.020 -0.1791  0.3231 -0.3325
 2813DPPC   PO455442  17.138   8.770  32.943 -0.3144 -0.0164 -0.1933
 2813DPPC   GL155443  17.248   8.973  33.218 -0.0080 -0.0970 -0.0319
 2813DPPC   GL255444  17.050   9.124  33.483  0.0348 -0.1297 -0.5455
 2813DPPC   C1A55445  17.582   9.233  33.422 -0.0396  0.0952 -0.0236
 2813DPPC   C2A55446  17.887   9.268  33.787  0.0842  0.1350 -0.0372
 2813DPPC   C3A55447  17.901   8.900  34.033 -0.1583  0.3247  0.0397
 2813DPPC   C4A55448  18.175   8.628  34.184  0.2374 -0.0321 -0.0238
 2813DPPC   C1B55449  16.907   9.284  33.789 -0.1241  0.1514 -0.0752
 2813DPPC   C2B55450  16.793   9.595  33.995  0.0815  0.0830  0.0540
 2813DPPC   C3B55451  16.775   9.782  34.449  0.2656  0.0513 -0.3261
 2813DPPC   C4B55452  16.591   9.813  34.936  0.2654  0.1368  0.1523
 2814DPPC   NC355453  21.470  -2.277  23.219  0.0562 -0.1940  0.0684
 2814DPPC   PO455454  21.733  -2.232  23.530 -0.0166  0.2287 -0.0714
 2814DPPC   GL155455  21.982  -2.609  23.643  0.3104  0.0523 -0.2474
 2814DPPC   GL255456  22.183  -2.519  23.737  0.2059 -0.1033  0.2287
 2814DPPC   C1A55457  22.162  -3.097  23.545  0.1267  0.2177 -0.0505
 2814DPPC   C2A55458  22.474  -3.437  23.417  0.0181  0.1364 -0.0289
 2814DPPC   C3A55459  22.838  -3.607  23.530  0.0708  0.0356 -0.0936
 2814DPPC   C4A55460  23.233  -3.719  23.474 -0.1358 -0.0559  0.4023
 2814DPPC   C1B55461  22.129  -2.972  23.984 -0.0354 -0.0097 -0.2790
 2814DPPC   C2B55462  22.420  -3.253  24.000 -0.2754  0.3436  0.2308
 2814DPPC   C3B55463  22.748  -3.523  24.049 -0.2540 -0.2289  0.1663
 2814DPPC   C4B55464  23.067  -3.854  23.896 -0.1215 -0.1618 -0.3340
 2815DPPC   NC355465  14.307  10.154  20.319 -0.0851 -0.1306  0.2906
 2815DPPC   PO455466  14.548   9.927  20.088 -0.5977 -0.0310  0.0052
 2815DPPC   GL155467  14.232  10.027  19.696 -0.1259  0.0919 -0.1329
 2815DPPC   GL255468  14.372  10.242  19.374 -0.1787 -0.0185  0.1630
 2815DPPC   C1A55469  13.806  10.051  19.507 -0.0499 -0.1003  0.1270
 2815DPPC   C2A55470  13.489  10.374  19.428  0.3575 -0.1511 -0.1741
 2815DPPC   C3A55471  13.087  10.578  19.404 -0.1457  0.1402  0.0086
 2815DPPC   C4A55472  12.986  10.974  19.559 -0.1603 -0.2955  0.3262
 2815DPPC   C1B55473  14.224  10.672  19.512 -0.2344 -0.0874  0.2586
 2815DPPC   C2B55474  14.368  11.005  19.750 -0.0006 -0.0259 -0.0690
 2815DPPC   C3B55475  14.319  11.412  19.980  0.2596 -0.1852  0.2023
 2815DPPC   C4B55476  14.446  11.828  20.222 -0.0478  0.1328  0.3060
 2816DPPC   NC355477  17.435  11.884  35.962 -0.1477  0.0970  0.2709
 2816DPPC   PO455478  17.008  11.852  35.980  0.1167 -0.1165 -0.0415
 2816DPPC   GL155479  16.814  11.563  35.613 -0.1045  0.0596  0.2542
 2816DPPC   GL255480  16.929  11.260  35.553 -0.1091 -0.0617  0.0648
 2816DPPC   C1A55481  16.458  11.344  35.547  0.2597 -0.3390 -0.0411
 2816DPPC   C2A55482  16.137  11.100  35.307 -0.1517 -0.2937  0.3000
 2816DPPC   C3A55483  15.819  10.898  35.566 -0.5796  0.0223 -0.0125
 2816DPPC   C4A55484  15.505  10.695  35.931 -0.0588  0.0132 -0.3783
 2816DPPC   C1B55485  16.704  11.016  35.309  0.0799  0.1587  0.2452
 2816DPPC   C2B55486  16.581  10.590  35.469  0.0979  0.0494  0.0451
 2816DPPC   C3B55487  16.549  10.376  35.835  0.2378  0.4337 -0.1838
 2816DPPC   C4B55488  16.559  10.016  35.918  0.1361  0.1728 -0.0058
 2817DPPC   NC355489  16.339  -4.334  25.380  0.0877 -0.1249  0.3888
 2817DPPC   PO455490  16.260  -4.475  24.992 -0.1462  0.0968  0.1588
 2817DPPC   GL155491  16.242  -4.954  24.893  0.5558 -0.1398 -0.3005
 2817DPPC   GL255492  16.496  -4.962  25.167 -0.2044 -0.2641  0.1749
 2817DPPC   C1A55493  16.353  -5.432  24.850 -0.1017 -0.1485 -0.0073
 2817DPPC   C2A55494  16.243  -5.826  24.752  0.0289  0.1436 -0.0409
 2817DPPC   C3A55495  16.242  -6.153  25.027 -0.1744 -0.1293 -0.1191
 2817DPPC   C4A55496  16.298  -6.538  25.110 -0.1266  0.3311 -0.2913
 2817DPPC   C1B55497  16.710  -5.325  25.138  0.0900  0.1984  0.0596
 2817DPPC   C2B55498  16.640  -5.795  25.057 -0.1482  0.1043 -0.1877
 2817DPPC   C3B55499  16.715  -6.100  24.745  0.0682 -0.2033  0.0725
 2817DPPC   C4B55500  16.652  -6.381  24.374 -0.0826 -0.0467 -0.0249
 2818DPPC   NC355501  27.936  -0.509  28.192  0.2098  0.1022 -0.0123
 2818DPPC   PO455502  27.910  -0.781  28.544 -0.2089  0.1255 -0.3125
 2818DPPC   GL155503  27.580  -0.477  28.572  0.1441 -0.1165  0.1530
 2818DPPC   GL255504  27.393  -0.680  28.541  0.3541 -0.0290 -0.3117
 2818DPPC   C1A55505  27.446  -0.171  28.848 -0.3182 -0.0377  0.0263
 2818DPPC   C2A55506  27.511  -0.077  29.307  0.0543  0.0783 -0.2553
 2818DPPC   C3A55507  27.170   0.026  29.644  0.1701 -0.3606 -0.1914
 2818DPPC   C4A55508  27.139   0.444  29.902  0.0624 -0.1231  0.0676
 2818DPPC   C1B55509  27.111  -0.455  28.247 -0.0624 -0.1809  0.0163
 2818DPPC   C2B55510  26.638  -0.321  28.341 -0.3027 -0.0185  0.4541
 2818DPPC   C3B55511  26.305  -0.426  28.688 -0.0005  0.1650  0.1210
 2818DPPC   C4B55512  26.312  -0.490  29.184  0.3403  0.2276  0.0537
 2819DPPC   NC355513  25.286  -4.233  26.069 -0.3067  0.0682  0.4200
 2819DPPC   PO455514  25.318  -4.643  25.862  0.1879  0.0468 -0.0874
 2819DPPC   GL155515  24.867  -4.472  25.975 -0.0927  0.0550  0.0483
 2819DPPC   GL255516  24.891  -4.173  25.672 -0.1327 -0.0421 -0.1092
 2819DPPC   C1A55517  24.445  -4.232  26.060  0.0357 -0.1953  0.1084
 2819DPPC   C2A55518  24.254  -3.862  26.092  0.0676  0.1682  0.0143
 2819DPPC   C3A55519  23.853  -3.555  26.020 -0.3417 -0.3035  0.0139
 2819DPPC   C4A55520  23.425  -3.456  25.893  0.6320  0.3339  0.0113
 2819DPPC   C1B55521  24.459  -3.940  25.657  0.0279 -0.3898  0.2352
 2819DPPC   C2B55522  24.289  -3.579  25.648  0.3309 -0.1207  0.3465
 2819DPPC   C3B55523  24.242  -3.175  25.664  0.1259  0.2777  0.3301
 2819DPPC   C4B55524  24.024  -2.982  25.858  0.3334  0.0151  0.2361
 2820DPPC   NC355525  22.217   8.837  22.625 -0.2312 -0.0999  0.1387
 2820DPPC   PO455526  22.450   8.523  22.519 -0.2816 -0.2753 -0.1968
 2820DPPC   GL155527  22.604   8.837  22.272 -0.3106 -0.2529  0.2165
 2820DPPC   GL255528  22.694   8.972  22.552 -0.1938 -0.3114 -0.1286
 2820DPPC   C1A55529  23.093   8.954  22.186  0.0825  0.0344  0.0629
 2820DPPC   C2A55530  23.501   9.041  21.944  0.0864 -0.0997 -0.4253
 2820DPPC   C3A55531  23.598   9.340  21.674  0.1068 -0.0751  0.1301
 2820DPPC   C4A55532  23.907   9.665  21.541 -0.2281 -0.3110 -0.1171
 2820DPPC   C1B55533  22.885   9.423  22.357  0.0193 -0.3411  0.1759
 2820DPPC   C2B55534  23.078   9.894  22.254 -0.1010  0.2510 -0.2614
 2820DPPC   C3B55535  23.092  10.264  22.036  0.0853  0.3367 -0.1056
 2820DPPC   C4B55536  22.910  10.293  21.634 -0.0112 -0.1433 -0.2675
 2821DPPC   NC355537  12.452  -2.618  19.096 -0.1957  0.1201  0.1129
 2821DPPC   PO455538  12.277  -2.319  18.771 -0.1002  0.3332 -0.0012
 2821DPPC   GL155539  12.062  -2.568  18.385 -0.0592  0.1111 -0.2691
 2821DPPC   GL255540  12.272  -2.618  18.107 -0.1595  0.1909 -0.0487
 2821DPPC   C1A55541  11.832  -2.691  17.967  0.0825 -0.0141 -0.2011
 2821DPPC   C2A55542  11.515  -2.932  17.757 -0.0756  0.1180 -0.0993
 2821DPPC   C3A55543  11.213  -2.726  17.468  0.1438  0.1125  0.2143
 2821DPPC   C4A55544  11.308  -2.472  17.155 -0.2071 -0.2156 -0.0137
 2821DPPC   C1B55545  12.576  -2.912  18.051 -0.3703  0.1399  0.2941
 2821DPPC   C2B55546  12.638  -3.296  17.739 -0.2035 -0.0249  0.2002
 2821DPPC   C3B55547  12.861  -3.698  17.438  0.2078  0.0777 -0.0733
 2821DPPC   C4B55548  12.823  -4.093  17.259  0.1608  0.0715 -0.1559
 2822DPPC   NC355549  21.074   3.155  17.404  0.2291  0.1558  0.0593
 2822DPPC   PO455550  20.927   3.341  17.080  0.1716 -0.0112  0.2098
 2822DPPC   GL155551  21.142   3.194  16.745 -0.3283 -0.0420  0.0187
 2822DPPC   GL255552  21.088   3.465  16.556  0.1382  0.5689  0.0651
 2822DPPC   C1A55553  21.442   3.176  16.332 -0.2513  0.0575  0.3540
 2822DPPC   C2A55554  21.338   3.225  15.895  0.0747  0.0294  0.1852
 2822DPPC   C3A55555  21.534   3.266  15.492 -0.0600 -0.0210  0.1698
 2822DPPC   C4A55556  21.466   3.265  15.112 -0.1430  0.0436 -0.2108
 2822DPPC   C1B55557  21.072   3.578  16.170 -0.3285  0.1216  0.1460
 2822DPPC   C2B55558  20.848   3.370  15.908  0.1029  0.0210  0.1516
 2822DPPC   C3B55559  20.913   3.260  15.586 -0.3404  0.1013 -0.0999
 2822DPPC   C4B55560  21.106   2.966  15.325 -0.4114 -0.0455  0.0354
 2823DPPC   NC355561  14.470  -1.686  17.577 -0.1373 -0.0104 -0.0395
 2823DPPC   PO455562  14.875  -1.675  17.726 -0.0289 -0.0503  0.1081
 2823DPPC   GL155563  15.183  -1.794  17.558  0.3315 -0.4781 -0.0603
 2823DPPC   GL255564  15.330  -1.905  17.764 -0.1252 -0.0331  0.2117
 2823DPPC   C1A55565  15.300  -1.966  17.138  0.0303  0.1968  0.0904
 2823DPPC   C2A55566  15.138  -1.917  16.864 -0.2063 -0.0142  0.2194
 2823DPPC   C3A55567  15.193  -2.102  16.553  0.3673  0.3101 -0.2162
 2823DPPC   C4A55568  15.347  -2.232  16.169 -0.0490 -0.0013 -0.2898
 2823DPPC   C1B55569  15.531  -2.306  17.483 -0.0205  0.1800 -0.0727
 2823DPPC   C2B55570  15.568  -2.789  17.430  0.1660  0.0326  0.4778
 2823DPPC   C3B55571  15.885  -3.141  17.303 -0.0601  0.0464  0.2078
 2823DPPC   C4B55572  16.147  -3.418  17.132 -0.0510  0.1110  0.1154
 2824DPPC   NC355573   9.288   0.932  28.852 -0.3691 -0.1695  0.0544
 2824DPPC   PO455574   9.216   0.494  29.086 -0.0557 -0.0131  0.4148
 2824DPPC   GL155575   8.970   0.253  29.372  0.3659 -0.2851 -0.0873
 2824DPPC   GL255576   9.006   0.301  29.791  0.0436  0.0981 -0.3033
 2824DPPC   C1A55577   8.624   0.017  29.442 -0.1027  0.1562 -0.4500
 2824DPPC   C2A55578   8.279  -0.187  29.590 -0.0669  0.3219  0.1973
 2824DPPC   C3A55579   7.849  -0.396  29.406 -0.1771 -0.2782  0.0309
 2824DPPC   C4A55580   7.413  -0.381  29.165 -0.0200  0.0512  0.2005
 2824DPPC   C1B55581   8.479   0.254  29.839 -0.1112  0.0945  0.1653
 2824DPPC   C2B55582   8.074   0.190  30.019 -0.1271 -0.1163  0.1163
 2824DPPC   C3B55583   7.782   0.050  30.297  0.3024  0.1368  0.2610
 2824DPPC   C4B55584   7.399  -0.057  30.274 -0.1189  0.2284  0.0977
 2825DPPC   NC355585  10.288  -2.256  24.474 -0.2366  0.4244  0.0753
 2825DPPC   PO455586  10.520  -2.624  24.500  0.3337 -0.0728  0.0319
 2825DPPC   GL155587  10.250  -3.081  24.438  0.1213 -0.0217  0.3127
 2825DPPC   GL255588   9.950  -3.121  24.392  0.3002 -0.0061  0.1532
 2825DPPC   C1A55589  10.255  -3.525  24.212 -0.0325  0.1635 -0.2875
 2825DPPC   C2A55590  10.061  -3.865  24.207  0.1523 -0.0489  0.2175
 2825DPPC   C3A55591   9.851  -4.197  24.030  0.0955  0.1839 -0.3244
 2825DPPC   C4A55592   9.736  -4.385  23.677  0.3340 -0.1582 -0.0153
 2825DPPC   C1B55593   9.650  -3.349  24.277  0.1829  0.5559  0.0475
 2825DPPC   C2B55594   9.285  -3.490  23.977  0.1230 -0.1077  0.0462
 2825DPPC   C3B55595   9.007  -3.771  23.738 -0.2028 -0.1078  0.1273
 2825DPPC   C4B55596   8.636  -3.992  23.596  0.2518  0.0608 -0.0944
 2826DPPC   NC355597  10.761  -1.149  35.831  0.0965 -0.2542  0.0236
 2826DPPC   PO455598  10.645  -0.673  35.858 -0.2855 -0.1783 -0.2199
 2826DPPC   GL155599  10.807  -0.344  35.582  0.1557  0.3655 -0.1922
 2826DPPC   GL255600  10.738  -0.066  35.575  0.1809  0.2035 -0.0707
 2826DPPC   C1A55601  11.196  -0.191  35.483  0.2491  0.3575  0.0197
 2826DPPC   C2A55602  11.411   0.241  35.356 -0.1746 -0.2903  0.2065
 2826DPPC   C3A55603  11.798   0.431  35.487  0.2057 -0.1468 -0.0198
 2826DPPC   C4A55604  12.228   0.525  35.630  0.1671  0.0876  0.0748
 2826DPPC   C1B55605  10.801  -0.023  35.085 -0.1267  0.1048 -0.2902
 2826DPPC   C2B55606  11.244  -0.158  34.950  0.1553 -0.3391  0.0644
 2826DPPC   C3B55607  11.316  -0.237  34.558 -0.2152  0.2176  0.2163
 2826DPPC   C4B55608  11.197  -0.150  34.193 -0.1997  0.0694 -0.1753
 2827DPPC   NC355609  17.181  -1.627  20.606 -0.3265  0.1839 -0.1218
 2827DPPC   PO455610  17.094  -1.679  20.240 -0.2288  0.1575  0.1172
 2827DPPC   GL155611  17.366  -1.797  19.958  0.0986  0.2187 -0.2140
 2827DPPC   GL255612  17.253  -1.571  19.652  0.0184  0.0134  0.0871
 2827DPPC   C1A55613  17.796  -1.927  19.734  0.1545 -0.2937  0.1878
 2827DPPC   C2A55614  18.173  -2.151  19.906 -0.3872  0.2409  0.0659
 2827DPPC   C3A55615  18.212  -2.509  19.875 -0.3367 -0.3189 -0.1620
 2827DPPC   C4A55616  18.021  -2.840  20.006  0.1195  0.0931 -0.2178
 2827DPPC   C1B55617  17.192  -1.747  19.275 -0.0432 -0.0500 -0.4452
 2827DPPC   C2B55618  17.129  -1.772  18.896  0.0831 -0.0400 -0.3688
 2827DPPC   C3B55619  17.091  -1.801  18.556 -0.2118 -0.3427  0.1793
 2827DPPC   C4B55620  17.301  -1.525  18.310  0.2327 -0.1907  0.5159
 2828DPPC   NC355621  20.101  -7.802  24.402 -0.2339 -0.2764  0.2433
 2828DPPC   PO455622  20.350  -7.591  24.675  0.1630 -0.2242  0.1665
 2828DPPC   GL155623  20.016  -7.477  24.823  0.1758  0.2089  0.0494
 2828DPPC   GL255624  19.729  -7.542  24.725  0.3652 -0.0728  0.0482
 2828DPPC   C1A55625  19.691  -7.196  25.117 -0.1844 -0.0562  0.1604
 2828DPPC   C2A55626  19.237  -7.129  25.071 -0.1042 -0.1398 -0.0642
 2828DPPC   C3A55627  19.019  -6.715  24.953  0.0617  0.1015 -0.1642
 2828DPPC   C4A55628  18.700  -6.307  25.066 -0.2296 -0.0228  0.1719
 2828DPPC   C1B55629  19.634  -7.119  24.641 -0.0064 -0.1266  0.0616
 2828DPPC   C2B55630  19.317  -6.720  24.542 -0.0321  0.1058 -0.1043
 2828DPPC   C3B55631  19.133  -6.322  24.414  0.0500 -0.3257 -0.5289
 2828DPPC   C4B55632  18.894  -6.063  24.502 -0.1003  0.1914  0.1015
 2829DPPC   NC355633  13.416  12.536  26.815 -0.0235 -0.2449 -0.0637
 2829DPPC   PO455634  13.305  12.354  26.411  0.1913 -0.0476  0.0014
 2829DPPC   GL155635  13.428  12.831  26.311 -0.2388  0.0648 -0.1155
 2829DPPC   GL255636  13.441  13.002  26.553  0.4194  0.3575  0.1284
 2829DPPC   C1A55637  13.197  13.191  26.192 -0.2204  0.3352  0.0994
 2829DPPC   C2A55638  12.969  13.703  26.244  0.3307  0.1666 -0.1730
 2829DPPC   C3A55639  12.677  14.089  26.326  0.2691 -0.1001  0.0344
 2829DPPC   C4A55640  12.677  14.496  26.210  0.0358 -0.2932 -0.0435
 2829DPPC   C1B55641  13.383  13.462  26.557  0.1758  0.0119  0.4245
 2829DPPC   C2B55642  13.389  13.849  26.431 -0.0266  0.2051 -0.1573
 2829DPPC   C3B55643  13.759  13.959  26.200 -0.0352  0.1994 -0.2813
 2829DPPC   C4B55644  14.098  14.105  25.853 -0.3258 -0.0592  0.4091
 2830DPPC   NC355645  27.368   0.258  14.880  0.3534 -0.2232 -0.2126
 2830DPPC   PO455646  27.123  -0.044  15.077  0.2060 -0.1599  0.2668
 2830DPPC   GL155647  26.890  -0.336  15.137  0.1151 -0.0681 -0.1854
 2830DPPC   GL255648  26.637  -0.192  14.910  0.1392  0.1394 -0.0727
 2830DPPC   C1A55649  26.552  -0.367  15.506 -0.1954 -0.1104  0.1244
 2830DPPC   C2A55650  26.256  -0.596  15.565  0.1147 -0.2299 -0.2422
 2830DPPC   C3A55651  25.852  -0.853  15.539 -0.0298 -0.0613  0.0907
 2830DPPC   C4A55652  25.340  -0.973  15.504 -0.4201 -0.2984  0.1254
 2830DPPC   C1B55653  26.387  -0.118  14.614  0.2890 -0.1320 -0.1889
 2830DPPC   C2B55654  25.928  -0.222  14.497 -0.1535 -0.0211  0.1344
 2830DPPC   C3B55655  25.498  -0.106  14.449  0.2066  0.1333  0.2060
 2830DPPC   C4B55656  25.039  -0.033  14.357 -0.0180 -0.0450  0.1636
 2831DPPC   NC355657   7.526   3.639  20.992 -0.6426 -0.0220 -0.3116
 2831DPPC   PO455658   7.489   3.320  21.067 -0.6599 -0.2283  0.1308
 2831DPPC   GL155659   7.079   3.273  21.063 -0.0746  0.1632  0.0255
 2831DPPC   GL255660   6.939   3.580  20.970  0.2314 -0.0226 -0.2241
 2831DPPC   C1A55661   6.686   3.133  21.170 -0.0267  0.3597  0.1287
 2831DPPC   C2A55662   6.237   3.136  21.113  0.1304 -0.2013  0.1919
 2831DPPC   C3A55663   6.020   3.185  20.626 -0.0168 -0.0462 -0.1158
 2831DPPC   C4A55664   5.934   2.901  20.289 -0.3063  0.1194  0.0624
 2831DPPC   C1B55665   6.788   3.618  21.351  0.0055  0.1752 -0.2969
 2831DPPC   C2B55666   6.291   3.467  21.439  0.2261 -0.4401 -0.2391
 2831DPPC   C3B55667   5.904   3.418  21.390 -0.2579  0.0744 -0.0381
 2831DPPC   C4B55668   5.496   3.458  21.618  0.0092 -0.0672 -0.3704
 2832DPPC   NC355669  18.435   3.159  32.940  0.0522 -0.4308 -0.0194
 2832DPPC   PO455670  18.099   3.151  33.232  0.0165  0.0088 -0.1632
 2832DPPC   GL155671  18.258   2.936  33.570 -0.1010 -0.3075  0.0721
 2832DPPC   GL255672  18.393   3.181  33.638  0.2874  0.1723 -0.5213
 2832DPPC   C1A55673  18.439   2.888  34.139 -0.1888 -0.0815 -0.0766
 2832DPPC   C2A55674  18.310   2.620  34.547  0.0075 -0.1777 -0.0845
 2832DPPC   C3A55675  18.113   2.544  34.961 -0.0534 -0.0536  0.1868
 2832DPPC   C4A55676  18.014   2.182  35.239 -0.1119 -0.1833 -0.1197
 2832DPPC   C1B55677  18.692   3.288  33.966  0.2048 -0.2827 -0.1116
 2832DPPC   C2B55678  18.933   3.049  34.306  0.0563  0.2354 -0.2095
 2832DPPC   C3B55679  18.792   2.671  34.441  0.2447 -0.1037 -0.0118
 2832DPPC   C4B55680  18.801   2.423  34.802 -0.1301  0.1805  0.2426
 2833DPPC   NC355681  15.658  -0.872  18.776 -0.1755 -0.0710 -0.0973
 2833DPPC   PO455682  15.898  -1.105  18.775  0.1463  0.1101  0.2369
 2833DPPC   GL155683  16.184  -1.406  18.589  0.2966 -0.1434 -0.2879
 2833DPPC   GL255684  16.131  -1.804  18.425 -0.1276  0.0597  0.1593
 2833DPPC   C1A55685  16.545  -1.604  18.274 -0.3203  0.0622  0.0968
 2833DPPC   C2A55686  16.821  -1.860  18.045 -0.1307  0.2672  0.1916
 2833DPPC   C3A55687  16.885  -2.235  17.802  0.1239  0.3182  0.2995
 2833DPPC   C4A55688  16.899  -2.559  17.462  0.4638 -0.3195 -0.2862
 2833DPPC   C1B55689  16.225  -1.736  17.938 -0.0630  0.0852  0.5599
 2833DPPC   C2B55690  16.273  -1.736  17.471 -0.1797 -0.0453  0.0667
 2833DPPC   C3B55691  16.445  -1.744  17.067  0.0128  0.0295 -0.4025
 2833DPPC   C4B55692  16.503  -1.505  16.610 -0.1267 -0.2022 -0.2394
 2834DPPC   NC355693   8.479   6.924  29.611 -0.0740 -0.0160 -0.0034
 2834DPPC   PO455694   8.246   7.287  29.483 -0.4207  0.0969  0.0265
 2834DPPC   GL155695   7.942   7.370  29.721 -0.1092 -0.0510  0.2230
 2834DPPC   GL255696   7.829   7.701  29.777  0.1947  0.2258  0.2508
 2834DPPC   C1A55697   7.475   7.336  29.874 -0.0502 -0.1287 -0.1854
 2834DPPC   C2A55698   7.197   7.446  30.147  0.2602  0.3389  0.4064
 2834DPPC   C3A55699   7.009   7.460  30.535 -0.2576 -0.2545 -0.2049
 2834DPPC   C4A55700   6.868   7.750  30.917  0.0375 -0.0366 -0.3980
 2834DPPC   C1B55701   7.582   8.069  29.865  0.2784  0.1268 -0.0497
 2834DPPC   C2B55702   7.724   8.218  30.196  0.1168  0.0448 -0.1063
 2834DPPC   C3B55703   7.747   8.397  30.589  0.3273 -0.0524  0.2010
 2834DPPC   C4B55704   7.311   8.408  30.550  0.0734 -0.1819  0.0345
 2835DPPC   NC355705   6.129  -4.594  24.566  0.0629  0.0853 -0.0158
 2835DPPC   PO455706   6.033  -4.192  24.472 -0.2414  0.0405 -0.0099
 2835DPPC   GL155707   6.391  -3.934  24.384 -0.1243 -0.2453 -0.0825
 2835DPPC   GL255708   6.637  -3.854  24.117  0.0816  0.1699 -0.1725
 2835DPPC   C1A55709   6.522  -3.442  24.487  0.1833  0.0053 -0.2148
 2835DPPC   C2A55710   6.535  -3.005  24.626 -0.0826 -0.1098 -0.1596
 2835DPPC   C3A55711   6.710  -2.583  24.737  0.0288  0.1312 -0.1487
 2835DPPC   C4A55712   6.618  -2.230  25.011  0.1425  0.0991 -0.0755
 2835DPPC   C1B55713   6.827  -3.937  23.710  0.1184 -0.1478  0.1986
 2835DPPC   C2B55714   7.080  -3.699  23.474 -0.2120 -0.3189 -0.3945
 2835DPPC   C3B55715   7.229  -3.310  23.629 -0.0164  0.2458 -0.2896
 2835DPPC   C4B55716   7.503  -3.263  23.987 -0.1122 -0.0923  0.0876
 2836DPPC   NC355717  10.977  13.877  19.671 -0.0619  0.1299  0.0280
 2836DPPC   PO455718  11.112  13.601  19.422 -0.0434  0.0425 -0.2956
 2836DPPC   GL155719  11.033  13.136  19.420 -0.0927  0.1950  0.0859
 2836DPPC   GL255720  10.927  13.032  19.799  0.1077 -0.0423 -0.2300
 2836DPPC   C1A55721  11.201  12.711  19.339  0.1071 -0.1092  0.4387
 2836DPPC   C2A55722  11.372  12.372  19.464 -0.1906  0.0765  0.0560
 2836DPPC   C3A55723  11.578  11.920  19.673 -0.0038 -0.2810 -0.5992
 2836DPPC   C4A55724  11.927  11.758  19.585 -0.0661 -0.2002 -0.2788
 2836DPPC   C1B55725  11.165  12.626  19.862 -0.3464  0.1859  0.2582
 2836DPPC   C2B55726  11.341  12.205  20.029  0.0403  0.1047 -0.1512
 2836DPPC   C3B55727  11.338  11.746  20.122 -0.0790 -0.1668  0.0012
 2836DPPC   C4B55728  11.593  11.436  19.786 -0.0548 -0.0669 -0.1113
 2837DPPC   NC355729  17.626  -2.092  30.433 -0.0258  0.0128 -0.0134
 2837DPPC   PO455730  18.013  -2.084  30.642 -0.0200 -0.0743  0.1441
 2837DPPC   GL155731  17.907  -2.528  30.495  0.2347  0.0513  0.0141
 2837DPPC   GL255732  17.609  -2.614  30.262 -0.1337  0.0553 -0.0537
 2837DPPC   C1A55733  17.969  -2.936  30.417  0.0488  0.3134 -0.0505
 2837DPPC   C2A55734  18.101  -3.364  30.349  0.1339 -0.2363 -0.2202
 2837DPPC   C3A55735  18.190  -3.697  30.126 -0.3222 -0.0245  0.2493
 2837DPPC   C4A55736  18.075  -4.042  29.949  0.0276 -0.0478  0.1630
 2837DPPC   C1B55737  17.568  -3.063  30.183  0.1642  0.1312  0.0077
 2837DPPC   C2B55738  17.552  -3.408  30.554 -0.0852  0.2346  0.0763
 2837DPPC   C3B55739  17.389  -3.795  30.672 -0.1356  0.0102  0.1157
 2837DPPC   C4B55740  17.096  -3.913  30.894  0.0905 -0.1804 -0.1386
 2838DPPC   NC355741  20.271   1.565  19.210  0.2256  0.0081  0.1489
 2838DPPC   PO455742  20.228   1.325  19.661 -0.4335  0.0549  0.3954
 2838DPPC   GL155743  20.210   0.962  19.258 -0.0347  0.0633  0.1186
 2838DPPC   GL255744  19.920   1.233  19.023 -0.0664 -0.2503  0.0588
 2838DPPC   C1A55745  20.179   0.563  19.092  0.1000 -0.0471 -0.2620
 2838DPPC   C2A55746  20.449   0.205  19.022 -0.0368  0.0937  0.0925
 2838DPPC   C3A55747  20.716  -0.026  19.316  0.1643  0.0485  0.1278
 2838DPPC   C4A55748  20.755   0.001  19.719  0.1436  0.0734  0.3672
 2838DPPC   C1B55749  19.899   0.891  18.825 -0.1985  0.0405 -0.1671
 2838DPPC   C2B55750  19.957   0.549  18.493 -0.1568  0.0603  0.1986
 2838DPPC   C3B55751  20.209   0.236  18.289 -0.0466 -0.0280  0.0383
 2838DPPC   C4B55752  20.402  -0.008  18.040 -0.1995 -0.2969  0.0961
 2839DPPC   NC355753  20.977  -7.359  11.951  0.3518  0.0203  0.1358
 2839DPPC   PO455754  20.600  -7.423  11.603 -0.1078  0.1171  0.2083
 2839DPPC   GL155755  20.476  -7.113  11.979  0.4050  0.0379 -0.1773
 2839DPPC   GL255756  20.617  -7.096  12.241 -0.0968  0.0934 -0.0400
 2839DPPC   C1A55757  20.103  -6.808  12.040  0.0753  0.0105 -0.0458
 2839DPPC   C2A55758  19.715  -6.511  12.231  0.0123 -0.0168  0.2246
 2839DPPC   C3A55759  19.614  -6.077  12.511  0.1684 -0.1554  0.2144
 2839DPPC   C4A55760  19.774  -5.849  12.809  0.0172  0.0563 -0.0999
 2839DPPC   C1B55761  20.458  -6.835  12.403  0.3860  0.0734 -0.1044
 2839DPPC   C2B55762  20.057  -6.674  12.626 -0.0283 -0.0363 -0.0034
 2839DPPC   C3B55763  20.023  -6.300  12.982  0.1398 -0.0320 -0.2489
 2839DPPC   C4B55764  20.226  -6.238  13.375  0.1318  0.1653  0.5290
 2840DPPC   NC355765  10.200   1.340  31.254 -0.2618  0.2704 -0.1768
 2840DPPC   PO455766  10.069   1.146  30.826 -0.2714 -0.0325  0.0528
 2840DPPC   GL155767   9.827   0.999  31.107 -0.0923 -0.1569  0.1613
 2840DPPC   GL255768   9.433   1.126  31.119  0.0218  0.2495  0.1023
 2840DPPC   C1A55769   9.628   1.029  31.522  0.2041  0.2669 -0.0361
 2840DPPC   C2A55770   9.303   0.778  31.677 -0.0670  0.0762  0.2258
 2840DPPC   C3A55771   8.913   0.819  31.750 -0.1893  0.2043  0.4410
 2840DPPC   C4A55772   8.539   0.800  31.974  0.2283 -0.0389 -0.1395
 2840DPPC   C1B55773   9.062   0.991  31.285  0.1535 -0.1468 -0.0554
 2840DPPC   C2B55774   8.772   0.756  31.254 -0.1081  0.2682 -0.1646
 2840DPPC   C3B55775   8.433   0.572  31.512  0.1741  0.1468  0.1761
 2840DPPC   C4B55776   8.034   0.408  31.591 -0.1323 -0.0184 -0.0123
 2841DPPC   NC355777   3.745   8.268  22.727  0.0277 -0.3596 -0.1597
 2841DPPC   PO455778   3.548   8.141  23.171 -0.0783  0.1985  0.0872
 2841DPPC   GL155779   4.021   8.262  23.244  0.1011  0.1196  0.0497
 2841DPPC   GL255780   4.089   8.334  23.507  0.0253  0.0735 -0.0099
 2841DPPC   C1A55781   4.480   8.309  23.017 -0.2173 -0.1307  0.0116
 2841DPPC   C2A55782   4.947   8.195  22.842  0.2770 -0.5003 -0.1287
 2841DPPC   C3A55783   5.204   7.865  22.703  0.1623  0.2210 -0.2239
 2841DPPC   C4A55784   5.539   7.607  22.707 -0.0427 -0.2213 -0.1140
 2841DPPC   C1B55785   4.501   8.056  23.563  0.0859  0.4711 -0.2325
 2841DPPC   C2B55786   4.999   7.972  23.662  0.3067 -0.0628 -0.0262
 2841DPPC   C3B55787   5.439   7.990  23.561  0.2404  0.2155 -0.2267
 2841DPPC   C4B55788   5.887   8.071  23.291 -0.0080 -0.2735 -0.0354
 2842DPPC   NC355789  19.340  10.199  30.250  0.1259 -0.0360  0.2295
 2842DPPC   PO455790  19.721  10.108  30.090  0.1832 -0.3152 -0.0202
 2842DPPC   GL155791  19.863  10.431  30.370 -0.0176 -0.0479  0.3644
 2842DPPC   GL255792  20.202  10.379  30.594  0.0144 -0.1307 -0.3297
 2842DPPC   C1A55793  19.813  10.765  30.603 -0.0383 -0.1351  0.1010
 2842DPPC   C2A55794  20.006  11.140  30.924 -0.0452 -0.0237 -0.0278
 2842DPPC   C3A55795  20.084  11.501  31.337 -0.1228  0.2066 -0.1914
 2842DPPC   C4A55796  20.372  11.814  31.412 -0.0064  0.0038  0.1193
 2842DPPC   C1B55797  20.388  10.836  30.697 -0.0413  0.2760  0.1143
 2842DPPC   C2B55798  20.714  11.150  30.559  0.0508 -0.1606 -0.0445
 2842DPPC   C3B55799  20.858  11.505  30.573  0.0747  0.0482  0.2224
 2842DPPC   C4B55800  21.123  11.847  30.573  0.0609  0.1607 -0.1692
 2843DPPC   NC355801  20.905  -1.875   9.201 -0.2447 -0.2550  0.2251
 2843DPPC   PO455802  20.790  -1.803   9.714 -0.2330 -0.0366  0.0385
 2843DPPC   GL155803  20.508  -2.028  10.052 -0.1143  0.0750 -0.1811
 2843DPPC   GL255804  20.330  -1.834  10.179 -0.1900 -0.3361  0.1002
 2843DPPC   C1A55805  20.654  -2.205  10.462 -0.0548 -0.0433  0.0073
 2843DPPC   C2A55806  20.562  -1.935  10.840  0.2049  0.0108 -0.1918
 2843DPPC   C3A55807  20.399  -2.001  11.098  0.1659 -0.3107 -0.2114
 2843DPPC   C4A55808  20.241  -2.153  11.439 -0.0078 -0.3798  0.0381
 2843DPPC   C1B55809  20.067  -1.969  10.460  0.3067  0.1021 -0.1005
 2843DPPC   C2B55810  19.946  -1.887  10.805 -0.1543  0.1001 -0.2398
 2843DPPC   C3B55811  19.886  -1.886  11.255  0.0522  0.1731 -0.1104
 2843DPPC   C4B55812  19.834  -1.799  11.667  0.0448  0.4640 -0.0019
 2844DPPC   NC355813  10.836  -3.010  24.639 -0.0441 -0.0855  0.0807
 2844DPPC   PO455814  10.840  -3.065  25.101  0.3732  0.1415 -0.1341
 2844DPPC   GL155815  10.583  -3.347  24.888  0.2477  0.2244 -0.1627
 2844DPPC   GL255816  10.665  -3.688  25.042  0.0190 -0.4119 -0.0514
 2844DPPC   C1A55817  10.344  -3.637  24.649 -0.2955 -0.0485 -0.1597
 2844DPPC   C2A55818  10.060  -4.024  24.642 -0.0524 -0.0229 -0.0306
 2844DPPC   C3A55819   9.896  -4.469  24.450 -0.2177  0.0497  0.0634
 2844DPPC   C4A55820   9.612  -4.732  24.102  0.0412  0.0339  0.1495
 2844DPPC   C1B55821  10.608  -4.127  25.099 -0.1490  0.0785 -0.2372
 2844DPPC   C2B55822  10.271  -4.316  25.230  0.0868 -0.2889 -0.0686
 2844DPPC   C3B55823  10.027  -4.551  24.956  0.1972  0.0265 -0.0259
 2844DPPC   C4B55824   9.941  -4.999  24.939 -0.2152  0.0276 -0.1328
 2845DPPC   NC355825   8.134   3.691  29.123  0.2019  0.0287  0.3051
 2845DPPC   PO455826   8.188   4.151  29.005  0.2850  0.0431  0.2477
 2845DPPC   GL155827   7.761   4.169  29.254 -0.0498  0.1422  0.1100
 2845DPPC   GL255828   7.587   4.528  29.099  0.3195 -0.0796  0.0479
 2845DPPC   C1A55829   7.367   4.146  29.502 -0.0876 -0.0298 -0.3384
 2845DPPC   C2A55830   7.151   4.091  29.877  0.1355 -0.0104 -0.2579
 2845DPPC   C3A55831   6.923   4.104  30.241 -0.1572 -0.0475  0.2651
 2845DPPC   C4A55832   6.484   3.982  30.448  0.1138  0.0146 -0.1527
 2845DPPC   C1B55833   7.158   4.371  29.106 -0.2250  0.0002  0.0096
 2845DPPC   C2B55834   6.798   4.379  29.092 -0.0515 -0.0337 -0.1922
 2845DPPC   C3B55835   6.352   4.444  29.015 -0.1051 -0.1978 -0.1153
 2845DPPC   C4B55836   5.930   4.747  29.261  0.2400  0.2785  0.1275
 2846DPPC   NC355837   9.788   9.612  35.151 -0.0711  0.4315  0.0161
 2846DPPC   PO455838   9.707   9.986  34.984  0.2525  0.0551  0.0798
 2846DPPC   GL155839  10.014   9.783  34.743  0.1300  0.0467  0.4087
 2846DPPC   GL255840  10.012   9.520  34.747 -0.3028  0.2243 -0.2408
 2846DPPC   C1A55841  10.463   9.715  34.781  0.0167 -0.0196 -0.1676
 2846DPPC   C2A55842  10.814   9.843  34.539 -0.0543  0.1815  0.0094
 2846DPPC   C3A55843  11.048   9.900  34.184 -0.2192  0.0833 -0.2383
 2846DPPC   C4A55844  11.462  10.041  34.143 -0.0817  0.4844  0.1111
 2846DPPC   C1B55845  10.253   9.531  34.347 -0.2645  0.1886 -0.2756
 2846DPPC   C2B55846  10.305   9.341  33.916  0.1419 -0.2047  0.0846
 2846DPPC   C3B55847  10.351   9.455  33.530  0.0059  0.0009  0.2096
 2846DPPC   C4B55848  10.078   9.706  33.286  0.1442 -0.0587 -0.0300
 2847DPPC   NC355849   9.631  12.845  18.303  0.2208 -0.1314  0.1674
 2847DPPC   PO455850   9.814  12.532  18.530 -0.1647  0.0688  0.1734
 2847DPPC   GL155851   9.764  12.233  18.822  0.0251 -0.5279 -0.3407
 2847DPPC   GL255852   9.726  12.362  19.110  0.0523 -0.1822  0.1456
 2847DPPC   C1A55853   9.576  11.892  19.096  0.3155 -0.0371 -0.1780
 2847DPPC   C2A55854   9.353  11.593  19.409  0.2619 -0.2115  0.1903
 2847DPPC   C3A55855   9.237  11.236  19.441  0.2257 -0.0975 -0.0035
 2847DPPC   C4A55856   9.335  10.821  19.352 -0.2333  0.0225 -0.0045
 2847DPPC   C1B55857   9.969  11.968  19.327 -0.1658  0.1879  0.0763
 2847DPPC   C2B55858  10.382  11.949  19.511  0.1661 -0.4701  0.0711
 2847DPPC   C3B55859  10.543  11.729  19.814  0.0055 -0.2438 -0.3213
 2847DPPC   C4B55860  10.614  11.304  19.880 -0.3858  0.1860 -0.0889
 2848DPPC   NC355861  15.577  12.202  28.756 -0.0339  0.3259 -0.4094
 2848DPPC   PO455862  15.458  12.547  28.423 -0.0825 -0.0750  0.3185
 2848DPPC   GL155863  15.310  12.884  28.579 -0.3561 -0.1217 -0.3299
 2848DPPC   GL255864  14.915  13.050  28.620 -0.0683  0.0756 -0.4547
 2848DPPC   C1A55865  15.294  13.329  28.449 -0.2914 -0.0932  0.0700
 2848DPPC   C2A55866  15.144  13.750  28.335  0.0828 -0.0829  0.2098
 2848DPPC   C3A55867  14.909  14.177  28.362  0.3818 -0.1318  0.3259
 2848DPPC   C4A55868  14.833  14.526  28.198 -0.1585 -0.1939 -0.0386
 2848DPPC   C1B55869  14.706  13.362  28.411 -0.1897 -0.0059  0.1904
 2848DPPC   C2B55870  14.618  13.789  28.536 -0.1258 -0.1728 -0.2101
 2848DPPC   C3B55871  14.484  14.030  28.889  0.0775 -0.5169  0.0408
 2848DPPC   C4B55872  14.127  14.345  29.038  0.1016 -0.0082 -0.1622
 2849DPPC   NC355873  18.068   6.793  33.738  0.0636 -0.2951  0.2637
 2849DPPC   PO455874  18.381   6.570  33.541 -0.1427  0.0976 -0.2232
 2849DPPC   GL155875  18.805   6.669  33.695  0.0427 -0.2689  0.1153
 2849DPPC   GL255876  18.826   6.448  33.888 -0.1115 -0.2565 -0.1299
 2849DPPC   C1A55877  19.077   6.769  34.113 -0.4422  0.3736 -0.0086
 2849DPPC   C2A55878  19.404   6.754  34.358  0.0583  0.1737 -0.0895
 2849DPPC   C3A55879  19.791   6.511  34.319 -0.0634  0.5546 -0.3723
 2849DPPC   C4A55880  19.787   6.269  33.898  0.2787  0.0891 -0.0500
 2849DPPC   C1B55881  18.802   6.465  34.354  0.0489  0.1000 -0.1549
 2849DPPC   C2B55882  18.889   6.771  34.647  0.2709 -0.0234 -0.3774
 2849DPPC   C3B55883  18.567   7.085  34.868 -0.1330  0.0034 -0.1819
 2849DPPC   C4B55884  18.155   7.086  34.933  0.3184  0.2082  0.0897
 2850DPPC   NC355885  13.815   6.610  38.080  0.1793  0.0111  0.0461
 2850DPPC   PO455886  13.948   6.490  37.629 -0.0441 -0.1007  0.1239
 2850DPPC   GL155887  14.104   6.430  37.206  0.0035 -0.1436 -0.2137
 2850DPPC   GL255888  13.915   6.320  36.968 -0.3220 -0.1177 -0.0128
 2850DPPC   C1A55889  14.492   6.584  36.959  0.1008  0.2927 -0.0893
 2850DPPC   C2A55890  14.675   6.728  36.745  0.0779 -0.1695 -0.0314
 2850DPPC   C3A55891  14.711   6.893  36.336 -0.1863  0.4249  0.1550
 2850DPPC   C4A55892  15.061   6.963  36.033 -0.0556  0.0304 -0.0730
 2850DPPC   C1B55893  13.792   6.413  36.533 -0.0076 -0.1246 -0.0029
 2850DPPC   C2B55894  13.755   6.327  36.130  0.1516 -0.1986 -0.1165
 2850DPPC   C3B55895  13.505   6.091  35.814 -0.0099  0.0809  0.2286
 2850DPPC   C4B55896  13.485   6.021  35.430 -0.2418  0.0580 -0.1108
 2851DPPC   NC355897  25.475  12.195  22.963 -0.0510  0.2006  0.1343
 2851DPPC   PO455898  25.164  12.548  23.033 -0.1494 -0.1073 -0.1161
 2851DPPC   GL155899  24.679  12.451  23.003  0.0174 -0.1969  0.0303
 2851DPPC   GL255900  24.487  12.594  23.204  0.2362  0.2166  0.1421
 2851DPPC   C1A55901  24.481  12.081  22.967  0.1460  0.0595 -0.0308
 2851DPPC   C2A55902  24.131  11.825  23.041 -0.0923  0.0307 -0.1192
 2851DPPC   C3A55903  23.902  11.358  23.219  0.1716  0.1637  0.1971
 2851DPPC   C4A55904  23.677  11.110  23.548  0.1157  0.0538  0.0419
 2851DPPC   C1B55905  24.156  12.373  23.410  0.1034 -0.0362  0.1483
 2851DPPC   C2B55906  23.720  12.567  23.366  0.4766 -0.1667 -0.3367
 2851DPPC   C3B55907  23.310  12.746  23.569  0.1631 -0.1454 -0.0390
 2851DPPC   C4B55908  23.164  13.146  23.879 -0.0432  0.3605 -0.0174
 2852DPPC   NC355909  28.609   1.693  21.237 -0.1460  0.2080  0.1766
 2852DPPC   PO455910  28.493   1.362  20.911 -0.0710 -0.0038 -0.1714
 2852DPPC   GL155911  28.314   1.736  20.844 -0.0542  0.1037 -0.2861
 2852DPPC   GL255912  28.212   2.095  20.952 -0.0047  0.1610  0.1098
 2852DPPC   C1A55913  27.892   1.853  20.675 -0.0573 -0.0263 -0.2369
 2852DPPC   C2A55914  27.583   2.129  20.521 -0.2816  0.0728 -0.0344
 2852DPPC   C3A55915  27.394   1.980  20.206  0.1006  0.0999 -0.3533
 2852DPPC   C4A55916  27.089   1.732  20.243 -0.0117  0.3136 -0.1159
 2852DPPC   C1B55917  27.881   1.873  21.203  0.0735 -0.2202  0.2954
 2852DPPC   C2B55918  27.731   1.440  21.156 -0.3316 -0.2618 -0.1010
 2852DPPC   C3B55919  27.390   1.222  21.396 -0.2143 -0.3680  0.1743
 2852DPPC   C4B55920  27.318   1.129  21.765  0.3869 -0.1012  0.0930
 2853DPPC   NC355921  22.303  10.927  17.437 -0.3835  0.0908 -0.1570
 2853DPPC   PO455922  21.928  11.292  17.612 -0.5087  0.3439 -0.0065
 2853DPPC   GL155923  22.080  11.118  18.048  0.0928  0.0425 -0.3670
 2853DPPC   GL255924  22.075  11.316  18.223 -0.2961  0.1220 -0.1663
 2853DPPC   C1A55925  22.085  10.937  18.543  0.3937  0.0017 -0.1497
 2853DPPC   C2A55926  21.988  10.654  18.954  0.1866 -0.0555  0.0804
 2853DPPC   C3A55927  21.606  10.466  19.216 -0.4355  0.0192  0.0545
 2853DPPC   C4A55928  21.647   9.964  19.266  0.0382  0.2111 -0.0527
 2853DPPC   C1B55929  21.581  11.392  18.257 -0.0368  0.3342 -0.2913
 2853DPPC   C2B55930  21.127  11.565  18.392  0.1117 -0.2670  0.2636
 2853DPPC   C3B55931  20.935  11.663  18.802 -0.0890  0.1404 -0.1350
 2853DPPC   C4B55932  20.484  11.498  19.039 -0.1355 -0.2332 -0.0044
 2854DPPC   NC355933  24.008   3.446  22.464  0.1756  0.2628 -0.0745
 2854DPPC   PO455934  24.089   3.297  22.096  0.2497 -0.1587 -0.2455
 2854DPPC   GL155935  24.528   3.359  22.106 -0.1501  0.2425  0.0753
 2854DPPC   GL255936  24.496   3.143  21.860  0.1096  0.1338  0.1061
 2854DPPC   C1A55937  25.014   3.279  22.107 -0.0739  0.1593 -0.0855
 2854DPPC   C2A55938  25.379   3.392  22.307 -0.1163 -0.3189 -0.0602
 2854DPPC   C3A55939  25.876   3.413  22.345 -0.1521  0.1063 -0.0525
 2854DPPC   C4A55940  26.259   3.154  22.583  0.0661  0.1213 -0.0052
 2854DPPC   C1B55941  24.853   3.009  21.658  0.1456 -0.0738 -0.1749
 2854DPPC   C2B55942  25.181   3.080  21.483 -0.0097 -0.0323 -0.1932
 2854DPPC   C3B55943  25.629   3.138  21.258 -0.0581  0.2992  0.0663
 2854DPPC   C4B55944  26.013   3.298  21.323 -0.3164  0.0018  0.2449
 2855DPPC   NC355945  10.665  11.386  29.432 -0.1378 -0.0768  0.1303
 2855DPPC   PO455946  10.268  11.248  29.474 -0.0935 -0.0903  0.3492
 2855DPPC   GL155947  10.063  11.563  29.657 -0.1534 -0.0093  0.4399
 2855DPPC   GL255948  10.157  11.537  29.950 -0.4488 -0.1632  0.1872
 2855DPPC   C1A55949  10.149  11.956  29.562 -0.0277 -0.2881  0.3217
 2855DPPC   C2A55950  10.019  12.270  29.245  0.0968  0.0252 -0.0010
 2855DPPC   C3A55951   9.714  12.479  29.033 -0.1705  0.3975 -0.0018
 2855DPPC   C4A55952   9.348  12.291  28.751 -0.0268 -0.2884  0.1812
 2855DPPC   C1B55953  10.166  12.054  30.064  0.2087  0.0786 -0.0576
 2855DPPC   C2B55954  10.245  12.310  30.373 -0.1164 -0.0203  0.0650
 2855DPPC   C3B55955  10.374  12.580  30.669 -0.4248 -0.1696 -0.1582
 2855DPPC   C4B55956  10.615  12.502  31.095 -0.3996 -0.1075  0.1197
 2856DPPC   NC355957   4.811   3.541  17.995 -0.0506 -0.0182 -0.0502
 2856DPPC   PO455958   5.056   3.067  17.912 -0.0861 -0.2590 -0.0276
 2856DPPC   GL155959   5.440   2.898  18.224 -0.2321 -0.1724 -0.0261
 2856DPPC   GL255960   5.630   3.158  18.113  0.0280 -0.3731 -0.0251
 2856DPPC   C1A55961   5.767   2.685  18.502  0.1326 -0.0226  0.4213
 2856DPPC   C2A55962   6.096   2.447  18.711 -0.2895  0.0057  0.1402
 2856DPPC   C3A55963   6.047   2.038  18.626  0.4489  0.3271 -0.2147
 2856DPPC   C4A55964   5.774   1.784  18.887 -0.0818  0.1974 -0.1475
 2856DPPC   C1B55965   5.843   3.170  18.588  0.0650 -0.1516  0.0559
 2856DPPC   C2B55966   6.010   2.860  18.928  0.0173 -0.1379  0.0933
 2856DPPC   C3B55967   6.460   2.690  18.903 -0.0005 -0.0661 -0.4038
 2856DPPC   C4B55968   6.792   2.666  19.115 -0.0779 -0.1279  0.0036
 2857DPPC   NC355969  10.200  -0.355  19.873 -0.1686  0.3202  0.4052
 2857DPPC   PO455970  10.425  -0.671  19.695  0.2218  0.5884 -0.0417
 2857DPPC   GL155971   9.971  -0.666  19.587  0.1059 -0.2039 -0.1754
 2857DPPC   GL255972   9.772  -0.856  19.696  0.3010  0.0573 -0.0810
 2857DPPC   C1A55973   9.669  -0.773  19.167 -0.2901  0.2498  0.1672
 2857DPPC   C2A55974   9.458  -1.101  18.979  0.1652  0.0866 -0.0881
 2857DPPC   C3A55975   9.226  -1.495  18.958  0.1124  0.1183  0.1214
 2857DPPC   C4A55976   9.146  -1.948  18.991 -0.0550  0.6755  0.1293
 2857DPPC   C1B55977   9.517  -1.245  19.497  0.1694  0.0157  0.2423
 2857DPPC   C2B55978   9.063  -1.241  19.400 -0.2625  0.0240  0.0564
 2857DPPC   C3B55979   8.622  -1.290  19.284  0.1639  0.2783  0.0305
 2857DPPC   C4B55980   8.359  -1.197  19.105  0.0463 -0.4124  0.0123
 2858DPPC   NC355981  26.890  11.094  23.891 -0.2756  0.1071  0.1193
 2858DPPC   PO455982  26.581  11.028  23.552 -0.1099  0.1448 -0.1507
 2858DPPC   GL155983  26.225  10.739  23.560  0.1404 -0.0474  0.0202
 2858DPPC   GL255984  26.279  10.427  23.814  0.0580 -0.0992 -0.0393
 2858DPPC   C1A55985  25.744  10.718  23.663 -0.1674 -0.6344 -0.1279
 2858DPPC   C2A55986  25.453  10.586  23.967  0.0954 -0.3702 -0.0859
 2858DPPC   C3A55987  25.082  10.438  24.115 -0.0946 -0.2677  0.1831
 2858DPPC   C4A55988  24.738  10.157  23.952  0.0698 -0.0347 -0.0586
 2858DPPC   C1B55989  25.873  10.307  23.916 -0.1245  0.2844  0.1038
 2858DPPC   C2B55990  25.474  10.100  24.026 -0.0899 -0.1012 -0.0492
 2858DPPC   C3B55991  25.181   9.775  24.101  0.0069  0.0063  0.0644
 2858DPPC   C4B55992  24.796   9.656  24.334  0.0869  0.1889 -0.0443
 2859DPPC   NC355993  26.633  -2.201  17.608  0.1014 -0.0162 -0.1242
 2859DPPC   PO455994  26.337  -1.927  17.624  0.0948  0.0283 -0.1891
 2859DPPC   GL155995  26.002  -1.693  17.709  0.1320  0.0777 -0.2168
 2859DPPC   GL255996  25.683  -1.516  17.713 -0.0318 -0.1099  0.3520
 2859DPPC   C1A55997  25.651  -1.962  17.791 -0.0881 -0.1700  0.1973
 2859DPPC   C2A55998  25.375  -2.010  17.529 -0.2177  0.1317  0.0322
 2859DPPC   C3A55999  24.994  -2.348  17.525 -0.0021 -0.1390 -0.0794
 2859DPPC   C4A56000  24.539  -2.371  17.510  0.0499  0.2231  0.1475
 2859DPPC   C1B56001  25.225  -1.540  17.832  0.1457  0.0290 -0.0533
 2859DPPC   C2B56002  24.946  -1.621  18.098 -0.0802  0.0324  0.0953
 2859DPPC   C3B56003  24.587  -1.467  18.327 -0.0681 -0.1045  0.0633
 2859DPPC   C4B56004  24.494  -1.184  18.724  0.3028  0.2420 -0.3181
 2860DPPC   NC356005  16.612  -1.109  19.507 -0.4308 -0.1649  0.0975
 2860DPPC   PO456006  16.583  -1.500  19.500 -0.3257  0.0913  0.0058
 2860DPPC   GL156007  16.765  -1.457  19.152  0.0882  0.0358 -0.1104
 2860DPPC   GL256008  16.799  -1.109  19.019  0.0661 -0.0158  0.0228
 2860DPPC   C1A56009  16.612  -1.651  18.719  0.0589  0.2619 -0.0026
 2860DPPC   C2A56010  16.633  -2.069  18.463  0.2574 -0.1780  0.1020
 2860DPPC   C3A56011  16.683  -2.530  18.538  0.2167  0.1702  0.4324
 2860DPPC   C4A56012  16.913  -2.916  18.514 -0.0863 -0.0751  0.0531
 2860DPPC   C1B56013  16.945  -0.794  18.779 -0.0096 -0.0036 -0.1308
 2860DPPC   C2B56014  16.902  -0.667  18.302 -0.2390 -0.3024  0.2687
 2860DPPC   C3B56015  16.597  -0.510  18.007 -0.0076  0.0615  0.2378
 2860DPPC   C4B56016  16.533  -0.404  17.545  0.1096 -0.1540 -0.2124
 2861DPPC   NC356017  20.042   2.052  18.557 -0.2147  0.3219  0.0389
 2861DPPC   PO456018  19.928   1.779  18.944 -0.0708  0.3469 -0.0109
 2861DPPC   GL156019  19.691   1.705  18.669 -0.2160  0.2081 -0.3176
 2861DPPC   GL256020  19.775   1.642  18.313  0.1594  0.2002  0.1715
 2861DPPC   C1A56021  19.461   1.171  18.742  0.0003  0.2559  0.1152
 2861DPPC   C2A56022  19.513   0.733  18.600 -0.1916  0.1495 -0.1871
 2861DPPC   C3A56023  19.504   0.363  18.497 -0.0887  0.1222  0.1061
 2861DPPC   C4A56024  19.575  -0.111  18.530  0.1050 -0.1833  0.3875
 2861DPPC   C1B56025  19.602   1.775  17.910 -0.2614 -0.0829  0.1046
 2861DPPC   C2B56026  19.738   1.875  17.398 -0.1291  0.2580 -0.0975
 2861DPPC   C3B56027  19.774   1.792  16.936 -0.2756 -0.0910 -0.0775
 2861DPPC   C4B56028  20.072   1.807  16.532 -0.1121  0.1867  0.1457
 2862DPPC   NC356029   7.820   2.456  28.965  0.2434  0.1915  0.0209
 2862DPPC   PO456030   7.568   2.359  28.614  0.0862  0.1142 -0.2119
 2862DPPC   GL156031   7.248   2.491  28.914 -0.1869  0.0780 -0.1384
 2862DPPC   GL256032   7.411   2.402  29.222 -0.1316  0.0101  0.1257
 2862DPPC   C1A56033   6.802   2.519  29.053 -0.3363  0.2393  0.3231
 2862DPPC   C2A56034   6.535   2.251  29.265 -0.2811 -0.1015  0.0160
 2862DPPC   C3A56035   6.126   2.180  29.490 -0.1253 -0.0291  0.2388
 2862DPPC   C4A56036   5.644   2.077  29.558  0.0170  0.1981  0.1185
 2862DPPC   C1B56037   7.089   2.308  29.445 -0.2566  0.3499 -0.0390
 2862DPPC   C2B56038   6.789   1.941  29.553  0.1697 -0.0852  0.0438
 2862DPPC   C3B56039   6.363   1.670  29.671  0.1434  0.3800 -0.0069
 2862DPPC   C4B56040   6.158   1.524  30.038 -0.0222  0.0220  0.5374
 2863DPPC   NC356041  17.840   2.941  12.038 -0.1643  0.3862  0.0164
 2863DPPC   PO456042  17.802   2.597  11.850  0.0556  0.0910  0.0721
 2863DPPC   GL156043  17.957   2.433  12.250  0.1206 -0.3036 -0.0425
 2863DPPC   GL256044  18.004   2.675  12.485  0.3218  0.0844  0.0327
 2863DPPC   C1A56045  18.385   2.372  12.395  0.3930 -0.0457 -0.2701
 2863DPPC   C2A56046  18.814   2.160  12.268 -0.0848 -0.3110 -0.2033
 2863DPPC   C3A56047  19.144   2.043  12.045 -0.6239  0.1334 -0.1390
 2863DPPC   C4A56048  19.494   1.652  12.225  0.1226  0.0156  0.1290
 2863DPPC   C1B56049  17.867   2.375  12.787  0.0319  0.0151 -0.1132
 2863DPPC   C2B56050  17.883   2.182  13.254  0.3631 -0.0386  0.1383
 2863DPPC   C3B56051  17.928   2.118  13.656 -0.0416  0.2908 -0.1465
 2863DPPC   C4B56052  17.717   2.076  14.041 -0.0074 -0.2840  0.0821
 2864DPPC   NC356053  22.411   2.814  18.269  0.1238 -0.2455 -0.1073
 2864DPPC   PO456054  22.747   2.691  18.628 -0.1548  0.0659  0.0615
 2864DPPC   GL156055  22.928   2.570  18.298  0.0593  0.0264 -0.1291
 2864DPPC   GL256056  22.877   2.909  18.068  0.2019 -0.1995 -0.0175
 2864DPPC   C1A56057  23.154   2.520  17.851 -0.1038 -0.0676 -0.1648
 2864DPPC   C2A56058  23.449   2.561  17.498 -0.1241 -0.2329  0.0048
 2864DPPC   C3A56059  23.617   2.702  17.139  0.0475  0.0549 -0.1072
 2864DPPC   C4A56060  23.639   2.684  16.755  0.0763  0.2520  0.2180
 2864DPPC   C1B56061  23.257   3.107  17.873 -0.3631  0.2267 -0.0081
 2864DPPC   C2B56062  23.479   3.042  17.495 -0.1250  0.0531  0.0145
 2864DPPC   C3B56063  23.891   3.126  17.456  0.3996 -0.0261 -0.1633
 2864DPPC   C4B56064  24.079   3.471  17.496  0.0547  0.0939  0.2173
 2865DPPC   NC356065  23.989   1.521  21.775  0.0188 -0.4678 -0.4755
 2865DPPC   PO456066  24.363   1.777  21.929 -0.3030 -0.0686  0.1764
 2865DPPC   GL156067  24.643   1.670  21.684  0.1765  0.1275  0.0004
 2865DPPC   GL256068  24.520   1.354  21.571 -0.2299  0.3844  0.2369
 2865DPPC   C1A56069  25.007   1.285  21.718 -0.2443 -0.0133  0.1881
 2865DPPC   C2A56070  25.488   1.228  21.309  0.3737 -0.1205  0.0966
 2865DPPC   C3A56071  25.807   1.267  21.440 -0.0695  0.1293  0.1783
 2865DPPC   C4A56072  26.203   1.309  21.494  0.0400 -0.2601 -0.1853
 2865DPPC   C1B56073  24.636   0.954  21.523  0.1138  0.0665 -0.2383
 2865DPPC   C2B56074  24.670   0.733  21.228  0.1170 -0.2541 -0.1123
 2865DPPC   C3B56075  25.020   0.532  21.248 -0.0622  0.2643 -0.0708
 2865DPPC   C4B56076  25.398   0.355  21.541 -0.2359 -0.2528 -0.1458
 2866DPPC   NC356077  19.048  12.262  34.783 -0.0785  0.0655 -0.0998
 2866DPPC   PO456078  19.419  12.015  34.849 -0.1917 -0.1461 -0.2019
 2866DPPC   GL156079  19.450  11.566  34.620  0.0260  0.1981 -0.1419
 2866DPPC   GL256080  19.531  11.473  34.252 -0.0482 -0.2244  0.1841
 2866DPPC   C1A56081  19.507  11.094  34.627  0.3781  0.2074  0.0853
 2866DPPC   C2A56082  19.318  10.736  34.530  0.1425  0.1158  0.0448
 2866DPPC   C3A56083  19.314  10.424  34.305 -0.0275  0.0349  0.0483
 2866DPPC   C4A56084  19.384  10.503  33.890  0.1009 -0.0847  0.1332
 2866DPPC   C1B56085  19.276  11.124  34.116 -0.2483  0.0181  0.0444
 2866DPPC   C2B56086  18.957  11.121  33.767 -0.2588  0.0722 -0.0444
 2866DPPC   C3B56087  18.971  10.768  33.530 -0.0809  0.0676  0.0992
 2866DPPC   C4B56088  19.243  10.483  33.382 -0.1203 -0.3882 -0.0653
 2867DPPC   NC356089  18.558  11.802  27.932 -0.0719  0.0822 -0.0585
 2867DPPC   PO456090  18.926  11.764  27.901  0.1247  0.0531  0.2079
 2867DPPC   GL156091  18.986  12.243  27.975 -0.2111 -0.0834  0.0181
 2867DPPC   GL256092  18.935  12.166  27.608 -0.1102 -0.2034 -0.1129
 2867DPPC   C1A56093  18.807  12.679  27.776  0.1721  0.1286 -0.1001
 2867DPPC   C2A56094  18.990  12.944  27.455  0.0657 -0.1189  0.4572
 2867DPPC   C3A56095  19.226  13.427  27.431  0.0605 -0.1452  0.0981
 2867DPPC   C4A56096  19.005  13.765  27.055  0.2293 -0.1763 -0.1921
 2867DPPC   C1B56097  19.222  12.300  27.305  0.0513 -0.1007  0.2086
 2867DPPC   C2B56098  19.383  12.686  27.436 -0.2999 -0.0651  0.4239
 2867DPPC   C3B56099  19.443  12.979  27.751  0.3928  0.5011 -0.0054
 2867DPPC   C4B56100  19.503  13.413  27.907 -0.1147  0.6707  0.1637
 2868DPPC   NC356101  10.598   3.771  19.018 -0.2901 -0.0685 -0.0528
 2868DPPC   PO456102  10.630   3.370  18.872 -0.1215  0.1411 -0.2100
 2868DPPC   GL156103  10.400   3.603  18.594 -0.0365  0.2436  0.3450
 2868DPPC   GL256104  10.259   3.448  18.305 -0.1333 -0.2549 -0.0375
 2868DPPC   C1A56105  10.119   3.937  18.323 -0.2196  0.0027  0.3080
 2868DPPC   C2A56106   9.790   4.182  18.305  0.0836 -0.0452 -0.1036
 2868DPPC   C3A56107   9.719   4.574  18.229 -0.0066  0.1481  0.4661
 2868DPPC   C4A56108   9.451   4.687  18.459  0.0056 -0.1527 -0.0152
 2868DPPC   C1B56109  10.147   3.416  17.934  0.0018  0.0037  0.0753
 2868DPPC   C2B56110  10.011   3.355  17.505  0.2276  0.0888  0.5597
 2868DPPC   C3B56111   9.989   3.496  17.074 -0.0292  0.0840  0.0240
 2868DPPC   C4B56112  10.074   3.783  16.671  0.3025  0.1882 -0.0585
 2869DPPC   NC356113  14.644   0.796  16.077  0.0859  0.1614 -0.0211
 2869DPPC   PO456114  14.561   0.335  16.217  0.1414 -0.0604  0.0589
 2869DPPC   GL156115  14.635   0.308  15.764 -0.1666  0.0478 -0.2024
 2869DPPC   GL256116  14.848  -0.036  15.785 -0.1076  0.0618 -0.2479
 2869DPPC   C1A56117  14.694   0.302  15.387 -0.0029  0.0788  0.1333
 2869DPPC   C2A56118  14.512   0.308  14.986  0.1545  0.1341 -0.1717
 2869DPPC   C3A56119  14.023   0.107  14.996  0.1246  0.1932  0.0779
 2869DPPC   C4A56120  14.017  -0.258  14.919  0.1397 -0.0331 -0.0643
 2869DPPC   C1B56121  14.838  -0.161  15.362 -0.2948 -0.0663  0.2221
 2869DPPC   C2B56122  14.883  -0.533  15.137  0.2988  0.0791  0.1566
 2869DPPC   C3B56123  15.113  -0.874  15.108 -0.1790  0.2205 -0.3619
 2869DPPC   C4B56124  15.309  -0.857  14.770 -0.0792  0.2549 -0.1951
 2870DPPC   NC356125  19.964   7.517  18.628 -0.2225 -0.3427  0.2577
 2870DPPC   PO456126  20.363   7.444  18.452 -0.3086 -0.2161 -0.0599
 2870DPPC   GL156127  20.644   7.768  18.322  0.2911 -0.1368 -0.0938
 2870DPPC   GL256128  20.953   7.733  18.080 -0.1424  0.0488  0.3221
 2870DPPC   C1A56129  20.618   8.167  18.021 -0.0147 -0.0930 -0.2146
 2870DPPC   C2A56130  20.413   8.531  17.920  0.0548 -0.0459  0.2462
 2870DPPC   C3A56131  20.627   8.954  17.726  0.2604  0.1763 -0.1566
 2870DPPC   C4A56132  20.646   9.252  17.469  0.2560  0.1554 -0.2014
 2870DPPC   C1B56133  21.091   7.461  17.689  0.1030 -0.1868 -0.0979
 2870DPPC   C2B56134  21.133   7.215  17.396 -0.1119 -0.0746 -0.0748
 2870DPPC   C3B56135  21.144   6.810  17.115 -0.3216 -0.0968  0.1718
 2870DPPC   C4B56136  20.984   6.650  16.868 -0.2144  0.0700  0.1711
 2871DPPC   NC356137  22.460   9.945  25.585  0.3841 -0.1107  0.0625
 2871DPPC   PO456138  22.543  10.040  26.014  0.1261  0.2701  0.2708
 2871DPPC   GL156139  22.596  10.432  26.157  0.0529  0.0727 -0.1060
 2871DPPC   GL256140  22.780  10.488  26.439 -0.3190  0.0077  0.2368
 2871DPPC   C1A56141  22.658  10.878  26.139  0.0019 -0.0862  0.2476
 2871DPPC   C2A56142  22.701  11.414  26.185 -0.0485 -0.1020  0.2520
 2871DPPC   C3A56143  22.594  11.793  26.151 -0.1948 -0.2748  0.1620
 2871DPPC   C4A56144  22.561  12.107  25.801  0.0048 -0.1378  0.1955
 2871DPPC   C1B56145  23.172  10.547  26.233 -0.0169  0.2174  0.3092
 2871DPPC   C2B56146  23.553  10.773  26.307 -0.1634 -0.4344 -0.2602
 2871DPPC   C3B56147  23.959  10.996  26.080  0.0219  0.2784  0.1254
 2871DPPC   C4B56148  24.439  11.027  26.158 -0.3707  0.1181 -0.2773
 2872DPPC   NC356149  14.675  11.521  23.187 -0.0160  0.0216 -0.1242
 2872DPPC   PO456150  15.061  11.593  23.026 -0.0490  0.0010 -0.1481
 2872DPPC   GL156151  15.083  11.994  22.750  0.2202  0.0118 -0.2136
 2872DPPC   GL256152  15.450  12.019  22.509 -0.0685  0.1340 -0.1929
 2872DPPC   C1A56153  14.988  12.408  22.557  0.0011 -0.4511  0.3781
 2872DPPC   C2A56154  14.653  12.478  22.294 -0.2796 -0.1117  0.1363
 2872DPPC   C3A56155  14.428  12.803  22.280  0.0122  0.0939 -0.0795
 2872DPPC   C4A56156  14.405  13.217  22.130  0.1191  0.3019  0.1635
 2872DPPC   C1B56157  15.339  12.294  22.203 -0.2233  0.2958 -0.2582
 2872DPPC   C2B56158  15.173  12.625  22.144 -0.3557 -0.0420  0.0738
 2872DPPC   C3B56159  14.997  12.916  22.378 -0.0054 -0.1049 -0.1638
 2872DPPC   C4B56160  14.698  13.210  22.540  0.0987  0.0860  0.5559
 2873DPPC   NC356161  16.441  10.014  19.940  0.1324 -0.0213 -0.1256
 2873DPPC   PO456162  16.827   9.846  19.911  0.2586  0.2235 -0.0914
 2873DPPC   GL156163  16.764  10.244  19.681  0.0457  0.1170 -0.0856
 2873DPPC   GL256164  16.530  10.505  19.759 -0.0689 -0.5272 -0.1046
 2873DPPC   C1A56165  16.941  10.625  19.409  0.5393  0.4015  0.1091
 2873DPPC   C2A56166  17.176  11.010  19.280  0.2844  0.2039 -0.0249
 2873DPPC   C3A56167  17.732  11.065  19.337 -0.0338  0.1136 -0.0858
 2873DPPC   C4A56168  18.071  11.209  19.171  0.2912  0.0246 -0.1122
 2873DPPC   C1B56169  16.666  11.006  19.796 -0.2273 -0.0133  0.2457
 2873DPPC   C2B56170  16.857  11.280  19.678  0.3957 -0.1554  0.0179
 2873DPPC   C3B56171  16.985  11.660  19.485  0.2250 -0.2676  0.2526
 2873DPPC   C4B56172  17.326  11.889  19.628  0.4306  0.1025 -0.0595
 2874DPPC   NC356173  27.871   9.455  30.394 -0.0637 -0.1629  0.0078
 2874DPPC   PO456174  27.699   9.448  29.961  0.0535  0.1117  0.2236
 2874DPPC   GL156175  27.395   9.092  29.913  0.1585  0.1351 -0.0004
 2874DPPC   GL256176  27.283   8.930  30.270 -0.3432 -0.1841 -0.0197
 2874DPPC   C1A56177  27.088   8.881  29.740 -0.2334 -0.0966  0.0655
 2874DPPC   C2A56178  26.669   8.737  29.590  0.2593  0.1391 -0.2812
 2874DPPC   C3A56179  26.245   8.634  29.553 -0.2045 -0.3156  0.0568
 2874DPPC   C4A56180  25.901   8.380  29.663 -0.0033 -0.0903 -0.2451
 2874DPPC   C1B56181  26.715   8.906  30.322  0.0142  0.1334  0.1998
 2874DPPC   C2B56182  26.366   8.726  30.332  0.2178  0.0082  0.2283
 2874DPPC   C3B56183  25.959   8.699  30.614  0.0616 -0.2951  0.0546
 2874DPPC   C4B56184  25.808   8.628  31.079 -0.1343  0.4599 -0.1738
 2875DPPC   NC356185  21.851   6.854  19.529  0.3942  0.2833  0.3856
 2875DPPC   PO456186  22.197   6.820  19.222  0.1413 -0.0070 -0.1110
 2875DPPC   GL156187  22.413   6.854  18.882 -0.0572 -0.1210 -0.1881
 2875DPPC   GL256188  22.665   7.063  18.898  0.0914 -0.0555 -0.1335
 2875DPPC   C1A56189  22.678   6.949  18.427 -0.1110 -0.0554  0.0948
 2875DPPC   C2A56190  22.864   7.370  18.273 -0.0824 -0.2415 -0.1908
 2875DPPC   C3A56191  23.189   7.750  18.324  0.0949 -0.0842 -0.1511
 2875DPPC   C4A56192  23.681   7.812  18.532  0.3848  0.5917 -0.1069
 2875DPPC   C1B56193  22.597   7.421  19.083  0.0478  0.1567  0.1235
 2875DPPC   C2B56194  22.487   7.835  19.154  0.0468 -0.0306  0.0761
 2875DPPC   C3B56195  22.489   8.149  18.691 -0.1703 -0.2522 -0.0116
 2875DPPC   C4B56196  22.553   8.557  18.409 -0.0918  0.1344  0.0705
 2876DPPC   NC356197   7.791  -0.044  25.268 -0.2705 -0.0444  0.2603
 2876DPPC   PO456198   8.013  -0.322  24.987  0.0658  0.2098 -0.0093
 2876DPPC   GL156199   7.581  -0.239  24.849 -0.0317  0.2212  0.1621
 2876DPPC   GL256200   7.543  -0.422  24.732  0.0470  0.1036  0.1364
 2876DPPC   C1A56201   7.160  -0.460  25.022 -0.1455 -0.0380 -0.0194
 2876DPPC   C2A56202   6.844  -0.650  24.651  0.0700 -0.0481  0.1591
 2876DPPC   C3A56203   6.409  -0.742  24.622 -0.0885  0.1151 -0.3391
 2876DPPC   C4A56204   6.081  -0.762  24.518  0.3221  0.0678  0.1004
 2876DPPC   C1B56205   7.357  -0.660  24.333  0.0443 -0.0967  0.2152
 2876DPPC   C2B56206   6.981  -0.826  24.195  0.1328 -0.3167 -0.2906
 2876DPPC   C3B56207   6.585  -0.586  24.168 -0.0781 -0.1517  0.0290
 2876DPPC   C4B56208   6.191  -0.294  24.240 -0.3931 -0.3211  0.0932
 2877DPPC   NC356209  21.511   3.707  36.605 -0.1265 -0.0868 -0.0195
 2877DPPC   PO456210  21.167   3.411  36.654 -0.0739  0.0125 -0.0434
 2877DPPC   GL156211  20.839   3.439  36.310  0.2296 -0.0596  0.1195
 2877DPPC   GL256212  20.538   3.586  36.275  0.1379 -0.1191  0.2425
 2877DPPC   C1A56213  20.754   3.282  35.894  0.0066 -0.2137  0.1869
 2877DPPC   C2A56214  20.592   3.343  35.514 -0.1559  0.3419  0.1094
 2877DPPC   C3A56215  20.637   3.413  35.063 -0.0950 -0.2477  0.1336
 2877DPPC   C4A56216  20.616   3.204  34.589  0.1900  0.1295 -0.1960
 2877DPPC   C1B56217  20.244   3.535  35.999 -0.0059 -0.1333  0.0753
 2877DPPC   C2B56218  19.910   3.613  35.633 -0.4207  0.2234  0.0858
 2877DPPC   C3B56219  19.860   3.832  35.189 -0.3832 -0.1309 -0.2359
 2877DPPC   C4B56220  19.816   4.095  34.908 -0.0538  0.2668  0.3103
 2878DPPC   NC356221   7.881   1.455  22.233 -0.0613  0.0966 -0.0473
 2878DPPC   PO456222   7.759   1.512  21.839 -0.1607 -0.1591  0.1532
 2878DPPC   GL156223   7.608   1.099  21.996  0.1830  0.0492 -0.1821
 2878DPPC   GL256224   7.505   1.017  22.272  0.3918 -0.0890  0.0143
 2878DPPC   C1A56225   7.130   0.901  21.842  0.2965 -0.0291 -0.0582
 2878DPPC   C2A56226   6.709   0.858  21.908 -0.1407  0.2800  0.0427
 2878DPPC   C3A56227   6.369   0.921  22.072  0.1105 -0.0574  0.0404
 2878DPPC   C4A56228   6.078   0.785  22.382  0.0340  0.1972 -0.0144
 2878DPPC   C1B56229   6.957   0.930  22.361 -0.0997  0.1741 -0.3314
 2878DPPC   C2B56230   6.597   0.924  22.554  0.0345 -0.2374 -0.0757
 2878DPPC   C3B56231   6.261   1.170  22.701  0.2281  0.0530  0.2156
 2878DPPC   C4B56232   5.980   1.425  22.677  0.2798 -0.0508  0.1278
 2879DPPC   NC356233  16.868   8.296  33.542  0.2696  0.1288 -0.1697
 2879DPPC   PO456234  16.987   8.645  33.443 -0.1902 -0.0121  0.2978
 2879DPPC   GL156235  16.933   8.701  33.803  0.1152 -0.1541 -0.0685
 2879DPPC   GL256236  16.892   8.395  34.023  0.0481  0.1771 -0.2423
 2879DPPC   C1A56237  17.191   8.929  34.193  0.1911 -0.2807  0.2377
 2879DPPC   C2A56238  16.815   9.196  34.341 -0.1260 -0.1093 -0.1054
 2879DPPC   C3A56239  16.661   9.265  34.748 -0.1164 -0.2736  0.0714
 2879DPPC   C4A56240  16.280   9.196  34.918 -0.1733 -0.1535 -0.2155
 2879DPPC   C1B56241  16.789   8.656  34.390 -0.0791  0.4762 -0.2621
 2879DPPC   C2B56242  16.681   8.569  34.724  0.4325  0.1111 -0.2979
 2879DPPC   C3B56243  16.567   8.849  35.046  0.1999 -0.1077  0.0732
 2879DPPC   C4B56244  16.771   9.199  35.243  0.1009 -0.1390  0.0277
 2880DPPC   NC356245  23.399   6.191  23.597  0.1723  0.0031  0.0007
 2880DPPC   PO456246  23.553   6.575  23.766 -0.0260  0.0089 -0.0241
 2880DPPC   GL156247  23.836   6.968  23.851  0.0205  0.1535 -0.1007
 2880DPPC   GL256248  24.095   6.840  24.172  0.1355 -0.2747  0.0831
 2880DPPC   C1A56249  24.307   7.190  23.863  0.3073  0.0179  0.4653
 2880DPPC   C2A56250  24.638   7.385  23.720  0.0392  0.0027  0.0135
 2880DPPC   C3A56251  25.033   7.576  23.599 -0.2936 -0.0048  0.0553
 2880DPPC   C4A56252  25.395   7.524  23.398  0.1614  0.1352  0.1405
 2880DPPC   C1B56253  24.540   6.590  24.171 -0.1122  0.3652  0.2279
 2880DPPC   C2B56254  24.905   6.543  24.013  0.0761 -0.1140  0.1444
 2880DPPC   C3B56255  25.193   6.700  23.938 -0.0573  0.1566  0.0787
 2880DPPC   C4B56256  25.506   6.837  24.078 -0.0063  0.0764  0.1258
 2881DPPC   NC356257  11.869  -3.946  14.768 -0.2014  0.1146 -0.0807
 2881DPPC   PO456258  12.088  -3.653  15.099  0.0192 -0.0123 -0.1052
 2881DPPC   GL156259  12.373  -3.441  15.357 -0.1554  0.0908  0.3258
 2881DPPC   GL256260  12.353  -3.446  15.735 -0.1576 -0.2416 -0.2699
 2881DPPC   C1A56261  12.771  -3.226  15.560  0.0995  0.0655 -0.0601
 2881DPPC   C2A56262  12.902  -3.147  15.912  0.0237 -0.0148 -0.0430
 2881DPPC   C3A56263  13.232  -3.189  16.152 -0.1320 -0.2411  0.0780
 2881DPPC   C4A56264  13.418  -2.848  16.302 -0.0247 -0.3023 -0.1119
 2881DPPC   C1B56265  11.972  -3.332  16.016 -0.4442 -0.0378 -0.1322
 2881DPPC   C2B56266  11.588  -3.196  16.186 -0.2808 -0.1890 -0.2693
 2881DPPC   C3B56267  11.299  -2.927  16.278 -0.1209 -0.2015 -0.0020
 2881DPPC   C4B56268  11.418  -2.459  16.091  0.0989 -0.0957 -0.2371
 2882DPPC   NC356269  19.816   8.323  19.325  0.3318 -0.0311 -0.0553
 2882DPPC   PO456270  20.121   8.522  19.483 -0.1985  0.0976 -0.3087
 2882DPPC   GL156271  20.038   8.864  19.079 -0.0369  0.3677 -0.0160
 2882DPPC   GL256272  19.869   8.682  18.904 -0.0395 -0.1067  0.0718
 2882DPPC   C1A56273  19.919   9.243  18.897  0.1461  0.2103  0.1021
 2882DPPC   C2A56274  19.718   9.609  18.790 -0.0200 -0.0775  0.1665
 2882DPPC   C3A56275  19.527   9.743  18.383  0.0527 -0.1239  0.3662
 2882DPPC   C4A56276  19.672  10.125  18.054 -0.0786 -0.4466 -0.0137
 2882DPPC   C1B56277  19.824   8.916  18.497 -0.2011  0.2420  0.1823
 2882DPPC   C2B56278  19.552   9.224  18.237 -0.3594  0.1756 -0.1806
 2882DPPC   C3B56279  19.769   9.608  17.967  0.0568 -0.1569  0.1810
 2882DPPC   C4B56280  19.873   9.793  17.634  0.2643 -0.2753  0.2056
 2883DPPC   NC356281  19.083   2.686  17.328  0.0485 -0.0172  0.3329
 2883DPPC   PO456282  19.198   2.922  16.936  0.0750 -0.5468 -0.1369
 2883DPPC   GL156283  19.353   2.921  16.535  0.1260  0.2631 -0.2681
 2883DPPC   GL256284  19.242   2.872  16.105  0.1236  0.1476  0.0982
 2883DPPC   C1A56285  19.785   2.826  16.253 -0.0574  0.0058 -0.1149
 2883DPPC   C2A56286  20.040   3.052  15.937  0.0453  0.0338 -0.0220
 2883DPPC   C3A56287  20.316   3.314  16.082 -0.0643  0.3047  0.2321
 2883DPPC   C4A56288  20.626   3.420  16.369 -0.2110 -0.0275  0.1204
 2883DPPC   C1B56289  19.381   3.035  15.694 -0.0742  0.1163 -0.2001
 2883DPPC   C2B56290  19.268   2.956  15.298  0.1142  0.3506  0.1216
 2883DPPC   C3B56291  19.430   3.043  14.966 -0.2360 -0.2609 -0.0498
 2883DPPC   C4B56292  19.504   3.415  14.727  0.0713 -0.1088 -0.1340
 2884DPPC   NC356293  19.192   4.115  16.592 -0.2878 -0.0237  0.2116
 2884DPPC   PO456294  18.920   3.813  16.411 -0.2666 -0.1370 -0.2471
 2884DPPC   GL156295  19.047   3.747  15.975  0.1018 -0.5079  0.0249
 2884DPPC   GL256296  19.124   4.028  15.955 -0.4150  0.1227  0.1292
 2884DPPC   C1A56297  19.348   3.512  15.699 -0.2371 -0.0533 -0.2157
 2884DPPC   C2A56298  19.495   3.411  15.337 -0.0315  0.2340 -0.0489
 2884DPPC   C3A56299  19.768   2.948  15.352 -0.1487  0.0591  0.2044
 2884DPPC   C4A56300  19.858   2.876  14.902 -0.0800 -0.2662  0.0783
 2884DPPC   C1B56301  18.954   3.903  15.489  0.0373 -0.2050 -0.3214
 2884DPPC   C2B56302  19.165   3.763  15.103  0.1846  0.0652 -0.0686
 2884DPPC   C3B56303  18.957   3.641  14.670  0.0376 -0.0529  0.1950
 2884DPPC   C4B56304  19.157   3.880  14.257  0.1520 -0.1259  0.1943
 2885DPPC   NC356305  23.054  -6.104  26.192 -0.3855  0.2889  0.0191
 2885DPPC   PO456306  23.181  -6.036  25.723 -0.2308 -0.1315 -0.1408
 2885DPPC   GL156307  23.242  -5.766  25.330  0.0149  0.0540  0.0264
 2885DPPC   GL256308  23.549  -5.603  25.259  0.0884 -0.0195  0.1952
 2885DPPC   C1A56309  23.069  -5.626  24.984 -0.1262  0.2140  0.1761
 2885DPPC   C2A56310  23.066  -5.752  24.472  0.2407 -0.1744 -0.0402
 2885DPPC   C3A56311  22.808  -5.415  24.151  0.2411  0.0567 -0.0723
 2885DPPC   C4A56312  22.643  -4.935  24.034  0.4362  0.3694  0.2409
 2885DPPC   C1B56313  23.414  -5.251  25.341 -0.1022 -0.1127  0.3002
 2885DPPC   C2B56314  23.034  -5.059  25.205 -0.0612 -0.0087  0.2816
 2885DPPC   C3B56315  22.685  -4.746  25.155  0.0440 -0.1093  0.0870
 2885DPPC   C4B56316  22.460  -4.494  24.877 -0.5037  0.2078 -0.1647
 2886DPPC   NC356317  15.436  -2.575  36.020 -0.2379 -0.0745 -0.0322
 2886DPPC   PO456318  15.587  -2.084  35.925 -0.0469  0.0955 -0.4171
 2886DPPC   GL156319  15.903  -1.818  35.533  0.4641  0.3006 -0.0163
 2886DPPC   GL256320  15.678  -1.897  35.355  0.2419  0.0072  0.0188
 2886DPPC   C1A56321  16.070  -1.637  35.171 -0.0673  0.3695 -0.6498
 2886DPPC   C2A56322  16.119  -1.295  35.030  0.0274  0.2816 -0.2414
 2886DPPC   C3A56323  16.284  -0.802  34.973  0.1817  0.4089 -0.4938
 2886DPPC   C4A56324  16.047  -0.478  35.130 -0.0739 -0.2201 -0.0180
 2886DPPC   C1B56325  15.361  -1.672  35.096  0.0203 -0.2345  0.2240
 2886DPPC   C2B56326  15.463  -1.415  34.676  0.1899 -0.3372 -0.0700
 2886DPPC   C3B56327  15.695  -1.153  34.442 -0.1526  0.1915  0.0853
 2886DPPC   C4B56328  15.524  -0.806  34.418  0.0139 -0.3038  0.0292
 2887DPPC   NC356329  23.418   7.867  23.879  0.1981 -0.1268 -0.0832
 2887DPPC   PO456330  23.554   7.953  24.360 -0.0629  0.1967  0.0893
 2887DPPC   GL156331  23.975   8.178  24.430  0.1450  0.2244 -0.2825
 2887DPPC   GL256332  24.042   8.350  24.747  0.0211  0.2024  0.0276
 2887DPPC   C1A56333  24.328   8.153  24.072 -0.0358  0.2330 -0.3832
 2887DPPC   C2A56334  24.748   8.137  24.193  0.0461  0.0443 -0.0657
 2887DPPC   C3A56335  25.173   8.227  24.067  0.0698  0.1415  0.2605
 2887DPPC   C4A56336  25.481   8.163  23.935  0.0516  0.2015 -0.1473
 2887DPPC   C1B56337  24.489   8.281  24.692 -0.2333 -0.0991 -0.0540
 2887DPPC   C2B56338  24.832   8.338  24.872  0.0083 -0.1130 -0.0158
 2887DPPC   C3B56339  25.250   8.306  24.990 -0.2770  0.2298 -0.0516
 2887DPPC   C4B56340  25.594   8.098  25.161 -0.1757 -0.0075  0.3572
 2888DPPC   NC356341   5.899  -4.755  26.292  0.0003  0.3242 -0.0516
 2888DPPC   PO456342   5.918  -4.312  26.494 -0.3773 -0.0681  0.3415
 2888DPPC   GL156343   6.270  -4.083  26.679 -0.2148 -0.2632 -0.1585
 2888DPPC   GL256344   6.314  -3.953  26.367  0.3173  0.1833  0.0240
 2888DPPC   C1A56345   6.488  -3.748  26.820 -0.0655 -0.3428 -0.0502
 2888DPPC   C2A56346   6.834  -3.420  26.819  0.4097 -0.1925 -0.3239
 2888DPPC   C3A56347   7.169  -3.213  27.014  0.0154 -0.0057  0.2969
 2888DPPC   C4A56348   7.471  -3.418  27.221  0.1019 -0.1346 -0.0948
 2888DPPC   C1B56349   6.392  -3.661  25.987 -0.1328  0.1981  0.3352
 2888DPPC   C2B56350   6.434  -3.250  25.964 -0.2720  0.0450 -0.1228
 2888DPPC   C3B56351   6.435  -2.951  25.763  0.0872 -0.2581  0.2813
 2888DPPC   C4B56352   6.045  -2.816  25.578  0.0450  0.1461 -0.0122
 2889DPPC   NC356353  27.310   9.673  22.398 -0.2018 -0.1179  0.3123
 2889DPPC   PO456354  27.002   9.581  22.676 -0.2113 -0.2630  0.2321
 2889DPPC   GL156355  26.554   9.482  22.605  0.0023 -0.0646  0.1470
 2889DPPC   GL256356  26.541   9.318  22.852  0.0517  0.5361 -0.4008
 2889DPPC   C1A56357  26.191   9.458  22.471  0.0873 -0.0647  0.1652
 2889DPPC   C2A56358  25.737   9.544  22.179 -0.0001 -0.0463  0.1330
 2889DPPC   C3A56359  25.260   9.419  22.277  0.0737 -0.3548  0.0565
 2889DPPC   C4A56360  24.939   9.337  22.540  0.0825  0.1148 -0.1096
 2889DPPC   C1B56361  26.349   8.804  23.001  0.0394 -0.2492 -0.0766
 2889DPPC   C2B56362  26.266   8.415  22.739  0.1244  0.0626  0.2348
 2889DPPC   C3B56363  26.162   8.014  22.588 -0.2151 -0.3707  0.1381
 2889DPPC   C4B56364  26.490   7.786  22.378  0.3032  0.1714  0.2349
 2890DPPC   NC356365   6.340   3.817  25.793  0.0547  0.2138  0.0801
 2890DPPC   PO456366   6.652   3.891  26.087  0.3263 -0.0748 -0.0370
 2890DPPC   GL156367   6.309   3.908  26.294  0.0421 -0.2705 -0.1283
 2890DPPC   GL256368   6.280   4.158  26.328 -0.1810  0.0025 -0.1873
 2890DPPC   C1A56369   5.810   3.881  26.389  0.2344 -0.1424  0.3204
 2890DPPC   C2A56370   5.359   4.026  26.372 -0.1100 -0.0026 -0.3179
 2890DPPC   C3A56371   5.024   3.891  26.101  0.0544 -0.1095  0.1720
 2890DPPC   C4A56372   4.777   4.108  25.961 -0.0728 -0.0361 -0.0518
 2890DPPC   C1B56373   6.110   4.125  26.802 -0.1313  0.3226  0.1269
 2890DPPC   C2B56374   5.672   4.144  26.801  0.0695  0.0505  0.0914
 2890DPPC   C3B56375   5.431   3.858  26.932  0.4030 -0.0505 -0.0906
 2890DPPC   C4B56376   5.059   3.716  26.748  0.3336  0.2443  0.2347
 2891DPPC   NC356377  13.028  -1.605  30.324 -0.3957  0.0850  0.0738
 2891DPPC   PO456378  12.605  -1.563  30.402 -0.0001  0.2727 -0.0980
 2891DPPC   GL156379  12.785  -1.772  30.726 -0.4385  0.3514 -0.0216
 2891DPPC   GL256380  13.025  -1.570  30.882 -0.0552 -0.1990  0.0325
 2891DPPC   C1A56381  12.604  -2.095  31.128 -0.0538 -0.0216  0.0152
 2891DPPC   C2A56382  12.379  -2.151  31.455  0.0303 -0.1119  0.1499
 2891DPPC   C3A56383  12.122  -2.132  31.817  0.0185 -0.0695  0.3035
 2891DPPC   C4A56384  11.805  -1.903  32.146 -0.2178 -0.2656 -0.2560
 2891DPPC   C1B56385  12.730  -1.576  31.213 -0.0475  0.1961  0.1686
 2891DPPC   C2B56386  12.322  -1.554  31.325  0.0672  0.0358 -0.1274
 2891DPPC   C3B56387  11.992  -1.789  31.449 -0.0259 -0.1068 -0.2582
 2891DPPC   C4B56388  11.646  -1.995  31.689  0.2918 -0.2607  0.1060
 2892DPPC   NC356389   7.822  11.120  33.081  0.0600  0.1752  0.0654
 2892DPPC   PO456390   8.213  11.428  33.207 -0.2726  0.2349  0.0766
 2892DPPC   GL156391   8.288  11.299  32.797  0.1973  0.2041  0.0906
 2892DPPC   GL256392   8.029  11.050  32.633  0.1747  0.1169  0.1571
 2892DPPC   C1A56393   8.362  11.281  32.347 -0.1088 -0.4438 -0.0555
 2892DPPC   C2A56394   8.498  10.916  31.963 -0.4384 -0.0622  0.2482
 2892DPPC   C3A56395   8.722  10.823  31.580  0.3025  0.2314 -0.1474
 2892DPPC   C4A56396   8.806  10.486  31.404  0.0848  0.2245 -0.0453
 2892DPPC   C1B56397   8.019  10.995  32.156 -0.2597 -0.2244  0.1774
 2892DPPC   C2B56398   7.900  10.656  31.972  0.2592  0.0993 -0.1394
 2892DPPC   C3B56399   7.939  10.241  31.800 -0.0190  0.0109  0.2662
 2892DPPC   C4B56400   8.003   9.844  31.578 -0.1675 -0.0410  0.1103
 2893DPPC   NC356401  13.416  -3.736  26.413 -0.0836 -0.1532  0.1077
 2893DPPC   PO456402  13.151  -3.542  26.811 -0.0842 -0.3640  0.3644
 2893DPPC   GL156403  13.033  -3.987  26.836 -0.3096 -0.3217  0.1998
 2893DPPC   GL256404  12.955  -4.063  26.580  0.0758 -0.1680  0.3531
 2893DPPC   C1A56405  12.895  -4.353  27.012  0.1510 -0.1438 -0.2275
 2893DPPC   C2A56406  12.626  -4.714  26.991  0.1953 -0.0004 -0.0142
 2893DPPC   C3A56407  12.262  -4.991  27.190  0.3702 -0.3778 -0.2489
 2893DPPC   C4A56408  12.046  -5.045  27.482  0.1415  0.0571  0.1928
 2893DPPC   C1B56409  12.552  -4.338  26.673  0.0919 -0.1289  0.0205
 2893DPPC   C2B56410  12.224  -4.238  26.968 -0.2166  0.1461 -0.0246
 2893DPPC   C3B56411  12.066  -4.556  27.195 -0.0129 -0.2268 -0.1050
 2893DPPC   C4B56412  11.779  -4.647  27.530 -0.1675  0.0737  0.0388
 2894DPPC   NC356413  24.429   0.960  26.005 -0.1044 -0.1160  0.0403
 2894DPPC   PO456414  24.785   0.812  26.155 -0.0832  0.0437 -0.1946
 2894DPPC   GL156415  25.106   0.714  26.015 -0.1137  0.1746  0.0002
 2894DPPC   GL256416  25.153   0.885  25.808 -0.2221 -0.0527  0.1124
 2894DPPC   C1A56417  25.282   0.436  25.599  0.1349  0.2132  0.3591
 2894DPPC   C2A56418  25.721   0.376  25.414  0.0574  0.0759  0.2090
 2894DPPC   C3A56419  26.122   0.413  25.304 -0.4881  0.0839 -0.1481
 2894DPPC   C4A56420  26.608   0.485  25.070 -0.0878 -0.0241 -0.3040
 2894DPPC   C1B56421  25.639   0.850  25.790  0.0399  0.0669 -0.3846
 2894DPPC   C2B56422  25.848   0.507  25.908  0.0437  0.1179 -0.3635
 2894DPPC   C3B56423  25.651   0.101  25.862 -0.0489  0.0957 -0.3162
 2894DPPC   C4B56424  25.400  -0.176  25.635  0.2239  0.0044  0.0071
 2895DPPC   NC356425  23.339  11.243  17.653 -0.0382  0.0913  0.1281
 2895DPPC   PO456426  23.477  11.195  18.039  0.3553  0.3032 -0.1285
 2895DPPC   GL156427  23.535  10.764  18.256  0.1308  0.4599  0.4460
 2895DPPC   GL256428  23.232  10.616  18.216 -0.1854 -0.1023  0.2785
 2895DPPC   C1A56429  23.670  10.308  18.428  0.1780 -0.0448  0.0473
 2895DPPC   C2A56430  23.515  10.104  18.868 -0.1488  0.0062 -0.0724
 2895DPPC   C3A56431  23.415   9.864  19.151 -0.1822 -0.0808  0.1507
 2895DPPC   C4A56432  23.167   9.433  19.316 -0.0639  0.1304  0.1920
 2895DPPC   C1B56433  22.859  10.560  18.039 -0.0949  0.1572  0.0380
 2895DPPC   C2B56434  22.490  10.290  18.193 -0.0555 -0.0229 -0.3015
 2895DPPC   C3B56435  22.183   9.976  18.289  0.2039 -0.3396 -0.1239
 2895DPPC   C4B56436  21.761   9.797  18.375  0.2070 -0.1370 -0.0526
 2896DPPC   NC356437  14.754   9.154  19.408  0.3132 -0.2565  0.0282
 2896DPPC   PO456438  14.885   9.619  19.194  0.1480  0.0710 -0.0002
 2896DPPC   GL156439  14.618   9.833  19.007  0.2779 -0.0666 -0.0419
 2896DPPC   GL256440  14.404   9.721  18.730  0.2648 -0.0102  0.1447
 2896DPPC   C1A56441  14.310  10.193  18.797 -0.2858  0.0203 -0.1820
 2896DPPC   C2A56442  14.126  10.655  18.778 -0.1210 -0.2920 -0.0130
 2896DPPC   C3A56443  14.225  11.018  19.068  0.0899 -0.2768 -0.3636
 2896DPPC   C4A56444  14.167  11.490  19.031 -0.2449 -0.0571 -0.2658
 2896DPPC   C1B56445  14.169   9.843  18.372 -0.2236 -0.1234 -0.3274
 2896DPPC   C2B56446  13.967   9.927  18.049  0.0407 -0.1254 -0.1161
 2896DPPC   C3B56447  13.525   9.986  17.809 -0.1593  0.0214 -0.0305
 2896DPPC   C4B56448  13.505  10.170  17.427 -0.0288  0.3191  0.0826
 2897DPPC   NC356449  24.287   4.060  29.599  0.1854 -0.0918  0.0332
 2897DPPC   PO456450  24.310   4.274  29.173  0.2879  0.0133  0.1011
 2897DPPC   GL156451  24.642   4.386  29.492 -0.1000 -0.3707  0.1239
 2897DPPC   GL256452  24.520   4.423  29.847 -0.0023 -0.1488  0.1331
 2897DPPC   C1A56453  24.829   4.753  29.634  0.0071 -0.1289  0.1619
 2897DPPC   C2A56454  25.286   4.948  29.567  0.0637  0.0709 -0.1321
 2897DPPC   C3A56455  25.699   5.207  29.466 -0.0046  0.1036 -0.1868
 2897DPPC   C4A56456  26.110   5.397  29.448  0.0746  0.0470 -0.1072
 2897DPPC   C1B56457  24.888   4.372  29.970 -0.3207  0.0916  0.1266
 2897DPPC   C2B56458  25.363   4.521  30.112 -0.0033 -0.0703  0.2031
 2897DPPC   C3B56459  25.624   4.867  29.859 -0.1496 -0.1941 -0.1925
 2897DPPC   C4B56460  26.035   5.091  29.826  0.2329 -0.2389  0.0746
 2898DPPC   NC356461   8.912   8.321  23.838  0.2917  0.3241 -0.0252
 2898DPPC   PO456462   8.551   8.557  23.575  0.3321 -0.1472  0.0172
 2898DPPC   GL156463   8.289   8.814  23.382 -0.0691  0.2271 -0.1885
 2898DPPC   GL256464   8.186   8.630  23.082  0.0141  0.0836 -0.0742
 2898DPPC   C1A56465   8.130   9.199  23.294 -0.0158  0.2063 -0.3182
 2898DPPC   C2A56466   8.134   9.629  23.033  0.2007  0.4205 -0.4539
 2898DPPC   C3A56467   7.730   9.914  22.925  0.0282  0.1399  0.0272
 2898DPPC   C4A56468   7.747   9.907  22.409  0.0461 -0.2281 -0.1379
 2898DPPC   C1B56469   7.796   8.862  23.275  0.0258  0.0326 -0.0559
 2898DPPC   C2B56470   7.467   9.162  23.238  0.2443  0.0375 -0.5385
 2898DPPC   C3B56471   7.110   9.212  23.119  0.2686 -0.1888  0.2514
 2898DPPC   C4B56472   6.780   9.145  22.887 -0.4991  0.1054  0.2652
 2899DPPC   NC356473   7.807   2.320  35.293  0.0920  0.0698  0.2225
 2899DPPC   PO456474   8.050   1.879  35.074 -0.1019 -0.2267 -0.1273
 2899DPPC   GL156475   7.989   2.293  34.767  0.1621  0.1858 -0.1013
 2899DPPC   GL256476   8.264   2.146  34.610 -0.5583  0.0702 -0.0008
 2899DPPC   C1A56477   7.991   2.570  34.421  0.0913  0.2657  0.0225
 2899DPPC   C2A56478   7.967   2.757  34.013 -0.3598 -0.0111 -0.1425
 2899DPPC   C3A56479   8.060   2.693  33.553 -0.0183  0.1988 -0.0546
 2899DPPC   C4A56480   8.260   2.653  33.152  0.2668  0.0620 -0.1358
 2899DPPC   C1B56481   8.455   2.395  34.305 -0.0131  0.0344 -0.0543
 2899DPPC   C2B56482   8.414   2.528  33.930  0.4341  0.1956  0.0501
 2899DPPC   C3B56483   8.576   2.607  33.531 -0.0347 -0.2753  0.0023
 2899DPPC   C4B56484   8.656   2.330  33.276  0.4405  0.0891 -0.0159
 2900DPPC   NC356485  21.678  10.828  25.945 -0.1298  0.3240  0.2882
 2900DPPC   PO456486  21.384  10.799  25.641  0.1008  0.2581 -0.1597
 2900DPPC   GL156487  21.780  11.083  25.410  0.0550 -0.2040 -0.1152
 2900DPPC   GL256488  21.808  11.062  25.052  0.1125  0.0831  0.0188
 2900DPPC   C1A56489  22.201  11.363  25.325 -0.0623  0.2261 -0.2186
 2900DPPC   C2A56490  22.372  11.254  24.902  0.2972  0.0031 -0.1891
 2900DPPC   C3A56491  22.535  11.456  24.546  0.1763  0.0762 -0.0501
 2900DPPC   C4A56492  22.462  11.738  24.276  0.0474 -0.4228 -0.1994
 2900DPPC   C1B56493  21.796  11.423  24.775  0.1244 -0.0136  0.1051
 2900DPPC   C2B56494  22.198  11.760  24.890 -0.1311 -0.0202  0.1435
 2900DPPC   C3B56495  22.493  12.020  24.720 -0.1498 -0.2703  0.2879
 2900DPPC   C4B56496  22.558  12.459  24.745  0.2273 -0.1313 -0.1313
 2901DPPC   NC356497  25.545  10.935  20.322 -0.0554 -0.0231 -0.0039
 2901DPPC   PO456498  25.632  10.781  20.771  0.1237 -0.0002 -0.1431
 2901DPPC   GL156499  25.465  10.506  21.222 -0.1503 -0.3361  0.0820
 2901DPPC   GL256500  25.399  10.751  21.455 -0.0348 -0.3168 -0.1928
 2901DPPC   C1A56501  25.272  10.164  21.298 -0.0716  0.1878 -0.1797
 2901DPPC   C2A56502  25.118   9.835  21.402  0.2878  0.5528 -0.1606
 2901DPPC   C3A56503  25.011   9.500  21.183 -0.4584  0.0656  0.2511
 2901DPPC   C4A56504  24.605   9.207  21.356 -0.3620 -0.2800 -0.0445
 2901DPPC   C1B56505  25.188  10.420  21.711 -0.0079 -0.2048  0.1877
 2901DPPC   C2B56506  24.809  10.366  22.028 -0.2385  0.0011 -0.3927
 2901DPPC   C3B56507  24.782  10.247  22.461  0.0393  0.0604 -0.1070
 2901DPPC   C4B56508  24.330  10.168  22.628 -0.2524  0.0354 -0.0595
 2902DPPC   NC356509  21.555  -3.640  10.189  0.1443  0.0427  0.0956
 2902DPPC   PO456510  21.469  -3.376   9.875  0.2137  0.2374  0.3526
 2902DPPC   GL156511  21.316  -3.232  10.260 -0.3187  0.2571 -0.1442
 2902DPPC   GL256512  21.268  -3.409  10.609  0.2248 -0.1963  0.1667
 2902DPPC   C1A56513  21.217  -2.865  10.461 -0.3554  0.0672 -0.0563
 2902DPPC   C2A56514  21.116  -2.738  10.819  0.1756  0.2450 -0.0295
 2902DPPC   C3A56515  21.038  -2.686  11.178  0.0494  0.0634  0.1007
 2902DPPC   C4A56516  20.751  -2.908  11.507 -0.3192 -0.0552  0.1079
 2902DPPC   C1B56517  21.113  -3.794  10.752  0.0890 -0.0650 -0.2747
 2902DPPC   C2B56518  20.973  -3.730  11.259 -0.2026 -0.0264  0.2804
 2902DPPC   C3B56519  20.912  -3.822  11.763 -0.0451  0.1193 -0.0014
 2902DPPC   C4B56520  20.703  -3.573  12.024  0.2090  0.2028  0.1067
 2903DPPC   NC356521  25.067  13.255  25.682  0.1455 -0.1746 -0.1580
 2903DPPC   PO456522  24.919  13.210  25.295 -0.2348  0.4705 -0.0637
 2903DPPC   GL156523  24.621  12.976  25.432  0.1758  0.1488  0.2552
 2903DPPC   GL256524  24.307  12.832  25.312  0.0853 -0.0769  0.1322
 2903DPPC   C1A56525  24.296  12.848  25.772  0.0467  0.2188  0.0483
 2903DPPC   C2A56526  23.880  12.974  26.031 -0.0750 -0.2333  0.0488
 2903DPPC   C3A56527  23.663  13.045  26.455  0.0357 -0.2293  0.3565
 2903DPPC   C4A56528  23.685  13.375  26.691  0.1525  0.3365 -0.0041
 2903DPPC   C1B56529  24.335  12.457  25.300 -0.2031 -0.0584 -0.2194
 2903DPPC   C2B56530  23.964  12.095  25.487  0.2610  0.2534 -0.2615
 2903DPPC   C3B56531  23.561  11.956  25.381 -0.1118 -0.0780 -0.1524
 2903DPPC   C4B56532  23.247  12.011  25.612  0.1439  0.3125 -0.0960
 2904DPPC   NC356533  14.464  -3.191  28.761 -0.1072  0.1709 -0.2499
 2904DPPC   PO456534  14.036  -2.972  28.806  0.3226 -0.0288  0.0622
 2904DPPC   GL156535  13.915  -3.148  29.199  0.2356 -0.4476  0.0531
 2904DPPC   GL256536  14.145  -3.357  29.201 -0.1808 -0.0175  0.5100
 2904DPPC   C1A56537  13.835  -3.530  29.484  0.0210 -0.1083 -0.0808
 2904DPPC   C2A56538  13.674  -3.854  29.784  0.1704  0.1906  0.0499
 2904DPPC   C3A56539  13.523  -4.045  30.123  0.3832 -0.0924  0.0999
 2904DPPC   C4A56540  13.487  -4.311  30.489 -0.1243  0.1104  0.2027
 2904DPPC   C1B56541  14.378  -3.335  29.590  0.1302  0.2710 -0.1207
 2904DPPC   C2B56542  14.610  -3.656  29.852 -0.1218 -0.0522  0.1867
 2904DPPC   C3B56543  15.056  -3.766  29.885 -0.2299 -0.0514 -0.2024
 2904DPPC   C4B56544  15.445  -3.988  29.732  0.3476  0.1239 -0.4317
 2905DPPC   NC356545   8.498   5.778  20.985 -0.0827  0.5025 -0.1106
 2905DPPC   PO456546   8.174   5.580  21.094 -0.0436 -0.0711  0.3351
 2905DPPC   GL156547   7.980   5.817  20.897 -0.4628  0.1231  0.1534
 2905DPPC   GL256548   7.590   5.794  20.937 -0.0473  0.3565 -0.0982
 2905DPPC   C1A56549   7.745   5.974  20.504  0.1232 -0.0958  0.2165
 2905DPPC   C2A56550   7.921   5.941  20.190 -0.0119 -0.2629  0.1297
 2905DPPC   C3A56551   7.890   6.030  19.745  0.2081  0.4045  0.2656
 2905DPPC   C4A56552   7.704   5.969  19.330 -0.1215  0.0845  0.0326
 2905DPPC   C1B56553   7.546   6.036  21.214  0.2886  0.1525  0.0067
 2905DPPC   C2B56554   7.218   6.420  21.116 -0.1008 -0.1659 -0.2734
 2905DPPC   C3B56555   6.802   6.608  21.120  0.0952 -0.2188  0.0343
 2905DPPC   C4B56556   6.388   6.553  21.089  0.1523  0.0696  0.0091
 2906DPPC   NC356557  22.452   6.124  20.312  0.0446 -0.1083  0.1479
 2906DPPC   PO456558  22.831   5.957  20.264 -0.0594 -0.0810  0.1294
 2906DPPC   GL156559  22.882   6.404  20.103  0.0666  0.1700  0.0643
 2906DPPC   GL256560  23.213   6.479  20.027 -0.2103  0.3920 -0.0500
 2906DPPC   C1A56561  22.943   6.813  19.857 -0.0887  0.2082  0.2329
 2906DPPC   C2A56562  23.182   7.151  19.674  0.3564 -0.1766  0.2005
 2906DPPC   C3A56563  23.354   7.575  19.526 -0.2902 -0.0665  0.0792
 2906DPPC   C4A56564  23.729   7.677  19.576  0.1163  0.2201  0.1600
 2906DPPC   C1B56565  23.610   6.492  19.822  0.2107 -0.4008 -0.1293
 2906DPPC   C2B56566  23.829   6.341  19.497 -0.1700  0.3049  0.2671
 2906DPPC   C3B56567  24.120   5.985  19.404  0.1000  0.0451  0.1913
 2906DPPC   C4B56568  24.527   5.941  19.296  0.0049  0.1386 -0.0325
 2907DPPC   NC356569  14.793  12.688  27.145 -0.1380 -0.1438  0.3177
 2907DPPC   PO456570  14.945  12.456  27.477 -0.0183  0.1376  0.0236
 2907DPPC   GL156571  15.172  12.902  27.439 -0.3025  0.5359  0.1262
 2907DPPC   GL256572  15.060  13.204  27.513  0.0018  0.3428 -0.0836
 2907DPPC   C1A56573  15.347  13.178  27.137  0.0431 -0.1289  0.3113
 2907DPPC   C2A56574  15.375  13.588  27.044 -0.4443 -0.0800 -0.0428
 2907DPPC   C3A56575  15.575  14.020  27.029  0.0326  0.1186  0.1977
 2907DPPC   C4A56576  15.770  14.459  26.985 -0.1959  0.1697 -0.2542
 2907DPPC   C1B56577  15.112  13.612  27.534  0.3011  0.2448  0.2457
 2907DPPC   C2B56578  15.214  13.971  27.854  0.2998 -0.1586  0.4071
 2907DPPC   C3B56579  15.314  14.327  28.085 -0.0988  0.0829  0.2098
 2907DPPC   C4B56580  15.739  14.511  28.278 -0.1531 -0.1372  0.1965
 2908DPPC   NC356581   7.446   6.672  34.787  0.3378 -0.0472 -0.0455
 2908DPPC   PO456582   7.194   6.840  34.488 -0.0724  0.1709  0.1744
 2908DPPC   GL156583   7.153   6.893  34.109 -0.1597  0.1124 -0.1941
 2908DPPC   GL256584   7.052   7.101  33.876  0.3330  0.0010 -0.1104
 2908DPPC   C1A56585   7.517   6.914  33.916 -0.0354 -0.1907  0.1449
 2908DPPC   C2A56586   7.647   6.740  33.573  0.2225 -0.1120  0.1097
 2908DPPC   C3A56587   7.377   6.894  33.178 -0.0982  0.2321  0.1037
 2908DPPC   C4A56588   7.455   7.103  32.753 -0.3708 -0.0425 -0.4408
 2908DPPC   C1B56589   7.055   6.681  33.615  0.0638 -0.3514  0.0579
 2908DPPC   C2B56590   7.337   6.421  33.396  0.1137 -0.2421 -0.0444
 2908DPPC   C3B56591   7.599   6.465  33.062  0.2897 -0.0887  0.0262
 2908DPPC   C4B56592   8.050   6.482  32.961 -0.3027 -0.0435 -0.0101
 2909DPPC   NC356593  19.113   6.327  32.549 -0.0072  0.0689  0.0326
 2909DPPC   PO456594  19.058   6.794  32.810 -0.1535 -0.1319 -0.0692
 2909DPPC   GL156595  19.212   6.944  33.208 -0.0844  0.0314 -0.4444
 2909DPPC   GL256596  19.185   6.958  33.524 -0.2732  0.2217  0.1181
 2909DPPC   C1A56597  19.593   7.082  33.383  0.2460 -0.3215 -0.0039
 2909DPPC   C2A56598  19.828   7.301  33.640  0.0385 -0.0378  0.2972
 2909DPPC   C3A56599  19.739   7.498  33.977 -0.0631 -0.0606 -0.3171
 2909DPPC   C4A56600  19.837   7.725  34.326 -0.0594 -0.0931 -0.1142
 2909DPPC   C1B56601  19.352   7.129  33.898  0.1759  0.2788  0.3877
 2909DPPC   C2B56602  19.286   7.206  34.293  0.1679 -0.1454 -0.0583
 2909DPPC   C3B56603  19.725   7.255  34.393  0.1084 -0.1444  0.2890
 2909DPPC   C4B56604  19.958   6.925  34.579  0.0935  0.0797  0.0043
 2910DPPC   NC356605  23.927  -0.564  24.401  0.0685 -0.0178  0.1327
 2910DPPC   PO456606  23.667  -0.738  24.721  0.0449  0.0582  0.1081
 2910DPPC   GL156607  24.067  -0.959  24.694 -0.1026  0.2198 -0.0390
 2910DPPC   GL256608  24.275  -0.965  24.285 -0.3291 -0.1906  0.0556
 2910DPPC   C1A56609  24.202  -1.380  24.733 -0.3776  0.0812  0.1338
 2910DPPC   C2A56610  24.617  -1.600  24.676  0.0637  0.1768 -0.1353
 2910DPPC   C3A56611  24.802  -1.857  24.439  0.1780  0.2140  0.0882
 2910DPPC   C4A56612  24.870  -2.194  24.119 -0.3709  0.0481 -0.2195
 2910DPPC   C1B56613  24.567  -1.210  24.310 -0.2683 -0.0878 -0.1524
 2910DPPC   C2B56614  24.888  -1.385  24.241  0.1598  0.2620 -0.0393
 2910DPPC   C3B56615  25.208  -1.542  24.196 -0.0503  0.1164 -0.0833
 2910DPPC   C4B56616  25.606  -1.607  24.220 -0.2642  0.1166  0.1023
 2911DPPC   NC356617  13.462   8.527  31.879 -0.0249  0.0761  0.2182
 2911DPPC   PO456618  13.541   8.753  32.303 -0.1738  0.2933  0.2084
 2911DPPC   GL156619  13.265   9.121  32.453 -0.1314 -0.1463 -0.0963
 2911DPPC   GL256620  13.278   9.086  32.940  0.1169  0.1796 -0.1612
 2911DPPC   C1A56621  12.927   9.401  32.720 -0.1674  0.1263 -0.4887
 2911DPPC   C2A56622  12.963   9.769  32.883  0.0493  0.2785  0.1214
 2911DPPC   C3A56623  12.782  10.123  33.083 -0.0652  0.2622  0.2718
 2911DPPC   C4A56624  12.874  10.525  33.173  0.2644  0.2535  0.4317
 2911DPPC   C1B56625  13.079   9.421  33.323 -0.2693 -0.1015  0.0547
 2911DPPC   C2B56626  12.921   9.587  33.636 -0.0109  0.0099 -0.0722
 2911DPPC   C3B56627  12.867   9.579  34.149 -0.1848  0.2961  0.2005
 2911DPPC   C4B56628  12.720   9.287  34.504  0.1276  0.1335  0.0089
 2912DPPC   NC356629   9.801  10.630  17.617  0.1418  0.0017  0.2285
 2912DPPC   PO456630   9.910  10.626  17.194 -0.1985  0.1959  0.1353
 2912DPPC   GL156631  10.183  10.403  17.420 -0.2446 -0.1745  0.1296
 2912DPPC   GL256632  10.491  10.377  17.195 -0.0900  0.1354 -0.0908
 2912DPPC   C1A56633  10.320  10.234  17.737 -0.2006 -0.0256 -0.0838
 2912DPPC   C2A56634  10.447   9.877  18.079  0.0410 -0.0536 -0.2907
 2912DPPC   C3A56635  10.601   9.505  18.188  0.0183  0.0814 -0.0377
 2912DPPC   C4A56636  11.042   9.401  18.250 -0.1801  0.0103 -0.0339
 2912DPPC   C1B56637  10.748  10.384  17.526 -0.0713  0.1568  0.2963
 2912DPPC   C2B56638  10.867  10.046  17.728 -0.0928 -0.3284  0.1493
 2912DPPC   C3B56639  11.056   9.828  17.993 -0.0459 -0.1111  0.1012
 2912DPPC   C4B56640  11.454   9.668  17.943  0.1045 -0.2695  0.2437
 2913DPPC   NC356641   8.512   7.512  23.063 -0.1992  0.0219 -0.0200
 2913DPPC   PO456642   8.222   7.626  23.246 -0.0086  0.0030 -0.2586
 2913DPPC   GL156643   7.777   7.712  23.245 -0.0248 -0.2993 -0.1003
 2913DPPC   GL256644   7.544   7.750  23.548 -0.1041 -0.0515  0.0973
 2913DPPC   C1A56645   7.391   7.893  23.049  0.3690  0.0793 -0.2544
 2913DPPC   C2A56646   7.314   8.170  22.794 -0.1068 -0.0788  0.2443
 2913DPPC   C3A56647   7.182   8.412  22.542  0.3073 -0.0610 -0.0760
 2913DPPC   C4A56648   6.923   8.815  22.499  0.0103 -0.1189 -0.0076
 2913DPPC   C1B56649   7.108   7.788  23.476 -0.1405  0.1445 -0.1913
 2913DPPC   C2B56650   6.777   8.096  23.577 -0.2155  0.3644 -0.3237
 2913DPPC   C3B56651   6.675   8.519  23.496 -0.0612 -0.1867 -0.0415
 2913DPPC   C4B56652   6.775   8.933  23.352 -0.0767  0.0928 -0.2495
 2914DPPC   NC356653  13.886  -3.169  13.398 -0.2507 -0.3797  0.1101
 2914DPPC   PO456654  13.743  -3.443  13.663 -0.0620  0.0632  0.0759
 2914DPPC   GL156655  14.082  -3.064  13.814  0.3088 -0.2695 -0.1174
 2914DPPC   GL256656  13.976  -2.739  13.999 -0.1985 -0.1307 -0.0836
 2914DPPC   C1A56657  14.461  -2.883  13.982 -0.2420  0.0956 -0.1841
 2914DPPC   C2A56658  14.871  -2.886  14.022 -0.1513  0.3823 -0.1446
 2914DPPC   C3A56659  15.385  -2.986  14.294  0.1296  0.1393 -0.3333
 2914DPPC   C4A56660  15.652  -3.308  14.138  0.0218 -0.1588  0.1395
 2914DPPC   C1B56661  14.261  -2.478  14.329  0.1864 -0.2551  0.4077
 2914DPPC   C2B56662  14.478  -2.278  14.536 -0.1292 -0.5029 -0.0500
 2914DPPC   C3B56663  14.788  -2.436  14.869 -0.1248  0.0021 -0.2977
 2914DPPC   C4B56664  14.933  -2.698  15.315  0.0802 -0.1900  0.0712
 2915DPPC   NC356665  27.895   7.475  30.003 -0.2044 -0.0616  0.0693
 2915DPPC   PO456666  27.903   7.073  29.811  0.1230 -0.1214 -0.0729
 2915DPPC   GL156667  27.560   7.193  29.826 -0.0501 -0.0476 -0.3123
 2915DPPC   GL256668  27.582   7.372  29.504 -0.1443  0.1009  0.0787
 2915DPPC   C1A56669  27.125   7.025  29.959 -0.3178 -0.0764 -0.0734
 2915DPPC   C2A56670  26.830   7.270  29.756 -0.1762  0.2505  0.1623
 2915DPPC   C3A56671  26.350   7.330  29.667 -0.0537 -0.3653 -0.0324
 2915DPPC   C4A56672  25.820   7.339  29.609 -0.1348  0.1763  0.2196
 2915DPPC   C1B56673  27.185   7.334  29.398 -0.1324 -0.3273  0.0110
 2915DPPC   C2B56674  26.789   7.343  29.167  0.0857  0.2122 -0.0045
 2915DPPC   C3B56675  26.522   7.120  28.820  0.0698 -0.0575  0.3784
 2915DPPC   C4B56676  26.224   6.881  28.732  0.0938  0.2300 -0.1872
 2916DPPC   NC356677  16.036  11.133  30.544  0.0851  0.0218 -0.2582
 2916DPPC   PO456678  15.677  11.186  30.391 -0.1303 -0.0320  0.1557
 2916DPPC   GL156679  15.931  11.629  30.479  0.0194  0.2410  0.1905
 2916DPPC   GL256680  15.799  11.901  30.287  0.1083  0.0070  0.1935
 2916DPPC   C1A56681  16.147  11.856  30.766 -0.1199  0.0685  0.0142
 2916DPPC   C2A56682  16.050  12.083  31.069  0.2038  0.0824  0.1655
 2916DPPC   C3A56683  16.159  12.468  31.347  0.0328  0.0295 -0.1300
 2916DPPC   C4A56684  15.881  12.816  31.522 -0.0470  0.2523  0.4326
 2916DPPC   C1B56685  15.760  12.295  30.633 -0.1653 -0.0428  0.0749
 2916DPPC   C2B56686  16.013  12.574  30.855 -0.1484 -0.1459  0.2272
 2916DPPC   C3B56687  16.108  12.954  31.062  0.1699  0.1093 -0.2617
 2916DPPC   C4B56688  16.074  13.318  31.473 -0.4641 -0.0124 -0.2754
 2917DPPC   NC356689   8.947   9.420  28.136  0.0046  0.2726  0.1563
 2917DPPC   PO456690   8.566   9.696  28.035  0.0129 -0.0486 -0.2311
 2917DPPC   GL156691   8.238   9.600  27.922  0.2662 -0.0948  0.1115
 2917DPPC   GL256692   8.131   9.778  27.630 -0.1272 -0.2937  0.0360
 2917DPPC   C1A56693   7.790   9.808  28.005 -0.0115  0.2158 -0.1530
 2917DPPC   C2A56694   7.366  10.035  28.080  0.0633  0.0762  0.4084
 2917DPPC   C3A56695   7.252  10.384  28.140  0.2635  0.0853  0.0931
 2917DPPC   C4A56696   7.038  10.723  28.031  0.3312 -0.0469  0.2651
 2917DPPC   C1B56697   8.150  10.138  27.332 -0.0562 -0.0374  0.4755
 2917DPPC   C2B56698   7.901  10.488  27.260 -0.1927 -0.0160  0.2569
 2917DPPC   C3B56699   7.731  10.844  26.926 -0.1237  0.2055 -0.2066
 2917DPPC   C4B56700   7.529  11.226  26.854  0.2272  0.4218  0.3374
 2918DPPC   NC356701  23.560   7.778  34.765  0.3295  0.0381 -0.0733
 2918DPPC   PO456702  23.888   7.565  34.713 -0.3988 -0.4350  0.1355
 2918DPPC   GL156703  23.629   7.375  34.432 -0.0438  0.0152  0.3815
 2918DPPC   GL256704  23.301   7.500  34.338  0.1653  0.0692  0.1015
 2918DPPC   C1A56705  23.547   7.022  34.149 -0.0915  0.0647 -0.3830
 2918DPPC   C2A56706  23.390   6.862  33.774  0.2039 -0.3418 -0.1691
 2918DPPC   C3A56707  23.000   6.677  33.796 -0.1406  0.0282  0.3004
 2918DPPC   C4A56708  22.577   6.778  33.941  0.2248  0.2026 -0.2369
 2918DPPC   C1B56709  23.419   7.448  33.882 -0.2137  0.1039 -0.3788
 2918DPPC   C2B56710  23.772   7.143  33.670 -0.1026  0.0332 -0.0908
 2918DPPC   C3B56711  23.715   7.010  33.268 -0.2731  0.0710 -0.0411
 2918DPPC   C4B56712  23.866   6.852  32.780  0.0667 -0.0726  0.0811
 2919DPPC   NC356713   9.758  12.531  33.509  0.1236 -0.2223 -0.0347
 2919DPPC   PO456714   9.579  12.236  33.615 -0.0275 -0.0889 -0.0475
 2919DPPC   GL156715   9.868  11.848  33.680 -0.2382 -0.0622  0.2330
 2919DPPC   GL256716  10.288  11.885  33.510  0.0682  0.1167 -0.0788
 2919DPPC   C1A56717  10.051  11.448  33.602 -0.1057 -0.1464  0.3339
 2919DPPC   C2A56718  10.076  11.056  33.349 -0.1101  0.3289  0.0064
 2919DPPC   C3A56719  10.215  10.638  33.129 -0.0984  0.0051  0.1100
 2919DPPC   C4A56720  10.608  10.427  33.263  0.0172 -0.1085  0.1947
 2919DPPC   C1B56721  10.444  12.066  33.097 -0.0358 -0.0635 -0.0551
 2919DPPC   C2B56722  10.617  11.969  32.708 -0.3952 -0.0234  0.1850
 2919DPPC   C3B56723  10.561  11.583  32.458 -0.3621  0.5932 -0.1539
 2919DPPC   C4B56724  10.424  11.238  32.298  0.0539  0.0213 -0.1957
 2920DPPC   NC356725  16.988   6.236  12.384  0.1702 -0.1447 -0.0321
 2920DPPC   PO456726  17.021   5.876  12.636  0.0106 -0.0640 -0.0196
 2920DPPC   GL156727  17.111   5.689  12.916  0.2543 -0.0521  0.0848
 2920DPPC   GL256728  17.434   5.625  12.944  0.0163 -0.1866  0.0735
 2920DPPC   C1A56729  17.221   5.411  13.394 -0.0292  0.1090  0.1266
 2920DPPC   C2A56730  17.323   5.681  13.740  0.0797  0.0025  0.2302
 2920DPPC   C3A56731  17.400   5.820  14.025 -0.1051 -0.2306  0.1455
 2920DPPC   C4A56732  17.229   5.841  14.487 -0.0282  0.0287 -0.0381
 2920DPPC   C1B56733  17.634   5.757  13.307  0.1061  0.0260  0.1346
 2920DPPC   C2B56734  17.714   6.048  13.582  0.1026  0.1662  0.0895
 2920DPPC   C3B56735  17.399   6.276  13.854  0.1136 -0.3268  0.1610
 2920DPPC   C4B56736  17.229   6.303  14.253 -0.3313  0.1200  0.1749
 2921DPPC   NC356737  18.450  11.130  22.892  0.0468 -0.0852 -0.1103
 2921DPPC   PO456738  18.030  10.994  22.685 -0.0018 -0.0840 -0.0827
 2921DPPC   GL156739  18.020  11.316  22.486  0.1759  0.3539  0.1514
 2921DPPC   GL256740  17.843  11.396  22.224  0.1578 -0.0800  0.0038
 2921DPPC   C1A56741  18.117  11.742  22.340 -0.2385 -0.1454 -0.2099
 2921DPPC   C2A56742  17.962  12.132  22.306 -0.2409 -0.3664 -0.1642
 2921DPPC   C3A56743  18.102  12.534  22.146  0.2288 -0.1969  0.0175
 2921DPPC   C4A56744  18.375  12.826  22.138 -0.0153  0.0385  0.0925
 2921DPPC   C1B56745  17.545  11.812  22.314 -0.0702 -0.0244  0.0111
 2921DPPC   C2B56746  17.509  12.220  22.221  0.1061 -0.2160  0.2743
 2921DPPC   C3B56747  17.634  12.640  21.919 -0.0787  0.1826 -0.2403
 2921DPPC   C4B56748  17.670  12.798  21.422 -0.1945  0.1181  0.0769
 2922DPPC   NC356749  18.108   8.433  18.393 -0.0188 -0.0994 -0.1835
 2922DPPC   PO456750  18.337   8.097  18.555  0.0695  0.4514  0.0888
 2922DPPC   GL156751  18.485   8.159  18.119  0.1265  0.0148 -0.3436
 2922DPPC   GL256752  18.147   8.004  18.027 -0.1175 -0.1031  0.1432
 2922DPPC   C1A56753  18.642   8.399  17.910 -0.2180  0.1520 -0.1769
 2922DPPC   C2A56754  18.703   8.631  17.457  0.1237 -0.0128  0.3801
 2922DPPC   C3A56755  18.543   9.032  17.227  0.3842  0.2374 -0.0226
 2922DPPC   C4A56756  18.460   9.193  16.842 -0.2944 -0.1061  0.0372
 2922DPPC   C1B56757  18.266   8.237  17.667 -0.0905  0.1386  0.0756
 2922DPPC   C2B56758  18.217   8.614  17.381  0.0201 -0.2877  0.2692
 2922DPPC   C3B56759  18.097   9.115  17.405  0.0852 -0.0023  0.0447
 2922DPPC   C4B56760  18.306   9.484  17.214  0.0104  0.1668 -0.1831
 2923DPPC   NC356761   5.887  -2.045  30.831  0.0039  0.2030  0.1786
 2923DPPC   PO456762   6.125  -2.121  30.450 -0.3614  0.2035 -0.3139
 2923DPPC   GL156763   6.541  -1.927  30.357 -0.2329  0.1884  0.1964
 2923DPPC   GL256764   6.527  -1.584  30.546  0.2375 -0.3216 -0.2180
 2923DPPC   C1A56765   7.012  -1.895  30.201  0.2724  0.3048  0.0587
 2923DPPC   C2A56766   7.277  -1.680  29.943 -0.0926  0.2771  0.5164
 2923DPPC   C3A56767   7.711  -1.664  29.832  0.0179  0.0153 -0.0241
 2923DPPC   C4A56768   8.182  -1.543  29.861 -0.1446  0.3446 -0.2154
 2923DPPC   C1B56769   6.896  -1.483  30.476 -0.2091  0.0157 -0.2779
 2923DPPC   C2B56770   7.190  -1.303  30.341 -0.2099 -0.3272  0.3983
 2923DPPC   C3B56771   7.338  -0.939  30.133 -0.1927  0.3626  0.1142
 2923DPPC   C4B56772   7.144  -0.667  30.160 -0.1017 -0.1075  0.1533
 2924DPPC   NC356773  19.396  11.100  28.225 -0.2756  0.1204 -0.2731
 2924DPPC   PO456774  19.553  10.935  27.869  0.5295  0.0676  0.1219
 2924DPPC   GL156775  19.774  11.322  27.849  0.1457  0.1219 -0.2447
 2924DPPC   GL256776  19.987  11.274  27.626 -0.1673 -0.0099 -0.1152
 2924DPPC   C1A56777  19.821  11.767  27.874  0.0550  0.1641  0.1509
 2924DPPC   C2A56778  19.854  12.197  27.883 -0.2315 -0.1143 -0.3191
 2924DPPC   C3A56779  20.221  12.416  27.936  0.2017 -0.0895 -0.1317
 2924DPPC   C4A56780  20.405  12.857  27.846  0.0069  0.1040 -0.1205
 2924DPPC   C1B56781  20.326  11.501  27.567  0.0312  0.2910  0.1965
 2924DPPC   C2B56782  20.150  11.969  27.463 -0.3618  0.0274  0.4068
 2924DPPC   C3B56783  20.320  12.356  27.397 -0.0389  0.1803  0.1356
 2924DPPC   C4B56784  20.195  12.733  27.366 -0.0482 -0.1697 -0.1638
 2925DPPC   NC356785  12.686  16.544  24.931  0.3293 -0.1996  0.1049
 2925DPPC   PO456786  12.814  16.202  24.535  0.0878  0.2034  0.3314
 2925DPPC   GL156787  13.047  15.921  24.478  0.5546 -0.2786  0.2101
 2925DPPC   GL256788  13.310  16.048  24.223  0.1095 -0.0436 -0.2093
 2925DPPC   C1A56789  12.901  15.530  24.505 -0.1951  0.1038 -0.0578
 2925DPPC   C2A56790  12.678  15.236  24.742 -0.2731  0.3530 -0.1942
 2925DPPC   C3A56791  12.637  14.762  24.819 -0.2014 -0.1603 -0.0757
 2925DPPC   C4A56792  12.749  14.357  24.963  0.0386 -0.0053 -0.3485
 2925DPPC   C1B56793  13.487  15.608  24.294  0.1600 -0.1200  0.2372
 2925DPPC   C2B56794  13.313  15.226  24.344  0.0518 -0.4171  0.4155
 2925DPPC   C3B56795  13.543  14.852  24.225 -0.0165  0.2828 -0.0775
 2925DPPC   C4B56796  13.763  14.497  23.988 -0.1455 -0.1482 -0.0358
 2926DPPC   NC356797  20.054  -0.175  20.652 -0.1220  0.1025 -0.0898
 2926DPPC   PO456798  20.328  -0.421  20.567 -0.2150 -0.0465  0.0121
 2926DPPC   GL156799  20.328  -0.675  20.176 -0.2632  0.2938  0.2932
 2926DPPC   GL256800  20.302  -0.984  20.334  0.1982  0.0796 -0.0291
 2926DPPC   C1A56801  20.328  -0.871  19.741 -0.0262 -0.0181  0.2647
 2926DPPC   C2A56802  20.137  -0.714  19.386 -0.0115 -0.2568  0.1622
 2926DPPC   C3A56803  19.781  -0.839  19.258  0.1433 -0.0352 -0.0721
 2926DPPC   C4A56804  19.387  -0.518  19.170 -0.0118 -0.2693 -0.0073
 2926DPPC   C1B56805  20.210  -1.414  20.268  0.1363  0.2271  0.1385
 2926DPPC   C2B56806  20.210  -1.697  20.003 -0.2198  0.2577  0.2214
 2926DPPC   C3B56807  20.395  -1.998  20.090  0.2873  0.0248 -0.1090
 2926DPPC   C4B56808  20.225  -2.233  20.493  0.1400  0.4204 -0.0857
 2927DPPC   NC356809  11.851  -2.769  27.379 -0.0096  0.1029  0.2651
 2927DPPC   PO456810  11.647  -3.024  27.720 -0.1782 -0.1134 -0.0313
 2927DPPC   GL156811  11.248  -3.047  27.885 -0.2056  0.0040  0.2898
 2927DPPC   GL256812  11.385  -3.152  28.191 -0.2704  0.1042 -0.1540
 2927DPPC   C1A56813  10.907  -3.257  27.933  0.1804  0.2186 -0.1421
 2927DPPC   C2A56814  10.528  -3.581  27.931 -0.3567 -0.0335  0.3149
 2927DPPC   C3A56815  10.405  -3.882  27.714  0.3276  0.1059 -0.0357
 2927DPPC   C4A56816  10.282  -4.262  27.621  0.0786  0.5114 -0.1678
 2927DPPC   C1B56817  11.213  -3.595  28.229 -0.3364 -0.2322  0.4145
 2927DPPC   C2B56818  10.885  -3.893  28.132 -0.2419 -0.1299  0.2198
 2927DPPC   C3B56819  10.632  -4.262  28.153  0.1289  0.1407 -0.4151
 2927DPPC   C4B56820  10.590  -4.710  28.087 -0.0606 -0.1244  0.4366
 2928DPPC   NC356821  11.630   2.321  32.533 -0.2211 -0.2693  0.0481
 2928DPPC   PO456822  11.978   2.065  32.487 -0.0268 -0.1314  0.0275
 2928DPPC   GL156823  11.719   1.861  32.843 -0.0238  0.1148 -0.0727
 2928DPPC   GL256824  11.866   1.689  33.040  0.3153  0.2685  0.1011
 2928DPPC   C1A56825  11.333   1.646  32.873  0.0706  0.0072  0.0380
 2928DPPC   C2A56826  11.026   1.331  32.921  0.1286 -0.0356 -0.1788
 2928DPPC   C3A56827  11.004   1.055  33.310  0.3224 -0.1677  0.1663
 2928DPPC   C4A56828  10.934   0.812  33.696 -0.1067 -0.1982 -0.2226
 2928DPPC   C1B56829  11.885   1.585  33.444  0.2042 -0.1842 -0.1975
 2928DPPC   C2B56830  11.783   1.256  33.757 -0.1665  0.4249  0.3157
 2928DPPC   C3B56831  11.825   1.056  34.176 -0.2097 -0.5052  0.0413
 2928DPPC   C4B56832  12.177   0.789  34.001 -0.0095  0.0722  0.0043
 2929DPPC   NC356833   2.719   3.538  23.162 -0.3225  0.3103 -0.0977
 2929DPPC   PO456834   3.178   3.549  23.270  0.2903 -0.1660  0.5160
 2929DPPC   GL156835   3.574   3.534  23.343  0.0017  0.2405  0.1067
 2929DPPC   GL256836   3.773   3.813  23.361 -0.1030 -0.0628  0.0494
 2929DPPC   C1A56837   3.954   3.396  22.991 -0.3373  0.0135 -0.1790
 2929DPPC   C2A56838   4.313   3.525  22.679 -0.0343 -0.1732  0.1973
 2929DPPC   C3A56839   4.639   3.501  22.439  0.4316 -0.0211  0.0615
 2929DPPC   C4A56840   4.884   3.121  22.299 -0.2257  0.0739  0.4501
 2929DPPC   C1B56841   4.076   3.589  23.494  0.2528 -0.2274 -0.0895
 2929DPPC   C2B56842   4.436   3.479  23.303 -0.1279 -0.0814 -0.1618
 2929DPPC   C3B56843   4.935   3.428  23.298  0.3414 -0.0458  0.0579
 2929DPPC   C4B56844   5.298   3.229  23.111  0.1001  0.0793  0.4769
 2930DPPC   NC356845   7.113  -5.721  27.784 -0.2950  0.1205  0.0285
 2930DPPC   PO456846   7.543  -5.620  27.845 -0.3052  0.3709 -0.1693
 2930DPPC   GL156847   7.778  -5.309  27.546  0.1230  0.1439  0.1287
 2930DPPC   GL256848   8.156  -5.318  27.633  0.1838  0.2545  0.0477
 2930DPPC   C1A56849   7.560  -5.137  27.179  0.0018 -0.2216  0.2954
 2930DPPC   C2A56850   7.676  -4.775  26.950 -0.0247  0.2991  0.1271
 2930DPPC   C3A56851   7.627  -4.298  26.932 -0.1204 -0.2355 -0.2575
 2930DPPC   C4A56852   7.587  -3.851  26.946  0.2033  0.0141 -0.1776
 2930DPPC   C1B56853   8.210  -4.765  27.392  0.0915 -0.1359  0.2505
 2930DPPC   C2B56854   8.509  -4.517  27.519 -0.1033  0.0758  0.0951
 2930DPPC   C3B56855   9.034  -4.328  27.488  0.2100  0.0929 -0.1413
 2930DPPC   C4B56856   9.115  -3.989  27.783 -0.6391 -0.1140  0.0385
 2931DPPC   NC356857  24.781   2.119  25.418  0.1345  0.1132 -0.1732
 2931DPPC   PO456858  24.776   2.479  25.629 -0.1797 -0.3896  0.3664
 2931DPPC   GL156859  25.207   2.356  25.558  0.0274  0.0656  0.0706
 2931DPPC   GL256860  25.579   2.471  25.428  0.0390  0.0029 -0.1435
 2931DPPC   C1A56861  25.590   2.029  25.567 -0.2574  0.0754 -0.1267
 2931DPPC   C2A56862  25.965   1.757  25.578 -0.0044  0.0981 -0.0072
 2931DPPC   C3A56863  26.408   1.604  25.448  0.0944 -0.3173 -0.1274
 2931DPPC   C4A56864  26.770   1.694  25.636  0.0520 -0.2361 -0.0413
 2931DPPC   C1B56865  25.935   2.519  25.155 -0.4180 -0.1325 -0.3358
 2931DPPC   C2B56866  26.206   2.757  24.949 -0.1318  0.0109  0.0466
 2931DPPC   C3B56867  26.614   2.740  24.628 -0.4391  0.0003  0.2200
 2931DPPC   C4B56868  26.779   2.427  24.272  0.0815 -0.1350 -0.1964
 2932DPPC   NC356869   9.378   7.288  21.264 -0.4943  0.0401 -0.0017
 2932DPPC   PO456870   9.320   6.860  20.948 -0.0114 -0.1012  0.2553
 2932DPPC   GL156871   9.232   7.277  20.773  0.1507 -0.1349 -0.1117
 2932DPPC   GL256872   8.990   7.494  21.008  0.0512 -0.4830 -0.2210
 2932DPPC   C1A56873   9.160   7.676  20.525 -0.2408 -0.0496  0.0446
 2932DPPC   C2A56874   9.188   8.074  20.214 -0.2294 -0.1867 -0.0036
 2932DPPC   C3A56875   9.216   8.543  20.243 -0.1753 -0.1061  0.1799
 2932DPPC   C4A56876   9.300   9.019  20.391  0.3698  0.0279 -0.1744
 2932DPPC   C1B56877   8.773   7.759  20.829  0.0925 -0.3599 -0.2449
 2932DPPC   C2B56878   8.391   7.947  20.678  0.1054  0.1390  0.2080
 2932DPPC   C3B56879   7.932   7.842  20.581 -0.0824  0.1709  0.2345
 2932DPPC   C4B56880   7.528   7.793  20.522 -0.0574 -0.1051  0.1341
 2933DPPC   NC356881  21.052  -7.651  22.624  0.1074 -0.0723 -0.2813
 2933DPPC   PO456882  20.953  -7.503  23.011 -0.2503 -0.0080 -0.1953
 2933DPPC   GL156883  21.084  -7.104  22.909  0.0637  0.0414  0.0315
 2933DPPC   GL256884  21.051  -7.161  22.523  0.3596  0.0218  0.2806
 2933DPPC   C1A56885  20.886  -6.678  22.839  0.2369  0.1000 -0.0194
 2933DPPC   C2A56886  21.059  -6.378  22.556 -0.2147  0.0538 -0.1206
 2933DPPC   C3A56887  20.796  -6.018  22.506 -0.2187  0.3938 -0.0976
 2933DPPC   C4A56888  20.527  -5.635  22.480 -0.0744 -0.2427 -0.2793
 2933DPPC   C1B56889  20.841  -6.871  22.355  0.1648  0.2612  0.2208
 2933DPPC   C2B56890  20.548  -6.524  22.475 -0.0997 -0.1261  0.0803
 2933DPPC   C3B56891  20.434  -6.256  22.335  0.1130 -0.0985  0.2493
 2933DPPC   C4B56892  20.111  -6.171  22.223 -0.0903 -0.0043 -0.1904
 2934DPPC   NC356893  24.647   3.951  28.035 -0.0251 -0.1834 -0.1207
 2934DPPC   PO456894  24.979   3.948  27.757 -0.1275  0.0537 -0.1049
 2934DPPC   GL156895  25.177   3.712  28.018 -0.0171  0.2929 -0.1885
 2934DPPC   GL256896  25.339   3.560  27.769 -0.0152 -0.0512 -0.0622
 2934DPPC   C1A56897  25.511   3.451  28.260 -0.0375  0.1198  0.0315
 2934DPPC   C2A56898  25.829   3.615  28.456  0.1661  0.0226 -0.4894
 2934DPPC   C3A56899  26.224   3.604  28.327 -0.3940 -0.4994 -0.2893
 2934DPPC   C4A56900  26.665   3.595  28.258 -0.2383 -0.3383 -0.0723
 2934DPPC   C1B56901  25.794   3.266  27.866  0.1031  0.0204 -0.0812
 2934DPPC   C2B56902  25.819   2.872  27.890  0.2416 -0.0345  0.2535
 2934DPPC   C3B56903  26.158   2.727  28.056 -0.1551  0.0315 -0.4605
 2934DPPC   C4B56904  26.511   2.548  28.052 -0.1878  0.0388  0.1025
 2935DPPC   NC356905  18.983   3.973  37.665 -0.2712  0.0463  0.1654
 2935DPPC   PO456906  18.862   3.786  37.267  0.1270 -0.0609 -0.1398
 2935DPPC   GL156907  19.009   3.579  36.895  0.0073  0.2787 -0.0761
 2935DPPC   GL256908  18.893   3.786  36.616  0.0019 -0.1792  0.2460
 2935DPPC   C1A56909  19.043   3.339  36.589 -0.4078 -0.1816 -0.1218
 2935DPPC   C2A56910  18.895   3.005  36.180  0.0419 -0.2065 -0.1779
 2935DPPC   C3A56911  19.027   2.970  35.806 -0.2406  0.1331  0.2547
 2935DPPC   C4A56912  18.921   2.959  35.368 -0.1116  0.1462 -0.1653
 2935DPPC   C1B56913  18.708   3.965  36.311 -0.0906 -0.1616 -0.2978
 2935DPPC   C2B56914  18.663   4.246  35.950  0.0628 -0.0605  0.1585
 2935DPPC   C3B56915  18.609   4.308  35.501  0.1560 -0.1464 -0.0964
 2935DPPC   C4B56916  18.712   4.049  35.143  0.0324  0.1179  0.0092
 2936DPPC   NC356917  22.338   6.463  19.933 -0.2010  0.1927 -0.1418
 2936DPPC   PO456918  22.039   6.757  20.031  0.1574 -0.3959  0.0981
 2936DPPC   GL156919  22.364   6.918  19.687  0.4901  0.1811 -0.2586
 2936DPPC   GL256920  22.236   7.250  19.493 -0.1955  0.1814 -0.1279
 2936DPPC   C1A56921  22.766   6.990  19.453  0.1766  0.0281  0.1659
 2936DPPC   C2A56922  23.167   7.239  19.157 -0.2290 -0.2190 -0.2308
 2936DPPC   C3A56923  23.460   7.597  19.018  0.2508  0.2414  0.2003
 2936DPPC   C4A56924  23.753   7.896  19.048 -0.1805 -0.0740  0.2049
 2936DPPC   C1B56925  22.327   7.630  19.667 -0.1403  0.0266  0.0735
 2936DPPC   C2B56926  22.657   7.901  19.678 -0.2683 -0.0509  0.4649
 2936DPPC   C3B56927  22.986   8.162  19.486 -0.1473  0.1537 -0.1613
 2936DPPC   C4B56928  23.379   8.126  19.290  0.0438 -0.2499 -0.2141
 2937DPPC   NC356929  10.919   7.312  20.534 -0.0353 -0.0151 -0.1413
 2937DPPC   PO456930  10.756   7.397  20.095 -0.4084 -0.0010 -0.1457
 2937DPPC   GL156931  10.320   7.378  20.035  0.1556 -0.1441 -0.1416
 2937DPPC   GL256932  10.396   7.097  19.863 -0.1892 -0.1449  0.2379
 2937DPPC   C1A56933  10.132   7.651  19.710  0.0823 -0.0304  0.2666
 2937DPPC   C2A56934  10.035   7.791  19.354 -0.1550 -0.1279  0.2715
 2937DPPC   C3A56935  10.049   7.783  18.926  0.0388  0.1208  0.0182
 2937DPPC   C4A56936   9.918   7.677  18.578  0.0151 -0.0393  0.1445
 2937DPPC   C1B56937  10.061   7.238  19.410  0.0992 -0.0136  0.0168
 2937DPPC   C2B56938   9.758   7.405  19.099  0.1019  0.1584 -0.1826
 2937DPPC   C3B56939   9.326   7.202  19.017 -0.2502 -0.1774 -0.0104
 2937DPPC   C4B56940   9.108   7.140  18.554 -0.0188  0.0958 -0.0161
 2938DPPC   NC356941  13.780  -4.012  24.768 -0.0611 -0.0019  0.1601
 2938DPPC   PO456942  13.667  -3.956  25.237 -0.1770 -0.0119  0.0022
 2938DPPC   GL156943  13.544  -4.377  25.287 -0.3249  0.2589  0.0233
 2938DPPC   GL256944  13.750  -4.426  25.026 -0.0038  0.2410  0.0111
 2938DPPC   C1A56945  13.286  -4.657  25.042 -0.2548 -0.2025  0.1600
 2938DPPC   C2A56946  13.225  -5.021  25.376 -0.1735 -0.0917  0.1572
 2938DPPC   C3A56947  13.137  -5.413  25.507 -0.2134  0.3100 -0.0438
 2938DPPC   C4A56948  12.921  -5.777  25.524  0.0727 -0.1995  0.1401
 2938DPPC   C1B56949  13.692  -4.875  25.227 -0.1729 -0.2007 -0.1360
 2938DPPC   C2B56950  13.777  -5.206  25.511  0.3047 -0.0832  0.0272
 2938DPPC   C3B56951  14.127  -5.439  25.640 -0.1690  0.0369 -0.1195
 2938DPPC   C4B56952  14.056  -5.899  25.800 -0.2287 -0.0338  0.1510
 2939DPPC   NC356953  19.763  15.656  22.814  0.0447 -0.3564  0.0305
 2939DPPC   PO456954  20.245  15.789  22.923  0.1391 -0.2741 -0.1129
 2939DPPC   GL156955  20.145  15.314  22.784 -0.2801 -0.1841  0.1601
 2939DPPC   GL256956  19.944  15.104  22.912  0.4219 -0.3141  0.0476
 2939DPPC   C1A56957  20.189  14.740  22.711 -0.0207 -0.0498 -0.0040
 2939DPPC   C2A56958  20.541  14.436  22.713 -0.0225 -0.3457 -0.0580
 2939DPPC   C3A56959  20.500  14.014  22.772  0.2376 -0.0322  0.0579
 2939DPPC   C4A56960  20.321  13.807  22.610 -0.0619  0.0455 -0.0563
 2939DPPC   C1B56961  19.915  14.819  23.256 -0.3656 -0.0743 -0.0315
 2939DPPC   C2B56962  20.030  14.623  23.612  0.0148 -0.3521 -0.1845
 2939DPPC   C3B56963  20.104  14.360  23.943  0.1792 -0.0923 -0.2156
 2939DPPC   C4B56964  20.187  13.918  24.155 -0.0865  0.0971 -0.1634
 2940DPPC   NC356965  16.882   4.422  37.865 -0.1391 -0.0387 -0.0010
 2940DPPC   PO456966  17.259   4.223  37.735 -0.1056 -0.2060  0.0190
 2940DPPC   GL156967  17.429   4.049  37.450  0.1956  0.0375 -0.1802
 2940DPPC   GL256968  17.105   3.793  37.381 -0.3227 -0.3444 -0.1424
 2940DPPC   C1A56969  17.647   4.005  37.038 -0.0508  0.2083 -0.0413
 2940DPPC   C2A56970  17.802   4.125  36.583  0.1460  0.0107  0.0951
 2940DPPC   C3A56971  17.781   4.284  36.125  0.1834  0.1132 -0.1347
 2940DPPC   C4A56972  17.670   4.209  35.669  0.1004  0.0770 -0.1899
 2940DPPC   C1B56973  17.167   3.888  36.983 -0.1628  0.1738  0.0297
 2940DPPC   C2B56974  17.099   3.874  36.566 -0.0202  0.2304  0.0889
 2940DPPC   C3B56975  16.803   3.744  36.233 -0.3875  0.1041  0.0526
 2940DPPC   C4B56976  16.586   3.631  35.830  0.0921 -0.0973 -0.1075
 2941DPPC   NC356977  18.766  -3.913  22.500  0.0835 -0.2753 -0.1546
 2941DPPC   PO456978  19.121  -3.992  22.703 -0.2118  0.0863 -0.2061
 2941DPPC   GL156979  19.323  -4.385  22.794 -0.0978 -0.0543  0.0972
 2941DPPC   GL256980  19.685  -4.371  22.847  0.0250 -0.0379  0.0729
 2941DPPC   C1A56981  19.323  -4.756  22.695  0.0730  0.0298 -0.1051
 2941DPPC   C2A56982  19.292  -5.055  22.385 -0.1068  0.1586 -0.0594
 2941DPPC   C3A56983  19.531  -5.500  22.247 -0.0406 -0.2423  0.1623
 2941DPPC   C4A56984  19.986  -5.689  22.234  0.4470 -0.2783 -0.2909
 2941DPPC   C1B56985  19.784  -4.643  22.531  0.2098  0.1720  0.4596
 2941DPPC   C2B56986  19.780  -5.129  22.570 -0.2486 -0.0220  0.0959
 2941DPPC   C3B56987  20.194  -5.146  22.390 -0.2349  0.2005 -0.1619
 2941DPPC   C4B56988  20.417  -5.263  22.075 -0.0654  0.1635 -0.1247
 2942DPPC   NC356989  16.328   0.421  10.940 -0.3540 -0.3614  0.0429
 2942DPPC   PO456990  16.415   0.177  11.369  0.3208 -0.1211 -0.1789
 2942DPPC   GL156991  16.476  -0.053  11.774  0.1221 -0.0836  0.0317
 2942DPPC   GL256992  16.300  -0.358  11.861 -0.1785 -0.1485 -0.0062
 2942DPPC   C1A56993  16.857  -0.191  11.954  0.0743  0.0055 -0.0472
 2942DPPC   C2A56994  17.066  -0.488  12.076  0.0508 -0.1391  0.1665
 2942DPPC   C3A56995  17.319  -0.806  12.095  0.0318  0.3142 -0.1076
 2942DPPC   C4A56996  17.497  -1.177  12.254  0.0644  0.0509 -0.2291
 2942DPPC   C1B56997  16.214  -0.756  12.026 -0.1443 -0.0222  0.1327
 2942DPPC   C2B56998  16.289  -1.063  12.140 -0.2702  0.1445  0.1072
 2942DPPC   C3B56999  16.188  -1.476  12.496 -0.0764 -0.0766  0.0629
 2942DPPC   C4B57000  16.231  -1.627  12.889 -0.3199  0.1647  0.3488
 2943DPPC   NC357001  20.269   5.835  37.238  0.1852 -0.1446 -0.1618
 2943DPPC   PO457002  20.165   6.035  36.831 -0.3020  0.1215 -0.2087
 2943DPPC   GL157003  20.179   5.679  36.772 -0.2620  0.5148 -0.0647
 2943DPPC   GL257004  20.073   5.352  36.818  0.1397  0.3213  0.2132
 2943DPPC   C1A57005  20.157   5.550  36.349 -0.1627 -0.1160 -0.1484
 2943DPPC   C2A57006  20.299   5.599  35.953  0.2327 -0.2035 -0.0003
 2943DPPC   C3A57007  20.306   5.351  35.594  0.1374 -0.3515 -0.1598
 2943DPPC   C4A57008  20.593   5.335  35.241 -0.0510  0.2701 -0.0997
 2943DPPC   C1B57009  19.705   5.541  36.663  0.0941  0.0068  0.4703
 2943DPPC   C2B57010  19.464   5.781  36.447  0.2113  0.1859  0.0968
 2943DPPC   C3B57011  19.024   6.080  36.301  0.0634  0.3531 -0.0325
 2943DPPC   C4B57012  18.864   6.425  36.275 -0.0909 -0.2307 -0.1253
 2944DPPC   NC357013  15.216   4.921  12.446  0.2102 -0.1671  0.3512
 2944DPPC   PO457014  14.883   4.989  12.315  0.2338 -0.1149 -0.1667
 2944DPPC   GL157015  14.865   4.848  12.781  0.0112 -0.0326  0.1305
 2944DPPC   GL257016  14.802   4.639  12.904 -0.0835 -0.1108  0.2465
 2944DPPC   C1A57017  15.026   5.045  13.259  0.3153  0.5146  0.0990
 2944DPPC   C2A57018  14.935   4.853  13.643  0.0055  0.0451 -0.2243
 2944DPPC   C3A57019  14.502   4.669  13.679  0.0237  0.3107 -0.0616
 2944DPPC   C4A57020  14.198   4.322  13.565 -0.1912 -0.1256 -0.2777
 2944DPPC   C1B57021  14.810   4.561  13.323  0.5027  0.0566 -0.0463
 2944DPPC   C2B57022  14.806   4.283  13.655  0.0287  0.0222  0.0315
 2944DPPC   C3B57023  14.544   4.270  14.029  0.0818  0.1094 -0.1616
 2944DPPC   C4B57024  14.203   4.241  14.355  0.1462 -0.3390 -0.0274
 2945DPPC   NC357025  22.683   6.192  31.201  0.0505 -0.1761  0.1140
 2945DPPC   PO457026  22.612   5.705  31.325 -0.3641 -0.1019 -0.0095
 2945DPPC   GL157027  23.031   5.802  31.537 -0.0618  0.0506 -0.2549
 2945DPPC   GL257028  23.342   5.943  31.374 -0.1958 -0.3190 -0.1876
 2945DPPC   C1A57029  23.016   5.818  32.024  0.1263  0.2486  0.1577
 2945DPPC   C2A57030  23.220   5.779  32.335 -0.3240 -0.1123 -0.0227
 2945DPPC   C3A57031  23.350   5.624  32.758 -0.2986 -0.3051 -0.0524
 2945DPPC   C4A57032  23.391   5.528  33.169  0.0189 -0.1168 -0.0888
 2945DPPC   C1B57033  23.359   6.195  31.734 -0.1901  0.2659 -0.2197
 2945DPPC   C2B57034  23.349   6.254  32.202 -0.1133  0.3212  0.0877
 2945DPPC   C3B57035  23.374   6.165  32.573 -0.2892 -0.0864 -0.0217
 2945DPPC   C4B57036  23.554   6.037  32.999 -0.1149 -0.4984 -0.0715
 2946DPPC   NC357037  20.752  -2.304  26.641 -0.0513 -0.0559 -0.2903
 2946DPPC   PO457038  20.525  -2.090  27.035 -0.1114 -0.5578 -0.1138
 2946DPPC   GL157039  20.601  -2.437  27.322  0.0046  0.0845 -0.2357
 2946DPPC   GL257040  20.392  -2.608  27.329  0.2008  0.0553 -0.1690
 2946DPPC   C1A57041  20.847  -2.779  27.461 -0.0464 -0.1175 -0.1015
 2946DPPC   C2A57042  21.236  -3.078  27.258  0.3823 -0.0018 -0.1247
 2946DPPC   C3A57043  21.495  -3.399  27.137 -0.4347  0.1294  0.0970
 2946DPPC   C4A57044  21.652  -3.748  26.979  0.1974  0.1886 -0.2242
 2946DPPC   C1B57045  20.437  -3.040  27.437 -0.1457  0.1794  0.1144
 2946DPPC   C2B57046  20.805  -3.387  27.516 -0.1950 -0.3882  0.1599
 2946DPPC   C3B57047  21.119  -3.680  27.390  0.0506 -0.1329  0.2171
 2946DPPC   C4B57048  21.533  -3.867  27.459  0.2149  0.0236 -0.2135
 2947DPPC   NC357049  24.014  -5.499  25.523 -0.1352  0.1009 -0.0325
 2947DPPC   PO457050  24.449  -5.320  25.669  0.2141  0.0830 -0.1549
 2947DPPC   GL157051  24.280  -5.100  25.364 -0.2523 -0.3719 -0.1407
 2947DPPC   GL257052  24.616  -4.908  25.399 -0.0354  0.0987  0.0600
 2947DPPC   C1A57053  23.925  -4.877  25.226  0.1793  0.2359 -0.3914
 2947DPPC   C2A57054  23.560  -4.694  25.365  0.0765 -0.0317 -0.1021
 2947DPPC   C3A57055  23.478  -4.243  25.531  0.1002  0.0753 -0.4843
 2947DPPC   C4A57056  23.231  -3.897  25.499 -0.0233  0.1482  0.3747
 2947DPPC   C1B57057  24.361  -4.681  25.155 -0.1966 -0.0550 -0.0482
 2947DPPC   C2B57058  24.045  -4.352  25.163 -0.1259 -0.0000  0.1942
 2947DPPC   C3B57059  23.758  -3.947  25.112  0.1461 -0.2751 -0.0451
 2947DPPC   C4B57060  23.576  -3.575  25.166  0.0033  0.0196  0.3422
 2948DPPC   NC357061  28.363   6.709  28.780 -0.0025  0.1600 -0.3196
 2948DPPC   PO457062  28.278   6.248  28.689  0.2553  0.1652 -0.0198
 2948DPPC   GL157063  27.934   6.247  28.543  0.2913  0.4655  0.1244
 2948DPPC   GL257064  27.817   5.997  28.733  0.2237  0.0066 -0.0328
 2948DPPC   C1A57065  27.794   6.283  28.169 -0.3660 -0.2509  0.0181
 2948DPPC   C2A57066  27.427   6.003  28.059 -0.3071 -0.4246 -0.0216
 2948DPPC   C3A57067  27.436   5.810  27.649 -0.1070  0.1349 -0.1877
 2948DPPC   C4A57068  27.327   5.707  27.361 -0.2682  0.1182 -0.0274
 2948DPPC   C1B57069  27.420   6.224  28.544 -0.1947  0.4165 -0.2314
 2948DPPC   C2B57070  26.957   6.251  28.401  0.0214 -0.0904 -0.2270
 2948DPPC   C3B57071  26.636   5.919  28.609 -0.0431  0.4167 -0.0772
 2948DPPC   C4B57072  26.535   5.523  28.639  0.1465  0.0771 -0.0884
 2949DPPC   NC357073   9.172  -1.648  27.511  0.0634  0.1912  0.4745
 2949DPPC   PO457074   8.938  -1.702  27.043  0.0243 -0.0176  0.0794
 2949DPPC   GL157075   8.858  -2.096  27.044 -0.0873  0.5372  0.2087
 2949DPPC   GL257076   8.764  -2.066  27.385  0.3959  0.1011 -0.0663
 2949DPPC   C1A57077   8.706  -2.533  27.228 -0.0023 -0.0556 -0.3018
 2949DPPC   C2A57078   8.358  -2.826  27.356 -0.1893 -0.0079  0.4438
 2949DPPC   C3A57079   7.948  -3.037  27.301  0.1573 -0.2434  0.0361
 2949DPPC   C4A57080   7.594  -2.961  27.052  0.1086 -0.3202 -0.0811
 2949DPPC   C1B57081   8.362  -2.273  27.400 -0.0021 -0.1432 -0.2520
 2949DPPC   C2B57082   7.918  -2.455  27.348  0.0068  0.1472 -0.1249
 2949DPPC   C3B57083   7.487  -2.423  27.234  0.0314  0.0401 -0.4423
 2949DPPC   C4B57084   7.078  -2.673  27.196 -0.0995  0.0360  0.0890
 2950DPPC   NC357085   6.599   2.332  24.877 -0.1632  0.1104  0.0295
 2950DPPC   PO457086   6.583   2.788  24.942  0.0916 -0.1502  0.0025
 2950DPPC   GL157087   6.226   2.698  24.989  0.1710 -0.0671  0.1469
 2950DPPC   GL257088   6.082   2.713  25.272  0.3963  0.3397  0.0331
 2950DPPC   C1A57089   5.872   2.640  24.756  0.0748  0.0818 -0.0141
 2950DPPC   C2A57090   5.837   2.301  24.395  0.0500  0.0760 -0.0642
 2950DPPC   C3A57091   5.672   1.995  23.992 -0.1425  0.4795 -0.0516
 2950DPPC   C4A57092   5.339   1.781  23.735 -0.0449  0.0914  0.1054
 2950DPPC   C1B57093   5.802   2.393  25.342  0.0217  0.0191  0.0943
 2950DPPC   C2B57094   5.380   2.154  25.396  0.2561 -0.1436 -0.0339
 2950DPPC   C3B57095   5.166   1.857  25.157  0.0506  0.2604 -0.0594
 2950DPPC   C4B57096   5.127   1.577  24.857 -0.1168 -0.0539  0.0081
 2951DPPC   NC357097  25.774  -3.699  26.526  0.0009 -0.2459 -0.0678
 2951DPPC   PO457098  26.047  -3.479  26.767 -0.1388  0.0218 -0.0156
 2951DPPC   GL157099  26.021  -2.948  26.813  0.3531  0.0400 -0.0436
 2951DPPC   GL257100  26.151  -2.606  26.615 -0.1061  0.3419 -0.0925
 2951DPPC   C1A57101  25.689  -2.601  26.907  0.1423 -0.3689  0.2135
 2951DPPC   C2A57102  25.158  -2.662  26.495 -0.1690  0.1775 -0.0189
 2951DPPC   C3A57103  24.685  -2.698  26.331  0.2228 -0.2318  0.2326
 2951DPPC   C4A57104  24.491  -2.861  25.993  0.0707 -0.0277  0.1459
 2951DPPC   C1B57105  25.753  -2.290  26.560 -0.1935 -0.2916 -0.0032
 2951DPPC   C2B57106  25.250  -2.257  26.645 -0.0691 -0.0481  0.0377
 2951DPPC   C3B57107  24.712  -2.181  26.424  0.4633  0.4225  0.1024
 2951DPPC   C4B57108  24.417  -2.283  26.143  0.1720 -0.0844  0.1641
 2952DPPC   NC357109  14.055  -6.715  14.905 -0.0630  0.1445  0.0684
 2952DPPC   PO457110  14.155  -6.297  14.855 -0.0443 -0.0439 -0.0469
 2952DPPC   GL157111  14.455  -5.979  15.016 -0.0394  0.2600 -0.3314
 2952DPPC   GL257112  14.166  -5.750  14.996  0.1574 -0.2472  0.0007
 2952DPPC   C1A57113  14.778  -5.743  15.294  0.0545  0.0358 -0.0415
 2952DPPC   C2A57114  15.059  -5.509  15.414 -0.0982  0.2513  0.0360
 2952DPPC   C3A57115  15.272  -5.083  15.628 -0.1093 -0.2699 -0.0708
 2952DPPC   C4A57116  15.476  -4.961  16.002  0.0025 -0.4432 -0.2093
 2952DPPC   C1B57117  14.433  -5.403  15.189  0.1932 -0.1276  0.1581
 2952DPPC   C2B57118  14.620  -4.990  15.330 -0.1204 -0.1117 -0.0542
 2952DPPC   C3B57119  14.852  -4.667  15.451  0.1880  0.0760  0.3101
 2952DPPC   C4B57120  14.977  -4.216  15.477 -0.0098 -0.3767  0.0378
 2953DPPC   NC357121   8.241   4.680  14.137 -0.0865 -0.1689  0.2024
 2953DPPC   PO457122   8.679   4.587  14.483  0.4386  0.0359 -0.1356
 2953DPPC   GL157123   8.719   4.281  14.830 -0.3506 -0.1829 -0.0665
 2953DPPC   GL257124   9.024   4.172  14.888  0.1168  0.0883 -0.1395
 2953DPPC   C1A57125   8.876   4.320  15.345 -0.2125 -0.1558 -0.1418
 2953DPPC   C2A57126   9.158   4.201  15.629 -0.0236 -0.1348  0.0344
 2953DPPC   C3A57127   9.294   4.295  16.107  0.2440 -0.1089  0.2691
 2953DPPC   C4A57128   9.332   4.529  16.443 -0.3542 -0.1454  0.3175
 2953DPPC   C1B57129   9.375   4.213  15.164 -0.0189 -0.1161  0.1508
 2953DPPC   C2B57130   9.721   4.404  15.325 -0.0418 -0.1129 -0.0075
 2953DPPC   C3B57131  10.115   4.519  15.598  0.1048 -0.1343  0.2278
 2953DPPC   C4B57132  10.452   4.261  15.703 -0.2426  0.3249 -0.0231
 2954DPPC   NC357133  15.111   3.397  33.574  0.1485 -0.1353 -0.1881
 2954DPPC   PO457134  15.302   3.780  33.360  0.0175 -0.0688 -0.2943
 2954DPPC   GL157135  15.333   3.754  33.853 -0.1089 -0.0674  0.3312
 2954DPPC   GL257136  15.661   3.646  33.886 -0.0363  0.0769 -0.3282
 2954DPPC   C1A57137  15.237   3.729  34.300 -0.1600 -0.0133  0.1010
 2954DPPC   C2A57138  15.006   3.821  34.668  0.2234  0.1017  0.3819
 2954DPPC   C3A57139  14.776   4.141  34.913  0.2723  0.0527  0.1449
 2954DPPC   C4A57140  14.694   4.378  35.270  0.2640  0.0764 -0.1409
 2954DPPC   C1B57141  15.669   3.488  34.303  0.0978  0.1171 -0.2845
 2954DPPC   C2B57142  15.372   3.378  34.648 -0.0228 -0.0964  0.1594
 2954DPPC   C3B57143  15.211   3.525  35.012 -0.1792  0.0366  0.1061
 2954DPPC   C4B57144  15.096   3.889  35.207  0.1174  0.2824  0.0371
 2955DPPC   NC357145  20.217  -1.645  28.652  0.0441  0.2403 -0.2553
 2955DPPC   PO457146  20.116  -1.610  28.222 -0.2907 -0.1539 -0.0233
 2955DPPC   GL157147  20.145  -2.140  28.347  0.0168  0.0634 -0.1881
 2955DPPC   GL257148  19.956  -2.443  28.414 -0.0281  0.0139  0.2074
 2955DPPC   C1A57149  20.506  -2.406  28.391  0.3775  0.1411  0.0853
 2955DPPC   C2A57150  20.711  -2.638  28.668 -0.1084 -0.0133  0.0957
 2955DPPC   C3A57151  20.984  -2.995  28.510  0.1492 -0.2214 -0.1770
 2955DPPC   C4A57152  21.080  -3.415  28.477 -0.4151 -0.0022  0.3440
 2955DPPC   C1B57153  20.211  -2.850  28.653 -0.4616  0.4106 -0.0563
 2955DPPC   C2B57154  20.528  -3.073  28.861  0.0355  0.4991  0.2322
 2955DPPC   C3B57155  21.013  -3.238  28.954 -0.3348  0.1123 -0.3613
 2955DPPC   C4B57156  21.217  -3.433  29.321 -0.1284 -0.1468 -0.1417
 2956DPPC   NC357157  16.300  -1.667  30.546  0.1691  0.0849 -0.1475
 2956DPPC   PO457158  16.767  -1.730  30.609 -0.0592  0.2367 -0.0017
 2956DPPC   GL157159  16.763  -1.962  31.042 -0.2807 -0.0304  0.0837
 2956DPPC   GL257160  17.109  -1.976  31.186  0.0689  0.2844  0.0538
 2956DPPC   C1A57161  16.784  -2.201  31.486 -0.1793 -0.1536 -0.1770
 2956DPPC   C2A57162  17.044  -2.197  31.855  0.1676 -0.0033 -0.3225
 2956DPPC   C3A57163  17.187  -2.417  32.101  0.0752  0.0971 -0.0777
 2956DPPC   C4A57164  16.958  -2.580  32.476  0.2050  0.1882  0.1828
 2956DPPC   C1B57165  17.225  -2.385  31.397 -0.3509 -0.1473 -0.1178
 2956DPPC   C2B57166  17.135  -2.747  31.651  0.1015 -0.2010  0.0608
 2956DPPC   C3B57167  16.724  -2.984  31.860 -0.1730  0.0521 -0.0526
 2956DPPC   C4B57168  16.530  -3.213  32.213 -0.0488  0.1494  0.1726
 2957DPPC   NC357169  13.120  15.403  22.111 -0.3353  0.1202  0.1559
 2957DPPC   PO457170  13.468  15.186  21.883 -0.2127  0.0697  0.2278
 2957DPPC   GL157171  13.661  14.964  22.200 -0.0035 -0.0345 -0.1400
 2957DPPC   GL257172  13.967  15.085  22.448  0.2786  0.0660  0.1025
 2957DPPC   C1A57173  13.965  14.678  22.244 -0.2212  0.0767 -0.3993
 2957DPPC   C2A57174  14.162  14.274  22.449  0.1282  0.0108 -0.1424
 2957DPPC   C3A57175  14.284  13.895  22.234  0.0854  0.1470  0.0818
 2957DPPC   C4A57176  14.365  13.554  22.506  0.0341  0.0829  0.0186
 2957DPPC   C1B57177  14.069  14.798  22.752 -0.0711 -0.3644 -0.0530
 2957DPPC   C2B57178  14.164  14.457  22.902 -0.1449  0.0959  0.5489
 2957DPPC   C3B57179  14.272  14.169  23.221  0.0259 -0.1303  0.0570
 2957DPPC   C4B57180  14.382  13.843  23.532  0.1823 -0.0403 -0.0843
 2958DPPC   NC357181  16.298   0.331  17.162  0.1622 -0.1983 -0.1223
 2958DPPC   PO457182  15.989   0.077  17.032  0.0190  0.0426  0.0143
 2958DPPC   GL157183  16.089  -0.247  16.693  0.1644  0.0122  0.0645
 2958DPPC   GL257184  15.922  -0.239  16.392  0.1099 -0.0060 -0.1910
 2958DPPC   C1A57185  16.119  -0.668  16.628 -0.3010 -0.2284  0.0014
 2958DPPC   C2A57186  16.558  -0.964  16.680 -0.0302  0.0763  0.0208
 2958DPPC   C3A57187  16.887  -1.239  16.745 -0.0382  0.1331 -0.2262
 2958DPPC   C4A57188  17.378  -0.972  16.818 -0.1378 -0.0026  0.1136
 2958DPPC   C1B57189  15.691  -0.434  16.024  0.0886 -0.0229 -0.0563
 2958DPPC   C2B57190  15.574  -0.773  15.935  0.1060 -0.0031 -0.0511
 2958DPPC   C3B57191  15.514  -1.167  15.741  0.1325 -0.1603  0.0310
 2958DPPC   C4B57192  15.394  -1.627  15.484  0.3583 -0.0567  0.0002
 2959DPPC   NC357193  19.154  10.380  36.285  0.0362  0.2958 -0.0026
 2959DPPC   PO457194  19.394  10.705  36.107  0.1751 -0.2530 -0.3996
 2959DPPC   GL157195  19.365  10.511  35.728  0.0335  0.1619  0.0486
 2959DPPC   GL257196  19.139  10.271  35.728 -0.2554 -0.1192  0.0626
 2959DPPC   C1A57197  19.497  10.251  35.256 -0.2245 -0.4269  0.2486
 2959DPPC   C2A57198  19.482   9.884  35.029 -0.1296 -0.1666  0.2988
 2959DPPC   C3A57199  19.648   9.727  34.749  0.0826  0.2101  0.0850
 2959DPPC   C4A57200  19.622   9.617  34.337  0.0678 -0.0149  0.1274
 2959DPPC   C1B57201  19.080   9.897  35.504  0.0710  0.1351 -0.1528
 2959DPPC   C2B57202  18.838   9.580  35.336 -0.1584 -0.0876 -0.1062
 2959DPPC   C3B57203  18.592   9.478  35.108 -0.2119 -0.1412 -0.2615
 2959DPPC   C4B57204  18.238   9.435  34.762 -0.1810  0.2096  0.1003
 2960DPPC   NC357205  21.126  10.798  35.180  0.2583 -0.1911 -0.0635
 2960DPPC   PO457206  20.879  10.463  35.380  0.0927  0.3251  0.3131
 2960DPPC   GL157207  20.854  10.255  34.990  0.0528 -0.1278 -0.4181
 2960DPPC   GL257208  20.957  10.506  34.828 -0.0806  0.0435  0.4968
 2960DPPC   C1A57209  20.375  10.146  34.853  0.0594  0.0233  0.3879
 2960DPPC   C2A57210  19.961  10.281  34.927  0.0786  0.2442  0.0885
 2960DPPC   C3A57211  19.540  10.277  34.760 -0.0558 -0.2139 -0.2864
 2960DPPC   C4A57212  19.088  10.308  34.864  0.0533 -0.3052 -0.0228
 2960DPPC   C1B57213  20.640  10.385  34.513 -0.1042 -0.0004  0.0424
 2960DPPC   C2B57214  20.556  10.073  34.284 -0.0312 -0.0565  0.1474
 2960DPPC   C3B57215  20.133   9.990  33.979  0.2417  0.0226 -0.0729
 2960DPPC   C4B57216  19.821  10.208  33.728  0.1918 -0.1967 -0.3453
 2961DPPC   NC357217  10.504  -2.637  22.135  0.0837  0.2351 -0.1670
 2961DPPC   PO457218  10.579  -2.440  22.543  0.0164  0.3139  0.1187
 2961DPPC   GL157219  10.268  -2.661  22.652  0.0574 -0.0168  0.4270
 2961DPPC   GL257220  10.017  -2.583  22.352  0.0699  0.2277  0.1396
 2961DPPC   C1A57221   9.946  -3.023  22.594 -0.0130  0.0719 -0.3431
 2961DPPC   C2A57222   9.652  -3.384  22.488 -0.2044 -0.1626 -0.2072
 2961DPPC   C3A57223   9.431  -3.619  22.203  0.0643  0.1209 -0.1264
 2961DPPC   C4A57224   9.224  -3.879  21.912  0.1291 -0.0543  0.0772
 2961DPPC   C1B57225   9.639  -2.416  22.195 -0.1386 -0.1758  0.1071
 2961DPPC   C2B57226   9.216  -2.497  22.079  0.1415  0.2050  0.3481
 2961DPPC   C3B57227   8.784  -2.763  22.029  0.1994 -0.0329  0.2783
 2961DPPC   C4B57228   8.340  -2.911  22.042 -0.0654  0.1004 -0.0703
 2962DPPC   NC357229  20.834  -1.903  21.185 -0.0870  0.0357  0.1265
 2962DPPC   PO457230  20.755  -2.285  21.524  0.2366 -0.1124  0.1091
 2962DPPC   GL157231  20.650  -2.392  21.067  0.1187  0.0362 -0.0990
 2962DPPC   GL257232  20.426  -2.557  20.878 -0.3033 -0.0496 -0.1725
 2962DPPC   C1A57233  20.835  -2.365  20.657 -0.2277 -0.3735  0.2673
 2962DPPC   C2A57234  21.253  -2.320  20.588  0.0980 -0.1599  0.0163
 2962DPPC   C3A57235  21.727  -2.403  20.444  0.1234 -0.0388  0.3473
 2962DPPC   C4A57236  22.017  -2.648  20.080 -0.0522 -0.0550 -0.1700
 2962DPPC   C1B57237  20.443  -2.647  20.584  0.1349  0.1892 -0.0789
 2962DPPC   C2B57238  20.389  -2.612  20.097 -0.0596  0.5317  0.0567
 2962DPPC   C3B57239  20.370  -2.784  19.617  0.0541  0.1315 -0.0269
 2962DPPC   C4B57240  20.016  -2.761  19.341  0.0009  0.1080 -0.1453
 2963DPPC   NC357241  13.992  -3.209  27.770  0.0204  0.1033 -0.3716
 2963DPPC   PO457242  13.792  -3.142  27.988 -0.2999 -0.2336  0.5341
 2963DPPC   GL157243  13.746  -3.553  28.252  0.3367 -0.3048 -0.1670
 2963DPPC   GL257244  13.981  -3.669  28.022 -0.0405 -0.0094 -0.2411
 2963DPPC   C1A57245  13.473  -3.751  28.612  0.0462 -0.2661 -0.2271
 2963DPPC   C2A57246  13.519  -4.153  28.846 -0.6117  0.2341 -0.0011
 2963DPPC   C3A57247  13.473  -4.588  28.897  0.0087 -0.2314  0.1821
 2963DPPC   C4A57248  13.580  -4.846  28.649  0.3241  0.1086  0.1725
 2963DPPC   C1B57249  14.065  -4.139  27.985  0.0245 -0.3976  0.2488
 2963DPPC   C2B57250  13.937  -4.421  28.041  0.1522  0.1872  0.0180
 2963DPPC   C3B57251  14.032  -4.844  28.025  0.0785 -0.1998  0.2214
 2963DPPC   C4B57252  13.940  -5.256  28.129 -0.0062  0.1109  0.4058
 2964DPPC   NC357253  18.463   4.582  33.038  0.1604 -0.1985  0.0126
 2964DPPC   PO457254  18.780   4.392  33.231  0.5308  0.1791  0.2252
 2964DPPC   GL157255  19.023   4.690  33.455  0.1323 -0.0298  0.0909
 2964DPPC   GL257256  18.921   4.906  33.777 -0.2769  0.1916 -0.2585
 2964DPPC   C1A57257  19.398   4.609  33.848  0.0223 -0.1568  0.0968
 2964DPPC   C2A57258  19.583   4.378  34.086 -0.0397 -0.0648 -0.0153
 2964DPPC   C3A57259  19.463   4.136  34.543  0.1554 -0.2903  0.1499
 2964DPPC   C4A57260  19.095   3.920  34.617 -0.0928 -0.0259 -0.4937
 2964DPPC   C1B57261  19.048   4.878  34.115 -0.0016 -0.2530  0.0866
 2964DPPC   C2B57262  19.467   4.718  34.424  0.0948  0.2128  0.0142
 2964DPPC   C3B57263  19.605   4.522  34.874  0.0527  0.1120 -0.0470
 2964DPPC   C4B57264  19.929   4.533  35.174  0.4031  0.2581  0.3233
 2965DPPC   NC357265  10.664   0.761  13.261  0.2674  0.1972  0.0104
 2965DPPC   PO457266  11.042   0.790  13.179 -0.0126 -0.0644  0.3691
 2965DPPC   GL157267  10.969   1.090  13.551 -0.2511  0.0122  0.0679
 2965DPPC   GL257268  10.697   1.000  13.785 -0.2871 -0.0556 -0.1621
 2965DPPC   C1A57269  11.354   1.302  13.681 -0.1287 -0.2087 -0.0513
 2965DPPC   C2A57270  11.376   1.305  14.145 -0.0686 -0.0414 -0.0795
 2965DPPC   C3A57271  11.159   1.388  14.565  0.2956  0.1896 -0.1922
 2965DPPC   C4A57272  11.047   1.253  14.923  0.2281 -0.3749  0.2236
 2965DPPC   C1B57273  10.920   1.341  13.983 -0.0003 -0.1225 -0.2243
 2965DPPC   C2B57274  10.885   1.651  14.258  0.0858  0.0350 -0.0949
 2965DPPC   C3B57275  10.993   1.923  14.654 -0.5598  0.1971 -0.2245
 2965DPPC   C4B57276  11.156   1.843  15.091 -0.0162  0.1087  0.1195
 2966DPPC   NC357277  11.995  10.613  30.193  0.3396  0.0136  0.0646
 2966DPPC   PO457278  11.681  10.926  30.160 -0.1535 -0.1025  0.2253
 2966DPPC   GL157279  11.443  11.081  30.544  0.0814 -0.2750 -0.0922
 2966DPPC   GL257280  11.305  10.841  30.809  0.1314 -0.2592  0.0830
 2966DPPC   C1A57281  11.215  11.565  30.720 -0.1418 -0.2141  0.1213
 2966DPPC   C2A57282  10.987  11.807  31.115 -0.2373  0.0719 -0.0061
 2966DPPC   C3A57283  11.060  11.998  31.525  0.0491  0.3394  0.1743
 2966DPPC   C4A57284  11.185  11.881  31.994 -0.0098  0.0725  0.0315
 2966DPPC   C1B57285  11.433  10.821  31.282 -0.1494  0.0762  0.0136
 2966DPPC   C2B57286  11.468  11.143  31.569  0.0682 -0.2526  0.0619
 2966DPPC   C3B57287  11.191  11.396  31.713 -0.0992 -0.1966 -0.1898
 2966DPPC   C4B57288  10.806  11.512  31.536 -0.1977 -0.1534  0.2063
 2967DPPC   NC357289  11.468   6.190  19.019  0.2363  0.0763  0.0428
 2967DPPC   PO457290  11.880   6.093  18.774  0.2586  0.0641 -0.0229
 2967DPPC   GL157291  11.630   6.551  18.603 -0.0292  0.0290  0.2124
 2967DPPC   GL257292  11.349   6.387  18.531  0.2147 -0.0242 -0.1104
 2967DPPC   C1A57293  11.628   6.681  18.137 -0.2189  0.1542  0.0048
 2967DPPC   C2A57294  11.475   6.766  17.650 -0.1616  0.4352  0.1524
 2967DPPC   C3A57295  11.271   6.922  17.307  0.1272  0.2210  0.2178
 2967DPPC   C4A57296  11.218   7.270  17.063  0.1805  0.0368  0.0258
 2967DPPC   C1B57297  11.122   6.475  18.096  0.2216  0.2484  0.0528
 2967DPPC   C2B57298  11.011   6.470  17.689  0.0701 -0.2596 -0.1392
 2967DPPC   C3B57299  11.083   6.206  17.302  0.0416 -0.2585 -0.1064
 2967DPPC   C4B57300  11.040   5.951  16.987 -0.1435  0.0597 -0.0502
 2968DPPC   NC357301   7.799   6.748  28.284  0.1289 -0.0571 -0.0685
 2968DPPC   PO457302   8.004   6.996  28.640 -0.2699  0.1136  0.1381
 2968DPPC   GL157303   7.711   6.830  28.857 -0.1470 -0.1321  0.1050
 2968DPPC   GL257304   7.424   6.787  28.608  0.1361  0.3934  0.1520
 2968DPPC   C1A57305   7.274   6.833  29.067  0.1467  0.1114 -0.2169
 2968DPPC   C2A57306   6.902   6.749  29.180  0.0522  0.0360  0.0044
 2968DPPC   C3A57307   6.628   6.792  29.451 -0.0416  0.0663  0.1031
 2968DPPC   C4A57308   6.255   6.899  29.455  0.0298 -0.1714 -0.1190
 2968DPPC   C1B57309   6.997   6.723  28.677  0.1547  0.0122  0.0276
 2968DPPC   C2B57310   6.483   6.681  28.715  0.2840 -0.2556  0.3933
 2968DPPC   C3B57311   6.088   6.525  29.005  0.0972  0.2419 -0.2514
 2968DPPC   C4B57312   5.851   6.142  29.015  0.0126  0.0463 -0.2450
 2969DPPC   NC357313  25.007   4.324  27.320 -0.0968  0.1540  0.0432
 2969DPPC   PO457314  24.739   4.386  27.745 -0.0876 -0.2282 -0.0017
 2969DPPC   GL157315  25.260   4.573  27.671 -0.0734 -0.4187 -0.0926
 2969DPPC   GL257316  25.291   4.871  27.524 -0.0362 -0.1110 -0.3144
 2969DPPC   C1A57317  25.442   4.445  27.978  0.3180  0.0832 -0.1652
 2969DPPC   C2A57318  25.748   4.484  28.163 -0.1797  0.0674 -0.0629
 2969DPPC   C3A57319  26.061   4.646  28.192 -0.1986 -0.3291  0.0592
 2969DPPC   C4A57320  26.356   4.533  28.455 -0.0055 -0.0141 -0.2394
 2969DPPC   C1B57321  25.595   5.162  27.349 -0.1520  0.3535 -0.1785
 2969DPPC   C2B57322  26.061   5.098  27.348 -0.0237  0.0705 -0.1849
 2969DPPC   C3B57323  26.442   5.004  27.191 -0.3540 -0.1243  0.2512
 2969DPPC   C4B57324  26.750   5.213  27.002 -0.0173 -0.1334  0.0820
 2970DPPC   NC357325  21.298   8.877  29.807 -0.1304  0.2149  0.0066
 2970DPPC   PO457326  21.682   8.942  29.870 -0.5027  0.2327 -0.0095
 2970DPPC   GL157327  21.999   9.008  30.091 -0.4131 -0.2218 -0.0822
 2970DPPC   GL257328  22.219   9.170  29.916  0.0961  0.2191  0.2773
 2970DPPC   C1A57329  22.397   8.998  30.363 -0.0992  0.0298 -0.0880
 2970DPPC   C2A57330  22.661   9.148  30.631 -0.2665  0.0970 -0.0830
 2970DPPC   C3A57331  22.716   9.405  30.965 -0.0997  0.0215 -0.0080
 2970DPPC   C4A57332  22.817   9.898  30.955  0.0023  0.1378 -0.0773
 2970DPPC   C1B57333  22.296   9.510  30.251 -0.0655  0.1216  0.1003
 2970DPPC   C2B57334  22.661   9.711  30.392  0.3559  0.1359  0.1728
 2970DPPC   C3B57335  23.037   9.783  30.134 -0.1012  0.2119 -0.1888
 2970DPPC   C4B57336  23.069  10.151  29.888 -0.0894 -0.1313 -0.0816
 2971DPPC   NC357337  17.652  -8.739  19.340  0.2087 -0.4884 -0.2213
 2971DPPC   PO457338  17.933  -8.767  19.670  0.0455  0.2162  0.0855
 2971DPPC   GL157339  17.989  -8.338  19.503  0.2872  0.0265 -0.0523
 2971DPPC   GL257340  17.634  -8.245  19.422  0.1543  0.2468  0.0391
 2971DPPC   C1A57341  18.254  -8.002  19.709  0.1551  0.1583  0.1408
 2971DPPC   C2A57342  18.259  -7.667  19.502 -0.3946 -0.2008  0.1520
 2971DPPC   C3A57343  18.392  -7.280  19.287  0.0947  0.0343 -0.1507
 2971DPPC   C4A57344  18.515  -6.996  19.045 -0.0400 -0.2325 -0.5221
 2971DPPC   C1B57345  17.883  -7.889  19.329  0.1499  0.4532 -0.2073
 2971DPPC   C2B57346  17.947  -7.428  19.119  0.2326  0.0318  0.1989
 2971DPPC   C3B57347  18.009  -6.952  19.161  0.0662 -0.2735 -0.2808
 2971DPPC   C4B57348  18.164  -6.537  19.050 -0.1666  0.1280 -0.2727
 2972DPPC   NC357349  20.643   1.935  19.128 -0.0800  0.1512 -0.2431
 2972DPPC   PO457350  20.990   1.914  18.889 -0.4569  0.2049 -0.1613
 2972DPPC   GL157351  21.185   1.867  18.500 -0.4164  0.2607 -0.1075
 2972DPPC   GL257352  21.453   1.698  18.447  0.3430 -0.1562  0.0485
 2972DPPC   C1A57353  21.194   1.848  18.044  0.0339 -0.0154  0.1851
 2972DPPC   C2A57354  21.494   2.013  17.709 -0.0944 -0.0371  0.0189
 2972DPPC   C3A57355  21.888   2.095  17.623  0.1320 -0.0717  0.2180
 2972DPPC   C4A57356  22.082   2.360  17.330  0.0670 -0.1533 -0.0589
 2972DPPC   C1B57357  21.628   1.443  18.064  0.1115  0.1393 -0.0342
 2972DPPC   C2B57358  21.904   1.182  17.966 -0.0508  0.2565 -0.2207
 2972DPPC   C3B57359  22.142   0.806  17.881 -0.0467  0.0857  0.3465
 2972DPPC   C4B57360  22.174   0.482  17.610  0.1185  0.2564 -0.0050
 2973DPPC   NC357361   7.595   2.480  21.211 -0.4774 -0.0428 -0.0439
 2973DPPC   PO457362   7.424   2.809  21.020 -0.1944 -0.3612  0.3177
 2973DPPC   GL157363   7.117   2.601  21.035  0.0750 -0.2804 -0.0004
 2973DPPC   GL257364   7.147   2.276  20.885 -0.0579  0.2514 -0.0284
 2973DPPC   C1A57365   6.702   2.646  21.003  0.1101  0.0542 -0.2837
 2973DPPC   C2A57366   6.242   2.732  20.843  0.1089 -0.1236 -0.2513
 2973DPPC   C3A57367   5.826   2.813  20.980  0.0306  0.1119  0.1920
 2973DPPC   C4A57368   5.562   3.112  20.743  0.0410  0.1200  0.1075
 2973DPPC   C1B57369   6.872   2.505  20.539  0.0424  0.0516 -0.0157
 2973DPPC   C2B57370   6.395   2.580  20.333 -0.2102 -0.2838 -0.1905
 2973DPPC   C3B57371   6.056   2.413  20.322  0.1818 -0.0431  0.0484
 2973DPPC   C4B57372   5.666   2.273  20.209 -0.4305  0.0629 -0.3492
 2974DPPC   NC357373   7.214   2.390  23.630  0.0085 -0.3381 -0.1649
 2974DPPC   PO457374   7.226   2.711  23.269  0.1444  0.1801  0.4189
 2974DPPC   GL157375   6.849   2.898  23.041 -0.0685 -0.1186  0.1921
 2974DPPC   GL257376   6.829   3.292  23.157  0.2055 -0.0630 -0.2371
 2974DPPC   C1A57377   6.458   2.791  23.055 -0.0618  0.0824 -0.0333
 2974DPPC   C2A57378   6.129   2.656  23.163  0.1334 -0.1936  0.3344
 2974DPPC   C3A57379   5.734   2.553  23.218 -0.1890  0.2180  0.1884
 2974DPPC   C4A57380   5.357   2.476  23.287 -0.0788 -0.2295 -0.0101
 2974DPPC   C1B57381   6.402   3.340  23.097 -0.0983 -0.1299 -0.0067
 2974DPPC   C2B57382   6.057   3.109  22.982 -0.1614  0.0754  0.3385
 2974DPPC   C3B57383   5.682   2.950  22.927 -0.1161  0.0186  0.2962
 2974DPPC   C4B57384   5.307   3.093  22.590 -0.0144  0.1887 -0.3143
 2975DPPC   NC357385  15.346  -2.863  28.907  0.1815 -0.0939 -0.1989
 2975DPPC   PO457386  15.410  -3.053  28.587  0.0644 -0.4112 -0.1603
 2975DPPC   GL157387  15.508  -3.422  28.649 -0.0399  0.0952 -0.0526
 2975DPPC   GL257388  15.841  -3.429  28.856 -0.5071  0.0352 -0.0795
 2975DPPC   C1A57389  15.442  -3.796  28.810 -0.2291 -0.0252 -0.1471
 2975DPPC   C2A57390  15.494  -3.860  29.242 -0.0111 -0.0622  0.0860
 2975DPPC   C3A57391  15.728  -4.169  29.280  0.1971  0.2421 -0.0172
 2975DPPC   C4A57392  15.556  -4.533  29.631 -0.1740 -0.1063  0.0399
 2975DPPC   C1B57393  15.928  -3.326  29.195  0.1409 -0.4846  0.0671
 2975DPPC   C2B57394  16.043  -3.633  29.381  0.0496 -0.2612 -0.3875
 2975DPPC   C3B57395  15.991  -4.002  29.694 -0.1885  0.0117  0.0145
 2975DPPC   C4B57396  15.960  -4.401  29.958 -0.1966 -0.0751 -0.2023
 2976DPPC   NC357397  13.613  -4.312  23.350 -0.1129 -0.1647 -0.0905
 2976DPPC   PO457398  13.242  -4.525  23.295  0.0338 -0.1637 -0.0428
 2976DPPC   GL157399  13.339  -4.922  23.263 -0.3980 -0.0381 -0.0545
 2976DPPC   GL257400  13.232  -4.949  22.922  0.2866 -0.1507 -0.0862
 2976DPPC   C1A57401  13.291  -5.303  23.317 -0.0555  0.0818  0.2542
 2976DPPC   C2A57402  13.228  -5.724  23.219  0.0544  0.0821  0.1458
 2976DPPC   C3A57403  13.349  -5.959  22.915 -0.2220 -0.0010  0.3078
 2976DPPC   C4A57404  13.413  -6.367  22.791 -0.1402  0.1451 -0.3338
 2976DPPC   C1B57405  13.529  -5.102  22.828 -0.1685 -0.5251 -0.2568
 2976DPPC   C2B57406  13.438  -5.508  22.669  0.0812 -0.0501  0.0008
 2976DPPC   C3B57407  13.165  -5.890  22.384 -0.3973  0.2500  0.0391
 2976DPPC   C4B57408  12.907  -6.083  22.463  0.1610  0.0281  0.5755
 2977DPPC   NC357409  15.703  -1.622  18.652  0.1828  0.0853 -0.0712
 2977DPPC   PO457410  15.278  -1.707  18.438 -0.1740  0.0980 -0.0945
 2977DPPC   GL157411  15.560  -1.669  18.221  0.4169 -0.0127 -0.2231
 2977DPPC   GL257412  15.444  -1.390  18.009 -0.0258  0.2188  0.0912
 2977DPPC   C1A57413  15.911  -1.421  18.111  0.0308 -0.0422  0.0596
 2977DPPC   C2A57414  16.192  -1.212  18.134 -0.1387 -0.0160  0.1567
 2977DPPC   C3A57415  16.521  -1.070  18.154  0.0601  0.1430 -0.0783
 2977DPPC   C4A57416  16.801  -1.215  18.530 -0.0402 -0.1613 -0.0340
 2977DPPC   C1B57417  15.710  -1.614  17.697  0.3017 -0.0854  0.1519
 2977DPPC   C2B57418  15.816  -1.841  17.259  0.1912 -0.1181  0.3211
 2977DPPC   C3B57419  15.705  -2.164  16.922 -0.0984 -0.2972  0.2161
 2977DPPC   C4B57420  15.405  -2.531  17.008 -0.1341 -0.0908  0.2309
 2978DPPC   NC357421  20.604   3.385  11.023  0.0637  0.0255 -0.0357
 2978DPPC   PO457422  20.883   3.135  11.259 -0.0193 -0.0150 -0.2208
 2978DPPC   GL157423  21.004   2.882  11.601 -0.1680  0.0766  0.3201
 2978DPPC   GL257424  20.966   3.056  11.835  0.1018 -0.2859  0.0804
 2978DPPC   C1A57425  20.952   2.586  11.862  0.2801  0.1627  0.3188
 2978DPPC   C2A57426  20.960   2.259  12.208  0.3236  0.0054  0.0038
 2978DPPC   C3A57427  20.945   1.971  12.535 -0.3973  0.2538  0.4252
 2978DPPC   C4A57428  21.016   1.656  12.744  0.1817  0.0928 -0.0939
 2978DPPC   C1B57429  21.103   3.194  12.201 -0.0317  0.0174  0.0635
 2978DPPC   C2B57430  21.081   3.124  12.571 -0.1618 -0.2770 -0.1943
 2978DPPC   C3B57431  21.146   2.921  13.044 -0.3195  0.2358 -0.0265
 2978DPPC   C4B57432  20.909   2.675  13.340 -0.0017 -0.1831 -0.0132
 2979DPPC   NC357433   9.290   4.306  35.620  0.1558  0.1819 -0.1475
 2979DPPC   PO457434   8.914   4.617  35.461  0.4321 -0.2086 -0.1289
 2979DPPC   GL157435   9.301   4.724  35.304 -0.4456 -0.2065  0.0059
 2979DPPC   GL257436   9.621   4.652  35.501  0.1510  0.0809  0.0297
 2979DPPC   C1A57437   9.379   4.775  34.837  0.0368  0.2535  0.1561
 2979DPPC   C2A57438   9.145   4.630  34.475  0.1425  0.2016 -0.0968
 2979DPPC   C3A57439   9.003   4.378  34.016 -0.0928 -0.3731 -0.0695
 2979DPPC   C4A57440   9.130   4.099  33.786 -0.3704  0.1253  0.0314
 2979DPPC   C1B57441   9.759   4.588  35.009  0.2166 -0.1602 -0.0495
 2979DPPC   C2B57442   9.751   4.539  34.561 -0.0854 -0.1855 -0.1345
 2979DPPC   C3B57443   9.930   4.235  34.346  0.2486  0.0554  0.0409
 2979DPPC   C4B57444  10.280   4.259  34.026 -0.1821  0.1359 -0.0306
 2980DPPC   NC357445  20.215   3.477  17.376 -0.0763 -0.0244 -0.1370
 2980DPPC   PO457446  20.103   3.114  17.631  0.0288  0.3240  0.1614
 2980DPPC   GL157447  20.339   2.717  17.455 -0.1051  0.1592  0.2169
 2980DPPC   GL257448  20.251   2.686  17.175 -0.1209  0.0354 -0.2399
 2980DPPC   C1A57449  20.485   2.236  17.572 -0.2453 -0.4876  0.2885
 2980DPPC   C2A57450  20.288   1.935  17.355  0.1276 -0.2903 -0.0120
 2980DPPC   C3A57451  20.303   1.590  17.010 -0.3576  0.0127 -0.0757
 2980DPPC   C4A57452  20.055   1.332  16.673 -0.0544 -0.1780 -0.0577
 2980DPPC   C1B57453  20.581   2.800  16.820 -0.0433  0.1456  0.0601
 2980DPPC   C2B57454  20.744   2.963  16.527 -0.1299 -0.1039  0.0898
 2980DPPC   C3B57455  20.977   2.994  16.257 -0.0437 -0.0890  0.0410
 2980DPPC   C4B57456  21.082   2.837  15.930 -0.1890 -0.0120  0.1671
 2981DPPC   NC357457  22.333  -1.298  25.258  0.2678  0.1454 -0.3050
 2981DPPC   PO457458  22.382  -1.603  25.096 -0.0557 -0.0909  0.1180
 2981DPPC   GL157459  22.622  -1.833  25.207  0.0117 -0.5895 -0.2884
 2981DPPC   GL257460  22.572  -2.231  25.260  0.2478  0.3071  0.4854
 2981DPPC   C1A57461  23.024  -2.153  25.072 -0.3747  0.0696  0.2600
 2981DPPC   C2A57462  23.288  -2.434  25.315 -0.5471  0.0190  0.0199
 2981DPPC   C3A57463  23.420  -2.863  25.250 -0.1907  0.2362 -0.2593
 2981DPPC   C4A57464  23.228  -3.170  25.341 -0.0279 -0.1996  0.1666
 2981DPPC   C1B57465  22.825  -2.507  25.259 -0.1438  0.3546 -0.4561
 2981DPPC   C2B57466  22.951  -2.757  25.135  0.0002  0.2444 -0.0711
 2981DPPC   C3B57467  23.101  -3.002  24.769 -0.2811  0.0087  0.1871
 2981DPPC   C4B57468  23.376  -2.916  24.452  0.0502  0.1226 -0.1578
 2982DPPC   NC357469  16.615  -2.767  20.035 -0.1849 -0.1417 -0.0286
 2982DPPC   PO457470  16.456  -2.945  19.619  0.1121  0.0781 -0.0064
 2982DPPC   GL157471  16.972  -2.968  19.526  0.2757  0.2417 -0.0768
 2982DPPC   GL257472  17.017  -3.272  19.524 -0.0721  0.0633 -0.1503
 2982DPPC   C1A57473  17.122  -2.669  19.258 -0.3175 -0.0455  0.3543
 2982DPPC   C2A57474  17.190  -2.431  18.982 -0.3660  0.1018 -0.2205
 2982DPPC   C3A57475  17.171  -2.423  18.525 -0.1528  0.5060 -0.2014
 2982DPPC   C4A57476  17.150  -2.557  18.093 -0.1086 -0.1597  0.0589
 2982DPPC   C1B57477  17.430  -3.458  19.433 -0.1437  0.1433 -0.1320
 2982DPPC   C2B57478  17.850  -3.641  19.313  0.0723  0.4537  0.1278
 2982DPPC   C3B57479  18.138  -3.893  19.413  0.1476  0.2107 -0.3717
 2982DPPC   C4B57480  18.560  -3.996  19.462 -0.1921  0.0557  0.3245
 2983DPPC   NC357481   8.036   8.319  25.228  0.1092 -0.2119  0.2594
 2983DPPC   PO457482   7.840   8.351  25.584  0.3261  0.2095  0.1630
 2983DPPC   GL157483   7.377   8.329  25.484 -0.0063 -0.0637  0.0820
 2983DPPC   GL257484   7.361   8.156  25.806  0.1266  0.0692 -0.0916
 2983DPPC   C1A57485   7.137   8.650  25.517  0.0219 -0.0566 -0.1514
 2983DPPC   C2A57486   7.138   8.985  25.703 -0.0380 -0.2702  0.1836
 2983DPPC   C3A57487   6.766   9.145  26.002 -0.0504  0.1031  0.2863
 2983DPPC   C4A57488   6.456   9.204  26.311  0.0473 -0.0383 -0.0209
 2983DPPC   C1B57489   6.880   8.168  25.732 -0.1735 -0.2154  0.2795
 2983DPPC   C2B57490   6.458   8.222  25.978 -0.3166  0.2070  0.1292
 2983DPPC   C3B57491   6.086   8.453  26.177  0.0386  0.2772  0.2719
 2983DPPC   C4B57492   5.791   8.364  26.368  0.2925 -0.0605  0.0548
 2984DPPC   NC357493  16.484  12.360  28.521  0.1000 -0.2610 -0.4185
 2984DPPC   PO457494  16.227  12.405  28.127 -0.2305 -0.3653  0.0095
 2984DPPC   GL157495  16.147  12.750  28.180 -0.0860  0.1723  0.0439
 2984DPPC   GL257496  16.360  12.888  27.929  0.0338 -0.2550 -0.2820
 2984DPPC   C1A57497  16.273  13.093  28.454 -0.0225 -0.1848  0.0926
 2984DPPC   C2A57498  16.295  13.459  28.635  0.1127 -0.2265  0.2211
 2984DPPC   C3A57499  16.299  13.786  28.990 -0.1626 -0.0346 -0.1969
 2984DPPC   C4A57500  16.438  14.136  29.250  0.0222  0.0360  0.1075
 2984DPPC   C1B57501  16.673  12.918  28.189 -0.0156 -0.0514 -0.1583
 2984DPPC   C2B57502  16.724  12.952  28.592 -0.2216 -0.1039 -0.0294
 2984DPPC   C3B57503  16.962  13.356  28.701 -0.3311 -0.1158  0.0312
 2984DPPC   C4B57504  16.863  13.815  28.866  0.2094 -0.1933 -0.0495
 2985DPPC   NC357505  11.100  10.393  35.514  0.1912  0.0514 -0.2807
 2985DPPC   PO457506  11.366  10.129  35.552  0.1696 -0.0453  0.2572
 2985DPPC   GL157507  11.700   9.876  35.314 -0.0158  0.0034 -0.3680
 2985DPPC   GL257508  11.931   9.615  35.527 -0.0802 -0.2781  0.1920
 2985DPPC   C1A57509  11.689   9.590  34.990 -0.0604 -0.0823  0.2626
 2985DPPC   C2A57510  11.626   9.231  34.826 -0.0154  0.0179  0.0296
 2985DPPC   C3A57511  11.526   8.950  34.607  0.0844  0.2485 -0.4247
 2985DPPC   C4A57512  11.321   8.584  34.424 -0.2431 -0.3136  0.0745
 2985DPPC   C1B57513  12.254   9.686  35.298 -0.1421 -0.0441  0.1071
 2985DPPC   C2B57514  12.556   9.433  35.301  0.1786 -0.0489  0.1931
 2985DPPC   C3B57515  12.732   9.157  35.007 -0.1153  0.0961  0.1050
 2985DPPC   C4B57516  12.806   8.684  34.952  0.0523 -0.2237 -0.0618
 2986DPPC   NC357517  13.943  16.329  23.123 -0.4486  0.1600  0.3343
 2986DPPC   PO457518  13.557  16.226  23.230 -0.0861  0.2913 -0.1070
 2986DPPC   GL157519  13.519  16.024  23.660 -0.1435  0.0767  0.0910
 2986DPPC   GL257520  13.306  15.822  23.718  0.0841  0.1903  0.0410
 2986DPPC   C1A57521  13.758  15.700  23.878  0.2571 -0.0226  0.0867
 2986DPPC   C2A57522  13.633  15.293  23.936 -0.0613  0.2083 -0.2487
 2986DPPC   C3A57523  13.484  14.864  23.707  0.1799  0.0417  0.0049
 2986DPPC   C4A57524  13.390  14.448  23.614 -0.1152  0.3743  0.0237
 2986DPPC   C1B57525  13.136  15.416  23.847  0.1210 -0.0021 -0.0673
 2986DPPC   C2B57526  13.073  14.938  23.942  0.0208 -0.0382  0.2466
 2986DPPC   C3B57527  13.192  14.520  24.096 -0.1074  0.4326 -0.3306
 2986DPPC   C4B57528  13.117  14.114  24.035 -0.2699  0.0724  0.1530
 2987DPPC   NC357529  14.122  10.715  21.838 -0.1500  0.1022  0.0828
 2987DPPC   PO457530  13.874  10.364  21.594  0.1057  0.1300  0.2178
 2987DPPC   GL157531  13.899  10.762  21.392  0.2979 -0.2429 -0.3531
 2987DPPC   GL257532  13.987  10.567  21.143  0.0884 -0.1054  0.0521
 2987DPPC   C1A57533  13.824  11.179  21.255 -0.1533 -0.4496 -0.1204
 2987DPPC   C2A57534  13.765  11.563  21.249 -0.0848  0.2487  0.5853
 2987DPPC   C3A57535  13.563  11.948  21.154 -0.0104  0.2600 -0.1019
 2987DPPC   C4A57536  13.118  12.070  21.142 -0.1750  0.1931  0.1650
 2987DPPC   C1B57537  13.948  10.856  20.878 -0.2273  0.0652  0.2225
 2987DPPC   C2B57538  13.854  11.225  20.778 -0.1329  0.2422  0.0329
 2987DPPC   C3B57539  13.609  11.602  20.665  0.1076 -0.0996 -0.3912
 2987DPPC   C4B57540  13.497  12.078  20.593 -0.2316  0.1548 -0.1042
 2988DPPC   NC357541  26.668  -0.497  13.732 -0.0135  0.1019  0.1760
 2988DPPC   PO457542  26.370  -0.322  13.434 -0.2650 -0.0768  0.2079
 2988DPPC   GL157543  26.054  -0.432  13.674  0.2124 -0.1575 -0.2973
 2988DPPC   GL257544  25.905  -0.604  13.408 -0.0741  0.0278  0.2119
 2988DPPC   C1A57545  25.840  -0.554  14.077 -0.0041 -0.0543 -0.2259
 2988DPPC   C2A57546  25.938  -0.856  14.440  0.0161  0.1131 -0.1138
 2988DPPC   C3A57547  25.952  -1.174  14.684  0.1555 -0.0894  0.1491
 2988DPPC   C4A57548  26.290  -1.263  15.055  0.2172 -0.0909  0.1723
 2988DPPC   C1B57549  25.533  -0.760  13.440 -0.1534 -0.0200  0.1790
 2988DPPC   C2B57550  25.133  -0.801  13.670 -0.0560  0.2942 -0.0161
 2988DPPC   C3B57551  24.722  -0.791  13.784  0.2376  0.0592 -0.0795
 2988DPPC   C4B57552  24.601  -0.988  14.081 -0.0830  0.0420 -0.0591
 2989DPPC   NC357553  13.510  -2.340  29.222  0.1619  0.1367 -0.0334
 2989DPPC   PO457554  13.596  -2.158  29.711 -0.1050 -0.1832  0.0500
 2989DPPC   GL157555  13.537  -2.497  29.892  0.2590  0.3583 -0.2321
 2989DPPC   GL257556  13.147  -2.474  29.973 -0.1447 -0.1389  0.1652
 2989DPPC   C1A57557  13.681  -2.516  30.380 -0.1146  0.0837 -0.0391
 2989DPPC   C2A57558  13.596  -2.823  30.715  0.2086 -0.0735 -0.1047
 2989DPPC   C3A57559  13.354  -2.824  31.057  0.1933 -0.0414 -0.0833
 2989DPPC   C4A57560  13.075  -2.786  31.517  0.1076  0.3566  0.0568
 2989DPPC   C1B57561  12.859  -2.735  30.253 -0.1595 -0.3465  0.0079
 2989DPPC   C2B57562  12.808  -3.171  30.088 -0.2345  0.1706 -0.0488
 2989DPPC   C3B57563  12.464  -3.493  30.250  0.2859 -0.0003  0.2971
 2989DPPC   C4B57564  12.170  -3.429  30.489  0.1680 -0.0414  0.0408
 2990DPPC   NC357565  19.331  -2.001  28.613  0.4222  0.0386  0.0798
 2990DPPC   PO457566  19.633  -1.675  28.588  0.0033  0.0406  0.0044
 2990DPPC   GL157567  19.837  -2.034  28.746 -0.2133  0.3047  0.3149
 2990DPPC   GL257568  19.641  -2.239  28.924 -0.0481  0.2115 -0.1360
 2990DPPC   C1A57569  20.208  -2.299  28.813  0.0158  0.1105  0.1582
 2990DPPC   C2A57570  20.384  -2.519  29.077 -0.2235 -0.2007 -0.3495
 2990DPPC   C3A57571  20.683  -2.806  29.203 -0.0583  0.2759 -0.0714
 2990DPPC   C4A57572  20.893  -2.971  29.475  0.1679  0.0039 -0.0100
 2990DPPC   C1B57573  19.918  -2.449  29.176  0.0772 -0.0770 -0.2392
 2990DPPC   C2B57574  20.138  -2.674  29.545  0.1391 -0.0747  0.0848
 2990DPPC   C3B57575  20.426  -2.972  29.671 -0.3554 -0.0674  0.1766
 2990DPPC   C4B57576  20.609  -3.242  29.769 -0.1525  0.3381 -0.1647
 2991DPPC   NC357577  11.575   5.599  32.574 -0.1230  0.2041 -0.1140
 2991DPPC   PO457578  11.616   5.106  32.626  0.1187 -0.0789 -0.0716
 2991DPPC   GL157579  11.353   5.305  32.964 -0.0100 -0.0849  0.0315
 2991DPPC   GL257580  11.537   5.259  33.236 -0.2173  0.0912 -0.2178
 2991DPPC   C1A57581  11.075   5.519  33.212  0.2734  0.1577  0.1700
 2991DPPC   C2A57582  10.854   5.622  33.609 -0.1797 -0.0387  0.1429
 2991DPPC   C3A57583  10.398   5.760  33.727 -0.0432  0.1132  0.0030
 2991DPPC   C4A57584  10.080   5.628  33.886  0.0359  0.0232  0.0697
 2991DPPC   C1B57585  11.237   5.336  33.648 -0.1746  0.3111 -0.2353
 2991DPPC   C2B57586  10.982   5.291  33.988 -0.0123  0.0642  0.0625
 2991DPPC   C3B57587  10.854   5.333  34.325 -0.2175 -0.1189  0.0878
 2991DPPC   C4B57588  10.607   5.328  34.720 -0.2423 -0.2169  0.1082
 2992DPPC   NC357589  19.997  10.691  27.963 -0.1691 -0.0469  0.0146
 2992DPPC   PO457590  19.893  10.904  28.288 -0.1128 -0.4494 -0.0077
 2992DPPC   GL157591  20.199  11.194  28.517 -0.2371 -0.0992 -0.0464
 2992DPPC   GL257592  20.583  11.130  28.605 -0.1255  0.4450  0.2477
 2992DPPC   C1A57593  20.223  11.484  28.789  0.0457  0.0675 -0.0087
 2992DPPC   C2A57594  20.237  11.876  28.872  0.2285 -0.2950 -0.3234
 2992DPPC   C3A57595  20.504  12.036  29.144  0.5951 -0.2248 -0.2534
 2992DPPC   C4A57596  20.739  12.029  29.572 -0.0329 -0.1776 -0.1391
 2992DPPC   C1B57597  20.588  11.457  28.430 -0.1388 -0.2383  0.1136
 2992DPPC   C2B57598  20.726  11.771  28.550 -0.4896 -0.2303 -0.0230
 2992DPPC   C3B57599  20.705  12.124  28.722  0.0478  0.0765  0.1525
 2992DPPC   C4B57600  20.382  12.342  28.787 -0.2100  0.2413 -0.0717
 2993DPPC   NC357601  17.577  -4.930  32.987 -0.1611 -0.0983 -0.3520
 2993DPPC   PO457602  17.451  -4.569  33.275  0.0145 -0.1173  0.1004
 2993DPPC   GL157603  17.541  -4.279  32.939  0.1417  0.1979 -0.3212
 2993DPPC   GL257604  17.854  -4.096  33.065  0.4061  0.0254  0.0229
 2993DPPC   C1A57605  17.472  -3.840  32.907  0.0781  0.0780 -0.0692
 2993DPPC   C2A57606  17.561  -3.399  32.766  0.2396 -0.1926 -0.3098
 2993DPPC   C3A57607  17.592  -3.319  32.300  0.0510  0.3926  0.2833
 2993DPPC   C4A57608  17.333  -3.020  32.012 -0.0256  0.2497 -0.2220
 2993DPPC   C1B57609  17.941  -3.755  32.783 -0.0304  0.1198 -0.0822
 2993DPPC   C2B57610  18.104  -3.370  32.512  0.1498  0.0415 -0.3087
 2993DPPC   C3B57611  17.882  -3.001  32.497  0.2598 -0.0866  0.0552
 2993DPPC   C4B57612  17.605  -2.696  32.232 -0.0660  0.0265 -0.1586
 2994DPPC   NC357613  21.299  -1.202  20.862 -0.0966  0.2295  0.1333
 2994DPPC   PO457614  21.026  -1.496  20.990  0.1142  0.1838  0.0636
 2994DPPC   GL157615  20.884  -1.631  20.650 -0.2998 -0.1668  0.2028
 2994DPPC   GL257616  20.607  -1.324  20.520 -0.0604  0.0985  0.2314
 2994DPPC   C1A57617  21.029  -1.953  20.383 -0.2996 -0.2718  0.0574
 2994DPPC   C2A57618  21.262  -2.139  20.002  0.0615 -0.1159  0.0771
 2994DPPC   C3A57619  21.640  -2.147  19.862  0.4915  0.3161 -0.1533
 2994DPPC   C4A57620  21.867  -1.891  19.606  0.1536  0.1775 -0.1265
 2994DPPC   C1B57621  20.744  -1.594  20.153 -0.0542  0.1596  0.1296
 2994DPPC   C2B57622  20.845  -1.749  19.913 -0.2438  0.0197 -0.1359
 2994DPPC   C3B57623  20.950  -2.104  19.588 -0.1281  0.4433 -0.2732
 2994DPPC   C4B57624  21.281  -2.342  19.550  0.0121 -0.0553 -0.1084
 2995DPPC   NC357625  25.873  10.681  19.823  0.1124 -0.1144  0.3380
 2995DPPC   PO457626  25.508  10.390  19.895  0.1188  0.0922 -0.2769
 2995DPPC   GL157627  25.127  10.234  20.063  0.0349  0.1411 -0.1419
 2995DPPC   GL257628  24.749  10.330  19.875 -0.0168  0.0515 -0.4489
 2995DPPC   C1A57629  24.817  10.329  20.413 -0.0809  0.0953  0.3230
 2995DPPC   C2A57630  24.290  10.424  20.461 -0.0643 -0.1313 -0.1053
 2995DPPC   C3A57631  23.850  10.489  20.509  0.2902 -0.0325  0.2618
 2995DPPC   C4A57632  23.619  10.639  20.173  0.0219 -0.1085 -0.0569
 2995DPPC   C1B57633  24.322  10.149  20.049 -0.2756  0.0501  0.1587
 2995DPPC   C2B57634  24.143   9.781  20.219  0.1537  0.2007 -0.0383
 2995DPPC   C3B57635  23.832   9.710  20.475  0.0695 -0.1383  0.0103
 2995DPPC   C4B57636  23.947   9.667  20.915  0.4132 -0.0159  0.0433
 2996DPPC   NC357637  16.456  13.012  17.036  0.0495  0.0417  0.2812
 2996DPPC   PO457638  16.899  13.066  17.282  0.0319  0.1014  0.2591
 2996DPPC   GL157639  17.065  12.773  17.605 -0.0918  0.0862 -0.0891
 2996DPPC   GL257640  17.345  12.757  17.737  0.0096  0.1625  0.0004
 2996DPPC   C1A57641  16.955  12.372  17.806  0.1023  0.2106  0.0786
 2996DPPC   C2A57642  17.263  11.956  17.826  0.0391  0.1748  0.2062
 2996DPPC   C3A57643  17.438  11.694  18.170 -0.1356 -0.0653  0.3800
 2996DPPC   C4A57644  17.385  11.549  18.597 -0.1670 -0.0493 -0.0795
 2996DPPC   C1B57645  17.195  12.691  18.141 -0.0947 -0.1293  0.0790
 2996DPPC   C2B57646  16.982  12.607  18.499 -0.1038  0.0766 -0.0572
 2996DPPC   C3B57647  17.125  12.549  18.965  0.3179  0.1081 -0.0396
 2996DPPC   C4B57648  17.096  12.322  19.322 -0.0770  0.1696  0.1536
 2997DPPC   NC357649  10.104  10.856  28.798  0.2612 -0.0409  0.2199
 2997DPPC   PO457650   9.661  10.921  28.763 -0.2013 -0.1240 -0.3104
 2997DPPC   GL157651   9.399  11.068  29.059  0.1014 -0.1897  0.0061
 2997DPPC   GL257652   9.257  11.291  28.886  0.2196 -0.2597 -0.1199
 2997DPPC   C1A57653   9.141  11.269  29.336  0.2623  0.1161  0.1045
 2997DPPC   C2A57654   8.687  11.298  29.493  0.2651 -0.0469  0.2161
 2997DPPC   C3A57655   8.455  10.842  29.484  0.1622 -0.0545 -0.2316
 2997DPPC   C4A57656   7.937  10.770  29.606 -0.1827  0.1237  0.0984
 2997DPPC   C1B57657   9.077  11.475  28.611 -0.1715 -0.0085 -0.0318
 2997DPPC   C2B57658   8.596  11.395  28.601  0.1095  0.0873  0.0589
 2997DPPC   C3B57659   8.136  11.443  28.559  0.0818  0.0630  0.2111
 2997DPPC   C4B57660   7.742  11.296  28.309 -0.1298  0.0962 -0.1271
 2998DPPC   NC357661  16.324  11.051  22.657 -0.0741 -0.1350  0.2691
 2998DPPC   PO457662  16.488  11.414  22.718 -0.1437 -0.3775  0.2557
 2998DPPC   GL157663  16.649  11.802  22.525 -0.0621 -0.1098  0.3500
 2998DPPC   GL257664  16.788  11.739  22.336 -0.0601 -0.0314 -0.2812
 2998DPPC   C1A57665  16.644  12.221  22.319 -0.1391 -0.1868 -0.2856
 2998DPPC   C2A57666  16.561  12.733  22.270  0.0497 -0.4542  0.2061
 2998DPPC   C3A57667  16.371  13.025  22.029 -0.0373  0.0047  0.2470
 2998DPPC   C4A57668  16.068  12.955  21.735 -0.0534 -0.1207  0.0734
 2998DPPC   C1B57669  16.995  11.913  22.038  0.1686  0.3011 -0.2540
 2998DPPC   C2B57670  16.892  12.129  21.711  0.1712 -0.2018  0.1071
 2998DPPC   C3B57671  16.753  12.482  21.496 -0.0156 -0.1268 -0.0102
 2998DPPC   C4B57672  16.958  12.812  21.232 -0.0102 -0.1403  0.1717
 2999DPPC   NC357673  19.116  -0.930  30.701 -0.1557  0.3071 -0.3058
 2999DPPC   PO457674  18.920  -1.122  30.321 -0.1460 -0.0992  0.0183
 2999DPPC   GL157675  19.206  -1.443  30.420 -0.0520  0.0582  0.0902
 2999DPPC   GL257676  19.257  -1.408  30.806 -0.2514  0.0647  0.2916
 2999DPPC   C1A57677  19.453  -1.788  30.326 -0.2037 -0.2217 -0.1819
 2999DPPC   C2A57678  19.589  -2.227  30.245  0.0588  0.0808  0.0739
 2999DPPC   C3A57679  19.928  -2.634  30.407  0.3105  0.0068 -0.2199
 2999DPPC   C4A57680  20.154  -2.986  30.610 -0.0818  0.1890  0.1784
 2999DPPC   C1B57681  19.373  -1.500  31.061  0.0846  0.1279 -0.2664
 2999DPPC   C2B57682  19.515  -1.706  31.457 -0.0527 -0.2951  0.1930
 2999DPPC   C3B57683  19.488  -2.044  31.665  0.0130 -0.0100  0.3411
 2999DPPC   C4B57684  19.531  -2.451  31.683  0.1797  0.2380  0.0290
 3000DPPC   NC357685  23.938  -4.227  11.795 -0.1749 -0.2602  0.2112
 3000DPPC   PO457686  24.003  -4.172  11.331  0.0269 -0.0974  0.2155
 3000DPPC   GL157687  23.784  -3.894  11.469 -0.2316  0.4907 -0.0024
 3000DPPC   GL257688  23.525  -4.098  11.608  0.3204 -0.0099  0.2651
 3000DPPC   C1A57689  23.695  -3.609  11.750 -0.2234  0.1095  0.0891
 3000DPPC   C2A57690  23.358  -3.346  11.870  0.0454 -0.0721  0.0596
 3000DPPC   C3A57691  23.219  -3.048  12.221  0.0956  0.1391 -0.0144
 3000DPPC   C4A57692  22.996  -3.129  12.507 -0.0714  0.0345 -0.1245
 3000DPPC   C1B57693  23.226  -3.934  11.927 -0.0860 -0.0799  0.1081
 3000DPPC   C2B57694  23.239  -3.568  12.355  0.2496 -0.2271  0.3768
 3000DPPC   C3B57695  23.005  -3.529  12.748 -0.1059  0.0273 -0.1611
 3000DPPC   C4B57696  22.711  -3.674  13.098  0.0256  0.0505 -0.2395
 3001DPPC   NC357697   8.897  -6.659  20.861 -0.0744  0.0394  0.3746
 3001DPPC   PO457698   9.203  -6.767  20.573  0.1527 -0.0736 -0.1084
 3001DPPC   GL157699   9.421  -6.458  20.813  0.1606 -0.0302 -0.3100
 3001DPPC   GL257700   9.738  -6.445  20.928  0.3318  0.0061  0.0272
 3001DPPC   C1A57701   9.507  -6.016  20.927  0.2089 -0.0820 -0.0753
 3001DPPC   C2A57702   9.646  -5.729  21.167 -0.1318 -0.5052 -0.1241
 3001DPPC   C3A57703   9.765  -5.324  21.391 -0.2786 -0.1920 -0.0545
 3001DPPC   C4A57704   9.911  -5.090  21.701 -0.1699 -0.4666 -0.0109
 3001DPPC   C1B57705   9.989  -6.097  21.064 -0.1055  0.1615 -0.1933
 3001DPPC   C2B57706  10.167  -5.834  21.300 -0.0953 -0.0334  0.0468
 3001DPPC   C3B57707  10.358  -5.591  21.685 -0.3216  0.0314  0.0286
 3001DPPC   C4B57708  10.485  -5.228  21.835 -0.3158  0.1868  0.1111
 3002DPPC   NC357709  27.533   7.172  21.721  0.2119  0.2618 -0.0514
 3002DPPC   PO457710  27.592   7.439  22.013 -0.0151  0.0493 -0.3868
 3002DPPC   GL157711  27.164   7.382  22.320 -0.1774  0.3022  0.2105
 3002DPPC   GL257712  27.233   7.174  22.647 -0.0949  0.0724 -0.0198
 3002DPPC   C1A57713  26.803   7.451  22.490 -0.1111  0.2980  0.0753
 3002DPPC   C2A57714  26.515   7.279  22.673 -0.0738  0.0802 -0.1558
 3002DPPC   C3A57715  26.333   6.982  22.454 -0.0711 -0.0230  0.0971
 3002DPPC   C4A57716  26.188   6.658  22.190 -0.2556 -0.5547  0.0567
 3002DPPC   C1B57717  26.969   6.940  22.845 -0.0102  0.0680 -0.1186
 3002DPPC   C2B57718  26.554   6.756  22.935  0.2021 -0.1366  0.0576
 3002DPPC   C3B57719  26.117   6.617  22.670  0.2075  0.4403  0.1572
 3002DPPC   C4B57720  25.804   6.857  22.483 -0.1780 -0.0673 -0.1183
 3003DPPC   NC357721  20.154  -2.968   9.854  0.0629  0.0713  0.3551
 3003DPPC   PO457722  19.896  -2.607   9.832  0.0917  0.1542  0.0065
 3003DPPC   GL157723  19.980  -2.454  10.260 -0.3320  0.4838 -0.2764
 3003DPPC   GL257724  20.298  -2.618  10.254 -0.0335 -0.0707  0.1343
 3003DPPC   C1A57725  20.089  -2.332  10.824 -0.3144  0.0959  0.0741
 3003DPPC   C2A57726  19.756  -2.331  11.019 -0.1280  0.0460 -0.0448
 3003DPPC   C3A57727  19.366  -2.521  11.093 -0.0641  0.1735 -0.2962
 3003DPPC   C4A57728  18.876  -2.553  10.956  0.2833 -0.0405 -0.2761
 3003DPPC   C1B57729  20.573  -2.704  10.541 -0.0702 -0.2085 -0.4205
 3003DPPC   C2B57730  20.588  -2.538  10.856 -0.1075 -0.0017 -0.0714
 3003DPPC   C3B57731  20.437  -2.525  11.200  0.0559 -0.2548  0.0360
 3003DPPC   C4B57732  20.101  -2.609  11.313 -0.2432  0.0934  0.0531
 3004DPPC   NC357733   9.540  -1.613  25.204  0.0622 -0.0107  0.2149
 3004DPPC   PO457734   9.562  -1.864  25.606  0.4083 -0.1350  0.0632
 3004DPPC   GL157735   9.321  -2.260  25.651  0.0019 -0.2012 -0.1779
 3004DPPC   GL257736   9.149  -2.234  25.919 -0.0029  0.2812 -0.0196
 3004DPPC   C1A57737   9.027  -2.575  25.434 -0.2179  0.2255  0.1058
 3004DPPC   C2A57738   8.833  -2.952  25.214  0.1100 -0.2347 -0.1608
 3004DPPC   C3A57739   8.587  -3.378  25.323  0.1940 -0.1760  0.0115
 3004DPPC   C4A57740   8.754  -3.890  25.411 -0.2426  0.2751  0.0162
 3004DPPC   C1B57741   8.707  -2.532  25.910 -0.0607  0.0863  0.1333
 3004DPPC   C2B57742   8.317  -2.666  25.901  0.1060  0.0668  0.1208
 3004DPPC   C3B57743   7.912  -2.477  26.059 -0.1877 -0.0083 -0.0911
 3004DPPC   C4B57744   7.593  -2.472  26.336  0.2734  0.1051  0.0095
 3005DPPC   NC357745  14.944  -0.247  36.919  0.0580  0.2584  0.0410
 3005DPPC   PO457746  15.221  -0.123  36.926 -0.2616 -0.2999  0.1549
 3005DPPC   GL157747  15.087  -0.289  36.456  0.0712  0.0535 -0.4584
 3005DPPC   GL257748  14.837  -0.388  36.355  0.1903  0.0010 -0.1691
 3005DPPC   C1A57749  15.188  -0.177  36.030 -0.0545  0.0679 -0.2758
 3005DPPC   C2A57750  15.185   0.115  35.856 -0.1050  0.0951 -0.0591
 3005DPPC   C3A57751  15.388   0.535  35.722  0.3806  0.2767 -0.0789
 3005DPPC   C4A57752  15.627   0.787  35.570  0.1599  0.3050 -0.0116
 3005DPPC   C1B57753  14.728  -0.473  35.866 -0.0211 -0.2672  0.1143
 3005DPPC   C2B57754  14.695  -0.456  35.399  0.0933  0.1279 -0.1058
 3005DPPC   C3B57755  14.654  -0.196  35.034 -0.0078 -0.1486 -0.0560
 3005DPPC   C4B57756  14.585   0.000  34.675 -0.1471 -0.1320 -0.4137
 3006DPPC   NC357757  23.971  12.161  19.673 -0.1554 -0.2254 -0.4143
 3006DPPC   PO457758  23.593  12.324  19.597  0.0695 -0.1777  0.0136
 3006DPPC   GL157759  23.272  12.083  19.864  0.2047 -0.3237 -0.0564
 3006DPPC   GL257760  22.909  12.196  19.804  0.2603 -0.1907  0.0748
 3006DPPC   C1A57761  23.217  11.765  20.044  0.0591  0.3246 -0.3733
 3006DPPC   C2A57762  22.933  11.356  19.994  0.0541 -0.2290 -0.0537
 3006DPPC   C3A57763  22.810  11.032  20.282  0.1735  0.3931  0.3967
 3006DPPC   C4A57764  22.729  10.776  20.617 -0.0423 -0.0623  0.1180
 3006DPPC   C1B57765  22.629  12.290  20.079 -0.3361 -0.2734  0.0446
 3006DPPC   C2B57766  22.245  12.077  20.041 -0.0519  0.1598 -0.4237
 3006DPPC   C3B57767  21.983  11.854  20.318 -0.1236  0.0226  0.1021
 3006DPPC   C4B57768  21.872  11.505  20.274 -0.0084 -0.2985  0.0659
 3007DPPC   NC357769  18.054  -2.780  20.982  0.1235 -0.0851  0.1887
 3007DPPC   PO457770  17.938  -2.997  20.630 -0.2275 -0.1927 -0.0203
 3007DPPC   GL157771  18.086  -3.185  20.350 -0.0644  0.0252  0.0299
 3007DPPC   GL257772  18.442  -3.227  20.492 -0.2233 -0.1369  0.2391
 3007DPPC   C1A57773  18.082  -3.326  20.019 -0.0743  0.3249  0.0392
 3007DPPC   C2A57774  18.287  -3.408  19.615  0.4185 -0.0865 -0.0620
 3007DPPC   C3A57775  18.699  -3.440  19.383 -0.0761 -0.2295  0.0077
 3007DPPC   C4A57776  18.970  -3.751  19.111 -0.1608 -0.2679 -0.1410
 3007DPPC   C1B57777  18.535  -3.338  20.146  0.0674  0.0893  0.3504
 3007DPPC   C2B57778  18.684  -3.577  19.904  0.0924 -0.0808  0.3160
 3007DPPC   C3B57779  19.089  -3.737  19.581 -0.0735  0.2494 -0.2614
 3007DPPC   C4B57780  19.497  -3.687  19.534  0.1677  0.2239 -0.0562
 3008DPPC   NC357781   8.326   0.512  21.048  0.0818 -0.2312 -0.3317
 3008DPPC   PO457782   8.351   0.562  20.655 -0.3129 -0.0167 -0.1405
 3008DPPC   GL157783   8.031   0.368  20.585 -0.0633  0.0737 -0.0888
 3008DPPC   GL257784   7.818   0.387  20.945  0.2134  0.1041 -0.0971
 3008DPPC   C1A57785   7.593   0.137  20.492 -0.4055 -0.2388  0.2121
 3008DPPC   C2A57786   7.567  -0.269  20.256 -0.3797  0.0787  0.1276
 3008DPPC   C3A57787   7.539  -0.588  19.935 -0.0510  0.5358  0.1157
 3008DPPC   C4A57788   7.152  -0.810  19.703  0.2491  0.2173 -0.0527
 3008DPPC   C1B57789   7.661  -0.082  20.957  0.1817  0.0150 -0.0228
 3008DPPC   C2B57790   7.463  -0.444  20.748 -0.0749  0.2293  0.0877
 3008DPPC   C3B57791   7.026  -0.653  20.755 -0.1187 -0.1198  0.1724
 3008DPPC   C4B57792   6.583  -0.741  20.456 -0.1776 -0.0440 -0.1643
 3009DPPC   NC357793   9.037   8.298  29.275  0.0497  0.1636 -0.1862
 3009DPPC   PO457794   8.707   8.514  29.068 -0.3495 -0.0415  0.0032
 3009DPPC   GL157795   8.352   8.605  29.172  0.2272  0.2441 -0.0916
 3009DPPC   GL257796   8.489   8.712  29.513  0.2695 -0.0175  0.1054
 3009DPPC   C1A57797   7.843   8.721  29.062 -0.0317  0.1778  0.0776
 3009DPPC   C2A57798   7.461   8.788  29.281 -0.0488 -0.2119  0.0608
 3009DPPC   C3A57799   7.182   8.905  29.667 -0.3243 -0.0389  0.1382
 3009DPPC   C4A57800   7.311   9.087  30.004  0.0324  0.2782 -0.0479
 3009DPPC   C1B57801   7.993   8.689  29.525  0.1630 -0.1421  0.2884
 3009DPPC   C2B57802   7.610   8.736  29.760  0.3848  0.0634 -0.4954
 3009DPPC   C3B57803   7.380   8.512  30.034 -0.1706 -0.0824  0.2041
 3009DPPC   C4B57804   7.065   8.332  30.103 -0.2599 -0.0678 -0.0832
 3010DPPC   NC357805   4.136   2.768  30.304  0.0394  0.0409  0.1725
 3010DPPC   PO457806   4.247   3.208  30.518  0.0144 -0.0240 -0.0973
 3010DPPC   GL157807   4.417   3.244  30.119  0.0414 -0.0898  0.4075
 3010DPPC   GL257808   4.174   3.031  29.900 -0.3076  0.3027 -0.3209
 3010DPPC   C1A57809   4.796   3.211  30.025 -0.0779 -0.1604  0.0189
 3010DPPC   C2A57810   5.149   2.995  29.847 -0.4828 -0.0456  0.1963
 3010DPPC   C3A57811   5.582   3.037  29.742  0.1396 -0.3057  0.3283
 3010DPPC   C4A57812   6.029   3.009  29.705 -0.1476  0.0128  0.2890
 3010DPPC   C1B57813   4.185   3.064  29.492 -0.0881 -0.0799  0.2052
 3010DPPC   C2B57814   4.405   3.318  29.179 -0.1720 -0.1819 -0.1482
 3010DPPC   C3B57815   4.687   3.608  29.025 -0.1561 -0.0173 -0.1236
 3010DPPC   C4B57816   5.141   3.682  28.965 -0.1365  0.4009  0.0854
 3011DPPC   NC357817   9.448   3.610  31.362  0.0318 -0.3165 -0.3100
 3011DPPC   PO457818   9.757   3.481  31.697  0.2760 -0.0946  0.0541
 3011DPPC   GL157819   9.373   3.354  31.867  0.0022 -0.1639  0.0738
 3011DPPC   GL257820   9.458   3.333  32.161 -0.0244  0.3875  0.0409
 3011DPPC   C1A57821   8.946   3.437  31.994 -0.1625  0.2527 -0.0583
 3011DPPC   C2A57822   8.457   3.319  32.164 -0.3158  0.1342  0.0714
 3011DPPC   C3A57823   8.436   2.984  32.536 -0.1034  0.0959 -0.0234
 3011DPPC   C4A57824   8.577   2.623  32.844  0.3589  0.1233  0.1020
 3011DPPC   C1B57825   9.378   3.443  32.645  0.0130  0.2067 -0.2463
 3011DPPC   C2B57826   9.385   3.358  33.006 -0.0561 -0.1286  0.0689
 3011DPPC   C3B57827   9.311   3.428  33.455 -0.0225  0.2721  0.1439
 3011DPPC   C4B57828   9.269   3.838  33.376  0.1569 -0.0104  0.2307
 3012DPPC   NC357829  11.576   0.705  31.668  0.0321  0.2665 -0.0182
 3012DPPC   PO457830  11.402   1.061  31.630 -0.1107 -0.0416  0.2108
 3012DPPC   GL157831  11.304   0.921  32.093  0.1767  0.0343 -0.0344
 3012DPPC   GL257832  11.077   1.113  31.998 -0.2377 -0.2550 -0.0640
 3012DPPC   C1A57833  11.142   0.602  32.442 -0.0839 -0.0419 -0.0219
 3012DPPC   C2A57834  11.216   0.425  32.859 -0.2892 -0.3509  0.2171
 3012DPPC   C3A57835  11.440   0.153  33.182  0.2677 -0.2384 -0.0491
 3012DPPC   C4A57836  11.590  -0.288  33.411 -0.4139  0.1138 -0.1666
 3012DPPC   C1B57837  10.773   0.873  32.220 -0.0429 -0.0801  0.0636
 3012DPPC   C2B57838  10.580   0.522  32.436  0.1007 -0.0175 -0.0495
 3012DPPC   C3B57839  10.293   0.243  32.548  0.3846 -0.0996 -0.1445
 3012DPPC   C4B57840  10.358  -0.145  32.344 -0.0862 -0.0593 -0.1662
 3013DPPC   NC357841  22.801  -0.789  24.518 -0.2256  0.3119  0.1294
 3013DPPC   PO457842  23.148  -1.037  24.310 -0.1786 -0.0988 -0.0987
 3013DPPC   GL157843  23.354  -1.528  24.352 -0.0136  0.0644  0.0251
 3013DPPC   GL257844  23.528  -1.455  24.619  0.1792  0.2612 -0.1587
 3013DPPC   C1A57845  23.511  -1.952  24.189 -0.1736 -0.0229 -0.0400
 3013DPPC   C2A57846  23.913  -2.094  24.072  0.2816 -0.1677  0.0980
 3013DPPC   C3A57847  24.303  -2.237  24.146  0.1023 -0.0121  0.2973
 3013DPPC   C4A57848  24.561  -2.603  24.059 -0.3471  0.0516 -0.0233
 3013DPPC   C1B57849  23.792  -1.774  24.638 -0.2159  0.0655 -0.5022
 3013DPPC   C2B57850  23.866  -2.247  24.627 -0.0767  0.1966  0.1367
 3013DPPC   C3B57851  23.796  -2.719  24.614  0.0997  0.0073  0.0430
 3013DPPC   C4B57852  23.725  -3.108  24.929  0.0575 -0.0062  0.0350
 3014DPPC   NC357853  28.743   3.557  26.328 -0.2349 -0.4201 -0.3141
 3014DPPC   PO457854  28.816   3.980  26.081  0.1904 -0.0709 -0.0587
 3014DPPC   GL157855  28.413   4.024  26.063  0.1961 -0.0285  0.1747
 3014DPPC   GL257856  28.257   4.046  25.708  0.0852 -0.3393  0.0814
 3014DPPC   C1A57857  28.073   3.706  26.095  0.1218 -0.0653 -0.2686
 3014DPPC   C2A57858  27.728   3.793  26.149  0.0567 -0.0218 -0.0129
 3014DPPC   C3A57859  27.282   3.972  26.249 -0.1253  0.0760 -0.1316
 3014DPPC   C4A57860  26.875   4.173  26.217 -0.0331 -0.0138 -0.2186
 3014DPPC   C1B57861  28.012   3.691  25.548 -0.1860 -0.0979  0.1393
 3014DPPC   C2B57862  27.670   3.449  25.625  0.0476 -0.3578  0.1456
 3014DPPC   C3B57863  27.258   3.555  25.850 -0.1277  0.1672 -0.1599
 3014DPPC   C4B57864  26.923   3.638  26.011 -0.0296  0.1367 -0.1941
 3015DPPC   NC357865  16.928   1.305  17.075 -0.0546  0.0678  0.3136
 3015DPPC   PO457866  16.658   1.363  17.362  0.2148  0.1249 -0.0607
 3015DPPC   GL157867  17.102   1.085  17.530 -0.0400 -0.1834  0.2541
 3015DPPC   GL257868  17.255   0.985  17.189  0.0721 -0.2228 -0.1340
 3015DPPC   C1A57869  17.478   0.772  17.630 -0.1672 -0.0805 -0.2350
 3015DPPC   C2A57870  17.605   0.226  17.590  0.2395 -0.1363 -0.1573
 3015DPPC   C3A57871  17.855  -0.205  17.506 -0.2054 -0.0855  0.1309
 3015DPPC   C4A57872  18.133  -0.359  17.751  0.0139  0.0828  0.0073
 3015DPPC   C1B57873  17.214   0.614  17.189 -0.1691 -0.0579  0.0058
 3015DPPC   C2B57874  17.314   0.259  17.085  0.2457 -0.1349  0.1345
 3015DPPC   C3B57875  17.433  -0.007  16.732 -0.1623  0.0401 -0.2176
 3015DPPC   C4B57876  17.681  -0.094  16.413 -0.0870  0.4172  0.1645
 3016DPPC   NC357877  19.447  -1.217   9.864 -0.1154  0.1477 -0.4811
 3016DPPC   PO457878  19.540  -0.862   9.598 -0.2605 -0.0128 -0.0492
 3016DPPC   GL157879  19.915  -0.974   9.992  0.0531 -0.1195  0.4261
 3016DPPC   GL257880  19.700  -1.092  10.240  0.3128 -0.2493  0.0183
 3016DPPC   C1A57881  20.147  -0.912  10.398 -0.0974  0.3345  0.1478
 3016DPPC   C2A57882  20.116  -1.015  10.782  0.1382 -0.0678  0.1911
 3016DPPC   C3A57883  19.798  -0.929  11.005 -0.1004  0.1625  0.4091
 3016DPPC   C4A57884  19.408  -1.009  11.143  0.0430  0.0915 -0.1751
 3016DPPC   C1B57885  19.720  -1.335  10.675  0.0437  0.1843 -0.0016
 3016DPPC   C2B57886  19.672  -1.398  11.027 -0.0440  0.0206 -0.0280
 3016DPPC   C3B57887  19.438  -1.804  11.124 -0.2181 -0.0186 -0.1547
 3016DPPC   C4B57888  19.472  -2.159  11.401 -0.0485 -0.2127 -0.1209
 3017DPPC   NC357889  22.108  -8.839  14.983 -0.0620 -0.0027  0.0209
 3017DPPC   PO457890  21.986  -8.841  15.465 -0.0815  0.4241 -0.0365
 3017DPPC   GL157891  21.781  -8.767  15.867  0.2394 -0.1604  0.1533
 3017DPPC   GL257892  21.505  -8.572  15.638 -0.3398  0.1264 -0.0041
 3017DPPC   C1A57893  21.898  -8.388  16.138  0.0166  0.3271 -0.0825
 3017DPPC   C2A57894  21.743  -7.965  16.102 -0.0536  0.0257  0.1186
 3017DPPC   C3A57895  21.785  -7.708  15.824 -0.4155 -0.0381 -0.1931
 3017DPPC   C4A57896  21.505  -7.330  15.710  0.2470 -0.1702 -0.0851
 3017DPPC   C1B57897  21.386  -8.300  15.893 -0.3770 -0.0188 -0.0993
 3017DPPC   C2B57898  21.284  -7.872  15.869  0.0511  0.1915  0.4564
 3017DPPC   C3B57899  20.942  -7.586  15.930  0.1644 -0.0742 -0.0108
 3017DPPC   C4B57900  20.855  -7.242  15.947  0.0100  0.0263  0.1292
 3018DPPC   NC357901  23.924   4.911  23.063  0.0096 -0.1122 -0.1130
 3018DPPC   PO457902  24.184   4.693  22.776 -0.1159 -0.1704  0.0097
 3018DPPC   GL157903  24.498   4.963  22.626 -0.0510 -0.2292  0.2513
 3018DPPC   GL257904  24.529   5.233  22.357  0.0179  0.0186 -0.0716
 3018DPPC   C1A57905  24.923   4.841  22.553 -0.0891  0.2944 -0.0966
 3018DPPC   C2A57906  25.303   5.002  22.425 -0.1781 -0.0160 -0.0013
 3018DPPC   C3A57907  25.664   4.921  22.513 -0.0276 -0.0753 -0.2821
 3018DPPC   C4A57908  26.120   4.728  22.746  0.2435  0.2942 -0.1108
 3018DPPC   C1B57909  24.883   5.284  22.134 -0.0809  0.0623  0.1944
 3018DPPC   C2B57910  25.175   5.521  21.983 -0.1953  0.2143 -0.1417
 3018DPPC   C3B57911  25.419   5.694  21.598  0.0767  0.0032  0.1025
 3018DPPC   C4B57912  25.843   5.829  21.449 -0.1378  0.0159 -0.1029
 3019DPPC   NC357913  13.939  -4.217  21.421 -0.1965 -0.0908  0.4612
 3019DPPC   PO457914  13.712  -4.184  21.831  0.1316 -0.1868  0.1044
 3019DPPC   GL157915  13.734  -4.628  21.877 -0.2908  0.0351 -0.5204
 3019DPPC   GL257916  13.386  -4.707  21.879  0.1035  0.1599 -0.0527
 3019DPPC   C1A57917  13.800  -5.020  21.993  0.0951  0.0374 -0.4244
 3019DPPC   C2A57918  13.666  -5.377  22.026 -0.1622  0.0280 -0.2422
 3019DPPC   C3A57919  13.605  -5.712  22.248 -0.1160 -0.0043  0.1571
 3019DPPC   C4A57920  13.626  -6.142  22.366 -0.4677  0.1407 -0.2124
 3019DPPC   C1B57921  13.045  -4.983  21.988  0.0858 -0.0195  0.0999
 3019DPPC   C2B57922  12.747  -5.292  21.847  0.0700  0.2024  0.4376
 3019DPPC   C3B57923  12.825  -5.812  21.832  0.0022 -0.0103 -0.0530
 3019DPPC   C4B57924  12.613  -6.137  21.605 -0.1066  0.2691 -0.1122
 3020DPPC   NC357925  11.690   8.380  20.764  0.3585  0.3143 -0.3497
 3020DPPC   PO457926  11.376   8.797  20.591 -0.0057  0.1113 -0.1937
 3020DPPC   GL157927  11.369   9.085  20.209  0.2834  0.2793  0.1143
 3020DPPC   GL257928  11.263   9.413  20.349 -0.2103  0.2295 -0.0756
 3020DPPC   C1A57929  10.975   9.262  19.970  0.1161 -0.1251  0.0308
 3020DPPC   C2A57930  10.946   9.249  19.516 -0.0936 -0.1108 -0.2775
 3020DPPC   C3A57931  10.594   9.268  19.251  0.0996 -0.0642 -0.0712
 3020DPPC   C4A57932  10.470   9.608  18.876 -0.0342  0.3115 -0.0852
 3020DPPC   C1B57933  11.182   9.737  20.083  0.1821  0.1260 -0.2007
 3020DPPC   C2B57934  11.143  10.050  19.885 -0.0031  0.1058 -0.1356
 3020DPPC   C3B57935  11.134  10.304  19.606 -0.2459 -0.0592  0.0443
 3020DPPC   C4B57936  11.259  10.673  19.358  0.1920  0.1201  0.2200
 3021DPPC   NC357937  10.827   3.722  32.261 -0.0858 -0.1087  0.0497
 3021DPPC   PO457938  10.477   3.921  32.282 -0.0121  0.1637  0.1840
 3021DPPC   GL157939  10.447   4.031  32.572  0.2865 -0.1042 -0.0899
 3021DPPC   GL257940  10.696   3.909  32.700 -0.0656  0.3338 -0.3433
 3021DPPC   C1A57941  10.593   4.463  32.652 -0.0249 -0.1671  0.2671
 3021DPPC   C2A57942  10.523   4.770  33.018 -0.0734 -0.1602 -0.0550
 3021DPPC   C3A57943  10.292   4.945  33.361  0.4028  0.1826 -0.1016
 3021DPPC   C4A57944  10.106   5.216  33.600  0.3442 -0.0538  0.0531
 3021DPPC   C1B57945  10.662   4.181  33.027 -0.1780 -0.0359 -0.0792
 3021DPPC   C2B57946  10.325   4.388  33.108 -0.2423  0.1383 -0.0958
 3021DPPC   C3B57947  10.050   4.468  33.440  0.0616  0.0436 -0.1850
 3021DPPC   C4B57948   9.854   4.252  33.837  0.1668 -0.0244  0.4079
 3022DPPC   NC357949  17.275  11.169  15.523 -0.2817 -0.1077  0.0440
 3022DPPC   PO457950  17.152  11.373  15.907 -0.2494 -0.1588 -0.0746
 3022DPPC   GL157951  17.138  11.329  16.348 -0.0640  0.0655  0.3037
 3022DPPC   GL257952  16.913  11.578  16.492  0.1572  0.3897  0.0812
 3022DPPC   C1A57953  17.143  11.084  16.767 -0.1802  0.0510 -0.2782
 3022DPPC   C2A57954  16.837  10.903  17.017 -0.2638  0.0914 -0.0782
 3022DPPC   C3A57955  16.522  10.562  17.165 -0.2527 -0.0680  0.1500
 3022DPPC   C4A57956  16.370  10.149  17.255 -0.4356  0.1132 -0.2136
 3022DPPC   C1B57957  16.707  11.461  16.841  0.1943 -0.0437  0.0491
 3022DPPC   C2B57958  16.429  11.174  16.946 -0.3144 -0.1375  0.1854
 3022DPPC   C3B57959  16.157  10.949  17.264 -0.0468 -0.0037  0.1244
 3022DPPC   C4B57960  16.063  10.651  17.649  0.1385  0.3237  0.0459
 3023DPPC   NC357961   9.714   5.488  20.855 -0.1549 -0.3118 -0.1654
 3023DPPC   PO457962   9.438   5.634  20.525 -0.6090  0.1640  0.2478
 3023DPPC   GL157963   9.268   5.770  20.143  0.0506  0.0345  0.2239
 3023DPPC   GL257964   8.994   5.640  20.051  0.1078 -0.1397 -0.3606
 3023DPPC   C1A57965   9.328   5.901  19.721  0.1144  0.2297 -0.0972
 3023DPPC   C2A57966   9.199   6.071  19.444  0.3888 -0.1941 -0.0879
 3023DPPC   C3A57967   9.164   6.297  19.172 -0.0416 -0.2681  0.0933
 3023DPPC   C4A57968   8.873   6.314  18.839  0.2014 -0.3353  0.1863
 3023DPPC   C1B57969   8.589   5.718  19.846  0.2201 -0.3050 -0.3591
 3023DPPC   C2B57970   8.161   5.612  19.616  0.2573 -0.0495  0.1532
 3023DPPC   C3B57971   7.843   5.404  19.591 -0.0788 -0.1334 -0.2584
 3023DPPC   C4B57972   7.298   5.392  19.676  0.1336  0.1051  0.0189
 3024DPPC   NC357973  17.964  11.580  28.121 -0.1729  0.0878  0.1922
 3024DPPC   PO457974  18.052  11.826  27.891 -0.2361 -0.1819 -0.3429
 3024DPPC   GL157975  18.247  12.077  28.212  0.3408  0.0170  0.1276
 3024DPPC   GL257976  18.423  12.237  28.011  0.2392  0.1391 -0.0561
 3024DPPC   C1A57977  18.373  12.423  28.469 -0.2694 -0.0483  0.0615
 3024DPPC   C2A57978  18.718  12.667  28.422  0.0465 -0.3390 -0.0053
 3024DPPC   C3A57979  18.817  13.045  28.197  0.2176 -0.1885 -0.4765
 3024DPPC   C4A57980  19.008  13.232  27.878 -0.0454  0.1588 -0.0728
 3024DPPC   C1B57981  18.325  12.652  27.981 -0.2458  0.2179 -0.0808
 3024DPPC   C2B57982  18.286  13.102  28.143 -0.1927  0.0500 -0.0455
 3024DPPC   C3B57983  17.995  13.379  28.253 -0.2639 -0.2185  0.1656
 3024DPPC   C4B57984  17.539  13.329  28.403  0.0204  0.0953 -0.0297
 3025DPPC   NC357985   7.477  14.123  27.509 -0.2847 -0.2758  0.0509
 3025DPPC   PO457986   7.459  13.889  27.123  0.2937 -0.3345  0.0229
 3025DPPC   GL157987   7.848  13.778  27.173 -0.4135 -0.3265  0.2010
 3025DPPC   GL257988   8.135  13.885  27.166  0.0890 -0.2905 -0.2603
 3025DPPC   C1A57989   8.110  13.451  27.309  0.0720  0.0430  0.0782
 3025DPPC   C2A57990   8.559  13.403  27.218 -0.1294 -0.2543 -0.1581
 3025DPPC   C3A57991   8.984  13.331  26.844  0.0064  0.2841 -0.2969
 3025DPPC   C4A57992   9.030  12.910  26.645 -0.2065  0.2392  0.0177
 3025DPPC   C1B57993   8.551  14.026  27.383 -0.1159 -0.0183 -0.0410
 3025DPPC   C2B57994   8.878  13.700  27.485  0.0162  0.2710 -0.1149
 3025DPPC   C3B57995   9.169  13.410  27.386 -0.0434  0.1909  0.4929
 3025DPPC   C4B57996   9.532  13.185  27.187 -0.0269  0.3355  0.0264
 3026DPPC   NC357997  22.510   9.152  28.535 -0.1778  0.0253 -0.0671
 3026DPPC   PO457998  22.831   8.856  28.581 -0.0271  0.1077 -0.0275
 3026DPPC   GL157999  23.093   9.242  28.526  0.0941  0.3362 -0.0478
 3026DPPC   GL258000  23.311   9.241  28.668  0.1703  0.2289 -0.2801
 3026DPPC   C1A58001  23.235   9.721  28.538  0.1022 -0.0113 -0.1712
 3026DPPC   C2A58002  23.663   9.858  28.650 -0.0638 -0.0987 -0.3434
 3026DPPC   C3A58003  23.918   9.984  28.772  0.1135  0.0328 -0.0412
 3026DPPC   C4A58004  24.344   9.979  28.971  0.2349 -0.1582  0.1053
 3026DPPC   C1B58005  23.793   9.247  28.749 -0.1415  0.0478 -0.0544
 3026DPPC   C2B58006  24.206   9.395  28.911 -0.0481  0.0058  0.2873
 3026DPPC   C3B58007  24.558   9.196  28.806  0.0569  0.0735  0.1450
 3026DPPC   C4B58008  24.713   8.817  28.558  0.0657  0.0138  0.0155
 3027DPPC   NC358009   3.757   6.551  22.848 -0.0730 -0.0490 -0.0198
 3027DPPC   PO458010   3.881   6.353  22.381  0.0151 -0.0494 -0.2127
 3027DPPC   GL158011   4.080   5.987  22.272 -0.0567 -0.2653  0.0295
 3027DPPC   GL258012   4.044   5.798  22.629  0.2594 -0.0185  0.0684
 3027DPPC   C1A58013   4.433   5.798  22.165  0.0377 -0.0222  0.3203
 3027DPPC   C2A58014   4.816   5.716  22.191  0.3320 -0.0045 -0.1489
 3027DPPC   C3A58015   5.128   5.571  22.137 -0.0596  0.1490  0.5036
 3027DPPC   C4A58016   5.137   5.166  22.012  0.0005  0.1018 -0.3762
 3027DPPC   C1B58017   4.363   5.429  22.606  0.0899 -0.0645  0.0254
 3027DPPC   C2B58018   4.572   5.048  22.704 -0.1012 -0.2386 -0.0060
 3027DPPC   C3B58019   4.928   4.801  22.787 -0.1352  0.0770  0.1056
 3027DPPC   C4B58020   5.351   4.674  22.642 -0.0150 -0.1781  0.0472
 3028DPPC   NC358021  18.972  -9.535  18.658 -0.0400 -0.0315  0.0841
 3028DPPC   PO458022  18.509  -9.411  18.614 -0.1185 -0.0758  0.0131
 3028DPPC   GL158023  18.678  -9.205  18.317  0.2974 -0.1228 -0.2582
 3028DPPC   GL258024  18.525  -8.933  18.422  0.2081  0.0509 -0.4748
 3028DPPC   C1A58025  18.927  -8.869  18.235  0.0127  0.0108 -0.0435
 3028DPPC   C2A58026  18.859  -8.333  18.245 -0.1984 -0.0409  0.0618
 3028DPPC   C3A58027  18.809  -7.961  18.138 -0.0846 -0.1411 -0.1424
 3028DPPC   C4A58028  18.602  -7.617  18.229 -0.0409  0.1072  0.2925
 3028DPPC   C1B58029  18.484  -8.715  18.100  0.2257  0.2993  0.0870
 3028DPPC   C2B58030  18.468  -8.318  17.982  0.4222 -0.2860  0.0821
 3028DPPC   C3B58031  18.468  -7.921  17.788 -0.0985 -0.0264 -0.2653
 3028DPPC   C4B58032  18.820  -7.618  17.720  0.4567 -0.1434 -0.2155
 3029DPPC   NC358033   7.314  -3.627  18.380 -0.3856 -0.3458  0.2084
 3029DPPC   PO458034   7.187  -3.169  18.466 -0.0687 -0.1201 -0.2172
 3029DPPC   GL158035   7.103  -2.683  18.735 -0.3536  0.2209  0.1573
 3029DPPC   GL258036   6.886  -2.530  18.958 -0.4184 -0.0412  0.0841
 3029DPPC   C1A58037   7.490  -2.461  18.849  0.0318  0.1567 -0.1877
 3029DPPC   C2A58038   7.797  -2.412  19.015  0.1178 -0.2181  0.2254
 3029DPPC   C3A58039   8.038  -2.653  19.240 -0.1025  0.0312  0.3381
 3029DPPC   C4A58040   8.310  -3.042  19.398 -0.0117  0.2778 -0.2190
 3029DPPC   C1B58041   7.032  -2.353  19.333  0.2303 -0.2119  0.1638
 3029DPPC   C2B58042   7.351  -2.163  19.543 -0.2501 -0.2679 -0.0792
 3029DPPC   C3B58043   7.902  -2.190  19.511 -0.0812  0.0712 -0.0119
 3029DPPC   C4B58044   8.313  -2.079  19.540  0.0572  0.0845  0.1846
 3030DPPC   NC358045  10.158  16.077  29.138 -0.3335  0.0531 -0.1709
 3030DPPC   PO458046  10.199  15.620  29.230 -0.0570  0.1096  0.1367
 3030DPPC   GL158047  10.341  15.212  28.988 -0.2376  0.1070  0.1670
 3030DPPC   GL258048  10.250  15.014  29.190 -0.1368  0.3733  0.2106
 3030DPPC   C1A58049  10.566  14.868  28.719  0.1842  0.0642  0.2075
 3030DPPC   C2A58050  11.101  14.750  28.487 -0.2717 -0.4174  0.0690
 3030DPPC   C3A58051  11.244  14.533  28.838  0.3055  0.1726 -0.2367
 3030DPPC   C4A58052  11.139  14.088  28.985  0.0138  0.0819  0.0092
 3030DPPC   C1B58053  10.203  14.543  29.039 -0.1712 -0.2950 -0.0796
 3030DPPC   C2B58054  10.308  14.066  28.870  0.2894 -0.4150  0.1751
 3030DPPC   C3B58055  10.604  13.920  28.628 -0.0244  0.0502  0.2650
 3030DPPC   C4B58056  10.961  13.722  28.522 -0.0435 -0.1888 -0.2319
 3031DPPC   NC358057  20.592  -5.795  17.542 -0.0555  0.1714  0.0284
 3031DPPC   PO458058  20.767  -5.579  17.148  0.1872  0.1331  0.0263
 3031DPPC   GL158059  21.011  -6.052  17.094 -0.0012 -0.4533  0.0781
 3031DPPC   GL258060  21.252  -6.278  16.987 -0.1852 -0.4050 -0.2219
 3031DPPC   C1A58061  20.720  -6.474  16.967 -0.0776 -0.0196  0.2153
 3031DPPC   C2A58062  20.501  -6.751  17.371 -0.1895  0.0362  0.0749
 3031DPPC   C3A58063  20.618  -7.058  17.558 -0.1107 -0.3724  0.1120
 3031DPPC   C4A58064  20.631  -7.177  17.993 -0.0250 -0.2530 -0.1626
 3031DPPC   C1B58065  21.442  -6.091  16.654 -0.1274  0.2390 -0.1910
 3031DPPC   C2B58066  21.568  -6.299  16.263  0.1583 -0.2585  0.0209
 3031DPPC   C3B58067  21.434  -6.396  15.859 -0.1492 -0.3215  0.2152
 3031DPPC   C4B58068  21.029  -6.355  15.707  0.2278 -0.2317  0.3012
 3032DPPC   NC358069  15.083  -2.781  18.447 -0.0617  0.1797  0.1935
 3032DPPC   PO458070  14.987  -3.162  18.537 -0.0614 -0.0798 -0.1147
 3032DPPC   GL158071  15.108  -3.401  18.169 -0.2012  0.1747  0.0337
 3032DPPC   GL258072  15.344  -3.160  18.182 -0.0352 -0.0625 -0.1088
 3032DPPC   C1A58073  15.454  -3.640  18.000 -0.0601 -0.1702  0.1932
 3032DPPC   C2A58074  15.812  -3.953  17.908 -0.0409 -0.0152 -0.2372
 3032DPPC   C3A58075  15.802  -4.377  17.726  0.0884 -0.2244 -0.1060
 3032DPPC   C4A58076  15.633  -4.747  17.476  0.2119  0.2456 -0.1029
 3032DPPC   C1B58077  15.776  -3.029  18.083 -0.2144  0.2436 -0.0607
 3032DPPC   C2B58078  16.022  -3.284  17.848 -0.0188  0.1069  0.1067
 3032DPPC   C3B58079  16.283  -3.629  17.628 -0.2524  0.0128 -0.3387
 3032DPPC   C4B58080  16.386  -4.097  17.756 -0.4909  0.4865  0.1166
 3033DPPC   NC358081   7.156   1.201  34.850 -0.2717  0.1936  0.1014
 3033DPPC   PO458082   7.294   1.370  34.474 -0.1270 -0.0166 -0.2062
 3033DPPC   GL158083   7.506   1.737  34.242  0.1882  0.0227 -0.0241
 3033DPPC   GL258084   7.793   1.719  34.504  0.1344  0.2021 -0.0855
 3033DPPC   C1A58085   7.686   1.860  33.920 -0.1671 -0.1311 -0.2038
 3033DPPC   C2A58086   8.024   1.725  33.532 -0.0939 -0.3264 -0.1193
 3033DPPC   C3A58087   7.988   1.816  33.021 -0.1620 -0.0884  0.1264
 3033DPPC   C4A58088   7.830   2.120  32.638  0.0115  0.0324 -0.0921
 3033DPPC   C1B58089   8.098   1.671  34.192  0.0089 -0.1339  0.0740
 3033DPPC   C2B58090   8.425   2.004  33.954 -0.0296  0.0088 -0.1554
 3033DPPC   C3B58091   8.798   2.161  33.856 -0.1154 -0.2692  0.0716
 3033DPPC   C4B58092   9.057   2.484  33.643 -0.3686  0.2162  0.0698
 3034DPPC   NC358093  18.846   9.260  37.368 -0.1742 -0.3623 -0.0959
 3034DPPC   PO458094  19.078   9.200  37.044 -0.3052 -0.0514  0.1191
 3034DPPC   GL158095  18.695   9.036  36.829  0.1497  0.0673 -0.0871
 3034DPPC   GL258096  18.755   9.073  36.530 -0.0566  0.1235  0.3307
 3034DPPC   C1A58097  18.475   8.726  36.771 -0.0811  0.0358 -0.2309
 3034DPPC   C2A58098  18.280   8.408  36.552  0.0889 -0.2578 -0.1422
 3034DPPC   C3A58099  18.338   8.032  36.267  0.3035  0.1233  0.1303
 3034DPPC   C4A58100  18.290   7.876  35.875 -0.1032 -0.0169 -0.1043
 3034DPPC   C1B58101  18.768   8.613  36.392  0.1035  0.0429 -0.1974
 3034DPPC   C2B58102  18.801   8.300  36.406  0.0876 -0.0192  0.3101
 3034DPPC   C3B58103  18.800   8.013  35.996  0.0526 -0.0321 -0.2378
 3034DPPC   C4B58104  19.113   7.935  35.804 -0.0726  0.0120  0.1140
 3035DPPC   NC358105  25.205  -4.868  12.430 -0.1472  0.2032  0.1795
 3035DPPC   PO458106  24.875  -5.177  12.495  0.1571  0.0746 -0.2963
 3035DPPC   GL158107  24.578  -5.194  12.868  0.0323 -0.1807  0.2021
 3035DPPC   GL258108  24.796  -5.027  13.140 -0.0068  0.0666 -0.0384
 3035DPPC   C1A58109  24.221  -4.961  13.042 -0.2778  0.0840 -0.1412
 3035DPPC   C2A58110  23.733  -4.963  13.169  0.1289 -0.0604 -0.2367
 3035DPPC   C3A58111  23.300  -4.933  13.309 -0.2501 -0.0350 -0.0499
 3035DPPC   C4A58112  22.826  -4.959  13.395 -0.0127  0.0577  0.0750
 3035DPPC   C1B58113  24.521  -4.643  13.322 -0.0157 -0.0906 -0.1705
 3035DPPC   C2B58114  24.418  -4.345  13.693 -0.2102 -0.1657 -0.1366
 3035DPPC   C3B58115  24.318  -3.975  13.841  0.0814  0.2635  0.0036
 3035DPPC   C4B58116  23.998  -3.868  14.214  0.0290  0.0478  0.0768
 3036DPPC   NC358117  19.901   1.074  15.052  0.2190  0.0260  0.0438
 3036DPPC   PO458118  19.945   1.523  14.875  0.0922 -0.4329 -0.0104
 3036DPPC   GL158119  19.801   1.964  14.745 -0.0340 -0.0010 -0.3257
 3036DPPC   GL258120  19.941   2.123  14.922  0.1854 -0.0929 -0.0079
 3036DPPC   C1A58121  19.653   2.284  14.536  0.0012 -0.0356 -0.2150
 3036DPPC   C2A58122  19.481   2.688  14.521 -0.1974 -0.1112  0.0060
 3036DPPC   C3A58123  19.770   3.016  14.430 -0.2107  0.0048  0.0010
 3036DPPC   C4A58124  19.863   3.324  14.299 -0.0904  0.0460 -0.0204
 3036DPPC   C1B58125  20.124   2.397  14.764 -0.1926  0.0062  0.3124
 3036DPPC   C2B58126  20.083   2.648  14.469 -0.0520 -0.0401 -0.0101
 3036DPPC   C3B58127  20.361   2.600  14.088 -0.1724 -0.0680  0.1998
 3036DPPC   C4B58128  20.722   2.861  14.036  0.1280 -0.0312 -0.0533
 3037DPPC   NC358129  15.098  -1.063  36.360 -0.2131  0.2765  0.0967
 3037DPPC   PO458130  14.897  -0.692  36.680  0.0770  0.2463  0.0276
 3037DPPC   GL158131  14.535  -0.788  36.435 -0.1562 -0.1328  0.3807
 3037DPPC   GL258132  14.577  -0.906  36.060  0.0037 -0.0767 -0.2286
 3037DPPC   C1A58133  14.295  -0.449  36.227 -0.0117  0.1939 -0.0473
 3037DPPC   C2A58134  14.115  -0.273  35.807  0.0912 -0.0090  0.1281
 3037DPPC   C3A58135  14.280  -0.075  35.461  0.4462 -0.3158 -0.0924
 3037DPPC   C4A58136  14.259   0.195  35.059  0.0367  0.2426 -0.4271
 3037DPPC   C1B58137  14.453  -0.839  35.693 -0.1174 -0.1661  0.1205
 3037DPPC   C2B58138  14.216  -0.711  35.342  0.2052 -0.1071  0.2238
 3037DPPC   C3B58139  14.177  -0.386  34.961 -0.3234 -0.1865 -0.2942
 3037DPPC   C4B58140  14.246  -0.348  34.547  0.2165 -0.1334  0.1869
 3038DPPC   NC358141  21.824  15.123  23.784  0.2905 -0.4531 -0.2744
 3038DPPC   PO458142  22.015  14.808  23.547 -0.0116  0.0251 -0.0512
 3038DPPC   GL158143  21.800  14.316  23.525 -0.0180  0.0701 -0.1514
 3038DPPC   GL258144  21.821  14.085  23.266  0.1079 -0.2852 -0.3839
 3038DPPC   C1A58145  21.631  14.088  23.834  0.1473  0.0693 -0.4128
 3038DPPC   C2A58146  21.619  13.878  24.230  0.0599  0.0707 -0.3566
 3038DPPC   C3A58147  21.329  13.590  24.469  0.1172  0.2891 -0.0901
 3038DPPC   C4A58148  21.311  13.295  24.864  0.1985  0.1796 -0.2088
 3038DPPC   C1B58149  21.349  14.079  23.331  0.2333 -0.0676 -0.1950
 3038DPPC   C2B58150  21.028  13.709  23.478  0.0593  0.0238  0.0088
 3038DPPC   C3B58151  20.734  13.368  23.514  0.0280  0.1234 -0.1532
 3038DPPC   C4B58152  20.365  13.096  23.678  0.0406  0.0517 -0.2776
 3039DPPC   NC358153  19.909  -5.983  17.142  0.0651 -0.0540  0.0847
 3039DPPC   PO458154  19.563  -6.134  17.296 -0.4283 -0.0716  0.2564
 3039DPPC   GL158155  19.555  -6.562  17.326  0.1969 -0.0247 -0.1644
 3039DPPC   GL258156  19.539  -6.648  17.621  0.3622  0.1421  0.0916
 3039DPPC   C1A58157  19.240  -6.813  17.205  0.0865  0.2246 -0.3786
 3039DPPC   C2A58158  19.158  -7.197  17.166  0.1985 -0.0791 -0.1272
 3039DPPC   C3A58159  18.852  -7.429  17.240  0.1856  0.0619 -0.1531
 3039DPPC   C4A58160  18.510  -7.613  17.299  0.0602  0.0719 -0.0037
 3039DPPC   C1B58161  19.280  -6.918  17.746  0.3088  0.0364  0.2236
 3039DPPC   C2B58162  19.260  -7.298  17.875 -0.2988 -0.0000  0.2854
 3039DPPC   C3B58163  19.281  -7.728  18.108 -0.2556  0.1111 -0.2375
 3039DPPC   C4B58164  19.573  -7.986  18.362  0.3177  0.1248 -0.1153
 3040DPPC   NC358165  18.903   7.175  13.203 -0.0868 -0.1393  0.0606
 3040DPPC   PO458166  18.586   7.068  13.044 -0.0009  0.1277 -0.2378
 3040DPPC   GL158167  18.437   6.912  13.376 -0.1778  0.1275 -0.2316
 3040DPPC   GL258168  18.767   6.822  13.571  0.0948 -0.0158  0.1056
 3040DPPC   C1A58169  18.377   6.919  13.824  0.3392 -0.0667  0.3696
 3040DPPC   C2A58170  18.314   6.997  14.313 -0.0285  0.1684  0.5529
 3040DPPC   C3A58171  18.144   6.892  14.641  0.1559 -0.5522  0.0490
 3040DPPC   C4A58172  18.205   6.440  14.799  0.0588  0.0988  0.2137
 3040DPPC   C1B58173  18.760   7.252  13.865  0.0730  0.2240  0.0098
 3040DPPC   C2B58174  18.781   7.264  14.270 -0.2125  0.2235  0.2162
 3040DPPC   C3B58175  18.836   7.305  14.747  0.0026  0.1829  0.1402
 3040DPPC   C4B58176  18.655   7.032  15.038 -0.0747  0.0311 -0.1311
 3041DPPC   NC358177  27.699  -2.928  17.552 -0.2473  0.2043  0.1105
 3041DPPC   PO458178  27.331  -3.157  17.386 -0.1396 -0.0356 -0.2091
 3041DPPC   GL158179  26.864  -3.108  17.282  0.1794  0.0114 -0.1332
 3041DPPC   GL258180  26.947  -3.036  16.881  0.1126  0.1400  0.2376
 3041DPPC   C1A58181  26.418  -2.878  17.235  0.0348  0.0290  0.1688
 3041DPPC   C2A58182  26.089  -2.532  17.293  0.2169 -0.1621  0.2122
 3041DPPC   C3A58183  25.698  -2.521  17.580  0.0967 -0.2226  0.1421
 3041DPPC   C4A58184  25.321  -2.727  17.542 -0.3384  0.2492  0.0682
 3041DPPC   C1B58185  26.599  -3.164  16.811  0.0539  0.1862  0.3982
 3041DPPC   C2B58186  26.203  -3.347  16.850 -0.2205  0.0430 -0.1443
 3041DPPC   C3B58187  26.033  -3.788  16.994 -0.0022 -0.0333 -0.0125
 3041DPPC   C4B58188  25.929  -4.164  17.283  0.1815  0.0559 -0.1015
 3042DPPC   NC358189   2.439   2.905  26.540  0.0742 -0.5451  0.1397
 3042DPPC   PO458190   2.730   3.368  26.567 -0.0953 -0.0928 -0.2675
 3042DPPC   GL158191   3.006   3.060  26.641  0.0897 -0.0713  0.1335
 3042DPPC   GL258192   3.225   3.327  26.634 -0.2834 -0.4338  0.0425
 3042DPPC   C1A58193   3.278   2.857  26.464 -0.3368 -0.0709 -0.0075
 3042DPPC   C2A58194   3.748   2.813  26.572  0.1668 -0.2569 -0.1787
 3042DPPC   C3A58195   4.054   2.823  26.940  0.0642  0.1327  0.0029
 3042DPPC   C4A58196   4.453   2.673  27.017  0.1618  0.0195  0.3738
 3042DPPC   C1B58197   3.563   3.112  26.971 -0.2297 -0.0902  0.2192
 3042DPPC   C2B58198   3.628   2.738  27.155  0.1770 -0.2486  0.1574
 3042DPPC   C3B58199   3.977   2.635  27.367 -0.2721  0.2202  0.0844
 3042DPPC   C4B58200   4.437   2.668  27.547  0.1151  0.1927  0.0912
 3043DPPC   NC358201  23.215  -1.062  16.530  0.1331 -0.1758 -0.0106
 3043DPPC   PO458202  23.137  -1.221  16.913  0.2400  0.2747 -0.6233
 3043DPPC   GL158203  23.423  -1.151  17.256 -0.0186 -0.0621  0.1063
 3043DPPC   GL258204  23.608  -1.468  17.111  0.2916  0.2042  0.0543
 3043DPPC   C1A58205  23.850  -1.233  17.449 -0.0379 -0.0777 -0.0824
 3043DPPC   C2A58206  24.092  -1.139  17.789 -0.0502  0.0632  0.3817
 3043DPPC   C3A58207  24.353  -1.030  18.206  0.0221  0.0262 -0.2497
 3043DPPC   C4A58208  24.743  -0.780  18.317  0.2011  0.0715  0.3264
 3043DPPC   C1B58209  24.095  -1.574  17.135  0.1217  0.1224 -0.0586
 3043DPPC   C2B58210  24.389  -1.428  17.425 -0.3329  0.2571 -0.3552
 3043DPPC   C3B58211  24.556  -1.352  17.817 -0.0479 -0.0039  0.0522
 3043DPPC   C4B58212  24.907  -1.127  18.005  0.0195 -0.3220  0.0274
 3044DPPC   NC358213  23.290  -1.519  14.977  0.0331  0.0018  0.0346
 3044DPPC   PO458214  23.102  -1.856  14.962  0.4292 -0.1494  0.1677
 3044DPPC   GL158215  23.358  -2.140  14.822  0.1026 -0.2755  0.1131
 3044DPPC   GL258216  23.310  -2.120  14.540 -0.1185 -0.0343 -0.1122
 3044DPPC   C1A58217  23.702  -2.324  14.842 -0.0189 -0.1272  0.0416
 3044DPPC   C2A58218  24.128  -2.353  14.625 -0.1771 -0.1254  0.1311
 3044DPPC   C3A58219  24.350  -1.990  14.345  0.0602 -0.4454  0.0703
 3044DPPC   C4A58220  24.444  -1.525  14.196 -0.2543 -0.3083 -0.3376
 3044DPPC   C1B58221  23.465  -2.424  14.338 -0.4386  0.1376 -0.0876
 3044DPPC   C2B58222  23.609  -2.580  13.916  0.0873 -0.2103 -0.5446
 3044DPPC   C3B58223  23.819  -2.475  13.598  0.3878  0.1518  0.0029
 3044DPPC   C4B58224  23.819  -2.257  13.192 -0.3510  0.0580 -0.3675
 3045DPPC   NC358225  18.215  13.912  33.415 -0.2271 -0.0897  0.1691
 3045DPPC   PO458226  17.762  13.843  33.522 -0.0121  0.1256 -0.0869
 3045DPPC   GL158227  17.740  13.523  33.271  0.1215  0.1033  0.0744
 3045DPPC   GL258228  17.448  13.337  33.330  0.2974  0.0395 -0.3250
 3045DPPC   C1A58229  17.845  13.429  32.899 -0.0045  0.1375 -0.0973
 3045DPPC   C2A58230  17.759  13.108  32.612 -0.0819  0.2484 -0.1881
 3045DPPC   C3A58231  17.561  12.999  32.241 -0.1126  0.0790  0.4792
 3045DPPC   C4A58232  17.307  12.747  32.006 -0.2863  0.0189 -0.4961
 3045DPPC   C1B58233  17.188  13.033  33.209 -0.2601  0.1065  0.2238
 3045DPPC   C2B58234  17.134  12.643  32.860 -0.0372 -0.2848 -0.1674
 3045DPPC   C3B58235  17.073  12.330  32.687  0.1751 -0.1336  0.3330
 3045DPPC   C4B58236  17.129  12.117  32.302 -0.1974  0.2252  0.2525
 3046DPPC   NC358237  15.189   4.841  37.853  0.1286  0.0255 -0.0369
 3046DPPC   PO458238  15.164   4.500  38.158  0.1770  0.1626 -0.1847
 3046DPPC   GL158239  15.184   4.333  37.629  0.0045  0.2425 -0.1465
 3046DPPC   GL258240  14.874   4.325  37.366 -0.1049  0.1075 -0.0376
 3046DPPC   C1A58241  15.418   4.155  37.300 -0.2221 -0.0576  0.1093
 3046DPPC   C2A58242  15.526   4.045  36.796  0.3524 -0.0881  0.2141
 3046DPPC   C3A58243  15.570   4.252  36.385 -0.1631 -0.2125 -0.1782
 3046DPPC   C4A58244  15.551   4.251  36.025  0.2124 -0.1188  0.1735
 3046DPPC   C1B58245  15.057   4.412  37.016  0.3025  0.2655 -0.0122
 3046DPPC   C2B58246  15.195   4.382  36.599  0.3053 -0.2730  0.6360
 3046DPPC   C3B58247  15.318   4.667  36.295  0.1318 -0.1425  0.1239
 3046DPPC   C4B58248  15.697   4.751  35.994 -0.1347 -0.1872 -0.0947
 3047DPPC   NC358249  12.643  15.128  21.653  0.0358 -0.2868  0.0342
 3047DPPC   PO458250  12.975  15.073  21.787 -0.1513  0.0409 -0.2823
 3047DPPC   GL158251  13.228  14.711  21.843 -0.5060  0.0482 -0.3756
 3047DPPC   GL258252  13.578  14.750  21.699  0.2085 -0.0958 -0.0095
 3047DPPC   C1A58253  13.409  14.482  22.257  0.0381  0.0448 -0.1131
 3047DPPC   C2A58254  13.650  14.074  22.324 -0.2866 -0.4125 -0.3416
 3047DPPC   C3A58255  13.588  13.688  22.414 -0.1588 -0.1298 -0.2372
 3047DPPC   C4A58256  13.863  13.367  22.679 -0.0973 -0.0422  0.0175
 3047DPPC   C1B58257  13.699  14.328  21.865 -0.1812  0.3519  0.0039
 3047DPPC   C2B58258  13.876  13.865  21.964 -0.1779 -0.0893  0.3058
 3047DPPC   C3B58259  13.955  13.504  22.159  0.0689 -0.2692  0.3319
 3047DPPC   C4B58260  13.839  13.171  22.113 -0.0995  0.1373  0.1938
 3048DPPC   NC358261   7.459   7.870  17.523  0.1055  0.1651 -0.1193
 3048DPPC   PO458262   7.247   7.527  17.338 -0.1626  0.2175 -0.0829
 3048DPPC   GL158263   7.534   7.312  17.710  0.3635 -0.2444 -0.0491
 3048DPPC   GL258264   7.731   7.596  17.778 -0.2746 -0.0822 -0.3322
 3048DPPC   C1A58265   7.688   7.053  18.007  0.2915  0.0896 -0.0524
 3048DPPC   C2A58266   7.646   7.147  18.439  0.0109 -0.0089  0.1432
 3048DPPC   C3A58267   7.616   7.260  18.932 -0.3670 -0.3304  0.0297
 3048DPPC   C4A58268   7.813   7.678  19.198 -0.1819  0.1216  0.0896
 3048DPPC   C1B58269   8.078   7.343  17.610 -0.0475 -0.1439 -0.0432
 3048DPPC   C2B58270   8.188   6.954  17.872  0.1230 -0.0823 -0.0099
 3048DPPC   C3B58271   8.527   6.803  18.002 -0.2088 -0.0804 -0.1944
 3048DPPC   C4B58272   8.845   6.714  18.368  0.1525 -0.0958  0.0820
 3049DPPC   NC358273  21.346  -8.563  13.770  0.0925  0.2826  0.3206
 3049DPPC   PO458274  21.035  -8.814  14.100  0.2593 -0.3969 -0.0029
 3049DPPC   GL158275  20.913  -8.627  14.436 -0.1147 -0.2192  0.0719
 3049DPPC   GL258276  20.615  -8.732  14.563 -0.2028 -0.1371  0.1585
 3049DPPC   C1A58277  20.854  -8.285  14.733 -0.0831  0.1720  0.2025
 3049DPPC   C2A58278  20.624  -7.867  14.684  0.1127 -0.0133 -0.1521
 3049DPPC   C3A58279  20.270  -7.580  14.598  0.0485 -0.3166 -0.1248
 3049DPPC   C4A58280  19.958  -7.459  14.506  0.0177 -0.1827 -0.0219
 3049DPPC   C1B58281  20.553  -8.237  14.330 -0.3562  0.3054  0.0101
 3049DPPC   C2B58282  20.506  -7.832  14.129  0.1263  0.2801 -0.2724
 3049DPPC   C3B58283  20.592  -7.361  14.156 -0.1075 -0.2744  0.0858
 3049DPPC   C4B58284  20.483  -6.934  14.093 -0.0955 -0.2435  0.2323
 3050DPPC   NC358285  27.692  -1.338  26.379  0.0996  0.1437  0.0313
 3050DPPC   PO458286  27.699  -1.548  26.870  0.0817 -0.1550 -0.2346
 3050DPPC   GL158287  27.251  -1.579  26.899 -0.0493 -0.3195 -0.0856
 3050DPPC   GL258288  27.171  -1.702  27.216  0.1698  0.3005  0.2468
 3050DPPC   C1A58289  26.987  -1.173  26.891 -0.0758 -0.1163 -0.1022
 3050DPPC   C2A58290  27.007  -0.792  26.688  0.0281  0.1013  0.0823
 3050DPPC   C3A58291  27.279  -0.558  26.369  0.0361  0.2808 -0.2247
 3050DPPC   C4A58292  27.675  -0.465  26.533 -0.1093 -0.0542 -0.2347
 3050DPPC   C1B58293  26.745  -1.572  27.140 -0.0249 -0.0568  0.2320
 3050DPPC   C2B58294  26.406  -1.339  27.252  0.1787  0.1040  0.0780
 3050DPPC   C3B58295  26.021  -1.122  26.912 -0.0052 -0.2141  0.4397
 3050DPPC   C4B58296  26.130  -1.017  26.504 -0.0572  0.1225 -0.1487
 3051DPPC   NC358297  15.249  -8.936  16.129 -0.1068 -0.0762 -0.1487
 3051DPPC   PO458298  15.605  -8.715  16.155 -0.2255 -0.3040  0.1337
 3051DPPC   GL158299  15.710  -8.350  16.344  0.5452  0.1182 -0.0636
 3051DPPC   GL258300  15.627  -8.101  16.222  0.0203  0.0091 -0.0392
 3051DPPC   C1A58301  16.081  -8.162  16.403  0.0986  0.2840 -0.0964
 3051DPPC   C2A58302  16.391  -7.792  16.342  0.0258 -0.1548 -0.1119
 3051DPPC   C3A58303  16.715  -7.520  16.274 -0.2385  0.0343 -0.0202
 3051DPPC   C4A58304  16.848  -7.150  16.412  0.1142 -0.0448 -0.1002
 3051DPPC   C1B58305  15.582  -7.686  15.927 -0.0231  0.2380  0.1419
 3051DPPC   C2B58306  15.660  -7.285  15.660 -0.0162 -0.2946  0.0231
 3051DPPC   C3B58307  15.380  -6.979  15.477 -0.0119 -0.0031  0.3085
 3051DPPC   C4B58308  15.351  -6.645  15.248 -0.0583  0.0324  0.0270
 3052DPPC   NC358309  22.348  -3.543  14.673  0.4770 -0.0071  0.3048
 3052DPPC   PO458310  22.082  -3.699  14.390  0.2096  0.2273  0.0261
 3052DPPC   GL158311  22.190  -4.039  14.105  0.0411  0.0519  0.0866
 3052DPPC   GL258312  22.160  -4.391  14.174 -0.0777 -0.1198 -0.2236
 3052DPPC   C1A58313  22.492  -4.261  13.853  0.0014  0.0192  0.3167
 3052DPPC   C2A58314  22.706  -4.512  13.904  0.2218  0.0183 -0.4943
 3052DPPC   C3A58315  22.764  -4.923  13.994 -0.1593  0.1251  0.1185
 3052DPPC   C4A58316  22.978  -5.323  14.175  0.1048 -0.0860 -0.1885
 3052DPPC   C1B58317  22.285  -4.760  14.064 -0.0212  0.1719 -0.0266
 3052DPPC   C2B58318  22.388  -5.238  14.206 -0.2208 -0.0715 -0.0519
 3052DPPC   C3B58319  22.134  -5.516  14.232  0.1360  0.2363 -0.1830
 3052DPPC   C4B58320  21.901  -5.941  14.180  0.1489  0.0689  0.0600
 3053DPPC   NC358321  23.050  -0.780  15.350  0.1265  0.0568 -0.1692
 3053DPPC   PO458322  23.101  -1.022  14.939 -0.0160  0.0380  0.0595
 3053DPPC   GL158323  23.391  -1.005  14.590  0.0964 -0.0701 -0.0110
 3053DPPC   GL258324  23.346  -1.258  14.526 -0.0432 -0.1461  0.2312
 3053DPPC   C1A58325  23.614  -0.808  14.336 -0.1033  0.2747  0.2208
 3053DPPC   C2A58326  24.109  -0.977  14.266  0.1159  0.2185 -0.2438
 3053DPPC   C3A58327  24.487  -1.011  14.553 -0.2483 -0.1667 -0.1870
 3053DPPC   C4A58328  24.905  -1.078  14.683  0.1588 -0.1142  0.0882
 3053DPPC   C1B58329  23.728  -1.329  14.346 -0.1132  0.3895  0.0552
 3053DPPC   C2B58330  23.962  -1.612  14.113  0.2208  0.3776 -0.0220
 3053DPPC   C3B58331  24.169  -1.841  13.830 -0.0029 -0.0374  0.0605
 3053DPPC   C4B58332  24.583  -1.746  13.744  0.0386 -0.1379  0.2079
 3054DPPC   NC358333  23.371  -1.686  15.792  0.0321  0.0142  0.0735
 3054DPPC   PO458334  23.297  -1.433  16.135  0.1531  0.1190 -0.2835
 3054DPPC   GL158335  23.648  -1.086  16.320  0.2357 -0.0675  0.1510
 3054DPPC   GL258336  23.852  -0.838  16.041 -0.0125  0.2258  0.0371
 3054DPPC   C1A58337  24.128  -1.010  16.402 -0.0064 -0.3984 -0.0445
 3054DPPC   C2A58338  24.147  -0.610  16.655 -0.2398 -0.1671  0.3815
 3054DPPC   C3A58339  24.416  -0.310  16.631  0.0515 -0.1333 -0.3092
 3054DPPC   C4A58340  24.810  -0.150  16.562  0.0828  0.1891 -0.1405
 3054DPPC   C1B58341  24.184  -0.864  15.864  0.0709 -0.1106  0.1829
 3054DPPC   C2B58342  24.467  -0.532  15.642 -0.0549 -0.3320  0.1987
 3054DPPC   C3B58343  24.564  -0.499  15.215  0.0869  0.3162 -0.2978
 3054DPPC   C4B58344  24.903  -0.834  15.127  0.0486  0.2128  0.0480
 3055DPPC   NC358345  24.187   2.260  11.835 -0.0564 -0.0509 -0.1070
 3055DPPC   PO458346  24.434   1.939  12.003 -0.3284 -0.2120 -0.0135
 3055DPPC   GL158347  24.123   1.736  12.044  0.1238 -0.1085 -0.1868
 3055DPPC   GL258348  23.812   2.040  12.103 -0.2673 -0.1892  0.2229
 3055DPPC   C1A58349  23.766   1.524  11.992 -0.0588 -0.1883 -0.0461
 3055DPPC   C2A58350  23.397   1.364  11.921  0.0639  0.3347 -0.1140
 3055DPPC   C3A58351  23.064   1.194  11.759 -0.0398  0.0118 -0.0622
 3055DPPC   C4A58352  22.656   1.240  11.982  0.2714  0.0273 -0.1563
 3055DPPC   C1B58353  23.837   1.867  12.515  0.1958 -0.1954 -0.0880
 3055DPPC   C2B58354  23.633   1.681  12.817  0.0991  0.2174  0.2362
 3055DPPC   C3B58355  23.327   1.463  12.919  0.1408  0.2405 -0.0081
 3055DPPC   C4B58356  23.077   1.426  13.198 -0.0330 -0.3529 -0.0089
 3056DPPC   NC358357  17.683  -4.041  17.090 -0.0030  0.0797 -0.0933
 3056DPPC   PO458358  17.524  -4.415  17.271 -0.0584 -0.2035 -0.3599
 3056DPPC   GL158359  17.224  -4.454  17.647 -0.1667 -0.0135 -0.2750
 3056DPPC   GL258360  17.026  -4.777  17.543 -0.0937  0.3021  0.3139
 3056DPPC   C1A58361  16.845  -4.446  17.874  0.0121 -0.0701 -0.2698
 3056DPPC   C2A58362  16.717  -4.504  18.323 -0.0395  0.1453 -0.0729
 3056DPPC   C3A58363  16.650  -4.842  18.522  0.2760  0.2780  0.0795
 3056DPPC   C4A58364  16.635  -5.129  18.893  0.2141 -0.0922 -0.0121
 3056DPPC   C1B58365  16.683  -5.171  17.579  0.2751 -0.1133 -0.3662
 3056DPPC   C2B58366  16.634  -5.474  17.768  0.0619  0.0029 -0.2995
 3056DPPC   C3B58367  16.665  -5.796  18.130  0.2225  0.0943 -0.2021
 3056DPPC   C4B58368  16.286  -5.913  18.327  0.0540 -0.1719 -0.1325
 3057DPPC   NC358369   3.535   9.282  23.966  0.0506  0.0911  0.0300
 3057DPPC   PO458370   3.833   9.485  23.618 -0.3349  0.1273 -0.0747
 3057DPPC   GL158371   4.140   9.228  23.527 -0.2320 -0.0293  0.1744
 3057DPPC   GL258372   4.462   9.312  23.344 -0.0464 -0.1517  0.1435
 3057DPPC   C1A58373   4.406   8.967  23.678 -0.0796  0.0539  0.1414
 3057DPPC   C2A58374   4.581   8.627  23.527 -0.2308 -0.1345  0.3437
 3057DPPC   C3A58375   4.916   8.334  23.368  0.0713 -0.3228  0.0358
 3057DPPC   C4A58376   5.400   8.306  23.197  0.0530  0.2438  0.4127
 3057DPPC   C1B58377   4.883   9.038  23.445  0.0086 -0.0908  0.4030
 3057DPPC   C2B58378   5.228   8.766  23.474  0.1743 -0.2667 -0.1031
 3057DPPC   C3B58379   5.651   8.663  23.394 -0.0649  0.0728 -0.1474
 3057DPPC   C4B58380   6.086   8.698  23.476 -0.2624 -0.1701 -0.1003
 3058DPPC   NC358381  18.071  15.881  25.340  0.2014 -0.0941  0.1695
 3058DPPC   PO458382  18.334  15.844  25.680 -0.0320  0.3108 -0.4592
 3058DPPC   GL158383  18.187  15.443  25.512  0.1020  0.1307 -0.0569
 3058DPPC   GL258384  17.948  15.428  25.200  0.1327  0.0677 -0.0558
 3058DPPC   C1A58385  18.220  14.994  25.295 -0.2450  0.1824 -0.2277
 3058DPPC   C2A58386  18.189  14.556  25.299  0.1261  0.3280 -0.0063
 3058DPPC   C3A58387  18.207  14.145  25.104 -0.0754  0.0661 -0.1663
 3058DPPC   C4A58388  18.290  13.767  24.879 -0.2125 -0.0212  0.0077
 3058DPPC   C1B58389  17.760  15.081  25.477 -0.0463 -0.3369 -0.3849
 3058DPPC   C2B58390  17.702  14.644  25.469 -0.0804 -0.2265  0.0477
 3058DPPC   C3B58391  17.707  14.251  25.341  0.0500  0.1693  0.1186
 3058DPPC   C4B58392  17.440  13.955  25.127 -0.3042  0.1748 -0.0367
 3059DPPC   NC358393  19.747  -4.859  18.863  0.2628  0.4358  0.0731
 3059DPPC   PO458394  19.754  -5.298  19.013 -0.0476  0.2186 -0.0645
 3059DPPC   GL158395  19.410  -5.211  19.179  0.0909  0.3009 -0.2129
 3059DPPC   GL258396  19.323  -5.554  19.419 -0.0798  0.2989 -0.2922
 3059DPPC   C1A58397  18.979  -5.262  19.461  0.2469  0.2361 -0.2661
 3059DPPC   C2A58398  18.548  -5.293  19.714  0.1629  0.0431  0.0700
 3059DPPC   C3A58399  18.178  -5.620  19.753 -0.2586 -0.0516 -0.1706
 3059DPPC   C4A58400  18.219  -6.059  19.626  0.2273  0.0901 -0.0146
 3059DPPC   C1B58401  18.935  -5.756  19.600 -0.3646  0.1251 -0.0846
 3059DPPC   C2B58402  18.646  -5.838  19.811 -0.3196  0.1025 -0.1496
 3059DPPC   C3B58403  18.567  -5.614  20.105  0.0525 -0.2586 -0.1566
 3059DPPC   C4B58404  18.452  -5.313  20.403  0.0837 -0.2070 -0.2107
 3060DPPC   NC358405  18.256  15.364  20.644  0.0241 -0.0163 -0.0975
 3060DPPC   PO458406  18.345  14.866  20.440 -0.0448 -0.1580 -0.4226
 3060DPPC   GL158407  18.491  14.561  20.790 -0.1077  0.2683 -0.1735
 3060DPPC   GL258408  18.149  14.550  20.806  0.2010 -0.2926 -0.0960
 3060DPPC   C1A58409  18.640  14.294  21.103  0.0295  0.2922  0.1174
 3060DPPC   C2A58410  18.533  13.832  21.172 -0.1114 -0.1172 -0.1063
 3060DPPC   C3A58411  18.732  13.345  21.038 -0.0347 -0.0481  0.2909
 3060DPPC   C4A58412  18.957  13.119  20.859  0.2985 -0.0493  0.1364
 3060DPPC   C1B58413  17.791  14.532  21.093  0.2048  0.2244 -0.0206
 3060DPPC   C2B58414  17.425  14.598  21.354  0.4342 -0.2194  0.1378
 3060DPPC   C3B58415  17.198  14.351  21.676 -0.0255  0.0479  0.1927
 3060DPPC   C4B58416  17.222  13.983  21.997  0.2549 -0.0939  0.3315
 3061DPPC   NC358417  29.065   2.866  27.239  0.1151 -0.0427 -0.1445
 3061DPPC   PO458418  28.888   2.671  26.736  0.5260 -0.3594  0.1472
 3061DPPC   GL158419  28.605   3.001  27.034 -0.0612  0.1493 -0.3664
 3061DPPC   GL258420  28.484   3.330  26.938  0.2357 -0.0670 -0.0180
 3061DPPC   C1A58421  28.404   3.089  27.391 -0.1881 -0.2238 -0.1316
 3061DPPC   C2A58422  27.970   3.311  27.548  0.0367 -0.1081  0.2697
 3061DPPC   C3A58423  27.717   3.535  27.776  0.1142  0.1520 -0.1454
 3061DPPC   C4A58424  27.397   3.795  27.902  0.0925 -0.2894  0.1205
 3061DPPC   C1B58425  27.972   3.320  26.969 -0.0018 -0.1658  0.0759
 3061DPPC   C2B58426  27.727   3.115  26.800 -0.3081  0.4041  0.1680
 3061DPPC   C3B58427  27.513   2.904  26.482  0.1277 -0.1117 -0.0501
 3061DPPC   C4B58428  27.716   2.556  26.215  0.0850  0.1892 -0.1199
 3062DPPC   NC358429  18.487  -8.209  25.445 -0.0240  0.0818 -0.1583
 3062DPPC   PO458430  18.165  -7.971  25.246 -0.0304  0.1858 -0.0581
 3062DPPC   GL158431  17.935  -7.616  25.168 -0.2024  0.1734 -0.0533
 3062DPPC   GL258432  18.193  -7.469  25.047  0.0210 -0.0751 -0.1110
 3062DPPC   C1A58433  17.600  -7.553  25.002  0.0422  0.1270 -0.0799
 3062DPPC   C2A58434  17.189  -7.677  25.000 -0.1796 -0.1965 -0.1280
 3062DPPC   C3A58435  16.803  -7.516  25.151 -0.0231 -0.0025  0.0111
 3062DPPC   C4A58436  16.447  -7.712  24.998  0.2474  0.1959 -0.1426
 3062DPPC   C1B58437  17.950  -7.160  24.786 -0.2582 -0.1860  0.1714
 3062DPPC   C2B58438  17.733  -6.822  24.798 -0.0341 -0.2937  0.2160
 3062DPPC   C3B58439  17.618  -6.500  25.074  0.0811 -0.0203 -0.0200
 3062DPPC   C4B58440  17.668  -6.093  25.176 -0.1098 -0.1552  0.1755
 3063DPPC   NC358441  20.192  -0.398  14.070 -0.1413  0.3652  0.0100
 3063DPPC   PO458442  20.148  -0.034  13.585  0.1590  0.0453  0.0865
 3063DPPC   GL158443  20.310  -0.010  13.244 -0.0967  0.3416 -0.3145
 3063DPPC   GL258444  20.293   0.347  13.137  0.1922  0.2407  0.4657
 3063DPPC   C1A58445  20.043   0.053  12.850  0.0491  0.0109  0.3031
 3063DPPC   C2A58446  20.103   0.310  12.413  0.2881  0.1034  0.1350
 3063DPPC   C3A58447  19.630   0.643  12.347 -0.2115 -0.0824  0.0503
 3063DPPC   C4A58448  19.210   0.567  12.423 -0.3432 -0.0803 -0.1675
 3063DPPC   C1B58449  19.991   0.607  12.974  0.0055 -0.0987 -0.3385
 3063DPPC   C2B58450  19.874   0.994  12.784 -0.2984 -0.0176 -0.0878
 3063DPPC   C3B58451  19.917   1.454  12.747 -0.2272 -0.3944 -0.0956
 3063DPPC   C4B58452  19.589   1.754  12.929  0.1144  0.1003  0.1291
 3064DPPC   NC358453   9.982  -0.376  13.435  0.2532 -0.2250  0.0989
 3064DPPC   PO458454  10.061  -0.465  13.852 -0.1940  0.1597  0.0813
 3064DPPC   GL158455  10.302  -0.433  14.278  0.0931 -0.0212 -0.2356
 3064DPPC   GL258456  10.163  -0.663  14.557 -0.0771  0.0048  0.0176
 3064DPPC   C1A58457  10.752  -0.387  14.342  0.2627  0.1432  0.1970
 3064DPPC   C2A58458  11.113  -0.277  14.579 -0.2088 -0.0214  0.0299
 3064DPPC   C3A58459  11.313  -0.053  14.982  0.3541  0.4388 -0.1370
 3064DPPC   C4A58460  11.180  -0.029  15.394  0.1739 -0.3396 -0.0279
 3064DPPC   C1B58461  10.477  -0.350  14.833 -0.0476  0.0026 -0.2060
 3064DPPC   C2B58462  10.821  -0.232  15.067  0.1292 -0.1751 -0.2173
 3064DPPC   C3B58463  10.856   0.267  14.953 -0.4436  0.1141 -0.0469
 3064DPPC   C4B58464  10.994   0.436  15.276  0.1741  0.0400  0.2186
 3065DPPC   NC358465  22.719  -3.484  17.148 -0.0348 -0.0860 -0.1691
 3065DPPC   PO458466  23.085  -3.618  17.459 -0.2087 -0.2470 -0.0663
 3065DPPC   GL158467  23.556  -3.703  17.424  0.1213  0.2548 -0.1856
 3065DPPC   GL258468  23.778  -3.414  17.290 -0.0696  0.1534 -0.1532
 3065DPPC   C1A58469  23.894  -3.891  17.477 -0.3501  0.1495 -0.0073
 3065DPPC   C2A58470  24.020  -4.311  17.787  0.2364  0.0263 -0.0309
 3065DPPC   C3A58471  24.235  -4.737  17.763 -0.1965  0.1003  0.2361
 3065DPPC   C4A58472  24.492  -5.111  17.788 -0.2279 -0.0195 -0.1889
 3065DPPC   C1B58473  24.046  -3.421  17.533 -0.0537 -0.1181 -0.1352
 3065DPPC   C2B58474  24.464  -3.433  17.862  0.1479 -0.1175 -0.1457
 3065DPPC   C3B58475  24.474  -3.317  18.282  0.0727 -0.1809 -0.2456
 3065DPPC   C4B58476  24.430  -3.443  18.641 -0.0083 -0.1617  0.1918
 3066DPPC   NC358477  28.639   5.218  23.224  0.1901  0.2393 -0.3025
 3066DPPC   PO458478  28.396   5.198  22.915  0.1154 -0.2078 -0.0067
 3066DPPC   GL158479  28.067   5.334  23.071  0.1513 -0.0004  0.3594
 3066DPPC   GL258480  28.092   5.555  23.342 -0.1122 -0.0947  0.3924
 3066DPPC   C1A58481  27.631   5.278  22.892  0.0725  0.1636  0.0629
 3066DPPC   C2A58482  27.256   5.150  22.657  0.0183 -0.2128  0.2046
 3066DPPC   C3A58483  26.898   5.064  22.643 -0.2470  0.0333 -0.0396
 3066DPPC   C4A58484  26.572   4.800  22.396 -0.0573  0.0667  0.1373
 3066DPPC   C1B58485  27.763   5.281  23.493 -0.0571  0.0004  0.1371
 3066DPPC   C2B58486  27.424   5.066  23.738  0.0663 -0.1076 -0.1893
 3066DPPC   C3B58487  27.046   4.836  23.723  0.1328  0.0871 -0.0924
 3066DPPC   C4B58488  26.738   4.722  23.448 -0.1535  0.2472 -0.0394
 3067DPPC   NC358489  23.138  -1.675  33.571  0.0468 -0.2633 -0.1112
 3067DPPC   PO458490  22.810  -1.883  33.443  0.2164 -0.2269  0.0987
 3067DPPC   GL158491  22.580  -1.611  33.106 -0.2238 -0.3802 -0.1865
 3067DPPC   GL258492  22.759  -1.650  32.721  0.0356 -0.1713  0.1204
 3067DPPC   C1A58493  22.302  -1.348  32.769 -0.2090  0.1295 -0.4504
 3067DPPC   C2A58494  22.103  -0.941  32.632  0.0076 -0.0631 -0.1421
 3067DPPC   C3A58495  22.139  -0.612  32.387 -0.0142 -0.2436  0.2841
 3067DPPC   C4A58496  22.127  -0.165  32.331  0.0662  0.1011 -0.2098
 3067DPPC   C1B58497  22.755  -1.358  32.429 -0.0333  0.0558  0.2276
 3067DPPC   C2B58498  22.586  -1.056  32.106 -0.2448  0.0467 -0.0347
 3067DPPC   C3B58499  22.435  -1.215  31.716 -0.1736 -0.1035 -0.0897
 3067DPPC   C4B58500  21.995  -1.107  31.633 -0.1033  0.0256  0.3226
 3068DPPC   NC358501  21.352  14.553  29.138  0.0428  0.1915  0.0189
 3068DPPC   PO458502  20.955  14.358  29.223 -0.3200 -0.0072  0.0319
 3068DPPC   GL158503  20.963  14.211  28.866  0.0409  0.1311  0.2049
 3068DPPC   GL258504  20.620  14.062  28.901 -0.6541 -0.2132  0.1667
 3068DPPC   C1A58505  20.823  13.880  28.460 -0.1384  0.1491  0.0615
 3068DPPC   C2A58506  20.758  13.380  28.504  0.0104  0.2542 -0.4157
 3068DPPC   C3A58507  20.629  13.003  28.346  0.2643  0.2545  0.0053
 3068DPPC   C4A58508  20.279  12.758  28.368 -0.2234 -0.0553  0.0816
 3068DPPC   C1B58509  20.330  14.081  28.514 -0.1071 -0.0707 -0.1298
 3068DPPC   C2B58510  19.799  14.209  28.423 -0.0327  0.0349  0.0601
 3068DPPC   C3B58511  19.521  13.973  28.188  0.0504 -0.0357  0.1776
 3068DPPC   C4B58512  19.411  13.917  27.794  0.0252 -0.3496 -0.0358
 3069DPPC   NC358513  16.607   5.411  12.073  0.0049  0.3686  0.2243
 3069DPPC   PO458514  16.805   4.996  12.049  0.0586  0.0530  0.0512
 3069DPPC   GL158515  16.619   5.099  12.444 -0.0696  0.0668 -0.0777
 3069DPPC   GL258516  16.368   5.429  12.670 -0.0207  0.1014  0.1581
 3069DPPC   C1A58517  16.595   4.773  12.831  0.2830  0.1692  0.0395
 3069DPPC   C2A58518  16.727   4.611  13.249 -0.0406  0.1655 -0.0446
 3069DPPC   C3A58519  16.696   4.488  13.655 -0.1474  0.1073  0.2558
 3069DPPC   C4A58520  16.927   4.596  13.964  0.0197  0.0918 -0.2583
 3069DPPC   C1B58521  16.323   5.152  13.013  0.1593 -0.1312  0.0299
 3069DPPC   C2B58522  16.181   4.947  13.321  0.2055 -0.1580  0.0796
 3069DPPC   C3B58523  16.248   4.767  13.746 -0.0510  0.0288 -0.3573
 3069DPPC   C4B58524  15.956   4.522  14.090 -0.0846  0.1201 -0.0051
 3070DPPC   NC358525  22.811  -1.291  14.625  0.1756  0.1231 -0.1604
 3070DPPC   PO458526  22.879  -0.841  14.536  0.2396  0.0484 -0.1315
 3070DPPC   GL158527  22.982  -0.894  14.184 -0.0659 -0.0806  0.2304
 3070DPPC   GL258528  22.957  -1.330  14.155 -0.1501  0.0036  0.0742
 3070DPPC   C1A58529  23.386  -0.743  13.886  0.2301 -0.0473 -0.2787
 3070DPPC   C2A58530  23.755  -1.040  13.928 -0.0329  0.1401  0.1351
 3070DPPC   C3A58531  24.082  -1.097  13.676 -0.4211 -0.2497  0.2056
 3070DPPC   C4A58532  24.291  -1.191  13.350  0.2580  0.0079 -0.2435
 3070DPPC   C1B58533  23.307  -1.299  13.970 -0.1072 -0.1118 -0.2590
 3070DPPC   C2B58534  23.437  -1.167  13.522 -0.2122 -0.1828 -0.0336
 3070DPPC   C3B58535  23.697  -1.170  13.117 -0.0085 -0.1771 -0.0212
 3070DPPC   C4B58536  23.471  -1.287  12.694 -0.3156  0.3970 -0.0741
 3071DPPC   NC358537  20.920  -2.777   9.389  0.0397  0.2580 -0.0558
 3071DPPC   PO458538  20.587  -3.071   9.661  0.0121  0.0704  0.0056
 3071DPPC   GL158539  20.567  -3.102  10.164  0.2186  0.2278  0.0705
 3071DPPC   GL258540  20.844  -3.078  10.269  0.3085 -0.0253 -0.1283
 3071DPPC   C1A58541  20.406  -3.212  10.573 -0.0298  0.0576  0.1147
 3071DPPC   C2A58542  19.958  -3.304  10.776 -0.1680 -0.2666  0.0738
 3071DPPC   C3A58543  19.776  -3.038  11.123 -0.0312 -0.2663 -0.0787
 3071DPPC   C4A58544  19.660  -2.707  11.493 -0.0636  0.0083  0.2701
 3071DPPC   C1B58545  20.903  -3.139  10.726 -0.0912 -0.3125 -0.0679
 3071DPPC   C2B58546  21.190  -3.176  11.108  0.1433 -0.0696 -0.2968
 3071DPPC   C3B58547  21.410  -3.542  11.153 -0.1458  0.3505  0.0967
 3071DPPC   C4B58548  21.493  -3.826  11.523 -0.0282 -0.0499 -0.1434
 3072DPPC   NC358549  12.360  -8.502  22.928  0.3250  0.0819 -0.1910
 3072DPPC   PO458550  12.447  -8.108  22.980 -0.1342 -0.2521  0.1171
 3072DPPC   GL158551  12.484  -7.855  23.292  0.0051 -0.1396  0.4028
 3072DPPC   GL258552  12.206  -7.661  23.136  0.0075 -0.0085  0.0760
 3072DPPC   C1A58553  12.622  -7.431  23.228 -0.0633  0.0927 -0.1234
 3072DPPC   C2A58554  12.556  -7.006  22.928  0.3275 -0.0672  0.0846
 3072DPPC   C3A58555  12.411  -6.691  22.818 -0.0795  0.0499 -0.0744
 3072DPPC   C4A58556  12.397  -6.249  22.780 -0.1458 -0.0157  0.2444
 3072DPPC   C1B58557  12.074  -7.282  23.200  0.1079 -0.0136 -0.1593
 3072DPPC   C2B58558  12.252  -6.907  23.292  0.3131 -0.0746 -0.1939
 3072DPPC   C3B58559  12.059  -6.517  23.186  0.3199  0.1099  0.0740
 3072DPPC   C4B58560  11.794  -6.290  22.821 -0.7328 -0.0672  0.3049
 3073DPPC   NC358561  16.545  -8.672  17.980 -0.2165  0.0580 -0.2535
 3073DPPC   PO458562  16.784  -8.919  17.611 -0.0375  0.1093 -0.1492
 3073DPPC   GL158563  16.918  -8.498  17.561  0.2230 -0.0994 -0.0139
 3073DPPC   GL258564  17.020  -8.498  17.872  0.1212 -0.0298  0.0951
 3073DPPC   C1A58565  17.149  -8.226  17.346 -0.2539 -0.2229  0.1011
 3073DPPC   C2A58566  17.299  -7.960  17.181  0.0017  0.2048 -0.3967
 3073DPPC   C3A58567  17.611  -7.704  17.316  0.1430 -0.1748  0.1054
 3073DPPC   C4A58568  17.735  -7.244  17.406 -0.1637 -0.0931  0.0916
 3073DPPC   C1B58569  17.124  -8.134  18.001 -0.1476  0.0481  0.1446
 3073DPPC   C2B58570  17.324  -7.775  18.131 -0.1456 -0.1846 -0.3463
 3073DPPC   C3B58571  17.529  -7.450  18.282 -0.0110 -0.3589 -0.0463
 3073DPPC   C4B58572  17.736  -7.043  18.237 -0.0280 -0.0957  0.0688
 3074DPPC   NC358573  18.043  -3.649  17.234  0.3707 -0.0278 -0.0376
 3074DPPC   PO458574  18.471  -3.750  17.188 -0.1568  0.1912 -0.1427
 3074DPPC   GL158575  18.363  -3.530  17.576  0.2843  0.2235  0.0818
 3074DPPC   GL258576  18.137  -3.645  17.777  0.0115  0.2069 -0.1714
 3074DPPC   C1A58577  18.630  -3.167  17.712 -0.0581 -0.1950 -0.0893
 3074DPPC   C2A58578  18.473  -2.834  18.019 -0.0644 -0.1575 -0.0127
 3074DPPC   C3A58579  18.261  -2.601  18.299 -0.2172  0.2598  0.1834
 3074DPPC   C4A58580  18.231  -2.253  18.648  0.0838 -0.0285 -0.0679
 3074DPPC   C1B58581  18.235  -3.297  17.975 -0.0785  0.0916  0.0236
 3074DPPC   C2B58582  18.247  -3.120  18.360 -0.3393  0.2526  0.2188
 3074DPPC   C3B58583  18.370  -3.049  18.726 -0.2206 -0.1205 -0.2843
 3074DPPC   C4B58584  18.541  -3.033  19.141 -0.2247  0.0180 -0.0221
 3075DPPC   NC358585  23.701  -0.357  22.403 -0.1568  0.2664 -0.1095
 3075DPPC   PO458586  23.608  -0.107  22.671 -0.0640  0.4110 -0.1660
 3075DPPC   GL158587  24.146  -0.278  22.643 -0.0771  0.0088  0.2623
 3075DPPC   GL258588  24.182  -0.331  22.958 -0.2806  0.1510 -0.1168
 3075DPPC   C1A58589  24.571  -0.462  22.573 -0.0820  0.0738  0.0452
 3075DPPC   C2A58590  24.923  -0.554  22.266 -0.1114  0.2336 -0.1813
 3075DPPC   C3A58591  25.285  -0.454  22.101 -0.2402  0.0597  0.2315
 3075DPPC   C4A58592  25.680  -0.348  21.932 -0.1990 -0.0274  0.4367
 3075DPPC   C1B58593  24.294  -0.740  23.051 -0.0433 -0.0366 -0.1171
 3075DPPC   C2B58594  24.701  -0.861  22.825 -0.0354 -0.2366 -0.1680
 3075DPPC   C3B58595  24.849  -1.009  22.594 -0.0218 -0.0200 -0.1261
 3075DPPC   C4B58596  25.238  -0.957  22.404  0.1006  0.0392 -0.1561
 3076DPPC   NC358597  28.583   5.403  20.502 -0.3775  0.3474 -0.0074
 3076DPPC   PO458598  28.215   5.382  20.802  0.0746  0.0364 -0.0472
 3076DPPC   GL158599  27.868   5.171  21.093  0.2406  0.3006  0.1761
 3076DPPC   GL258600  27.626   4.790  21.214 -0.2308  0.0699 -0.0453
 3076DPPC   C1A58601  27.576   5.261  21.409  0.0141 -0.0726  0.0717
 3076DPPC   C2A58602  27.197   5.164  21.712  0.0617 -0.1214  0.0296
 3076DPPC   C3A58603  26.800   5.047  21.744  0.1481 -0.1482  0.0282
 3076DPPC   C4A58604  26.592   4.740  21.867 -0.1579  0.1881  0.1517
 3076DPPC   C1B58605  27.285   4.617  21.499  0.2067  0.3123 -0.1059
 3076DPPC   C2B58606  27.124   4.569  21.898  0.0693 -0.0372  0.1828
 3076DPPC   C3B58607  26.933   4.487  22.209  0.3025 -0.1540 -0.3232
 3076DPPC   C4B58608  27.044   4.605  22.631  0.0138 -0.1927 -0.0762
 3077DPPC   NC358609   9.868  14.103  31.878  0.2345 -0.0527 -0.3078
 3077DPPC   PO458610   9.517  14.097  32.095  0.2022  0.2052  0.0823
 3077DPPC   GL158611   9.732  13.664  32.074  0.0118 -0.3947 -0.2613
 3077DPPC   GL258612  10.084  13.523  32.164  0.0649  0.3959  0.0451
 3077DPPC   C1A58613   9.933  13.257  31.772  0.3425  0.1466  0.1031
 3077DPPC   C2A58614   9.911  12.905  31.412 -0.1583 -0.1672 -0.3416
 3077DPPC   C3A58615   9.996  12.901  30.954 -0.2752 -0.1252  0.1696
 3077DPPC   C4A58616   9.829  12.604  30.697 -0.1381 -0.3676  0.0728
 3077DPPC   C1B58617  10.373  13.235  32.055  0.0744  0.0510 -0.1341
 3077DPPC   C2B58618  10.627  12.804  31.939 -0.0213  0.1076  0.0273
 3077DPPC   C3B58619  10.540  12.359  31.914 -0.4584  0.1059 -0.1303
 3077DPPC   C4B58620  10.709  11.879  31.856  0.4923  0.1737 -0.2518
 3078DPPC   NC358621  12.882  -6.690  16.218  0.3815 -0.0101  0.4201
 3078DPPC   PO458622  12.786  -6.644  16.663  0.1735  0.1651 -0.1787
 3078DPPC   GL158623  12.847  -6.355  17.002 -0.1175 -0.0365  0.1947
 3078DPPC   GL258624  12.934  -6.118  16.779  0.0864  0.1026 -0.0728
 3078DPPC   C1A58625  12.790  -5.998  17.246 -0.1622 -0.2742  0.1841
 3078DPPC   C2A58626  12.684  -5.537  17.281 -0.0475  0.3004  0.0628
 3078DPPC   C3A58627  12.750  -5.070  17.397 -0.1436 -0.2984  0.2411
 3078DPPC   C4A58628  13.111  -4.826  17.645 -0.0646 -0.0789 -0.1023
 3078DPPC   C1B58629  13.246  -5.821  17.005  0.2044  0.3426 -0.2079
 3078DPPC   C2B58630  13.218  -5.447  16.884  0.2678  0.2342  0.4001
 3078DPPC   C3B58631  13.306  -5.030  17.151  0.0318 -0.0778 -0.0493
 3078DPPC   C4B58632  13.509  -4.806  17.395  0.0533  0.1589  0.1305
 3079DPPC   NC358633  14.896  -7.582  18.014  0.0985 -0.1026  0.0102
 3079DPPC   PO458634  14.539  -7.441  18.207 -0.0745 -0.0849  0.0441
 3079DPPC   GL158635  14.767  -7.045  18.201  0.0880 -0.2527  0.1752
 3079DPPC   GL258636  15.089  -7.114  18.300  0.0636 -0.1653  0.0643
 3079DPPC   C1A58637  14.801  -6.625  18.275  0.2146 -0.0468 -0.0641
 3079DPPC   C2A58638  15.082  -6.256  18.319  0.3038 -0.2486  0.0445
 3079DPPC   C3A58639  15.048  -5.884  18.000 -0.1270  0.0681 -0.2070
 3079DPPC   C4A58640  15.088  -5.295  17.880  0.2903 -0.1774  0.1255
 3079DPPC   C1B58641  15.329  -6.699  18.465  0.0945  0.3005  0.0325
 3079DPPC   C2B58642  15.430  -6.386  18.739  0.1190 -0.1036  0.2689
 3079DPPC   C3B58643  15.660  -6.170  19.034  0.3096 -0.1516 -0.0247
 3079DPPC   C4B58644  15.787  -5.887  19.341 -0.0258 -0.2580  0.1342
 3080DPPC   NC358645  10.619  13.360  19.488  0.3012 -0.0700 -0.1047
 3080DPPC   PO458646  10.659  13.378  19.004  0.0080  0.2394 -0.1254
 3080DPPC   GL158647  10.675  12.903  19.124  0.0996  0.1965  0.2093
 3080DPPC   GL258648  10.445  12.803  18.965 -0.2047 -0.3206 -0.0781
 3080DPPC   C1A58649  10.764  12.429  19.104  0.1253 -0.1947 -0.0921
 3080DPPC   C2A58650  10.856  12.099  19.237 -0.1152 -0.1270  0.0099
 3080DPPC   C3A58651  11.216  11.873  19.286  0.1295  0.0415  0.1379
 3080DPPC   C4A58652  11.592  11.594  19.281  0.0161  0.1111 -0.3844
 3080DPPC   C1B58653  10.298  12.356  19.171  0.2292  0.2098  0.0312
 3080DPPC   C2B58654  10.084  12.381  19.586  0.0462 -0.0947 -0.2588
 3080DPPC   C3B58655  10.010  12.123  19.914  0.2693  0.2414 -0.3656
 3080DPPC   C4B58656   9.846  12.005  20.301  0.0821  0.0411 -0.1682
 3081DPPC   NC358657   3.170   1.337  29.529  0.0425  0.2280  0.0698
 3081DPPC   PO458658   3.431   1.213  29.790 -0.0854  0.0386  0.2256
 3081DPPC   GL158659   3.888   1.279  29.781 -0.0776  0.2847 -0.0939
 3081DPPC   GL258660   4.164   1.105  29.914 -0.0227 -0.1631  0.0000
 3081DPPC   C1A58661   4.225   1.555  29.467  0.0243  0.2244  0.3048
 3081DPPC   C2A58662   4.481   1.461  29.177 -0.1571 -0.1015 -0.3095
 3081DPPC   C3A58663   4.898   1.159  29.006  0.0730 -0.3374  0.2725
 3081DPPC   C4A58664   5.386   1.262  29.214 -0.1146  0.3524  0.1042
 3081DPPC   C1B58665   4.544   1.328  29.860 -0.4006 -0.1957  0.1821
 3081DPPC   C2B58666   4.891   1.563  30.006  0.2402 -0.0241 -0.1387
 3081DPPC   C3B58667   5.180   1.498  30.366  0.0666  0.0589 -0.0678
 3081DPPC   C4B58668   5.193   1.783  30.636 -0.0551  0.1774 -0.0543
 3082DPPC   NC358669  13.278   0.435  36.892 -0.1192 -0.1118  0.0817
 3082DPPC   PO458670  13.647   0.167  36.876  0.2262 -0.2033 -0.0757
 3082DPPC   GL158671  13.758   0.382  36.557  0.1386 -0.1651 -0.4721
 3082DPPC   GL258672  13.527   0.693  36.568 -0.1416  0.2099  0.0362
 3082DPPC   C1A58673  13.718   0.411  36.106  0.0961 -0.1995  0.3539
 3082DPPC   C2A58674  13.334   0.329  35.843 -0.1139  0.0254  0.1934
 3082DPPC   C3A58675  13.482   0.533  35.437  0.0589 -0.0435 -0.0875
 3082DPPC   C4A58676  13.601   0.826  35.084 -0.2348 -0.0743 -0.2939
 3082DPPC   C1B58677  13.833   0.856  36.221  0.2658 -0.1653 -0.3465
 3082DPPC   C2B58678  13.943   0.796  35.725 -0.2513  0.2194 -0.4505
 3082DPPC   C3B58679  14.020   0.645  35.335 -0.2713  0.0747 -0.1336
 3082DPPC   C4B58680  14.053   0.704  34.793  0.2779 -0.0710 -0.1553
 3083DPPC   NC358681  19.039  -6.161  17.210  0.0532  0.3255  0.0850
 3083DPPC   PO458682  19.125  -6.326  16.873 -0.0250 -0.4524 -0.1743
 3083DPPC   GL158683  19.244  -6.642  16.529  0.0264 -0.2512  0.1385
 3083DPPC   GL258684  18.929  -6.702  16.379 -0.3088  0.1215  0.2595
 3083DPPC   C1A58685  19.559  -6.916  16.295  0.2330 -0.1443  0.3407
 3083DPPC   C2A58686  19.705  -7.367  16.330 -0.0064  0.1374 -0.2525
 3083DPPC   C3A58687  19.841  -7.675  16.053 -0.0786  0.1712  0.0484
 3083DPPC   C4A58688  19.992  -8.004  15.824 -0.1976  0.0015 -0.0301
 3083DPPC   C1B58689  18.660  -7.011  16.178  0.0187  0.0637  0.2785
 3083DPPC   C2B58690  18.701  -7.427  16.161  0.1530  0.3323 -0.4887
 3083DPPC   C3B58691  18.770  -7.855  16.014  0.0183  0.2230 -0.0521
 3083DPPC   C4B58692  19.026  -8.221  15.918 -0.0835 -0.2780 -0.3048
 3084DPPC   NC358693  26.891   0.041  16.028 -0.1030 -0.3271 -0.1196
 3084DPPC   PO458694  26.765  -0.185  16.445  0.1504  0.1642 -0.0646
 3084DPPC   GL158695  26.436  -0.304  16.112  0.2438 -0.0674  0.1866
 3084DPPC   GL258696  26.367  -0.077  15.850  0.2223 -0.1171 -0.0514
 3084DPPC   C1A58697  26.574  -0.721  15.936 -0.0663 -0.2486  0.1215
 3084DPPC   C2A58698  26.425  -1.082  15.772 -0.2970  0.0849  0.0661
 3084DPPC   C3A58699  26.308  -1.465  15.564 -0.2179 -0.2244 -0.0158
 3084DPPC   C4A58700  26.476  -1.998  15.420 -0.2013  0.1586 -0.0032
 3084DPPC   C1B58701  25.939  -0.104  15.886 -0.2953 -0.1724 -0.1414
 3084DPPC   C2B58702  25.649  -0.457  15.838 -0.0031 -0.0255  0.0469
 3084DPPC   C3B58703  25.237  -0.613  15.796  0.2453 -0.2286  0.2420
 3084DPPC   C4B58704  24.929  -0.771  15.647 -0.0503 -0.0200  0.2445
 3085DPPC   NC358705  21.839   7.155  13.816  0.0826  0.0513  0.3234
 3085DPPC   PO458706  22.125   6.875  13.986  0.1572 -0.0266  0.0070
 3085DPPC   GL158707  21.766   6.758  14.299  0.0868  0.1658  0.1289
 3085DPPC   GL258708  21.614   6.959  14.343 -0.0989 -0.1099 -0.0709
 3085DPPC   C1A58709  21.281   6.782  14.619  0.1018  0.0447  0.0534
 3085DPPC   C2A58710  21.076   6.476  14.786  0.0946  0.1757 -0.2764
 3085DPPC   C3A58711  21.202   6.067  14.961  0.0484  0.0308  0.0338
 3085DPPC   C4A58712  20.977   5.718  15.198  0.1346 -0.1588 -0.1473
 3085DPPC   C1B58713  21.478   7.194  14.707 -0.1826 -0.1509  0.0193
 3085DPPC   C2B58714  21.042   7.190  14.898  0.0254  0.1163  0.1350
 3085DPPC   C3B58715  21.002   7.308  15.342 -0.1995  0.1905 -0.2377
 3085DPPC   C4B58716  20.648   7.269  15.489  0.3138 -0.0389 -0.0491
 3086DPPC   NC358717  13.537  -5.473  32.527  0.2986 -0.1658  0.1975
 3086DPPC   PO458718  13.258  -5.407  32.265  0.1390  0.0475  0.1367
 3086DPPC   GL158719  13.259  -5.142  31.971  0.1851  0.2422 -0.2223
 3086DPPC   GL258720  13.383  -5.205  31.673  0.4034  0.1675  0.0726
 3086DPPC   C1A58721  13.195  -4.644  31.780  0.1610  0.0598  0.0047
 3086DPPC   C2A58722  13.242  -4.316  31.365  0.1223 -0.1272 -0.1932
 3086DPPC   C3A58723  13.450  -4.133  30.997 -0.4110 -0.0443 -0.0258
 3086DPPC   C4A58724  13.461  -3.821  30.743 -0.2525  0.0234  0.0213
 3086DPPC   C1B58725  13.109  -5.111  31.362  0.0837  0.0389  0.5672
 3086DPPC   C2B58726  13.044  -5.131  30.920 -0.2481 -0.1225  0.0700
 3086DPPC   C3B58727  12.903  -5.230  30.523 -0.2983 -0.0843 -0.2905
 3086DPPC   C4B58728  12.853  -5.220  30.137 -0.0204 -0.3735  0.2419
 3087DPPC   NC358729  17.062  -5.281  14.988 -0.0491 -0.0620  0.1372
 3087DPPC   PO458730  16.961  -4.776  14.778 -0.3026 -0.2832  0.1832
 3087DPPC   GL158731  16.606  -5.069  14.887 -0.2344 -0.0628 -0.3426
 3087DPPC   GL258732  16.440  -4.983  15.242  0.0523 -0.2469 -0.0994
 3087DPPC   C1A58733  16.192  -5.054  14.808 -0.0419 -0.0217  0.2901
 3087DPPC   C2A58734  15.833  -5.278  14.794  0.0279  0.1326  0.0975
 3087DPPC   C3A58735  15.590  -5.710  14.686  0.1311 -0.1901  0.0531
 3087DPPC   C4A58736  15.400  -5.960  14.525  0.1909 -0.0264  0.0375
 3087DPPC   C1B58737  16.200  -5.281  15.208 -0.2188  0.1567  0.1294
 3087DPPC   C2B58738  16.041  -5.492  15.512  0.0742 -0.0225  0.1482
 3087DPPC   C3B58739  15.991  -5.770  15.849  0.0032  0.0179  0.0022
 3087DPPC   C4B58740  16.107  -5.822  16.296  0.5830  0.0608 -0.0505
 3088DPPC   NC358741  27.327  -0.985  17.151 -0.0813 -0.0506  0.1749
 3088DPPC   PO458742  26.882  -0.965  17.126 -0.0127  0.0608  0.1571
 3088DPPC   GL158743  26.558  -1.145  16.914 -0.2021  0.2951  0.1171
 3088DPPC   GL258744  26.545  -1.491  16.959 -0.0521  0.2091 -0.0066
 3088DPPC   C1A58745  26.111  -1.220  16.840 -0.2892  0.0764  0.0913
 3088DPPC   C2A58746  25.755  -1.464  16.918 -0.2357  0.0123  0.0075
 3088DPPC   C3A58747  25.644  -1.898  16.772 -0.1422 -0.1456 -0.0964
 3088DPPC   C4A58748  25.605  -2.377  16.609  0.0261 -0.1411  0.0045
 3088DPPC   C1B58749  26.229  -1.340  17.340 -0.2890  0.0362 -0.2336
 3088DPPC   C2B58750  25.775  -1.127  17.241 -0.0494  0.0557 -0.0016
 3088DPPC   C3B58751  25.521  -0.959  16.935  0.0773  0.1857 -0.3247
 3088DPPC   C4B58752  25.000  -0.956  16.986  0.3028 -0.1188  0.1409
 3089DPPC   NC358753  17.870  -4.520  14.381 -0.0473  0.3081  0.1925
 3089DPPC   PO458754  17.808  -4.161  14.112  0.3118 -0.4061  0.1387
 3089DPPC   GL158755  17.596  -4.236  13.772 -0.2500  0.1161 -0.0922
 3089DPPC   GL258756  17.491  -3.935  13.666  0.1365  0.1951  0.0636
 3089DPPC   C1A58757  17.377  -4.388  13.334 -0.2767  0.0451  0.1919
 3089DPPC   C2A58758  17.471  -4.458  12.859 -0.1620 -0.0379  0.0647
 3089DPPC   C3A58759  17.759  -4.284  12.562  0.1821  0.0935 -0.0001
 3089DPPC   C4A58760  17.682  -4.094  12.316 -0.2350  0.0453 -0.2455
 3089DPPC   C1B58761  17.120  -4.008  13.719 -0.0223  0.0783  0.0907
 3089DPPC   C2B58762  16.704  -4.256  13.801 -0.1042  0.1720  0.1836
 3089DPPC   C3B58763  16.356  -4.286  14.089  0.0622 -0.3320 -0.1804
 3089DPPC   C4B58764  16.152  -4.249  14.489 -0.0492  0.0489  0.2199
 3090DPPC   NC358765   4.047   9.515  25.586  0.1047 -0.1871 -0.3470
 3090DPPC   PO458766   4.016   8.911  25.601  0.0582 -0.2141  0.2750
 3090DPPC   GL158767   4.298   8.640  25.579  0.1904 -0.2222 -0.0815
 3090DPPC   GL258768   4.379   8.528  25.868  0.0841  0.0362  0.3189
 3090DPPC   C1A58769   4.741   8.780  25.434 -0.1989  0.1236 -0.0854
 3090DPPC   C2A58770   5.058   8.793  25.156  0.0680  0.1420  0.0876
 3090DPPC   C3A58771   5.388   8.750  24.824 -0.1682  0.0874 -0.1093
 3090DPPC   C4A58772   5.701   8.571  24.624  0.0261  0.2743  0.1970
 3090DPPC   C1B58773   4.596   8.145  25.746  0.2643  0.0052 -0.0068
 3090DPPC   C2B58774   4.963   7.965  25.851  0.0560 -0.1273 -0.3880
 3090DPPC   C3B58775   5.243   7.591  25.905  0.2406 -0.0261  0.4685
 3090DPPC   C4B58776   5.323   7.377  26.252 -0.2206  0.2818  0.2331
 3091DPPC   NC358777  18.926  -3.697   9.721  0.0975  0.3358  0.0105
 3091DPPC   PO458778  19.404  -3.723   9.914 -0.2184  0.1115 -0.0524
 3091DPPC   GL158779  19.173  -3.804  10.208 -0.2062  0.4005  0.0824
 3091DPPC   GL258780  19.470  -3.922  10.397 -0.0697  0.0636  0.0084
 3091DPPC   C1A58781  19.126  -3.522  10.660  0.0724  0.1082 -0.1577
 3091DPPC   C2A58782  19.018  -3.494  11.114  0.1296 -0.1383  0.2063
 3091DPPC   C3A58783  18.952  -3.399  11.566  0.0247  0.2753  0.0723
 3091DPPC   C4A58784  19.161  -3.376  11.921  0.3305 -0.1377  0.0867
 3091DPPC   C1B58785  19.657  -3.757  10.822  0.0542 -0.1051  0.1224
 3091DPPC   C2B58786  19.518  -3.539  11.109  0.0229 -0.2443  0.3788
 3091DPPC   C3B58787  19.458  -3.259  11.458  0.1599  0.3060 -0.2334
 3091DPPC   C4B58788  19.513  -3.063  11.767 -0.0646 -0.3060  0.2029
 3092DPPC   NC358789  19.185  -5.444  16.282 -0.0292  0.0561 -0.4727
 3092DPPC   PO458790  18.957  -5.784  16.141 -0.0894 -0.0685 -0.1496
 3092DPPC   GL158791  19.186  -6.206  16.195 -0.5525 -0.0538 -0.3294
 3092DPPC   GL258792  19.467  -6.114  16.288 -0.0641  0.0471 -0.0978
 3092DPPC   C1A58793  19.258  -6.583  16.033  0.1121 -0.1890  0.1413
 3092DPPC   C2A58794  19.188  -7.077  15.944  0.2627 -0.3233  0.0593
 3092DPPC   C3A58795  19.212  -7.238  16.295  0.3105  0.0484 -0.1159
 3092DPPC   C4A58796  19.299  -7.094  16.659  0.1961 -0.1505 -0.0434
 3092DPPC   C1B58797  19.794  -6.443  16.255  0.1235  0.0337 -0.3494
 3092DPPC   C2B58798  19.917  -6.678  16.457  0.2250 -0.1359 -0.3036
 3092DPPC   C3B58799  20.147  -7.096  16.558  0.0937  0.0857  0.3279
 3092DPPC   C4B58800  20.068  -7.573  16.497 -0.2235  0.2803 -0.0348
 3093DPPC   NC358801   7.105  -1.178  32.398  0.2238  0.1177 -0.0300
 3093DPPC   PO458802   7.123  -1.478  32.017  0.0274 -0.1559  0.0853
 3093DPPC   GL158803   7.356  -1.115  31.912  0.1030 -0.0598  0.0808
 3093DPPC   GL258804   7.452  -1.296  31.595 -0.1580  0.2526  0.3764
 3093DPPC   C1A58805   7.797  -0.958  31.770 -0.0025 -0.0394  0.0977
 3093DPPC   C2A58806   8.075  -1.284  31.521  0.3329  0.0209  0.2156
 3093DPPC   C3A58807   8.480  -1.330  31.405  0.0193  0.0804  0.0327
 3093DPPC   C4A58808   8.603  -1.389  30.932 -0.0676 -0.0235 -0.1942
 3093DPPC   C1B58809   7.700  -1.545  31.351  0.0112  0.3144 -0.0228
 3093DPPC   C2B58810   7.715  -1.617  30.909  0.4229  0.0250  0.1202
 3093DPPC   C3B58811   7.657  -1.296  30.643 -0.0568 -0.0659 -0.2061
 3093DPPC   C4B58812   7.778  -0.988  30.452 -0.0617  0.3815  0.0663
 3094DPPC   NC358813  25.971   2.100  15.712 -0.0735  0.0500 -0.4851
 3094DPPC   PO458814  26.164   1.860  15.858  0.1263 -0.2138 -0.1400
 3094DPPC   GL158815  25.937   1.639  16.207  0.0728  0.0169  0.2407
 3094DPPC   GL258816  26.139   1.487  16.471 -0.0208 -0.0335  0.0263
 3094DPPC   C1A58817  25.636   1.341  16.143  0.1149 -0.1269  0.0477
 3094DPPC   C2A58818  25.278   1.181  16.077  0.0081 -0.1358 -0.0504
 3094DPPC   C3A58819  24.743   1.303  16.065  0.2141 -0.0230 -0.0183
 3094DPPC   C4A58820  24.431   1.568  16.006 -0.3488  0.1522 -0.2531
 3094DPPC   C1B58821  25.903   1.144  16.627 -0.0141  0.1875  0.1006
 3094DPPC   C2B58822  25.457   1.098  16.769  0.2694 -0.0597  0.1148
 3094DPPC   C3B58823  25.148   0.802  16.772 -0.0240 -0.2280  0.2171
 3094DPPC   C4B58824  25.130   0.483  17.104  0.0814  0.2413  0.3125
 3095DPPC   NC358825   7.563  -5.747  21.375  0.2568  0.0908 -0.0083
 3095DPPC   PO458826   7.856  -5.969  21.490  0.2044  0.2398 -0.2588
 3095DPPC   GL158827   8.043  -5.667  21.446  0.2877 -0.4619 -0.1374
 3095DPPC   GL258828   8.315  -5.729  21.157 -0.0035 -0.0264 -0.0950
 3095DPPC   C1A58829   8.208  -5.238  21.441 -0.1242  0.0539 -0.2492
 3095DPPC   C2A58830   8.287  -4.948  21.687  0.2809  0.0883 -0.1475
 3095DPPC   C3A58831   8.628  -4.657  21.723  0.1284 -0.3890 -0.0209
 3095DPPC   C4A58832   8.802  -4.286  21.753 -0.1655  0.1714  0.0568
 3095DPPC   C1B58833   8.606  -5.519  21.000  0.0768 -0.1555  0.0995
 3095DPPC   C2B58834   8.842  -5.175  20.839  0.0761 -0.2971 -0.4056
 3095DPPC   C3B58835   9.185  -4.814  20.799 -0.0656 -0.1334  0.1185
 3095DPPC   C4B58836   9.580  -4.525  20.871 -0.2017 -0.1250  0.0222
 3096DPPC   NC358837  19.389  -3.187  13.920  0.3160  0.0234 -0.0571
 3096DPPC   PO458838  19.028  -2.953  13.616  0.1599 -0.1495 -0.0726
 3096DPPC   GL158839  18.925  -3.050  13.193  0.0065 -0.2516 -0.0169
 3096DPPC   GL258840  18.755  -2.796  13.045  0.0310  0.0860 -0.0933
 3096DPPC   C1A58841  18.940  -3.315  12.848 -0.0046 -0.3515 -0.0623
 3096DPPC   C2A58842  19.064  -3.487  12.557 -0.1577  0.0637 -0.0449
 3096DPPC   C3A58843  19.146  -3.864  12.266  0.0819  0.1571 -0.1635
 3096DPPC   C4A58844  18.748  -4.129  12.268  0.1097 -0.2098  0.0593
 3096DPPC   C1B58845  18.483  -3.010  12.855  0.3461 -0.1081  0.0948
 3096DPPC   C2B58846  18.426  -3.402  12.576 -0.0784  0.3382  0.0788
 3096DPPC   C3B58847  18.441  -3.718  12.305  0.0593  0.1592  0.2155
 3096DPPC   C4B58848  18.732  -3.638  12.006  0.5299  0.2535  0.4072
 3097DPPC   NC358849  17.459  -2.617  14.110 -0.1807  0.0320  0.0235
 3097DPPC   PO458850  17.281  -2.257  14.247  0.4812  0.1904  0.1323
 3097DPPC   GL158851  16.826  -2.246  14.079 -0.1315  0.0294 -0.1708
 3097DPPC   GL258852  16.913  -1.950  14.014 -0.0285  0.1378 -0.0262
 3097DPPC   C1A58853  16.447  -2.197  13.996  0.1835 -0.0236 -0.1409
 3097DPPC   C2A58854  16.278  -1.752  13.883  0.1895 -0.0809  0.2513
 3097DPPC   C3A58855  16.156  -1.308  13.837  0.1160  0.2686  0.0143
 3097DPPC   C4A58856  15.938  -0.987  13.445  0.2996  0.0648  0.1071
 3097DPPC   C1B58857  16.815  -1.679  13.645  0.1631 -0.2348 -0.1506
 3097DPPC   C2B58858  16.574  -1.620  13.303  0.1182  0.0314 -0.3559
 3097DPPC   C3B58859  16.204  -1.472  13.408 -0.0883 -0.2272 -0.0428
 3097DPPC   C4B58860  15.824  -1.497  13.540  0.1669  0.0219  0.3913
 3098DPPC   NC358861  17.253  -4.308  16.836  0.0990 -0.1693 -0.0459
 3098DPPC   PO458862  17.020  -4.350  16.385  0.3200 -0.1528 -0.0191
 3098DPPC   GL158863  16.756  -4.210  16.583 -0.0586 -0.2317 -0.1750
 3098DPPC   GL258864  16.874  -3.957  16.793  0.0650  0.2604 -0.0352
 3098DPPC   C1A58865  16.450  -4.191  16.893  0.1481  0.0154  0.2647
 3098DPPC   C2A58866  16.253  -4.035  17.235  0.1018 -0.1294 -0.0651
 3098DPPC   C3A58867  15.810  -3.800  17.499 -0.1799  0.1043 -0.2588
 3098DPPC   C4A58868  15.364  -3.771  17.533 -0.0270  0.0140  0.1479
 3098DPPC   C1B58869  16.565  -3.704  16.989  0.0170  0.2318 -0.1170
 3098DPPC   C2B58870  16.639  -3.458  17.249  0.1397  0.2479 -0.2344
 3098DPPC   C3B58871  16.681  -3.306  17.627  0.1677  0.1299  0.2482
 3098DPPC   C4B58872  16.977  -3.053  17.814  0.2120 -0.0670 -0.1375
 3099DPPC   NC358873  23.673   5.627  13.761 -0.0379  0.2964 -0.0364
 3099DPPC   PO458874  23.517   5.460  14.141  0.0912  0.0629  0.2686
 3099DPPC   GL158875  23.493   5.511  14.552 -0.0321  0.0705  0.1552
 3099DPPC   GL258876  23.097   5.634  14.628  0.1155  0.1460  0.0890
 3099DPPC   C1A58877  23.436   5.502  14.961  0.2716  0.0368 -0.1815
 3099DPPC   C2A58878  23.211   5.215  15.279 -0.0985  0.0514  0.2961
 3099DPPC   C3A58879  23.012   5.126  15.615  0.2502  0.1225  0.4420
 3099DPPC   C4A58880  22.817   5.116  15.945 -0.2253  0.4227 -0.0536
 3099DPPC   C1B58881  22.961   5.338  14.864 -0.1429 -0.1914  0.0038
 3099DPPC   C2B58882  22.853   4.939  15.010  0.2498 -0.1343 -0.1402
 3099DPPC   C3B58883  22.461   4.722  15.035  0.0123 -0.1540  0.0155
 3099DPPC   C4B58884  22.239   4.419  15.356  0.0055 -0.1236  0.2998
 3100DPPC   NC358885  17.239   0.159  37.134  0.2142 -0.2376 -0.3080
 3100DPPC   PO458886  17.107   0.239  36.698 -0.0384 -0.1331  0.2623
 3100DPPC   GL158887  16.900   0.372  36.259 -0.6394 -0.0210 -0.0387
 3100DPPC   GL258888  16.856   0.055  36.153  0.5540 -0.2998 -0.3198
 3100DPPC   C1A58889  16.944   0.633  35.837  0.2296 -0.1638 -0.0534
 3100DPPC   C2A58890  17.017   0.500  35.374 -0.0207  0.0743 -0.1061
 3100DPPC   C3A58891  17.013   0.325  34.867 -0.0266  0.1183 -0.3715
 3100DPPC   C4A58892  16.459   0.303  34.752 -0.1236  0.2990 -0.1710
 3100DPPC   C1B58893  16.747   0.207  35.745  0.0106 -0.0992 -0.0193
 3100DPPC   C2B58894  16.525   0.569  35.560 -0.0410  0.2236 -0.0249
 3100DPPC   C3B58895  16.441   0.728  35.095  0.2009  0.1357  0.1941
 3100DPPC   C4B58896  16.311   0.730  34.629  0.0487  0.2501 -0.0334
 3101DPPC   NC358897  15.531  -2.589  11.345  0.0041 -0.2109  0.1775
 3101DPPC   PO458898  15.431  -2.890  11.534 -0.3445 -0.0978  0.2778
 3101DPPC   GL158899  15.738  -2.877  11.756 -0.2155  0.2590 -0.2284
 3101DPPC   GL258900  15.820  -2.536  11.781 -0.2675  0.0788 -0.1983
 3101DPPC   C1A58901  15.769  -2.908  12.119 -0.3127 -0.1236 -0.0883
 3101DPPC   C2A58902  15.556  -2.753  12.510  0.3054  0.0666  0.0953
 3101DPPC   C3A58903  15.521  -2.611  12.869 -0.1555 -0.1053  0.1616
 3101DPPC   C4A58904  15.381  -2.796  13.316 -0.0840  0.0727 -0.0556
 3101DPPC   C1B58905  15.805  -2.388  12.219  0.1795 -0.4244 -0.0962
 3101DPPC   C2B58906  16.037  -2.424  12.686  0.0096  0.1378 -0.0494
 3101DPPC   C3B58907  16.092  -2.742  13.032  0.1564 -0.3159  0.1609
 3101DPPC   C4B58908  15.855  -2.987  13.280 -0.1881  0.1433 -0.2980
 3102DPPC   NC358909  14.144  -6.169  13.079 -0.1315  0.2528 -0.0743
 3102DPPC   PO458910  14.256  -5.664  13.198  0.1085 -0.0758 -0.1737
 3102DPPC   GL158911  14.524  -5.395  13.334 -0.1982  0.1150  0.1765
 3102DPPC   GL258912  14.812  -5.554  13.250  0.2087  0.2876 -0.1350
 3102DPPC   C1A58913  14.501  -5.046  13.608 -0.2103  0.4636  0.2471
 3102DPPC   C2A58914  14.529  -4.768  13.924  0.0970 -0.0492  0.0502
 3102DPPC   C3A58915  14.394  -4.328  14.088 -0.2009 -0.0994 -0.3136
 3102DPPC   C4A58916  14.335  -3.923  14.127  0.2878 -0.0442 -0.0033
 3102DPPC   C1B58917  15.056  -5.232  13.353  0.0306 -0.2108  0.2125
 3102DPPC   C2B58918  15.018  -4.905  13.791  0.1773 -0.0055 -0.1460
 3102DPPC   C3B58919  14.857  -4.450  13.705  0.3302  0.1009  0.0561
 3102DPPC   C4B58920  14.921  -4.245  14.142 -0.0852  0.1515  0.2320
 3103DPPC   NC358921  22.890   3.376  12.029 -0.1854 -0.1758 -0.1692
 3103DPPC   PO458922  22.573   3.054  12.238 -0.0792 -0.0693 -0.1134
 3103DPPC   GL158923  22.301   3.087  12.653 -0.1080 -0.1365  0.1332
 3103DPPC   GL258924  22.331   3.351  12.955 -0.0715 -0.1227 -0.2362
 3103DPPC   C1A58925  21.968   2.858  12.975 -0.1240 -0.2309  0.3332
 3103DPPC   C2A58926  22.008   2.886  13.324  0.4171 -0.3067 -0.1917
 3103DPPC   C3A58927  21.871   2.684  13.681  0.1747  0.1445 -0.0224
 3103DPPC   C4A58928  21.656   2.360  13.976 -0.1436  0.0373  0.3512
 3103DPPC   C1B58929  22.510   3.098  13.295  0.0030 -0.0483 -0.1506
 3103DPPC   C2B58930  22.729   2.825  13.513 -0.1577 -0.0435 -0.1133
 3103DPPC   C3B58931  22.372   2.769  13.756  0.0492  0.0345  0.0209
 3103DPPC   C4B58932  22.497   2.552  14.082  0.2420 -0.2750 -0.0086
 3104DPPC   NC358933   8.780  11.138  34.013  0.1671 -0.4689 -0.1760
 3104DPPC   PO458934   8.590  10.914  33.673  0.1138  0.4388  0.2215
 3104DPPC   GL158935   8.918  10.747  33.393  0.0120 -0.0266  0.2611
 3104DPPC   GL258936   8.938  10.445  33.535  0.1633  0.0962 -0.0242
 3104DPPC   C1A58937   9.361  10.723  33.410 -0.0445  0.1943 -0.2094
 3104DPPC   C2A58938   9.674  10.826  33.168  0.0606  0.0925  0.2640
 3104DPPC   C3A58939   9.575  10.836  32.687  0.0702  0.1914  0.0197
 3104DPPC   C4A58940   9.282  10.758  32.302  0.0769  0.3157  0.1159
 3104DPPC   C1B58941   9.149  10.478  33.046 -0.0769  0.1429  0.0385
 3104DPPC   C2B58942   9.341  10.393  32.647  0.1684  0.0863 -0.3553
 3104DPPC   C3B58943   9.605  10.288  32.419 -0.3057 -0.1854  0.0450
 3104DPPC   C4B58944   9.939  10.470  32.052 -0.3077 -0.0499 -0.2623
 3105DPPC   NC358945  11.652  13.751  33.442 -0.0990  0.1173 -0.0138
 3105DPPC   PO458946  12.047  13.480  33.359  0.0586  0.0826 -0.1447
 3105DPPC   GL158947  12.180  13.293  33.133  0.2513 -0.1468  0.1443
 3105DPPC   GL258948  12.459  13.189  33.156  0.0834 -0.2714 -0.0561
 3105DPPC   C1A58949  12.089  13.116  32.769 -0.0343 -0.1686 -0.0411
 3105DPPC   C2A58950  12.123  12.798  32.545 -0.1101 -0.2533  0.2639
 3105DPPC   C3A58951  11.853  12.634  32.215  0.1334  0.2210 -0.3061
 3105DPPC   C4A58952  11.849  12.328  31.831  0.0675 -0.2768  0.2098
 3105DPPC   C1B58953  12.537  12.937  32.846  0.5166 -0.1491 -0.1555
 3105DPPC   C2B58954  12.701  12.648  32.483 -0.1761 -0.1142 -0.0743
 3105DPPC   C3B58955  12.962  12.661  32.162 -0.0640 -0.0115  0.1199
 3105DPPC   C4B58956  13.335  12.582  32.174  0.0064  0.0128  0.0524
 3106DPPC   NC358957  16.715  -5.699  15.621  0.0943  0.1051 -0.2285
 3106DPPC   PO458958  16.808  -5.305  15.434 -0.0844  0.3051  0.0612
 3106DPPC   GL158959  16.633  -5.485  15.173 -0.3165  0.0688  0.4307
 3106DPPC   GL258960  16.603  -5.545  14.837  0.0198  0.0306 -0.1465
 3106DPPC   C1A58961  16.333  -5.828  15.121  0.1348 -0.1470 -0.1684
 3106DPPC   C2A58962  16.044  -6.117  15.364 -0.2775 -0.1078 -0.2605
 3106DPPC   C3A58963  15.644  -6.248  15.537  0.0793  0.0200 -0.2021
 3106DPPC   C4A58964  15.280  -6.008  15.437 -0.2073 -0.1292 -0.0867
 3106DPPC   C1B58965  16.796  -5.996  14.989 -0.0042  0.2101 -0.0217
 3106DPPC   C2B58966  16.878  -6.406  14.823  0.1842  0.0623  0.1589
 3106DPPC   C3B58967  16.611  -6.716  14.710 -0.1322  0.1051 -0.1589
 3106DPPC   C4B58968  16.321  -6.766  14.526 -0.0341 -0.1431  0.1862
 3107DPPC   NC358969   6.194  -2.901  29.926  0.1198  0.1241 -0.6749
 3107DPPC   PO458970   6.057  -2.524  30.118  0.3971 -0.0231  0.0835
 3107DPPC   GL158971   6.196  -2.099  29.958 -0.2755 -0.0588  0.2247
 3107DPPC   GL258972   6.253  -2.317  29.692 -0.0563  0.1790 -0.0096
 3107DPPC   C1A58973   6.537  -1.832  29.839  0.0161  0.1254 -0.1360
 3107DPPC   C2A58974   6.845  -1.714  29.597 -0.0121 -0.2022 -0.0845
 3107DPPC   C3A58975   7.210  -1.445  29.392  0.3133  0.0676  0.0555
 3107DPPC   C4A58976   7.524  -1.279  29.618 -0.0852  0.1608 -0.3158
 3107DPPC   C1B58977   6.190  -1.901  29.487 -0.1783 -0.0139 -0.1651
 3107DPPC   C2B58978   6.204  -1.604  29.109  0.0604  0.1949  0.0256
 3107DPPC   C3B58979   6.332  -1.269  28.911 -0.0584 -0.3724  0.1630
 3107DPPC   C4B58980   6.588  -0.815  28.792  0.1306  0.3579  0.0282
 3108DPPC   NC358981  28.751   4.110  25.622  0.0929 -0.3355  0.0340
 3108DPPC   PO458982  28.569   4.047  25.166 -0.2818 -0.0820 -0.0652
 3108DPPC   GL158983  28.193   4.055  25.012 -0.0000  0.1766  0.1601
 3108DPPC   GL258984  28.109   4.368  24.979 -0.1313 -0.0030  0.2218
 3108DPPC   C1A58985  27.714   3.954  24.993  0.2294  0.0105  0.0581
 3108DPPC   C2A58986  27.320   3.847  24.937  0.2259 -0.0296  0.0346
 3108DPPC   C3A58987  26.978   3.600  24.975  0.1353 -0.0952  0.1672
 3108DPPC   C4A58988  26.490   3.586  25.142  0.1333 -0.0336 -0.1200
 3108DPPC   C1B58989  27.916   4.189  25.383 -0.0889  0.0290 -0.1125
 3108DPPC   C2B58990  27.561   3.879  25.559 -0.0794 -0.1925  0.2964
 3108DPPC   C3B58991  27.208   3.834  25.433  0.1483 -0.3084  0.2123
 3108DPPC   C4B58992  26.920   3.676  25.492  0.0058  0.0336  0.3139
 3109DPPC   NC358993  20.687  -4.904  19.081 -0.1564  0.2948  0.1079
 3109DPPC   PO458994  21.116  -4.617  19.019  0.0921 -0.4023 -0.0572
 3109DPPC   GL158995  21.115  -4.796  19.399 -0.1262 -0.0458 -0.1631
 3109DPPC   GL258996  21.093  -5.128  19.417  0.1038  0.3851 -0.0181
 3109DPPC   C1A58997  20.806  -4.830  19.717 -0.1788  0.1226  0.0807
 3109DPPC   C2A58998  20.877  -4.828  20.155  0.2366  0.0955  0.1568
 3109DPPC   C3A58999  21.008  -4.921  20.549  0.2533  0.0709  0.2342
 3109DPPC   C4A59000  21.012  -4.701  20.924  0.0878  0.1560  0.0307
 3109DPPC   C1B59001  21.186  -5.523  19.639  0.1075  0.2416 -0.1240
 3109DPPC   C2B59002  21.543  -5.627  19.832 -0.1942 -0.1099 -0.2932
 3109DPPC   C3B59003  21.883  -5.803  20.113 -0.1806 -0.2658  0.0899
 3109DPPC   C4B59004  22.204  -6.187  20.150 -0.0403 -0.0490 -0.1034
 3110DPPC   NC359005  20.061  -4.501  18.764 -0.0038 -0.0754 -0.0639
 3110DPPC   PO459006  20.272  -4.794  18.785 -0.3914  0.1202  0.1446
 3110DPPC   GL159007  20.124  -4.779  19.159  0.1015 -0.0532 -0.2502
 3110DPPC   GL259008  19.937  -4.921  19.331  0.2848  0.1018  0.2587
 3110DPPC   C1A59009  20.302  -4.877  19.666  0.0061  0.4252  0.1879
 3110DPPC   C2A59010  20.450  -5.087  20.057 -0.3526  0.0945  0.0543
 3110DPPC   C3A59011  20.737  -5.320  20.352  0.2297  0.1773 -0.1027
 3110DPPC   C4A59012  21.073  -5.430  20.583  0.0949  0.0646  0.3907
 3110DPPC   C1B59013  19.458  -4.721  19.393 -0.0023  0.2761  0.1471
 3110DPPC   C2B59014  18.999  -4.801  19.374 -0.3854  0.2741  0.2023
 3110DPPC   C3B59015  18.715  -4.737  19.655  0.3395 -0.0769 -0.2202
 3110DPPC   C4B59016  18.556  -4.413  19.807 -0.0268  0.1683 -0.1696
 3111DPPC   NC359017  22.989  -3.694  18.668 -0.2303  0.1057 -0.0903
 3111DPPC   PO459018  22.907  -3.893  18.334 -0.2805  0.1333 -0.1838
 3111DPPC   GL159019  23.328  -4.088  18.374 -0.1614  0.2405 -0.2541
 3111DPPC   GL259020  23.263  -4.262  18.665 -0.0057  0.2005  0.0274
 3111DPPC   C1A59021  23.688  -4.425  18.360  0.2250  0.1046  0.0611
 3111DPPC   C2A59022  23.946  -4.764  18.325  0.3059  0.0481 -0.2577
 3111DPPC   C3A59023  24.370  -4.835  18.248 -0.0619  0.4348 -0.0964
 3111DPPC   C4A59024  24.729  -4.736  18.042  0.0705 -0.1153  0.3901
 3111DPPC   C1B59025  23.590  -3.966  18.817  0.3007  0.0020  0.1538
 3111DPPC   C2B59026  23.811  -3.832  19.184  0.1136 -0.2097  0.0090
 3111DPPC   C3B59027  24.175  -4.024  19.365  0.0773  0.0206  0.0190
 3111DPPC   C4B59028  24.576  -4.306  19.460  0.0303  0.0415  0.0576
 3112DPPC   NC359029  22.631  -2.640  17.977  0.2101  0.0678 -0.1453
 3112DPPC   PO459030  22.779  -2.711  18.410 -0.3155  0.1989 -0.0842
 3112DPPC   GL159031  23.142  -2.469  18.496  0.1289  0.5187 -0.1982
 3112DPPC   GL259032  23.347  -2.620  18.338  0.2383 -0.1708 -0.3419
 3112DPPC   C1A59033  23.254  -2.542  18.907  0.1145  0.0778 -0.2805
 3112DPPC   C2A59034  22.914  -2.554  19.169  0.0888 -0.1975  0.2817
 3112DPPC   C3A59035  22.438  -2.476  19.086  0.1904  0.0354  0.3059
 3112DPPC   C4A59036  21.982  -2.501  18.816  0.0533  0.1589 -0.0209
 3112DPPC   C1B59037  23.761  -2.714  18.591  0.0501 -0.1878  0.3010
 3112DPPC   C2B59038  24.052  -2.947  18.800  0.2028  0.0505  0.0442
 3112DPPC   C3B59039  24.314  -2.965  19.147  0.3994  0.0949  0.2806
 3112DPPC   C4B59040  24.437  -3.267  19.145  0.1988 -0.0985  0.0690
 3113DPPC   NC359041  18.321  -7.921  24.783 -0.1466 -0.2046  0.1834
 3113DPPC   PO459042  18.042  -8.164  24.434 -0.1173  0.1602 -0.1520
 3113DPPC   GL159043  18.120  -7.728  24.336  0.1200 -0.3710 -0.2439
 3113DPPC   GL259044  18.302  -7.573  24.122  0.0662  0.0427  0.0152
 3113DPPC   C1A59045  17.846  -7.444  24.323 -0.1845 -0.2207  0.0500
 3113DPPC   C2A59046  17.622  -7.021  24.385 -0.3458  0.1808  0.0264
 3113DPPC   C3A59047  17.436  -6.620  24.419  0.1281  0.1741  0.0335
 3113DPPC   C4A59048  17.525  -6.208  24.158  0.5683  0.0859  0.1825
 3113DPPC   C1B59049  18.148  -7.283  23.935 -0.1346 -0.2929  0.0718
 3113DPPC   C2B59050  17.961  -6.958  23.980  0.2465  0.1952  0.0481
 3113DPPC   C3B59051  17.768  -6.623  24.090 -0.1304 -0.0925  0.0415
 3113DPPC   C4B59052  18.135  -6.255  24.171 -0.0646 -0.2693 -0.0080
 3114DPPC   NC359053  18.045  -6.844  30.638 -0.1416 -0.1665  0.3428
 3114DPPC   PO459054  18.147  -7.123  30.271  0.1032  0.1004 -0.2169
 3114DPPC   GL159055  17.874  -6.911  30.146  0.2686 -0.1435  0.3026
 3114DPPC   GL259056  17.806  -6.861  29.839  0.2368 -0.2326  0.0205
 3114DPPC   C1A59057  17.602  -6.527  30.183 -0.2400 -0.0336 -0.2892
 3114DPPC   C2A59058  17.665  -6.075  29.927  0.0456  0.1461  0.2901
 3114DPPC   C3A59059  18.072  -5.904  29.879  0.1490  0.3916 -0.3430
 3114DPPC   C4A59060  18.303  -5.839  29.514  0.3039  0.3905 -0.3274
 3114DPPC   C1B59061  17.897  -6.507  29.726  0.1190 -0.1040  0.3281
 3114DPPC   C2B59062  18.016  -6.234  29.488 -0.0880  0.1971 -0.1991
 3114DPPC   C3B59063  17.952  -5.904  29.179 -0.1454 -0.2594  0.0451
 3114DPPC   C4B59064  17.964  -5.534  29.170  0.0584  0.3390  0.0042
 3115DPPC   NC359065  22.303  -6.993  11.781 -0.0453  0.0147 -0.1450
 3115DPPC   PO459066  21.823  -6.901  11.929 -0.3028 -0.0040 -0.0833
 3115DPPC   GL159067  21.602  -6.797  12.316 -0.2836  0.0801  0.1473
 3115DPPC   GL259068  21.782  -6.626  12.594 -0.0418 -0.0164  0.1934
 3115DPPC   C1A59069  21.198  -6.815  12.339 -0.0529 -0.1772 -0.2755
 3115DPPC   C2A59070  20.888  -6.594  12.504 -0.3241  0.3183  0.0996
 3115DPPC   C3A59071  20.521  -6.291  12.724  0.1946 -0.0143  0.1805
 3115DPPC   C4A59072  20.299  -5.907  12.996  0.2250  0.0059 -0.1006
 3115DPPC   C1B59073  21.750  -6.240  12.868 -0.0389  0.2514  0.0603
 3115DPPC   C2B59074  21.997  -5.864  13.134 -0.2329 -0.0747  0.1380
 3115DPPC   C3B59075  21.853  -5.491  13.401 -0.1656 -0.2059  0.2492
 3115DPPC   C4B59076  21.485  -5.329  13.469  0.0445 -0.2657 -0.2677
 3116DPPC   NC359077  21.946   1.443  14.038 -0.1205 -0.0209  0.4244
 3116DPPC   PO459078  21.959   1.421  14.406 -0.1940  0.0365  0.1421
 3116DPPC   GL159079  22.024   1.817  14.390  0.0358  0.0214 -0.0780
 3116DPPC   GL259080  21.812   1.989  14.647 -0.0873 -0.1099 -0.2288
 3116DPPC   C1A59081  22.072   2.312  14.282 -0.3417 -0.0049  0.0587
 3116DPPC   C2A59082  21.976   2.850  14.176  0.2927  0.2241  0.2326
 3116DPPC   C3A59083  21.693   3.090  14.155 -0.1749 -0.3454 -0.2473
 3116DPPC   C4A59084  21.579   3.334  14.527  0.0066  0.1012 -0.4219
 3116DPPC   C1B59085  21.606   2.281  14.913  0.1164  0.1413  0.0037
 3116DPPC   C2B59086  21.373   2.693  15.001  0.1619 -0.0839  0.1742
 3116DPPC   C3B59087  21.682   2.901  14.789  0.1501  0.5055 -0.1630
 3116DPPC   C4B59088  21.968   2.608  14.689 -0.1963  0.2734 -0.0313
 3117DPPC   NC359089  20.550   0.261  13.580 -0.1679 -0.1523  0.2550
 3117DPPC   PO459090  20.902  -0.040  13.408 -0.0010  0.3558  0.0922
 3117DPPC   GL159091  20.774  -0.017  12.982 -0.0779  0.3571 -0.4507
 3117DPPC   GL259092  20.876  -0.382  12.898 -0.0235  0.1227  0.1740
 3117DPPC   C1A59093  21.027   0.021  12.643  0.1394  0.3200  0.5214
 3117DPPC   C2A59094  21.148   0.361  12.337 -0.0321 -0.1606 -0.0561
 3117DPPC   C3A59095  21.029   0.462  11.914  0.0743  0.2782  0.0618
 3117DPPC   C4A59096  21.299   0.623  11.585  0.1431 -0.3119 -0.0338
 3117DPPC   C1B59097  21.061  -0.763  12.941  0.1582  0.0433  0.2221
 3117DPPC   C2B59098  21.214  -1.125  12.679  0.0558  0.0768  0.3268
 3117DPPC   C3B59099  21.373  -1.448  12.394  0.0621 -0.1290  0.0595
 3117DPPC   C4B59100  21.726  -1.586  12.068  0.2703 -0.0271  0.0031
 3118DPPC   NC359101  13.604  -1.136  36.137  0.1631  0.3242 -0.0609
 3118DPPC   PO459102  13.350  -0.702  36.229 -0.3532  0.1678 -0.0519
 3118DPPC   GL159103  13.600  -0.524  35.962  0.2842 -0.0041 -0.0295
 3118DPPC   GL259104  13.773  -0.692  35.739 -0.2637  0.0405 -0.1100
 3118DPPC   C1A59105  13.683  -0.034  35.796 -0.2416  0.3133 -0.0707
 3118DPPC   C2A59106  14.065   0.302  35.689  0.0947 -0.1520 -0.1275
 3118DPPC   C3A59107  14.356   0.536  35.698  0.2135  0.0909  0.1625
 3118DPPC   C4A59108  14.485   0.623  35.364  0.0317 -0.0697  0.4421
 3118DPPC   C1B59109  13.837  -0.313  35.399 -0.1608 -0.0789 -0.1848
 3118DPPC   C2B59110  13.639   0.087  35.268  0.2768 -0.2557  0.1083
 3118DPPC   C3B59111  13.712   0.361  34.904 -0.0005 -0.4204  0.4064
 3118DPPC   C4B59112  13.552   0.514  34.469 -0.0462  0.0184 -0.0715
 3119DPPC   NC359113  28.379   5.125  25.358  0.0978 -0.0311  0.1315
 3119DPPC   PO459114  28.454   5.377  25.700  0.1018  0.2873  0.2371
 3119DPPC   GL159115  28.159   5.486  25.843  0.0251 -0.0333  0.1240
 3119DPPC   GL259116  27.976   5.218  25.674 -0.2860 -0.1254  0.0188
 3119DPPC   C1A59117  27.885   5.728  25.883  0.3059  0.0784 -0.3107
 3119DPPC   C2A59118  27.629   5.784  26.281  0.3374 -0.1662  0.0302
 3119DPPC   C3A59119  27.349   5.497  26.457 -0.3193  0.1743 -0.0547
 3119DPPC   C4A59120  27.384   5.059  26.428 -0.2533  0.0929  0.2001
 3119DPPC   C1B59121  27.634   5.106  25.286  0.1085 -0.3035  0.1864
 3119DPPC   C2B59122  27.157   5.256  25.379 -0.0815 -0.0605 -0.5176
 3119DPPC   C3B59123  26.816   5.445  25.194 -0.0447  0.0317 -0.4098
 3119DPPC   C4B59124  26.522   5.614  24.951  0.0066 -0.2361 -0.1054
 3120DPPC   NC359125  11.930  16.888  25.655 -0.6273 -0.2102 -0.2161
 3120DPPC   PO459126  11.919  16.396  25.546 -0.1395 -0.1187 -0.2183
 3120DPPC   GL159127  11.916  15.972  25.662 -0.2216 -0.0045 -0.1525
 3120DPPC   GL259128  12.152  15.676  25.542  0.2415  0.1916  0.0508
 3120DPPC   C1A59129  11.714  15.621  25.826 -0.3221 -0.1684  0.0336
 3120DPPC   C2A59130  11.760  15.188  25.901 -0.2425 -0.0038  0.3900
 3120DPPC   C3A59131  11.953  14.715  25.831 -0.2446  0.2133 -0.1957
 3120DPPC   C4A59132  12.443  14.444  25.795  0.1973  0.0336  0.0985
 3120DPPC   C1B59133  12.177  15.758  25.970  0.0947 -0.3332 -0.0332
 3120DPPC   C2B59134  11.852  15.894  26.261 -0.0140  0.2151  0.1840
 3120DPPC   C3B59135  11.468  16.058  26.204  0.3088  0.3016 -0.0350
 3120DPPC   C4B59136  11.052  16.250  26.201 -0.3343 -0.3037  0.1895
 3121DPPC   NC359137  23.382  -0.586  15.764  0.2516 -0.1146 -0.0974
 3121DPPC   PO459138  23.385  -0.724  16.179 -0.1884 -0.1567  0.0070
 3121DPPC   GL159139  23.463  -0.268  16.217  0.2358  0.0631 -0.2775
 3121DPPC   GL259140  23.503  -0.126  15.928 -0.5546 -0.1327  0.0334
 3121DPPC   C1A59141  23.838  -0.146  16.361  0.0352 -0.0175  0.0411
 3121DPPC   C2A59142  24.269   0.048  16.346 -0.0614 -0.1564  0.1206
 3121DPPC   C3A59143  24.423   0.198  16.770  0.1208 -0.3832  0.2218
 3121DPPC   C4A59144  24.629   0.539  17.003  0.0768 -0.3068 -0.1825
 3121DPPC   C1B59145  23.928  -0.292  15.883  0.0802 -0.2369 -0.0428
 3121DPPC   C2B59146  24.236  -0.416  16.165 -0.3555  0.1349 -0.1541
 3121DPPC   C3B59147  24.556  -0.722  16.321  0.0355 -0.2940  0.1005
 3121DPPC   C4B59148  24.548  -0.852  16.745 -0.0927 -0.1341  0.0953
 3122DPPC   NC359149  16.678  -7.563  28.657  0.2312  0.1306  0.0630
 3122DPPC   PO459150  16.542  -7.737  29.023  0.1752  0.4115  0.0045
 3122DPPC   GL159151  16.300  -7.288  28.937 -0.0326 -0.2086 -0.1677
 3122DPPC   GL259152  16.234  -7.286  28.674  0.0211 -0.1619 -0.1488
 3122DPPC   C1A59153  16.279  -6.843  28.825  0.1816 -0.4123 -0.0439
 3122DPPC   C2A59154  15.999  -6.526  28.628 -0.0547 -0.0440  0.4057
 3122DPPC   C3A59155  15.653  -6.284  28.470 -0.2157 -0.0085  0.4065
 3122DPPC   C4A59156  15.632  -5.795  28.488  0.0229  0.0723 -0.0170
 3122DPPC   C1B59157  16.191  -7.079  28.305  0.0910  0.1085 -0.1995
 3122DPPC   C2B59158  15.792  -6.849  28.182  0.1030 -0.0094 -0.0225
 3122DPPC   C3B59159  15.519  -6.457  28.034  0.0105 -0.0961  0.0542
 3122DPPC   C4B59160  15.536  -6.006  28.021 -0.2899 -0.2277  0.2068
 3123DPPC   NC359161  17.907  -0.831  15.214 -0.0507 -0.1726  0.0649
 3123DPPC   PO459162  17.662  -0.457  15.182 -0.0990  0.2311 -0.1372
 3123DPPC   GL159163  17.444  -0.140  15.005 -0.2739 -0.1331  0.2373
 3123DPPC   GL259164  17.663   0.171  14.899  0.0635 -0.0622 -0.2508
 3123DPPC   C1A59165  17.174   0.060  14.636  0.4708 -0.0919  0.3385
 3123DPPC   C2A59166  17.011   0.424  14.646 -0.2411 -0.0342  0.0105
 3123DPPC   C3A59167  17.064   0.796  14.754 -0.2540  0.0366  0.0573
 3123DPPC   C4A59168  17.436   0.945  14.834  0.0661  0.0820  0.0917
 3123DPPC   C1B59169  17.542   0.461  14.638 -0.0447 -0.2024  0.0356
 3123DPPC   C2B59170  17.336   0.762  14.326 -0.0537 -0.0071  0.0944
 3123DPPC   C3B59171  16.931   0.735  14.261 -0.1515  0.1649  0.1838
 3123DPPC   C4B59172  16.643   1.056  14.057  0.0357 -0.0832  0.2023
 3124DPPC   NC359173  14.897  14.643  18.788 -0.4025 -0.4025  0.2088
 3124DPPC   PO459174  14.790  14.100  18.683 -0.0601  0.0935  0.2133
 3124DPPC   GL159175  14.638  13.627  18.647  0.2643  0.0807 -0.2860
 3124DPPC   GL259176  14.322  13.522  18.602  0.1435 -0.2603 -0.1203
 3124DPPC   C1A59177  14.742  13.225  18.563 -0.0291 -0.1600 -0.0707
 3124DPPC   C2A59178  14.931  12.913  18.734 -0.0812 -0.0949  0.1683
 3124DPPC   C3A59179  15.305  12.853  18.909 -0.2438 -0.2389 -0.1680
 3124DPPC   C4A59180  15.626  12.635  18.754  0.0106  0.0089 -0.4922
 3124DPPC   C1B59181  14.259  13.054  18.619 -0.1770 -0.2973 -0.2351
 3124DPPC   C2B59182  14.433  12.552  18.707  0.4964  0.0610  0.1615
 3124DPPC   C3B59183  14.763  12.375  18.942  0.0460 -0.0632 -0.1746
 3124DPPC   C4B59184  15.211  12.176  19.171  0.1773  0.2067 -0.2107
 3125DPPC   NC359185  23.706  -2.326  16.480  0.1240  0.0840  0.1869
 3125DPPC   PO459186  23.388  -2.439  16.139  0.2891  0.1043 -0.2052
 3125DPPC   GL159187  23.809  -2.415  16.005 -0.1202  0.3723  0.0500
 3125DPPC   GL259188  23.974  -2.053  16.130 -0.1141  0.0347 -0.1981
 3125DPPC   C1A59189  24.288  -2.307  15.798 -0.2099  0.2052 -0.0953
 3125DPPC   C2A59190  24.662  -2.132  15.821 -0.1949  0.0288 -0.1082
 3125DPPC   C3A59191  24.986  -1.762  15.547  0.0087 -0.1258  0.0016
 3125DPPC   C4A59192  25.057  -1.370  15.303  0.0053 -0.1396 -0.2241
 3125DPPC   C1B59193  24.371  -1.820  16.121  0.1156 -0.0648 -0.0263
 3125DPPC   C2B59194  24.708  -1.652  16.011  0.1953  0.1281 -0.1646
 3125DPPC   C3B59195  24.998  -1.375  16.270 -0.2384 -0.1503  0.0991
 3125DPPC   C4B59196  25.263  -1.046  16.493 -0.1921 -0.0535 -0.0364
 3126DPPC   NC359197   7.236   0.452  34.069 -0.0912 -0.0997  0.0413
 3126DPPC   PO459198   6.940   0.376  33.825 -0.0391 -0.1253 -0.0201
 3126DPPC   GL159199   7.136   0.683  33.562  0.1345 -0.1889 -0.0242
 3126DPPC   GL259200   7.208   0.454  33.385  0.0215  0.1041  0.3905
 3126DPPC   C1A59201   7.524   0.834  33.298 -0.1923  0.0247 -0.1440
 3126DPPC   C2A59202   7.908   0.730  33.248 -0.1314 -0.1262  0.2917
 3126DPPC   C3A59203   8.044   0.448  32.926  0.0257  0.1737  0.0004
 3126DPPC   C4A59204   8.261   0.081  32.748  0.0879 -0.0276 -0.0892
 3126DPPC   C1B59205   7.537   0.280  33.185 -0.3008 -0.0443 -0.1441
 3126DPPC   C2B59206   7.850   0.002  33.087  0.0774  0.0976  0.2459
 3126DPPC   C3B59207   8.197  -0.362  33.098 -0.1136  0.2504 -0.0862
 3126DPPC   C4B59208   8.585  -0.316  33.195 -0.2961  0.2787 -0.0756
 3127DPPC   NC359209   7.471  12.978  30.111  0.2417  0.2674 -0.2459
 3127DPPC   PO459210   7.213  12.694  30.240  0.3019  0.2321  0.0014
 3127DPPC   GL159211   7.454  12.432  30.086  0.2062 -0.4292 -0.1854
 3127DPPC   GL259212   7.673  12.573  29.846 -0.0597 -0.0558 -0.0403
 3127DPPC   C1A59213   7.564  12.079  29.754 -0.5092 -0.1499 -0.0217
 3127DPPC   C2A59214   7.675  11.699  29.548 -0.0968 -0.1525 -0.5002
 3127DPPC   C3A59215   7.524  11.337  29.403  0.1421 -0.1059  0.2623
 3127DPPC   C4A59216   7.528  10.904  29.277  0.2493 -0.0187 -0.0631
 3127DPPC   C1B59217   8.072  12.402  29.654  0.2485 -0.1203  0.3468
 3127DPPC   C2B59218   8.474  12.565  29.560  0.1901  0.2205 -0.0979
 3127DPPC   C3B59219   8.926  12.592  29.785 -0.0248 -0.0182 -0.1555
 3127DPPC   C4B59220   9.393  12.577  29.882  0.0862  0.3024  0.0846
 3128DPPC   NC359221  12.989   5.581  38.235 -0.1124 -0.0081 -0.0353
 3128DPPC   PO459222  13.100   5.720  37.822 -0.1231  0.6377 -0.1142
 3128DPPC   GL159223  12.924   5.515  37.519 -0.0582  0.0867 -0.1844
 3128DPPC   GL259224  12.872   5.610  37.238 -0.1307 -0.0572  0.3488
 3128DPPC   C1A59225  13.296   5.299  37.189  0.2886  0.2122 -0.1115
 3128DPPC   C2A59226  13.247   5.150  36.799  0.1548  0.0896  0.0660
 3128DPPC   C3A59227  13.443   5.079  36.417 -0.0321 -0.0249 -0.2010
 3128DPPC   C4A59228  13.819   4.922  36.408 -0.1051  0.1507 -0.2082
 3128DPPC   C1B59229  13.069   5.810  36.929  0.0369  0.2530 -0.3610
 3128DPPC   C2B59230  13.364   5.674  36.710  0.4261 -0.0570  0.3219
 3128DPPC   C3B59231  13.713   5.352  36.794  0.1039 -0.0571  0.0159
 3128DPPC   C4B59232  13.886   5.181  37.106 -0.1107  0.1408 -0.0760
 3129DPPC   NC359233  15.303   4.018  38.059  0.2392 -0.0875  0.1053
 3129DPPC   PO459234  15.422   3.623  38.091  0.1312 -0.0627 -0.3184
 3129DPPC   GL159235  15.327   3.751  37.629 -0.0245  0.3363  0.0219
 3129DPPC   GL259236  15.068   3.540  37.460 -0.0542 -0.0497 -0.2529
 3129DPPC   C1A59237  15.555   3.659  37.345  0.3144  0.0774 -0.1328
 3129DPPC   C2A59238  16.021   3.609  37.241 -0.1968 -0.0623 -0.2351
 3129DPPC   C3A59239  16.438   3.774  37.035  0.1579 -0.2881  0.0189
 3129DPPC   C4A59240  16.530   4.028  36.660  0.0548  0.1091  0.2712
 3129DPPC   C1B59241  14.976   3.851  37.191  0.1034  0.0025  0.2402
 3129DPPC   C2B59242  15.004   3.949  36.777  0.3367 -0.2269  0.0166
 3129DPPC   C3B59243  15.169   3.945  36.294 -0.1944 -0.1998  0.0088
 3129DPPC   C4B59244  15.290   3.748  35.999  0.0327 -0.1664  0.0491
 3130DPPC   NC359245  15.156  14.915  20.526 -0.4889  0.4667  0.2633
 3130DPPC   PO459246  15.454  14.938  20.797 -0.2335  0.0206 -0.2671
 3130DPPC   GL159247  15.451  14.501  20.755 -0.0719  0.3523  0.0857
 3130DPPC   GL259248  15.187  14.436  20.568  0.0637 -0.0029  0.3643
 3130DPPC   C1A59249  15.424  14.125  20.915  0.0124 -0.1739 -0.1993
 3130DPPC   C2A59250  15.532  13.758  21.094  0.3032  0.1077  0.3823
 3130DPPC   C3A59251  15.766  13.396  21.072 -0.4272  0.2789 -0.1447
 3130DPPC   C4A59252  15.873  13.082  21.150 -0.0015  0.0408 -0.2539
 3130DPPC   C1B59253  15.198  14.096  20.331  0.5058 -0.2341 -0.2111
 3130DPPC   C2B59254  15.181  13.922  19.936  0.1808 -0.1518  0.1041
 3130DPPC   C3B59255  15.014  13.574  19.780  0.0765 -0.0942 -0.1351
 3130DPPC   C4B59256  15.092  13.085  19.716 -0.1371 -0.0557 -0.1209
 3131DPPC   NC359257  24.837   3.300  14.459  0.1590 -0.1671 -0.4445
 3131DPPC   PO459258  24.944   3.252  14.933  0.0075 -0.2151  0.1777
 3131DPPC   GL159259  24.643   2.969  15.201  0.3294 -0.0962  0.4129
 3131DPPC   GL259260  24.509   2.821  15.397 -0.1023 -0.0534  0.0375
 3131DPPC   C1A59261  24.584   2.439  15.113 -0.1613  0.2641  0.1886
 3131DPPC   C2A59262  24.532   2.078  15.448 -0.0748 -0.0761  0.1090
 3131DPPC   C3A59263  24.216   1.713  15.492 -0.4022  0.0028 -0.0570
 3131DPPC   C4A59264  24.159   1.342  15.375 -0.0972 -0.0624 -0.0880
 3131DPPC   C1B59265  24.260   2.500  15.615 -0.1800 -0.2721 -0.0283
 3131DPPC   C2B59266  24.111   2.237  16.035 -0.0509 -0.3065  0.3072
 3131DPPC   C3B59267  24.136   1.886  16.321 -0.3232  0.0672 -0.1606
 3131DPPC   C4B59268  24.061   1.817  16.746 -0.3258  0.2144  0.0044
 3132DPPC   NC359269   7.059  -4.983  29.540 -0.0004 -0.4166  0.0966
 3132DPPC   PO459270   7.187  -4.646  29.768 -0.2716 -0.0633  0.0133
 3132DPPC   GL159271   7.584  -4.365  29.871  0.3601  0.2131 -0.0330
 3132DPPC   GL259272   7.636  -4.405  30.229  0.0480  0.0171  0.1028
 3132DPPC   C1A59273   7.932  -3.992  29.854  0.4063  0.0445 -0.1363
 3132DPPC   C2A59274   8.038  -3.569  29.966  0.0092 -0.1581  0.0630
 3132DPPC   C3A59275   7.934  -3.317  30.339 -0.0856  0.2978 -0.0220
 3132DPPC   C4A59276   7.556  -3.034  30.332 -0.2715  0.0590  0.1501
 3132DPPC   C1B59277   8.086  -4.236  30.271 -0.1228  0.0452 -0.2391
 3132DPPC   C2B59278   8.190  -3.796  30.393 -0.2362  0.2778  0.3175
 3132DPPC   C3B59279   8.490  -3.383  30.373  0.0407  0.0306 -0.2475
 3132DPPC   C4B59280   8.762  -3.170  30.672 -0.0585  0.2458 -0.2388
 3133DPPC   NC359281  13.110   7.732  12.878  0.0744 -0.0510  0.3570
 3133DPPC   PO459282  13.368   7.817  13.208 -0.3768  0.0035  0.0113
 3133DPPC   GL159283  13.640   7.642  13.645  0.2092  0.0051 -0.0097
 3133DPPC   GL259284  13.714   7.763  13.905 -0.0656  0.0610 -0.1423
 3133DPPC   C1A59285  13.787   7.321  13.784 -0.0797 -0.2680 -0.0375
 3133DPPC   C2A59286  14.042   7.083  14.073  0.0485  0.2119  0.2583
 3133DPPC   C3A59287  14.357   6.810  14.308  0.3469  0.0485  0.1512
 3133DPPC   C4A59288  14.410   6.656  14.685 -0.2763  0.0668 -0.0727
 3133DPPC   C1B59289  13.927   8.005  14.175 -0.0612 -0.2339 -0.2741
 3133DPPC   C2B59290  13.949   7.876  14.635  0.1444  0.2661  0.3212
 3133DPPC   C3B59291  13.618   7.784  14.970  0.2129  0.1350 -0.0463
 3133DPPC   C4B59292  13.707   7.570  15.404 -0.0803  0.1044  0.3213
 3134DPPC   NC359293  21.302  -0.669  14.049  0.1992 -0.2156  0.4257
 3134DPPC   PO459294  21.659  -0.608  14.065 -0.0278 -0.0570 -0.0180
 3134DPPC   GL159295  21.868  -0.592  13.667  0.2215 -0.1110  0.2309
 3134DPPC   GL259296  22.176  -0.637  13.761 -0.0745 -0.3842 -0.0491
 3134DPPC   C1A59297  21.885  -0.771  13.319 -0.0511 -0.1077  0.0414
 3134DPPC   C2A59298  21.970  -0.910  12.987 -0.1258  0.1676 -0.0890
 3134DPPC   C3A59299  22.214  -0.878  12.552 -0.0365 -0.0415  0.0271
 3134DPPC   C4A59300  22.439  -0.852  12.201  0.0357 -0.2640 -0.2583
 3134DPPC   C1B59301  22.387  -0.688  13.390 -0.3257 -0.2136 -0.0276
 3134DPPC   C2B59302  22.552  -0.804  12.948 -0.3122 -0.0130  0.2020
 3134DPPC   C3B59303  22.734  -0.583  12.512 -0.3311 -0.3399  0.0046
 3134DPPC   C4B59304  22.854  -0.168  12.395 -0.1871 -0.1551 -0.1589
 3135DPPC   NC359305  12.559  -7.438  19.118 -0.1408  0.3322  0.0636
 3135DPPC   PO459306  12.274  -7.487  19.383  0.0631  0.1311  0.1367
 3135DPPC   GL159307  12.446  -7.174  19.644 -0.1311 -0.0701  0.0532
 3135DPPC   GL259308  12.785  -7.204  19.528  0.1655  0.2552  0.0852
 3135DPPC   C1A59309  12.249  -6.807  19.861  0.1019 -0.1244 -0.1148
 3135DPPC   C2A59310  12.127  -6.487  20.036  0.2316 -0.0771 -0.1570
 3135DPPC   C3A59311  12.077  -6.065  20.055 -0.3570  0.0206  0.3546
 3135DPPC   C4A59312  12.176  -5.749  20.205 -0.0973  0.1127 -0.1114
 3135DPPC   C1B59313  13.035  -6.903  19.682  0.0287  0.0387 -0.0642
 3135DPPC   C2B59314  13.377  -6.839  19.872  0.0172  0.2587 -0.1669
 3135DPPC   C3B59315  13.686  -6.506  19.850 -0.2191 -0.2421 -0.1499
 3135DPPC   C4B59316  13.839  -6.043  20.048  0.0957 -0.0887 -0.0281
 3136DPPC   NC359317  23.116  -1.879  17.877  0.0688  0.3034 -0.2085
 3136DPPC   PO459318  22.744  -1.685  17.760  0.4015 -0.1371  0.0604
 3136DPPC   GL159319  22.555  -1.291  17.943 -0.1102  0.0107  0.0502
 3136DPPC   GL259320  22.417  -1.083  17.801  0.3778 -0.0947  0.0158
 3136DPPC   C1A59321  22.493  -1.251  18.429  0.0135  0.1659  0.0958
 3136DPPC   C2A59322  22.557  -1.180  18.806  0.2954 -0.0910  0.0550
 3136DPPC   C3A59323  22.841  -1.143  19.194 -0.1092  0.0828 -0.0038
 3136DPPC   C4A59324  23.257  -0.880  19.145  0.0796  0.0259  0.4460
 3136DPPC   C1B59325  22.441  -0.739  18.169  0.2619  0.0710  0.0162
 3136DPPC   C2B59326  22.810  -0.830  18.571  0.0530  0.0524 -0.1920
 3136DPPC   C3B59327  23.024  -1.143  18.718  0.3010 -0.2684 -0.0752
 3136DPPC   C4B59328  23.239  -1.401  18.982 -0.0564  0.1758  0.0111
 3137DPPC   NC359329  19.773  -2.039  36.110 -0.2125  0.1272 -0.0234
 3137DPPC   PO459330  19.534  -1.832  35.653  0.1208  0.0427  0.3597
 3137DPPC   GL159331  19.609  -1.432  35.383 -0.1890  0.1278  0.1718
 3137DPPC   GL259332  19.383  -1.233  35.536  0.0972  0.0063  0.2871
 3137DPPC   C1A59333  19.884  -1.070  35.412  0.0664  0.1578  0.0257
 3137DPPC   C2A59334  19.868  -0.691  35.226 -0.2466 -0.3243 -0.2711
 3137DPPC   C3A59335  19.904  -0.451  35.019  0.2927  0.0740  0.3907
 3137DPPC   C4A59336  19.818  -0.394  34.624  0.0704 -0.1265 -0.0565
 3137DPPC   C1B59337  19.397  -1.029  35.103  0.3069 -0.1489  0.1135
 3137DPPC   C2B59338  19.285  -0.649  34.816 -0.1447 -0.3632 -0.1959
 3137DPPC   C3B59339  19.027  -0.694  34.501  0.0058 -0.1625 -0.0018
 3137DPPC   C4B59340  19.026  -0.958  34.234  0.0791  0.4035  0.1883
 3138DPPC   NC359341  22.687  14.391  25.845 -0.0572  0.3241 -0.4571
 3138DPPC   PO459342  22.555  14.434  26.317  0.1244 -0.0124  0.0833
 3138DPPC   GL159343  22.475  14.055  26.313  0.1737  0.1917 -0.2068
 3138DPPC   GL259344  22.259  14.037  26.642 -0.0634 -0.0949  0.4911
 3138DPPC   C1A59345  22.283  13.527  26.156 -0.0357  0.0885 -0.1682
 3138DPPC   C2A59346  22.206  13.084  26.248 -0.0765 -0.1513 -0.3592
 3138DPPC   C3A59347  22.460  12.763  26.417 -0.1682 -0.0567  0.1901
 3138DPPC   C4A59348  22.409  12.382  26.582 -0.0324  0.0557  0.2843
 3138DPPC   C1B59349  22.445  13.684  26.707 -0.4179  0.0633  0.2405
 3138DPPC   C2B59350  22.502  13.241  26.728 -0.2998  0.0351  0.2341
 3138DPPC   C3B59351  22.316  12.892  26.893  0.2640 -0.0734 -0.0981
 3138DPPC   C4B59352  22.284  12.493  27.087 -0.0056  0.2081 -0.1774
 3139DPPC   NC359353  20.644   1.290  15.429  0.1155  0.1428 -0.2489
 3139DPPC   PO459354  20.273   1.211  15.544 -0.1336 -0.1722  0.2517
 3139DPPC   GL159355  20.134   1.638  15.509 -0.1040  0.0365 -0.0632
 3139DPPC   GL259356  20.360   1.670  15.632  0.1291 -0.3817  0.5549
 3139DPPC   C1A59357  19.998   2.013  15.428 -0.2870  0.2302  0.3508
 3139DPPC   C2A59358  20.068   2.418  15.356 -0.1490 -0.3495 -0.2153
 3139DPPC   C3A59359  20.198   2.762  15.461 -0.2250 -0.1568 -0.1281
 3139DPPC   C4A59360  20.381   3.166  15.595  0.0140 -0.1142 -0.0474
 3139DPPC   C1B59361  20.146   1.896  15.952 -0.2796  0.0796 -0.3760
 3139DPPC   C2B59362  19.683   2.037  15.845  0.1345  0.3514 -0.0979
 3139DPPC   C3B59363  19.516   1.970  15.321 -0.1792 -0.1963  0.1169
 3139DPPC   C4B59364  19.318   2.038  14.889 -0.2017  0.1668 -0.1192
 3140DPPC   NC359365   5.261  -4.119  22.175 -0.0661 -0.1162  0.2000
 3140DPPC   PO459366   5.571  -3.925  22.381 -0.0487  0.1196 -0.3787
 3140DPPC   GL159367   5.709  -3.603  22.554  0.0947  0.0392 -0.0334
 3140DPPC   GL259368   6.023  -3.407  22.369  0.4592  0.2482 -0.0237
 3140DPPC   C1A59369   6.057  -3.472  22.860  0.1856  0.1031 -0.0351
 3140DPPC   C2A59370   6.393  -3.303  23.078 -0.1670 -0.1058 -0.2712
 3140DPPC   C3A59371   6.530  -2.907  23.126 -0.1062  0.2928 -0.1143
 3140DPPC   C4A59372   6.816  -2.549  23.058 -0.1129  0.0173 -0.1407
 3140DPPC   C1B59373   6.260  -3.109  22.163 -0.1283  0.4474 -0.0539
 3140DPPC   C2B59374   6.340  -2.669  22.205 -0.0393  0.3490 -0.1016
 3140DPPC   C3B59375   6.107  -2.353  22.328 -0.0558 -0.0319  0.0595
 3140DPPC   C4B59376   6.278  -2.031  22.501 -0.4374 -0.0645  0.0090
 3141DPPC   NC359377  22.812  -3.195  15.893  0.2955 -0.0187  0.1505
 3141DPPC   PO459378  22.966  -3.152  15.430 -0.3394  0.1490  0.1615
 3141DPPC   GL159379  23.217  -3.230  15.090  0.1281  0.0219 -0.1789
 3141DPPC   GL259380  22.904  -3.470  14.919 -0.1166 -0.1456  0.0860
 3141DPPC   C1A59381  23.644  -3.256  14.872 -0.3736  0.2063 -0.1880
 3141DPPC   C2A59382  23.934  -3.262  14.511  0.1096 -0.0039  0.0896
 3141DPPC   C3A59383  24.355  -3.278  14.176 -0.2504  0.1102  0.0618
 3141DPPC   C4A59384  24.523  -3.691  14.215 -0.0567  0.3111  0.0178
 3141DPPC   C1B59385  23.356  -3.680  14.834 -0.2710  0.1915  0.1027
 3141DPPC   C2B59386  23.798  -3.738  14.712 -0.2512 -0.1628  0.2032
 3141DPPC   C3B59387  24.184  -3.832  14.665  0.0148  0.2715  0.0486
 3141DPPC   C4B59388  24.369  -4.196  14.425 -0.0032 -0.2702 -0.1638
 3142DPPC   NC359389  14.664  -4.145  26.197 -0.1458 -0.2441  0.1033
 3142DPPC   PO459390  15.038  -4.253  25.900 -0.1568 -0.1914  0.1977
 3142DPPC   GL159391  14.854  -4.595  25.941  0.0761  0.0754  0.1413
 3142DPPC   GL259392  14.907  -4.696  26.286  0.0753 -0.0254 -0.2262
 3142DPPC   C1A59393  14.522  -4.954  26.059 -0.1517  0.2896 -0.0498
 3142DPPC   C2A59394  14.335  -5.284  26.061 -0.1007  0.0598 -0.1677
 3142DPPC   C3A59395  14.449  -5.719  26.005 -0.1086 -0.1188  0.3089
 3142DPPC   C4A59396  14.551  -6.004  25.699 -0.1913 -0.1822 -0.0950
 3142DPPC   C1B59397  14.922  -5.008  26.468  0.2362 -0.1608 -0.1896
 3142DPPC   C2B59398  14.573  -5.343  26.439  0.3012  0.0596 -0.1655
 3142DPPC   C3B59399  14.545  -5.783  26.597 -0.0936  0.3527 -0.1947
 3142DPPC   C4B59400  14.409  -6.186  26.707  0.2496  0.0619  0.4211
 3143DPPC   NC359401  24.895   0.741  34.457 -0.2425  0.1135  0.0012
 3143DPPC   PO459402  24.850   0.779  33.922 -0.0400  0.0026  0.0985
 3143DPPC   GL159403  24.636   0.841  33.593 -0.1576 -0.0363  0.2004
 3143DPPC   GL259404  24.597   0.656  33.356 -0.0334  0.1398  0.0317
 3143DPPC   C1A59405  24.553   1.241  33.352  0.2511  0.2150 -0.0255
 3143DPPC   C2A59406  24.267   1.317  32.900 -0.2403 -0.0277 -0.3728
 3143DPPC   C3A59407  23.937   1.050  32.801  0.0035  0.3043 -0.1432
 3143DPPC   C4A59408  23.557   0.976  33.085 -0.3666  0.0761 -0.1628
 3143DPPC   C1B59409  24.464   0.824  33.053 -0.1290 -0.1923  0.1724
 3143DPPC   C2B59410  24.483   0.911  32.610 -0.1491  0.0782 -0.0574
 3143DPPC   C3B59411  24.198   1.049  32.284  0.4764 -0.0553  0.0867
 3143DPPC   C4B59412  24.007   1.086  31.872  0.0297 -0.0937 -0.1355
 3144DPPC   NC359413  16.146  -4.307  10.850 -0.0915 -0.0980 -0.0980
 3144DPPC   PO459414  16.003  -4.639  10.950  0.0719  0.2787 -0.0835
 3144DPPC   GL159415  16.271  -4.627  11.297  0.0550 -0.0732  0.1806
 3144DPPC   GL259416  16.674  -4.684  11.338  0.0759 -0.1840 -0.2866
 3144DPPC   C1A59417  16.417  -4.453  11.729 -0.2260 -0.1172 -0.1405
 3144DPPC   C2A59418  16.472  -4.114  12.136 -0.3030 -0.3435 -0.0986
 3144DPPC   C3A59419  16.914  -4.083  12.453 -0.1312 -0.0954  0.3204
 3144DPPC   C4A59420  17.239  -4.110  12.649  0.1751  0.1317 -0.0589
 3144DPPC   C1B59421  16.992  -4.630  11.679 -0.1182 -0.0844  0.4248
 3144DPPC   C2B59422  17.090  -4.896  12.058  0.2585 -0.1253 -0.1725
 3144DPPC   C3B59423  16.858  -5.176  12.251  0.2106 -0.0898 -0.2192
 3144DPPC   C4B59424  16.351  -5.113  12.282  0.3381 -0.2134 -0.1532
 3145DPPC   NC359425  23.461  -0.262  34.730 -0.0589 -0.0245 -0.1999
 3145DPPC   PO459426  23.259   0.004  34.492 -0.0007 -0.1849  0.3078
 3145DPPC   GL159427  22.916   0.034  34.362  0.1187 -0.6534  0.0542
 3145DPPC   GL259428  23.023   0.017  34.016  0.2025 -0.1388 -0.4128
 3145DPPC   C1A59429  22.486  -0.055  34.086  0.1082 -0.2373  0.0795
 3145DPPC   C2A59430  22.153   0.146  33.860  0.4252 -0.0879  0.0609
 3145DPPC   C3A59431  22.024   0.479  33.689  0.0519  0.2777  0.1343
 3145DPPC   C4A59432  21.822   0.805  33.876  0.3716 -0.0542 -0.3384
 3145DPPC   C1B59433  23.118   0.095  33.622 -0.2233 -0.2479 -0.1451
 3145DPPC   C2B59434  22.969   0.291  33.433  0.2874  0.0827  0.1420
 3145DPPC   C3B59435  22.662   0.607  33.253  0.0421 -0.1571 -0.0902
 3145DPPC   C4B59436  22.331   0.569  33.016  0.1648 -0.3297  0.0726
 3146DPPC   NC359437  22.894  -2.085  17.487  0.1323 -0.0979 -0.2219
 3146DPPC   PO459438  22.588  -2.169  17.741  0.3355  0.2010  0.1955
 3146DPPC   GL159439  22.662  -1.909  18.173 -0.1040  0.3804  0.0447
 3146DPPC   GL259440  22.649  -2.175  18.488  0.1018 -0.2720 -0.0076
 3146DPPC   C1A59441  22.683  -1.639  18.590  0.2504  0.2405  0.5304
 3146DPPC   C2A59442  22.687  -1.743  19.032  0.0796  0.3006  0.1502
 3146DPPC   C3A59443  22.866  -1.720  19.541  0.2263 -0.1556 -0.4715
 3146DPPC   C4A59444  23.332  -1.708  19.623  0.2842  0.3793 -0.0956
 3146DPPC   C1B59445  22.748  -2.179  18.826 -0.1734 -0.0924 -0.2434
 3146DPPC   C2B59446  23.107  -2.040  19.041  0.3010  0.0437 -0.1076
 3146DPPC   C3B59447  23.481  -1.851  18.894  0.3611  0.1035 -0.1107
 3146DPPC   C4B59448  23.902  -1.811  18.842 -0.1408  0.1444  0.2449
 3147DPPC   NC359449  22.063  -1.013  14.059 -0.1754  0.0304  0.2546
 3147DPPC   PO459450  21.745  -1.032  13.828  0.0119 -0.3852  0.1255
 3147DPPC   GL159451  21.935  -1.216  13.469  0.4553 -0.1256 -0.2987
 3147DPPC   GL259452  22.101  -1.504  13.644 -0.0635  0.1219 -0.0697
 3147DPPC   C1A59453  22.206  -1.479  13.153 -0.0524 -0.1676 -0.1847
 3147DPPC   C2A59454  22.613  -1.453  12.880 -0.1456 -0.3275 -0.1679
 3147DPPC   C3A59455  22.658  -1.159  12.528  0.1115  0.1214  0.1108
 3147DPPC   C4A59456  22.962  -1.102  12.180 -0.3492  0.1730 -0.1273
 3147DPPC   C1B59457  22.542  -1.290  13.560  0.2574 -0.0173  0.1265
 3147DPPC   C2B59458  22.913  -1.140  13.210  0.0525  0.1479  0.3580
 3147DPPC   C3B59459  23.184  -1.448  13.135 -0.3243 -0.1469 -0.0755
 3147DPPC   C4B59460  23.337  -1.803  13.296 -0.1787 -0.1708  0.1086
 3148DPPC   NC359461  15.223  13.983  18.405 -0.2351  0.2539 -0.1335
 3148DPPC   PO459462  15.667  14.021  18.540 -0.2839 -0.0996  0.1728
 3148DPPC   GL159463  15.516  13.613  18.534 -0.0335  0.2823 -0.0327
 3148DPPC   GL259464  15.199  13.528  18.454  0.0706 -0.3404 -0.1800
 3148DPPC   C1A59465  15.446  13.342  18.860 -0.4759  0.0293 -0.0342
 3148DPPC   C2A59466  15.510  13.164  19.264  0.0316  0.2232  0.0557
 3148DPPC   C3A59467  15.676  13.006  19.695 -0.3524  0.3539  0.2142
 3148DPPC   C4A59468  15.838  12.623  19.865 -0.0846 -0.2911  0.0345
 3148DPPC   C1B59469  15.395  13.002  18.391 -0.3780  0.0779 -0.2634
 3148DPPC   C2B59470  15.454  12.666  18.280  0.0574 -0.0927  0.2324
 3148DPPC   C3B59471  15.632  12.239  18.295 -0.0622  0.2111  0.0143
 3148DPPC   C4B59472  15.926  12.032  18.502  0.1544  0.1859 -0.0828
 3149DPPC   NC359473  21.005  -2.794  17.120  0.0189  0.3849  0.1351
 3149DPPC   PO459474  21.280  -2.630  17.394 -0.2785  0.3914  0.0983
 3149DPPC   GL159475  20.927  -2.458  17.567  0.1956  0.3596 -0.1284
 3149DPPC   GL259476  21.109  -2.202  17.822  0.2702  0.1355  0.0980
 3149DPPC   C1A59477  20.613  -2.065  17.707  0.1045 -0.1612 -0.1560
 3149DPPC   C2A59478  20.691  -1.674  17.924 -0.1523  0.0648 -0.2154
 3149DPPC   C3A59479  20.531  -1.483  18.306 -0.0620 -0.0290  0.1691
 3149DPPC   C4A59480  20.311  -1.305  18.630 -0.2794 -0.3628  0.3403
 3149DPPC   C1B59481  20.823  -2.136  18.190 -0.0657 -0.0879  0.0825
 3149DPPC   C2B59482  20.648  -2.086  18.498  0.0059 -0.1009  0.1230
 3149DPPC   C3B59483  20.774  -1.742  18.689  0.0229 -0.1539 -0.3421
 3149DPPC   C4B59484  20.585  -1.503  18.997  0.2093  0.1376 -0.0551
 3150DPPC   NC359485  19.499  -0.823  15.882  0.1454  0.0885 -0.1000
 3150DPPC   PO459486  19.724  -1.047  16.180 -0.2346 -0.2168  0.1255
 3150DPPC   GL159487  19.570  -0.631  16.407 -0.0491 -0.1020 -0.1040
 3150DPPC   GL259488  19.580  -0.827  16.675  0.0865 -0.1138 -0.2053
 3150DPPC   C1A59489  19.429  -0.357  16.796 -0.2170  0.0981  0.0013
 3150DPPC   C2A59490  19.261  -0.155  17.135  0.1372  0.0135 -0.0341
 3150DPPC   C3A59491  19.239   0.146  17.276  0.2099 -0.2214 -0.0214
 3150DPPC   C4A59492  19.220   0.581  17.331  0.0580 -0.2226  0.1584
 3150DPPC   C1B59493  19.309  -0.667  17.116 -0.2826  0.0919  0.3150
 3150DPPC   C2B59494  19.427  -0.636  17.561 -0.2918 -0.1310  0.0554
 3150DPPC   C3B59495  19.158  -0.823  17.952 -0.0755  0.0322 -0.1176
 3150DPPC   C4B59496  18.807  -0.865  18.392 -0.0359  0.0840 -0.2963
 3151DPPC   NC359497   9.903  -0.165  14.197  0.1598  0.1497  0.0972
 3151DPPC   PO459498   9.714   0.232  14.115 -0.0927  0.0012 -0.0548
 3151DPPC   GL159499   9.978   0.196  14.507 -0.2957  0.0032 -0.0848
 3151DPPC   GL259500  10.022  -0.111  14.670  0.0632 -0.2633 -0.4482
 3151DPPC   C1A59501   9.986   0.427  14.867 -0.0227 -0.1585 -0.1710
 3151DPPC   C2A59502  10.100   0.713  15.114  0.1698 -0.0855  0.2340
 3151DPPC   C3A59503  10.591   0.721  15.160 -0.1138 -0.1182  0.0869
 3151DPPC   C4A59504  10.897   0.768  14.883  0.2560 -0.1317 -0.0331
 3151DPPC   C1B59505  10.373   0.136  14.966 -0.2281 -0.1420  0.0877
 3151DPPC   C2B59506  10.340   0.301  15.290 -0.1397  0.2041 -0.3134
 3151DPPC   C3B59507  10.576   0.478  15.663 -0.0815 -0.1707  0.1002
 3151DPPC   C4B59508  10.390   0.920  15.655 -0.2205 -0.0417 -0.2428
 3152DPPC   NC359509  20.321  -1.027  15.521  0.0138  0.1919  0.0511
 3152DPPC   PO459510  20.219  -1.004  15.916 -0.0757 -0.0358 -0.2721
 3152DPPC   GL159511  20.149  -0.795  16.308 -0.0439  0.3767  0.1092
 3152DPPC   GL259512  20.222  -0.767  16.669  0.0342 -0.0153 -0.1210
 3152DPPC   C1A59513  19.953  -0.414  16.505  0.1217  0.2211 -0.1692
 3152DPPC   C2A59514  19.943  -0.042  16.819  0.2054  0.3460 -0.0260
 3152DPPC   C3A59515  19.851   0.174  17.241 -0.0828 -0.2350  0.0674
 3152DPPC   C4A59516  19.611   0.451  17.553  0.0874  0.1170 -0.0041
 3152DPPC   C1B59517  19.886  -0.559  16.962 -0.0448  0.4958 -0.5253
 3152DPPC   C2B59518  19.756  -0.377  17.289  0.2703  0.1532 -0.0359
 3152DPPC   C3B59519  19.549  -0.141  17.632 -0.0432 -0.0931  0.0999
 3152DPPC   C4B59520  19.446  -0.229  18.020  0.0130 -0.2357 -0.2026
 3153DPPC   NC359521  21.477  -2.806  13.840 -0.3649  0.1872  0.0446
 3153DPPC   PO459522  21.750  -2.537  14.120  0.2260  0.0684  0.1380
 3153DPPC   GL159523  21.964  -2.742  13.766  0.1215  0.1626  0.3011
 3153DPPC   GL259524  21.840  -2.879  13.488 -0.0229  0.1913  0.2708
 3153DPPC   C1A59525  22.329  -2.990  13.685  0.1749  0.1593 -0.1873
 3153DPPC   C2A59526  22.359  -2.992  13.274  0.0114  0.0327 -0.0417
 3153DPPC   C3A59527  22.305  -3.462  13.298  0.1462 -0.1601 -0.0720
 3153DPPC   C4A59528  22.467  -3.728  13.709 -0.3018 -0.0742 -0.1110
 3153DPPC   C1B59529  21.951  -2.761  12.996 -0.3230 -0.0835 -0.2230
 3153DPPC   C2B59530  22.384  -2.736  12.739 -0.1003 -0.2229 -0.0072
 3153DPPC   C3B59531  22.698  -2.525  12.565  0.0626 -0.2659 -0.0390
 3153DPPC   C4B59532  22.820  -2.153  12.499  0.1046  0.1759 -0.3975
 3154DPPC   NC359533   4.867  -1.713  18.614 -0.0415  0.1457  0.1817
 3154DPPC   PO459534   5.306  -1.562  18.837 -0.0271 -0.0775  0.0938
 3154DPPC   GL159535   5.649  -1.355  19.159  0.1910 -0.2329 -0.1184
 3154DPPC   GL259536   5.799  -1.171  19.489  0.3618 -0.3109  0.1249
 3154DPPC   C1A59537   6.043  -1.397  18.943 -0.2545 -0.0439  0.2748
 3154DPPC   C2A59538   6.384  -1.448  18.771 -0.2923  0.1927  0.1935
 3154DPPC   C3A59539   6.784  -1.598  18.558 -0.1455 -0.0566  0.1836
 3154DPPC   C4A59540   6.892  -1.955  18.451 -0.0583 -0.0669  0.4272
 3154DPPC   C1B59541   6.058  -1.211  19.821  0.1900  0.2478  0.0299
 3154DPPC   C2B59542   6.272  -0.835  20.095 -0.1555  0.1089 -0.0412
 3154DPPC   C3B59543   6.268  -0.394  20.294  0.2002 -0.1139  0.3113
 3154DPPC   C4B59544   6.571  -0.098  20.360  0.0484 -0.3500  0.1369
 3155DPPC   NC359545  20.192  -3.030  17.542  0.2057  0.1458  0.0850
 3155DPPC   PO459546  20.593  -2.792  17.389 -0.0205  0.1747 -0.0448
 3155DPPC   GL159547  20.357  -2.498  17.520  0.2302 -0.0350 -0.0213
 3155DPPC   GL259548  20.359  -2.466  17.805  0.1444 -0.0077 -0.1309
 3155DPPC   C1A59549  20.133  -2.032  17.606  0.0986 -0.3232  0.4955
 3155DPPC   C2A59550  19.641  -1.705  17.719 -0.2590 -0.2021 -0.0071
 3155DPPC   C3A59551  19.174  -1.768  17.655 -0.1544  0.2493  0.1487
 3155DPPC   C4A59552  18.846  -1.468  17.513 -0.0694  0.4190 -0.2704
 3155DPPC   C1B59553  20.253  -2.024  18.109  0.1649  0.1846 -0.0681
 3155DPPC   C2B59554  20.134  -1.796  18.512  0.0974 -0.2172 -0.2607
 3155DPPC   C3B59555  19.920  -1.550  18.809 -0.1257 -0.1807  0.1445
 3155DPPC   C4B59556  19.671  -1.154  18.818  0.1204  0.3488 -0.1563
 3156DPPC   NC359557  17.853  -1.913  15.484  0.1551  0.0206 -0.0731
 3156DPPC   PO459558  17.589  -2.084  15.819 -0.1525  0.0380 -0.1982
 3156DPPC   GL159559  17.371  -1.706  15.969 -0.1640 -0.3606  0.2140
 3156DPPC   GL259560  17.379  -1.625  15.668  0.3183 -0.0944 -0.0883
 3156DPPC   C1A59561  16.952  -1.475  15.946 -0.3985 -0.1358  0.1876
 3156DPPC   C2A59562  16.603  -1.266  16.162  0.1923  0.4702 -0.0109
 3156DPPC   C3A59563  16.178  -1.027  16.237 -0.2299 -0.0761  0.0583
 3156DPPC   C4A59564  15.789  -0.945  16.365  0.1465  0.5100 -0.1138
 3156DPPC   C1B59565  17.313  -1.135  15.828 -0.2006  0.0419  0.2337
 3156DPPC   C2B59566  17.261  -0.734  15.896 -0.0065  0.0757  0.3300
 3156DPPC   C3B59567  17.182  -0.342  15.721 -0.2804 -0.2992  0.0387
 3156DPPC   C4B59568  17.021  -0.125  15.316  0.0150 -0.0294  0.2868
 3157DPPC   NC359569  19.083   0.419  13.953  0.1155 -0.0128  0.2188
 3157DPPC   PO459570  18.941   0.209  13.725  0.1363 -0.0019 -0.0519
 3157DPPC   GL159571  18.868   0.692  13.577  0.2565  0.0248  0.0497
 3157DPPC   GL259572  18.482   0.759  13.532  0.1743 -0.3852  0.0212
 3157DPPC   C1A59573  18.855   1.044  13.253  0.2962 -0.0940 -0.0197
 3157DPPC   C2A59574  18.823   1.414  13.159 -0.2513 -0.5681 -0.3174
 3157DPPC   C3A59575  19.071   1.709  12.939 -0.1169  0.1338  0.0944
 3157DPPC   C4A59576  19.220   1.886  12.617 -0.4473 -0.3267  0.2216
 3157DPPC   C1B59577  18.113   0.762  13.293  0.2253  0.2165 -0.0319
 3157DPPC   C2B59578  17.709   0.874  13.312  0.0257 -0.2084 -0.0338
 3157DPPC   C3B59579  17.551   1.201  13.003 -0.1806  0.0458 -0.0673
 3157DPPC   C4B59580  17.682   1.589  12.941 -0.2471 -0.0226 -0.2391
 3158DPPC   NC359581  18.756  -2.583  13.514 -0.2479  0.0139  0.0072
 3158DPPC   PO459582  18.465  -3.022  13.475 -0.2014 -0.1013 -0.1354
 3158DPPC   GL159583  17.999  -3.056  13.200 -0.2134  0.2481 -0.1575
 3158DPPC   GL259584  17.964  -2.767  13.267  0.4997  0.2236 -0.1825
 3158DPPC   C1A59585  17.971  -2.904  12.755  0.0971  0.1210 -0.2625
 3158DPPC   C2A59586  17.676  -2.885  12.385 -0.0202 -0.1300 -0.2624
 3158DPPC   C3A59587  17.660  -2.617  12.068  0.0435 -0.1906 -0.2933
 3158DPPC   C4A59588  17.679  -2.745  11.641 -0.0610 -0.0211 -0.0531
 3158DPPC   C1B59589  17.544  -2.977  13.051 -0.2634 -0.1207  0.1709
 3158DPPC   C2B59590  17.374  -3.197  12.698  0.0917  0.2763 -0.0406
 3158DPPC   C3B59591  17.457  -3.345  12.315 -0.1714 -0.2241  0.2235
 3158DPPC   C4B59592  17.353  -3.549  11.825  0.0800 -0.3844  0.0670
 3159DPPC   NC359593  26.787  -3.382  24.243 -0.0925  0.1302  0.2926
 3159DPPC   PO459594  26.397  -3.561  24.224  0.0171 -0.0495  0.1295
 3159DPPC   GL159595  26.078  -3.464  24.311 -0.2147  0.0437 -0.2452
 3159DPPC   GL259596  25.752  -3.699  24.318  0.0643  0.1077  0.3255
 3159DPPC   C1A59597  25.830  -3.214  24.427 -0.1553 -0.0448 -0.0173
 3159DPPC   C2A59598  25.500  -2.961  24.434 -0.0523 -0.0009 -0.0200
 3159DPPC   C3A59599  25.181  -2.639  24.335 -0.0381 -0.0378  0.1030
 3159DPPC   C4A59600  25.021  -2.326  24.558  0.0635  0.0239 -0.0820
 3159DPPC   C1B59601  25.395  -3.408  24.241  0.0156 -0.0431 -0.0803
 3159DPPC   C2B59602  25.067  -3.213  24.184 -0.1000  0.1282 -0.0226
 3159DPPC   C3B59603  24.732  -3.021  24.316  0.3093 -0.3817 -0.0962
 3159DPPC   C4B59604  24.417  -3.216  24.520 -0.2225 -0.1613 -0.0491
 3160DPPC   NC359605  10.232   2.928  13.380  0.0885  0.0166 -0.0877
 3160DPPC   PO459606  10.128   2.539  13.676 -0.0541 -0.0608  0.1544
 3160DPPC   GL159607  10.271   2.405  14.048 -0.1455  0.0696 -0.2477
 3160DPPC   GL259608  10.586   2.430  14.075  0.0392  0.2847 -0.0511
 3160DPPC   C1A59609  10.136   2.409  14.406  0.0512 -0.2177  0.1408
 3160DPPC   C2A59610  10.269   2.541  14.744 -0.3106  0.1293  0.1872
 3160DPPC   C3A59611  10.220   2.899  14.813  0.1461  0.2307 -0.0994
 3160DPPC   C4A59612  10.291   3.057  15.249 -0.1852  0.1084 -0.0128
 3160DPPC   C1B59613  10.536   2.012  14.371  0.2127 -0.1323 -0.1654
 3160DPPC   C2B59614  10.515   1.714  14.608  0.1553  0.1121 -0.1415
 3160DPPC   C3B59615  10.563   1.699  15.035  0.1551 -0.0961 -0.0361
 3160DPPC   C4B59616  10.688   1.552  15.376 -0.0680  0.0835 -0.0426
 3161DPPC   NC359617  20.313  -9.389  14.909  0.1022  0.0669 -0.2116
 3161DPPC   PO459618  19.891  -9.328  14.876 -0.3656 -0.0813 -0.0573
 3161DPPC   GL159619  20.040  -8.952  15.048  0.0564  0.0839  0.0646
 3161DPPC   GL259620  20.329  -8.799  14.981  0.0358  0.0978 -0.0707
 3161DPPC   C1A59621  19.919  -8.603  15.233 -0.1165 -0.1402 -0.3356
 3161DPPC   C2A59622  19.661  -8.274  15.310 -0.0288  0.0351  0.1481
 3161DPPC   C3A59623  19.530  -7.907  15.623  0.0115 -0.4621 -0.1279
 3161DPPC   C4A59624  19.552  -7.414  15.786  0.2748  0.0212  0.0306
 3161DPPC   C1B59625  20.351  -8.395  14.849 -0.0534  0.4208 -0.1960
 3161DPPC   C2B59626  20.220  -7.901  14.976  0.0222  0.0510  0.0529
 3161DPPC   C3B59627  20.184  -7.432  15.098 -0.1276 -0.4811 -0.1778
 3161DPPC   C4B59628  20.115  -7.034  15.236 -0.1436  0.1546  0.0005
 3162DPPC   NC359629   2.882   1.455  22.473  0.0076  0.1895  0.0266
 3162DPPC   PO459630   3.406   1.344  22.456 -0.1552  0.0501 -0.0081
 3162DPPC   GL159631   3.888   1.263  22.523 -0.0614  0.1275  0.2023
 3162DPPC   GL259632   3.996   1.419  22.837 -0.1875 -0.4361  0.1639
 3162DPPC   C1A59633   4.498   1.353  22.421  0.0992  0.0301 -0.2921
 3162DPPC   C2A59634   4.848   1.579  22.498 -0.1778 -0.1254 -0.1181
 3162DPPC   C3A59635   5.056   1.762  22.918 -0.0813 -0.1525 -0.2375
 3162DPPC   C4A59636   5.339   1.669  23.244  0.0774 -0.1556  0.2367
 3162DPPC   C1B59637   4.371   1.251  22.964  0.0814 -0.0431  0.0664
 3162DPPC   C2B59638   4.827   1.227  22.962 -0.2319  0.0748  0.1056
 3162DPPC   C3B59639   5.157   1.292  22.834 -0.4235  0.2305  0.5755
 3162DPPC   C4B59640   5.524   1.089  22.783  0.1018  0.0567  0.3048
 3163DPPC   NC359641   3.473   6.561  22.178 -0.2736  0.3335  0.1412
 3163DPPC   PO459642   3.754   6.830  22.395  0.0025  0.0738 -0.1230
 3163DPPC   GL159643   4.242   6.679  22.261  0.4201  0.2351  0.2125
 3163DPPC   GL259644   4.460   6.426  22.437 -0.2509  0.0519 -0.3781
 3163DPPC   C1A59645   4.579   6.749  22.081  0.3053 -0.0830  0.1271
 3163DPPC   C2A59646   5.048   6.778  22.191  0.0490 -0.3488 -0.0827
 3163DPPC   C3A59647   5.364   6.760  22.157 -0.4607  0.0349 -0.1386
 3163DPPC   C4A59648   5.688   6.848  22.292 -0.0136 -0.2586 -0.1515
 3163DPPC   C1B59649   4.774   6.516  22.765 -0.1145  0.5178  0.0539
 3163DPPC   C2B59650   5.076   6.384  23.064 -0.0193 -0.0661 -0.1952
 3163DPPC   C3B59651   5.415   6.039  22.944 -0.0844  0.1426 -0.1473
 3163DPPC   C4B59652   5.340   5.515  22.922  0.1096  0.1607 -0.0123
 3164DPPC   NC359653   8.833   3.700  14.601  0.0763  0.0761  0.0386
 3164DPPC   PO459654   8.489   3.422  14.729  0.2340 -0.0071  0.2925
 3164DPPC   GL159655   8.742   3.242  14.859 -0.3935  0.1437 -0.0116
 3164DPPC   GL259656   8.822   2.930  14.758 -0.0573 -0.0815 -0.1082
 3164DPPC   C1A59657   9.090   3.260  15.015  0.1632  0.0436 -0.0180
 3164DPPC   C2A59658   9.356   2.986  15.203  0.2394 -0.1766 -0.1310
 3164DPPC   C3A59659   9.584   2.962  15.645  0.4088  0.0274  0.3245
 3164DPPC   C4A59660   9.804   2.872  15.982 -0.2819  0.0663  0.1841
 3164DPPC   C1B59661   8.910   2.771  15.045 -0.2479 -0.4271  0.0148
 3164DPPC   C2B59662   8.835   2.345  15.076  0.2278  0.0021 -0.0570
 3164DPPC   C3B59663   8.650   1.967  15.276  0.3015 -0.2871  0.2770
 3164DPPC   C4B59664   8.387   1.714  15.431  0.1495 -0.1727 -0.2283
 3165DPPC   NC359665  25.979  -5.294  18.282  0.3827  0.0190  0.1544
 3165DPPC   PO459666  25.783  -5.632  18.070  0.1369  0.0514 -0.3554
 3165DPPC   GL159667  25.403  -5.475  18.027 -0.0132  0.0329  0.4971
 3165DPPC   GL259668  25.533  -5.172  17.989  0.1547  0.2499 -0.0296
 3165DPPC   C1A59669  25.025  -5.639  17.977  0.1796 -0.0435 -0.0979
 3165DPPC   C2A59670  24.622  -5.643  17.694  0.4163 -0.0900  0.1786
 3165DPPC   C3A59671  24.271  -5.454  17.478 -0.1627 -0.0308 -0.1095
 3165DPPC   C4A59672  23.983  -5.150  17.551  0.0644 -0.1069  0.0610
 3165DPPC   C1B59673  25.334  -4.758  18.127 -0.1814 -0.1514 -0.3206
 3165DPPC   C2B59674  25.035  -4.425  18.229 -0.0531 -0.1359  0.0017
 3165DPPC   C3B59675  24.710  -4.223  18.101  0.1922  0.1143 -0.2067
 3165DPPC   C4B59676  24.515  -4.257  17.760 -0.0529 -0.2521 -0.0082
 3166DPPC   NC359677  20.227  -2.946  17.034  0.2495 -0.0072  0.1425
 3166DPPC   PO459678  19.986  -2.641  17.196  0.2310  0.1796 -0.0085
 3166DPPC   GL159679  19.825  -2.552  17.571  0.1317 -0.0096 -0.2872
 3166DPPC   GL259680  19.912  -2.739  17.840 -0.0182 -0.0745  0.1548
 3166DPPC   C1A59681  19.552  -2.189  17.714  0.0613  0.2033  0.1402
 3166DPPC   C2A59682  19.413  -1.987  18.084 -0.2516 -0.0424 -0.2334
 3166DPPC   C3A59683  19.015  -1.942  18.285 -0.0732 -0.0521  0.0675
 3166DPPC   C4A59684  19.015  -1.803  18.726  0.0721  0.1008 -0.0896
 3166DPPC   C1B59685  19.879  -2.353  17.992 -0.1794  0.0803  0.2803
 3166DPPC   C2B59686  19.781  -2.148  18.404  0.1527 -0.0508  0.0358
 3166DPPC   C3B59687  19.799  -2.061  18.841 -0.1031 -0.0183 -0.2674
 3166DPPC   C4B59688  19.928  -1.827  19.275 -0.1495  0.0710  0.0916
 3167DPPC   NC359689   5.829  11.862  22.388 -0.0007 -0.1898 -0.0556
 3167DPPC   PO459690   6.109  12.013  22.016 -0.0496  0.0594  0.1591
 3167DPPC   GL159691   6.396  11.657  22.078 -0.2228 -0.1771 -0.3788
 3167DPPC   GL259692   6.393  11.655  22.312 -0.0925  0.0654  0.1156
 3167DPPC   C1A59693   6.804  11.469  21.973  0.3772  0.0354 -0.2584
 3167DPPC   C2A59694   7.100  11.316  21.540  0.1589  0.0393 -0.1112
 3167DPPC   C3A59695   7.238  10.996  21.559 -0.1609 -0.2842  0.0105
 3167DPPC   C4A59696   7.365  10.675  21.709  0.3538 -0.1718 -0.1899
 3167DPPC   C1B59697   6.361  11.193  22.342 -0.1399  0.2115  0.0857
 3167DPPC   C2B59698   6.661  10.906  22.473 -0.0597 -0.0373  0.0685
 3167DPPC   C3B59699   6.975  11.106  22.381 -0.1204 -0.3330  0.0390
 3167DPPC   C4B59700   7.330  11.123  22.079 -0.0564 -0.2792  0.0290
 3168DPPC   NC359701  20.836  -3.830  14.374  0.0591  0.0828  0.0326
 3168DPPC   PO459702  21.264  -3.983  14.559 -0.0154 -0.0318 -0.1977
 3168DPPC   GL159703  21.350  -4.302  14.121 -0.3855 -0.0385 -0.1181
 3168DPPC   GL259704  21.523  -4.587  14.058  0.3113 -0.1277 -0.2872
 3168DPPC   C1A59705  21.255  -4.400  13.630 -0.3279 -0.3490 -0.2973
 3168DPPC   C2A59706  21.190  -4.373  13.194  0.1560 -0.2745 -0.4009
 3168DPPC   C3A59707  21.515  -4.255  12.904 -0.3027 -0.3230 -0.2707
 3168DPPC   C4A59708  21.678  -3.929  12.603 -0.1776 -0.2262 -0.3002
 3168DPPC   C1B59709  21.802  -4.262  13.810  0.1400  0.3107 -0.0808
 3168DPPC   C2B59710  21.551  -4.022  13.528 -0.1944 -0.1187 -0.1673
 3168DPPC   C3B59711  21.741  -3.838  13.128 -0.0140 -0.0175 -0.4413
 3168DPPC   C4B59712  22.111  -3.867  12.941  0.0893 -0.0521  0.2645
 3169DPPC   NC359713  16.976   3.421  12.108 -0.2280  0.0754 -0.0942
 3169DPPC   PO459714  17.040   2.996  12.314  0.0341 -0.0041  0.0043
 3169DPPC   GL159715  17.084   2.798  12.552  0.0817  0.2457 -0.0149
 3169DPPC   GL259716  16.742   2.627  12.574 -0.1896  0.0680  0.2945
 3169DPPC   C1A59717  17.293   2.657  12.854  0.0637 -0.0323 -0.1826
 3169DPPC   C2A59718  17.526   2.690  13.245  0.2434  0.0251 -0.0896
 3169DPPC   C3A59719  17.511   2.370  13.610  0.2666 -0.0271 -0.1832
 3169DPPC   C4A59720  17.529   1.924  13.522 -0.0918 -0.1647 -0.0045
 3169DPPC   C1B59721  16.631   2.725  12.928  0.0526  0.0574  0.1464
 3169DPPC   C2B59722  16.591   2.690  13.342 -0.0433  0.1455 -0.0671
 3169DPPC   C3B59723  16.468   2.493  13.827  0.0522 -0.0943 -0.0142
 3169DPPC   C4B59724  16.467   2.324  14.186 -0.1165  0.1316  0.0332
 3170DPPC   NC359725  10.782   1.325  13.121 -0.0081 -0.0689  0.0162
 3170DPPC   PO459726  10.632   1.752  13.291 -0.1535 -0.2564 -0.1141
 3170DPPC   GL159727  10.821   1.598  13.579  0.1476 -0.0527  0.3675
 3170DPPC   GL259728  10.677   1.804  13.838 -0.0827  0.0417  0.0031
 3170DPPC   C1A59729  11.228   1.712  13.885 -0.1934 -0.3323 -0.1076
 3170DPPC   C2A59730  11.376   1.914  14.237  0.1111 -0.3052 -0.0954
 3170DPPC   C3A59731  11.524   1.879  14.631 -0.1838 -0.1219  0.0184
 3170DPPC   C4A59732  11.625   2.067  15.072 -0.0705  0.0580 -0.0095
 3170DPPC   C1B59733  10.932   2.128  14.069 -0.1104  0.1065 -0.1027
 3170DPPC   C2B59734  10.882   2.362  14.514  0.0893 -0.0443  0.0248
 3170DPPC   C3B59735  11.040   2.771  14.484  0.1137  0.1156  0.2675
 3170DPPC   C4B59736  10.878   3.186  14.548 -0.0954 -0.3046  0.1288
 3171DPPC   NC359737  24.658   8.776  17.496 -0.1066 -0.0795 -0.1836
 3171DPPC   PO459738  24.818   8.673  17.905  0.3283  0.0735 -0.1707
 3171DPPC   GL159739  24.400   8.634  17.908  0.0133 -0.0022  0.3205
 3171DPPC   GL259740  24.207   8.686  17.622 -0.4885 -0.0656 -0.0861
 3171DPPC   C1A59741  24.029   8.449  18.090  0.1977  0.0894 -0.0178
 3171DPPC   C2A59742  23.752   8.249  18.388  0.1772 -0.1923 -0.1543
 3171DPPC   C3A59743  23.319   8.319  18.309  0.3930  0.1317  0.0120
 3171DPPC   C4A59744  22.979   8.655  18.217 -0.4284 -0.0733  0.1014
 3171DPPC   C1B59745  23.879   8.414  17.636 -0.0366  0.1318 -0.0758
 3171DPPC   C2B59746  23.525   8.266  17.352  0.4652 -0.0367 -0.0861
 3171DPPC   C3B59747  23.156   7.938  17.519  0.3181  0.0369  0.0467
 3171DPPC   C4B59748  22.896   7.709  17.838 -0.0227  0.0878 -0.2572
 3172DPPC   NC359749  23.235  -2.733  16.519  0.1802  0.1642  0.3058
 3172DPPC   PO459750  23.313  -2.863  16.905 -0.2222  0.0967  0.1746
 3172DPPC   GL159751  23.807  -2.920  16.835 -0.0149  0.2668 -0.1085
 3172DPPC   GL259752  23.960  -2.651  16.786  0.1489 -0.1628  0.3150
 3172DPPC   C1A59753  24.183  -3.138  16.997 -0.4026  0.0366 -0.4441
 3172DPPC   C2A59754  24.592  -3.235  16.925  0.1762  0.0974 -0.1535
 3172DPPC   C3A59755  24.931  -3.001  16.739  0.2080  0.1946 -0.0501
 3172DPPC   C4A59756  25.438  -2.937  16.801  0.0049 -0.0668  0.0149
 3172DPPC   C1B59757  24.360  -2.828  16.650  0.0336  0.0435 -0.1963
 3172DPPC   C2B59758  24.741  -2.869  16.279  0.1787  0.0235 -0.1857
 3172DPPC   C3B59759  24.728  -2.632  15.976 -0.0464  0.1620  0.3235
 3172DPPC   C4B59760  24.713  -2.613  15.594  0.0110 -0.2197 -0.4353
 3173DPPC   NC359761  22.791   1.388  16.140  0.0893  0.0790 -0.1499
 3173DPPC   PO459762  22.526   1.373  15.741 -0.0031  0.0539  0.3902
 3173DPPC   GL159763  22.540   1.734  15.491  0.1198  0.0045  0.1508
 3173DPPC   GL259764  22.818   1.835  15.215  0.3085 -0.2998 -0.0377
 3173DPPC   C1A59765  22.602   2.222  15.417 -0.0933 -0.0506 -0.1086
 3173DPPC   C2A59766  22.361   2.634  15.168 -0.1549  0.1188 -0.1381
 3173DPPC   C3A59767  22.523   3.053  15.129  0.2968 -0.0377  0.1161
 3173DPPC   C4A59768  22.410   3.474  15.159  0.1838 -0.1834 -0.0310
 3173DPPC   C1B59769  23.005   1.914  15.593 -0.0443  0.1313  0.3901
 3173DPPC   C2B59770  23.125   1.969  16.045 -0.2223  0.2252 -0.0069
 3173DPPC   C3B59771  23.121   2.254  16.317 -0.0729  0.2494  0.1602
 3173DPPC   C4B59772  23.201   2.636  16.400 -0.1447 -0.0521 -0.5167
 3174DPPC   NC359773   6.887   8.536  18.516 -0.2076  0.4281  0.2845
 3174DPPC   PO459774   7.101   8.916  18.613  0.0914  0.2337 -0.1369
 3174DPPC   GL159775   7.271   8.658  18.837  0.2783 -0.0922  0.1507
 3174DPPC   GL259776   7.621   8.696  18.878  0.3459  0.2628  0.2360
 3174DPPC   C1A59777   7.384   8.619  19.290 -0.0643  0.1036  0.1810
 3174DPPC   C2A59778   7.602   8.583  19.565  0.2506 -0.4418  0.3759
 3174DPPC   C3A59779   7.841   8.535  19.954 -0.2538  0.2450 -0.0404
 3174DPPC   C4A59780   8.065   8.690  20.240 -0.0076 -0.2182  0.0629
 3174DPPC   C1B59781   8.000   8.640  19.243  0.2339  0.0458 -0.2578
 3174DPPC   C2B59782   8.215   8.435  19.571 -0.1510 -0.0990 -0.1544
 3174DPPC   C3B59783   8.587   8.211  19.649 -0.1695  0.1417  0.0808
 3174DPPC   C4B59784   8.639   7.925  19.431  0.4381 -0.2698 -0.0025
 3175DPPC   NC359785  25.901   1.495  14.622 -0.1358 -0.0640  0.1821
 3175DPPC   PO459786  26.255   1.443  14.910 -0.2075 -0.1282 -0.3438
 3175DPPC   GL159787  25.829   1.379  15.144  0.1122 -0.0585 -0.2354
 3175DPPC   GL259788  25.535   1.364  15.009  0.0299 -0.2540 -0.1902
 3175DPPC   C1A59789  25.542   1.445  15.542 -0.0216 -0.1422 -0.0307
 3175DPPC   C2A59790  25.217   1.594  15.683  0.6528  0.1336 -0.3728
 3175DPPC   C3A59791  25.046   1.994  15.649  0.3171 -0.1872 -0.1167
 3175DPPC   C4A59792  24.691   1.982  16.022 -0.0234  0.2251  0.1319
 3175DPPC   C1B59793  25.485   0.944  15.223 -0.0048 -0.2214  0.1537
 3175DPPC   C2B59794  25.320   0.528  15.264 -0.0078 -0.1422  0.0846
 3175DPPC   C3B59795  24.917   0.299  15.314  0.2850  0.1410 -0.2875
 3175DPPC   C4B59796  24.515   0.242  15.430  0.1480  0.0569  0.2339
 3176DPPC   NC359797  24.057  -2.001  10.469  0.0587  0.0600 -0.1661
 3176DPPC   PO459798  24.468  -1.686  10.433 -0.0922 -0.0809  0.3242
 3176DPPC   GL159799  24.334  -1.701  10.866 -0.2506 -0.0896  0.0878
 3176DPPC   GL259800  24.246  -1.316  10.979  0.0152  0.0597  0.1781
 3176DPPC   C1A59801  23.979  -1.726  11.029  0.1762 -0.1949  0.1862
 3176DPPC   C2A59802  23.739  -1.538  11.337  0.1583  0.2613  0.1874
 3176DPPC   C3A59803  23.458  -1.184  11.443 -0.1234  0.0990 -0.0174
 3176DPPC   C4A59804  23.492  -0.952  11.846  0.0513 -0.2424  0.1512
 3176DPPC   C1B59805  23.847  -1.179  10.954  0.0447 -0.0528  0.2669
 3176DPPC   C2B59806  23.511  -1.027  10.990  0.0074  0.0563  0.0977
 3176DPPC   C3B59807  23.138  -1.132  11.031  0.0879 -0.1792 -0.1664
 3176DPPC   C4B59808  22.893  -1.252  11.407  0.0947 -0.1170 -0.2362
 3177DPPC   NC359809  16.452   1.212  37.092  0.1927 -0.2526  0.4830
 3177DPPC   PO459810  16.912   1.159  37.036  0.2849  0.2458 -0.2639
 3177DPPC   GL159811  16.715   1.184  36.662  0.1586 -0.0177 -0.4809
 3177DPPC   GL259812  16.626   1.462  36.582 -0.1356  0.2727 -0.0756
 3177DPPC   C1A59813  16.685   1.004  36.303 -0.1308  0.0575 -0.1639
 3177DPPC   C2A59814  16.514   1.029  35.975  0.2962 -0.1196  0.5599
 3177DPPC   C3A59815  16.419   1.377  35.736  0.2974  0.1563  0.1372
 3177DPPC   C4A59816  16.161   1.548  35.494 -0.0293  0.0496  0.0365
 3177DPPC   C1B59817  16.656   1.587  36.163  0.1603  0.0611 -0.1101
 3177DPPC   C2B59818  16.613   1.783  35.729  0.0198 -0.2668  0.0960
 3177DPPC   C3B59819  16.631   1.848  35.411 -0.0209 -0.1005 -0.0775
 3177DPPC   C4B59820  16.947   1.934  35.210  0.2430 -0.2253 -0.0184
 3178DPPC   NC359821  12.445  -7.447  29.009 -0.4040  0.2288 -0.1122
 3178DPPC   PO459822  12.280  -7.086  28.751 -0.0230 -0.0330  0.2001
 3178DPPC   GL159823  12.414  -6.693  28.630 -0.1591 -0.1934 -0.3031
 3178DPPC   GL259824  12.122  -6.674  28.392  0.0982 -0.0546  0.1219
 3178DPPC   C1A59825  12.796  -6.397  28.461  0.2822  0.4492 -0.2490
 3178DPPC   C2A59826  12.935  -6.205  28.045  0.2893  0.0224 -0.3272
 3178DPPC   C3A59827  13.268  -6.019  27.733 -0.0435 -0.2212 -0.2278
 3178DPPC   C4A59828  13.739  -6.064  27.758 -0.0713  0.0090 -0.2071
 3178DPPC   C1B59829  12.201  -6.265  28.429 -0.0266 -0.2670  0.3618
 3178DPPC   C2B59830  12.547  -5.955  28.464  0.3135 -0.0198  0.0356
 3178DPPC   C3B59831  12.765  -5.756  28.260 -0.2276 -0.2198  0.0970
 3178DPPC   C4B59832  12.492  -5.382  27.984  0.0077 -0.2288  0.2476
 3179DPPC   NC359833  17.194   8.861  37.329 -0.0220 -0.1956 -0.0585
 3179DPPC   PO459834  16.850   8.809  37.082 -0.0859  0.2682 -0.1262
 3179DPPC   GL159835  17.055   8.746  36.667 -0.1469 -0.0622  0.0835
 3179DPPC   GL259836  17.311   8.994  36.515 -0.0678 -0.1958 -0.0611
 3179DPPC   C1A59837  17.339   8.494  36.351  0.0758 -0.0724  0.1415
 3179DPPC   C2A59838  17.496   7.992  36.612 -0.1089  0.0134  0.0763
 3179DPPC   C3A59839  17.248   7.635  36.749  0.2519 -0.3216 -0.0928
 3179DPPC   C4A59840  16.941   7.280  36.694 -0.3081 -0.1062  0.1532
 3179DPPC   C1B59841  17.257   9.232  36.146 -0.0432  0.0115  0.2325
 3179DPPC   C2B59842  17.026   9.166  35.709 -0.1889  0.0883  0.1507
 3179DPPC   C3B59843  17.060   8.816  35.475  0.1293  0.0572 -0.1986
 3179DPPC   C4B59844  17.001   8.671  35.092 -0.2324  0.1317  0.4157
 3180DPPC   NC359845   4.670   9.533  22.258  0.2094 -0.3054 -0.1313
 3180DPPC   PO459846   4.546   9.167  22.344  0.0503 -0.1926  0.3461
 3180DPPC   GL159847   4.888   9.057  22.491 -0.3001  0.1167 -0.0554
 3180DPPC   GL259848   5.120   9.265  22.325 -0.0291 -0.0411  0.1100
 3180DPPC   C1A59849   5.214   8.807  22.441  0.2200  0.2687  0.1655
 3180DPPC   C2A59850   5.383   8.390  22.553  0.2626  0.1353  0.1497
 3180DPPC   C3A59851   5.739   8.160  22.811 -0.1045 -0.1894 -0.0490
 3180DPPC   C4A59852   5.968   7.718  22.945  0.2298 -0.0294  0.0023
 3180DPPC   C1B59853   5.523   9.141  22.525  0.0613 -0.4336 -0.1607
 3180DPPC   C2B59854   5.925   8.981  22.582 -0.2691  0.3339  0.2951
 3180DPPC   C3B59855   6.457   8.821  22.692 -0.1738  0.0565  0.1219
 3180DPPC   C4B59856   6.603   8.534  22.874 -0.1522  0.0582 -0.2428
 3181DPPC   NC359857  13.755  16.815  28.569  0.1022  0.1872  0.2460
 3181DPPC   PO459858  13.302  16.779  28.594  0.2526 -0.3011 -0.2793
 3181DPPC   GL159859  13.510  16.458  28.844 -0.0317 -0.2932  0.0446
 3181DPPC   GL259860  13.660  16.297  28.519  0.2233 -0.2540  0.0572
 3181DPPC   C1A59861  13.563  16.075  28.996 -0.3568 -0.1715 -0.2299
 3181DPPC   C2A59862  13.681  15.601  29.273  0.0246 -0.0490 -0.1508
 3181DPPC   C3A59863  13.677  15.230  29.431  0.4813  0.3587 -0.1016
 3181DPPC   C4A59864  13.496  14.829  29.575 -0.1643  0.2695 -0.3275
 3181DPPC   C1B59865  13.494  15.899  28.511 -0.2480  0.1950 -0.2819
 3181DPPC   C2B59866  13.554  15.486  28.647 -0.0348  0.0517 -0.2022
 3181DPPC   C3B59867  13.600  15.044  28.558  0.0718 -0.0082  0.4292
 3181DPPC   C4B59868  13.504  14.533  28.438 -0.2145  0.1383 -0.2186
 3182DPPC   NC359869  17.158  -0.267  10.080 -0.0414 -0.2625 -0.0558
 3182DPPC   PO459870  17.453  -0.019  10.323  0.0199  0.1702  0.0140
 3182DPPC   GL159871  17.583  -0.023  10.779 -0.5039 -0.1536  0.0597
 3182DPPC   GL259872  17.852  -0.241  10.749 -0.1495  0.2497  0.2778
 3182DPPC   C1A59873  17.725   0.037  11.122  0.1666  0.0912 -0.0546
 3182DPPC   C2A59874  18.009   0.145  11.401 -0.0684  0.0200 -0.1570
 3182DPPC   C3A59875  18.155  -0.064  11.817 -0.1716 -0.0673 -0.1974
 3182DPPC   C4A59876  18.616  -0.055  11.864 -0.0594  0.0145 -0.2098
 3182DPPC   C1B59877  18.044  -0.491  10.888 -0.3055 -0.0852  0.1759
 3182DPPC   C2B59878  18.143  -0.935  10.894 -0.0772  0.0318  0.1752
 3182DPPC   C3B59879  18.224  -1.412  10.907  0.2213 -0.2492 -0.0094
 3182DPPC   C4B59880  18.062  -1.699  11.214  0.0616 -0.2492 -0.0169
 3183DPPC   NC359881   6.089  -4.525  25.178 -0.0836 -0.3775 -0.0536
 3183DPPC   PO459882   6.416  -4.770  24.945 -0.1724  0.0997 -0.0607
 3183DPPC   GL159883   6.768  -4.474  24.813  0.0800 -0.0349  0.1962
 3183DPPC   GL259884   6.633  -4.226  24.740  0.1886 -0.1117 -0.2329
 3183DPPC   C1A59885   7.135  -4.164  24.916 -0.1011 -0.0807 -0.3326
 3183DPPC   C2A59886   7.314  -4.035  24.623 -0.1313 -0.2463  0.0230
 3183DPPC   C3A59887   7.476  -3.567  24.696 -0.0137  0.0182 -0.1170
 3183DPPC   C4A59888   7.430  -3.147  24.563  0.2176  0.1196 -0.2625
 3183DPPC   C1B59889   6.860  -3.923  24.577  0.0774  0.0642  0.1799
 3183DPPC   C2B59890   6.997  -3.565  24.586 -0.1228  0.4994  0.0257
 3183DPPC   C3B59891   6.970  -3.216  24.412  0.0679  0.3774 -0.1503
 3183DPPC   C4B59892   7.114  -3.009  24.096 -0.1574  0.3940 -0.1667
 3184DPPC   NC359893  22.872   1.264  15.310  0.1184 -0.4699  0.1914
 3184DPPC   PO459894  23.010   1.253  15.713  0.0682 -0.1820  0.0458
 3184DPPC   GL159895  23.294   1.222  16.019  0.1282 -0.2789 -0.1037
 3184DPPC   GL259896  23.264   0.987  16.317  0.0673  0.1867  0.2246
 3184DPPC   C1A59897  23.582   1.409  16.176 -0.0988 -0.0242  0.1442
 3184DPPC   C2A59898  23.627   1.821  16.400  0.4464 -0.0412 -0.1019
 3184DPPC   C3A59899  23.750   2.166  16.581  0.0263  0.0514 -0.0635
 3184DPPC   C4A59900  24.013   2.354  16.780 -0.1262  0.0877  0.2963
 3184DPPC   C1B59901  23.402   1.283  16.578  0.0860  0.1399 -0.3218
 3184DPPC   C2B59902  23.856   1.362  16.734 -0.1494  0.0629  0.3271
 3184DPPC   C3B59903  24.097   1.474  17.163 -0.2475 -0.0644 -0.2470
 3184DPPC   C4B59904  24.101   1.922  17.279 -0.2940  0.0323 -0.0933
 3185DPPC   NC359905  20.585  -3.640   9.492 -0.2578  0.1069  0.3612
 3185DPPC   PO459906  20.737  -3.923   9.749 -0.2204 -0.0797  0.1165
 3185DPPC   GL159907  20.636  -3.803  10.245 -0.3049 -0.0438  0.1460
 3185DPPC   GL259908  20.733  -3.526  10.398 -0.0003 -0.0183  0.1063
 3185DPPC   C1A59909  20.723  -4.030  10.597  0.1530 -0.1264  0.0745
 3185DPPC   C2A59910  20.718  -4.128  11.008  0.3896  0.0100  0.2546
 3185DPPC   C3A59911  20.526  -3.951  11.305  0.0113 -0.0210 -0.0590
 3185DPPC   C4A59912  20.391  -3.808  11.678 -0.1082 -0.2101 -0.0682
 3185DPPC   C1B59913  20.635  -3.521  10.911 -0.0637  0.0132  0.0386
 3185DPPC   C2B59914  20.590  -3.429  11.410 -0.0785 -0.2324 -0.0080
 3185DPPC   C3B59915  20.498  -3.121  11.844  0.3440 -0.4161  0.1291
 3185DPPC   C4B59916  20.179  -2.954  11.950 -0.1319 -0.2333 -0.2852
 3186DPPC   NC359917  11.922  -2.007  35.444  0.0189 -0.1715 -0.0499
 3186DPPC   PO459918  11.710  -2.030  35.067  0.0594  0.3581  0.1772
 3186DPPC   GL159919  11.975  -1.716  34.852 -0.3632 -0.1822  0.0443
 3186DPPC   GL259920  12.060  -1.566  35.119 -0.1522 -0.1980  0.0394
 3186DPPC   C1A59921  11.923  -1.503  34.541  0.2256  0.1213 -0.0306
 3186DPPC   C2A59922  11.965  -1.408  34.224  0.1395  0.1828  0.0189
 3186DPPC   C3A59923  11.931  -1.236  33.798  0.0147 -0.1634  0.0287
 3186DPPC   C4A59924  11.869  -0.833  33.600 -0.1969 -0.0144 -0.1601
 3186DPPC   C1B59925  12.364  -1.393  34.860  0.4305  0.0838  0.1490
 3186DPPC   C2B59926  12.503  -1.105  34.478 -0.0817  0.0936  0.0443
 3186DPPC   C3B59927  12.630  -0.863  34.088  0.2261 -0.1525  0.0211
 3186DPPC   C4B59928  12.632  -0.572  33.760 -0.0612  0.1479 -0.0599
 3187DPPC   NC359929  21.514  13.861  20.977  0.0622  0.2346  0.2837
 3187DPPC   PO459930  21.618  13.947  21.418 -0.2859  0.3024 -0.2038
 3187DPPC   GL159931  21.542  13.568  21.511  0.1422 -0.0036 -0.4115
 3187DPPC   GL259932  21.395  13.335  21.255  0.1385 -0.0059 -0.2301
 3187DPPC   C1A59933  21.669  13.185  21.875 -0.0126 -0.1321 -0.1004
 3187DPPC   C2A59934  21.889  13.020  22.198  0.3036 -0.3307  0.4394
 3187DPPC   C3A59935  21.635  12.688  22.375 -0.2373 -0.2010 -0.0257
 3187DPPC   C4A59936  21.595  12.385  22.655 -0.1620 -0.0299 -0.1492
 3187DPPC   C1B59937  21.414  13.022  21.481 -0.3781 -0.1202  0.0264
 3187DPPC   C2B59938  21.452  12.578  21.569  0.0953 -0.1258  0.0379
 3187DPPC   C3B59939  21.140  12.237  21.494 -0.0617  0.0924 -0.0982
 3187DPPC   C4B59940  20.865  11.881  21.468  0.1040 -0.1108 -0.0603
 3188DPPC   NC359941  22.171  -0.022  17.070 -0.0641  0.0709 -0.1722
 3188DPPC   PO459942  22.426  -0.347  17.069  0.0384  0.0141  0.2653
 3188DPPC   GL159943  22.856  -0.187  17.229 -0.1428  0.1465  0.1613
 3188DPPC   GL259944  23.132  -0.340  17.100  0.2989  0.0751  0.1012
 3188DPPC   C1A59945  23.038  -0.373  17.602 -0.0375 -0.0018 -0.2241
 3188DPPC   C2A59946  22.848  -0.381  17.977 -0.0381 -0.3220  0.1078
 3188DPPC   C3A59947  23.052  -0.504  18.301  0.1479 -0.1125 -0.2209
 3188DPPC   C4A59948  23.245  -0.417  18.678  0.1937  0.1408 -0.0905
 3188DPPC   C1B59949  23.493  -0.320  17.449  0.2511  0.0899  0.1007
 3188DPPC   C2B59950  23.877  -0.236  17.315 -0.1401  0.0759  0.0501
 3188DPPC   C3B59951  24.293  -0.082  17.477  0.3224 -0.1815 -0.2383
 3188DPPC   C4B59952  24.406   0.218  17.350 -0.0905  0.0047  0.1969
 3189DPPC   NC359953   4.227  -2.096  26.375 -0.0516  0.3953 -0.1016
 3189DPPC   PO459954   4.492  -1.730  26.151 -0.1169  0.0817 -0.0042
 3189DPPC   GL159955   4.723  -1.605  25.839  0.2402  0.0287 -0.3955
 3189DPPC   GL259956   4.901  -1.358  25.886 -0.3086 -0.0798  0.2142
 3189DPPC   C1A59957   5.131  -1.677  25.581 -0.3490 -0.0483  0.1829
 3189DPPC   C2A59958   5.393  -1.665  25.219  0.0252 -0.2076  0.0155
 3189DPPC   C3A59959   5.605  -1.356  25.129 -0.1995 -0.0827  0.1505
 3189DPPC   C4A59960   5.760  -0.930  24.936  0.0052  0.0093 -0.0050
 3189DPPC   C1B59961   4.846  -1.168  26.267 -0.1556  0.0628  0.0117
 3189DPPC   C2B59962   5.097  -1.312  26.616  0.0837 -0.1189 -0.1523
 3189DPPC   C3B59963   5.531  -1.196  26.610 -0.2344  0.2653 -0.2936
 3189DPPC   C4B59964   5.624  -0.879  26.378 -0.1502  0.2769  0.1430
 3190DPPC   NC359965  26.591  -2.505  21.095 -0.2353  0.0330  0.1669
 3190DPPC   PO459966  26.669  -2.436  20.705  0.0355  0.0853  0.2055
 3190DPPC   GL159967  26.248  -2.338  20.688 -0.0907  0.0986 -0.0620
 3190DPPC   GL259968  26.207  -2.042  20.485  0.0309 -0.2543 -0.0757
 3190DPPC   C1A59969  25.931  -2.417  20.391  0.0240  0.3043  0.1901
 3190DPPC   C2A59970  25.569  -2.170  20.175 -0.0850 -0.0227  0.0231
 3190DPPC   C3A59971  25.143  -1.965  20.130  0.2899  0.2001  0.1343
 3190DPPC   C4A59972  25.021  -1.533  20.025  0.0476 -0.1292 -0.0743
 3190DPPC   C1B59973  25.864  -1.850  20.522 -0.0219 -0.0551  0.0414
 3190DPPC   C2B59974  25.485  -1.838  20.652 -0.1587 -0.0533 -0.0084
 3190DPPC   C3B59975  25.129  -1.923  20.881  0.0941 -0.1802  0.0100
 3190DPPC   C4B59976  24.891  -1.530  20.874  0.2218  0.0542  0.3146
 3191DPPC   NC359977  25.828  -4.295  23.297  0.1740  0.1071 -0.0140
 3191DPPC   PO459978  25.995  -3.975  23.515 -0.0475 -0.2912  0.1413
 3191DPPC   GL159979  25.618  -3.802  23.232 -0.5673 -0.1414 -0.0185
 3191DPPC   GL259980  25.325  -3.983  23.295  0.1260 -0.0278 -0.2492
 3191DPPC   C1A59981  25.351  -3.490  23.124  0.0553  0.0483 -0.0559
 3191DPPC   C2A59982  25.076  -3.139  23.239  0.2257  0.0597 -0.1486
 3191DPPC   C3A59983  24.741  -2.874  23.234  0.2782 -0.2487 -0.2478
 3191DPPC   C4A59984  24.317  -2.662  23.202  0.7683 -0.0840 -0.1197
 3191DPPC   C1B59985  24.973  -3.708  23.379 -0.1382 -0.0568  0.1753
 3191DPPC   C2B59986  24.626  -3.381  23.418 -0.0939 -0.0596  0.0652
 3191DPPC   C3B59987  24.226  -3.193  23.308 -0.2817 -0.2912  0.5080
 3191DPPC   C4B59988  23.803  -3.263  23.075  0.2161  0.0326 -0.0825
 3192DPPC   NC359989  21.641  11.698  17.417 -0.1290 -0.0995 -0.3045
 3192DPPC   PO459990  21.383  11.670  17.724  0.1693 -0.3940  0.1232
 3192DPPC   GL159991  21.064  11.447  17.916 -0.1966 -0.0544 -0.2207
 3192DPPC   GL259992  20.678  11.277  18.004  0.0818 -0.0925  0.1611
 3192DPPC   C1A59993  21.063  11.008  18.049  0.0332 -0.1286 -0.0180
 3192DPPC   C2A59994  21.001  10.617  18.308  0.0161 -0.0568  0.1280
 3192DPPC   C3A59995  21.014  10.289  18.575  0.3812  0.0345  0.0059
 3192DPPC   C4A59996  21.223   9.838  18.462  0.2824  0.1923  0.0372
 3192DPPC   C1B59997  20.816  11.176  18.405  0.1051 -0.0448 -0.3425
 3192DPPC   C2B59998  21.034  11.085  18.676 -0.1998  0.1212 -0.3957
 3192DPPC   C3B59999  21.250  11.025  19.133  0.1356  0.0277 -0.1887
 3192DPPC   C4B60000  21.633  11.059  19.309 -0.3631  0.0486  0.1070
 3193DPPC   NC360001  12.416  16.499  29.850  0.0501 -0.1451 -0.0332
 3193DPPC   PO460002  12.381  16.129  29.627 -0.0909 -0.0842  0.0486
 3193DPPC   GL160003  12.278  15.765  29.384 -0.0843  0.0165  0.1731
 3193DPPC   GL260004  12.357  15.693  29.041  0.0593 -0.1740 -0.1765
 3193DPPC   C1A60005  12.380  15.302  29.317 -0.1639  0.0591 -0.0843
 3193DPPC   C2A60006  12.154  14.880  29.179 -0.2097 -0.3447 -0.1166
 3193DPPC   C3A60007  12.167  14.467  29.237 -0.0702 -0.2085 -0.0635
 3193DPPC   C4A60008  12.099  14.143  28.964 -0.0961  0.1195  0.1799
 3193DPPC   C1B60009  12.175  15.334  28.848 -0.1400  0.1858 -0.0468
 3193DPPC   C2B60010  11.860  15.299  28.548  0.2606 -0.2537  0.0404
 3193DPPC   C3B60011  12.045  15.102  28.279  0.2458 -0.3355  0.0782
 3193DPPC   C4B60012  12.104  14.698  28.099 -0.0344 -0.2129 -0.1338
 3194DPPC   NC360013  24.650   9.013  33.751  0.5849 -0.0084 -0.2772
 3194DPPC   PO460014  24.652   8.457  33.810  0.4650 -0.2507  0.0077
 3194DPPC   GL160015  24.557   8.535  33.543 -0.0006  0.0541  0.0609
 3194DPPC   GL260016  24.689   8.237  33.417  0.0607  0.1085 -0.0586
 3194DPPC   C1A60017  24.269   8.534  33.201  0.0070  0.0804  0.1946
 3194DPPC   C2A60018  23.979   8.205  32.997 -0.0995 -0.4734 -0.0982
 3194DPPC   C3A60019  23.606   7.931  32.781  0.1299 -0.1676  0.0487
 3194DPPC   C4A60020  23.206   7.825  32.885 -0.0580  0.1350 -0.0248
 3194DPPC   C1B60021  24.416   8.107  33.309 -0.0560  0.1479 -0.0245
 3194DPPC   C2B60022  24.275   7.762  33.108 -0.1476  0.1537  0.1876
 3194DPPC   C3B60023  24.327   7.375  32.988 -0.0329 -0.1060 -0.2114
 3194DPPC   C4B60024  24.276   7.019  32.563 -0.2321 -0.0661  0.0353
 3195DPPC   NC360025  16.811  -2.279  15.183 -0.1685 -0.0968  0.1879
 3195DPPC   PO460026  16.872  -2.656  14.951 -0.3503  0.0440  0.3011
 3195DPPC   GL160027  16.491  -2.447  14.821  0.0557 -0.0554  0.1673
 3195DPPC   GL260028  16.423  -2.474  14.489 -0.2450 -0.1002 -0.1976
 3195DPPC   C1A60029  16.109  -2.196  14.933 -0.2601  0.1961 -0.1383
 3195DPPC   C2A60030  15.737  -2.210  15.020  0.1242 -0.0016  0.1546
 3195DPPC   C3A60031  15.470  -2.145  15.373  0.1251 -0.3613 -0.0829
 3195DPPC   C4A60032  15.216  -2.146  15.647 -0.2510 -0.2125 -0.0496
 3195DPPC   C1B60033  16.070  -2.185  14.454 -0.0875  0.0506  0.4139
 3195DPPC   C2B60034  15.938  -1.971  14.168  0.0129  0.0398 -0.0225
 3195DPPC   C3B60035  15.771  -1.661  14.075 -0.1711 -0.1362 -0.0764
 3195DPPC   C4B60036  15.450  -1.424  14.109 -0.0931  0.2134 -0.1758
 3196DPPC   NC360037  10.041  -3.271  32.897  0.0976 -0.2171  0.0382
 3196DPPC   PO460038   9.695  -3.035  33.051 -0.1520  0.0265  0.0254
 3196DPPC   GL160039   9.579  -2.835  32.736  0.0103  0.0336  0.2293
 3196DPPC   GL260040   9.772  -2.617  32.770 -0.2714 -0.2843  0.0132
 3196DPPC   C1A60041   9.438  -2.744  32.291 -0.1792 -0.1584 -0.1667
 3196DPPC   C2A60042   9.613  -2.442  32.036  0.1329 -0.0591  0.1622
 3196DPPC   C3A60043  10.008  -2.471  31.773  0.0470  0.1248 -0.0316
 3196DPPC   C4A60044  10.278  -2.697  31.482  0.0590  0.1625 -0.1125
 3196DPPC   C1B60045  10.035  -2.559  32.372 -0.0208  0.0661  0.2763
 3196DPPC   C2B60046  10.452  -2.493  32.070  0.2523  0.4267  0.2390
 3196DPPC   C3B60047  10.735  -2.662  31.680  0.2847  0.0294  0.1460
 3196DPPC   C4B60048  11.125  -2.775  31.429  0.0511  0.1916  0.1362
 3197DPPC   NC360049  10.640  13.737  33.002 -0.0182  0.0348 -0.2689
 3197DPPC   PO460050  10.478  13.915  32.616  0.1500 -0.2234  0.1172
 3197DPPC   GL160051  10.599  13.441  32.365 -0.1856  0.1023 -0.3061
 3197DPPC   GL260052  10.528  13.211  32.517  0.2223  0.5309  0.0395
 3197DPPC   C1A60053  10.911  13.210  32.163  0.2446  0.0099  0.1889
 3197DPPC   C2A60054  10.844  13.178  31.691 -0.2237  0.1254  0.0698
 3197DPPC   C3A60055  10.878  13.128  31.211  0.1166  0.1699 -0.1103
 3197DPPC   C4A60056  10.878  12.884  30.752 -0.0058 -0.0390 -0.2295
 3197DPPC   C1B60057  10.376  12.867  32.388  0.1321  0.3013 -0.1278
 3197DPPC   C2B60058  10.041  12.498  32.166 -0.0549  0.1305 -0.1825
 3197DPPC   C3B60059   9.781  12.099  32.140 -0.1103  0.0074 -0.1121
 3197DPPC   C4B60060   9.728  11.774  32.507  0.2983 -0.1013  0.3614
 3198DPPC   NC360061  20.202   5.996  13.094  0.1216  0.2355  0.0711
 3198DPPC   PO460062  20.071   6.430  13.093 -0.1273  0.0958 -0.0489
 3198DPPC   GL160063  20.005   6.215  13.492 -0.1449 -0.1976  0.0467
 3198DPPC   GL260064  19.804   5.935  13.506 -0.2646 -0.0036  0.1588
 3198DPPC   C1A60065  20.033   6.016  13.884  0.2002 -0.1378  0.1323
 3198DPPC   C2A60066  20.008   5.828  14.235 -0.0535 -0.1762 -0.1926
 3198DPPC   C3A60067  20.101   5.616  14.654 -0.1434  0.2528  0.0432
 3198DPPC   C4A60068  20.215   5.345  14.970  0.2185  0.0108  0.0594
 3198DPPC   C1B60069  19.586   5.732  13.798  0.0299  0.3878 -0.4821
 3198DPPC   C2B60070  19.539   5.743  14.164 -0.2273  0.0274 -0.0318
 3198DPPC   C3B60071  19.615   5.781  14.522  0.1159 -0.0282 -0.2265
 3198DPPC   C4B60072  19.621   5.929  14.963 -0.0066  0.2820  0.1837
 3199DPPC   NC360073  19.245  -8.045  22.439  0.2104  0.1091 -0.0718
 3199DPPC   PO460074  19.506  -7.750  22.580 -0.5327 -0.0240  0.0065
 3199DPPC   GL160075  19.386  -7.320  22.679  0.1134 -0.0316  0.1805
 3199DPPC   GL260076  19.548  -7.357  22.995 -0.0074 -0.1697 -0.3582
 3199DPPC   C1A60077  19.192  -6.901  22.813  0.1246  0.2075  0.0466
 3199DPPC   C2A60078  19.042  -6.565  22.870  0.2624 -0.2201 -0.0569
 3199DPPC   C3A60079  18.836  -6.295  22.527 -0.0611  0.0147  0.1055
 3199DPPC   C4A60080  18.659  -5.825  22.384  0.0666  0.1512  0.0679
 3199DPPC   C1B60081  19.426  -7.010  23.263 -0.2137  0.0953  0.2648
 3199DPPC   C2B60082  19.377  -6.582  23.268  0.4641  0.1657 -0.0856
 3199DPPC   C3B60083  19.104  -6.307  23.289  0.3189  0.0173 -0.2436
 3199DPPC   C4B60084  18.766  -6.048  23.024  0.1115  0.2445 -0.1084
 3200DPPC   NC360085  18.728   9.919  13.735 -0.2697  0.2163 -0.2146
 3200DPPC   PO460086  18.899   9.655  14.113  0.1338  0.5550 -0.2772
 3200DPPC   GL160087  18.698   9.280  14.253 -0.1781 -0.0161 -0.0518
 3200DPPC   GL260088  18.851   9.018  14.152 -0.3402  0.5433  0.1554
 3200DPPC   C1A60089  18.457   9.211  14.599  0.0271  0.0071 -0.2191
 3200DPPC   C2A60090  18.156   9.158  14.938 -0.1646 -0.2260 -0.1123
 3200DPPC   C3A60091  17.740   9.380  14.968  0.1716 -0.0753 -0.1454
 3200DPPC   C4A60092  17.595   9.696  15.100 -0.0791 -0.1792 -0.1762
 3200DPPC   C1B60093  18.543   8.859  14.245 -0.0145  0.2881  0.3406
 3200DPPC   C2B60094  18.126   8.798  14.426  0.1573 -0.3396 -0.3339
 3200DPPC   C3B60095  17.849   8.627  14.729  0.1555 -0.0417  0.1870
 3200DPPC   C4B60096  17.837   8.284  15.009 -0.0948 -0.0189 -0.0901
 3201DPPC   NC360097  17.852  -5.415  32.061  0.0928  0.1441 -0.0422
 3201DPPC   PO460098  17.788  -5.132  32.352  0.2246  0.2555 -0.3716
 3201DPPC   GL160099  17.999  -4.892  32.064  0.1588  0.1968  0.2143
 3201DPPC   GL260100  18.058  -4.616  32.227 -0.0801 -0.2016  0.2345
 3201DPPC   C1A60101  18.119  -4.844  31.619 -0.0323 -0.2824 -0.1361
 3201DPPC   C2A60102  17.879  -4.832  31.249 -0.1473 -0.2590  0.0668
 3201DPPC   C3A60103  17.523  -4.591  30.961 -0.0856 -0.1351 -0.1796
 3201DPPC   C4A60104  17.475  -4.253  30.730 -0.1602 -0.0402  0.1774
 3201DPPC   C1B60105  17.988  -4.252  32.005 -0.1851  0.0047  0.0830
 3201DPPC   C2B60106  17.794  -3.972  31.637 -0.2057 -0.0298 -0.2635
 3201DPPC   C3B60107  17.810  -3.551  31.590  0.1233  0.4172 -0.0807
 3201DPPC   C4B60108  17.642  -3.092  31.562  0.1645 -0.2329 -0.1255
 3202DPPC   NC360109  13.872  -5.913  14.645 -0.2517 -0.3442  0.1743
 3202DPPC   PO460110  13.781  -5.928  15.255  0.0098 -0.1360  0.5264
 3202DPPC   GL160111  13.952  -5.554  15.444  0.2458  0.2731 -0.0897
 3202DPPC   GL260112  13.817  -5.218  15.429  0.0253  0.0903 -0.0552
 3202DPPC   C1A60113  14.415  -5.506  15.720  0.3259  0.0196 -0.0654
 3202DPPC   C2A60114  14.734  -5.218  15.808 -0.1812 -0.1630  0.2221
 3202DPPC   C3A60115  14.931  -4.944  15.986  0.1382 -0.1262  0.0691
 3202DPPC   C4A60116  15.204  -4.572  15.779  0.1587 -0.2496  0.2409
 3202DPPC   C1B60117  14.090  -5.075  15.738  0.3263 -0.0563 -0.2800
 3202DPPC   C2B60118  14.350  -5.003  16.087 -0.1729  0.1860  0.1200
 3202DPPC   C3B60119  14.697  -4.998  16.398  0.0982 -0.1067 -0.0489
 3202DPPC   C4B60120  14.946  -5.014  16.772  0.3899  0.0704  0.1564
 3203DPPC   NC360121  19.864  -3.322  17.186 -0.0937  0.3398 -0.0992
 3203DPPC   PO460122  19.440  -3.273  17.077  0.0952 -0.1080 -0.1501
 3203DPPC   GL160123  19.485  -2.959  17.293  0.3058 -0.3262  0.1301
 3203DPPC   GL260124  19.407  -3.017  17.640  0.0870 -0.2735 -0.1392
 3203DPPC   C1A60125  19.321  -2.574  17.447  0.1770 -0.0296  0.3204
 3203DPPC   C2A60126  19.309  -2.199  17.267 -0.0335  0.1548  0.3470
 3203DPPC   C3A60127  19.131  -1.851  17.124  0.0563  0.1352 -0.1200
 3203DPPC   C4A60128  19.441  -1.588  17.143 -0.2555 -0.0179 -0.0526
 3203DPPC   C1B60129  19.376  -2.701  17.920 -0.1715  0.2848  0.0017
 3203DPPC   C2B60130  19.389  -2.486  18.283  0.0539  0.0489  0.0546
 3203DPPC   C3B60131  19.342  -2.186  18.615 -0.0130  0.1647 -0.0595
 3203DPPC   C4B60132  19.377  -2.187  19.068  0.2824 -0.1284  0.0792
 3204DPPC   NC360133  24.172  11.678  31.225  0.0599 -0.6053  0.1698
 3204DPPC   PO460134  23.878  11.953  31.323  0.0130 -0.0402  0.1039
 3204DPPC   GL160135  23.647  11.643  31.279  0.1756  0.2073  0.3599
 3204DPPC   GL260136  23.329  11.796  31.351 -0.1624  0.0682  0.2232
 3204DPPC   C1A60137  23.331  11.393  31.102 -0.0576 -0.0813 -0.2370
 3204DPPC   C2A60138  22.964  11.199  30.900 -0.2088 -0.2292 -0.3554
 3204DPPC   C3A60139  23.107  10.833  30.625  0.0070  0.1619  0.1471
 3204DPPC   C4A60140  23.324  10.527  30.238  0.3274 -0.1169 -0.1586
 3204DPPC   C1B60141  23.034  11.538  31.559 -0.3651  0.0623  0.0158
 3204DPPC   C2B60142  22.829  11.241  31.422 -0.2430  0.0938  0.4313
 3204DPPC   C3B60143  22.632  10.914  31.093  0.0628  0.0328 -0.2760
 3204DPPC   C4B60144  22.494  11.005  30.732  0.0681  0.0429 -0.3471
 3205DPPC   NC360145  20.908   0.509  15.738 -0.4050  0.1145 -0.3837
 3205DPPC   PO460146  21.035   0.915  15.526  0.4283 -0.4328  0.2799
 3205DPPC   GL160147  21.009   1.300  15.873  0.1071 -0.2136 -0.0751
 3205DPPC   GL260148  20.992   1.639  15.622  0.0100 -0.1626 -0.0248
 3205DPPC   C1A60149  20.837   1.282  16.268  0.4446 -0.1461 -0.1813
 3205DPPC   C2A60150  21.125   1.119  16.545  0.0309 -0.2014  0.0599
 3205DPPC   C3A60151  21.491   1.241  16.824 -0.0499  0.3569 -0.0211
 3205DPPC   C4A60152  21.379   1.226  17.204 -0.0252 -0.1676 -0.2975
 3205DPPC   C1B60153  20.958   1.993  15.571 -0.4226 -0.1990 -0.0771
 3205DPPC   C2B60154  20.940   2.448  15.389 -0.1207  0.0798 -0.1518
 3205DPPC   C3B60155  20.670   2.676  15.579 -0.3313 -0.0930  0.2129
 3205DPPC   C4B60156  20.507   2.818  16.018 -0.3968  0.1435  0.4129
 3206DPPC   NC360157  26.323  -2.637  12.789  0.2955  0.1972  0.2353
 3206DPPC   PO460158  26.102  -2.245  12.867 -0.0261  0.0297 -0.4297
 3206DPPC   GL160159  25.662  -2.201  13.104 -0.1715 -0.0327  0.1620
 3206DPPC   GL260160  25.397  -2.370  12.877 -0.2536 -0.2421 -0.1248
 3206DPPC   C1A60161  25.184  -2.031  13.214 -0.1468 -0.2152 -0.2541
 3206DPPC   C2A60162  24.890  -2.138  13.397  0.1312 -0.0782  0.0529
 3206DPPC   C3A60163  24.506  -2.183  13.466  0.0209  0.0261 -0.1152
 3206DPPC   C4A60164  24.165  -1.923  13.266 -0.2675  0.0752 -0.4029
 3206DPPC   C1B60165  25.096  -2.466  12.701  0.1959  0.0234  0.1309
 3206DPPC   C2B60166  24.752  -2.599  12.817 -0.0812  0.1735 -0.2043
 3206DPPC   C3B60167  24.348  -2.650  12.644  0.0695 -0.1257  0.1121
 3206DPPC   C4B60168  23.969  -2.938  12.695  0.1161  0.3619  0.1166
 3207DPPC   NC360169  14.857  12.214  16.704 -0.0032  0.1454  0.2279
 3207DPPC   PO460170  15.156  12.460  16.932 -0.0655  0.2551  0.0180
 3207DPPC   GL160171  14.992  12.170  17.165  0.0046  0.2160  0.1571
 3207DPPC   GL260172  14.726  11.926  17.127  0.2252 -0.3523 -0.2181
 3207DPPC   C1A60173  15.012  12.088  17.627  0.1723 -0.1396  0.1468
 3207DPPC   C2A60174  15.228  11.827  17.875  0.0724  0.0165 -0.2342
 3207DPPC   C3A60175  15.246  11.370  17.967  0.3718 -0.0063  0.1241
 3207DPPC   C4A60176  15.498  11.140  18.131 -0.0466 -0.0352 -0.1387
 3207DPPC   C1B60177  15.077  11.739  17.310  0.0711  0.0751 -0.3088
 3207DPPC   C2B60178  14.907  11.382  17.604 -0.0177 -0.2656  0.3906
 3207DPPC   C3B60179  14.650  10.994  17.592 -0.2015 -0.0919 -0.3141
 3207DPPC   C4B60180  14.557  10.683  17.954 -0.0701 -0.0829 -0.2078
 3208DPPC   NC360181  20.866  -2.253  13.456 -0.0108 -0.0678  0.2615
 3208DPPC   PO460182  20.992  -1.914  13.381 -0.3634  0.2194 -0.0674
 3208DPPC   GL160183  20.789  -2.120  12.993 -0.1851  0.1289  0.2304
 3208DPPC   GL260184  20.464  -2.062  13.122 -0.1145 -0.1485  0.0703
 3208DPPC   C1A60185  20.683  -2.047  12.582  0.1143 -0.2105  0.0587
 3208DPPC   C2A60186  20.393  -1.886  12.399  0.2995 -0.0459 -0.0183
 3208DPPC   C3A60187  20.354  -1.527  12.320  0.1928 -0.2335 -0.0190
 3208DPPC   C4A60188  20.248  -1.119  12.013  0.1213 -0.1904  0.1408
 3208DPPC   C1B60189  20.374  -2.489  12.811  0.1240  0.3777 -0.1049
 3208DPPC   C2B60190  20.087  -2.751  12.511 -0.1738  0.3750  0.1184
 3208DPPC   C3B60191  19.789  -3.064  12.241 -0.3173  0.1242 -0.1512
 3208DPPC   C4B60192  19.866  -3.369  11.850 -0.3080 -0.1059  0.0808
 3209DPPC   NC360193  22.103   3.369  11.657  0.2959  0.0603 -0.1601
 3209DPPC   PO460194  22.038   3.108  11.301 -0.1002  0.0862 -0.0176
 3209DPPC   GL160195  21.794   2.978  11.654  0.2203  0.3290  0.2540
 3209DPPC   GL260196  21.537   2.809  11.684  0.1131 -0.3238  0.0119
 3209DPPC   C1A60197  21.886   2.616  12.002 -0.2532 -0.0022  0.0724
 3209DPPC   C2A60198  21.985   2.617  12.473  0.2435 -0.0334 -0.0626
 3209DPPC   C3A60199  22.388   2.569  12.841  0.3301 -0.1349  0.2681
 3209DPPC   C4A60200  22.812   2.336  12.770  0.1559  0.0016 -0.2188
 3209DPPC   C1B60201  21.496   2.421  11.734 -0.0663  0.1918  0.3235
 3209DPPC   C2B60202  21.399   2.157  11.951 -0.0803 -0.1371  0.2527
 3209DPPC   C3B60203  21.396   1.784  12.131  0.1068  0.1383 -0.0075
 3209DPPC   C4B60204  21.365   1.411  12.439  0.1217  0.2218  0.0362
 3210DPPC   NC360205  20.172  -5.105  32.817 -0.1418 -0.0645  0.0216
 3210DPPC   PO460206  20.400  -4.773  32.688 -0.0370  0.3271 -0.0962
 3210DPPC   GL160207  20.195  -4.397  32.400 -0.0102  0.1297  0.3988
 3210DPPC   GL260208  20.265  -4.046  32.447 -0.4755 -0.0330 -0.1643
 3210DPPC   C1A60209  20.119  -4.162  31.991  0.0573  0.0532 -0.1794
 3210DPPC   C2A60210  20.335  -3.895  31.738  0.0430  0.2297 -0.0924
 3210DPPC   C3A60211  20.499  -3.889  31.325 -0.0815 -0.1366 -0.4360
 3210DPPC   C4A60212  20.436  -4.007  30.922 -0.1213 -0.0576  0.0176
 3210DPPC   C1B60213  20.064  -3.741  32.224  0.0617 -0.2060 -0.1202
 3210DPPC   C2B60214  20.080  -3.413  31.852  0.0732 -0.2929 -0.0733
 3210DPPC   C3B60215  20.197  -3.534  31.426  0.2701 -0.1561 -0.2169
 3210DPPC   C4B60216  20.064  -3.629  31.147 -0.1634 -0.1347  0.2923
 3211DPPC   NC360217  21.660   0.047  16.180  0.1566 -0.0398  0.3045
 3211DPPC   PO460218  21.873   0.084  16.575  0.3772  0.0406 -0.0880
 3211DPPC   GL160219  21.871   0.382  16.826  0.1520  0.2167  0.1432
 3211DPPC   GL260220  21.789   0.749  16.745 -0.0201 -0.3521 -0.1824
 3211DPPC   C1A60221  21.772   0.581  17.210 -0.4099 -0.1257  0.0061
 3211DPPC   C2A60222  21.698   0.941  17.581  0.1438  0.3754 -0.1140
 3211DPPC   C3A60223  21.354   0.948  17.760 -0.0510 -0.1164  0.1833
 3211DPPC   C4A60224  21.122   0.856  17.412 -0.1502 -0.3343 -0.1693
 3211DPPC   C1B60225  21.359   0.739  16.933 -0.3160  0.1626  0.0269
 3211DPPC   C2B60226  20.978   1.097  16.973  0.0658 -0.3125 -0.1420
 3211DPPC   C3B60227  20.958   1.521  16.825 -0.0879 -0.2174 -0.0326
 3211DPPC   C4B60228  20.742   1.777  16.541  0.1405  0.1179 -0.0187
 3212DPPC   NC360229  22.593   3.521  12.505  0.0477 -0.3099  0.4145
 3212DPPC   PO460230  22.567   3.746  12.913 -0.5827 -0.0590  0.1814
 3212DPPC   GL160231  22.242   3.731  13.321 -0.1474 -0.1509 -0.2000
 3212DPPC   GL260232  22.348   3.865  13.609  0.1475 -0.2535 -0.1608
 3212DPPC   C1A60233  21.965   3.428  13.444  0.2053  0.1330  0.2884
 3212DPPC   C2A60234  22.013   3.197  13.772 -0.1351 -0.1610  0.1337
 3212DPPC   C3A60235  22.443   3.390  13.770 -0.0986  0.1115 -0.1250
 3212DPPC   C4A60236  22.858   3.359  13.599 -0.2173 -0.1012  0.1183
 3212DPPC   C1B60237  22.002   3.820  13.877 -0.1048  0.1752  0.0742
 3212DPPC   C2B60238  21.602   3.683  14.057 -0.1160 -0.0814  0.2329
 3212DPPC   C3B60239  21.267   3.463  14.095  0.1573  0.2854  0.1448
 3212DPPC   C4B60240  20.851   3.463  14.009 -0.0047  0.3282 -0.2133
 3213DPPC   NC360241  18.303  -6.251  16.497  0.0045  0.0337 -0.0843
 3213DPPC   PO460242  17.779  -6.204  16.390  0.2372  0.3501 -0.0089
 3213DPPC   GL160243  17.317  -6.399  16.287  0.3286  0.1225  0.0048
 3213DPPC   GL260244  17.536  -6.407  15.990  0.0064 -0.0715  0.1567
 3213DPPC   C1A60245  16.863  -6.557  16.415  0.4747 -0.0560  0.0295
 3213DPPC   C2A60246  16.622  -6.854  16.090 -0.3387  0.2573 -0.1970
 3213DPPC   C3A60247  16.512  -6.805  15.678  0.0826  0.1221  0.3561
 3213DPPC   C4A60248  16.247  -6.586  15.603  0.2655  0.1437  0.0694
 3213DPPC   C1B60249  17.599  -6.749  15.667  0.1506 -0.0767  0.0401
 3213DPPC   C2B60250  17.783  -6.925  15.224  0.1969  0.0026 -0.0158
 3213DPPC   C3B60251  17.763  -6.941  14.858  0.1736 -0.1210  0.1975
 3213DPPC   C4B60252  17.854  -7.196  14.468  0.1251  0.1549 -0.0706
 3214DPPC   NC360253  27.147   2.704  17.609 -0.1118  0.0269  0.0542
 3214DPPC   PO460254  27.171   2.642  18.070  0.3441 -0.3040  0.5939
 3214DPPC   GL160255  26.779   2.621  18.335 -0.2144  0.2152 -0.1169
 3214DPPC   GL260256  26.392   2.629  18.407  0.0648  0.0187 -0.0574
 3214DPPC   C1A60257  26.660   2.339  18.759 -0.1809 -0.1871 -0.1312
 3214DPPC   C2A60258  26.447   2.418  19.101 -0.0540  0.2159  0.1549
 3214DPPC   C3A60259  26.081   2.723  19.264  0.4092  0.0171  0.0576
 3214DPPC   C4A60260  25.975   3.133  19.264  0.1787  0.2822  0.3066
 3214DPPC   C1B60261  26.097   2.443  18.744  0.1992  0.1419  0.2161
 3214DPPC   C2B60262  25.651   2.314  18.788  0.3742  0.0689 -0.2840
 3214DPPC   C3B60263  25.394   2.182  18.555  0.1362 -0.2292  0.0628
 3214DPPC   C4B60264  24.972   2.013  18.515  0.1883 -0.0643  0.1067
 3215DPPC   NC360265  18.820  -4.973  18.323  0.2571 -0.0785  0.0191
 3215DPPC   PO460266  18.314  -4.970  18.063  0.1147  0.1814 -0.2455
 3215DPPC   GL160267  17.993  -4.551  18.278 -0.1354  0.0585  0.0126
 3215DPPC   GL260268  17.702  -4.589  18.048 -0.0538  0.2521  0.2326
 3215DPPC   C1A60269  17.609  -4.486  18.534  0.2764  0.1280  0.0719
 3215DPPC   C2A60270  17.155  -4.423  18.570  0.1272  0.0809  0.2967
 3215DPPC   C3A60271  16.960  -4.189  18.780 -0.1212 -0.2618 -0.0291
 3215DPPC   C4A60272  16.727  -3.910  19.003 -0.2346 -0.0483  0.1436
 3215DPPC   C1B60273  17.281  -4.580  18.083  0.3040 -0.0622  0.2155
 3215DPPC   C2B60274  16.912  -4.943  17.964 -0.1021 -0.3256  0.0081
 3215DPPC   C3B60275  16.545  -5.075  18.118  0.2979 -0.1458  0.1919
 3215DPPC   C4B60276  16.324  -5.316  18.451  0.4097 -0.0705  0.2268
 3216DPPC   NC360277   3.508   2.375  29.466  0.1260 -0.3406  0.1435
 3216DPPC   PO460278   3.424   2.617  28.986 -0.1159 -0.1963 -0.0467
 3216DPPC   GL160279   3.755   2.485  28.739  0.0616 -0.2221 -0.0476
 3216DPPC   GL260280   3.806   2.161  28.692  0.0665 -0.0016 -0.1483
 3216DPPC   C1A60281   4.041   2.607  28.417  0.2407 -0.2063  0.4288
 3216DPPC   C2A60282   4.481   2.556  28.378 -0.2017 -0.0004  0.2078
 3216DPPC   C3A60283   4.841   2.852  28.413  0.3287  0.1096  0.2674
 3216DPPC   C4A60284   5.235   2.872  28.527 -0.1127  0.1548  0.0639
 3216DPPC   C1B60285   4.221   2.144  28.563 -0.1608 -0.3507  0.0634
 3216DPPC   C2B60286   4.758   2.114  28.472 -0.1608 -0.2186 -0.1260
 3216DPPC   C3B60287   5.014   2.321  28.309  0.3391  0.2920 -0.1445
 3216DPPC   C4B60288   5.211   2.351  27.946 -0.0609 -0.3317 -0.3666
 3217DPPC   NC360289   7.053  13.710  26.811 -0.0038 -0.3021 -0.1160
 3217DPPC   PO460290   6.700  13.533  26.854 -0.0402  0.1314  0.0202
 3217DPPC   GL160291   7.027  13.185  26.767 -0.0153 -0.1216  0.0475
 3217DPPC   GL260292   7.166  13.337  26.529 -0.2182 -0.2895 -0.3253
 3217DPPC   C1A60293   7.063  12.846  27.070  0.1108 -0.1690 -0.0196
 3217DPPC   C2A60294   7.442  12.633  27.329 -0.1219 -0.0271 -0.4937
 3217DPPC   C3A60295   7.935  12.639  27.474  0.2119  0.1072  0.2396
 3217DPPC   C4A60296   8.356  12.692  27.220 -0.0995  0.1886 -0.4064
 3217DPPC   C1B60297   7.424  12.958  26.653 -0.3164 -0.0948 -0.0090
 3217DPPC   C2B60298   7.666  12.662  26.821  0.3927 -0.0737 -0.2927
 3217DPPC   C3B60299   7.994  12.432  26.923 -0.2082 -0.3805  0.1301
 3217DPPC   C4B60300   8.383  12.276  27.018 -0.0699  0.1200 -0.1621
 3218DPPC   NC360301  21.268  -5.557  16.264 -0.0821 -0.0145 -0.1930
 3218DPPC   PO460302  20.983  -5.674  16.659 -0.1130  0.3043 -0.2157
 3218DPPC   GL160303  20.929  -6.105  16.416  0.0122  0.1210 -0.2216
 3218DPPC   GL260304  21.115  -6.087  16.165 -0.1702 -0.3205  0.1319
 3218DPPC   C1A60305  20.747  -6.394  16.077 -0.2886  0.2569 -0.0602
 3218DPPC   C2A60306  20.787  -6.753  15.975 -0.3922  0.0294 -0.0318
 3218DPPC   C3A60307  20.421  -7.122  16.111  0.0154  0.1960 -0.0848
 3218DPPC   C4A60308  19.991  -6.992  16.059  0.1401  0.1779  0.3228
 3218DPPC   C1B60309  21.164  -6.589  16.250  0.2627 -0.0522  0.1360
 3218DPPC   C2B60310  21.545  -6.817  16.354  0.1687 -0.1283  0.0690
 3218DPPC   C3B60311  22.013  -6.890  16.289  0.0025  0.2934 -0.0177
 3218DPPC   C4B60312  22.447  -6.811  16.057  0.4345  0.3993  0.1647
 3219DPPC   NC360313   6.354   8.830  33.545 -0.1942 -0.0100 -0.3549
 3219DPPC   PO460314   6.561   9.203  33.244 -0.0582  0.0269  0.1933
 3219DPPC   GL160315   6.741   9.218  32.802  0.1372  0.2292  0.0345
 3219DPPC   GL260316   6.887   9.432  32.575  0.1701  0.0589  0.2134
 3219DPPC   C1A60317   6.994   8.937  32.609 -0.1114  0.1113 -0.1301
 3219DPPC   C2A60318   7.167   8.756  32.300 -0.1501  0.1186  0.0270
 3219DPPC   C3A60319   7.517   8.643  32.021  0.4051  0.1595 -0.2007
 3219DPPC   C4A60320   7.685   8.420  31.758 -0.3601  0.1180 -0.1180
 3219DPPC   C1B60321   6.839   9.139  32.236  0.0525 -0.1148  0.4113
 3219DPPC   C2B60322   6.904   8.883  31.814  0.0166 -0.2106  0.0382
 3219DPPC   C3B60323   7.184   8.509  31.680 -0.2066 -0.1606  0.3428
 3219DPPC   C4B60324   7.315   8.486  31.266 -0.4909  0.1423  0.1586
 3220DPPC   NC360325  23.380  -4.074  16.545  0.2188  0.1374  0.0841
 3220DPPC   PO460326  23.268  -4.190  16.063 -0.2895 -0.1856 -0.0797
 3220DPPC   GL160327  23.485  -4.548  16.073 -0.0373  0.1171  0.1158
 3220DPPC   GL260328  23.451  -4.567  16.431 -0.1207  0.0539 -0.3634
 3220DPPC   C1A60329  23.957  -4.495  16.079  0.0697 -0.2847 -0.2831
 3220DPPC   C2A60330  24.238  -4.808  16.000  0.3531 -0.0911 -0.0087
 3220DPPC   C3A60331  24.533  -5.069  16.284  0.2549  0.1945  0.0919
 3220DPPC   C4A60332  24.968  -5.075  16.332 -0.1725  0.0867  0.1842
 3220DPPC   C1B60333  23.758  -4.754  16.443  0.1289 -0.0809  0.0159
 3220DPPC   C2B60334  24.204  -4.746  16.489  0.2149 -0.0744 -0.0769
 3220DPPC   C3B60335  24.485  -4.632  16.728 -0.0483  0.1523  0.0206
 3220DPPC   C4B60336  24.761  -4.316  16.765  0.2215 -0.5248 -0.0185
 3221DPPC   NC360337  17.367  -4.864  17.064  0.0736  0.1219 -0.1421
 3221DPPC   PO460338  17.082  -5.144  17.055 -0.0907  0.2050  0.1984
 3221DPPC   GL160339  16.724  -4.982  17.146  0.0299  0.1072 -0.4120
 3221DPPC   GL260340  16.463  -5.095  16.987  0.0045  0.1256 -0.0394
 3221DPPC   C1A60341  16.707  -4.579  17.133 -0.1897  0.0973 -0.0055
 3221DPPC   C2A60342  16.730  -4.208  17.397  0.0738  0.1936  0.0010
 3221DPPC   C3A60343  16.811  -3.863  17.600 -0.2517 -0.0488 -0.1237
 3221DPPC   C4A60344  17.088  -3.540  17.541 -0.0541  0.3275 -0.2533
 3221DPPC   C1B60345  16.275  -5.003  17.339  0.0462  0.0089  0.1169
 3221DPPC   C2B60346  16.064  -5.060  17.656 -0.1785 -0.1033  0.2274
 3221DPPC   C3B60347  15.583  -5.194  17.722  0.3916  0.1386 -0.0745
 3221DPPC   C4B60348  15.442  -5.362  17.354 -0.1552  0.1080  0.1608
 3222DPPC   NC360349   2.268   4.490  25.055 -0.0221 -0.2506  0.1766
 3222DPPC   PO460350   2.526   4.108  25.042 -0.0236 -0.0034  0.0439
 3222DPPC   GL160351   2.858   4.081  25.191  0.0054 -0.1420 -0.1775
 3222DPPC   GL260352   3.120   4.137  24.927  0.2758  0.1256  0.2204
 3222DPPC   C1A60353   3.165   4.225  25.503  0.0778  0.0289  0.2168
 3222DPPC   C2A60354   3.537   4.470  25.463 -0.0439 -0.0885 -0.2540
 3222DPPC   C3A60355   3.888   4.697  25.146 -0.1879 -0.0244  0.0052
 3222DPPC   C4A60356   3.612   5.018  24.954 -0.0255  0.3115  0.0897
 3222DPPC   C1B60357   3.356   3.891  25.060 -0.2203 -0.2910 -0.0567
 3222DPPC   C2B60358   3.555   3.637  25.299 -0.0168 -0.1644 -0.0229
 3222DPPC   C3B60359   3.727   3.304  25.449  0.0391  0.2795 -0.1538
 3222DPPC   C4B60360   3.857   2.845  25.303  0.0266 -0.1018  0.2453
 3223DPPC   NC360361  22.509   0.183  14.291  0.1364 -0.0143 -0.0943
 3223DPPC   PO460362  22.260  -0.154  14.256  0.1222 -0.0989  0.0608
 3223DPPC   GL160363  22.410  -0.126  13.807  0.1023  0.0426 -0.0360
 3223DPPC   GL260364  22.725  -0.331  13.693 -0.3155 -0.2816 -0.2813
 3223DPPC   C1A60365  22.511   0.002  13.362  0.2068  0.1711  0.0085
 3223DPPC   C2A60366  22.876  -0.154  13.239  0.2444 -0.0652 -0.3054
 3223DPPC   C3A60367  23.054  -0.411  12.925  0.2320 -0.1739  0.1227
 3223DPPC   C4A60368  23.465  -0.373  12.901 -0.0060  0.1923  0.0919
 3223DPPC   C1B60369  22.768  -0.661  13.697 -0.1370  0.1017  0.3334
 3223DPPC   C2B60370  22.922  -1.030  13.690 -0.4832  0.2820 -0.1319
 3223DPPC   C3B60371  22.986  -1.450  13.578  0.1191 -0.2346  0.0067
 3223DPPC   C4B60372  22.640  -1.720  13.799  0.2375  0.2394 -0.1040
 3224DPPC   NC360373  22.769  -4.442  17.678 -0.1107  0.0899  0.4740
 3224DPPC   PO460374  22.955  -4.801  17.896 -0.2407 -0.0620 -0.1224
 3224DPPC   GL160375  23.368  -4.981  17.834 -0.0554  0.3145  0.0234
 3224DPPC   GL260376  23.621  -4.961  17.975 -0.1195 -0.2505  0.0643
 3224DPPC   C1A60377  23.537  -5.432  17.695 -0.1913 -0.2048  0.2570
 3224DPPC   C2A60378  23.613  -5.807  17.542 -0.1135  0.2768  0.1684
 3224DPPC   C3A60379  23.921  -5.961  17.304 -0.0483 -0.0049  0.1127
 3224DPPC   C4A60380  24.278  -5.889  17.225  0.0565  0.1909  0.1221
 3224DPPC   C1B60381  23.571  -5.118  18.284  0.1042  0.3524 -0.3467
 3224DPPC   C2B60382  23.576  -5.131  18.726 -0.0347  0.0708  0.3592
 3224DPPC   C3B60383  23.750  -4.971  19.033  0.2173  0.0634 -0.2436
 3224DPPC   C4B60384  24.015  -4.734  19.239 -0.0463 -0.1872 -0.1212
 3225DPPC   NC360385  21.598  -1.622   9.745  0.0849  0.0338  0.2712
 3225DPPC   PO460386  21.744  -2.002   9.857  0.0359 -0.0978 -0.0974
 3225DPPC   GL160387  21.423  -1.787  10.184  0.0165  0.3092  0.1836
 3225DPPC   GL260388  21.158  -1.577  10.029 -0.2202  0.0345 -0.2278
 3225DPPC   C1A60389  21.452  -1.884  10.622  0.1417  0.0818  0.0425
 3225DPPC   C2A60390  21.445  -1.483  11.021  0.1913 -0.0203  0.2092
 3225DPPC   C3A60391  21.388  -1.145  11.370  0.1891  0.2095  0.0106
 3225DPPC   C4A60392  21.079  -1.035  11.684 -0.1055 -0.2397 -0.2061
 3225DPPC   C1B60393  20.984  -1.152  10.285  0.1613  0.1645 -0.2610
 3225DPPC   C2B60394  20.630  -1.152  10.625 -0.2797  0.0456  0.0505
 3225DPPC   C3B60395  20.669  -1.287  11.068  0.4219  0.3350 -0.2759
 3225DPPC   C4B60396  20.597  -1.264  11.605  0.1808 -0.1034  0.1219
 3226DPPC   NC360397  18.441  -4.791  14.826  0.1712 -0.2292  0.1019
 3226DPPC   PO460398  18.340  -4.538  14.436  0.1213  0.3418 -0.0273
 3226DPPC   GL160399  18.334  -4.603  13.997  0.0461 -0.1861 -0.3477
 3226DPPC   GL260400  17.973  -4.562  13.881  0.1460 -0.0688 -0.1006
 3226DPPC   C1A60401  18.285  -4.978  13.854  0.1088 -0.0007  0.0748
 3226DPPC   C2A60402  18.411  -5.303  13.514  0.0374  0.2462 -0.3416
 3226DPPC   C3A60403  18.595  -5.649  13.470 -0.1239 -0.3331  0.1508
 3226DPPC   C4A60404  18.835  -6.039  13.271  0.2827  0.1330 -0.0032
 3226DPPC   C1B60405  17.837  -4.660  13.557 -0.3110 -0.1231  0.0518
 3226DPPC   C2B60406  17.938  -4.545  13.064 -0.0358 -0.2076  0.0087
 3226DPPC   C3B60407  18.210  -4.449  12.725 -0.2824 -0.2904  0.0315
 3226DPPC   C4B60408  18.644  -4.473  12.743 -0.0263 -0.1883 -0.1641
 3227DPPC   NC360409  20.804  14.510  31.649 -0.1151  0.1502 -0.1780
 3227DPPC   PO460410  20.430  14.643  31.365  0.0941  0.1514 -0.2360
 3227DPPC   GL160411  20.288  14.444  30.931  0.1181 -0.1374 -0.3505
 3227DPPC   GL260412  20.332  14.085  30.997  0.0930 -0.0355 -0.0829
 3227DPPC   C1A60413  20.262  14.526  30.487  0.2147 -0.0359 -0.2289
 3227DPPC   C2A60414  20.106  14.343  30.154  0.1002 -0.0941 -0.0811
 3227DPPC   C3A60415  20.150  13.978  29.935  0.1351  0.0623  0.0277
 3227DPPC   C4A60416  20.128  13.626  30.107  0.2983 -0.0457 -0.0675
 3227DPPC   C1B60417  20.566  13.682  31.088  0.0786 -0.2608  0.0346
 3227DPPC   C2B60418  20.382  13.305  31.081 -0.1129 -0.0059 -0.1304
 3227DPPC   C3B60419  20.214  12.873  31.187  0.2124 -0.3055  0.0563
 3227DPPC   C4B60420  19.690  12.769  31.114 -0.0300 -0.1335 -0.3862
 3228DPPC   NC360421  27.334  -3.299  16.301 -0.2067  0.0660 -0.2449
 3228DPPC   PO460422  27.420  -3.698  16.042  0.1611  0.1949 -0.2508
 3228DPPC   GL160423  26.947  -3.569  15.967 -0.1151  0.3088 -0.1410
 3228DPPC   GL260424  26.914  -3.470  16.189 -0.0479 -0.1276  0.0849
 3228DPPC   C1A60425  26.566  -3.384  15.765 -0.0806 -0.0525 -0.1831
 3228DPPC   C2A60426  26.087  -3.287  15.837 -0.0213  0.1878  0.0079
 3228DPPC   C3A60427  25.665  -3.131  15.932  0.0974 -0.2623 -0.1155
 3228DPPC   C4A60428  25.172  -2.985  16.042  0.2091  0.0915  0.3529
 3228DPPC   C1B60429  26.449  -3.385  16.253  0.1053  0.2430  0.0496
 3228DPPC   C2B60430  26.021  -3.308  16.372 -0.2887  0.3911  0.3760
 3228DPPC   C3B60431  25.670  -3.470  16.403  0.0611  0.0045 -0.0807
 3228DPPC   C4B60432  25.324  -3.224  16.427 -0.1286  0.0097  0.2569
 3229DPPC   NC360433  18.016  -0.121  14.899 -0.1676 -0.0770 -0.3026
 3229DPPC   PO460434  17.789  -0.241  14.618 -0.0064  0.0522  0.0297
 3229DPPC   GL160435  17.573  -0.071  14.313  0.1450 -0.1601 -0.0171
 3229DPPC   GL260436  17.375  -0.247  14.208  0.0944 -0.0026  0.0137
 3229DPPC   C1A60437  17.229   0.327  14.181  0.1506  0.0856  0.1446
 3229DPPC   C2A60438  17.037   0.391  13.767 -0.0833 -0.0316  0.0210
 3229DPPC   C3A60439  17.138   0.195  13.418  0.0208  0.0252  0.1908
 3229DPPC   C4A60440  17.229   0.144  12.992  0.1356  0.4596  0.4314
 3229DPPC   C1B60441  16.970  -0.076  13.914 -0.0922  0.0776 -0.1056
 3229DPPC   C2B60442  16.513   0.118  13.803 -0.1839 -0.1621 -0.1534
 3229DPPC   C3B60443  16.138  -0.097  13.687  0.0887 -0.2355 -0.0831
 3229DPPC   C4B60444  16.028  -0.399  13.464  0.0399  0.1071  0.0418
 3230DPPC   NC360445  17.284  -3.116  14.963  0.1428  0.1418  0.1752
 3230DPPC   PO460446  16.908  -3.230  14.771 -0.1984 -0.2035  0.2074
 3230DPPC   GL160447  16.456  -2.917  14.821 -0.0546 -0.0470  0.1344
 3230DPPC   GL260448  16.381  -2.965  14.439 -0.0645  0.2893  0.5147
 3230DPPC   C1A60449  16.097  -2.755  15.024 -0.0537  0.0493  0.1499
 3230DPPC   C2A60450  15.859  -2.586  15.324  0.1024  0.1517  0.0672
 3230DPPC   C3A60451  15.491  -2.658  15.513 -0.1666 -0.2133 -0.1975
 3230DPPC   C4A60452  15.292  -3.130  15.604  0.1481  0.0245  0.2264
 3230DPPC   C1B60453  16.064  -2.766  14.512  0.0098 -0.1382 -0.0628
 3230DPPC   C2B60454  15.744  -2.521  14.644 -0.1966  0.0553  0.0618
 3230DPPC   C3B60455  15.507  -2.144  14.597 -0.0932 -0.0132  0.0863
 3230DPPC   C4B60456  15.420  -1.953  14.228  0.0635  0.1253 -0.0017
 3231DPPC   NC360457  21.986  14.462  26.759 -0.0734 -0.2192 -0.2822
 3231DPPC   PO460458  22.213  14.566  27.178 -0.2279  0.1220  0.0067
 3231DPPC   GL160459  21.993  14.196  27.280  0.0363  0.1452  0.3552
 3231DPPC   GL260460  21.698  14.092  27.314  0.0667 -0.0116  0.0424
 3231DPPC   C1A60461  22.017  13.747  27.047 -0.2824 -0.3801  0.0054
 3231DPPC   C2A60462  22.109  13.380  26.949  0.2777  0.0997  0.1415
 3231DPPC   C3A60463  21.930  13.080  26.690 -0.2708 -0.1557 -0.1144
 3231DPPC   C4A60464  21.912  12.673  26.487 -0.0363  0.0071 -0.1458
 3231DPPC   C1B60465  21.295  14.106  27.379 -0.2826  0.2380 -0.0934
 3231DPPC   C2B60466  20.948  14.426  27.194 -0.0908 -0.1818  0.1039
 3231DPPC   C3B60467  20.509  14.353  27.253 -0.2056 -0.1014 -0.1422
 3231DPPC   C4B60468  20.143  14.256  27.539 -0.0543 -0.0649 -0.2447
 3232DPPC   NC360469   4.922   8.606  30.780  0.0128 -0.0518  0.1424
 3232DPPC   PO460470   4.862   8.776  30.374 -0.1312  0.4408  0.0906
 3232DPPC   GL160471   5.331   8.955  30.378 -0.1604 -0.1151 -0.3065
 3232DPPC   GL260472   5.385   9.180  30.216 -0.3014  0.2078 -0.3708
 3232DPPC   C1A60473   5.705   8.704  30.313 -0.0469  0.0881 -0.3183
 3232DPPC   C2A60474   6.047   8.527  30.151  0.2729  0.0969 -0.1853
 3232DPPC   C3A60475   6.167   8.291  29.900 -0.1739  0.0573 -0.2550
 3232DPPC   C4A60476   6.182   8.264  29.560  0.4151 -0.2096 -0.1371
 3232DPPC   C1B60477   5.807   9.084  30.037  0.1013 -0.3016  0.2507
 3232DPPC   C2B60478   6.149   9.165  29.634  0.2445  0.1396 -0.1329
 3232DPPC   C3B60479   6.539   9.094  29.434  0.1652 -0.0082 -0.1392
 3232DPPC   C4B60480   6.872   9.084  29.365  0.0074 -0.1486 -0.1381
 3233DPPC   NC360481  21.286  -1.238  13.648  0.1552 -0.0356  0.0581
 3233DPPC   PO460482  21.481  -1.676  13.550 -0.1558 -0.0335 -0.1679
 3233DPPC   GL160483  21.835  -1.855  13.339  0.3345  0.0980  0.1774
 3233DPPC   GL260484  21.606  -1.978  13.147  0.0247 -0.4521 -0.0588
 3233DPPC   C1A60485  21.945  -1.789  12.890  0.1037  0.2178 -0.2279
 3233DPPC   C2A60486  22.070  -1.373  12.532 -0.2930 -0.0452 -0.2179
 3233DPPC   C3A60487  21.920  -1.118  12.197  0.1789  0.0120  0.1318
 3233DPPC   C4A60488  21.986  -0.847  11.967 -0.1691 -0.1655 -0.1466
 3233DPPC   C1B60489  21.408  -1.764  12.872  0.0845 -0.2320 -0.1391
 3233DPPC   C2B60490  21.602  -1.422  12.856 -0.0070 -0.3322  0.4123
 3233DPPC   C3B60491  21.673  -0.939  12.612  0.1039  0.0930 -0.1226
 3233DPPC   C4B60492  21.815  -0.570  12.432 -0.1220 -0.0306  0.0330
 3234DPPC   NC360493  28.279  -1.360  24.410  0.0825  0.1335  0.0800
 3234DPPC   PO460494  27.970  -1.534  24.087 -0.4301 -0.1740 -0.2894
 3234DPPC   GL160495  27.632  -1.512  23.733 -0.0235 -0.1408 -0.1579
 3234DPPC   GL260496  27.209  -1.491  23.716 -0.1763  0.0806 -0.0093
 3234DPPC   C1A60497  27.482  -1.116  23.666 -0.0964 -0.0640  0.0113
 3234DPPC   C2A60498  27.196  -0.774  23.759  0.1884  0.0908  0.1241
 3234DPPC   C3A60499  27.038  -0.671  24.137  0.4126 -0.1509 -0.0565
 3234DPPC   C4A60500  26.660  -0.632  24.380 -0.2933  0.3354  0.1297
 3234DPPC   C1B60501  26.984  -1.163  23.502 -0.3298  0.2530 -0.1036
 3234DPPC   C2B60502  26.766  -0.994  23.718 -0.1525 -0.2788 -0.2950
 3234DPPC   C3B60503  26.502  -0.661  23.779  0.4314 -0.1311  0.2976
 3234DPPC   C4B60504  26.153  -0.502  23.525  0.0183  0.1713  0.0467
 3235DPPC   NC360505   4.621   9.244  28.648  0.1269 -0.0232  0.1372
 3235DPPC   PO460506   4.385   9.212  28.286  0.1829 -0.0624 -0.2114
 3235DPPC   GL160507   4.858   9.207  28.219  0.1230 -0.4766  0.1316
 3235DPPC   GL260508   4.804   9.043  27.866  0.0047  0.0146  0.1810
 3235DPPC   C1A60509   5.321   9.144  28.074 -0.2887  0.1203  0.1348
 3235DPPC   C2A60510   5.614   8.949  27.695 -0.0005 -0.1754  0.1059
 3235DPPC   C3A60511   5.981   8.866  27.558  0.2893  0.1223 -0.1719
 3235DPPC   C4A60512   6.371   8.646  27.401  0.0992  0.0444 -0.0546
 3235DPPC   C1B60513   5.084   8.734  28.175 -0.0553 -0.0215 -0.0615
 3235DPPC   C2B60514   5.558   8.676  28.219  0.1487  0.0946 -0.2310
 3235DPPC   C3B60515   5.985   8.579  27.946 -0.0763  0.1108  0.2468
 3235DPPC   C4B60516   6.310   8.314  27.821  0.1180 -0.2729 -0.1635
 3236DPPC   NC360517  27.773   2.373  19.543 -0.0241  0.0645 -0.3213
 3236DPPC   PO460518  28.028   2.587  19.945  0.1755 -0.0682  0.1744
 3236DPPC   GL160519  27.612   2.494  20.172  0.1099  0.0297  0.4171
 3236DPPC   GL260520  27.349   2.491  19.933 -0.1158  0.1944 -0.2835
 3236DPPC   C1A60521  27.140   2.315  20.411  0.3234  0.0710  0.0948
 3236DPPC   C2A60522  26.739   2.010  20.413  0.0292  0.1292  0.1090
 3236DPPC   C3A60523  26.177   1.976  20.464  0.0189  0.0607  0.3285
 3236DPPC   C4A60524  25.880   2.054  20.198 -0.3268 -0.0366  0.0676
 3236DPPC   C1B60525  27.080   2.165  19.855 -0.0418 -0.1945  0.2416
 3236DPPC   C2B60526  26.716   1.855  19.829 -0.2374 -0.1157  0.1107
 3236DPPC   C3B60527  26.298   1.710  19.550 -0.0234 -0.0096  0.0756
 3236DPPC   C4B60528  25.893   1.695  19.348 -0.0258 -0.3794  0.1211
 3237DPPC   NC360529  25.111  10.765  19.735 -0.0836  0.2192 -0.0485
 3237DPPC   PO460530  25.437  10.967  19.878  0.0299  0.0557 -0.1016
 3237DPPC   GL160531  25.095  10.981  20.224 -0.2347  0.0133  0.0292
 3237DPPC   GL260532  24.898  10.748  20.193 -0.1551  0.0733 -0.0703
 3237DPPC   C1A60533  24.630  11.089  20.461  0.0437  0.2042 -0.2579
 3237DPPC   C2A60534  24.159  11.036  20.264  0.1103  0.1438 -0.0278
 3237DPPC   C3A60535  23.772  11.137  20.163  0.2448  0.0541  0.3110
 3237DPPC   C4A60536  23.454  11.330  19.808  0.1419  0.0818  0.0650
 3237DPPC   C1B60537  24.434  10.774  19.977 -0.0826  0.2680  0.2090
 3237DPPC   C2B60538  24.109  10.580  20.008  0.0873  0.2333  0.2426
 3237DPPC   C3B60539  23.775  10.150  20.062 -0.4182 -0.0535  0.5672
 3237DPPC   C4B60540  23.522   9.914  20.106  0.2146  0.3343  0.0560
 3238DPPC   NC360541  18.956  -5.308  15.305 -0.1546  0.1062  0.1862
 3238DPPC   PO460542  18.661  -5.398  15.083 -0.2634  0.0655  0.0819
 3238DPPC   GL160543  18.738  -5.739  14.842 -0.1305 -0.1666 -0.4332
 3238DPPC   GL260544  18.928  -5.868  14.793  0.0114 -0.1413 -0.0028
 3238DPPC   C1A60545  18.545  -6.055  14.932  0.0668  0.5609 -0.0020
 3238DPPC   C2A60546  18.538  -6.496  14.853 -0.3808  0.1545  0.1607
 3238DPPC   C3A60547  18.682  -6.630  14.493  0.2848 -0.1608 -0.1742
 3238DPPC   C4A60548  18.852  -6.804  14.114  0.0927  0.3192 -0.0080
 3238DPPC   C1B60549  19.153  -6.207  14.598  0.0459  0.0834 -0.0017
 3238DPPC   C2B60550  19.367  -6.592  14.403  0.0419 -0.1163  0.1346
 3238DPPC   C3B60551  19.543  -6.580  13.930 -0.3208  0.3660  0.0475
 3238DPPC   C4B60552  19.460  -6.762  13.603 -0.1899  0.0382 -0.5114
 3239DPPC   NC360553  21.575  -8.999  15.368 -0.2146 -0.1658  0.0104
 3239DPPC   PO460554  21.481  -9.047  14.981  0.2630  0.0349 -0.1256
 3239DPPC   GL160555  21.207  -8.645  14.926  0.0213  0.3487 -0.2246
 3239DPPC   GL260556  21.299  -8.313  14.856 -0.2783 -0.2069 -0.0384
 3239DPPC   C1A60557  21.128  -8.506  15.376  0.0993  0.0731  0.2126
 3239DPPC   C2A60558  20.939  -8.236  15.595  0.0222 -0.0136  0.0955
 3239DPPC   C3A60559  20.693  -7.942  15.779 -0.1469 -0.0280  0.3393
 3239DPPC   C4A60560  20.418  -7.672  16.063  0.0606 -0.1131 -0.0347
 3239DPPC   C1B60561  21.129  -7.877  14.946  0.0183 -0.2177 -0.1763
 3239DPPC   C2B60562  21.170  -7.418  15.051 -0.1336 -0.0602  0.4688
 3239DPPC   C3B60563  21.193  -7.000  14.917 -0.3291 -0.0277 -0.0215
 3239DPPC   C4B60564  21.122  -6.536  14.928  0.3196 -0.4114  0.2331
 3240DPPC   NC360565  19.298   9.321  13.988 -0.0884  0.1342 -0.0153
 3240DPPC   PO460566  19.181   8.900  13.751  0.1195  0.1424 -0.2121
 3240DPPC   GL160567  19.035   8.575  13.825  0.1343  0.1400  0.2894
 3240DPPC   GL260568  19.213   8.295  13.904  0.1301 -0.0253 -0.0523
 3240DPPC   C1A60569  18.754   8.401  14.087  0.0072 -0.2913  0.1124
 3240DPPC   C2A60570  18.397   8.266  14.268 -0.0455  0.1926 -0.0338
 3240DPPC   C3A60571  18.239   8.261  14.647 -0.0143 -0.0052 -0.4613
 3240DPPC   C4A60572  18.145   7.843  14.912  0.1843  0.0299 -0.2410
 3240DPPC   C1B60573  19.382   8.239  14.311 -0.0696 -0.0336  0.0941
 3240DPPC   C2B60574  19.274   8.282  14.754  0.2407 -0.0771  0.1654
 3240DPPC   C3B60575  18.963   8.557  14.951 -0.0247 -0.0746 -0.0962
 3240DPPC   C4B60576  18.771   8.546  15.349  0.0457  0.1226 -0.0649
 3241DPPC   NC360577  19.275  -5.087  18.039  0.3239 -0.0871  0.1263
 3241DPPC   PO460578  19.219  -4.705  18.326 -0.1774 -0.4171 -0.0992
 3241DPPC   GL160579  18.831  -4.618  18.688 -0.1474 -0.3032  0.4729
 3241DPPC   GL260580  18.731  -4.908  18.828 -0.0665 -0.1354  0.0430
 3241DPPC   C1A60581  18.333  -4.577  18.704  0.1878  0.1436 -0.2994
 3241DPPC   C2A60582  18.250  -4.816  19.043  0.0815  0.0221 -0.2738
 3241DPPC   C3A60583  18.036  -5.096  19.348 -0.0813 -0.1460 -0.2085
 3241DPPC   C4A60584  18.014  -5.556  19.278  0.1635  0.1658  0.2399
 3241DPPC   C1B60585  18.527  -5.170  19.170 -0.0409  0.1558 -0.0789
 3241DPPC   C2B60586  18.529  -5.650  19.341  0.0459 -0.2075 -0.0612
 3241DPPC   C3B60587  18.850  -5.869  19.147 -0.0676  0.0378 -0.0757
 3241DPPC   C4B60588  19.188  -6.250  19.003 -0.0926  0.0410  0.0650
 3242DPPC   NC360589  18.960  15.734  25.467  0.0515 -0.1425  0.0902
 3242DPPC   PO460590  18.523  15.706  25.210 -0.2386 -0.1639  0.1558
 3242DPPC   GL160591  18.735  15.316  25.253 -0.0502  0.0647  0.1905
 3242DPPC   GL260592  18.646  15.204  24.915 -0.3291  0.1460  0.1435
 3242DPPC   C1A60593  18.991  15.009  25.226  0.0408 -0.1925 -0.3950
 3242DPPC   C2A60594  18.878  14.752  24.981 -0.0117  0.0506  0.1060
 3242DPPC   C3A60595  18.755  14.500  24.723  0.0033 -0.3812  0.1806
 3242DPPC   C4A60596  18.823  14.156  24.361 -0.1908 -0.0287 -0.1034
 3242DPPC   C1B60597  18.363  14.899  24.781  0.4022  0.1994 -0.0972
 3242DPPC   C2B60598  18.286  14.468  24.747 -0.0612  0.2036 -0.3055
 3242DPPC   C3B60599  18.367  14.104  24.552 -0.3445  0.0113 -0.0553
 3242DPPC   C4B60600  18.231  13.739  24.326  0.3395  0.0370 -0.1018
 3243DPPC   NC360601  20.580  -0.410  13.304 -0.2514  0.1164  0.0285
 3243DPPC   PO460602  20.311  -0.910  13.298 -0.0271 -0.1723  0.0374
 3243DPPC   GL160603  20.424  -0.708  12.959 -0.1151  0.1688 -0.0246
 3243DPPC   GL260604  20.245  -0.422  12.932 -0.0406  0.3919 -0.0452
 3243DPPC   C1A60605  20.758  -0.655  12.542 -0.0248  0.3604 -0.1152
 3243DPPC   C2A60606  20.890  -0.347  12.284  0.0072  0.2211 -0.0670
 3243DPPC   C3A60607  20.822  -0.135  11.925  0.2383  0.0021 -0.0336
 3243DPPC   C4A60608  20.453  -0.185  11.681  0.0377  0.0399  0.1602
 3243DPPC   C1B60609  20.510  -0.209  12.632  0.0887  0.0821  0.1590
 3243DPPC   C2B60610  20.616   0.345  12.494 -0.0917 -0.1003  0.2339
 3243DPPC   C3B60611  20.653   0.870  12.355 -0.0650  0.1424  0.0376
 3243DPPC   C4B60612  20.469   1.353  12.463  0.0524  0.1677  0.1057
 3244DPPC   NC360613   4.781   6.758  19.634  0.2440  0.0779  0.2137
 3244DPPC   PO460614   4.962   7.154  19.878 -0.0252  0.0820 -0.1244
 3244DPPC   GL160615   5.251   6.758  19.958 -0.3266 -0.4763  0.3174
 3244DPPC   GL260616   5.346   6.838  20.275  0.1599 -0.1392  0.0111
 3244DPPC   C1A60617   5.662   6.433  19.954  0.0446  0.0562 -0.0892
 3244DPPC   C2A60618   5.689   5.985  19.973  0.1292  0.2531 -0.0090
 3244DPPC   C3A60619   5.929   5.701  19.890 -0.2888 -0.3194 -0.1122
 3244DPPC   C4A60620   6.375   5.665  19.989 -0.0141  0.0159  0.0642
 3244DPPC   C1B60621   5.572   6.617  20.695 -0.1240 -0.0075  0.0697
 3244DPPC   C2B60622   5.831   6.457  21.139  0.1448 -0.0655 -0.1351
 3244DPPC   C3B60623   6.075   6.755  21.429 -0.4030 -0.2393 -0.0484
 3244DPPC   C4B60624   6.157   7.118  21.816  0.2077 -0.1370 -0.1454
 3245DPPC   NC360625   7.675  13.505  29.402 -0.3724  0.1039  0.3376
 3245DPPC   PO460626   7.484  13.127  29.634  0.1674  0.1032  0.1507
 3245DPPC   GL160627   7.726  12.970  29.426 -0.0592 -0.0738  0.0249
 3245DPPC   GL260628   7.483  12.825  29.223  0.1111 -0.0711  0.0866
 3245DPPC   C1A60629   8.059  12.686  29.244 -0.1092  0.1663  0.0261
 3245DPPC   C2A60630   8.242  12.345  29.080  0.2839  0.0358 -0.1871
 3245DPPC   C3A60631   8.267  11.864  28.937  0.1484 -0.0566 -0.0882
 3245DPPC   C4A60632   8.432  11.611  29.124 -0.0485 -0.2036  0.1973
 3245DPPC   C1B60633   7.628  12.493  29.289 -0.0473  0.0512  0.0167
 3245DPPC   C2B60634   7.794  12.071  29.252  0.3612  0.1389 -0.0459
 3245DPPC   C3B60635   8.153  11.937  29.466 -0.0264  0.0879  0.0557
 3245DPPC   C4B60636   8.558  12.063  29.387 -0.0438 -0.2154 -0.0906
 3246DPPC   NC360637  25.257  -4.914  22.014  0.0289  0.1309  0.2290
 3246DPPC   PO460638  25.420  -4.725  21.753  0.0625 -0.0534 -0.0537
 3246DPPC   GL160639  24.944  -4.573  21.839  0.1749  0.0915 -0.2351
 3246DPPC   GL260640  24.934  -4.364  21.500 -0.0284  0.0072  0.0562
 3246DPPC   C1A60641  24.669  -4.183  21.994 -0.1959  0.0114 -0.1843
 3246DPPC   C2A60642  24.351  -3.786  22.082 -0.2259 -0.0532 -0.3477
 3246DPPC   C3A60643  24.048  -3.453  22.145  0.3180 -0.5526  0.3142
 3246DPPC   C4A60644  23.853  -3.073  22.196  0.2310  0.1187 -0.0451
 3246DPPC   C1B60645  24.576  -4.148  21.274  0.3375  0.1690 -0.0626
 3246DPPC   C2B60646  24.165  -4.014  21.203 -0.5570  0.0701 -0.2780
 3246DPPC   C3B60647  23.736  -4.055  21.098  0.0195  0.0525  0.2393
 3246DPPC   C4B60648  23.416  -3.887  20.949 -0.2015  0.0374 -0.2107
 3247DPPC   NC360649  18.448  -7.989  11.824  0.0244  0.1989  0.2013
 3247DPPC   PO460650  18.623  -8.124  12.077 -0.0257  0.4479 -0.0604
 3247DPPC   GL160651  18.559  -7.837  12.414 -0.0862 -0.3185 -0.1176
 3247DPPC   GL260652  18.472  -7.629  12.271 -0.0126  0.3583  0.0843
 3247DPPC   C1A60653  18.462  -7.848  12.819  0.1259 -0.2105  0.1639
 3247DPPC   C2A60654  18.562  -7.549  13.172  0.1650  0.0463 -0.0024
 3247DPPC   C3A60655  18.527  -7.209  13.547  0.4220 -0.1284 -0.0992
 3247DPPC   C4A60656  18.515  -7.243  14.000 -0.2149 -0.3916 -0.0357
 3247DPPC   C1B60657  18.507  -7.339  12.648  0.0974  0.0665 -0.1971
 3247DPPC   C2B60658  18.844  -7.167  12.868  0.3951 -0.1287 -0.1492
 3247DPPC   C3B60659  18.927  -7.067  13.267  0.2168 -0.0582  0.1509
 3247DPPC   C4B60660  19.036  -7.082  13.636  0.0315  0.0226  0.0375
 3248DPPC   NC360661  19.701  -5.874  19.098 -0.1357 -0.2655 -0.0744
 3248DPPC   PO460662  19.737  -5.843  19.527 -0.0955 -0.0538 -0.0243
 3248DPPC   GL160663  19.730  -5.454  19.784 -0.0418  0.1098  0.1080
 3248DPPC   GL260664  19.887  -5.174  19.902  0.1512  0.2469 -0.0114
 3248DPPC   C1A60665  19.411  -5.164  19.778  0.2266  0.2943  0.0103
 3248DPPC   C2A60666  19.141  -4.793  19.832  0.2132 -0.0898  0.3106
 3248DPPC   C3A60667  18.997  -4.505  20.200  0.1425 -0.2331  0.3428
 3248DPPC   C4A60668  19.113  -4.220  20.398 -0.2377 -0.0502  0.0099
 3248DPPC   C1B60669  20.075  -4.764  20.112 -0.0025 -0.0333 -0.0232
 3248DPPC   C2B60670  20.528  -4.524  19.945 -0.1045 -0.2047 -0.0780
 3248DPPC   C3B60671  20.874  -4.336  20.143 -0.1032 -0.1588 -0.0481
 3248DPPC   C4B60672  21.315  -4.071  20.198 -0.1084 -0.1577  0.4085
 3249DPPC   NC360673  21.582   0.927  15.494 -0.2151  0.1419  0.1065
 3249DPPC   PO460674  21.791   1.175  15.256 -0.3467  0.1102 -0.0458
 3249DPPC   GL160675  21.902   1.607  15.424  0.1060  0.3223  0.1588
 3249DPPC   GL260676  22.060   1.745  15.651 -0.1473 -0.0335  0.0240
 3249DPPC   C1A60677  21.887   2.112  15.318 -0.0924 -0.0851 -0.3927
 3249DPPC   C2A60678  21.811   2.610  15.165 -0.1981 -0.1681 -0.4614
 3249DPPC   C3A60679  21.971   3.066  15.158 -0.0195  0.0383 -0.0168
 3249DPPC   C4A60680  21.952   3.449  14.869 -0.2449 -0.2555 -0.1695
 3249DPPC   C1B60681  22.210   2.191  15.727 -0.0580  0.0441 -0.1795
 3249DPPC   C2B60682  22.469   2.579  15.770 -0.3390  0.1844  0.1747
 3249DPPC   C3B60683  22.626   2.673  16.156 -0.1403 -0.2645 -0.1058
 3249DPPC   C4B60684  22.421   2.805  16.579 -0.0739 -0.1355 -0.0406
 3250DPPC   NC360685  18.976  -2.092   9.891 -0.0563 -0.3386 -0.1402
 3250DPPC   PO460686  18.654  -2.325  10.100  0.1622 -0.0474  0.0981
 3250DPPC   GL160687  18.904  -2.462  10.415 -0.1431  0.0899 -0.2314
 3250DPPC   GL260688  18.976  -2.089  10.407  0.0243  0.0017 -0.1483
 3250DPPC   C1A60689  18.965  -2.915  10.690  0.0331  0.3223  0.3395
 3250DPPC   C2A60690  19.209  -3.050  11.025 -0.2438 -0.2536  0.0136
 3250DPPC   C3A60691  19.131  -2.842  11.449 -0.0287 -0.1500 -0.1893
 3250DPPC   C4A60692  18.936  -2.466  11.557 -0.1340  0.1748  0.3699
 3250DPPC   C1B60693  19.409  -2.307  10.520 -0.1085  0.0207  0.3616
 3250DPPC   C2B60694  19.741  -2.737  10.580  0.0690 -0.3551 -0.2305
 3250DPPC   C3B60695  20.152  -2.806  10.811  0.0651  0.2805 -0.1067
 3250DPPC   C4B60696  20.495  -3.013  11.057 -0.2265  0.0059  0.1968
 3251DPPC   NC360697   3.637   9.700  24.914 -0.1093 -0.1124 -0.0716
 3251DPPC   PO460698   3.951   9.845  25.195 -0.2537 -0.0184 -0.0085
 3251DPPC   GL160699   4.322   9.648  25.218  0.1061  0.1867 -0.0799
 3251DPPC   GL260700   4.469   9.350  24.999  0.2274  0.0034  0.2219
 3251DPPC   C1A60701   4.778   9.589  25.233  0.0804  0.2555  0.0972
 3251DPPC   C2A60702   5.228   9.287  25.277  0.0752 -0.1944 -0.3935
 3251DPPC   C3A60703   5.496   9.015  25.249  0.0917 -0.1499 -0.0821
 3251DPPC   C4A60704   5.769   8.660  25.108  0.3622 -0.1385 -0.2763
 3251DPPC   C1B60705   4.976   9.266  24.828  0.0618  0.0777 -0.3122
 3251DPPC   C2B60706   5.505   9.278  24.844  0.4041 -0.0910  0.0481
 3251DPPC   C3B60707   5.827   9.040  24.765 -0.1641 -0.2932 -0.2541
 3251DPPC   C4B60708   6.260   8.933  24.792 -0.0128 -0.1173 -0.1916
 3252DPPC   NC360709  17.887  15.186  21.836 -0.3688 -0.0958  0.1231
 3252DPPC   PO460710  18.138  15.307  21.463 -0.1362 -0.1087 -0.0946
 3252DPPC   GL160711  17.981  14.792  21.459 -0.0734  0.2311 -0.0459
 3252DPPC   GL260712  18.250  14.622  21.308 -0.2316  0.4585  0.1370
 3252DPPC   C1A60713  17.876  14.479  21.632 -0.0634  0.0323  0.0005
 3252DPPC   C2A60714  17.754  13.979  21.721 -0.0071  0.1621 -0.0560
 3252DPPC   C3A60715  17.984  13.689  21.491 -0.1129 -0.1353 -0.2274
 3252DPPC   C4A60716  18.371  13.433  21.386 -0.1562 -0.0822  0.1940
 3252DPPC   C1B60717  18.200  14.120  21.427  0.0239 -0.0783 -0.2010
 3252DPPC   C2B60718  18.458  13.870  21.693 -0.0410  0.2398  0.1389
 3252DPPC   C3B60719  18.794  13.495  21.670  0.2002 -0.0925  0.0067
 3252DPPC   C4B60720  18.794  13.114  21.482 -0.4468 -0.1404  0.0082
 3253DPPC   NC360721  24.953   5.580  34.672  0.1383  0.0695 -0.1879
 3253DPPC   PO460722  24.646   5.506  35.068  0.0571 -0.0610  0.1872
 3253DPPC   GL160723  24.467   5.466  34.565  0.0405 -0.0531 -0.0353
 3253DPPC   GL260724  24.412   5.297  34.290  0.1373  0.2858  0.2087
 3253DPPC   C1A60725  24.081   5.736  34.298 -0.0304 -0.1777 -0.1253
 3253DPPC   C2A60726  23.778   5.726  33.982 -0.1613  0.0412  0.1228
 3253DPPC   C3A60727  23.470   5.689  33.782  0.2226  0.1617 -0.1973
 3253DPPC   C4A60728  23.036   5.533  33.862 -0.0408 -0.1580 -0.1809
 3253DPPC   C1B60729  24.071   5.315  33.989  0.2452 -0.1962  0.0332
 3253DPPC   C2B60730  23.572   5.290  34.044 -0.1701 -0.1397 -0.4156
 3253DPPC   C3B60731  23.229   5.054  34.053 -0.1604 -0.1287  0.0330
 3253DPPC   C4B60732  22.856   5.084  33.806  0.1392 -0.0799  0.0639
 3254DPPC   NC360733  21.244  -4.669  14.504 -0.3222  0.2513  0.1948
 3254DPPC   PO460734  21.121  -4.912  14.899 -0.2936 -0.0097  0.2539
 3254DPPC   GL160735  21.312  -5.242  14.689 -0.0208 -0.2115  0.2875
 3254DPPC   GL260736  21.203  -5.194  14.360  0.3804 -0.3159  0.2533
 3254DPPC   C1A60737  21.534  -5.671  14.791  0.2221  0.1103  0.0779
 3254DPPC   C2A60738  21.990  -5.894  14.669  0.1575  0.0905 -0.0463
 3254DPPC   C3A60739  22.466  -5.684  14.662 -0.1605  0.0545  0.2228
 3254DPPC   C4A60740  22.818  -5.694  14.408 -0.0520 -0.0399  0.3685
 3254DPPC   C1B60741  21.483  -5.127  13.928  0.0395 -0.0142  0.2312
 3254DPPC   C2B60742  21.723  -4.798  13.660  0.0521  0.1612 -0.1530
 3254DPPC   C3B60743  21.727  -4.561  13.261  0.0188  0.2407 -0.1090
 3254DPPC   C4B60744  21.973  -4.280  13.158  0.1342 -0.1293  0.2296
 3255DPPC   NC360745  13.422  -7.405  18.682  0.2751  0.0849  0.2198
 3255DPPC   PO460746  13.662  -7.695  18.449 -0.2247  0.1386 -0.1192
 3255DPPC   GL160747  13.957  -7.304  18.725 -0.0665 -0.4349 -0.3112
 3255DPPC   GL260748  13.683  -7.092  18.931  0.2169 -0.1712 -0.0628
 3255DPPC   C1A60749  14.250  -6.861  18.991  0.0086 -0.0145  0.0467
 3255DPPC   C2A60750  14.366  -6.355  19.110 -0.1239  0.1591 -0.5101
 3255DPPC   C3A60751  14.630  -6.067  19.094 -0.0434  0.2070 -0.0850
 3255DPPC   C4A60752  14.898  -5.929  19.300  0.0110  0.3114 -0.0466
 3255DPPC   C1B60753  13.974  -7.275  19.224  0.0800 -0.0225 -0.1422
 3255DPPC   C2B60754  14.157  -7.462  19.568 -0.0298 -0.2039 -0.0843
 3255DPPC   C3B60755  14.354  -7.255  20.006  0.1835  0.0535  0.2370
 3255DPPC   C4B60756  14.727  -7.195  20.326 -0.0799  0.1153 -0.4033
 3256DPPC   NC360757   6.933   6.573  34.806  0.0696 -0.0790  0.2946
 3256DPPC   PO460758   7.143   6.257  34.918 -0.0579  0.1550 -0.0717
 3256DPPC   GL160759   7.219   6.312  34.397 -0.2970 -0.2866 -0.2267
 3256DPPC   GL260760   7.482   6.467  34.298 -0.2942  0.0127 -0.0826
 3256DPPC   C1A60761   7.046   6.275  33.942 -0.0078  0.2703  0.0385
 3256DPPC   C2A60762   6.973   6.082  33.458 -0.1265 -0.0621  0.1975
 3256DPPC   C3A60763   6.901   5.666  33.180  0.3257  0.0248  0.1838
 3256DPPC   C4A60764   6.830   5.686  32.781  0.0296  0.0444  0.0439
 3256DPPC   C1B60765   7.588   6.343  33.868 -0.0401 -0.1109  0.0113
 3256DPPC   C2B60766   7.845   6.342  33.468  0.2462  0.1937  0.2596
 3256DPPC   C3B60767   8.270   6.269  33.392  0.4313  0.3307  0.1254
 3256DPPC   C4B60768   8.453   6.140  33.068  0.2061 -0.0333 -0.2287
 3257DPPC   NC360769  20.231  -1.385  16.272  0.1142 -0.1514 -0.0048
 3257DPPC   PO460770  19.868  -1.634  16.455  0.1177  0.3645  0.0604
 3257DPPC   GL160771  19.885  -1.436  16.835 -0.0957 -0.1952 -0.3968
 3257DPPC   GL260772  20.053  -1.213  16.703 -0.1660 -0.1102 -0.0446
 3257DPPC   C1A60773  19.700  -1.161  17.096 -0.0884 -0.0268  0.0914
 3257DPPC   C2A60774  19.428  -1.131  17.412 -0.0680 -0.0315  0.1373
 3257DPPC   C3A60775  19.284  -1.227  17.668 -0.0853 -0.0597  0.5582
 3257DPPC   C4A60776  19.172  -1.468  17.998 -0.0180  0.1190  0.2151
 3257DPPC   C1B60777  20.192  -0.935  17.128 -0.0529  0.2100 -0.1745
 3257DPPC   C2B60778  19.884  -0.844  17.447  0.0477  0.3508 -0.1948
 3257DPPC   C3B60779  19.894  -0.454  17.783 -0.0800 -0.0498  0.0312
 3257DPPC   C4B60780  19.942  -0.130  18.036  0.1562 -0.2198  0.1972
 3258DPPC   NC360781  15.957  14.275  34.255  0.2663  0.0419 -0.2201
 3258DPPC   PO460782  16.262  14.078  34.031  0.4041  0.0728  0.0245
 3258DPPC   GL160783  16.121  13.784  33.806 -0.4628 -0.0285  0.0024
 3258DPPC   GL260784  15.960  13.740  33.418 -0.3328 -0.2092 -0.0192
 3258DPPC   C1A60785  16.388  13.449  33.535  0.0632 -0.0440 -0.0380
 3258DPPC   C2A60786  16.307  13.047  33.537 -0.1937  0.4230 -0.0999
 3258DPPC   C3A60787  16.081  12.718  33.682 -0.0228 -0.1194 -0.2464
 3258DPPC   C4A60788  15.936  12.373  33.431  0.0823  0.1246 -0.2873
 3258DPPC   C1B60789  15.944  13.335  33.353  0.1910 -0.4059  0.1242
 3258DPPC   C2B60790  15.929  13.046  32.938  0.1782 -0.2957  0.2781
 3258DPPC   C3B60791  16.187  12.935  32.628 -0.3677 -0.4561 -0.0435
 3258DPPC   C4B60792  16.096  12.613  32.380 -0.2584  0.0484  0.0010
 3259DPPC   NC360793  19.925   0.246  15.161  0.3556  0.1489 -0.0645
 3259DPPC   PO460794  20.083   0.349  15.696  0.0303  0.2149  0.1802
 3259DPPC   GL160795  20.182   0.600  16.100  0.4456 -0.0346 -0.3097
 3259DPPC   GL260796  20.130   0.829  15.842 -0.5296  0.4385  0.0043
 3259DPPC   C1A60797  20.312   1.009  16.310  0.1323 -0.1163  0.0542
 3259DPPC   C2A60798  20.330   1.412  16.207  0.0550 -0.1033  0.1452
 3259DPPC   C3A60799  20.604   1.681  16.038  0.0799 -0.1920  0.0671
 3259DPPC   C4A60800  21.033   1.886  16.115 -0.0087  0.2214  0.0424
 3259DPPC   C1B60801  19.793   1.001  16.139  0.0111 -0.0356  0.1193
 3259DPPC   C2B60802  19.418   1.131  16.165 -0.1123 -0.4239 -0.4865
 3259DPPC   C3B60803  19.233   1.495  16.017  0.3140  0.0880 -0.4446
 3259DPPC   C4B60804  19.190   1.817  15.765 -0.0299  0.1916  0.1265
 3260DPPC   NC360805   9.699   8.857  35.326 -0.3283 -0.2732  0.1812
 3260DPPC   PO460806   9.878   9.177  35.385  0.4262  0.2688 -0.1232
 3260DPPC   GL160807  10.264   9.065  35.295  0.3043  0.0112  0.1361
 3260DPPC   GL260808  10.495   9.009  35.488  0.0693 -0.1317 -0.0642
 3260DPPC   C1A60809  10.553   9.279  35.049 -0.3279  0.2587 -0.0583
 3260DPPC   C2A60810  10.675   9.304  34.586 -0.0980  0.1691 -0.0889
 3260DPPC   C3A60811  10.760   9.344  34.207 -0.0859 -0.3637  0.0174
 3260DPPC   C4A60812  11.238   9.393  34.002 -0.0305 -0.4964  0.0329
 3260DPPC   C1B60813  10.611   8.770  35.042  0.0399 -0.2312 -0.0693
 3260DPPC   C2B60814  10.746   8.810  34.689 -0.0651 -0.1752  0.5039
 3260DPPC   C3B60815  10.789   8.561  34.257  0.1895 -0.0355 -0.1834
 3260DPPC   C4B60816  10.731   8.287  33.944  0.1997  0.2466  0.0616
 3261DPPC   NC360817   8.363  10.944  17.881 -0.1209 -0.2085  0.1201
 3261DPPC   PO460818   8.315  10.573  18.118 -0.2616 -0.2887 -0.1175
 3261DPPC   GL160819   8.485  10.562  18.493  0.1817 -0.2200  0.0029
 3261DPPC   GL260820   8.355  10.337  18.782 -0.2218 -0.2785 -0.0858
 3261DPPC   C1A60821   8.817  10.574  18.575  0.0314 -0.1914  0.0095
 3261DPPC   C2A60822   9.159  10.560  18.342 -0.0926  0.0536 -0.0876
 3261DPPC   C3A60823   9.287  10.201  18.162  0.0829 -0.0938  0.0949
 3261DPPC   C4A60824   9.485   9.905  17.955  0.2738 -0.0381 -0.3577
 3261DPPC   C1B60825   8.776  10.178  18.971 -0.0085  0.0794 -0.2791
 3261DPPC   C2B60826   9.105   9.983  18.888  0.0535  0.0252 -0.4394
 3261DPPC   C3B60827   9.497   9.751  18.963  0.2181  0.0835  0.0058
 3261DPPC   C4B60828   9.979   9.634  18.860  0.2056  0.2158 -0.0710
 3262DPPC   NC360829  23.978  12.762  21.542  0.0435 -0.0614  0.1704
 3262DPPC   PO460830  23.774  12.943  21.957  0.0812 -0.0129  0.0475
 3262DPPC   GL160831  23.562  12.473  22.011 -0.2764  0.3876  0.2947
 3262DPPC   GL260832  23.357  12.579  22.083 -0.2818 -0.6465  0.0545
 3262DPPC   C1A60833  23.468  12.064  22.200  0.0185  0.0514  0.0052
 3262DPPC   C2A60834  23.220  11.839  22.554  0.1740 -0.5024 -0.1144
 3262DPPC   C3A60835  22.917  11.507  22.770 -0.1929 -0.0354  0.1076
 3262DPPC   C4A60836  22.632  11.366  22.931 -0.3166  0.2566  0.0812
 3262DPPC   C1B60837  22.962  12.388  22.156  0.0890 -0.2388 -0.0093
 3262DPPC   C2B60838  22.857  12.046  22.329  0.0681 -0.2057  0.1214
 3262DPPC   C3B60839  22.789  11.644  22.313 -0.1002  0.2703 -0.1560
 3262DPPC   C4B60840  22.433  11.385  22.482 -0.0365 -0.3432 -0.0097
 3263DPPC   NC360841  25.154  11.483  20.314  0.0751  0.0067  0.1562
 3263DPPC   PO460842  24.706  11.667  20.164 -0.0359 -0.3255  0.1657
 3263DPPC   GL160843  24.736  11.693  20.582 -0.0838 -0.0550 -0.4540
 3263DPPC   GL260844  24.426  11.661  20.704  0.2297 -0.0875  0.3784
 3263DPPC   C1A60845  24.808  11.395  20.932  0.0139  0.1507  0.1324
 3263DPPC   C2A60846  24.628  11.042  21.031 -0.0762 -0.1145 -0.1645
 3263DPPC   C3A60847  24.379  10.663  21.343  0.3158 -0.0958  0.2245
 3263DPPC   C4A60848  24.179  10.396  21.684 -0.1236 -0.1585 -0.1743
 3263DPPC   C1B60849  24.195  11.267  20.692 -0.3278  0.0749 -0.3892
 3263DPPC   C2B60850  24.256  10.813  20.816 -0.1814  0.3022  0.0598
 3263DPPC   C3B60851  23.968  10.570  20.978  0.0122  0.3552 -0.0192
 3263DPPC   C4B60852  23.502  10.377  21.061 -0.1277  0.0001 -0.0994
 3264DPPC   NC360853  25.741  -6.350  14.949 -0.0980 -0.1291 -0.2942
 3264DPPC   PO460854  25.411  -6.278  14.662 -0.1402 -0.1241  0.0481
 3264DPPC   GL160855  25.024  -6.141  14.834 -0.0126  0.0679  0.1070
 3264DPPC   GL260856  24.884  -6.195  14.526  0.2350 -0.0043  0.5046
 3264DPPC   C1A60857  24.838  -5.833  15.064 -0.0409 -0.0425  0.0488
 3264DPPC   C2A60858  24.564  -5.891  15.406  0.0769  0.0455  0.3078
 3264DPPC   C3A60859  24.275  -5.803  15.631 -0.1112 -0.1174 -0.3954
 3264DPPC   C4A60860  24.086  -5.623  15.990  0.0088  0.3515 -0.1168
 3264DPPC   C1B60861  24.945  -5.658  14.569  0.1173 -0.0175 -0.1363
 3264DPPC   C2B60862  24.860  -5.355  14.900 -0.0439 -0.0744  0.0704
 3264DPPC   C3B60863  24.823  -4.919  15.172 -0.0231 -0.3150 -0.0592
 3264DPPC   C4B60864  24.645  -4.584  15.009  0.0716 -0.0305 -0.1139
 3265DPPC   NC360865  23.014  14.213  26.582 -0.1152 -0.1393  0.1577
 3265DPPC   PO460866  23.416  14.182  26.791 -0.1076 -0.0197 -0.1795
 3265DPPC   GL160867  23.230  13.730  26.575  0.2615 -0.0775  0.2133
 3265DPPC   GL260868  23.405  13.668  26.334 -0.3223 -0.0741  0.0319
 3265DPPC   C1A60869  23.189  13.168  26.655 -0.0424 -0.3575  0.1150
 3265DPPC   C2A60870  22.846  12.912  26.663 -0.0665  0.0377 -0.1042
 3265DPPC   C3A60871  22.702  12.547  26.919  0.0097  0.0098  0.0219
 3265DPPC   C4A60872  22.997  12.374  27.105  0.0685 -0.0301  0.0667
 3265DPPC   C1B60873  23.229  13.315  26.150  0.0642 -0.1985  0.0636
 3265DPPC   C2B60874  23.159  12.808  26.253 -0.1189 -0.0162 -0.1552
 3265DPPC   C3B60875  23.001  12.499  26.488 -0.0202 -0.0620  0.0585
 3265DPPC   C4B60876  22.851  12.072  26.628  0.1884  0.1625 -0.1810
 3266DPPC   NC360877   7.225   1.825  16.288  0.1852  0.2345 -0.1382
 3266DPPC   PO460878   7.164   2.245  16.019 -0.0274 -0.0343 -0.1058
 3266DPPC   GL160879   7.222   2.314  16.514 -0.2314 -0.1544  0.0602
 3266DPPC   GL260880   7.079   2.537  16.611 -0.0918 -0.0514  0.3317
 3266DPPC   C1A60881   7.614   2.186  16.566  0.1738 -0.1741 -0.3944
 3266DPPC   C2A60882   8.017   2.369  16.714  0.0632  0.3770  0.0452
 3266DPPC   C3A60883   8.449   2.263  16.884  0.1997 -0.3707  0.0626
 3266DPPC   C4A60884   8.759   2.088  17.191  0.0462 -0.0594  0.1892
 3266DPPC   C1B60885   7.372   2.248  17.014 -0.2761 -0.1529  0.1818
 3266DPPC   C2B60886   7.776   2.223  17.136 -0.1108 -0.0423  0.0966
 3266DPPC   C3B60887   8.133   2.135  17.274  0.0455 -0.0860  0.0665
 3266DPPC   C4B60888   8.452   2.240  17.670 -0.0340 -0.1093  0.3377
 3267DPPC   NC360889   8.075   2.125  14.432 -0.0145  0.0503  0.0990
 3267DPPC   PO460890   7.969   2.317  14.810  0.1233 -0.3086  0.2315
 3267DPPC   GL160891   8.096   2.155  15.230  0.3026  0.2270 -0.3090
 3267DPPC   GL260892   8.303   2.384  15.373 -0.1477 -0.1587 -0.2105
 3267DPPC   C1A60893   8.135   2.026  15.703  0.0044 -0.0208 -0.0119
 3267DPPC   C2A60894   8.447   1.901  15.902 -0.2167 -0.1865  0.0433
 3267DPPC   C3A60895   8.772   1.738  16.222  0.1382 -0.0374  0.4111
 3267DPPC   C4A60896   9.118   1.711  16.446 -0.1129  0.0716  0.2538
 3267DPPC   C1B60897   8.588   2.378  15.726 -0.1854  0.0616 -0.1860
 3267DPPC   C2B60898   8.782   2.340  16.043 -0.1258  0.0130  0.0318
 3267DPPC   C3B60899   8.856   2.243  16.447 -0.0264  0.0118  0.2355
 3267DPPC   C4B60900   9.221   2.228  16.740  0.3177 -0.2281 -0.0534
 3268DPPC   NC360901  18.273  -5.262  14.741 -0.1053  0.3981  0.1114
 3268DPPC   PO460902  18.091  -4.999  14.525 -0.2344  0.0595  0.0166
 3268DPPC   GL160903  17.816  -4.982  14.173  0.1353  0.1620  0.1835
 3268DPPC   GL260904  17.572  -4.876  14.082  0.1022  0.1288  0.2984
 3268DPPC   C1A60905  17.878  -5.289  13.758  0.1073 -0.0776 -0.1487
 3268DPPC   C2A60906  18.065  -5.639  13.686 -0.1280 -0.5048 -0.0612
 3268DPPC   C3A60907  17.977  -5.939  13.446 -0.0587  0.1064 -0.1133
 3268DPPC   C4A60908  17.823  -6.104  13.089  0.1814  0.2389 -0.1151
 3268DPPC   C1B60909  17.372  -5.002  13.821 -0.0304  0.1960 -0.0638
 3268DPPC   C2B60910  17.437  -4.996  13.359 -0.3254  0.3402  0.0674
 3268DPPC   C3B60911  17.542  -4.899  12.970  0.1231 -0.0744 -0.2131
 3268DPPC   C4B60912  17.785  -4.790  12.585 -0.0396  0.4092 -0.1614
 3269DPPC   NC360913  24.815   4.107  34.721 -0.1085 -0.4985  0.0294
 3269DPPC   PO460914  24.599   4.542  34.527  0.1082 -0.0113 -0.1772
 3269DPPC   GL160915  24.238   4.759  34.500 -0.1911  0.2555  0.3264
 3269DPPC   GL260916  24.147   5.098  34.669  0.0299  0.0329 -0.1848
 3269DPPC   C1A60917  23.840   4.821  34.233 -0.3480  0.1373 -0.3641
 3269DPPC   C2A60918  23.378   4.704  34.387  0.3035  0.2060 -0.4422
 3269DPPC   C3A60919  23.211   4.473  34.504  0.0592 -0.0467  0.1576
 3269DPPC   C4A60920  23.026   4.038  34.603  0.2936 -0.1003  0.3283
 3269DPPC   C1B60921  23.897   5.352  34.512 -0.2623  0.0820 -0.1654
 3269DPPC   C2B60922  23.689   5.688  34.653  0.2360  0.6767  0.2854
 3269DPPC   C3B60923  23.585   6.078  34.755 -0.0591 -0.0082  0.1837
 3269DPPC   C4B60924  23.450   6.439  34.561  0.3005 -0.0050  0.3412
 3270DPPC   NC360925  12.535   7.195  13.128 -0.0560  0.0965  0.3401
 3270DPPC   PO460926  12.514   6.785  13.331 -0.2804 -0.0328  0.3270
 3270DPPC   GL160927  12.646   6.734  13.773 -0.0525  0.3694  0.0780
 3270DPPC   GL260928  12.473   6.989  13.873  0.0079  0.0979  0.2236
 3270DPPC   C1A60929  12.682   6.629  14.213  0.0806 -0.0313  0.3173
 3270DPPC   C2A60930  12.809   6.535  14.526  0.0217  0.3638  0.2829
 3270DPPC   C3A60931  13.037   6.445  14.788 -0.0232 -0.0785 -0.1431
 3270DPPC   C4A60932  12.810   6.463  15.207 -0.0723 -0.2294  0.0474
 3270DPPC   C1B60933  12.183   6.899  14.142 -0.0054  0.2598 -0.0572
 3270DPPC   C2B60934  12.230   6.672  14.518  0.1170  0.0359  0.0899
 3270DPPC   C3B60935  12.333   6.726  14.985  0.1284  0.0436  0.2815
 3270DPPC   C4B60936  11.985   6.931  15.229  0.0220  0.2185  0.1942
 3271DPPC   NC360937  22.097  -0.776  17.048 -0.2184  0.1410 -0.2608
 3271DPPC   PO460938  22.450  -0.837  17.305 -0.0283  0.2046 -0.2814
 3271DPPC   GL160939  22.770  -0.791  17.610  0.3159 -0.2447 -0.0299
 3271DPPC   GL260940  23.041  -0.902  17.502  0.4850  0.1972 -0.0303
 3271DPPC   C1A60941  22.891  -0.934  17.985  0.1573 -0.2815  0.1186
 3271DPPC   C2A60942  22.923  -1.244  18.227 -0.3411 -0.1897  0.1286
 3271DPPC   C3A60943  23.167  -1.492  18.332  0.0018  0.1629  0.2364
 3271DPPC   C4A60944  23.118  -1.941  18.538  0.3281  0.1316  0.2026
 3271DPPC   C1B60945  23.411  -0.742  17.716  0.0192  0.2662  0.2320
 3271DPPC   C2B60946  23.713  -0.861  17.961  0.5504  0.0444 -0.0097
 3271DPPC   C3B60947  23.893  -0.946  18.428  0.0479  0.2597  0.0047
 3271DPPC   C4B60948  24.181  -0.781  18.639  0.1076  0.0358 -0.2589
 3272DPPC   NC360949  18.972  -6.291  10.400 -0.0756 -0.0625 -0.1153
 3272DPPC   PO460950  18.723  -5.930  10.482  0.2776 -0.0612  0.0365
 3272DPPC   GL160951  18.564  -5.685  10.777  0.2420 -0.1094  0.1921
 3272DPPC   GL260952  18.532  -5.424  10.807 -0.2589  0.3006 -0.2397
 3272DPPC   C1A60953  18.561  -5.743  11.260  0.0651 -0.2002  0.2014
 3272DPPC   C2A60954  18.661  -5.770  11.762 -0.2356 -0.2746  0.1056
 3272DPPC   C3A60955  18.793  -5.588  12.024  0.3372 -0.2305 -0.3382
 3272DPPC   C4A60956  19.050  -5.325  12.061 -0.0493 -0.1142 -0.2621
 3272DPPC   C1B60957  18.531  -5.187  11.225  0.0661 -0.2242  0.0944
 3272DPPC   C2B60958  18.439  -4.854  11.564  0.3187 -0.0492 -0.3205
 3272DPPC   C3B60959  18.291  -4.819  11.803 -0.0327 -0.1299  0.0512
 3272DPPC   C4B60960  18.170  -4.717  12.250 -0.1936  0.1569 -0.0767
 3273DPPC   NC360961  26.415  -2.220  14.039 -0.2863 -0.1674  0.3690
 3273DPPC   PO460962  26.939  -2.225  14.208 -0.1066 -0.3772 -0.1319
 3273DPPC   GL160963  26.607  -2.008  14.529 -0.1477 -0.0556  0.0210
 3273DPPC   GL260964  26.469  -2.132  14.872 -0.0002  0.1668 -0.1773
 3273DPPC   C1A60965  26.146  -2.049  14.537 -0.1908 -0.0252 -0.0680
 3273DPPC   C2A60966  25.700  -2.026  14.479 -0.0181  0.1977  0.4039
 3273DPPC   C3A60967  25.348  -1.838  14.364 -0.1354 -0.0089  0.1297
 3273DPPC   C4A60968  25.200  -1.850  13.905 -0.1336  0.1047  0.0139
 3273DPPC   C1B60969  26.031  -2.273  14.920  0.0493  0.2095  0.1026
 3273DPPC   C2B60970  25.614  -2.373  14.820 -0.3066 -0.0246  0.1852
 3273DPPC   C3B60971  25.095  -2.510  14.789 -0.1528 -0.2443 -0.2477
 3273DPPC   C4B60972  24.662  -2.524  14.548  0.0866 -0.1374  0.0847
 3274DPPC   NC360973   8.652   2.947  13.952 -0.2001 -0.0294 -0.1921
 3274DPPC   PO460974   8.903   2.718  14.289 -0.7014 -0.0117  0.1815
 3274DPPC   GL160975   9.187   2.607  14.647  0.0691 -0.1223  0.2799
 3274DPPC   GL260976   9.312   2.889  14.689  0.2168  0.0789 -0.0882
 3274DPPC   C1A60977   9.339   2.515  15.078  0.2673 -0.2271 -0.0773
 3274DPPC   C2A60978   9.603   2.495  15.459 -0.1324 -0.0803  0.0139
 3274DPPC   C3A60979   9.512   2.486  15.857 -0.1090  0.3002 -0.0041
 3274DPPC   C4A60980   9.264   2.502  16.288 -0.0907  0.2056 -0.0657
 3274DPPC   C1B60981   9.671   2.754  14.871 -0.1322  0.1418 -0.0238
 3274DPPC   C2B60982   9.956   2.639  15.146  0.1521 -0.0358 -0.0962
 3274DPPC   C3B60983  10.428   2.482  15.224 -0.1873 -0.0425 -0.1026
 3274DPPC   C4B60984  10.752   2.578  15.428 -0.1505 -0.2758  0.1023
 3275DPPC   NC360985   3.950   7.935  23.939  0.0336  0.1193 -0.1732
 3275DPPC   PO460986   3.775   7.454  23.977 -0.2726 -0.2962  0.1647
 3275DPPC   GL160987   4.172   7.240  24.200 -0.2865  0.0197 -0.2782
 3275DPPC   GL260988   4.422   7.215  24.032 -0.2504  0.1002 -0.0702
 3275DPPC   C1A60989   4.460   7.260  24.523  0.2201 -0.0580  0.0611
 3275DPPC   C2A60990   4.432   7.535  24.855 -0.0237 -0.0513  0.2389
 3275DPPC   C3A60991   4.684   7.907  24.949 -0.1625  0.0083  0.1322
 3275DPPC   C4A60992   4.789   8.282  25.149  0.3313 -0.4903  0.0982
 3275DPPC   C1B60993   4.890   7.280  24.272 -0.0723 -0.0810 -0.0651
 3275DPPC   C2B60994   4.978   7.230  24.745  0.1507 -0.2306 -0.0605
 3275DPPC   C3B60995   5.157   7.465  24.998 -0.2275  0.0911 -0.4050
 3275DPPC   C4B60996   5.315   7.803  24.943 -0.1096 -0.1919 -0.2430
 3276DPPC   NC360997  22.673  -0.265  16.454 -0.0350 -0.0765 -0.1575
 3276DPPC   PO460998  22.794  -0.075  16.773  0.4761 -0.1817 -0.0134
 3276DPPC   GL160999  23.097   0.213  17.049  0.0485 -0.1828  0.2216
 3276DPPC   GL261000  23.249   0.119  17.268 -0.2557 -0.3579 -0.1865
 3276DPPC   C1A61001  23.540   0.573  17.151  0.1355  0.2767 -0.1222
 3276DPPC   C2A61002  23.584   0.896  17.463 -0.2397 -0.2807 -0.2313
 3276DPPC   C3A61003  23.695   1.249  17.631  0.2994 -0.0318 -0.1728
 3276DPPC   C4A61004  23.683   1.670  17.602 -0.0585 -0.4044  0.1687
 3276DPPC   C1B61005  23.557   0.151  17.476 -0.1793  0.2974  0.1219
 3276DPPC   C2B61006  23.797  -0.092  17.840 -0.1774 -0.1718 -0.3465
 3276DPPC   C3B61007  23.480  -0.447  18.089 -0.0520  0.0194  0.1193
 3276DPPC   C4B61008  23.353  -0.944  18.312  0.1663 -0.2730 -0.2693
 3277DPPC   NC361009   6.165  10.445  31.381 -0.1568 -0.4290  0.0590
 3277DPPC   PO461010   6.364  10.641  31.703  0.1614 -0.4017  0.0116
 3277DPPC   GL161011   6.658  10.705  31.345  0.1795 -0.3766  0.1066
 3277DPPC   GL261012   6.951  10.866  31.305  0.0797  0.0303  0.1015
 3277DPPC   C1A61013   6.692  10.728  30.911  0.1616  0.0705 -0.0291
 3277DPPC   C2A61014   6.777  10.807  30.510  0.1056 -0.1831 -0.0727
 3277DPPC   C3A61015   6.468  10.928  30.284  0.2854  0.1207  0.0765
 3277DPPC   C4A61016   6.448  11.041  29.844 -0.1907 -0.2584  0.1838
 3277DPPC   C1B61017   7.229  10.597  31.364 -0.1148  0.1183  0.3121
 3277DPPC   C2B61018   7.513  10.272  31.355  0.2448  0.1683  0.1569
 3277DPPC   C3B61019   7.499   9.868  31.228  0.0756 -0.1864 -0.0817
 3277DPPC   C4B61020   7.772   9.653  31.172  0.0173 -0.0359 -0.2964
 3278DPPC   NC361021  28.325   4.704  22.272 -0.1767 -0.1230  0.0430
 3278DPPC   PO461022  28.121   4.335  22.493 -0.1852 -0.1858  0.0299
 3278DPPC   GL161023  27.781   4.579  22.250  0.0559  0.0945 -0.0560
 3278DPPC   GL261024  27.601   4.421  21.898 -0.1037  0.0131  0.0026
 3278DPPC   C1A61025  27.378   4.782  22.294 -0.0679 -0.3765  0.0827
 3278DPPC   C2A61026  27.020   4.967  22.178 -0.0999  0.0115 -0.1679
 3278DPPC   C3A61027  26.704   5.287  22.220  0.1746  0.1233  0.0666
 3278DPPC   C4A61028  26.429   5.362  22.467 -0.0844  0.2059 -0.1181
 3278DPPC   C1B61029  27.353   4.031  21.923  0.1537  0.0944  0.2876
 3278DPPC   C2B61030  27.076   4.127  21.575 -0.1274  0.1782 -0.1102
 3278DPPC   C3B61031  26.721   4.338  21.582 -0.1938 -0.0901 -0.0207
 3278DPPC   C4B61032  26.295   4.386  21.527 -0.0298 -0.3482  0.4230
 3279DPPC   NC361033  28.457   6.199  26.546 -0.1543 -0.0537 -0.0829
 3279DPPC   PO461034  28.702   5.927  26.121  0.1939  0.1022 -0.0810
 3279DPPC   GL161035  28.312   5.885  26.165 -0.1877 -0.0842 -0.2367
 3279DPPC   GL261036  28.075   6.001  26.352 -0.1278 -0.0157 -0.4022
 3279DPPC   C1A61037  28.051   5.464  26.337  0.2452 -0.0955  0.0626
 3279DPPC   C2A61038  27.760   5.249  26.165 -0.1265  0.2322  0.1925
 3279DPPC   C3A61039  27.459   5.088  25.926  0.0611  0.0473 -0.2106
 3279DPPC   C4A61040  27.063   4.920  25.765  0.1758 -0.3502  0.2619
 3279DPPC   C1B61041  27.825   6.152  26.729  0.1455  0.0609  0.1332
 3279DPPC   C2B61042  27.419   5.934  26.809 -0.1762  0.0983 -0.2060
 3279DPPC   C3B61043  27.109   5.597  26.865 -0.1592  0.0481  0.1865
 3279DPPC   C4B61044  26.882   5.413  26.541  0.4481  0.1880 -0.1496
 3280DPPC   NC361045  12.320  -8.047  20.513 -0.0528 -0.0637  0.2464
 3280DPPC   PO461046  12.709  -8.143  20.654 -0.2519  0.3720  0.1039
 3280DPPC   GL161047  12.733  -7.754  20.868 -0.0016  0.0622  0.0228
 3280DPPC   GL261048  12.967  -7.838  21.133 -0.0726 -0.2891 -0.0406
 3280DPPC   C1A61049  12.601  -7.437  21.162 -0.0456 -0.1133 -0.4066
 3280DPPC   C2A61050  12.195  -7.263  21.284 -0.2567 -0.0910  0.1766
 3280DPPC   C3A61051  12.170  -6.814  21.378  0.0508  0.3333  0.3239
 3280DPPC   C4A61052  12.301  -6.388  21.325 -0.0915 -0.4032 -0.0877
 3280DPPC   C1B61053  13.137  -7.477  20.862  0.0440 -0.2064  0.1409
 3280DPPC   C2B61054  13.261  -7.154  20.615  0.0744 -0.4603  0.0898
 3280DPPC   C3B61055  13.054  -6.972  20.220  0.2834 -0.0480 -0.0357
 3280DPPC   C4B61056  12.738  -6.761  20.030 -0.2131 -0.1684 -0.3606
 3281DPPC   NC361057  22.213  -4.969  15.798  0.1325  0.0329  0.1804
 3281DPPC   PO461058  21.763  -5.105  15.563 -0.3788 -0.3057  0.0534
 3281DPPC   GL161059  21.870  -5.467  15.437 -0.0059 -0.1665  0.0726
 3281DPPC   GL261060  21.884  -5.465  15.064 -0.2583 -0.0117  0.0696
 3281DPPC   C1A61061  22.245  -5.783  15.235  0.2274  0.2324  0.0678
 3281DPPC   C2A61062  22.648  -5.749  15.179  0.4125  0.0315 -0.2469
 3281DPPC   C3A61063  23.068  -5.857  15.413 -0.2483 -0.0594  0.1329
 3281DPPC   C4A61064  23.299  -6.096  15.168 -0.1560  0.0984  0.0207
 3281DPPC   C1B61065  21.943  -5.428  14.632 -0.2102 -0.1596 -0.0103
 3281DPPC   C2B61066  21.609  -5.469  14.321  0.0769  0.2819  0.0294
 3281DPPC   C3B61067  21.327  -5.869  14.292 -0.0586 -0.0339 -0.4141
 3281DPPC   C4B61068  21.158  -6.243  14.303 -0.2400 -0.0840  0.1456
 3282DPPC   NC361069  15.711  16.268  21.192 -0.2423 -0.0630  0.1249
 3282DPPC   PO461070  15.819  15.817  21.184  0.1715 -0.2841  0.0499
 3282DPPC   GL161071  15.982  15.390  21.396 -0.0807  0.2676 -0.0221
 3282DPPC   GL261072  15.708  15.284  21.723 -0.2206  0.3656 -0.1959
 3282DPPC   C1A61073  15.867  14.821  21.539  0.2150  0.1457 -0.3017
 3282DPPC   C2A61074  16.071  14.542  21.722  0.1799 -0.1611  0.1013
 3282DPPC   C3A61075  16.334  14.097  21.689 -0.3844  0.0011  0.1299
 3282DPPC   C4A61076  16.292  13.614  21.880  0.1555 -0.0004  0.1954
 3282DPPC   C1B61077  15.982  14.975  21.966 -0.3747 -0.3065  0.1072
 3282DPPC   C2B61078  16.451  14.788  21.908 -0.2997 -0.3203  0.0822
 3282DPPC   C3B61079  16.699  14.405  21.771 -0.2042 -0.1254  0.2329
 3282DPPC   C4B61080  16.840  14.023  21.545 -0.2047 -0.1686 -0.0522
 3283DPPC   NC361081  27.443   9.840  24.275  0.2398  0.1547 -0.0977
 3283DPPC   PO461082  27.102  10.045  24.338 -0.0163  0.2813  0.0731
 3283DPPC   GL161083  26.944   9.726  24.733  0.1041 -0.0434 -0.2612
 3283DPPC   GL261084  26.747   9.801  24.728  0.1428 -0.0727  0.1940
 3283DPPC   C1A61085  26.850   9.224  24.691 -0.0382  0.0926 -0.3158
 3283DPPC   C2A61086  26.581   8.884  24.885  0.1069 -0.0085 -0.1897
 3283DPPC   C3A61087  26.106   8.808  24.852  0.2043  0.3951  0.1661
 3283DPPC   C4A61088  25.886   8.539  25.054  0.0035  0.1929 -0.0594
 3283DPPC   C1B61089  26.488   9.550  24.516 -0.0675 -0.1690 -0.0745
 3283DPPC   C2B61090  26.205   9.121  24.467  0.0308  0.0778  0.3089
 3283DPPC   C3B61091  26.003   8.675  24.284  0.0384  0.1844 -0.4302
 3283DPPC   C4B61092  25.989   8.295  24.240 -0.0980 -0.0415 -0.1274
 3284DPPC   NC361093  10.736   0.510  36.280 -0.0497 -0.0409 -0.0707
 3284DPPC   PO461094  10.682   0.182  36.079 -0.1296  0.0567 -0.1063
 3284DPPC   GL161095  10.814   0.392  35.781 -0.1226  0.0577 -0.1083
 3284DPPC   GL261096  10.736   0.749  35.824  0.1950  0.0524 -0.1297
 3284DPPC   C1A61097  10.911   0.443  35.414 -0.0083 -0.1828 -0.2528
 3284DPPC   C2A61098  11.083   0.505  35.025 -0.0680 -0.2793  0.1252
 3284DPPC   C3A61099  11.213   0.703  34.599  0.0643 -0.0429  0.0674
 3284DPPC   C4A61100  11.647   0.794  34.507  0.2145 -0.1664 -0.0438
 3284DPPC   C1B61101  10.977   0.951  35.555  0.1020  0.0831  0.0097
 3284DPPC   C2B61102  11.100   1.007  35.084  0.1028 -0.3501 -0.2610
 3284DPPC   C3B61103  11.493   1.148  34.866  0.4490 -0.0638  0.0770
 3284DPPC   C4B61104  11.944   1.101  34.801  0.0018 -0.3039  0.0551
 3285DPPC   NC361105  17.792  -0.431  14.073 -0.1336 -0.0010 -0.1966
 3285DPPC   PO461106  18.159  -0.436  13.724 -0.2873  0.0282 -0.2690
 3285DPPC   GL161107  17.743  -0.379  13.459 -0.1375  0.0802  0.2405
 3285DPPC   GL261108  17.514  -0.091  13.628 -0.0827  0.2448  0.1159
 3285DPPC   C1A61109  17.530  -0.235  13.030  0.1789 -0.0117  0.1882
 3285DPPC   C2A61110  17.707  -0.257  12.628  0.0773  0.0872 -0.1209
 3285DPPC   C3A61111  18.168  -0.182  12.334  0.1302 -0.2202 -0.1699
 3285DPPC   C4A61112  18.517   0.027  12.395  0.0551  0.1767  0.1436
 3285DPPC   C1B61113  17.650   0.190  13.346 -0.0893  0.0671 -0.2725
 3285DPPC   C2B61114  17.759   0.396  12.980  0.1374  0.0738  0.2340
 3285DPPC   C3B61115  17.524   0.722  12.875 -0.0786 -0.0658  0.1339
 3285DPPC   C4B61116  17.082   0.961  12.896 -0.2402  0.2873 -0.0997
 3286DPPC   NC361117  17.473  -3.285  16.721  0.1870 -0.2717 -0.3198
 3286DPPC   PO461118  17.590  -3.518  17.093  0.0548 -0.1303 -0.0775
 3286DPPC   GL161119  17.400  -3.187  17.305  0.1153 -0.1973  0.4036
 3286DPPC   GL261120  17.682  -2.956  17.080  0.1312  0.0289  0.1799
 3286DPPC   C1A61121  16.992  -3.006  17.290 -0.0729  0.3326  0.5922
 3286DPPC   C2A61122  16.604  -2.956  17.266  0.1231 -0.1848  0.2916
 3286DPPC   C3A61123  16.373  -2.781  17.537 -0.0842  0.0318 -0.2011
 3286DPPC   C4A61124  16.108  -2.666  17.865 -0.1238 -0.1771 -0.3678
 3286DPPC   C1B61125  17.571  -2.743  17.457 -0.0561  0.1665  0.0726
 3286DPPC   C2B61126  17.311  -2.381  17.630 -0.0326 -0.3078 -0.2054
 3286DPPC   C3B61127  17.166  -1.994  17.384  0.0303 -0.3399 -0.2231
 3286DPPC   C4B61128  16.747  -1.853  17.474 -0.0738  0.0006 -0.4360
 3287DPPC   NC361129  19.413  -4.609   9.914  0.2929 -0.0337  0.3164
 3287DPPC   PO461130  19.664  -4.958  10.198 -0.0689  0.0116  0.1286
 3287DPPC   GL161131  19.520  -4.661  10.600 -0.0969  0.1223 -0.2608
 3287DPPC   GL261132  19.498  -4.852  10.859 -0.1072 -0.0650  0.1589
 3287DPPC   C1A61133  19.227  -4.377  10.715  0.2490 -0.2761 -0.1904
 3287DPPC   C2A61134  19.269  -3.986  10.973 -0.0759  0.2231 -0.0130
 3287DPPC   C3A61135  19.202  -3.848  11.394 -0.2011 -0.3665  0.1792
 3287DPPC   C4A61136  19.386  -3.782  11.818  0.0624  0.1083 -0.0297
 3287DPPC   C1B61137  19.369  -4.963  11.250  0.0040 -0.2062 -0.1954
 3287DPPC   C2B61138  19.399  -4.813  11.706  0.0079 -0.1751 -0.0986
 3287DPPC   C3B61139  19.172  -4.821  12.116  0.0950 -0.2026 -0.1946
 3287DPPC   C4B61140  19.055  -5.126  12.475  0.0314  0.1489  0.0132
 3288DPPC   NC361141  12.159  11.039  35.334 -0.0578 -0.0074  0.0120
 3288DPPC   PO461142  11.684  10.903  35.472 -0.1998 -0.0229 -0.1250
 3288DPPC   GL161143  11.881  10.821  35.029 -0.0214  0.2645  0.1041
 3288DPPC   GL261144  11.576  10.976  34.991  0.0158  0.0695 -0.2442
 3288DPPC   C1A61145  11.882  11.123  34.655  0.1693  0.2962 -0.2284
 3288DPPC   C2A61146  11.883  11.169  34.235 -0.0770 -0.0006 -0.0707
 3288DPPC   C3A61147  11.941  11.035  33.854  0.0545  0.0457  0.3478
 3288DPPC   C4A61148  12.061  11.009  33.426 -0.1001 -0.4093 -0.0929
 3288DPPC   C1B61149  11.507  10.669  34.661  0.2202  0.0497  0.2390
 3288DPPC   C2B61150  11.801  10.634  34.337  0.4908  0.0368 -0.0862
 3288DPPC   C3B61151  11.886  10.397  34.028  0.1080 -0.2520  0.1644
 3288DPPC   C4B61152  11.891  10.579  33.536 -0.3304  0.4043  0.1583
 3289DPPC   NC361153  21.554  -2.223  17.547  0.2519 -0.2318 -0.1434
 3289DPPC   PO461154  21.707  -1.850  17.606 -0.0203 -0.0324  0.0258
 3289DPPC   GL161155  21.598  -1.992  18.043 -0.1751 -0.0558 -0.2202
 3289DPPC   GL261156  21.881  -2.032  18.201  0.1061 -0.0100  0.1325
 3289DPPC   C1A61157  21.335  -1.873  18.331 -0.0832 -0.0642  0.2830
 3289DPPC   C2A61158  21.184  -1.966  18.694  0.0071 -0.0310 -0.0476
 3289DPPC   C3A61159  21.222  -2.357  18.994  0.0313  0.1077  0.1193
 3289DPPC   C4A61160  21.019  -2.746  19.030 -0.0716  0.1158  0.4668
 3289DPPC   C1B61161  22.104  -2.033  18.529 -0.1638 -0.2704 -0.0621
 3289DPPC   C2B61162  22.165  -2.076  18.973 -0.1215  0.0736  0.1221
 3289DPPC   C3B61163  22.441  -2.044  19.320  0.2114 -0.0064 -0.0524
 3289DPPC   C4B61164  22.591  -2.382  19.528  0.0098  0.0908 -0.0361
 3290DPPC   NC361165  17.218  -4.406  34.275 -0.2848  0.2099  0.2415
 3290DPPC   PO461166  16.832  -4.352  34.162  0.0332 -0.0905 -0.3616
 3290DPPC   GL161167  16.620  -4.042  33.918  0.0607  0.0730 -0.2007
 3290DPPC   GL261168  16.633  -3.713  33.930  0.1064 -0.1201  0.2451
 3290DPPC   C1A61169  16.657  -3.925  33.485  0.0631 -0.2545 -0.1353
 3290DPPC   C2A61170  16.375  -3.840  33.143  0.1390 -0.0954 -0.3232
 3290DPPC   C3A61171  16.099  -3.990  32.936 -0.0414  0.1448 -0.3507
 3290DPPC   C4A61172  15.857  -3.903  32.587  0.0204 -0.1124 -0.0127
 3290DPPC   C1B61173  16.504  -3.418  33.591  0.1786  0.1048 -0.1456
 3290DPPC   C2B61174  16.356  -3.089  33.543 -0.3229 -0.1438 -0.0049
 3290DPPC   C3B61175  16.408  -2.675  33.497  0.0616  0.1474  0.0654
 3290DPPC   C4B61176  16.590  -2.324  33.352  0.0833  0.2784  0.0502
 3291DPPC   NC361177   9.090  12.231  33.474  0.0608 -0.1653 -0.0849
 3291DPPC   PO461178   9.009  11.763  33.534  0.0334  0.0619 -0.2037
 3291DPPC   GL161179   9.006  11.591  33.117 -0.0424 -0.0424 -0.1757
 3291DPPC   GL261180   8.703  11.679  32.889 -0.0553 -0.2961 -0.2768
 3291DPPC   C1A61181   9.257  11.339  32.951 -0.1327  0.0800 -0.1447
 3291DPPC   C2A61182   9.167  10.987  33.023 -0.2688  0.0462 -0.0372
 3291DPPC   C3A61183   8.932  10.759  32.694  0.3534  0.1716 -0.1441
 3291DPPC   C4A61184   8.496  10.742  32.493 -0.3098 -0.0430 -0.2697
 3291DPPC   C1B61185   8.830  11.230  32.723  0.0401 -0.0702 -0.1531
 3291DPPC   C2B61186   8.934  11.074  32.327 -0.1776  0.2346  0.1541
 3291DPPC   C3B61187   9.065  11.105  31.865  0.2029 -0.1453 -0.1834
 3291DPPC   C4B61188   9.214  11.556  31.619 -0.2027  0.1525  0.2835
 3292DPPC   NC361189  21.802  -4.455  14.981  0.0719  0.1862 -0.1306
 3292DPPC   PO461190  21.631  -4.782  15.050 -0.0366  0.0772  0.0382
 3292DPPC   GL161191  21.936  -4.938  14.801  0.1198  0.0108  0.0448
 3292DPPC   GL261192  21.800  -4.748  14.554  0.1193 -0.0103 -0.0884
 3292DPPC   C1A61193  22.284  -5.011  14.646 -0.1122 -0.0227 -0.0232
 3292DPPC   C2A61194  22.671  -5.187  14.582 -0.0055 -0.5322 -0.1611
 3292DPPC   C3A61195  22.898  -5.443  14.870  0.0293 -0.4504 -0.1936
 3292DPPC   C4A61196  23.373  -5.694  14.838  0.1345 -0.0113 -0.1542
 3292DPPC   C1B61197  21.917  -5.025  14.278 -0.0618  0.3732  0.4950
 3292DPPC   C2B61198  22.052  -5.129  13.818  0.2249  0.1801 -0.0577
 3292DPPC   C3B61199  22.387  -5.076  13.638 -0.0591  0.2006 -0.0348
 3292DPPC   C4B61200  22.723  -5.335  13.643  0.0514 -0.0777  0.1030
 3293DPPC   NC361201  22.560  -5.034  17.706 -0.3246 -0.0943  0.1680
 3293DPPC   PO461202  22.177  -5.116  17.809 -0.4018  0.2238 -0.0864
 3293DPPC   GL161203  22.401  -5.549  17.743 -0.0497  0.3515 -0.1316
 3293DPPC   GL261204  22.690  -5.492  17.931  0.2952 -0.0048  0.2276
 3293DPPC   C1A61205  22.659  -5.908  17.621 -0.0305  0.2588  0.1117
 3293DPPC   C2A61206  22.701  -6.268  17.634 -0.1477  0.0394 -0.0803
 3293DPPC   C3A61207  22.638  -6.506  17.288 -0.1490 -0.1988  0.2653
 3293DPPC   C4A61208  22.875  -6.578  16.944  0.0059  0.1081 -0.1955
 3293DPPC   C1B61209  22.548  -5.820  18.189 -0.0150 -0.0676  0.0009
 3293DPPC   C2B61210  22.498  -6.005  18.548 -0.0931  0.1134  0.0429
 3293DPPC   C3B61211  22.288  -6.253  18.914  0.1999  0.0911 -0.0040
 3293DPPC   C4B61212  22.420  -6.261  19.379 -0.2263 -0.2299 -0.0910
 3294DPPC   NC361213  21.095  -4.447  18.568 -0.1278 -0.2218  0.1996
 3294DPPC   PO461214  21.359  -4.213  18.870 -0.1085 -0.0328  0.0366
 3294DPPC   GL161215  21.372  -3.968  19.295  0.0759 -0.1743  0.0677
 3294DPPC   GL261216  21.339  -3.604  19.338 -0.0797  0.0053 -0.2028
 3294DPPC   C1A61217  21.225  -3.900  19.752  0.0789  0.0518  0.1085
 3294DPPC   C2A61218  20.898  -3.847  19.971  0.3165  0.2059  0.0716
 3294DPPC   C3A61219  20.767  -3.893  20.390  0.0969  0.3038  0.1360
 3294DPPC   C4A61220  20.788  -3.842  20.855  0.2064 -0.1834  0.0927
 3294DPPC   C1B61221  21.285  -3.201  19.378 -0.0932  0.0428 -0.0812
 3294DPPC   C2B61222  21.180  -2.837  19.649 -0.1933 -0.2163  0.2052
 3294DPPC   C3B61223  20.904  -2.575  19.885 -0.1214 -0.1798 -0.0105
 3294DPPC   C4B61224  20.792  -2.311  20.186 -0.3736 -0.0280  0.0111
 3295DPPC   NC361225  12.887   6.692  37.219 -0.0475 -0.1004 -0.0531
 3295DPPC   PO461226  12.506   6.386  37.457  0.0042 -0.1272 -0.3925
 3295DPPC   GL161227  12.645   6.237  37.078  0.0990 -0.4405 -0.3941
 3295DPPC   GL261228  12.882   6.207  37.187 -0.0273  0.0137 -0.0306
 3295DPPC   C1A61229  12.508   6.317  36.681  0.0579  0.2724  0.1542
 3295DPPC   C2A61230  12.691   6.336  36.229 -0.0805 -0.0393  0.2135
 3295DPPC   C3A61231  12.652   6.530  35.816 -0.0994  0.1733 -0.0541
 3295DPPC   C4A61232  12.606   6.528  35.337 -0.0711 -0.1237  0.4459
 3295DPPC   C1B61233  12.986   6.273  36.710 -0.1934  0.0256 -0.3261
 3295DPPC   C2B61234  13.388   6.144  36.462  0.1904  0.0347 -0.3017
 3295DPPC   C3B61235  13.700   5.858  36.428  0.0041 -0.1586 -0.1562
 3295DPPC   C4B61236  13.842   5.428  36.335  0.1417 -0.0524 -0.0054
 3296DPPC   NC361237  26.399  -3.446  13.011 -0.2024  0.1167  0.1615
 3296DPPC   PO461238  26.219  -2.976  13.153 -0.1010  0.1034  0.1463
 3296DPPC   GL161239  25.856  -3.009  13.415 -0.0916  0.4513 -0.1316
 3296DPPC   GL261240  25.950  -2.947  13.790 -0.0903  0.2130  0.3032
 3296DPPC   C1A61241  25.543  -2.681  13.613 -0.2248 -0.0149 -0.1345
 3296DPPC   C2A61242  25.282  -2.371  13.591 -0.1865 -0.2031 -0.2759
 3296DPPC   C3A61243  24.863  -2.227  13.859 -0.3684  0.2573  0.0645
 3296DPPC   C4A61244  24.520  -2.273  14.033  0.1653 -0.0447 -0.1178
 3296DPPC   C1B61245  25.524  -3.029  14.007  0.1475 -0.0818 -0.2970
 3296DPPC   C2B61246  25.373  -3.312  14.275 -0.1942  0.1414  0.0321
 3296DPPC   C3B61247  25.104  -3.347  14.656  0.0984 -0.1162 -0.1194
 3296DPPC   C4B61248  24.879  -3.049  14.794  0.0310  0.1348  0.1804
 3297DPPC   NC361249  24.551   4.417  14.925  0.2870  0.2602 -0.2412
 3297DPPC   PO461250  24.194   4.652  14.809  0.1219  0.1024 -0.0676
 3297DPPC   GL161251  24.074   4.621  15.147 -0.0570  0.1074  0.1569
 3297DPPC   GL261252  24.338   4.687  15.419 -0.0658 -0.0204 -0.4457
 3297DPPC   C1A61253  23.805   4.729  15.525 -0.2131 -0.0221 -0.2319
 3297DPPC   C2A61254  23.601   5.101  15.688 -0.1180  0.0886  0.0759
 3297DPPC   C3A61255  23.262   5.203  16.064  0.0453  0.0462 -0.0234
 3297DPPC   C4A61256  23.194   4.781  16.293 -0.1542 -0.3999 -0.0653
 3297DPPC   C1B61257  24.202   4.389  15.737  0.0547 -0.0566  0.0943
 3297DPPC   C2B61258  23.997   3.883  15.631 -0.2113  0.3655 -0.0299
 3297DPPC   C3B61259  23.700   3.592  15.814 -0.4493 -0.0389 -0.0761
 3297DPPC   C4B61260  23.462   3.457  16.098  0.0756  0.1261  0.2040
 3298DPPC   NC361261  18.732  -2.216  16.391 -0.1026  0.1657  0.2503
 3298DPPC   PO461262  18.427  -2.272  16.214 -0.0537 -0.1480  0.0324
 3298DPPC   GL161263  18.294  -2.252  16.512  0.1292  0.0307  0.2988
 3298DPPC   GL261264  18.057  -2.341  16.646  0.2069  0.1085 -0.2886
 3298DPPC   C1A61265  18.358  -1.958  16.822 -0.1559  0.1213  0.1386
 3298DPPC   C2A61266  18.598  -1.806  17.168 -0.3381  0.3787  0.1764
 3298DPPC   C3A61267  18.629  -1.879  17.658  0.2060 -0.3507  0.3232
 3298DPPC   C4A61268  18.625  -1.611  17.980 -0.1504 -0.1729  0.0260
 3298DPPC   C1B61269  17.845  -1.965  16.871 -0.1020  0.0940 -0.0762
 3298DPPC   C2B61270  17.443  -1.776  17.025 -0.0906 -0.1832  0.1429
 3298DPPC   C3B61271  17.324  -1.328  17.123  0.0141  0.4303 -0.0891
 3298DPPC   C4B61272  17.680  -1.172  17.264  0.0149 -0.2068 -0.0364
 3299DPPC   NC361273   7.604   3.746  15.484  0.0972  0.0022 -0.0781
 3299DPPC   PO461274   7.965   3.520  15.399 -0.0428  0.0284 -0.0268
 3299DPPC   GL161275   8.501   3.553  15.349 -0.1142  0.1602  0.0992
 3299DPPC   GL261276   8.627   3.764  15.081  0.1156  0.2805 -0.0720
 3299DPPC   C1A61277   8.853   3.313  15.527  0.1992  0.3906 -0.2434
 3299DPPC   C2A61278   9.111   3.037  15.700  0.0901  0.0037 -0.0796
 3299DPPC   C3A61279   9.025   2.661  15.591  0.1471  0.0543 -0.3269
 3299DPPC   C4A61280   9.164   2.298  15.458  0.2482 -0.1529 -0.1385
 3299DPPC   C1B61281   8.998   3.775  15.274  0.0401 -0.0674  0.3876
 3299DPPC   C2B61282   9.405   3.466  15.496 -0.4441  0.1122  0.0815
 3299DPPC   C3B61283   9.706   3.468  15.930 -0.0700  0.1305 -0.0696
 3299DPPC   C4B61284   9.824   3.446  16.346  0.2424  0.1604  0.3761
 3300DPPC   NC361285  19.152  -5.470  14.872 -0.1840  0.0447 -0.1752
 3300DPPC   PO461286  18.830  -5.297  14.640  0.0065 -0.2838 -0.2112
 3300DPPC   GL161287  18.770  -5.516  14.300 -0.0096 -0.0607 -0.0274
 3300DPPC   GL261288  18.943  -5.683  14.295  0.0612  0.4234 -0.0864
 3300DPPC   C1A61289  18.473  -5.678  14.045 -0.0424  0.1786  0.3833
 3300DPPC   C2A61290  18.083  -5.843  14.121 -0.0654 -0.0043  0.0700
 3300DPPC   C3A61291  17.720  -5.931  13.940 -0.1960 -0.2030  0.1563
 3300DPPC   C4A61292  17.516  -6.176  13.594 -0.1746 -0.0622  0.0629
 3300DPPC   C1B61293  18.679  -6.054  14.340  0.0320  0.2343  0.0079
 3300DPPC   C2B61294  18.303  -6.175  14.472  0.2957  0.0563 -0.0626
 3300DPPC   C3B61295  17.901  -6.282  14.287  0.0802 -0.0308  0.0640
 3300DPPC   C4B61296  17.669  -6.461  13.952  0.2895  0.1162 -0.2632
 3301DPPC   NC361297   9.626   4.608  36.397  0.1206 -0.0340  0.0656
 3301DPPC   PO461298   9.523   4.460  36.054  0.0231 -0.0638  0.0105
 3301DPPC   GL161299   9.740   4.181  35.710  0.0511  0.2881 -0.4589
 3301DPPC   GL261300   9.645   4.164  35.295  0.0796 -0.1154 -0.0530
 3301DPPC   C1A61301  10.149   4.107  35.532 -0.1249 -0.0982  0.3624
 3301DPPC   C2A61302  10.521   4.210  35.260 -0.1229 -0.1787 -0.1512
 3301DPPC   C3A61303  10.685   4.068  34.797  0.0816  0.0148 -0.3381
 3301DPPC   C4A61304  10.382   3.971  34.459  0.0914 -0.0892 -0.4707
 3301DPPC   C1B61305   9.633   4.134  34.789  0.0073 -0.2709  0.1946
 3301DPPC   C2B61306   9.408   4.231  34.421 -0.1427  0.0780  0.1961
 3301DPPC   C3B61307   9.480   4.000  34.101 -0.0167  0.0097 -0.0212
 3301DPPC   C4B61308   9.544   3.726  33.798  0.0510 -0.2838  0.1280
 3302DPPC   NC361309   4.258  -0.405  20.429 -0.2408  0.0846 -0.4470
 3302DPPC   PO461310   4.194  -0.202  20.028  0.4728 -0.2640 -0.0571
 3302DPPC   GL161311   4.618  -0.180  20.098 -0.0245 -0.2073  0.1606
 3302DPPC   GL261312   4.664   0.013  20.357 -0.1344 -0.0843  0.1008
 3302DPPC   C1A61313   5.084  -0.185  20.276  0.0958 -0.0267  0.2145
 3302DPPC   C2A61314   5.345  -0.072  20.542 -0.2313 -0.0556  0.4226
 3302DPPC   C3A61315   5.500   0.266  20.845 -0.1074 -0.0145 -0.1197
 3302DPPC   C4A61316   5.976   0.278  20.925  0.3358  0.0198 -0.0956
 3302DPPC   C1B61317   4.905   0.327  20.571  0.0485  0.1118 -0.1591
 3302DPPC   C2B61318   5.132   0.650  20.829 -0.3052 -0.2235  0.2751
 3302DPPC   C3B61319   5.262   1.058  20.986 -0.1354 -0.2125  0.2961
 3302DPPC   C4B61320   5.322   1.532  20.970  0.0670 -0.0938  0.0158
 3303DPPC   NC361321   5.535   9.993  31.440  0.1242 -0.1127  0.0109
 3303DPPC   PO461322   5.882  10.050  31.491  0.1276 -0.0944  0.0699
 3303DPPC   GL161323   5.975   9.762  31.194 -0.0621  0.2585 -0.0152
 3303DPPC   GL261324   6.081   9.868  30.898 -0.0755  0.0007 -0.0717
 3303DPPC   C1A61325   6.247   9.442  31.199 -0.1073 -0.0786  0.5382
 3303DPPC   C2A61326   6.430   9.270  30.876  0.2259  0.3632 -0.1838
 3303DPPC   C3A61327   6.819   9.244  30.701  0.0163  0.1554  0.1415
 3303DPPC   C4A61328   6.968   9.384  30.301  0.1364 -0.1654 -0.2290
 3303DPPC   C1B61329   6.226   9.609  30.600 -0.0904 -0.0124 -0.0416
 3303DPPC   C2B61330   6.456   9.298  30.372 -0.4747 -0.3138  0.0019
 3303DPPC   C3B61331   6.685   8.904  30.358  0.0074 -0.0855 -0.0408
 3303DPPC   C4B61332   6.564   8.536  30.128  0.1761  0.1009 -0.3631
 3304DPPC   NC361333  27.194  -2.036  25.811  0.1908 -0.0234 -0.2609
 3304DPPC   PO461334  27.203  -1.995  25.484 -0.2405 -0.2471  0.3705
 3304DPPC   GL161335  27.054  -1.588  25.561  0.1371  0.1537 -0.0487
 3304DPPC   GL261336  27.014  -1.544  25.868 -0.0623 -0.0463 -0.0734
 3304DPPC   C1A61337  27.105  -1.190  25.541  0.1308  0.0672 -0.1386
 3304DPPC   C2A61338  26.910  -1.019  25.901  0.0158 -0.1702 -0.2499
 3304DPPC   C3A61339  26.842  -0.728  26.212 -0.4364 -0.2262 -0.2935
 3304DPPC   C4A61340  26.859  -0.301  26.397 -0.2806  0.0755 -0.1223
 3304DPPC   C1B61341  26.570  -1.320  25.748  0.3274  0.0172  0.1139
 3304DPPC   C2B61342  26.433  -1.096  25.345 -0.1469 -0.0711 -0.0498
 3304DPPC   C3B61343  26.046  -0.967  25.116 -0.0949 -0.0036  0.1392
 3304DPPC   C4B61344  25.630  -0.950  24.883  0.1722 -0.2706  0.0543
 3305DPPC   NC361345  22.994   0.604  10.018 -0.3060  0.0117  0.0551
 3305DPPC   PO461346  23.153   1.002  10.312  0.0624  0.1076  0.2008
 3305DPPC   GL161347  23.253   0.888  10.720  0.0613  0.0037 -0.1530
 3305DPPC   GL261348  23.101   0.879  10.923 -0.2598 -0.0966 -0.4226
 3305DPPC   C1A61349  23.539   0.989  11.144  0.0206 -0.1874  0.1888
 3305DPPC   C2A61350  23.625   1.082  11.598 -0.0312 -0.1830  0.0550
 3305DPPC   C3A61351  23.895   1.012  11.918  0.0544 -0.0279 -0.0336
 3305DPPC   C4A61352  24.152   0.912  12.324 -0.0137  0.0529 -0.1978
 3305DPPC   C1B61353  22.963   0.826  11.393  0.0142  0.0733  0.3269
 3305DPPC   C2B61354  22.776   0.731  11.850  0.3523 -0.0249  0.1082
 3305DPPC   C3B61355  22.389   0.704  12.221 -0.0058 -0.2002 -0.0232
 3305DPPC   C4B61356  22.190   0.520  12.554 -0.0326  0.0897  0.1046
 3306DPPC   NC361357  21.355  -0.093  35.720  0.3956 -0.0535  0.3442
 3306DPPC   PO461358  21.295  -0.463  35.377  0.0836  0.0609 -0.0147
 3306DPPC   GL161359  21.266  -0.503  34.923 -0.4242 -0.0764  0.2251
 3306DPPC   GL261360  21.320  -0.793  34.831 -0.0678  0.1132  0.3139
 3306DPPC   C1A61361  21.302  -0.094  34.615 -0.1354 -0.0351 -0.2055
 3306DPPC   C2A61362  21.087   0.192  34.259 -0.0636 -0.2496  0.0916
 3306DPPC   C3A61363  20.988   0.423  33.928 -0.1054  0.1307 -0.0358
 3306DPPC   C4A61364  20.808   0.527  33.703  0.0419  0.2888  0.2822
 3306DPPC   C1B61365  21.087  -1.047  34.331  0.5101  0.2620  0.1034
 3306DPPC   C2B61366  21.082  -0.790  33.966  0.4516 -0.3697 -0.2297
 3306DPPC   C3B61367  20.805  -0.778  33.628  0.0243 -0.0472  0.0744
 3306DPPC   C4B61368  20.675  -0.583  33.161 -0.3378  0.4941 -0.0847
 3307DPPC   NC361369  21.230  -3.800  14.018 -0.3027  0.1320  0.2262
 3307DPPC   PO461370  20.926  -3.641  13.788  0.1890  0.1415  0.1265
 3307DPPC   GL161371  21.173  -3.698  13.388 -0.2370 -0.1873 -0.4206
 3307DPPC   GL261372  21.250  -3.418  13.253  0.0609 -0.1090 -0.3120
 3307DPPC   C1A61373  21.106  -3.922  12.977 -0.0526 -0.1725 -0.3118
 3307DPPC   C2A61374  21.060  -4.244  12.671  0.1539 -0.1008 -0.2701
 3307DPPC   C3A61375  20.769  -4.603  12.589  0.3482 -0.3308 -0.1446
 3307DPPC   C4A61376  20.441  -4.518  12.373 -0.0377 -0.2117  0.1349
 3307DPPC   C1B61377  21.427  -3.453  12.901  0.1674 -0.2574 -0.1361
 3307DPPC   C2B61378  21.422  -3.178  12.526  0.2301  0.0220  0.4652
 3307DPPC   C3B61379  21.146  -2.839  12.511 -0.0877 -0.1777  0.3580
 3307DPPC   C4B61380  20.885  -2.593  12.841 -0.1421 -0.0917 -0.0216
 3308DPPC   NC361381  17.947  -7.990  11.850 -0.0713  0.1825 -0.1131
 3308DPPC   PO461382  18.076  -7.687  12.033  0.1455 -0.0919 -0.0120
 3308DPPC   GL161383  18.039  -7.624  12.497  0.0921  0.0565 -0.1941
 3308DPPC   GL261384  17.706  -7.618  12.720  0.3330 -0.2979 -0.3285
 3308DPPC   C1A61385  18.100  -7.364  12.915 -0.0962  0.2709  0.3042
 3308DPPC   C2A61386  18.408  -7.015  13.025  0.0508  0.1281 -0.0255
 3308DPPC   C3A61387  18.702  -6.683  12.969  0.2062 -0.1048 -0.0793
 3308DPPC   C4A61388  19.081  -6.477  13.159  0.0533 -0.0925 -0.1812
 3308DPPC   C1B61389  17.614  -7.333  13.100 -0.0103 -0.0406  0.3375
 3308DPPC   C2B61390  18.027  -7.188  13.359  0.0831 -0.1354  0.0042
 3308DPPC   C3B61391  18.115  -6.793  13.696  0.1195  0.1350  0.2085
 3308DPPC   C4B61392  18.161  -6.796  14.201 -0.1446 -0.2714  0.0077
 3309DPPC   NC361393  11.775  -7.900  22.467  0.2086 -0.1364  0.0474
 3309DPPC   PO461394  11.581  -7.667  22.744  0.0763  0.2410  0.2681
 3309DPPC   GL161395  11.836  -7.305  22.784 -0.1728 -0.0060  0.3300
 3309DPPC   GL261396  11.733  -7.232  22.462  0.3001  0.0704  0.1554
 3309DPPC   C1A61397  11.972  -6.891  22.721  0.1962 -0.1689 -0.1196
 3309DPPC   C2A61398  12.258  -6.625  22.389  0.1445 -0.0294  0.2489
 3309DPPC   C3A61399  12.100  -6.424  21.963 -0.2491 -0.1103 -0.0281
 3309DPPC   C4A61400  12.218  -6.037  21.845  0.1123  0.2717  0.1271
 3309DPPC   C1B61401  11.810  -6.854  22.202 -0.4449 -0.3752 -0.0442
 3309DPPC   C2B61402  11.661  -6.374  22.207 -0.0848 -0.2275 -0.0235
 3309DPPC   C3B61403  11.715  -6.052  21.891  0.0665 -0.0090  0.1521
 3309DPPC   C4B61404  11.471  -5.772  21.635  0.2104 -0.0861  0.1045
 3310DPPC   NC361405  22.262   7.704  14.491 -0.0334 -0.0283 -0.1952
 3310DPPC   PO461406  21.865   7.970  14.573  0.1800 -0.1472 -0.0551
 3310DPPC   GL161407  21.597   7.706  14.817 -0.4727 -0.4886 -0.0208
 3310DPPC   GL261408  21.666   7.959  15.037 -0.0964  0.0107 -0.0975
 3310DPPC   C1A61409  21.497   7.460  15.141 -0.6492  0.0100  0.3387
 3310DPPC   C2A61410  21.520   7.121  15.288 -0.1365  0.1336 -0.2919
 3310DPPC   C3A61411  21.862   6.884  15.382  0.2178 -0.1592 -0.1283
 3310DPPC   C4A61412  21.888   6.394  15.308 -0.0003  0.0288  0.0923
 3310DPPC   C1B61413  21.333   8.211  15.229  0.0238  0.0082  0.0462
 3310DPPC   C2B61414  21.052   8.149  15.564  0.0412  0.0011 -0.0725
 3310DPPC   C3B61415  21.187   7.696  15.852  0.2824  0.2931 -0.1732
 3310DPPC   C4B61416  21.396   7.296  15.765 -0.0051 -0.0688  0.2389
 3311DPPC   NC361417  18.897  -9.581  14.713  0.0029  0.0933 -0.0067
 3311DPPC   PO461418  18.832  -9.623  14.238  0.2121 -0.4575 -0.1877
 3311DPPC   GL161419  18.913  -9.176  14.357  0.2707 -0.1837 -0.0476
 3311DPPC   GL261420  18.921  -9.085  14.618 -0.1590  0.2734  0.1718
 3311DPPC   C1A61421  19.061  -8.768  14.160  0.4082 -0.1374 -0.3349
 3311DPPC   C2A61422  19.207  -8.435  13.956  0.1968  0.0709  0.2072
 3311DPPC   C3A61423  19.498  -8.094  13.939  0.2215 -0.0359  0.1642
 3311DPPC   C4A61424  19.746  -7.805  14.212 -0.2414  0.2359  0.1990
 3311DPPC   C1B61425  18.536  -8.836  14.603  0.3136 -0.0486  0.1551
 3311DPPC   C2B61426  18.512  -8.465  14.924  0.0325  0.0341 -0.0437
 3311DPPC   C3B61427  18.591  -8.276  15.282  0.3190  0.1508 -0.0477
 3311DPPC   C4B61428  18.610  -8.411  15.716  0.1543 -0.2527  0.1068
 3312DPPC   NC361429  27.823   0.751  29.563  0.2116  0.1081  0.1576
 3312DPPC   PO461430  27.775   0.588  30.085  0.3152 -0.0091  0.1750
 3312DPPC   GL161431  27.485   0.819  29.981 -0.1644 -0.1270 -0.1983
 3312DPPC   GL261432  27.447   1.195  29.877 -0.0034  0.3325 -0.0195
 3312DPPC   C1A61433  26.989   0.903  29.911  0.0959 -0.1187 -0.0027
 3312DPPC   C2A61434  26.626   1.032  29.740  0.0377  0.2059  0.0322
 3312DPPC   C3A61435  26.273   1.261  29.869  0.3684  0.1315 -0.1026
 3312DPPC   C4A61436  26.072   1.501  29.578  0.0420 -0.1697 -0.1796
 3312DPPC   C1B61437  27.236   1.088  29.488 -0.4076 -0.1111 -0.0263
 3312DPPC   C2B61438  26.922   1.231  29.353 -0.1783 -0.0177  0.3157
 3312DPPC   C3B61439  26.428   1.359  29.219 -0.0571 -0.0166 -0.0193
 3312DPPC   C4B61440  25.973   1.546  29.022 -0.1469 -0.0323  0.0495
 3313DPPC   NC361441  19.636  -0.366  13.801 -0.2315 -0.1470  0.0863
 3313DPPC   PO461442  19.568  -0.820  13.640  0.1044  0.2020  0.2235
 3313DPPC   GL161443  19.652  -0.792  13.209  0.2570  0.2084  0.6422
 3313DPPC   GL261444  19.744  -1.042  12.978  0.0041 -0.1715  0.0672
 3313DPPC   C1A61445  19.744  -0.551  12.836 -0.1746  0.1213 -0.1256
 3313DPPC   C2A61446  19.905  -0.360  12.364 -0.1832  0.0963  0.1115
 3313DPPC   C3A61447  20.290  -0.081  12.203 -0.0252  0.1710 -0.1487
 3313DPPC   C4A61448  20.492   0.306  11.967 -0.1516 -0.1822 -0.0804
 3313DPPC   C1B61449  19.667  -0.921  12.468 -0.1004 -0.1863 -0.0284
 3313DPPC   C2B61450  19.405  -0.681  12.445 -0.1408  0.1239 -0.0185
 3313DPPC   C3B61451  18.908  -0.844  12.345  0.0322 -0.2165  0.1232
 3313DPPC   C4B61452  18.665  -1.039  11.980  0.0015 -0.0409  0.0794
 3314DPPC   NC361453  28.073   5.518  31.506 -0.0435 -0.0205 -0.0730
 3314DPPC   PO461454  27.955   5.873  31.293 -0.2836  0.1851  0.0198
 3314DPPC   GL161455  27.656   5.803  31.085 -0.2885 -0.0218  0.0750
 3314DPPC   GL261456  27.796   5.819  30.676  0.2943  0.2990  0.0637
 3314DPPC   C1A61457  27.136   5.819  31.099  0.0411 -0.3844  0.0977
 3314DPPC   C2A61458  26.758   5.843  30.853  0.2814  0.0874 -0.1024
 3314DPPC   C3A61459  26.452   5.552  30.654  0.0544 -0.3208 -0.1185
 3314DPPC   C4A61460  26.234   5.340  30.398 -0.1042  0.2922  0.1013
 3314DPPC   C1B61461  27.308   5.534  30.648 -0.2877 -0.2706  0.0378
 3314DPPC   C2B61462  26.978   5.435  30.532  0.2711  0.2820  0.0560
 3314DPPC   C3B61463  26.735   5.272  30.216 -0.0941  0.3067  0.1940
 3314DPPC   C4B61464  26.554   5.184  29.860  0.0318 -0.0052 -0.0870
 3315DPPC   NC361465  27.323  -2.190  25.016  0.0424  0.0457  0.1190
 3315DPPC   PO461466  26.971  -2.560  25.195  0.1305  0.1082 -0.3911
 3315DPPC   GL161467  26.544  -2.446  25.136  0.1530 -0.1605 -0.2270
 3315DPPC   GL261468  26.432  -2.426  24.844  0.1882  0.2262  0.0872
 3315DPPC   C1A61469  26.164  -2.228  25.290  0.1497  0.2635 -0.2865
 3315DPPC   C2A61470  25.746  -1.930  25.296 -0.3682  0.2332  0.1614
 3315DPPC   C3A61471  25.368  -1.669  25.144 -0.1330  0.1412 -0.1797
 3315DPPC   C4A61472  24.950  -1.809  25.035 -0.0309  0.1536  0.0905
 3315DPPC   C1B61473  26.184  -2.280  24.612  0.0827 -0.1229  0.0073
 3315DPPC   C2B61474  26.039  -2.109  24.203 -0.1805 -0.5776 -0.0981
 3315DPPC   C3B61475  25.778  -2.042  23.918  0.0005 -0.1342 -0.1631
 3315DPPC   C4B61476  25.674  -1.715  23.638  0.2495 -0.3233 -0.1299
 3316DPPC   NC361477  24.065  -3.723  31.051 -0.0330  0.0804 -0.0666
 3316DPPC   PO461478  23.500  -3.636  31.227 -0.1011  0.2411  0.3195
 3316DPPC   GL161479  23.498  -3.289  30.927 -0.1548 -0.3516 -0.0150
 3316DPPC   GL261480  23.317  -3.372  30.667 -0.0956 -0.0333 -0.0614
 3316DPPC   C1A61481  23.225  -2.933  31.000 -0.1790 -0.0277  0.2890
 3316DPPC   C2A61482  23.045  -2.764  30.652  0.0197  0.1686 -0.1147
 3316DPPC   C3A61483  22.937  -2.473  30.347 -0.1802 -0.2277  0.2334
 3316DPPC   C4A61484  22.754  -2.104  30.125 -0.1055 -0.2233 -0.0812
 3316DPPC   C1B61485  23.226  -3.292  30.220  0.1985  0.1123 -0.2089
 3316DPPC   C2B61486  23.094  -3.170  29.786  0.0626  0.3548 -0.1755
 3316DPPC   C3B61487  22.795  -3.006  29.572 -0.0873  0.1543 -0.0493
 3316DPPC   C4B61488  22.539  -3.037  29.148 -0.2723 -0.0254 -0.1243
 3317DPPC   NC361489  22.683   0.851  15.603 -0.1770 -0.0923  0.1462
 3317DPPC   PO461490  22.787   0.415  15.491  0.1603 -0.2819  0.0444
 3317DPPC   GL161491  23.216   0.299  15.346 -0.0133  0.1646 -0.0193
 3317DPPC   GL261492  23.357   0.045  15.409 -0.1070  0.1791 -0.2412
 3317DPPC   C1A61493  23.573   0.318  15.000 -0.1222  0.1992  0.0190
 3317DPPC   C2A61494  24.107   0.223  15.050  0.1684  0.0012 -0.3317
 3317DPPC   C3A61495  24.329  -0.103  14.915  0.0705 -0.0616  0.2680
 3317DPPC   C4A61496  24.592  -0.086  14.560 -0.0253 -0.2010  0.0845
 3317DPPC   C1B61497  23.722   0.090  15.459  0.1774 -0.2161 -0.0427
 3317DPPC   C2B61498  24.058   0.363  15.516  0.0717  0.4149 -0.1584
 3317DPPC   C3B61499  24.029   0.812  15.689  0.1181 -0.2435 -0.0449
 3317DPPC   C4B61500  23.964   1.223  15.837  0.1014 -0.0581  0.0070
 3318DPPC   NC361501  14.273  -2.064  12.625 -0.1827  0.3467  0.1668
 3318DPPC   PO461502  14.559  -1.746  12.540  0.2097 -0.3885 -0.0119
 3318DPPC   GL161503  14.583  -1.626  12.849  0.3499  0.1156  0.1845
 3318DPPC   GL261504  14.582  -1.833  13.085  0.0184 -0.2404  0.1509
 3318DPPC   C1A61505  14.557  -1.252  13.036  0.0184  0.0109 -0.1872
 3318DPPC   C2A61506  14.620  -0.783  13.184 -0.3307 -0.3970  0.0512
 3318DPPC   C3A61507  14.849  -0.451  13.297  0.0038 -0.1669 -0.0342
 3318DPPC   C4A61508  15.195  -0.314  13.735 -0.0799 -0.1566  0.1673
 3318DPPC   C1B61509  14.427  -1.755  13.488 -0.0986  0.1160 -0.0056
 3318DPPC   C2B61510  14.352  -1.556  13.880 -0.0190  0.0520  0.3675
 3318DPPC   C3B61511  14.548  -1.796  14.243 -0.1754 -0.2537 -0.5643
 3318DPPC   C4B61512  14.602  -1.809  14.736 -0.1329 -0.1503  0.2369
 3319DPPC   NC361513  20.362   1.516  15.060 -0.4559 -0.1742 -0.1663
 3319DPPC   PO461514  20.395   1.726  14.673 -0.0029 -0.2725 -0.1665
 3319DPPC   GL161515  20.654   2.018  14.592 -0.1878  0.1229  0.0040
 3319DPPC   GL261516  20.738   1.789  14.233 -0.1744 -0.0737  0.1463
 3319DPPC   C1A61517  20.807   2.352  14.275 -0.2059 -0.3140 -0.1569
 3319DPPC   C2A61518  20.841   2.361  13.872 -0.3137  0.5038  0.1827
 3319DPPC   C3A61519  20.528   2.360  13.637  0.1237  0.2276  0.0813
 3319DPPC   C4A61520  20.377   2.311  13.196 -0.2210  0.2840  0.2732
 3319DPPC   C1B61521  20.435   2.072  14.070 -0.0411 -0.2156 -0.0645
 3319DPPC   C2B61522  20.061   2.105  13.785 -0.0446  0.2151  0.3446
 3319DPPC   C3B61523  19.600   2.381  13.595 -0.0642 -0.3927  0.0984
 3319DPPC   C4B61524  19.182   2.351  13.701  0.3011  0.1839 -0.1869
 3320DPPC   NC361525  26.435   1.378  32.838  0.0841 -0.3084  0.2160
 3320DPPC   PO461526  26.296   0.965  32.602 -0.0562  0.2787  0.2461
 3320DPPC   GL161527  25.989   1.119  32.348  0.5683 -0.1682  0.1200
 3320DPPC   GL261528  26.062   1.382  32.221  0.0821  0.2462  0.0456
 3320DPPC   C1A61529  25.582   1.306  32.323  0.0080  0.0649  0.1475
 3320DPPC   C2A61530  25.293   1.489  32.124  0.0655  0.0571  0.1661
 3320DPPC   C3A61531  24.879   1.424  32.059 -0.4195 -0.0682  0.3568
 3320DPPC   C4A61532  24.480   1.366  32.019  0.4136 -0.2306  0.0021
 3320DPPC   C1B61533  25.791   1.550  31.940  0.2030 -0.2063 -0.2197
 3320DPPC   C2B61534  25.377   1.503  31.592 -0.1265 -0.0390 -0.0982
 3320DPPC   C3B61535  25.071   1.641  31.232  0.0441 -0.4548  0.1375
 3320DPPC   C4B61536  25.008   1.920  30.862  0.0171 -0.1770  0.2997
 3321DPPC   NC361537  21.258  14.746  28.297 -0.2368 -0.1566 -0.1093
 3321DPPC   PO461538  21.442  14.456  28.535  0.2298 -0.0378 -0.0676
 3321DPPC   GL161539  21.800  14.194  28.371  0.0334 -0.0990 -0.2340
 3321DPPC   GL261540  21.933  13.959  28.572  0.0610 -0.0108 -0.1412
 3321DPPC   C1A61541  21.724  13.966  27.953 -0.0080  0.1926 -0.0630
 3321DPPC   C2A61542  21.461  13.714  27.658 -0.2424  0.0996 -0.0048
 3321DPPC   C3A61543  21.246  13.634  27.296  0.1632  0.0248 -0.1200
 3321DPPC   C4A61544  20.881  13.467  27.143 -0.0699 -0.1140  0.1468
 3321DPPC   C1B61545  21.678  13.697  28.565  0.2898 -0.1953 -0.2002
 3321DPPC   C2B61546  21.531  13.306  28.819 -0.0321 -0.0089 -0.0284
 3321DPPC   C3B61547  21.547  12.835  28.618 -0.1203  0.1981 -0.1982
 3321DPPC   C4B61548  21.556  12.798  28.176  0.1660 -0.4807 -0.1904
 3322DPPC   NC361549  17.514  -8.020  28.617 -0.1320 -0.0356 -0.0964
 3322DPPC   PO461550  17.258  -7.970  28.237 -0.0308 -0.0806 -0.0376
 3322DPPC   GL161551  16.981  -7.665  28.091 -0.2701  0.0973  0.2010
 3322DPPC   GL261552  17.046  -7.409  28.295  0.5024  0.3858 -0.3462
 3322DPPC   C1A61553  16.876  -7.340  27.825  0.0372  0.1754 -0.1003
 3322DPPC   C2A61554  16.945  -6.910  28.029  0.0257  0.0104 -0.0026
 3322DPPC   C3A61555  16.937  -6.448  27.995 -0.2280  0.1895  0.2378
 3322DPPC   C4A61556  16.908  -6.311  27.600 -0.0528  0.1710  0.0279
 3322DPPC   C1B61557  17.426  -7.165  28.245 -0.0711 -0.0655  0.2148
 3322DPPC   C2B61558  17.338  -6.636  28.182  0.0210  0.1767  0.0990
 3322DPPC   C3B61559  17.208  -6.209  28.404  0.1277  0.1814  0.0684
 3322DPPC   C4B61560  16.951  -5.952  28.169  0.0650  0.0472  0.1228
 3323DPPC   NC361561  10.174  -5.013  31.574 -0.0596  0.0535  0.1928
 3323DPPC   PO461562  10.341  -4.662  31.768 -0.3027  0.0500 -0.0456
 3323DPPC   GL161563  10.702  -4.397  31.656  0.0651 -0.3961 -0.3449
 3323DPPC   GL261564  10.955  -4.537  31.607 -0.1208  0.1901  0.1635
 3323DPPC   C1A61565  10.738  -4.033  31.305  0.1384  0.0452  0.0889
 3323DPPC   C2A61566  11.045  -3.881  31.131 -0.0257 -0.0341 -0.0744
 3323DPPC   C3A61567  11.017  -4.187  30.789  0.0144  0.4079  0.0075
 3323DPPC   C4A61568  10.974  -4.413  30.391 -0.1227  0.2430 -0.2347
 3323DPPC   C1B61569  11.080  -4.083  31.627  0.2816 -0.4812  0.0996
 3323DPPC   C2B61570  11.349  -3.689  31.468 -0.2161  0.1927 -0.0374
 3323DPPC   C3B61571  11.759  -3.625  31.301 -0.0387 -0.3492 -0.0680
 3323DPPC   C4B61572  12.199  -3.359  31.123  0.1932  0.0449 -0.0407
 3324DPPC   NC361573  23.338  -3.318  17.169  0.1605  0.0200 -0.0821
 3324DPPC   PO461574  23.429  -3.778  16.983  0.0906 -0.1494 -0.0591
 3324DPPC   GL161575  23.796  -3.795  16.920  0.1542  0.1113  0.0387
 3324DPPC   GL261576  23.815  -3.471  16.795  0.3745 -0.2128  0.1376
 3324DPPC   C1A61577  24.275  -3.735  17.109 -0.0792 -0.2041  0.0316
 3324DPPC   C2A61578  24.560  -3.419  17.349  0.1241 -0.0383  0.2218
 3324DPPC   C3A61579  24.647  -2.936  17.356  0.1914 -0.4472  0.2181
 3324DPPC   C4A61580  24.857  -2.745  17.143 -0.3593 -0.1819 -0.1244
 3324DPPC   C1B61581  24.239  -3.485  16.655  0.0191  0.1776 -0.1051
 3324DPPC   C2B61582  24.530  -3.789  16.677  0.0790  0.1108  0.0822
 3324DPPC   C3B61583  24.764  -3.779  17.007 -0.1019  0.0373  0.3392
 3324DPPC   C4B61584  24.705  -3.969  17.359  0.0461 -0.1040  0.2617
 3325DPPC   NC361585  25.796  -2.187  11.804  0.0629  0.3489  0.0898
 3325DPPC   PO461586  25.553  -1.967  11.453  0.2571 -0.3076 -0.2830
 3325DPPC   GL161587  25.127  -2.089  11.635 -0.1077  0.1030  0.0970
 3325DPPC   GL261588  25.137  -2.183  11.999 -0.2549  0.2278 -0.1311
 3325DPPC   C1A61589  24.852  -1.860  11.673  0.0266 -0.3564 -0.1121
 3325DPPC   C2A61590  24.764  -1.486  11.805  0.0199  0.2805 -0.1297
 3325DPPC   C3A61591  25.012  -1.270  12.128  0.1035  0.2774 -0.0815
 3325DPPC   C4A61592  25.047  -0.837  12.366 -0.2883 -0.0319 -0.0881
 3325DPPC   C1B61593  24.870  -1.750  12.183 -0.0411 -0.1551 -0.3596
 3325DPPC   C2B61594  24.598  -1.616  12.408 -0.0744  0.1806 -0.2439
 3325DPPC   C3B61595  24.462  -1.762  12.755  0.0283  0.1165 -0.0989
 3325DPPC   C4B61596  24.449  -2.183  12.918  0.1653 -0.3020  0.2070
 3326DPPC   NC361597  21.268   1.080  13.816  0.0655  0.1747 -0.1303
 3326DPPC   PO461598  21.070   1.393  14.133  0.3086 -0.0697 -0.3011
 3326DPPC   GL161599  21.502   1.604  13.866  0.3121  0.1439 -0.0686
 3326DPPC   GL261600  21.576   1.871  14.101  0.0970  0.0073  0.5624
 3326DPPC   C1A61601  21.702   1.655  13.390  0.3710 -0.0907  0.0953
 3326DPPC   C2A61602  21.449   2.013  13.182  0.1186 -0.2652  0.3545
 3326DPPC   C3A61603  21.244   2.212  12.946 -0.0106  0.0345 -0.0321
 3326DPPC   C4A61604  21.085   2.606  12.664 -0.1198  0.1277  0.1333
 3326DPPC   C1B61605  21.474   2.376  14.425 -0.0861 -0.1047 -0.0852
 3326DPPC   C2B61606  21.396   2.797  14.407  0.2510  0.0992 -0.1889
 3326DPPC   C3B61607  21.030   3.035  14.384  0.0297 -0.0847 -0.1897
 3326DPPC   C4B61608  20.607   2.845  14.502 -0.0376  0.1886  0.1154
 3327DPPC   NC361609  17.866   6.492  37.784  0.0730  0.1283 -0.0223
 3327DPPC   PO461610  18.033   6.834  37.552  0.1672 -0.2010 -0.1713
 3327DPPC   GL161611  18.055   6.620  37.195 -0.0624 -0.1416 -0.1669
 3327DPPC   GL261612  18.366   6.859  36.880 -0.0004  0.0265  0.1922
 3327DPPC   C1A61613  18.142   6.436  36.794 -0.2143  0.1521  0.0708
 3327DPPC   C2A61614  18.325   6.096  36.363  0.0980 -0.1836  0.0658
 3327DPPC   C3A61615  18.131   5.833  35.996 -0.2110  0.0795 -0.1715
 3327DPPC   C4A61616  18.251   5.561  35.556  0.3660  0.1273  0.0657
 3327DPPC   C1B61617  18.534   6.705  36.614  0.1977  0.0832 -0.2174
 3327DPPC   C2B61618  18.402   6.568  36.116 -0.1242  0.0394  0.1165
 3327DPPC   C3B61619  18.231   6.561  35.599 -0.0968  0.0291  0.0718
 3327DPPC   C4B61620  18.002   6.958  35.417 -0.2493 -0.1157 -0.3991
 3328DPPC   NC361621  22.345  -3.959  18.502  0.0063 -0.1446 -0.0627
 3328DPPC   PO461622  22.154  -3.724  18.788 -0.1377 -0.0340  0.2429
 3328DPPC   GL161623  22.066  -3.534  19.152  0.4341  0.0851  0.3700
 3328DPPC   GL261624  22.352  -3.360  19.157  0.0124  0.1230  0.0783
 3328DPPC   C1A61625  21.749  -3.421  19.549 -0.2638 -0.0357 -0.0267
 3328DPPC   C2A61626  21.649  -3.195  19.741  0.0268  0.0264 -0.1931
 3328DPPC   C3A61627  21.696  -2.989  20.149 -0.0181 -0.1139 -0.0256
 3328DPPC   C4A61628  21.816  -2.848  20.494 -0.3510  0.1177 -0.4577
 3328DPPC   C1B61629  22.359  -3.407  19.595 -0.0842  0.1424 -0.0628
 3328DPPC   C2B61630  22.641  -3.333  19.957 -0.1735 -0.0595 -0.1798
 3328DPPC   C3B61631  22.686  -3.214  20.401  0.0149 -0.0560  0.0111
 3328DPPC   C4B61632  22.739  -3.101  20.881  0.1021  0.0681 -0.2694
 3329DPPC   NC361633  22.545   5.184  31.437 -0.0306 -0.3507  0.0807
 3329DPPC   PO461634  22.650   4.818  31.599  0.1769  0.3626  0.2699
 3329DPPC   GL161635  22.749   5.052  31.903 -0.1746 -0.3836  0.1349
 3329DPPC   GL261636  22.802   5.392  31.825  0.3158  0.1074 -0.3697
 3329DPPC   C1A61637  22.781   5.100  32.327  0.1410 -0.1621 -0.1363
 3329DPPC   C2A61638  22.596   5.131  32.691 -0.2248 -0.2941 -0.1448
 3329DPPC   C3A61639  22.458   5.060  33.055 -0.1433  0.0578 -0.0470
 3329DPPC   C4A61640  22.417   5.194  33.527 -0.4416  0.0188 -0.2661
 3329DPPC   C1B61641  23.175   5.323  31.940 -0.1219  0.0383 -0.4012
 3329DPPC   C2B61642  23.237   5.306  32.342  0.1160  0.3087  0.0180
 3329DPPC   C3B61643  23.214   5.071  32.760  0.3588 -0.2431 -0.1551
 3329DPPC   C4B61644  23.351   4.592  32.873 -0.0767  0.1537  0.0849
 3330DPPC   NC361645   2.691   0.711  23.814 -0.3898  0.1647  0.2629
 3330DPPC   PO461646   3.028   0.833  24.099  0.1526 -0.1386  0.1679
 3330DPPC   GL161647   3.413   0.985  24.000 -0.1420 -0.0954  0.3959
 3330DPPC   GL261648   3.584   0.789  23.645 -0.0256  0.0070 -0.0171
 3330DPPC   C1A61649   3.815   1.309  24.112 -0.2405 -0.1890  0.2715
 3330DPPC   C2A61650   4.081   1.670  24.026 -0.0628  0.0695  0.2656
 3330DPPC   C3A61651   4.415   1.961  24.105 -0.2255 -0.1325 -0.4504
 3330DPPC   C4A61652   4.657   2.326  24.029  0.3123  0.0608  0.0131
 3330DPPC   C1B61653   3.909   0.986  23.331 -0.2617  0.3114 -0.0270
 3330DPPC   C2B61654   3.915   0.951  22.963 -0.1405 -0.2170 -0.0547
 3330DPPC   C3B61655   4.185   0.872  22.599  0.2856  0.3116  0.0870
 3330DPPC   C4B61656   4.608   0.842  22.582 -0.1329 -0.0537 -0.0234
 3331DPPC   NC361657  18.983  -9.699  16.312 -0.0027 -0.0249  0.0929
 3331DPPC   PO461658  19.208  -9.782  16.665  0.1014 -0.1947  0.0570
 3331DPPC   GL161659  19.437  -9.489  16.411  0.3755  0.1075  0.2557
 3331DPPC   GL261660  19.184  -9.238  16.432  0.0337  0.1564 -0.0789
 3331DPPC   C1A61661  19.706  -9.263  16.205 -0.0871 -0.3809  0.0460
 3331DPPC   C2A61662  20.212  -9.153  16.145 -0.0891 -0.1271 -0.1735
 3331DPPC   C3A61663  20.635  -8.954  16.145 -0.1604 -0.1317 -0.5192
 3331DPPC   C4A61664  20.872  -9.159  15.933  0.2532  0.0543 -0.1712
 3331DPPC   C1B61665  19.039  -9.213  15.930  0.1040 -0.0896  0.1152
 3331DPPC   C2B61666  19.015  -8.734  15.880 -0.0784 -0.4519 -0.0582
 3331DPPC   C3B61667  18.775  -8.531  16.177 -0.2571 -0.1707  0.2709
 3331DPPC   C4B61668  18.582  -8.536  16.585 -0.0877  0.1408 -0.0155
 3332DPPC   NC361669   8.265  13.773  24.146 -0.1522  0.5194  0.2205
 3332DPPC   PO461670   8.466  14.207  24.113  0.0295 -0.0451 -0.2952
 3332DPPC   GL161671   8.840  13.967  24.164 -0.2274  0.0372 -0.1126
 3332DPPC   GL261672   9.105  14.006  24.409 -0.3462 -0.0520  0.0392
 3332DPPC   C1A61673   9.028  13.679  24.084 -0.1406 -0.1930 -0.1664
 3332DPPC   C2A61674   9.198  13.291  24.261 -0.1099 -0.1999 -0.0642
 3332DPPC   C3A61675   9.424  13.011  24.548  0.2367  0.0167 -0.3034
 3332DPPC   C4A61676   9.807  12.882  24.501 -0.2274 -0.0343 -0.4796
 3332DPPC   C1B61677   9.431  13.745  24.418  0.3052  0.2884 -0.1424
 3332DPPC   C2B61678   9.719  13.410  24.451 -0.1629 -0.2497  0.3292
 3332DPPC   C3B61679  10.211  13.239  24.492 -0.2846  0.3562 -0.0675
 3332DPPC   C4B61680  10.251  13.026  24.833 -0.3117  0.1858  0.3612
 3333DPPC   NC361681  20.162   0.975  13.896  0.3928 -0.1911 -0.1633
 3333DPPC   PO461682  20.525   0.715  13.791  0.2445 -0.2397  0.1559
 3333DPPC   GL161683  20.382   0.773  13.392 -0.0726 -0.1499  0.4023
 3333DPPC   GL261684  20.044   0.824  13.415  0.0862 -0.2941 -0.3139
 3333DPPC   C1A61685  20.602   0.713  12.954 -0.2162  0.2092 -0.3143
 3333DPPC   C2A61686  21.016   0.573  12.785  0.0804  0.0034  0.0447
 3333DPPC   C3A61687  21.417   0.513  12.734  0.0911  0.0464  0.0675
 3333DPPC   C4A61688  21.768   0.543  13.020 -0.2522  0.1188 -0.1453
 3333DPPC   C1B61689  20.047   1.219  13.173  0.0160 -0.2443  0.4054
 3333DPPC   C2B61690  20.107   1.642  13.233  0.0049  0.0167  0.1415
 3333DPPC   C3B61691  19.821   2.004  13.356 -0.0227  0.1258 -0.4938
 3333DPPC   C4B61692  19.793   2.401  13.140 -0.0864  0.1616  0.1520
 3334DPPC   NC361693  22.399  -7.548  22.909 -0.2615 -0.1679 -0.1407
 3334DPPC   PO461694  22.393  -7.189  23.096  0.4304 -0.2396 -0.1408
 3334DPPC   GL161695  22.066  -6.835  23.097 -0.1221 -0.3240  0.3391
 3334DPPC   GL261696  21.966  -6.599  22.824  0.2674  0.4244 -0.0378
 3334DPPC   C1A61697  21.832  -6.556  23.317 -0.5001 -0.1819 -0.0626
 3334DPPC   C2A61698  21.689  -6.166  23.149 -0.0889  0.2121 -0.1088
 3334DPPC   C3A61699  21.333  -5.990  22.805  0.0064  0.2661  0.0563
 3334DPPC   C4A61700  21.202  -5.609  22.554 -0.1432  0.1061 -0.1533
 3334DPPC   C1B61701  22.200  -6.205  22.691 -0.0303  0.2436  0.0673
 3334DPPC   C2B61702  22.386  -5.763  22.693  0.0661  0.2467 -0.0557
 3334DPPC   C3B61703  22.652  -5.320  22.790 -0.1437  0.2850  0.1424
 3334DPPC   C4B61704  22.580  -4.924  22.709 -0.2156 -0.2335 -0.1196
 3335DPPC   NC361705  25.027   7.547  17.182 -0.0335 -0.1664 -0.0738
 3335DPPC   PO461706  25.027   7.326  16.722 -0.1257  0.2639 -0.4099
 3335DPPC   GL161707  24.672   7.270  16.953 -0.0173  0.1453 -0.2755
 3335DPPC   GL261708  24.245   7.129  16.916  0.0291 -0.0570 -0.1381
 3335DPPC   C1A61709  24.591   7.136  17.438 -0.1472  0.1978  0.3544
 3335DPPC   C2A61710  24.153   6.885  17.713 -0.0539 -0.1200  0.0440
 3335DPPC   C3A61711  23.732   6.655  17.765  0.1446 -0.0527  0.1488
 3335DPPC   C4A61712  23.323   6.531  17.723  0.2353  0.0585  0.1256
 3335DPPC   C1B61713  23.782   7.164  16.931  0.2226  0.0703 -0.1154
 3335DPPC   C2B61714  23.555   7.376  17.203 -0.0303  0.1766 -0.5473
 3335DPPC   C3B61715  23.171   7.548  17.092  0.0447  0.2701  0.2326
 3335DPPC   C4B61716  23.042   7.900  17.057 -0.3306 -0.2395 -0.0415
 3336DPPC   NC361717  17.447  -1.562  14.688  0.0594 -0.3091 -0.1384
 3336DPPC   PO461718  17.568  -1.161  15.026  0.0586 -0.1579  0.1097
 3336DPPC   GL161719  17.143  -1.050  14.937 -0.0124  0.1592 -0.2824
 3336DPPC   GL261720  16.880  -1.342  14.737  0.1273 -0.0841  0.2011
 3336DPPC   C1A61721  16.730  -1.038  15.055 -0.2154  0.0542  0.2411
 3336DPPC   C2A61722  16.353  -1.140  15.185  0.4276  0.3393 -0.0613
 3336DPPC   C3A61723  15.950  -1.337  14.981  0.2518 -0.2044  0.2482
 3336DPPC   C4A61724  15.559  -1.234  15.163 -0.2915  0.0719  0.0194
 3336DPPC   C1B61725  16.395  -1.213  14.647  0.1736  0.2249  0.2219
 3336DPPC   C2B61726  16.194  -0.857  14.808  0.0419  0.0708 -0.2479
 3336DPPC   C3B61727  15.811  -0.761  14.945  0.2824  0.2061  0.1794
 3336DPPC   C4B61728  15.796  -0.342  14.995  0.0520 -0.1860 -0.0513
 3337DPPC   NC361729  20.330   8.811  36.888  0.1092 -0.0282  0.0039
 3337DPPC   PO461730  20.240   8.432  36.659  0.0390  0.1911 -0.0706
 3337DPPC   GL161731  19.932   8.231  36.322  0.2381 -0.1558 -0.1342
 3337DPPC   GL261732  20.021   8.410  36.113  0.0389 -0.2200  0.0543
 3337DPPC   C1A61733  19.484   8.103  36.262  0.0015  0.0817 -0.1638
 3337DPPC   C2A61734  19.330   8.461  36.220  0.0200  0.0324  0.0484
 3337DPPC   C3A61735  19.089   8.501  35.874  0.0434  0.2079  0.0016
 3337DPPC   C4A61736  19.027   8.642  35.399 -0.1314  0.1601 -0.0615
 3337DPPC   C1B61737  19.702   8.461  35.857  0.1497  0.4137  0.0200
 3337DPPC   C2B61738  19.407   8.334  35.560  0.1502 -0.2484 -0.0365
 3337DPPC   C3B61739  19.216   8.032  35.326 -0.0189  0.1259  0.1646
 3337DPPC   C4B61740  18.918   7.743  35.203 -0.1541 -0.2888 -0.1254
 3338DPPC   NC361741  27.213   6.878  21.247 -0.1349 -0.2184  0.4378
 3338DPPC   PO461742  27.394   6.704  21.544 -0.3628  0.2190 -0.2447
 3338DPPC   GL161743  27.084   6.534  21.649 -0.1074  0.0427 -0.0072
 3338DPPC   GL261744  27.043   6.185  21.754  0.3616  0.1845  0.0805
 3338DPPC   C1A61745  26.704   6.635  21.876 -0.2590 -0.0722 -0.2784
 3338DPPC   C2A61746  26.570   6.970  22.019  0.2688 -0.1218 -0.2014
 3338DPPC   C3A61747  26.501   7.362  22.092  0.1590 -0.2137 -0.2680
 3338DPPC   C4A61748  26.404   7.786  21.748 -0.2495 -0.0734  0.1948
 3338DPPC   C1B61749  26.697   6.263  21.557 -0.2455  0.1354 -0.0898
 3338DPPC   C2B61750  26.270   6.003  21.727 -0.2773 -0.0961 -0.0296
 3338DPPC   C3B61751  25.917   6.053  21.945  0.0811  0.3304 -0.1532
 3338DPPC   C4B61752  25.510   5.850  22.116 -0.2427 -0.0325 -0.0175
 3339DPPC   NC361753   4.013   7.238  29.458  0.4418 -0.3257 -0.0575
 3339DPPC   PO461754   3.846   7.123  29.045 -0.1130  0.3582 -0.4495
 3339DPPC   GL161755   4.266   6.958  28.852 -0.1988  0.2115 -0.0445
 3339DPPC   GL261756   4.373   6.556  28.804  0.0313 -0.1281  0.2074
 3339DPPC   C1A61757   4.463   6.948  28.512  0.0753  0.0544 -0.1117
 3339DPPC   C2A61758   4.864   6.895  28.341  0.0360  0.1633 -0.0258
 3339DPPC   C3A61759   5.309   6.828  28.495  0.0850  0.0011 -0.0120
 3339DPPC   C4A61760   5.586   7.004  28.805  0.0396 -0.1276 -0.2854
 3339DPPC   C1B61761   4.810   6.524  28.669 -0.0342 -0.1526 -0.0514
 3339DPPC   C2B61762   5.139   6.357  28.729 -0.3121 -0.2238  0.0450
 3339DPPC   C3B61763   5.642   6.452  28.684  0.2186  0.2047  0.1618
 3339DPPC   C4B61764   5.981   6.669  28.434 -0.0342 -0.1777  0.2048
 3340DPPC   NC361765  10.473  -2.162  34.717  0.0812  0.0242  0.1641
 3340DPPC   PO461766  10.382  -2.525  34.336 -0.1462 -0.0582 -0.0048
 3340DPPC   GL161767  10.559  -2.308  34.030 -0.3749 -0.0246  0.2744
 3340DPPC   GL261768  10.686  -1.927  34.051  0.0787  0.3343  0.0036
 3340DPPC   C1A61769  10.750  -2.203  33.678 -0.2292  0.0609 -0.1105
 3340DPPC   C2A61770  11.009  -1.895  33.557 -0.0345 -0.2196  0.2562
 3340DPPC   C3A61771  11.184  -1.549  33.703 -0.2142 -0.0692  0.1585
 3340DPPC   C4A61772  11.408  -1.037  33.674  0.1048 -0.1405  0.1027
 3340DPPC   C1B61773  10.627  -1.618  33.559  0.5782  0.1763  0.0499
 3340DPPC   C2B61774  10.981  -1.493  33.234 -0.0831 -0.0102 -0.1846
 3340DPPC   C3B61775  11.102  -1.198  33.074 -0.2603  0.0591  0.0670
 3340DPPC   C4B61776  11.391  -1.065  32.806 -0.2414 -0.0567  0.4595
 3341DPPC   NC361777  21.521   8.641  13.765 -0.0329  0.1875 -0.2933
 3341DPPC   PO461778  21.373   8.234  14.092  0.0001 -0.3942  0.0418
 3341DPPC   GL161779  21.021   8.102  14.420  0.2275 -0.3559 -0.3791
 3341DPPC   GL261780  20.710   7.819  14.253 -0.1622  0.0344 -0.1338
 3341DPPC   C1A61781  20.959   8.179  14.876 -0.0538  0.4436  0.0278
 3341DPPC   C2A61782  20.886   8.432  15.181 -0.0668  0.0926 -0.0320
 3341DPPC   C3A61783  20.680   8.505  15.572 -0.2472  0.1057  0.1809
 3341DPPC   C4A61784  20.169   8.491  15.780  0.0123 -0.3491  0.5257
 3341DPPC   C1B61785  20.563   7.944  14.646 -0.2386 -0.0479  0.2644
 3341DPPC   C2B61786  20.261   7.910  14.945 -0.0436 -0.0307  0.1985
 3341DPPC   C3B61787  20.017   7.908  15.379  0.1105  0.0695  0.1446
 3341DPPC   C4B61788  19.685   7.901  15.663  0.0788 -0.1899 -0.2367
 3342DPPC   NC361789  20.202  -5.669  16.940 -0.2150 -0.0720 -0.0864
 3342DPPC   PO461790  19.910  -5.883  16.638 -0.0702  0.3208 -0.0985
 3342DPPC   GL161791  20.000  -6.305  16.754  0.4010 -0.3102 -0.2332
 3342DPPC   GL261792  19.624  -6.309  16.767 -0.1772 -0.0498 -0.0728
 3342DPPC   C1A61793  20.209  -6.691  16.868  0.0691 -0.1135 -0.0634
 3342DPPC   C2A61794  20.533  -6.962  16.900  0.5769  0.3981 -0.0124
 3342DPPC   C3A61795  20.955  -7.026  17.127 -0.1229 -0.1039 -0.0124
 3342DPPC   C4A61796  21.095  -7.218  17.422 -0.1322 -0.0305 -0.2519
 3342DPPC   C1B61797  19.666  -6.785  16.886  0.3078  0.0724 -0.1715
 3342DPPC   C2B61798  19.746  -7.246  16.817  0.0951 -0.0639  0.1606
 3342DPPC   C3B61799  19.849  -7.590  16.947 -0.2013 -0.2013 -0.2983
 3342DPPC   C4B61800  20.243  -7.754  17.135  0.0798  0.0451 -0.1871
 3343DPPC   NC361801  15.095  -7.302  29.359 -0.2121  0.0882 -0.1504
 3343DPPC   PO461802  14.791  -7.229  29.425  0.1189  0.2455 -0.0203
 3343DPPC   GL161803  14.794  -7.109  28.976 -0.0925  0.0191  0.0583
 3343DPPC   GL261804  14.882  -7.268  28.825 -0.0775  0.0323 -0.2804
 3343DPPC   C1A61805  14.630  -6.661  29.033  0.2430 -0.0680 -0.0603
 3343DPPC   C2A61806  14.667  -6.420  28.714  0.2525  0.1842  0.2664
 3343DPPC   C3A61807  14.805  -6.049  28.708  0.0602 -0.3582 -0.0659
 3343DPPC   C4A61808  15.118  -5.681  28.766 -0.0032  0.2835  0.0429
 3343DPPC   C1B61809  14.358  -6.954  28.687 -0.0791  0.2020 -0.0957
 3343DPPC   C2B61810  14.368  -6.625  28.320  0.0039  0.3987  0.2724
 3343DPPC   C3B61811  14.658  -6.230  28.192  0.2791 -0.0434  0.0853
 3343DPPC   C4B61812  14.765  -5.884  28.015  0.1533 -0.3713  0.2124
 3344DPPC   NC361813  22.771  -4.936  17.254  0.0358 -0.0565  0.1089
 3344DPPC   PO461814  23.118  -4.653  17.436  0.4439  0.0046  0.2610
 3344DPPC   GL161815  23.533  -4.485  17.382 -0.0053 -0.0688 -0.1922
 3344DPPC   GL261816  23.699  -4.731  17.487  0.1965 -0.1454 -0.0700
 3344DPPC   C1A61817  23.824  -4.270  17.225 -0.0677  0.2918 -0.1137
 3344DPPC   C2A61818  24.209  -4.229  17.083 -0.4412  0.0797  0.1114
 3344DPPC   C3A61819  24.594  -4.480  17.321 -0.2810  0.1955  0.4183
 3344DPPC   C4A61820  24.727  -4.793  17.519 -0.0829  0.1597  0.0103
 3344DPPC   C1B61821  24.179  -4.856  17.211  0.0749 -0.1754 -0.1281
 3344DPPC   C2B61822  24.466  -4.990  17.068 -0.0489 -0.0277 -0.0729
 3344DPPC   C3B61823  24.603  -5.192  16.751 -0.2326 -0.1217  0.2887
 3344DPPC   C4B61824  24.773  -5.546  16.619 -0.0439 -0.2769 -0.5262
 3345DPPC   NC361825  18.500   0.627  37.407 -0.1885 -0.0586 -0.4030
 3345DPPC   PO461826  18.580   0.722  36.873  0.0005 -0.0476 -0.0442
 3345DPPC   GL161827  18.391   0.722  36.406  0.1476  0.3364 -0.5809
 3345DPPC   GL261828  17.988   0.673  36.381 -0.0554 -0.0381 -0.2139
 3345DPPC   C1A61829  18.263   0.727  35.924  0.2050  0.1236  0.2247
 3345DPPC   C2A61830  18.427   0.821  35.469  0.2330  0.0423  0.0791
 3345DPPC   C3A61831  18.372   1.033  35.052 -0.2192 -0.0923 -0.2469
 3345DPPC   C4A61832  18.635   0.975  34.591 -0.0610  0.0623 -0.1279
 3345DPPC   C1B61833  17.853   1.008  36.051 -0.0239 -0.1369  0.0708
 3345DPPC   C2B61834  17.769   0.904  35.638 -0.0723  0.1282 -0.0073
 3345DPPC   C3B61835  17.810   0.941  35.179  0.2280 -0.2842 -0.1390
 3345DPPC   C4B61836  17.939   0.794  34.770  0.0080  0.2156  0.1199
 3346DPPC   NC361837  22.022  -0.907  17.589  0.0771 -0.0955  0.2051
 3346DPPC   PO461838  21.671  -0.834  17.346 -0.1359 -0.0313  0.0875
 3346DPPC   GL161839  21.980  -0.395  17.476  0.2298 -0.1158  0.0321
 3346DPPC   GL261840  22.266  -0.485  17.554  0.0638 -0.0571  0.0624
 3346DPPC   C1A61841  21.975   0.031  17.738  0.0339 -0.2381 -0.0038
 3346DPPC   C2A61842  21.871  -0.040  18.204  0.0443 -0.0219 -0.0968
 3346DPPC   C3A61843  21.660  -0.104  18.565  0.1618 -0.2678 -0.3828
 3346DPPC   C4A61844  21.365  -0.112  18.915  0.0330 -0.0279 -0.3244
 3346DPPC   C1B61845  22.499  -0.123  17.671  0.2123  0.4228  0.0526
 3346DPPC   C2B61846  22.882   0.120  17.680  0.3323 -0.1348  0.3246
 3346DPPC   C3B61847  23.308   0.002  17.912 -0.1149 -0.0855 -0.2707
 3346DPPC   C4B61848  23.468   0.044  18.306  0.0379  0.1129 -0.0898
 3347DPPC   NC361849  24.466  -2.820  31.265 -0.1423  0.2687 -0.0458
 3347DPPC   PO461850  24.849  -2.880  30.988 -0.1529  0.2020  0.0525
 3347DPPC   GL161851  24.549  -2.850  30.722 -0.0998  0.0580  0.0121
 3347DPPC   GL261852  24.367  -3.086  30.752  0.1443 -0.0314 -0.0344
 3347DPPC   C1A61853  24.291  -2.658  30.481 -0.1035  0.3287 -0.2417
 3347DPPC   C2A61854  23.959  -2.482  30.594  0.1874 -0.3436 -0.0960
 3347DPPC   C3A61855  23.866  -2.095  30.456  0.0841 -0.0193 -0.1061
 3347DPPC   C4A61856  23.848  -2.056  29.989 -0.1532  0.1792 -0.0809
 3347DPPC   C1B61857  23.876  -2.975  30.565  0.0398 -0.2626 -0.0525
 3347DPPC   C2B61858  23.464  -2.950  30.464 -0.0876 -0.0909  0.0323
 3347DPPC   C3B61859  23.249  -2.824  30.117 -0.1807  0.1361 -0.0864
 3347DPPC   C4B61860  23.111  -2.627  29.749  0.1921 -0.0532  0.5383
 3348DPPC   NC361861  21.606  -4.705  16.437  0.1193 -0.3540  0.0930
 3348DPPC   PO461862  21.971  -4.812  16.211  0.1165 -0.1931  0.4042
 3348DPPC   GL161863  22.343  -5.227  16.261 -0.2189 -0.0770 -0.0199
 3348DPPC   GL261864  22.186  -5.378  16.109  0.3551 -0.2679  0.0398
 3348DPPC   C1A61865  22.760  -5.398  16.158  0.0376 -0.3907 -0.1891
 3348DPPC   C2A61866  22.933  -5.872  16.198  0.1133 -0.2003 -0.0668
 3348DPPC   C3A61867  23.237  -6.276  16.227  0.2284  0.0627  0.2618
 3348DPPC   C4A61868  23.339  -6.593  15.888 -0.3046  0.4076 -0.0106
 3348DPPC   C1B61869  22.418  -5.589  15.722  0.0078  0.4418  0.0757
 3348DPPC   C2B61870  22.679  -5.882  15.758 -0.3229 -0.0477 -0.1933
 3348DPPC   C3B61871  23.097  -6.155  15.763  0.1080  0.1446 -0.1594
 3348DPPC   C4B61872  23.460  -6.065  15.723 -0.3789  0.3942  0.0110
 3349DPPC   NC361873  20.279  -3.458  13.708  0.1642 -0.2658  0.3159
 3349DPPC   PO461874  20.522  -3.140  13.801 -0.0950 -0.0538  0.1568
 3349DPPC   GL161875  20.615  -3.094  13.400  0.0011  0.0399 -0.0910
 3349DPPC   GL261876  20.691  -3.438  13.314 -0.1230  0.3315  0.2383
 3349DPPC   C1A61877  20.495  -2.961  12.985 -0.0207 -0.0702 -0.1486
 3349DPPC   C2A61878  20.657  -3.004  12.554  0.1630 -0.0035 -0.0647
 3349DPPC   C3A61879  20.926  -3.247  12.291  0.4413 -0.0410  0.2491
 3349DPPC   C4A61880  21.103  -3.013  11.962 -0.0711  0.0703  0.1934
 3349DPPC   C1B61881  20.697  -3.704  13.068  0.1631 -0.1969 -0.0102
 3349DPPC   C2B61882  20.619  -3.999  12.773  0.1852 -0.0377  0.1677
 3349DPPC   C3B61883  20.612  -4.094  12.390  0.2929 -0.3053  0.0262
 3349DPPC   C4B61884  20.607  -4.127  12.007 -0.3556 -0.0301  0.3000
 3350DPPC   NC361885  27.711  -1.092  21.823 -0.1177  0.0972  0.0752
 3350DPPC   PO461886  27.670  -1.033  22.281 -0.1919 -0.1464 -0.2339
 3350DPPC   GL161887  27.407  -0.830  22.204 -0.0077  0.1669  0.0844
 3350DPPC   GL261888  27.527  -0.555  22.107 -0.3382  0.3180  0.2436
 3350DPPC   C1A61889  26.987  -0.726  22.055 -0.0450  0.0387  0.0235
 3350DPPC   C2A61890  26.584  -0.669  21.893 -0.0920  0.2283 -0.0038
 3350DPPC   C3A61891  26.168  -0.727  22.030 -0.0174 -0.2850  0.0130
 3350DPPC   C4A61892  25.823  -0.668  22.311  0.0469  0.4116 -0.0650
 3350DPPC   C1B61893  27.311  -0.357  22.433  0.0672 -0.0167  0.1542
 3350DPPC   C2B61894  26.906  -0.333  22.488  0.2663 -0.1321 -0.0588
 3350DPPC   C3B61895  26.564  -0.422  22.348 -0.1404  0.2155 -0.0144
 3350DPPC   C4B61896  26.257  -0.693  22.559  0.0733 -0.2116 -0.1377
 3351DPPC   NC361897   9.744  15.290  30.530 -0.2855  0.1880  0.0343
 3351DPPC   PO461898   9.952  14.888  30.640 -0.2191 -0.1872 -0.1584
 3351DPPC   GL161899  10.112  14.490  30.665 -0.0836  0.2239 -0.6062
 3351DPPC   GL261900   9.998  14.292  30.957 -0.5977  0.1341 -0.2616
 3351DPPC   C1A61901  10.384  14.176  30.621  0.1247 -0.0830 -0.2226
 3351DPPC   C2A61902  10.742  14.015  30.766  0.1106 -0.0785  0.2832
 3351DPPC   C3A61903  11.134  13.855  30.916 -0.1324  0.3458  0.0833
 3351DPPC   C4A61904  11.501  13.870  31.030  0.0670 -0.4535 -0.1772
 3351DPPC   C1B61905  10.324  13.884  31.089  0.0606  0.0686 -0.1749
 3351DPPC   C2B61906  10.748  13.622  31.101 -0.3012 -0.0278  0.3431
 3351DPPC   C3B61907  10.898  13.407  30.772  0.0065  0.4512  0.2007
 3351DPPC   C4B61908  10.919  13.523  30.331 -0.0496  0.0385 -0.6000
 3352DPPC   NC361909  24.599  -5.077  27.141  0.1234  0.0608  0.0598
 3352DPPC   PO461910  24.666  -4.630  27.020  0.2868  0.3075  0.0487
 3352DPPC   GL161911  24.724  -4.243  27.167  0.2883 -0.1389  0.0175
 3352DPPC   GL261912  24.651  -4.099  27.539  0.1451 -0.3520 -0.0689
 3352DPPC   C1A61913  24.575  -3.737  26.918  0.1767 -0.0084  0.0100
 3352DPPC   C2A61914  24.478  -3.314  26.953 -0.2747  0.3196  0.1792
 3352DPPC   C3A61915  24.320  -2.970  26.698 -0.2595  0.0888  0.0793
 3352DPPC   C4A61916  24.149  -2.770  26.348  0.1338 -0.0156 -0.0552
 3352DPPC   C1B61917  24.698  -3.656  27.389 -0.1596 -0.1256 -0.0099
 3352DPPC   C2B61918  24.898  -3.315  27.296 -0.0223 -0.1229 -0.1363
 3352DPPC   C3B61919  24.776  -2.937  27.162 -0.1140 -0.2188  0.1766
 3352DPPC   C4B61920  24.395  -2.779  27.138  0.0517  0.0945 -0.0105
 3353DPPC   NC361921  27.479   6.174  20.647  0.1461  0.1006 -0.2709
 3353DPPC   PO461922  27.145   6.569  20.759 -0.0906 -0.0006  0.0062
 3353DPPC   GL161923  26.815   6.768  20.929 -0.1663 -0.1646 -0.0036
 3353DPPC   GL261924  26.798   6.523  21.201  0.0268 -0.1050 -0.0364
 3353DPPC   C1A61925  26.423   6.706  20.787  0.1618 -0.2613  0.1519
 3353DPPC   C2A61926  25.961   6.570  20.775 -0.1116  0.2406  0.1573
 3353DPPC   C3A61927  25.552   6.414  20.854 -0.2382 -0.1545  0.0209
 3353DPPC   C4A61928  25.165   6.200  20.723 -0.0900 -0.3530 -0.2029
 3353DPPC   C1B61929  26.403   6.315  21.139  0.1147 -0.0867  0.3893
 3353DPPC   C2B61930  25.921   6.307  21.267 -0.1516  0.0517  0.0061
 3353DPPC   C3B61931  25.479   6.257  21.325 -0.3016  0.1000  0.2874
 3353DPPC   C4B61932  25.318   5.952  21.150  0.2691 -0.1146  0.1249
 3354DPPC   NC361933  22.541  -3.454  18.664  0.0100  0.0179  0.0078
 3354DPPC   PO461934  22.610  -3.868  18.948 -0.1054 -0.0582  0.0591
 3354DPPC   GL161935  22.582  -3.802  19.299 -0.0590  0.2923  0.2596
 3354DPPC   GL261936  22.309  -3.943  19.478  0.0430  0.1277  0.0824
 3354DPPC   C1A61937  22.881  -3.805  19.665  0.1167 -0.1682  0.1478
 3354DPPC   C2A61938  23.209  -3.669  19.899  0.0056 -0.0297  0.4401
 3354DPPC   C3A61939  23.573  -3.750  20.157 -0.2039  0.3011 -0.1677
 3354DPPC   C4A61940  23.556  -3.581  20.589 -0.1311 -0.0880 -0.0861
 3354DPPC   C1B61941  22.244  -4.279  19.826 -0.1163 -0.1499  0.3821
 3354DPPC   C2B61942  22.357  -4.193  20.227 -0.3186 -0.0096 -0.2732
 3354DPPC   C3B61943  22.199  -4.374  20.632 -0.0642  0.1629 -0.0056
 3354DPPC   C4B61944  22.090  -4.354  21.056 -0.1605  0.2113  0.0706
 3355DPPC   NC361945  17.694  -4.737  17.585 -0.3946  0.0965  0.1627
 3355DPPC   PO461946  17.381  -5.102  17.469  0.1125  0.1268 -0.3320
 3355DPPC   GL161947  17.103  -5.300  17.662 -0.2998  0.1693  0.3999
 3355DPPC   GL261948  17.101  -5.668  17.567  0.0369  0.1642 -0.0347
 3355DPPC   C1A61949  17.043  -5.414  18.069  0.0802  0.2845 -0.1016
 3355DPPC   C2A61950  16.809  -5.445  18.395 -0.1074  0.0047  0.2619
 3355DPPC   C3A61951  16.677  -5.647  18.785  0.2189  0.1648 -0.4186
 3355DPPC   C4A61952  16.493  -5.838  19.160  0.1765 -0.1348 -0.2011
 3355DPPC   C1B61953  16.844  -6.019  17.528 -0.1150  0.2126 -0.2754
 3355DPPC   C2B61954  16.598  -6.098  17.170  0.4614 -0.0527 -0.0235
 3355DPPC   C3B61955  16.300  -6.261  16.798 -0.0780 -0.2454  0.1093
 3355DPPC   C4B61956  15.962  -6.213  16.609 -0.4341  0.3540 -0.2465
 3356DPPC   NC361957   7.474  13.797  23.100  0.0095  0.0206 -0.3049
 3356DPPC   PO461958   7.708  13.487  23.343 -0.2449 -0.3896  0.1928
 3356DPPC   GL161959   7.829  13.145  23.177  0.0197  0.3953  0.1073
 3356DPPC   GL261960   8.019  12.914  23.303  0.4150 -0.3247  0.2307
 3356DPPC   C1A61961   7.893  12.891  22.836 -0.0852 -0.0143 -0.2533
 3356DPPC   C2A61962   7.919  12.380  22.828 -0.2773  0.1426  0.2512
 3356DPPC   C3A61963   8.298  12.091  23.052 -0.1070  0.0920 -0.0813
 3356DPPC   C4A61964   8.735  11.883  23.037 -0.1745  0.2177 -0.3002
 3356DPPC   C1B61965   8.207  12.538  23.333  0.0855 -0.1922 -0.1418
 3356DPPC   C2B61966   8.645  12.526  23.355 -0.1784  0.1233 -0.0043
 3356DPPC   C3B61967   9.093  12.389  23.216  0.2790  0.1534 -0.4153
 3356DPPC   C4B61968   9.413  12.288  22.923  0.3441 -0.2962 -0.1014
 3357DPPC   NC361969  16.890   7.219  37.578 -0.2295  0.1251 -0.1023
 3357DPPC   PO461970  16.538   7.562  37.376 -0.0273  0.1995  0.0895
 3357DPPC   GL161971  16.554   7.208  37.134 -0.3549  0.1238 -0.2206
 3357DPPC   GL261972  16.257   7.133  37.106  0.0850  0.1681  0.1257
 3357DPPC   C1A61973  16.668   6.946  36.880  0.0511  0.0639 -0.0432
 3357DPPC   C2A61974  16.582   6.875  36.447  0.1289  0.0942  0.0330
 3357DPPC   C3A61975  16.733   6.558  36.141 -0.2759 -0.0935 -0.0308
 3357DPPC   C4A61976  16.457   6.320  35.754 -0.3261  0.1136  0.0665
 3357DPPC   C1B61977  16.214   6.743  36.819 -0.0220  0.1468 -0.1138
 3357DPPC   C2B61978  16.246   6.337  36.638  0.0172  0.2431  0.1971
 3357DPPC   C3B61979  16.275   6.229  36.254  0.0085 -0.2262  0.0358
 3357DPPC   C4B61980  16.269   5.842  35.950 -0.0063  0.0031 -0.1312
 3358DPPC   NC361981   5.068  10.955  23.809  0.2717  0.3141  0.0463
 3358DPPC   PO461982   4.912  10.616  24.136  0.2770  0.4159  0.0402
 3358DPPC   GL161983   5.086  10.387  24.441  0.1639  0.0379  0.1565
 3358DPPC   GL261984   4.945  10.411  24.754  0.1253  0.0729 -0.0242
 3358DPPC   C1A61985   5.351  10.163  24.647 -0.0304  0.1201 -0.0508
 3358DPPC   C2A61986   5.674   9.781  24.632 -0.1189 -0.1565 -0.0945
 3358DPPC   C3A61987   5.797   9.403  24.432  0.1182  0.1656  0.1298
 3358DPPC   C4A61988   5.468   9.048  24.355  0.1181 -0.2086 -0.0108
 3358DPPC   C1B61989   5.062  10.159  25.071 -0.3416 -0.1468 -0.0875
 3358DPPC   C2B61990   5.238   9.784  25.057  0.2821  0.0099 -0.0742
 3358DPPC   C3B61991   5.613   9.648  25.234 -0.2958 -0.0695 -0.1368
 3358DPPC   C4B61992   5.930   9.301  25.197  0.0437  0.0451  0.1488
 3359DPPC   NC361993  28.334   8.874  26.041 -0.0809  0.1098  0.3218
 3359DPPC   PO461994  28.263   8.454  26.015 -0.0323  0.3424  0.1626
 3359DPPC   GL161995  27.983   8.682  26.314 -0.2861 -0.0547 -0.0177
 3359DPPC   GL261996  27.757   8.624  26.726 -0.3790 -0.2385 -0.0539
 3359DPPC   C1A61997  27.500   8.773  26.363 -0.0539  0.1677 -0.0931
 3359DPPC   C2A61998  27.297   8.343  26.245  0.2647 -0.0593 -0.0939
 3359DPPC   C3A61999  27.160   7.988  26.280 -0.0750  0.3111  0.0644
 3359DPPC   C4A62000  26.825   7.811  26.451 -0.1041 -0.3939 -0.1174
 3359DPPC   C1B62001  27.340   8.481  26.774  0.1142 -0.0411  0.2164
 3359DPPC   C2B62002  26.846   8.394  26.761  0.0054  0.1550  0.0017
 3359DPPC   C3B62003  26.521   8.067  26.742  0.3069  0.0467  0.0853
 3359DPPC   C4B62004  26.064   8.077  26.534 -0.1850  0.4145 -0.0201
 3360DPPC   NC362005  25.147  10.743  31.186 -0.1580  0.0887  0.0263
 3360DPPC   PO462006  25.296  10.293  31.244  0.0203  0.1775  0.2621
 3360DPPC   GL162007  24.856  10.360  31.308  0.2387 -0.2557  0.1649
 3360DPPC   GL262008  24.668  10.716  31.237 -0.1767  0.1885 -0.0409
 3360DPPC   C1A62009  24.474  10.252  30.996  0.3193  0.1522 -0.1516
 3360DPPC   C2A62010  24.186  10.036  30.761  0.3885  0.1684  0.0327
 3360DPPC   C3A62011  23.938   9.700  30.630 -0.2242  0.0725 -0.1174
 3360DPPC   C4A62012  23.655   9.463  30.664 -0.1075 -0.3544 -0.2598
 3360DPPC   C1B62013  24.236  10.682  31.035 -0.2022 -0.1325  0.3720
 3360DPPC   C2B62014  23.949  10.456  30.930  0.0503  0.0230  0.2380
 3360DPPC   C3B62015  23.753  10.074  30.967  0.2284  0.2697  0.3103
 3360DPPC   C4B62016  23.614   9.801  31.231  0.3168 -0.0859  0.0459
 3361DPPC   NC362017  22.888  -3.250  32.110  0.2337  0.1660 -0.0439
 3361DPPC   PO462018  23.074  -2.874  32.371 -0.1201 -0.0956  0.1958
 3361DPPC   GL162019  23.219  -2.883  31.898  0.2310 -0.1457 -0.1361
 3361DPPC   GL262020  23.541  -2.684  31.732  0.1031  0.0435 -0.2019
 3361DPPC   C1A62021  22.991  -2.724  31.546 -0.0719 -0.0287  0.2651
 3361DPPC   C2A62022  22.837  -2.947  31.273 -0.2916 -0.3754 -0.0165
 3361DPPC   C3A62023  22.528  -2.841  30.959  0.2701  0.2541 -0.0804
 3361DPPC   C4A62024  22.421  -2.898  30.536  0.1901 -0.1023 -0.1788
 3361DPPC   C1B62025  23.328  -2.325  31.412  0.0652  0.0493  0.1097
 3361DPPC   C2B62026  23.214  -2.009  31.186  0.0826 -0.0707  0.1155
 3361DPPC   C3B62027  22.801  -1.821  30.910  0.0938  0.2348  0.0654
 3361DPPC   C4B62028  22.391  -1.849  30.642 -0.1984  0.0725 -0.2323
 3362DPPC   NC362029  20.658  -8.975  18.896  0.1091  0.0396  0.0490
 3362DPPC   PO462030  20.403  -9.378  18.808 -0.0572  0.1539  0.0618
 3362DPPC   GL162031  20.323  -8.999  18.504  0.1249  0.3080 -0.1566
 3362DPPC   GL262032  20.439  -8.848  18.344  0.0414 -0.2484  0.1467
 3362DPPC   C1A62033  20.081  -9.056  17.957  0.0056  0.2647 -0.3867
 3362DPPC   C2A62034  20.003  -8.999  17.545  0.1671 -0.0435  0.2715
 3362DPPC   C3A62035  20.236  -8.603  17.365  0.2009  0.0737  0.1964
 3362DPPC   C4A62036  20.346  -8.299  17.023 -0.3623  0.0438  0.1354
 3362DPPC   C1B62037  20.617  -9.112  18.011  0.1982  0.1014 -0.2409
 3362DPPC   C2B62038  20.583  -8.941  17.630 -0.1978  0.0596  0.1648
 3362DPPC   C3B62039  20.372  -9.096  17.212  0.0224 -0.1427  0.0078
 3362DPPC   C4B62040  20.001  -8.840  17.012 -0.1242  0.0159 -0.0949
 3363DPPC   NC362041   8.209   0.847  14.952 -0.1613  0.0275  0.0748
 3363DPPC   PO462042   8.534   1.128  14.619  0.1388 -0.0049 -0.0988
 3363DPPC   GL162043   8.661   1.383  14.945  0.1051 -0.0913 -0.0404
 3363DPPC   GL262044   8.582   1.169  15.142  0.0695 -0.0997 -0.2769
 3363DPPC   C1A62045   8.962   1.618  15.352  0.1212  0.3066 -0.1109
 3363DPPC   C2A62046   9.245   1.550  15.616  0.1079 -0.3275 -0.0375
 3363DPPC   C3A62047   9.387   1.602  16.022 -0.0737  0.3528 -0.1001
 3363DPPC   C4A62048   9.592   1.729  16.412  0.0029  0.0394  0.1667
 3363DPPC   C1B62049   8.812   1.036  15.467 -0.0240 -0.2408  0.2346
 3363DPPC   C2B62050   9.321   1.058  15.687  0.1350 -0.1944 -0.0652
 3363DPPC   C3B62051   9.667   1.133  15.898 -0.0691  0.0111  0.0340
 3363DPPC   C4B62052  10.018   1.139  15.885 -0.5388 -0.2200  0.0912
 3364DPPC   NC362053  12.176   3.881  37.465 -0.0579 -0.4664  0.0952
 3364DPPC   PO462054  11.983   4.254  37.399  0.4679  0.0951 -0.3984
 3364DPPC   GL162055  12.268   4.266  37.062 -0.1163  0.2492  0.2075
 3364DPPC   GL262056  12.570   4.492  37.083 -0.1795  0.1307 -0.1654
 3364DPPC   C1A62057  12.564   4.139  36.720  0.1597  0.0650  0.2698
 3364DPPC   C2A62058  12.722   4.049  36.437 -0.3582  0.2720  0.1763
 3364DPPC   C3A62059  12.892   3.659  36.400  0.0304 -0.1420 -0.0330
 3364DPPC   C4A62060  12.865   3.342  36.112 -0.0623  0.0042  0.1686
 3364DPPC   C1B62061  12.933   4.704  36.785  0.0832  0.1834 -0.2535
 3364DPPC   C2B62062  13.164   4.667  36.342 -0.3914  0.1017  0.2707
 3364DPPC   C3B62063  13.449   4.816  35.932  0.0756  0.3778  0.3775
 3364DPPC   C4B62064  13.668   5.179  35.897  0.2174 -0.1301  0.0271
 3365DPPC   NC362065  17.108  -1.819  14.470  0.0475  0.0375 -0.2689
 3365DPPC   PO462066  16.921  -2.257  14.568  0.0413  0.2939 -0.0542
 3365DPPC   GL162067  16.594  -1.981  14.529 -0.0735 -0.0927 -0.2669
 3365DPPC   GL262068  16.593  -1.939  14.778 -0.1775  0.3209 -0.0900
 3365DPPC   C1A62069  16.342  -1.664  14.376  0.2629 -0.0520 -0.0535
 3365DPPC   C2A62070  15.967  -1.295  14.381  0.0762 -0.2665  0.2175
 3365DPPC   C3A62071  15.722  -0.989  14.561  0.1102  0.4710  0.0218
 3365DPPC   C4A62072  15.493  -0.706  14.270  0.1006  0.3922 -0.1108
 3365DPPC   C1B62073  16.269  -1.716  14.920  0.4335  0.1500  0.0062
 3365DPPC   C2B62074  15.860  -1.745  14.645  0.3085  0.2138  0.0171
 3365DPPC   C3B62075  15.516  -1.506  14.603  0.0335  0.0758  0.0409
 3365DPPC   C4B62076  15.065  -1.289  14.782  0.4941  0.0804 -0.1409
 3366DPPC   NC362077  22.252  -2.809  15.126 -0.3756  0.2346  0.3833
 3366DPPC   PO462078  22.314  -3.037  14.701 -0.0096  0.2492 -0.1050
 3366DPPC   GL162079  22.734  -3.216  14.448 -0.1405 -0.0978  0.0168
 3366DPPC   GL262080  22.742  -3.151  14.206 -0.3308 -0.1601  0.1020
 3366DPPC   C1A62081  23.116  -3.414  14.093 -0.0981  0.0622  0.0822
 3366DPPC   C2A62082  23.254  -3.573  13.634 -0.0188 -0.2841  0.0609
 3366DPPC   C3A62083  23.284  -3.663  13.182  0.1063 -0.0155 -0.0162
 3366DPPC   C4A62084  23.349  -3.919  12.812  0.0425  0.1704 -0.2269
 3366DPPC   C1B62085  22.693  -3.294  13.789  0.2562  0.0256  0.0905
 3366DPPC   C2B62086  22.883  -3.327  13.393  0.1655  0.0876 -0.1431
 3366DPPC   C3B62087  23.200  -3.178  13.206  0.0607  0.1676 -0.2310
 3366DPPC   C4B62088  23.449  -3.145  12.855  0.4429  0.1638  0.0884
 3367DPPC   NC362089  23.137  -4.150  17.431 -0.1983 -0.0111 -0.1396
 3367DPPC   PO462090  22.963  -3.946  17.770 -0.0146  0.1286 -0.0815
 3367DPPC   GL162091  23.376  -3.878  17.833 -0.1446  0.0878 -0.0924
 3367DPPC   GL262092  23.663  -4.042  17.985  0.2288  0.0755  0.2681
 3367DPPC   C1A62093  23.709  -3.557  17.914  0.0763 -0.3048 -0.1653
 3367DPPC   C2A62094  24.041  -3.610  17.982  0.0624 -0.0216 -0.0775
 3367DPPC   C3A62095  24.288  -3.949  18.122 -0.1493 -0.4149  0.1408
 3367DPPC   C4A62096  24.248  -4.318  18.381 -0.0425 -0.0393  0.0659
 3367DPPC   C1B62097  23.844  -3.863  18.376 -0.1613  0.1080 -0.0199
 3367DPPC   C2B62098  24.159  -3.842  18.695  0.0619 -0.2776  0.0025
 3367DPPC   C3B62099  24.446  -3.754  19.007  0.3854  0.0714 -0.0591
 3367DPPC   C4B62100  24.792  -3.643  19.201  0.2330  0.0928  0.0342
 3368DPPC   NC362101  22.451  -1.503   9.951 -0.2783 -0.1687 -0.0399
 3368DPPC   PO462102  22.341  -1.066  10.039  0.2559  0.3486 -0.1022
 3368DPPC   GL162103  22.233  -1.097  10.440  0.0776  0.1695 -0.0644
 3368DPPC   GL262104  21.923  -1.038  10.504  0.1024 -0.1155 -0.2470
 3368DPPC   C1A62105  22.270  -1.342  10.812 -0.1816 -0.0329 -0.0094
 3368DPPC   C2A62106  22.399  -1.280  11.215  0.0224  0.2157 -0.1397
 3368DPPC   C3A62107  22.237  -1.178  11.678 -0.3020  0.0776  0.2808
 3368DPPC   C4A62108  22.387  -1.342  12.126 -0.1599 -0.0938 -0.1372
 3368DPPC   C1B62109  21.747  -1.091  10.930  0.3314 -0.2651 -0.0102
 3368DPPC   C2B62110  21.885  -0.866  11.314 -0.1013 -0.3256  0.0580
 3368DPPC   C3B62111  21.604  -0.765  11.662 -0.0278  0.0331 -0.1714
 3368DPPC   C4B62112  21.661  -0.451  11.942  0.2712  0.0309 -0.0140
 3369DPPC   NC362113  18.181  16.294  28.444 -0.1367 -0.2713  0.1764
 3369DPPC   PO462114  18.067  15.932  28.750 -0.2194  0.0495  0.1592
 3369DPPC   GL162115  17.741  15.655  28.652 -0.2333  0.2068  0.2202
 3369DPPC   GL262116  17.407  15.637  28.887  0.0763 -0.1778  0.0211
 3369DPPC   C1A62117  17.656  15.174  28.651  0.2584  0.0467  0.1237
 3369DPPC   C2A62118  17.658  14.756  28.540  0.4215  0.1668 -0.3174
 3369DPPC   C3A62119  17.373  14.475  28.479  0.3602 -0.0770 -0.2903
 3369DPPC   C4A62120  16.980  14.224  28.576 -0.1519  0.0253 -0.3382
 3369DPPC   C1B62121  17.131  15.208  28.720 -0.1354  0.1983  0.1521
 3369DPPC   C2B62122  16.821  14.860  28.589 -0.0174  0.0758 -0.2759
 3369DPPC   C3B62123  16.556  14.508  28.562  0.0595 -0.1424  0.1518
 3369DPPC   C4B62124  16.511  14.155  28.760  0.3542 -0.2239  0.1698
 3370DPPC   NC362125  15.451  -8.065  17.083  0.0214  0.0758  0.2724
 3370DPPC   PO462126  15.135  -7.951  16.977 -0.0478 -0.1884 -0.0544
 3370DPPC   GL162127  15.191  -7.547  16.853  0.1231 -0.1768  0.1874
 3370DPPC   GL262128  15.250  -7.448  16.497 -0.0301 -0.0999 -0.0394
 3370DPPC   C1A62129  15.198  -7.071  16.868 -0.0645 -0.0525  0.1791
 3370DPPC   C2A62130  15.453  -6.779  16.866  0.3336 -0.1540 -0.2186
 3370DPPC   C3A62131  15.837  -6.733  16.540  0.1587 -0.1519 -0.1806
 3370DPPC   C4A62132  16.273  -6.546  16.362 -0.0876 -0.0992 -0.0601
 3370DPPC   C1B62133  15.142  -7.031  16.382  0.2322  0.1437 -0.1368
 3370DPPC   C2B62134  15.369  -6.600  16.367 -0.0305  0.1863  0.1231
 3370DPPC   C3B62135  15.787  -6.379  16.166 -0.1446  0.2075  0.0798
 3370DPPC   C4B62136  16.034  -6.284  15.894 -0.4033 -0.3617 -0.1293
 3371DPPC   NC362137  20.245  -1.668   9.671  0.0930  0.0793 -0.1053
 3371DPPC   PO462138  19.858  -1.478   9.829 -0.3086 -0.3316 -0.1584
 3371DPPC   GL162139  20.088  -1.396  10.139  0.0993 -0.0067 -0.0334
 3371DPPC   GL262140  20.384  -1.353  10.072 -0.4115 -0.0862 -0.0390
 3371DPPC   C1A62141  20.227  -1.477  10.549 -0.1726 -0.4318  0.0572
 3371DPPC   C2A62142  20.206  -1.500  10.960  0.0798  0.0010 -0.0850
 3371DPPC   C3A62143  20.329  -1.584  11.386 -0.0865  0.1928  0.0587
 3371DPPC   C4A62144  20.265  -1.664  11.784  0.2501  0.2006 -0.0546
 3371DPPC   C1B62145  20.698  -1.604  10.347 -0.0507 -0.2008 -0.3083
 3371DPPC   C2B62146  21.008  -1.657  10.686  0.0345 -0.0324 -0.0340
 3371DPPC   C3B62147  21.035  -1.704  11.125 -0.1514  0.3936  0.2247
 3371DPPC   C4B62148  21.090  -1.561  11.505 -0.2011 -0.0751  0.0637
 3372DPPC   NC362149  15.996  10.366  37.662 -0.0635  0.0413  0.2211
 3372DPPC   PO462150  15.947  10.129  37.266  0.0371 -0.0692  0.1067
 3372DPPC   GL162151  15.727  10.185  36.798  0.2410  0.2971 -0.4086
 3372DPPC   GL262152  15.434  10.085  36.807  0.2070 -0.1743  0.0910
 3372DPPC   C1A62153  15.808  10.078  36.454  0.0636  0.3580  0.1516
 3372DPPC   C2A62154  16.027   9.995  36.067 -0.2446  0.1231  0.0140
 3372DPPC   C3A62155  16.225   9.623  35.828 -0.3240 -0.0164  0.3399
 3372DPPC   C4A62156  16.039   9.159  35.825  0.1904  0.2017  0.1565
 3372DPPC   C1B62157  15.289   9.865  36.408  0.2195 -0.2640  0.0813
 3372DPPC   C2B62158  15.335   9.455  36.112 -0.1984  0.2705  0.1083
 3372DPPC   C3B62159  15.459   9.084  35.805  0.1551  0.0267  0.2839
 3372DPPC   C4B62160  15.636   8.653  35.567 -0.1659 -0.2069 -0.1442
 3373DPPC   NC362161  17.879  10.444  14.696 -0.1357 -0.1597  0.2923
 3373DPPC   PO462162  17.446  10.534  14.785  0.0311 -0.4683 -0.1857
 3373DPPC   GL162163  17.514  10.224  15.041 -0.2750  0.1385 -0.2039
 3373DPPC   GL262164  17.768  10.181  15.103 -0.0400  0.0766 -0.0129
 3373DPPC   C1A62165  17.252  10.095  15.313  0.0873 -0.2049 -0.2716
 3373DPPC   C2A62166  17.205  10.011  15.784  0.3702 -0.3775  0.0130
 3373DPPC   C3A62167  17.314   9.877  16.134  0.0280 -0.0739 -0.3038
 3373DPPC   C4A62168  17.222   9.481  16.371  0.3764  0.1332 -0.1134
 3373DPPC   C1B62169  17.702  10.280  15.524  0.3827  0.2433  0.1372
 3373DPPC   C2B62170  17.771  10.075  15.921 -0.2190 -0.2216  0.2829
 3373DPPC   C3B62171  17.732   9.976  16.359 -0.2482  0.2077 -0.3682
 3373DPPC   C4B62172  17.498   9.789  16.594 -0.1130  0.2399  0.0133
 3374DPPC   NC362173  20.477  -5.782  18.917  0.0594  0.2020  0.0106
 3374DPPC   PO462174  20.120  -5.621  18.912 -0.0520 -0.0566 -0.0146
 3374DPPC   GL162175  20.179  -5.900  19.310 -0.1160 -0.1607 -0.0792
 3374DPPC   GL262176  20.197  -6.225  19.067  0.0852  0.0684 -0.2956
 3374DPPC   C1A62177  20.336  -6.186  19.568  0.2793  0.1328 -0.1327
 3374DPPC   C2A62178  20.180  -6.082  19.936  0.0104  0.0075 -0.1442
 3374DPPC   C3A62179  19.980  -5.910  20.371 -0.5355 -0.1358 -0.1346
 3374DPPC   C4A62180  19.494  -5.752  20.316  0.0900  0.2357 -0.2373
 3374DPPC   C1B62181  20.675  -6.321  19.271  0.0113 -0.0490 -0.4277
 3374DPPC   C2B62182  20.779  -6.411  19.665  0.1083  0.2080 -0.1057
 3374DPPC   C3B62183  20.424  -6.490  20.057 -0.1175 -0.1921 -0.0885
 3374DPPC   C4B62184  20.130  -6.497  20.381 -0.1741  0.1788 -0.0690
 3375DPPC   NC362185   5.677   9.466  19.603 -0.1008  0.1124  0.1801
 3375DPPC   PO462186   5.744   9.086  19.706 -0.0654 -0.0974 -0.1019
 3375DPPC   GL162187   6.020   8.919  19.812  0.1059  0.0482 -0.1018
 3375DPPC   GL262188   6.139   8.597  19.884 -0.2226  0.1937  0.0287
 3375DPPC   C1A62189   6.419   8.989  19.674 -0.1863  0.1322  0.1911
 3375DPPC   C2A62190   6.751   8.803  19.941  0.1379  0.0070 -0.1317
 3375DPPC   C3A62191   6.593   8.392  20.089 -0.0532  0.1552 -0.0277
 3375DPPC   C4A62192   6.713   7.967  20.092  0.1792 -0.0848 -0.0996
 3375DPPC   C1B62193   6.503   8.471  19.594  0.4782  0.1795  0.0805
 3375DPPC   C2B62194   6.698   7.964  19.589  0.0704 -0.4960  0.1175
 3375DPPC   C3B62195   7.072   7.861  19.797 -0.0635  0.1919  0.0952
 3375DPPC   C4B62196   7.478   7.979  20.056 -0.2960  0.0903  0.1982
 3376DPPC   NC362197  23.942  14.174  23.766  0.0404  0.1769  0.2706
 3376DPPC   PO462198  23.484  14.014  23.824  0.1096 -0.4026  0.1405
 3376DPPC   GL162199  23.092  13.664  23.930  0.0537  0.1350  0.2427
 3376DPPC   GL262200  22.878  13.771  23.639  0.2961  0.0818 -0.1007
 3376DPPC   C1A62201  22.948  13.496  24.270  0.1500  0.0041  0.0902
 3376DPPC   C2A62202  22.780  13.185  24.483 -0.3667 -0.2158  0.0120
 3376DPPC   C3A62203  22.470  13.123  24.825 -0.2441  0.0786  0.3243
 3376DPPC   C4A62204  22.424  13.002  25.144 -0.2595 -0.1581 -0.1098
 3376DPPC   C1B62205  22.709  13.262  23.743  0.2891 -0.1040  0.1004
 3376DPPC   C2B62206  22.391  12.950  23.832  0.1163 -0.1745  0.5505
 3376DPPC   C3B62207  22.316  12.448  23.896 -0.1283 -0.3014 -0.0367
 3376DPPC   C4B62208  22.073  12.054  23.978 -0.1316  0.0030 -0.2241
 3377DPPC   NC362209  18.855  -4.510  14.229  0.2692 -0.1932  0.0039
 3377DPPC   PO462210  18.955  -4.800  14.548  0.1842  0.0116  0.1988
 3377DPPC   GL162211  19.073  -5.046  14.163 -0.1171  0.0538 -0.2128
 3377DPPC   GL262212  18.742  -5.152  13.928  0.0010  0.2384 -0.0440
 3377DPPC   C1A62213  19.240  -5.164  13.898  0.1099  0.3369  0.1943
 3377DPPC   C2A62214  19.629  -5.325  13.917  0.1487 -0.1314 -0.0138
 3377DPPC   C3A62215  19.846  -5.760  13.877 -0.2550 -0.1576  0.1060
 3377DPPC   C4A62216  19.882  -6.183  13.834  0.1918  0.1910 -0.0813
 3377DPPC   C1B62217  18.906  -5.489  13.836 -0.4558  0.2868 -0.1429
 3377DPPC   C2B62218  19.167  -5.624  13.437 -0.0497 -0.1564  0.0425
 3377DPPC   C3B62219  19.378  -5.699  13.119  0.1322 -0.1048 -0.1447
 3377DPPC   C4B62220  19.342  -6.061  12.958 -0.1918  0.3172 -0.0787
 3378DPPC   NC362221  14.104  -8.227  19.470  0.2439 -0.0057 -0.0160
 3378DPPC   PO462222  14.340  -8.130  19.859 -0.1794 -0.0335 -0.3398
 3378DPPC   GL162223  14.434  -7.793  19.787  0.0717 -0.1063 -0.3357
 3378DPPC   GL262224  14.597  -7.650  19.549 -0.1518  0.0850  0.1137
 3378DPPC   C1A62225  14.839  -7.625  20.025 -0.0372 -0.1818 -0.2148
 3378DPPC   C2A62226  15.196  -7.261  20.074 -0.2189  0.2281 -0.1091
 3378DPPC   C3A62227  15.099  -6.868  20.248  0.2260 -0.0935  0.0031
 3378DPPC   C4A62228  15.091  -6.438  20.291  0.0638 -0.3749  0.3599
 3378DPPC   C1B62229  14.802  -7.338  19.635  0.1956  0.0912 -0.1911
 3378DPPC   C2B62230  14.805  -6.895  19.839 -0.4700  0.1249  0.0335
 3378DPPC   C3B62231  14.728  -6.566  20.018  0.2036 -0.1810 -0.1642
 3378DPPC   C4B62232  14.562  -6.313  20.395  0.1671 -0.0956 -0.0823
 3379DPPC   NC362233  20.727  10.247  35.815  0.0660 -0.1065  0.3265
 3379DPPC   PO462234  20.557   9.769  35.908  0.1286 -0.0097  0.1386
 3379DPPC   GL162235  20.275   9.624  35.537 -0.0005  0.2506 -0.2329
 3379DPPC   GL262236  19.984   9.534  35.708 -0.0632  0.4219  0.0768
 3379DPPC   C1A62237  20.574   9.682  35.093  0.0802 -0.4703  0.2422
 3379DPPC   C2A62238  20.607   9.304  34.780 -0.0067 -0.0021 -0.1593
 3379DPPC   C3A62239  20.666   8.927  34.680 -0.1630 -0.2112  0.1032
 3379DPPC   C4A62240  20.628   8.873  34.272  0.1002  0.2206  0.0867
 3379DPPC   C1B62241  19.832   9.271  35.397  0.1032  0.0352  0.3275
 3379DPPC   C2B62242  19.654   9.303  35.002  0.0357 -0.1126 -0.2945
 3379DPPC   C3B62243  19.464   9.168  34.668  0.1456  0.1382  0.0299
 3379DPPC   C4B62244  19.334   8.726  34.595  0.0022 -0.0016  0.0025
 3380DPPC   NC362245  22.256   1.160  14.808  0.3363 -0.1718 -0.1497
 3380DPPC   PO462246  22.630   1.414  14.798  0.0520  0.2098 -0.0920
 3380DPPC   GL162247  22.609   1.456  14.455 -0.1620  0.4115  0.0487
 3380DPPC   GL262248  22.427   1.178  14.319  0.0995  0.2993 -0.1684
 3380DPPC   C1A62249  22.912   1.855  14.240  0.2447 -0.0213  0.1801
 3380DPPC   C2A62250  23.167   2.158  14.047  0.0118  0.0854 -0.4159
 3380DPPC   C3A62251  23.482   2.426  13.923  0.1477  0.3495  0.0800
 3380DPPC   C4A62252  23.572   2.526  13.571 -0.2642 -0.0973  0.2468
 3380DPPC   C1B62253  22.874   1.166  14.162  0.1022  0.1932  0.1989
 3380DPPC   C2B62254  23.279   1.411  14.216 -0.3347 -0.3054 -0.1250
 3380DPPC   C3B62255  23.486   1.830  14.207 -0.0940 -0.2444 -0.2150
 3380DPPC   C4B62256  23.863   2.194  14.286 -0.3470 -0.2080 -0.1812
 3381DPPC   NC362257  17.361  -4.541  16.081 -0.4697 -0.0155 -0.0924
 3381DPPC   PO462258  17.032  -4.873  16.230  0.0876  0.0414  0.1980
 3381DPPC   GL162259  16.596  -4.670  16.403  0.2458  0.0304 -0.2112
 3381DPPC   GL262260  16.341  -4.772  16.166 -0.4358  0.3666  0.1943
 3381DPPC   C1A62261  16.314  -4.612  16.675 -0.3616  0.2231 -0.3112
 3381DPPC   C2A62262  15.976  -4.627  17.109 -0.1559  0.2793 -0.0069
 3381DPPC   C3A62263  16.236  -4.494  17.469 -0.0575 -0.2992 -0.3013
 3381DPPC   C4A62264  16.553  -4.679  17.581 -0.3824  0.1054 -0.3161
 3381DPPC   C1B62265  15.957  -5.004  15.962  0.0406  0.1894  0.0218
 3381DPPC   C2B62266  15.743  -5.345  16.037 -0.2846  0.1453 -0.2357
 3381DPPC   C3B62267  15.640  -5.630  16.266 -0.1652 -0.0497  0.0054
 3381DPPC   C4B62268  15.543  -5.978  16.432 -0.0576  0.1523 -0.1312
 3382DPPC   NC362269  16.649  -5.000  15.817 -0.2462 -0.3802 -0.4103
 3382DPPC   PO462270  16.543  -4.580  15.614  0.5037  0.3378  0.0762
 3382DPPC   GL162271  16.102  -4.595  15.517 -0.2319 -0.3522  0.2907
 3382DPPC   GL262272  16.064  -4.474  15.857 -0.0104  0.0524  0.2558
 3382DPPC   C1A62273  15.735  -4.833  15.506  0.3084 -0.1028  0.1902
 3382DPPC   C2A62274  15.648  -5.189  15.350  0.3012 -0.0935 -0.1406
 3382DPPC   C3A62275  15.407  -5.449  15.080  0.0982 -0.2623  0.2838
 3382DPPC   C4A62276  15.136  -5.743  14.945 -0.0170 -0.0728  0.2292
 3382DPPC   C1B62277  15.834  -4.554  16.194 -0.1609  0.0488 -0.3237
 3382DPPC   C2B62278  15.495  -4.272  16.304 -0.2022  0.3050  0.0864
 3382DPPC   C3B62279  15.132  -3.954  16.327  0.0214 -0.4138  0.0467
 3382DPPC   C4B62280  14.874  -4.004  15.941 -0.3652  0.0060  0.0495
 3383DPPC   NC362281  16.387  15.754  21.655 -0.1711  0.0198 -0.1918
 3383DPPC   PO462282  16.555  15.679  22.085 -0.0323  0.2847  0.0266
 3383DPPC   GL162283  16.576  15.433  22.373  0.1408  0.1200 -0.0765
 3383DPPC   GL262284  16.250  15.249  22.322 -0.0319 -0.2002 -0.1006
 3383DPPC   C1A62285  16.636  15.183  22.666  0.0193 -0.4958 -0.0217
 3383DPPC   C2A62286  16.246  15.044  22.908 -0.4055 -0.2654 -0.0011
 3383DPPC   C3A62287  16.009  14.684  23.121  0.0729 -0.0731 -0.1790
 3383DPPC   C4A62288  16.012  14.278  23.112 -0.0734  0.2214 -0.1128
 3383DPPC   C1B62289  16.335  14.788  22.431 -0.2829  0.0328 -0.1040
 3383DPPC   C2B62290  16.578  14.393  22.289 -0.3213  0.2545  0.0905
 3383DPPC   C3B62291  16.662  13.896  22.024 -0.1374 -0.0308 -0.2369
 3383DPPC   C4B62292  16.787  13.550  21.871  0.0535 -0.0359  0.0655
 3384DPPC   NC362293  21.269  15.221  24.646  0.0422  0.0635  0.0170
 3384DPPC   PO462294  20.948  15.418  24.469  0.1000  0.1256 -0.1121
 3384DPPC   GL162295  20.902  14.898  24.567 -0.0138 -0.1557  0.1274
 3384DPPC   GL262296  20.939  14.544  24.349 -0.1500  0.2515  0.0450
 3384DPPC   C1A62297  20.916  14.553  24.859 -0.1689 -0.0247 -0.1036
 3384DPPC   C2A62298  20.874  14.224  25.084 -0.2582  0.0100  0.0971
 3384DPPC   C3A62299  20.648  13.936  25.080 -0.0084  0.0460 -0.2097
 3384DPPC   C4A62300  20.243  13.749  25.201 -0.6799  0.1321 -0.0488
 3384DPPC   C1B62301  20.744  14.235  24.555  0.3463 -0.0568  0.2453
 3384DPPC   C2B62302  20.491  13.909  24.584  0.1486 -0.0127 -0.0230
 3384DPPC   C3B62303  20.314  13.490  24.484  0.0107 -0.1161  0.0369
 3384DPPC   C4B62304  20.370  13.096  24.216 -0.1689 -0.1180 -0.2654
 3385DPPC   NC362305  20.539  -1.172  13.683 -0.4356  0.2620  0.0856
 3385DPPC   PO462306  20.853  -1.417  13.548  0.0053 -0.2514 -0.0547
 3385DPPC   GL162307  20.633  -1.508  13.203  0.0914 -0.1533 -0.1732
 3385DPPC   GL262308  20.619  -1.151  12.941  0.2275 -0.3556  0.0059
 3385DPPC   C1A62309  20.831  -1.592  12.741 -0.1722  0.1309  0.1043
 3385DPPC   C2A62310  20.903  -1.692  12.382  0.2408 -0.0080  0.0791
 3385DPPC   C3A62311  20.725  -1.678  11.962  0.1293  0.0570  0.1735
 3385DPPC   C4A62312  20.649  -1.924  11.583  0.0623  0.1030  0.0246
 3385DPPC   C1B62313  20.619  -1.198  12.532  0.4527  0.1085 -0.0381
 3385DPPC   C2B62314  20.946  -1.234  12.168 -0.2760  0.1362 -0.1663
 3385DPPC   C3B62315  21.239  -1.618  11.926 -0.3367 -0.2132  0.2784
 3385DPPC   C4B62316  21.586  -1.722  11.525 -0.1888 -0.1798 -0.1963
 3386DPPC   NC362317  15.264  -7.020  13.000  0.2247  0.0409  0.0422
 3386DPPC   PO462318  15.438  -6.601  12.888 -0.0023 -0.0785 -0.1360
 3386DPPC   GL162319  15.850  -6.520  12.640  0.0298  0.1221 -0.1295
 3386DPPC   GL262320  16.142  -6.754  12.513 -0.0179  0.1485  0.0033
 3386DPPC   C1A62321  16.275  -6.335  12.751 -0.0116 -0.1305 -0.2516
 3386DPPC   C2A62322  16.433  -6.013  12.894  0.3153  0.0374 -0.0579
 3386DPPC   C3A62323  16.892  -5.752  12.886 -0.3387 -0.0232  0.0123
 3386DPPC   C4A62324  17.148  -5.627  12.442  0.3090  0.0341 -0.0985
 3386DPPC   C1B62325  16.063  -6.822  12.960  0.1479  0.3649 -0.3693
 3386DPPC   C2B62326  16.055  -6.569  13.256  0.1200  0.0599 -0.3282
 3386DPPC   C3B62327  16.267  -6.589  13.590  0.0567  0.3269 -0.2973
 3386DPPC   C4B62328  16.624  -6.331  13.690  0.0493 -0.1801 -0.2102
 3387DPPC   NC362329   3.997  -0.931  22.887  0.1441 -0.1483 -0.2904
 3387DPPC   PO462330   4.065  -1.219  22.710 -0.0462  0.3994 -0.2164
 3387DPPC   GL162331   4.425  -1.355  22.827  0.1478 -0.1317  0.1109
 3387DPPC   GL262332   4.524  -1.658  22.617 -0.2308  0.1733  0.2608
 3387DPPC   C1A62333   4.771  -1.500  23.166  0.1092  0.2401 -0.0945
 3387DPPC   C2A62334   5.026  -1.657  23.493  0.0988 -0.2493 -0.2624
 3387DPPC   C3A62335   4.954  -1.589  23.923  0.3025  0.0166 -0.1195
 3387DPPC   C4A62336   4.921  -1.866  24.274 -0.3406  0.0239 -0.0034
 3387DPPC   C1B62337   4.966  -1.613  22.644  0.4521  0.1821  0.2720
 3387DPPC   C2B62338   5.283  -1.349  22.740 -0.0458 -0.0856 -0.0340
 3387DPPC   C3B62339   5.654  -1.262  22.582 -0.7092 -0.0409 -0.1081
 3387DPPC   C4B62340   6.056  -1.234  22.658 -0.1383  0.1855  0.1275
 3388DPPC   NC362341  21.922  -8.311  20.256 -0.1759  0.0913 -0.1235
 3388DPPC   PO462342  21.718  -8.004  19.969 -0.0360  0.0438 -0.2014
 3388DPPC   GL162343  21.440  -7.694  19.865  0.0429 -0.0065 -0.3975
 3388DPPC   GL262344  21.427  -7.354  20.157 -0.1357  0.0201  0.0432
 3388DPPC   C1A62345  21.243  -7.374  19.723  0.2357 -0.0259  0.3734
 3388DPPC   C2A62346  21.163  -6.905  19.577 -0.0427  0.1338  0.1687
 3388DPPC   C3A62347  21.175  -6.567  19.416 -0.0411 -0.1250  0.1316
 3388DPPC   C4A62348  21.235  -6.278  19.127  0.0097 -0.1448 -0.0051
 3388DPPC   C1B62349  21.188  -7.078  20.280 -0.1520 -0.0959  0.0634
 3388DPPC   C2B62350  20.903  -6.657  20.084 -0.4030  0.0682 -0.1675
 3388DPPC   C3B62351  20.797  -6.185  20.091 -0.1296 -0.1068 -0.1098
 3388DPPC   C4B62352  20.831  -5.763  20.069  0.0676 -0.1045 -0.2707
 3389DPPC   NC362353   9.296  14.042  20.655 -0.0930 -0.4439 -0.0563
 3389DPPC   PO462354   9.766  13.998  20.526 -0.3690  0.0176 -0.2009
 3389DPPC   GL162355  10.021  13.727  20.842 -0.2201 -0.0546  0.0186
 3389DPPC   GL262356   9.806  13.553  20.695  0.1473  0.1967  0.0993
 3389DPPC   C1A62357  10.250  13.611  21.182 -0.2798 -0.0055 -0.0524
 3389DPPC   C2A62358  10.615  13.640  21.553 -0.1856 -0.1406 -0.1229
 3389DPPC   C3A62359  10.948  13.608  21.718  0.2297 -0.0900 -0.0267
 3389DPPC   C4A62360  10.962  13.623  22.158 -0.2377 -0.1522  0.0693
 3389DPPC   C1B62361  10.234  13.305  20.713  0.3461 -0.1493 -0.0304
 3389DPPC   C2B62362  10.202  12.905  20.701 -0.1099  0.1161  0.0257
 3389DPPC   C3B62363  10.316  12.574  20.977  0.0142 -0.0914  0.1909
 3389DPPC   C4B62364  10.438  12.323  21.303  0.2204  0.0801  0.2253
 3390DPPC   NC362365  19.365  -7.773  23.984 -0.3009 -0.0199 -0.1195
 3390DPPC   PO462366  19.680  -7.825  24.228 -0.0866 -0.2101  0.0818
 3390DPPC   GL162367  19.559  -7.344  24.203  0.1592  0.0256 -0.3355
 3390DPPC   GL262368  19.671  -7.104  23.902 -0.1670  0.0258  0.1530
 3390DPPC   C1A62369  19.257  -7.056  24.202 -0.1715  0.1232  0.0458
 3390DPPC   C2A62370  19.048  -6.656  24.119 -0.1700  0.0739  0.2308
 3390DPPC   C3A62371  19.178  -6.362  23.874 -0.0077 -0.1391 -0.2903
 3390DPPC   C4A62372  18.836  -6.001  23.905  0.2225 -0.0077 -0.1137
 3390DPPC   C1B62373  19.495  -6.743  23.795  0.1992 -0.1604  0.1303
 3390DPPC   C2B62374  19.679  -6.325  24.001 -0.0902 -0.0263  0.3061
 3390DPPC   C3B62375  19.513  -5.858  23.897 -0.1305  0.0481  0.0292
 3390DPPC   C4B62376  19.326  -5.400  23.791  0.0410  0.1704 -0.0308
 3391DPPC   NC362377  27.346   8.375  21.980 -0.2651  0.1187  0.3298
 3391DPPC   PO462378  26.992   7.995  21.817  0.2519 -0.1078  0.1985
 3391DPPC   GL162379  26.969   7.898  22.202 -0.0072 -0.4437  0.0331
 3391DPPC   GL262380  27.254   7.875  22.233  0.0504 -0.1171  0.0147
 3391DPPC   C1A62381  26.832   8.108  22.610  0.4281 -0.0470 -0.2179
 3391DPPC   C2A62382  26.700   7.723  22.877  0.1991  0.0327  0.2420
 3391DPPC   C3A62383  26.275   7.618  22.902  0.0019  0.0670  0.1159
 3391DPPC   C4A62384  25.909   7.637  22.951 -0.3059 -0.0620 -0.2979
 3391DPPC   C1B62385  27.146   7.732  22.681  0.1620 -0.1071 -0.0908
 3391DPPC   C2B62386  27.108   7.851  23.076  0.1291 -0.1584 -0.2601
 3391DPPC   C3B62387  26.969   8.023  23.434 -0.2012 -0.1157  0.0836
 3391DPPC   C4B62388  26.793   7.990  23.867 -0.0562  0.3804 -0.1184
 3392DPPC   NC362389  20.237  -3.919  18.321  0.1757 -0.2679 -0.2219
 3392DPPC   PO462390  19.855  -4.150  18.413  0.2871 -0.1545  0.0291
 3392DPPC   GL162391  19.882  -3.889  18.801 -0.5302  0.2468 -0.1570
 3392DPPC   GL262392  19.965  -3.537  18.742  0.0121 -0.5468  0.0547
 3392DPPC   C1A62393  19.857  -3.927  19.222 -0.0999  0.0570  0.1998
 3392DPPC   C2A62394  19.585  -4.199  19.531 -0.2941 -0.2281 -0.3210
 3392DPPC   C3A62395  19.458  -4.163  19.885  0.0165 -0.1552  0.0973
 3392DPPC   C4A62396  19.585  -4.114  20.281  0.2646  0.1211  0.0516
 3392DPPC   C1B62397  19.758  -3.150  18.651  0.2302  0.1080  0.0307
 3392DPPC   C2B62398  19.448  -2.977  18.368  0.0054 -0.0010  0.0691
 3392DPPC   C3B62399  18.999  -2.978  18.058  0.5259 -0.0051 -0.2825
 3392DPPC   C4B62400  18.940  -2.750  17.704 -0.0429 -0.2484  0.0002
 3393DPPC   NC362401  18.846  -0.944  14.155  0.0244  0.3186 -0.3586
 3393DPPC   PO462402  19.069  -0.643  13.913  0.0983 -0.1190 -0.2814
 3393DPPC   GL162403  19.088  -0.540  13.358  0.1813  0.1164  0.0989
 3393DPPC   GL262404  18.912  -0.820  13.262 -0.2147 -0.4436  0.0394
 3393DPPC   C1A62405  19.200  -0.407  12.850  0.1161  0.0932 -0.1659
 3393DPPC   C2A62406  19.391  -0.200  12.569 -0.1074 -0.1547  0.0504
 3393DPPC   C3A62407  19.635   0.103  12.344 -0.0782 -0.3913  0.2439
 3393DPPC   C4A62408  19.454   0.279  12.060  0.2104 -0.2157  0.1918
 3393DPPC   C1B62409  19.232  -0.871  12.901 -0.3323 -0.1825 -0.2349
 3393DPPC   C2B62410  19.300  -1.294  12.639 -0.3942 -0.1085  0.3096
 3393DPPC   C3B62411  19.375  -1.658  12.449 -0.0279 -0.1441 -0.0406
 3393DPPC   C4B62412  19.279  -1.749  12.113  0.0718  0.3066  0.0955
 3394DPPC   NC362413  13.669   5.421  12.578 -0.0027  0.1616 -0.1843
 3394DPPC   PO462414  13.522   5.191  12.872  0.1639 -0.0587 -0.0091
 3394DPPC   GL162415  13.381   4.832  13.107  0.1404  0.1864 -0.2556
 3394DPPC   GL262416  13.045   5.085  13.286 -0.1888 -0.0268  0.3614
 3394DPPC   C1A62417  13.437   4.685  13.508  0.2397  0.1595  0.5688
 3394DPPC   C2A62418  13.293   4.673  13.828 -0.1067 -0.0355  0.0298
 3394DPPC   C3A62419  13.370   4.299  14.094  0.2233 -0.2581  0.0005
 3394DPPC   C4A62420  13.419   4.520  14.435 -0.0371  0.0602 -0.1192
 3394DPPC   C1B62421  12.874   4.863  13.617 -0.2825 -0.1530 -0.0142
 3394DPPC   C2B62422  12.848   4.840  14.032 -0.0373  0.1096  0.2284
 3394DPPC   C3B62423  12.876   4.673  14.348 -0.1908  0.2508  0.0392
 3394DPPC   C4B62424  12.873   4.573  14.750  0.1226  0.2410 -0.1349
 3395DPPC   NC362425  16.849  -3.166  35.064 -0.0401  0.2069 -0.0055
 3395DPPC   PO462426  16.596  -3.195  34.693  0.0603  0.0053  0.1701
 3395DPPC   GL162427  16.505  -3.131  34.223  0.0479 -0.0623 -0.5499
 3395DPPC   GL262428  16.236  -3.321  33.989  0.4780 -0.0566 -0.1555
 3395DPPC   C1A62429  16.693  -2.934  33.846  0.2428 -0.0711 -0.0788
 3395DPPC   C2A62430  17.060  -2.587  33.707  0.0705  0.2190  0.1279
 3395DPPC   C3A62431  17.107  -2.245  33.401  0.5724  0.0111  0.1942
 3395DPPC   C4A62432  17.158  -1.978  32.977 -0.2719 -0.1260 -0.2077
 3395DPPC   C1B62433  15.896  -3.025  33.839  0.0463  0.0871 -0.0018
 3395DPPC   C2B62434  15.859  -2.919  33.475  0.0860 -0.0049  0.0176
 3395DPPC   C3B62435  16.062  -2.672  33.112 -0.1904 -0.1280 -0.0991
 3395DPPC   C4B62436  16.011  -2.572  32.795  0.0118  0.0998  0.0211
 3396DPPC   NC362437   3.690   7.090  24.250 -0.0360 -0.1173 -0.0388
 3396DPPC   PO462438   3.817   6.921  24.673  0.4094 -0.3630 -0.1328
 3396DPPC   GL162439   4.138   6.786  24.802 -0.1257 -0.1454 -0.1884
 3396DPPC   GL262440   4.269   6.807  24.480 -0.0573 -0.1169 -0.0314
 3396DPPC   C1A62441   4.467   6.408  24.803 -0.0420  0.2223 -0.0950
 3396DPPC   C2A62442   4.929   6.245  24.788 -0.0769 -0.0079  0.1802
 3396DPPC   C3A62443   5.253   6.261  24.407 -0.1776  0.0165  0.2328
 3396DPPC   C4A62444   5.037   6.406  23.959 -0.0873  0.1139  0.1068
 3396DPPC   C1B62445   4.710   6.822  24.255  0.0691  0.1402 -0.0045
 3396DPPC   C2B62446   5.154   6.830  24.198  0.2948 -0.2592 -0.0755
 3396DPPC   C3B62447   5.638   6.660  24.333  0.1334  0.1711 -0.2777
 3396DPPC   C4B62448   5.914   6.384  24.673 -0.2016  0.0285  0.1427
 3397DPPC   NC362449   8.554   7.331  35.444 -0.0117 -0.0506 -0.1568
 3397DPPC   PO462450   8.994   7.530  35.305  0.0549  0.0766 -0.2151
 3397DPPC   GL162451   9.176   7.615  34.966  0.3632  0.1693  0.0529
 3397DPPC   GL262452   9.480   7.738  34.981 -0.2089 -0.0685 -0.2498
 3397DPPC   C1A62453   9.167   7.609  34.560 -0.0181 -0.1517 -0.0878
 3397DPPC   C2A62454   9.456   7.789  34.222 -0.1045  0.1116 -0.0857
 3397DPPC   C3A62455   9.786   7.588  33.955 -0.0719 -0.0502  0.5010
 3397DPPC   C4A62456   9.863   7.734  33.375 -0.0411  0.3492 -0.1449
 3397DPPC   C1B62457   9.805   7.765  34.752  0.0984 -0.0432  0.0974
 3397DPPC   C2B62458  10.229   7.797  34.854  0.1674 -0.0831 -0.2297
 3397DPPC   C3B62459  10.319   7.735  35.302 -0.1102 -0.2191 -0.0303
 3397DPPC   C4B62460  10.599   7.991  35.486  0.0852  0.2616  0.3132
 3398DPPC   NC362461  16.616   8.378  13.279  0.4181  0.2326  0.1142
 3398DPPC   PO462462  16.572   8.805  13.480  0.0264  0.2068 -0.2379
 3398DPPC   GL162463  16.455   8.547  13.916  0.1030 -0.1664 -0.1363
 3398DPPC   GL262464  16.744   8.691  14.155 -0.1768 -0.0154  0.1527
 3398DPPC   C1A62465  16.383   8.265  14.206 -0.3654 -0.0884  0.0854
 3398DPPC   C2A62466  16.460   8.077  14.617  0.2255 -0.0792  0.1551
 3398DPPC   C3A62467  16.489   7.896  14.981 -0.0461 -0.1652  0.0739
 3398DPPC   C4A62468  16.306   7.809  15.383  0.4318  0.2436  0.0440
 3398DPPC   C1B62469  16.490   8.597  14.555 -0.0806 -0.0128  0.1767
 3398DPPC   C2B62470  16.149   8.489  14.948  0.0941  0.2925  0.2218
 3398DPPC   C3B62471  15.989   8.829  15.297 -0.2136  0.1527 -0.1895
 3398DPPC   C4B62472  16.021   8.524  15.694  0.1481  0.0502 -0.1526
 3399DPPC   NC362473  19.839  -2.373  13.725 -0.1656  0.0363 -0.1642
 3399DPPC   PO462474  19.578  -2.691  13.799  0.1447  0.0111  0.1475
 3399DPPC   GL162475  19.307  -2.637  13.351  0.0088  0.2198 -0.2990
 3399DPPC   GL262476  19.302  -2.428  13.306 -0.2779  0.1366  0.3810
 3399DPPC   C1A62477  19.371  -2.886  13.007 -0.2771  0.0151  0.0297
 3399DPPC   C2A62478  19.360  -3.139  12.671  0.1902  0.0484  0.2906
 3399DPPC   C3A62479  19.481  -3.480  12.392 -0.3604  0.0408  0.2827
 3399DPPC   C4A62480  19.687  -3.891  12.234  0.2936 -0.2950  0.2871
 3399DPPC   C1B62481  19.069  -2.466  12.933 -0.1364 -0.1152 -0.3146
 3399DPPC   C2B62482  19.019  -2.802  12.648 -0.1478  0.0461  0.1268
 3399DPPC   C3B62483  19.103  -3.012  12.255  0.2178  0.0452 -0.0865
 3399DPPC   C4B62484  18.746  -3.182  12.219  0.4709  0.0717  0.0596
 3400DPPC   NC362485  15.925  13.823  17.843 -0.3564  0.1508 -0.0617
 3400DPPC   PO462486  16.288  13.429  17.884 -0.1044  0.2016 -0.0671
 3400DPPC   GL162487  16.385  13.337  18.274  0.2227 -0.0377 -0.1984
 3400DPPC   GL262488  16.569  13.536  18.407 -0.0042 -0.2147  0.1448
 3400DPPC   C1A62489  16.452  12.871  18.415 -0.1315 -0.5984  0.1220
 3400DPPC   C2A62490  16.543  12.420  18.684 -0.2265 -0.1414 -0.0880
 3400DPPC   C3A62491  16.451  12.054  18.728  0.0158 -0.2428  0.0857
 3400DPPC   C4A62492  16.190  11.765  18.921  0.0632 -0.4095 -0.0333
 3400DPPC   C1B62493  16.378  13.349  18.804 -0.0463  0.1675  0.1947
 3400DPPC   C2B62494  16.547  13.319  19.317 -0.0735  0.0736  0.2889
 3400DPPC   C3B62495  16.920  13.515  19.403 -0.1314  0.0598  0.2680
 3400DPPC   C4B62496  17.291  13.378  19.170  0.3991 -0.0457 -0.2242
 3401DPPC   NC362497  22.569  12.550  31.593 -0.0671 -0.0515 -0.1235
 3401DPPC   PO462498  22.516  12.844  31.887  0.2336  0.1887 -0.0802
 3401DPPC   GL162499  22.135  12.504  31.853  0.2839 -0.1453  0.1174
 3401DPPC   GL262500  22.311  12.288  31.976 -0.0452  0.1908  0.1453
 3401DPPC   C1A62501  21.905  12.291  31.502  0.1829 -0.0767 -0.4703
 3401DPPC   C2A62502  22.108  12.151  31.099  0.2579  0.0879 -0.0909
 3401DPPC   C3A62503  22.324  11.818  30.879  0.1631 -0.1628 -0.0192
 3401DPPC   C4A62504  22.629  11.670  30.551  0.0847 -0.0189 -0.3570
 3401DPPC   C1B62505  22.166  11.960  31.831  0.1357  0.1151  0.0389
 3401DPPC   C2B62506  21.782  11.775  31.744 -0.2180  0.1500  0.0222
 3401DPPC   C3B62507  21.467  11.523  31.531 -0.4154 -0.0406 -0.1130
 3401DPPC   C4B62508  21.080  11.271  31.459 -0.4363 -0.0406  0.0524
 3402DPPC   NC362509  18.796  -6.218  16.505  0.1678  0.0229  0.0504
 3402DPPC   PO462510  18.580  -6.085  16.911  0.1190  0.0601  0.0613
 3402DPPC   GL162511  18.659  -6.478  17.092 -0.0670  0.1971 -0.0850
 3402DPPC   GL262512  18.597  -6.700  16.763 -0.2653 -0.1251  0.2431
 3402DPPC   C1A62513  18.653  -6.959  17.269 -0.1384  0.0357  0.1127
 3402DPPC   C2A62514  18.776  -7.148  17.643 -0.2226  0.0347  0.2223
 3402DPPC   C3A62515  18.888  -7.182  18.125  0.0774 -0.1047  0.0774
 3402DPPC   C4A62516  19.109  -7.354  18.423  0.1934  0.1367 -0.0501
 3402DPPC   C1B62517  18.642  -7.145  16.732 -0.3008  0.1883 -0.1015
 3402DPPC   C2B62518  18.914  -7.393  16.709 -0.0573  0.1964  0.0595
 3402DPPC   C3B62519  19.109  -7.665  16.451 -0.2565  0.0790 -0.0510
 3402DPPC   C4B62520  19.312  -7.722  16.099 -0.0143 -0.1018  0.0533
 3403DPPC   NC362521  10.702   6.957  36.705 -0.1099  0.3268  0.2631
 3403DPPC   PO462522  11.078   6.789  36.595 -0.1786 -0.0391 -0.3607
 3403DPPC   GL162523  11.195   6.734  36.281  0.2454  0.2574  0.0696
 3403DPPC   GL262524  11.409   6.474  36.451  0.2631  0.2575  0.1140
 3403DPPC   C1A62525  11.161   6.716  35.837  0.0113 -0.1497 -0.0613
 3403DPPC   C2A62526  11.156   6.529  35.523 -0.1658  0.3172 -0.5810
 3403DPPC   C3A62527  11.259   6.454  35.028 -0.0990  0.0262 -0.0012
 3403DPPC   C4A62528  11.239   6.401  34.591  0.1049 -0.0939 -0.0859
 3403DPPC   C1B62529  11.717   6.182  36.291  0.3621 -0.1889 -0.0873
 3403DPPC   C2B62530  11.992   5.796  36.155 -0.2446  0.2619 -0.0246
 3403DPPC   C3B62531  12.397   5.863  35.894 -0.2282  0.1745  0.1924
 3403DPPC   C4B62532  12.528   6.052  35.546  0.0926 -0.0617  0.1218
 3404DPPC   NC362533  22.828   0.001  15.229 -0.0557 -0.0538 -0.0182
 3404DPPC   PO462534  23.034  -0.280  15.537  0.2055  0.2951  0.2361
 3404DPPC   GL162535  23.405  -0.456  15.262 -0.1057 -0.1178 -0.1990
 3404DPPC   GL262536  23.468  -0.638  14.938  0.3020 -0.0339  0.3432
 3404DPPC   C1A62537  23.888  -0.237  15.095 -0.2082  0.3713 -0.0008
 3404DPPC   C2A62538  24.203  -0.120  15.447 -0.0515 -0.0603 -0.3124
 3404DPPC   C3A62539  24.437  -0.032  15.844 -0.1399 -0.2292 -0.2815
 3404DPPC   C4A62540  24.728  -0.117  16.093  0.3974 -0.0494  0.1088
 3404DPPC   C1B62541  23.689  -0.460  14.635 -0.1174 -0.2289  0.0849
 3404DPPC   C2B62542  24.096  -0.301  14.372 -0.0804  0.0028 -0.2583
 3404DPPC   C3B62543  24.525  -0.461  14.237 -0.0361 -0.1650  0.3830
 3404DPPC   C4B62544  24.903  -0.454  14.103 -0.1131 -0.0749 -0.1552
 3405DPPC   NC362545  29.169   3.159  24.349 -0.0972  0.0640  0.1609
 3405DPPC   PO462546  28.937   3.604  24.552 -0.1551 -0.0194  0.0198
 3405DPPC   GL162547  28.466   3.643  24.655 -0.1499  0.1571 -0.2194
 3405DPPC   GL262548  28.320   3.827  24.546 -0.3722  0.3747 -0.0274
 3405DPPC   C1A62549  28.018   3.603  24.859 -0.0900 -0.0278  0.1008
 3405DPPC   C2A62550  27.760   3.451  25.126  0.0861  0.0128 -0.0121
 3405DPPC   C3A62551  27.362   3.409  25.278  0.2676  0.0879  0.2402
 3405DPPC   C4A62552  26.915   3.190  25.284 -0.2900 -0.0142  0.1172
 3405DPPC   C1B62553  27.888   4.064  24.505 -0.1432 -0.1250  0.0006
 3405DPPC   C2B62554  27.461   3.923  24.479  0.2337 -0.0963  0.0915
 3405DPPC   C3B62555  27.083   3.943  24.520 -0.1882  0.3149 -0.0075
 3405DPPC   C4B62556  26.661   3.844  24.644 -0.0392  0.3316 -0.1265
 3406DPPC   NC362557  23.856  -2.972  15.911  0.0179  0.1033  0.0648
 3406DPPC   PO462558  23.675  -3.386  16.062 -0.0197 -0.1015  0.1538
 3406DPPC   GL162559  24.048  -3.463  15.908  0.2306  0.0336  0.0308
 3406DPPC   GL262560  23.984  -3.471  15.568  0.1769  0.2871 -0.0693
 3406DPPC   C1A62561  24.394  -3.714  15.772  0.0236  0.0996 -0.0558
 3406DPPC   C2A62562  24.726  -3.988  15.653  0.1511  0.0687  0.1498
 3406DPPC   C3A62563  24.778  -4.077  15.198 -0.4138 -0.0185  0.0824
 3406DPPC   C4A62564  24.582  -4.029  14.836 -0.1112 -0.2880 -0.1331
 3406DPPC   C1B62565  23.937  -3.845  15.355  0.0206 -0.2106 -0.2082
 3406DPPC   C2B62566  23.840  -4.178  15.058 -0.1625  0.1245  0.0873
 3406DPPC   C3B62567  23.741  -4.295  14.667 -0.2686  0.2824 -0.1963
 3406DPPC   C4B62568  23.886  -4.436  14.230 -0.0008 -0.0157  0.2051
 3407DPPC   NC362569  22.004  -3.025  17.572  0.2410  0.0598  0.1336
 3407DPPC   PO462570  21.574  -3.000  17.567 -0.0558 -0.0097  0.1676
 3407DPPC   GL162571  21.370  -2.672  17.870 -0.0673 -0.1838 -0.1198
 3407DPPC   GL262572  21.131  -2.766  17.878  0.1478 -0.0396 -0.2752
 3407DPPC   C1A62573  21.180  -2.428  18.248 -0.1296  0.0532  0.1512
 3407DPPC   C2A62574  20.947  -2.491  18.636 -0.0771  0.0263  0.0464
 3407DPPC   C3A62575  20.655  -2.446  18.870 -0.0382 -0.2761  0.0351
 3407DPPC   C4A62576  20.283  -2.348  19.230 -0.1155  0.2132 -0.1163
 3407DPPC   C1B62577  20.777  -2.683  18.177 -0.1496 -0.1694  0.0185
 3407DPPC   C2B62578  20.440  -2.518  18.373 -0.3240  0.1966 -0.1936
 3407DPPC   C3B62579  20.219  -2.283  18.655 -0.1809 -0.1540 -0.1808
 3407DPPC   C4B62580  20.355  -1.945  18.959 -0.2459  0.0376 -0.1494
 3408DPPC   NC362581  19.896  -1.160  13.490 -0.3047 -0.0713  0.0919
 3408DPPC   PO462582  20.113  -1.429  13.499 -0.3342  0.0383 -0.0427
 3408DPPC   GL162583  20.133  -1.388  13.095 -0.0450  0.2308  0.0756
 3408DPPC   GL262584  20.338  -1.555  12.849 -0.0770  0.0953  0.1238
 3408DPPC   C1A62585  20.121  -1.133  12.697  0.1217 -0.1015  0.2252
 3408DPPC   C2A62586  20.168  -0.736  12.506  0.1602  0.2425 -0.0807
 3408DPPC   C3A62587  20.339  -0.595  12.191 -0.0703  0.1048  0.1150
 3408DPPC   C4A62588  20.667  -0.721  12.017  0.1250 -0.0063  0.0018
 3408DPPC   C1B62589  20.074  -1.950  12.837 -0.2443  0.2069 -0.1769
 3408DPPC   C2B62590  20.053  -2.227  12.413 -0.0613 -0.0542 -0.0588
 3408DPPC   C3B62591  20.477  -2.505  12.296  0.3553 -0.0850  0.2940
 3408DPPC   C4B62592  20.651  -2.148  12.076  0.2775  0.0200  0.0644
 3409DPPC   NC362593  20.056  -5.388  19.418  0.0766 -0.0041  0.3207
 3409DPPC   PO462594  20.288  -5.224  19.115  0.4381 -0.1559  0.3202
 3409DPPC   GL162595  20.598  -5.344  19.407 -0.2581  0.3540  0.0228
 3409DPPC   GL262596  20.536  -5.665  19.548  0.0104  0.0219 -0.1363
 3409DPPC   C1A62597  20.770  -5.344  19.795  0.1653 -0.2467  0.2148
 3409DPPC   C2A62598  21.170  -5.303  20.099 -0.0898  0.1414  0.0476
 3409DPPC   C3A62599  21.619  -5.345  20.211 -0.1125  0.0549  0.0308
 3409DPPC   C4A62600  21.981  -5.307  20.472 -0.3053 -0.2998  0.0679
 3409DPPC   C1B62601  20.329  -5.630  19.854 -0.1825 -0.1112 -0.1986
 3409DPPC   C2B62602  20.184  -5.484  20.242 -0.1195 -0.1528  0.0791
 3409DPPC   C3B62603  19.808  -5.484  20.522 -0.0396  0.1145  0.0145
 3409DPPC   C4B62604  19.834  -5.500  20.962 -0.0691  0.2030  0.1298
 3410DPPC   NC362605  22.842  -5.572  11.172  0.2837  0.0049  0.0215
 3410DPPC   PO462606  22.662  -5.118  11.121 -0.3424  0.0164 -0.1475
 3410DPPC   GL162607  22.583  -4.710  11.323 -0.3228 -0.0934 -0.1544
 3410DPPC   GL262608  22.534  -4.373  11.287  0.0711 -0.0709  0.4011
 3410DPPC   C1A62609  22.604  -4.621  11.743 -0.0477 -0.1434  0.1429
 3410DPPC   C2A62610  22.503  -4.603  12.150  0.1052  0.0587 -0.0420
 3410DPPC   C3A62611  22.770  -4.408  12.460 -0.0698  0.0316 -0.0138
 3410DPPC   C4A62612  22.873  -3.985  12.612  0.1542 -0.3389  0.0912
 3410DPPC   C1B62613  22.199  -4.037  11.454  0.0197 -0.0930 -0.1659
 3410DPPC   C2B62614  21.979  -3.769  11.666  0.0482  0.0139 -0.2772
 3410DPPC   C3B62615  21.775  -3.806  11.918  0.1494 -0.1573 -0.2701
 3410DPPC   C4B62616  21.372  -3.592  12.056  0.0357  0.0224  0.1040
 3411DPPC   NC362617  22.686  13.846  29.901 -0.1802 -0.1647  0.1732
 3411DPPC   PO462618  22.492  13.781  30.297  0.2106  0.2006  0.0842
 3411DPPC   GL162619  22.168  13.610  30.003  0.2779  0.1722 -0.1844
 3411DPPC   GL262620  22.343  13.538  29.716  0.0577 -0.1937  0.1990
 3411DPPC   C1A62621  21.949  13.208  29.823 -0.2207  0.3695  0.2020
 3411DPPC   C2A62622  21.819  12.805  29.701 -0.0613 -0.0541  0.1846
 3411DPPC   C3A62623  21.846  12.437  29.735  0.4001 -0.1066  0.0106
 3411DPPC   C4A62624  22.042  12.122  29.921 -0.0691  0.0996 -0.1899
 3411DPPC   C1B62625  22.055  13.510  29.437  0.0546 -0.3710  0.0896
 3411DPPC   C2B62626  21.709  13.227  29.370  0.0371  0.0288  0.3250
 3411DPPC   C3B62627  21.557  12.881  29.147 -0.4572  0.3571 -0.0767
 3411DPPC   C4B62628  21.474  12.500  29.359 -0.2024  0.1974  0.1203
 3412DPPC   NC362629  17.989  -3.055  13.695  0.3595 -0.1153  0.1277
 3412DPPC   PO462630  17.651  -2.727  13.687  0.0399  0.0957 -0.0511
 3412DPPC   GL162631  17.321  -2.533  13.428 -0.0581  0.4794 -0.2345
 3412DPPC   GL262632  17.215  -2.450  13.701  0.0509  0.1608  0.1015
 3412DPPC   C1A62633  17.032  -2.616  13.278 -0.1275  0.2547 -0.2324
 3412DPPC   C2A62634  16.646  -2.790  13.151  0.0894 -0.2306 -0.0885
 3412DPPC   C3A62635  16.348  -3.143  13.099 -0.2323 -0.3758 -0.0249
 3412DPPC   C4A62636  16.205  -3.395  12.688 -0.3573 -0.4562 -0.1212
 3412DPPC   C1B62637  16.752  -2.369  13.615  0.2879  0.1743  0.0769
 3412DPPC   C2B62638  16.465  -2.119  13.514  0.1554  0.0327  0.1973
 3412DPPC   C3B62639  15.956  -1.985  13.617 -0.3228 -0.0026 -0.0882
 3412DPPC   C4B62640  15.656  -2.235  13.755 -0.1744 -0.2018 -0.1215
 3413DPPC   NC362641   9.224   8.249  15.533  0.2026  0.1703 -0.3344
 3413DPPC   PO462642   9.445   8.397  15.830  0.2757  0.1984  0.1366
 3413DPPC   GL162643   9.893   8.187  16.065  0.1200 -0.1410  0.1109
 3413DPPC   GL262644   9.928   7.849  16.031  0.0752  0.1041 -0.2092
 3413DPPC   C1A62645  10.234   8.157  16.430 -0.2446 -0.1152 -0.3319
 3413DPPC   C2A62646  10.620   8.033  16.513 -0.1677 -0.0387 -0.3341
 3413DPPC   C3A62647  10.767   7.759  16.733  0.2112  0.1982  0.2909
 3413DPPC   C4A62648  10.849   7.660  17.091  0.0084 -0.2588  0.1324
 3413DPPC   C1B62649  10.146   7.691  16.374  0.0796  0.1178 -0.0705
 3413DPPC   C2B62650  10.481   7.466  16.478 -0.1136 -0.1129  0.0244
 3413DPPC   C3B62651  10.778   7.211  16.592  0.0713 -0.0931 -0.0676
 3413DPPC   C4B62652  10.936   6.956  16.748  0.1636  0.0517  0.0611
 3414DPPC   NC362653  17.349  -2.488  15.610 -0.0599 -0.0521  0.1372
 3414DPPC   PO462654  17.014  -2.660  15.445  0.1898  0.4869  0.0609
 3414DPPC   GL162655  16.831  -2.388  15.743  0.0949  0.5327  0.1297
 3414DPPC   GL262656  16.570  -2.257  15.716  0.4133  0.0360  0.1818
 3414DPPC   C1A62657  16.982  -2.045  16.011  0.1190 -0.1894 -0.1076
 3414DPPC   C2A62658  17.028  -1.676  16.465  0.2799 -0.3019 -0.0331
 3414DPPC   C3A62659  17.324  -1.435  16.639 -0.2152 -0.1894  0.2196
 3414DPPC   C4A62660  17.705  -1.373  16.735 -0.0930 -0.2129  0.0159
 3414DPPC   C1B62661  16.123  -2.138  15.418 -0.6735 -0.1961  0.0839
 3414DPPC   C2B62662  15.835  -1.792  15.382  0.2850 -0.0684  0.2309
 3414DPPC   C3B62663  15.432  -1.819  14.969 -0.0678  0.1278  0.1217
 3414DPPC   C4B62664  14.991  -1.735  14.989 -0.3466 -0.0031 -0.1140
 3415DPPC   NC362665  23.679   9.777  33.682 -0.0419  0.3180 -0.0826
 3415DPPC   PO462666  23.768  10.085  33.279  0.3460  0.6166 -0.0208
 3415DPPC   GL162667  23.772   9.848  33.044  0.0740  0.1889  0.0545
 3415DPPC   GL262668  23.856  10.047  32.805  0.1499 -0.0060  0.1322
 3415DPPC   C1A62669  23.635   9.646  32.674  0.1038  0.0098  0.0976
 3415DPPC   C2A62670  23.395   9.676  32.470 -0.2783 -0.0290 -0.1948
 3415DPPC   C3A62671  23.076   9.296  32.368  0.0045  0.0682 -0.0903
 3415DPPC   C4A62672  22.659   9.146  32.291  0.0962  0.1340  0.1394
 3415DPPC   C1B62673  23.530  10.165  32.595  0.3113 -0.2050  0.4535
 3415DPPC   C2B62674  23.142  10.147  32.440  0.0666  0.3964  0.1250
 3415DPPC   C3B62675  22.681  10.092  32.377 -0.0016  0.0811 -0.0236
 3415DPPC   C4B62676  22.442   9.881  32.082 -0.0425  0.1778 -0.1332
 3416DPPC   NC362677  17.449  -2.901  16.390 -0.1018  0.2077 -0.1601
 3416DPPC   PO462678  17.667  -2.704  16.646 -0.0169 -0.1876 -0.0665
 3416DPPC   GL162679  17.204  -2.827  16.833 -0.2814 -0.0186 -0.1023
 3416DPPC   GL262680  17.288  -2.437  16.859  0.1349  0.0200  0.0759
 3416DPPC   C1A62681  16.842  -2.534  16.957 -0.1874 -0.1923 -0.1132
 3416DPPC   C2A62682  16.663  -2.188  16.680  0.3311 -0.1916 -0.0538
 3416DPPC   C3A62683  16.500  -1.910  16.291 -0.2032  0.0108  0.1231
 3416DPPC   C4A62684  16.504  -1.701  15.860  0.1867  0.2513 -0.4359
 3416DPPC   C1B62685  17.522  -2.278  17.157 -0.1849 -0.4080  0.0939
 3416DPPC   C2B62686  17.678  -2.080  17.390 -0.0923  0.1106 -0.0980
 3416DPPC   C3B62687  17.627  -1.665  17.497  0.1179  0.0820 -0.1232
 3416DPPC   C4B62688  17.695  -1.334  17.716  0.2335 -0.0935  0.1842
 3417DPPC   NC362689  21.413  -5.237  19.030 -0.2427  0.1063  0.0161
 3417DPPC   PO462690  20.961  -5.381  18.967 -0.2372  0.0214  0.1782
 3417DPPC   GL162691  20.963  -5.727  19.058  0.3431 -0.1216 -0.2025
 3417DPPC   GL262692  21.274  -5.789  18.896  0.2427 -0.1480 -0.0844
 3417DPPC   C1A62693  20.944  -5.962  19.474  0.1383 -0.0907  0.2071
 3417DPPC   C2A62694  21.270  -6.120  19.757  0.0044  0.3233 -0.3403
 3417DPPC   C3A62695  21.662  -6.140  19.762 -0.0740  0.1898  0.1678
 3417DPPC   C4A62696  22.029  -6.266  19.686 -0.2938 -0.0620 -0.0229
 3417DPPC   C1B62697  21.429  -5.872  19.335  0.4469  0.1206  0.2330
 3417DPPC   C2B62698  21.847  -5.801  19.438  0.2664 -0.3662  0.1511
 3417DPPC   C3B62699  22.194  -5.712  19.701  0.2563  0.1955 -0.0328
 3417DPPC   C4B62700  22.600  -5.503  19.787 -0.1639 -0.0762 -0.2810
 3418DPPC   NC362701  11.452  12.499  34.580  0.2479 -0.0628 -0.2178
 3418DPPC   PO462702  11.506  12.571  34.188  0.0734 -0.0728  0.1768
 3418DPPC   GL162703  11.532  12.209  33.998 -0.0791 -0.2416  0.4350
 3418DPPC   GL262704  11.128  12.209  33.893 -0.1106  0.0970  0.0149
 3418DPPC   C1A62705  11.906  11.982  33.997  0.2634 -0.2232 -0.5078
 3418DPPC   C2A62706  12.100  11.799  33.682 -0.1204  0.0214 -0.1872
 3418DPPC   C3A62707  12.176  11.482  33.316 -0.2420 -0.0968  0.0500
 3418DPPC   C4A62708  12.419  11.288  33.036  0.0605 -0.4243  0.1753
 3418DPPC   C1B62709  11.214  11.822  33.775  0.0134 -0.3192  0.2016
 3418DPPC   C2B62710  11.218  11.516  33.413  0.1459 -0.0486  0.1765
 3418DPPC   C3B62711  11.412  11.446  33.022 -0.1504 -0.1190  0.0261
 3418DPPC   C4B62712  11.538  11.597  32.664 -0.1481  0.2602  0.0225
 3419DPPC   NC362713  15.868  15.409  30.996  0.1995 -0.0521  0.2103
 3419DPPC   PO462714  15.534  15.203  30.757 -0.0813  0.1438 -0.1238
 3419DPPC   GL162715  15.601  15.115  30.343 -0.0038  0.1359 -0.0313
 3419DPPC   GL262716  15.826  15.355  30.142  0.0925  0.2688 -0.4285
 3419DPPC   C1A62717  15.366  15.092  29.954 -0.0907 -0.1042  0.0913
 3419DPPC   C2A62718  15.221  14.869  29.554  0.3383 -0.0954 -0.0530
 3419DPPC   C3A62719  15.235  14.474  29.386 -0.0238  0.1756 -0.2241
 3419DPPC   C4A62720  15.502  14.198  29.209  0.0706  0.0404  0.0108
 3419DPPC   C1B62721  15.859  15.054  29.880  0.1505  0.0510  0.0177
 3419DPPC   C2B62722  15.806  14.687  29.850 -0.0249 -0.0621 -0.0224
 3419DPPC   C3B62723  15.486  14.402  29.816 -0.1743  0.0298 -0.1411
 3419DPPC   C4B62724  15.633  13.938  29.722  0.0154  0.0337  0.1416
 3420DPPC   NC362725   5.237   3.698  33.014  0.0128  0.1005  0.0034
 3420DPPC   PO462726   5.199   3.915  32.575  0.1763 -0.2615  0.1323
 3420DPPC   GL162727   5.448   3.946  32.253  0.2050  0.1001 -0.0071
 3420DPPC   GL262728   5.256   3.777  31.952 -0.0872 -0.1723  0.0903
 3420DPPC   C1A62729   5.847   4.173  32.129 -0.1851 -0.0293  0.3455
 3420DPPC   C2A62730   6.149   4.298  31.829 -0.0822 -0.2239 -0.0568
 3420DPPC   C3A62731   6.158   4.728  31.628 -0.0309 -0.2522  0.0415
 3420DPPC   C4A62732   6.271   4.861  31.230  0.2091  0.1828  0.2749
 3420DPPC   C1B62733   5.579   3.864  31.720 -0.0212 -0.0809 -0.1216
 3420DPPC   C2B62734   5.705   4.151  31.479  0.2334  0.1033 -0.2639
 3420DPPC   C3B62735   6.042   4.350  31.292  0.3220  0.1574 -0.0491
 3420DPPC   C4B62736   6.475   4.333  30.990  0.3923 -0.1889  0.2884
 3421DPPC   NC362737   7.480   4.262  34.752 -0.0503 -0.0297 -0.3416
 3421DPPC   PO462738   7.166   4.436  34.558  0.1853 -0.0144 -0.0363
 3421DPPC   GL162739   7.596   4.548  34.366  0.0910  0.1128 -0.1889
 3421DPPC   GL262740   7.486   4.917  34.335  0.2167  0.2771  0.0167
 3421DPPC   C1A62741   7.909   4.424  34.190  0.3998 -0.0985 -0.2704
 3421DPPC   C2A62742   8.210   4.362  34.059 -0.0776  0.2026 -0.0158
 3421DPPC   C3A62743   8.576   4.302  33.827 -0.2604 -0.0417 -0.0738
 3421DPPC   C4A62744   8.771   4.408  33.526  0.1204 -0.0538 -0.1908
 3421DPPC   C1B62745   7.850   5.141  34.434 -0.2742 -0.1269  0.1219
 3421DPPC   C2B62746   7.916   5.384  34.072 -0.1485 -0.3726  0.0066
 3421DPPC   C3B62747   8.163   5.802  34.123  0.0922  0.0872 -0.0253
 3421DPPC   C4B62748   8.331   6.248  33.876  0.0971 -0.1689  0.0830
 3422DPPC   NC362749  22.964  -7.940  20.139 -0.1091 -0.2552  0.0491
 3422DPPC   PO462750  22.726  -8.003  20.587 -0.0928 -0.0353  0.1676
 3422DPPC   GL162751  22.642  -7.548  20.377  0.1320 -0.3960  0.1344
 3422DPPC   GL262752  22.604  -7.560  20.003 -0.2249 -0.2462 -0.2531
 3422DPPC   C1A62753  22.314  -7.184  20.468  0.1237  0.0582  0.1648
 3422DPPC   C2A62754  21.858  -7.067  20.340  0.1122  0.1360  0.0070
 3422DPPC   C3A62755  21.628  -6.752  20.253  0.0753  0.1082  0.0261
 3422DPPC   C4A62756  21.384  -6.568  19.958  0.2232  0.1197 -0.0509
 3422DPPC   C1B62757  22.343  -7.621  19.700 -0.2693  0.0930 -0.1208
 3422DPPC   C2B62758  21.979  -7.588  19.525  0.1859 -0.0908 -0.0702
 3422DPPC   C3B62759  21.875  -7.832  19.173 -0.0417  0.2493  0.1421
 3422DPPC   C4B62760  22.150  -7.876  18.825 -0.0332 -0.1239  0.0549
 3423DPPC   NC362761   8.464   2.897  29.620  0.0528  0.2611 -0.0675
 3423DPPC   PO462762   8.313   3.176  29.943 -0.0595  0.3158  0.1454
 3423DPPC   GL162763   8.048   2.905  30.136  0.1382 -0.1425  0.3232
 3423DPPC   GL262764   8.074   2.656  29.827  0.3592 -0.3050  0.0981
 3423DPPC   C1A62765   7.843   2.775  30.511 -0.3380  0.3164  0.2389
 3423DPPC   C2A62766   7.480   2.961  30.668  0.0389 -0.2655 -0.1010
 3423DPPC   C3A62767   7.095   3.167  30.465 -0.2608  0.2360 -0.0688
 3423DPPC   C4A62768   6.854   3.602  30.508  0.0578 -0.1808 -0.2116
 3423DPPC   C1B62769   7.708   2.601  29.830  0.0696 -0.1384 -0.2049
 3423DPPC   C2B62770   7.276   2.580  29.823  0.2812  0.1862  0.1495
 3423DPPC   C3B62771   6.923   2.232  29.953 -0.2852 -0.0586  0.1712
 3423DPPC   C4B62772   6.582   1.994  30.082  0.1947 -0.0183  0.2193
 3424DPPC   NC362773   2.097   3.276  26.151 -0.0685 -0.0426  0.2212
 3424DPPC   PO462774   2.397   2.893  26.010  0.1853 -0.3327 -0.1989
 3424DPPC   GL162775   2.777   2.953  26.151 -0.1612 -0.0873  0.1701
 3424DPPC   GL262776   2.949   2.739  26.074  0.3026  0.2631  0.4053
 3424DPPC   C1A62777   3.141   3.226  26.097  0.1375  0.2972  0.3629
 3424DPPC   C2A62778   3.580   3.099  25.926  0.1323 -0.1223  0.0734
 3424DPPC   C3A62779   3.989   3.069  25.889 -0.1086  0.0861 -0.2918
 3424DPPC   C4A62780   4.204   3.094  26.246  0.0045  0.0531  0.0529
 3424DPPC   C1B62781   3.292   2.746  25.746 -0.2645 -0.2992 -0.0560
 3424DPPC   C2B62782   3.358   2.756  25.211  0.0306  0.0350  0.1124
 3424DPPC   C3B62783   3.611   2.561  24.935  0.1176  0.0005 -0.3319
 3424DPPC   C4B62784   3.633   2.082  24.740 -0.0771 -0.0926 -0.3620
 3425DPPC   NC362785  11.790  -7.036  28.504  0.3551 -0.2333 -0.0574
 3425DPPC   PO462786  11.351  -7.074  28.282  0.1139  0.1631 -0.0013
 3425DPPC   GL162787  11.268  -6.696  28.357  0.0915  0.0029 -0.1399
 3425DPPC   GL262788  11.451  -6.590  28.767 -0.4021 -0.3127 -0.0957
 3425DPPC   C1A62789  11.197  -6.429  28.181  0.0026  0.4494 -0.1369
 3425DPPC   C2A62790  11.208  -6.021  28.155  0.2108 -0.0594  0.3228
 3425DPPC   C3A62791  11.110  -5.733  27.790 -0.0264 -0.0029  0.0918
 3425DPPC   C4A62792  11.362  -5.490  27.596  0.0601  0.2382 -0.3046
 3425DPPC   C1B62793  11.673  -6.242  28.641 -0.2766 -0.1325  0.1606
 3425DPPC   C2B62794  11.710  -5.984  28.333 -0.3415 -0.1095 -0.0483
 3425DPPC   C3B62795  12.062  -5.824  28.172  0.3008  0.1128  0.2124
 3425DPPC   C4B62796  12.287  -5.480  28.411 -0.0355 -0.0001 -0.0448
 3426DPPC   NC362797   7.023  -5.313  22.096 -0.0620 -0.2181 -0.0987
 3426DPPC   PO462798   7.099  -5.325  22.561  0.1382  0.3589 -0.1737
 3426DPPC   GL162799   7.110  -4.924  22.625 -0.0222 -0.0689 -0.0716
 3426DPPC   GL262800   7.200  -4.891  22.270  0.1340 -0.2865 -0.3335
 3426DPPC   C1A62801   7.141  -4.450  22.692 -0.1795  0.1595 -0.3525
 3426DPPC   C2A62802   7.283  -4.096  22.574  0.1209  0.0104  0.1179
 3426DPPC   C3A62803   7.638  -3.857  22.604  0.0429  0.4007  0.1148
 3426DPPC   C4A62804   7.931  -3.650  22.382  0.1340  0.1297  0.1038
 3426DPPC   C1B62805   7.603  -4.833  22.114 -0.1828 -0.0980 -0.4552
 3426DPPC   C2B62806   7.969  -4.590  22.020 -0.0404 -0.0951  0.1952
 3426DPPC   C3B62807   8.271  -4.276  21.900 -0.0392 -0.0701  0.0641
 3426DPPC   C4B62808   8.432  -3.902  21.601  0.0697  0.1758 -0.0876
 3427DPPC   NC362809  22.982  -1.550  21.656 -0.0301 -0.1101  0.0374
 3427DPPC   PO462810  22.949  -1.475  21.158 -0.0014  0.1582  0.0202
 3427DPPC   GL162811  23.268  -1.733  21.179 -0.0210 -0.1241  0.0208
 3427DPPC   GL262812  23.117  -2.023  21.409  0.0859  0.0100 -0.0172
 3427DPPC   C1A62813  23.652  -1.958  21.112 -0.3279 -0.0465  0.0827
 3427DPPC   C2A62814  23.827  -2.277  21.268  0.2657  0.2535  0.1091
 3427DPPC   C3A62815  24.203  -2.500  21.412 -0.0974 -0.0383  0.1861
 3427DPPC   C4A62816  24.595  -2.681  21.465  0.1421 -0.1226 -0.3586
 3427DPPC   C1B62817  23.323  -2.491  21.303 -0.1036 -0.0756  0.1528
 3427DPPC   C2B62818  23.545  -2.745  21.005 -0.1402 -0.0909  0.1648
 3427DPPC   C3B62819  23.790  -2.629  20.499  0.0527  0.1192  0.0038
 3427DPPC   C4B62820  23.811  -2.366  20.206  0.0772 -0.2417 -0.0058
 3428DPPC   NC362821  15.584  -0.237  16.826  0.4067 -0.2857 -0.0951
 3428DPPC   PO462822  15.384   0.039  16.511 -0.0242  0.1396 -0.2828
 3428DPPC   GL162823  15.562   0.145  16.157  0.3281 -0.0889  0.0658
 3428DPPC   GL262824  15.826   0.379  15.994 -0.1395 -0.2221 -0.0135
 3428DPPC   C1A62825  15.683  -0.025  15.754  0.1220  0.2022  0.2215
 3428DPPC   C2A62826  15.680  -0.434  15.456 -0.2028  0.1555 -0.0763
 3428DPPC   C3A62827  15.648  -0.761  15.410 -0.2822 -0.1425  0.0208
 3428DPPC   C4A62828  15.931  -1.156  15.440  0.1969  0.2646 -0.1484
 3428DPPC   C1B62829  16.018   0.295  15.516  0.3028  0.2920  0.1159
 3428DPPC   C2B62830  16.192   0.412  15.029 -0.3686  0.3995  0.0362
 3428DPPC   C3B62831  16.338   0.356  14.546  0.0366 -0.2300  0.0567
 3428DPPC   C4B62832  16.679   0.321  14.219  0.4232 -0.4962  0.4634
 3429DPPC   NC362833  12.454  -8.589  25.327  0.3548  0.1305 -0.1353
 3429DPPC   PO462834  12.667  -8.234  25.200 -0.0400  0.0646  0.2693
 3429DPPC   GL162835  12.709  -7.818  25.063  0.1215 -0.5851 -0.0744
 3429DPPC   GL262836  13.086  -7.662  25.180 -0.3460  0.0324 -0.1464
 3429DPPC   C1A62837  12.677  -7.438  24.992  0.1561 -0.1371 -0.1698
 3429DPPC   C2A62838  12.775  -7.130  25.185  0.1029  0.0403  0.2729
 3429DPPC   C3A62839  12.615  -6.679  25.119 -0.4532  0.0530 -0.0787
 3429DPPC   C4A62840  12.645  -6.217  24.987 -0.3146 -0.3136 -0.0760
 3429DPPC   C1B62841  13.231  -7.266  24.983  0.0156 -0.2426  0.2038
 3429DPPC   C2B62842  13.201  -6.804  25.079  0.4746 -0.1730 -0.4841
 3429DPPC   C3B62843  13.318  -6.441  25.341 -0.0751  0.3226  0.2206
 3429DPPC   C4B62844  13.568  -6.098  25.131  0.2112 -0.2034 -0.0792
 3430DPPC   NC362845  12.236  -4.182  34.292  0.0358 -0.1131  0.0216
 3430DPPC   PO462846  12.272  -3.851  33.933 -0.0172  0.0553  0.1645
 3430DPPC   GL162847  12.566  -3.577  33.648 -0.0143  0.4268 -0.1039
 3430DPPC   GL262848  12.471  -3.229  33.522 -0.0660 -0.2780 -0.0097
 3430DPPC   C1A62849  12.962  -3.165  33.663  0.0555 -0.2101  0.1834
 3430DPPC   C2A62850  13.173  -3.053  33.252 -0.4167 -0.0549 -0.1502
 3430DPPC   C3A62851  13.315  -2.904  32.914  0.1619 -0.3141  0.1619
 3430DPPC   C4A62852  13.109  -2.796  32.582 -0.0663  0.3102  0.0406
 3430DPPC   C1B62853  12.697  -3.217  33.124  0.0678 -0.3873 -0.1343
 3430DPPC   C2B62854  12.772  -3.059  32.688  0.1733 -0.1270 -0.5021
 3430DPPC   C3B62855  12.463  -2.838  32.390 -0.5158 -0.0156 -0.0499
 3430DPPC   C4B62856  12.239  -2.524  32.126  0.1351 -0.4741 -0.1066
 3431DPPC   NC362857  19.787   5.790  17.387 -0.2479  0.0479 -0.0576
 3431DPPC   PO462858  19.735   5.533  17.081  0.0498  0.2725 -0.0317
 3431DPPC   GL162859  19.962   5.775  16.922 -0.0700  0.0844 -0.3509
 3431DPPC   GL262860  19.944   5.509  16.616 -0.0930 -0.1229 -0.1346
 3431DPPC   C1A62861  20.173   5.927  16.607 -0.4314  0.1309 -0.1299
 3431DPPC   C2A62862  20.436   6.150  16.357 -0.1012  0.0529 -0.1011
 3431DPPC   C3A62863  20.537   6.405  16.020  0.1098 -0.0029 -0.1020
 3431DPPC   C4A62864  20.729   6.425  15.705 -0.3699 -0.2534  0.2232
 3431DPPC   C1B62865  20.086   5.598  16.226  0.0747  0.0538 -0.0010
 3431DPPC   C2B62866  20.093   5.290  15.911 -0.1682 -0.1730  0.0703
 3431DPPC   C3B62867  20.192   5.347  15.526  0.0191 -0.1953 -0.2675
 3431DPPC   C4B62868  20.438   5.483  15.384  0.0366 -0.0768  0.0703
 3432DPPC   NC362869  12.163  -7.937  26.860 -0.0266  0.0732 -0.1299
 3432DPPC   PO462870  12.532  -8.065  27.146 -0.1910 -0.2957 -0.1415
 3432DPPC   GL162871  12.560  -7.612  26.855  0.1256 -0.0850  0.3741
 3432DPPC   GL262872  12.844  -7.367  26.916  0.0124 -0.0310 -0.1716
 3432DPPC   C1A62873  12.574  -7.304  26.455  0.2127  0.1195  0.0424
 3432DPPC   C2A62874  12.858  -7.008  26.303 -0.2786 -0.0102 -0.0418
 3432DPPC   C3A62875  13.168  -6.960  26.039  0.0100  0.0556  0.0105
 3432DPPC   C4A62876  13.594  -7.051  25.985  0.1831 -0.0255  0.0857
 3432DPPC   C1B62877  12.915  -6.915  26.890  0.1074 -0.1303 -0.1481
 3432DPPC   C2B62878  12.996  -6.558  26.584 -0.2487  0.2360  0.4481
 3432DPPC   C3B62879  13.227  -6.482  26.166  0.1524 -0.2735 -0.0323
 3432DPPC   C4B62880  13.464  -6.619  25.807 -0.2231  0.1251 -0.1696
 3433DPPC   NC362881  11.952  -0.529  12.905 -0.1988  0.0857  0.1958
 3433DPPC   PO462882  12.161  -0.056  12.952 -0.0899 -0.1765 -0.1983
 3433DPPC   GL162883  11.943  -0.048  13.327 -0.1552 -0.2556  0.0965
 3433DPPC   GL262884  12.156  -0.237  13.429  0.3831 -0.1196 -0.1140
 3433DPPC   C1A62885  11.899  -0.017  13.833  0.0385 -0.0356  0.0676
 3433DPPC   C2A62886  12.052  -0.030  14.189  0.0471  0.0661  0.2008
 3433DPPC   C3A62887  12.182  -0.208  14.524  0.0626 -0.0961 -0.0909
 3433DPPC   C4A62888  11.942  -0.510  14.581  0.0537  0.0617  0.0890
 3433DPPC   C1B62889  12.540  -0.018  13.632 -0.0691  0.1590  0.1693
 3433DPPC   C2B62890  12.840   0.200  13.790  0.2297 -0.1097  0.0856
 3433DPPC   C3B62891  13.182   0.010  13.947 -0.0951 -0.2727 -0.0111
 3433DPPC   C4B62892  13.596   0.026  13.775  0.3103 -0.0273 -0.2189
 3434DPPC   NC362893  26.031  -3.251  19.644  0.2255 -0.2140  0.0945
 3434DPPC   PO462894  25.880  -2.862  19.485 -0.2199 -0.3867 -0.0812
 3434DPPC   GL162895  25.378  -2.624  19.382 -0.1617  0.4842 -0.0653
 3434DPPC   GL262896  25.193  -2.913  19.592  0.2649  0.1843 -0.0367
 3434DPPC   C1A62897  25.039  -2.337  19.400  0.0470 -0.0636 -0.1694
 3434DPPC   C2A62898  24.781  -1.999  19.221  0.0733 -0.1810  0.4006
 3434DPPC   C3A62899  24.318  -2.097  19.139  0.1429  0.0382  0.3831
 3434DPPC   C4A62900  24.136  -2.465  18.846  0.2100 -0.0477 -0.1068
 3434DPPC   C1B62901  24.773  -2.789  19.754  0.1853 -0.0599  0.1507
 3434DPPC   C2B62902  24.403  -2.813  19.660 -0.1563 -0.2846 -0.1085
 3434DPPC   C3B62903  24.026  -3.080  19.573 -0.3063  0.1391 -0.0858
 3434DPPC   C4B62904  23.942  -3.301  19.227  0.0457  0.0552 -0.0183
 3435DPPC   NC362905  21.395   0.385  16.439 -0.3337  0.2021 -0.2087
 3435DPPC   PO462906  21.175   0.127  16.228 -0.1758 -0.2157 -0.1711
 3435DPPC   GL162907  21.066   0.085  16.666 -0.0139  0.0412 -0.0583
 3435DPPC   GL262908  20.792  -0.010  16.651 -0.1764  0.2885 -0.0333
 3435DPPC   C1A62909  21.133   0.325  17.067  0.2235 -0.1600 -0.1643
 3435DPPC   C2A62910  21.318   0.297  17.469  0.1595 -0.1831 -0.1606
 3435DPPC   C3A62911  21.702   0.450  17.871 -0.1762 -0.1403  0.1590
 3435DPPC   C4A62912  21.644   0.759  18.099 -0.1376  0.2453  0.0707
 3435DPPC   C1B62913  20.725   0.090  17.000 -0.0340  0.1576  0.1036
 3435DPPC   C2B62914  20.362   0.242  17.191  0.0595 -0.0971 -0.0956
 3435DPPC   C3B62915  20.127   0.566  17.373 -0.0552 -0.1064  0.1158
 3435DPPC   C4B62916  19.909   0.908  17.557 -0.1147 -0.2202  0.1180
 3436DPPC   NC362917  25.802  11.534  28.639  0.0202 -0.3229 -0.1746
 3436DPPC   PO462918  25.780  11.516  29.125 -0.1585 -0.3572  0.3423
 3436DPPC   GL162919  25.561  11.175  28.924 -0.2688 -0.3696  0.4565
 3436DPPC   GL262920  25.759  11.034  29.012  0.2799  0.1354  0.2594
 3436DPPC   C1A62921  25.267  10.982  28.621  0.1197  0.2937 -0.2231
 3436DPPC   C2A62922  25.323  10.564  28.518  0.2037 -0.1353  0.2429
 3436DPPC   C3A62923  25.222  10.203  28.566  0.0434  0.2569 -0.2693
 3436DPPC   C4A62924  25.636  10.029  28.624 -0.0724  0.1440 -0.0673
 3436DPPC   C1B62925  25.341  10.817  29.186  0.0786  0.2530  0.0170
 3436DPPC   C2B62926  25.086  10.628  29.367 -0.0337 -0.1522  0.1340
 3436DPPC   C3B62927  24.889  10.379  29.758 -0.0674 -0.2225  0.0825
 3436DPPC   C4B62928  24.446  10.420  29.960  0.0673 -0.1122 -0.0854
 3437DPPC   NC362929  22.119  -4.777  10.621  0.1351  0.1648 -0.1377
 3437DPPC   PO462930  21.794  -4.465  10.500 -0.2643  0.0893  0.0193
 3437DPPC   GL162931  21.840  -4.604  11.047  0.0439  0.0239  0.0596
 3437DPPC   GL262932  22.118  -4.813  11.179  0.1610  0.0110  0.2234
 3437DPPC   C1A62933  21.612  -4.709  11.373  0.2636  0.4152 -0.0270
 3437DPPC   C2A62934  21.192  -4.676  11.500  0.2528  0.0272 -0.1379
 3437DPPC   C3A62935  20.807  -4.937  11.637  0.2467  0.0676  0.3929
 3437DPPC   C4A62936  20.430  -4.986  11.373 -0.0441 -0.2705  0.4089
 3437DPPC   C1B62937  22.163  -4.591  11.598  0.0335 -0.1852  0.1882
 3437DPPC   C2B62938  22.245  -4.283  11.916 -0.0257 -0.0316  0.0194
 3437DPPC   C3B62939  22.198  -3.867  12.174 -0.0792  0.5932  0.0114
 3437DPPC   C4B62940  22.354  -4.029  12.561 -0.0348  0.0933 -0.0086
 3438DPPC   NC362941  15.625   0.478  37.645  0.1217  0.1882  0.2582
 3438DPPC   PO462942  15.265   0.433  37.370 -0.0241  0.0453 -0.0535
 3438DPPC   GL162943  15.310   0.703  37.021  0.2086  0.2061  0.0532
 3438DPPC   GL262944  15.097   0.692  36.904 -0.2571  0.4668  0.0778
 3438DPPC   C1A62945  15.518   0.777  36.577 -0.0376  0.3755  0.2052
 3438DPPC   C2A62946  15.683   0.811  36.098 -0.0390  0.2709 -0.1032
 3438DPPC   C3A62947  16.062   0.677  35.954 -0.0764 -0.3265  0.1868
 3438DPPC   C4A62948  16.502   0.558  36.109 -0.2201 -0.1899 -0.0028
 3438DPPC   C1B62949  15.086   0.636  36.465 -0.1278  0.0702  0.1606
 3438DPPC   C2B62950  15.343   0.430  36.198  0.4821  0.1417 -0.3104
 3438DPPC   C3B62951  15.756   0.261  36.080 -0.1569 -0.4184 -0.0942
 3438DPPC   C4B62952  15.955   0.392  36.361  0.0423 -0.1934 -0.0321
 3439DPPC   NC362953  16.381  -3.515  10.699  0.2091 -0.2200  0.0746
 3439DPPC   PO462954  16.328  -3.877  10.776 -0.1246  0.1349  0.0858
 3439DPPC   GL162955  16.646  -3.803  11.102 -0.3595  0.4368  0.1848
 3439DPPC   GL262956  16.817  -4.107  11.158  0.1143 -0.0015 -0.1981
 3439DPPC   C1A62957  16.611  -3.555  11.392 -0.0734  0.2582  0.2462
 3439DPPC   C2A62958  16.771  -3.360  11.790  0.1743 -0.4817  0.1105
 3439DPPC   C3A62959  17.049  -3.177  12.161  0.0487 -0.1098  0.0334
 3439DPPC   C4A62960  17.210  -2.877  12.346 -0.3816  0.0889 -0.1406
 3439DPPC   C1B62961  16.720  -4.007  11.665 -0.1280  0.1512 -0.1614
 3439DPPC   C2B62962  16.916  -3.820  12.055 -0.2015  0.1559  0.0721
 3439DPPC   C3B62963  17.271  -3.825  12.277 -0.1014  0.2301  0.1953
 3439DPPC   C4B62964  17.631  -3.757  12.610 -0.0548 -0.3150 -0.0619
 3440DPPC   NC362965   8.390  -6.521  25.654  0.0501  0.1365  0.0022
 3440DPPC   PO462966   8.779  -6.808  25.570 -0.1966 -0.3106  0.1353
 3440DPPC   GL162967   8.944  -6.581  25.397 -0.1451 -0.2607 -0.0689
 3440DPPC   GL262968   9.289  -6.676  25.535  0.2177  0.0657 -0.1798
 3440DPPC   C1A62969   9.086  -6.193  25.415 -0.2031 -0.2305 -0.0041
 3440DPPC   C2A62970   9.281  -5.876  25.241  0.0496  0.1158 -0.0127
 3440DPPC   C3A62971   9.713  -5.684  25.074 -0.2085 -0.0014 -0.2344
 3440DPPC   C4A62972   9.975  -5.480  25.330 -0.0418  0.3655  0.3686
 3440DPPC   C1B62973   9.560  -6.190  25.587 -0.2813 -0.0234 -0.0045
 3440DPPC   C2B62974   9.932  -5.951  25.474  0.0837  0.0831 -0.1101
 3440DPPC   C3B62975  10.266  -5.820  25.595 -0.0792  0.0974  0.3066
 3440DPPC   C4B62976  10.293  -5.360  25.773  0.0818  0.0470 -0.1691
 3441DPPC   NC362977  19.340  -8.817  12.073  0.3889  0.2763 -0.1722
 3441DPPC   PO462978  19.589  -8.452  12.248 -0.0630 -0.0970  0.0494
 3441DPPC   GL162979  19.386  -8.157  12.502 -0.0098 -0.2857 -0.1978
 3441DPPC   GL262980  19.044  -7.994  12.381  0.2090  0.1100  0.6523
 3441DPPC   C1A62981  19.634  -7.949  12.811 -0.0151  0.1136  0.0475
 3441DPPC   C2A62982  19.508  -7.684  13.104  0.1825  0.2062  0.3187
 3441DPPC   C3A62983  19.732  -7.330  13.270  0.0770  0.0340 -0.0455
 3441DPPC   C4A62984  19.852  -7.098  13.466 -0.2802  0.1210 -0.1285
 3441DPPC   C1B62985  19.405  -7.668  12.537 -0.0222  0.1757 -0.2318
 3441DPPC   C2B62986  19.697  -7.547  12.309 -0.0356 -0.0969 -0.1251
 3441DPPC   C3B62987  19.881  -7.282  12.041 -0.0171  0.3025 -0.2760
 3441DPPC   C4B62988  19.998  -7.152  11.736  0.0744  0.1649 -0.2114
 3442DPPC   NC362989   3.177   7.714  23.101 -0.0821 -0.0452  0.2953
 3442DPPC   PO462990   3.401   7.347  23.136 -0.0222 -0.1234 -0.1937
 3442DPPC   GL162991   3.836   7.423  23.269  0.1897 -0.0393 -0.1231
 3442DPPC   GL262992   4.042   7.221  23.322 -0.0928  0.0513  0.1888
 3442DPPC   C1A62993   4.139   7.750  23.218  0.1407 -0.2318 -0.3229
 3442DPPC   C2A62994   4.590   7.697  23.269 -0.2984  0.2037  0.0105
 3442DPPC   C3A62995   5.116   7.869  23.215  0.1133  0.2313  0.0834
 3442DPPC   C4A62996   5.512   7.774  23.155 -0.1167 -0.2164 -0.1010
 3442DPPC   C1B62997   4.466   7.199  23.430 -0.0172  0.2463 -0.2235
 3442DPPC   C2B62998   4.947   7.331  23.413 -0.0958 -0.5436 -0.2774
 3442DPPC   C3B62999   5.392   7.342  23.468  0.1042 -0.0963 -0.0597
 3442DPPC   C4B63000   5.837   7.062  23.635  0.0596  0.1555 -0.4368
  28.56075  28.56075  46.53782
