Written by MDAnalysis
63000
    1BOLB   NC1    1  35.105  20.050  24.529  0.1053  0.1129  0.1845
    1BOLB   PO1    2  34.661  19.823  24.499 -0.2224  0.1128 -0.2185
    1BOLB   GL1    3  34.312  20.019  24.591 -0.1731  0.1368 -0.1177
    1BOLB   GL2    4  34.159  19.979  24.850  0.2261 -0.2725  0.1560
    1BOLB   C1A    5  34.247  20.439  24.771  0.1833  0.2235  0.2788
    1BOLB   C2A    6  33.872  20.747  24.960  0.2245 -0.0235  0.1264
    1BOLB   C3A    7  33.703  21.099  25.223 -0.2773 -0.1540 -0.5805
    1BOLB   C4A    8  33.659  21.454  25.556 -0.1276  0.1405  0.1276
    1BOLB   C1B    9  33.792  20.197  24.647  0.4184 -0.1709 -0.0677
    1BOLB   C2B   10  33.599  20.589  24.470  0.0229 -0.0924  0.2825
    1BOLB   C3B   11  33.673  20.962  24.241  0.2621 -0.1657 -0.2261
    1BOLB   C4B   12  33.868  21.122  23.837  0.2027 -0.2602  0.0423
    1BOLB   NC2   13  31.939  23.440  25.999  0.2133  0.1532  0.3463
    1BOLB   PO2   14  32.328  23.542  25.681  0.3422  0.1313  0.2129
    1BOLB   GL3   15  32.764  23.300  25.646 -0.0706 -0.1539 -0.0055
    1BOLB   GL4   16  33.102  23.353  25.730 -0.2163  0.2118  0.3370
    1BOLB   C1C   17  32.792  22.879  25.731  0.1106 -0.0683 -0.1068
    1BOLB   C2C   18  33.149  22.645  25.585  0.2185 -0.3446 -0.3399
    1BOLB   C3C   19  33.348  22.193  25.547 -0.4095  0.3584  0.1767
    1BOLB   C4C   20  33.653  21.886  25.542 -0.0878  0.1062  0.1307
    1BOLB   C1D   21  33.410  23.056  25.848 -0.0771 -0.0592 -0.1948
    1BOLB   C2D   22  33.665  22.632  25.845 -0.0370  0.3049 -0.0252
    1BOLB   C3D   23  34.036  22.560  26.072  0.1210  0.1624  0.0246
    1BOLB   C4D   24  34.220  22.283  26.380 -0.1494  0.2276 -0.0055
    2BOLB   NC1   25  20.824  33.247  18.372  0.1123 -0.3663  0.0228
    2BOLB   PO1   26  21.170  33.497  18.374  0.0235  0.0453  0.0536
    2BOLB   GL1   27  20.916  33.806  18.244  0.0193  0.1441  0.1713
    2BOLB   GL2   28  20.702  33.652  18.173 -0.2062  0.1259  0.1889
    2BOLB   C1A   29  20.797  34.245  18.037 -0.2262 -0.2847 -0.1568
    2BOLB   C2A   30  20.796  34.650  18.013  0.0694  0.2360 -0.3602
    2BOLB   C3A   31  20.542  34.983  18.063  0.0271 -0.0332  0.1468
    2BOLB   C4A   32  20.176  35.255  18.025 -0.0219  0.0825 -0.1698
    2BOLB   C1B   33  20.375  33.962  18.111  0.2865  0.2428  0.1546
    2BOLB   C2B   34  20.172  34.322  17.976  0.3481 -0.1844  0.3289
    2BOLB   C3B   35  19.741  34.338  17.840  0.0630 -0.3246 -0.0212
    2BOLB   C4B   36  19.414  34.607  17.692 -0.0347 -0.2710 -0.1406
    2BOLB   NC2   37  17.970  37.071  17.659 -0.0974  0.1949  0.0101
    2BOLB   PO2   38  18.261  36.754  17.453  0.1675  0.2400 -0.5643
    2BOLB   GL3   39  18.676  36.574  17.551  0.1977 -0.1885 -0.1165
    2BOLB   GL4   40  18.871  36.393  17.217 -0.0462  0.0631  0.1798
    2BOLB   C1C   41  19.008  36.439  17.746  0.3313 -0.3192  0.0385
    2BOLB   C2C   42  19.344  36.149  17.917 -0.1070 -0.2252 -0.1522
    2BOLB   C3C   43  19.778  35.984  18.006  0.0262 -0.0900 -0.2464
    2BOLB   C4C   44  19.901  35.666  17.864  0.2240  0.2390  0.1959
    2BOLB   C1D   45  19.347  36.131  17.349  0.3425  0.1697  0.2345
    2BOLB   C2D   46  19.696  36.039  17.532  0.3848 -0.1009 -0.0504
    2BOLB   C3D   47  19.948  35.797  17.316 -0.0842 -0.2434 -0.0121
    2BOLB   C4D   48  20.148  35.397  17.543 -0.0453 -0.1763 -0.0585
    3BOLB   NC1   49  28.055  27.860  14.258 -0.3214  0.0313  0.0034
    3BOLB   PO1   50  28.031  28.210  13.896  0.0901 -0.0519 -0.2673
    3BOLB   GL1   51  28.076  28.319  13.441  0.0477  0.1614  0.0445
    3BOLB   GL2   52  27.914  28.014  13.458  0.0221 -0.0122  0.0228
    3BOLB   C1A   53  28.383  28.192  13.030  0.3220 -0.1116 -0.2115
    3BOLB   C2A   54  28.379  28.227  12.620 -0.0469  0.0346  0.1840
    3BOLB   C3A   55  28.559  28.597  12.360  0.0031  0.1889  0.1988
    3BOLB   C4A   56  28.772  28.696  12.028  0.2525  0.1661  0.2932
    3BOLB   C1B   57  28.004  27.870  13.036 -0.2004 -0.1066  0.1993
    3BOLB   C2B   58  28.017  27.652  12.643 -0.1503  0.2827  0.1025
    3BOLB   C3B   59  28.033  27.493  12.164  0.2738  0.1012  0.1769
    3BOLB   C4B   60  28.242  27.270  11.728  0.0024 -0.2136  0.0159
    3BOLB   NC2   61  29.872  28.046   9.707 -0.2946  0.2348  0.2578
    3BOLB   PO2   62  29.629  28.421   9.673 -0.4797 -0.0293 -0.1528
    3BOLB   GL3   63  29.378  28.611   9.908 -0.1259  0.3021  0.0105
    3BOLB   GL4   64  29.083  28.424   9.976 -0.2037 -0.3491 -0.2268
    3BOLB   C1C   65  29.231  28.576  10.416 -0.4125 -0.0303  0.3703
    3BOLB   C2C   66  29.126  28.853  10.860 -0.3429 -0.0783  0.0264
    3BOLB   C3C   67  28.835  28.732  11.091  0.1000  0.1814 -0.2253
    3BOLB   C4C   68  28.769  28.800  11.550 -0.1267 -0.0034  0.1675
    3BOLB   C1D   69  28.761  28.411  10.298 -0.0488 -0.0771 -0.0137
    3BOLB   C2D   70  28.725  28.443  10.664  0.1291  0.0806 -0.4904
    3BOLB   C3D   71  28.455  28.421  11.063  0.0320 -0.2048 -0.1414
    3BOLB   C4D   72  28.196  28.216  11.359 -0.1651 -0.4813 -0.3408
    4BOLB   NC1   73  21.824  32.378   0.069 -0.0369  0.2535  0.1184
    4BOLB   PO1   74  21.367  32.214   0.172  0.1404 -0.1192 -0.0441
    4BOLB   GL1   75  21.059  32.625   0.439  0.0683  0.3183 -0.1409
    4BOLB   GL2   76  20.733  32.507   0.454 -0.2653  0.2147 -0.4441
    4BOLB   C1A   77  20.929  33.051   0.692  0.0815  0.2773  0.0395
    4BOLB   C2A   78  20.824  33.461   0.868 -0.1316  0.4076  0.2099
    4BOLB   C3A   79  20.792  33.688   1.139 -0.0940 -0.2941  0.1187
    4BOLB   C4A   80  20.468  33.849   1.381  0.4559 -0.1227 -0.2322
    4BOLB   C1B   81  20.524  32.750   0.782  0.1811  0.0346 -0.0515
    4BOLB   C2B   82  20.313  33.223   0.693 -0.0418 -0.0183  0.0894
    4BOLB   C3B   83  20.246  33.553   0.980  0.0917  0.0485 -0.1014
    4BOLB   C4B   84  20.274  33.402   1.348  0.2792  0.2506  0.1922
    4BOLB   NC2   85  18.228  34.006   1.746 -0.1919 -0.1564  0.1414
    4BOLB   PO2   86  18.353  33.952   1.381  0.0852  0.1822 -0.1014
    4BOLB   GL3   87  18.644  33.758   1.586 -0.1925 -0.0166  0.3321
    4BOLB   GL4   88  18.890  33.971   1.561 -0.2656 -0.1715  0.1202
    4BOLB   C1C   89  18.995  33.522   1.384  0.2261  0.1829 -0.0458
    4BOLB   C2C   90  19.347  33.499   1.117  0.0658 -0.3811 -0.4918
    4BOLB   C3C   91  19.788  33.502   1.201  0.0641  0.0547 -0.1471
    4BOLB   C4C   92  20.082  33.887   1.342  0.2017  0.3019  0.0438
    4BOLB   C1D   93  19.226  33.705   1.790 -0.1074 -0.1130  0.3200
    4BOLB   C2D   94  19.315  33.750   2.154 -0.0397 -0.0441  0.1230
    4BOLB   C3D   95  19.765  33.721   2.292 -0.0192 -0.1632  0.1715
    4BOLB   C4D   96  20.042  33.913   2.086 -0.1280  0.0020 -0.1523
    5BOLB   NC1   97  30.946  28.332   2.362 -0.0930  0.1602  0.1534
    5BOLB   PO1   98  30.458  28.294   2.349 -0.1260  0.0541 -0.0639
    5BOLB   GL1   99  30.536  28.147   2.734  0.3166  0.0140 -0.1875
    5BOLB   GL2  100  30.251  28.050   2.844 -0.0697 -0.0897 -0.0810
    5BOLB   C1A  101  30.753  27.980   3.184 -0.1533  0.0197  0.2757
    5BOLB   C2A  102  30.614  27.806   3.552 -0.0101 -0.1774 -0.0716
    5BOLB   C3A  103  30.314  27.699   3.873  0.3307  0.0815  0.0698
    5BOLB   C4A  104  30.297  27.399   4.182 -0.0502  0.0905 -0.0276
    5BOLB   C1B  105  30.221  28.008   3.382 -0.5065  0.1000  0.1232
    5BOLB   C2B  106  30.390  28.261   3.780 -0.2236  0.1618  0.2690
    5BOLB   C3B  107  30.643  28.568   3.951 -0.3160  0.3840 -0.0733
    5BOLB   C4B  108  30.718  28.915   4.119 -0.0510 -0.1601 -0.0134
    5BOLB   NC2  109  31.698  26.944   6.485  0.1639 -0.3644 -0.3337
    5BOLB   PO2  110  31.425  26.770   6.180  0.3018 -0.4872 -0.2216
    5BOLB   GL3  111  31.173  26.681   5.846  0.1461 -0.0133  0.0823
    5BOLB   GL4  112  31.413  26.582   5.484 -0.1483 -0.1671 -0.6368
    5BOLB   C1C  113  31.037  26.914   5.486  0.1558 -0.0116  0.0775
    5BOLB   C2C  114  31.019  27.017   5.095 -0.2736  0.0406 -0.1094
    5BOLB   C3C  115  30.996  27.290   4.765 -0.0208  0.0048 -0.1188
    5BOLB   C4C  116  30.666  27.410   4.504 -0.0140 -0.3678  0.1876
    5BOLB   C1D  117  31.460  26.864   5.132 -0.1598 -0.0831 -0.0422
    5BOLB   C2D  118  31.470  27.288   5.039 -0.0244 -0.0236 -0.3147
    5BOLB   C3D  119  31.416  27.611   4.750 -0.4800 -0.0415 -0.1780
    5BOLB   C4D  120  31.573  27.706   4.316  0.4129 -0.2737 -0.0249
    6BOLB   NC1  121  32.618  23.005  22.929 -0.0265  0.0480 -0.1119
    6BOLB   PO1  122  32.145  22.883  22.841 -0.2687 -0.1309  0.2493
    6BOLB   GL1  123  32.418  22.563  23.070  0.2546  0.1944 -0.6570
    6BOLB   GL2  124  32.229  22.366  23.296  0.3852  0.3053  0.0769
    6BOLB   C1A  125  32.760  22.241  23.207  0.1965 -0.0195  0.0158
    6BOLB   C2A  126  32.927  21.965  23.369  0.1755  0.3097  0.0232
    6BOLB   C3A  127  32.990  21.575  23.552  0.6107  0.2168 -0.0028
    6BOLB   C4A  128  32.967  21.152  23.477  0.2222 -0.1000 -0.2698
    6BOLB   C1B  129  32.349  21.965  23.109  0.0626 -0.0223  0.2096
    6BOLB   C2B  130  32.635  21.587  23.193  0.0332  0.1495 -0.5686
    6BOLB   C3B  131  32.457  21.193  23.254  0.0083  0.1963  0.0892
    6BOLB   C4B  132  32.366  20.917  23.565  0.1098 -0.0797  0.3398
    6BOLB   NC2  133  34.926  20.512  24.490 -0.0475 -0.0218 -0.0457
    6BOLB   PO2  134  34.761  20.216  24.223  0.1390  0.0010  0.1536
    6BOLB   GL3  135  34.468  20.442  24.285 -0.0354  0.0459  0.0220
    6BOLB   GL4  136  34.506  20.717  24.461 -0.0737 -0.0510  0.1812
    6BOLB   C1C  137  34.018  20.534  24.147  0.0834 -0.0439 -0.0012
    6BOLB   C2C  138  33.619  20.424  23.892  0.2038  0.1430  0.0699
    6BOLB   C3C  139  33.332  20.387  23.559  0.1706 -0.1684  0.1658
    6BOLB   C4C  140  33.136  20.743  23.497 -0.1923  0.1807 -0.0052
    6BOLB   C1D  141  34.096  20.966  24.470 -0.1902 -0.0775 -0.0101
    6BOLB   C2D  142  33.876  21.214  24.699 -0.2046 -0.3858  0.1597
    6BOLB   C3D  143  34.099  21.394  25.000  0.0856  0.0245  0.2365
    6BOLB   C4D  144  34.517  21.508  25.168  0.0226 -0.1069 -0.1734
    7BOLB   NC1  145  16.269  28.761   4.466 -0.1088 -0.0704  0.2078
    7BOLB   PO1  146  16.465  29.117   4.301 -0.0920 -0.1551  0.0471
    7BOLB   GL1  147  16.467  28.758   3.986  0.0309  0.0387  0.0669
    7BOLB   GL2  148  16.247  28.687   3.796 -0.0204 -0.0235  0.0893
    7BOLB   C1A  149  16.745  28.434   3.813  0.0718 -0.0602  0.0644
    7BOLB   C2A  150  16.844  28.087   3.842  0.0856  0.0699  0.0534
    7BOLB   C3A  151  17.228  27.976   3.690 -0.0874 -0.2148 -0.1127
    7BOLB   C4A  152  17.548  27.679   3.610  0.0846  0.0205  0.0630
    7BOLB   C1B  153  16.497  28.734   3.442  0.2588  0.0286  0.3576
    7BOLB   C2B  154  16.717  28.488   3.197  0.4591  0.0221  0.1132
    7BOLB   C3B  155  16.624  28.234   2.932 -0.1113 -0.2334  0.0633
    7BOLB   C4B  156  16.553  28.103   2.595  0.0073 -0.2286 -0.1482
    7BOLB   NC2  157  16.028  27.069   4.485 -0.1222  0.0275  0.0385
    7BOLB   PO2  158  16.316  26.658   4.429  0.0187 -0.0133  0.1693
    7BOLB   GL3  159  16.601  26.364   4.115  0.1459  0.0734  0.4114
    7BOLB   GL4  160  16.437  26.005   4.105 -0.2115  0.1153 -0.0172
    7BOLB   C1C  161  16.937  26.457   3.991 -0.0558 -0.0399 -0.1005
    7BOLB   C2C  162  17.282  26.706   3.739  0.0872 -0.2198 -0.1694
    7BOLB   C3C  163  17.385  26.929   3.506 -0.1191 -0.1663  0.0184
    7BOLB   C4C  164  17.662  27.334   3.581 -0.3681  0.0272 -0.0555
    7BOLB   C1D  165  16.509  26.048   3.663 -0.4125  0.1423  0.0012
    7BOLB   C2D  166  16.865  26.184   3.473  0.3246  0.0497 -0.0851
    7BOLB   C3D  167  17.288  26.307   3.375  0.0530  0.1166  0.0954
    7BOLB   C4D  168  17.502  26.531   2.959 -0.0937 -0.1297 -0.0083
    8BOLB   NC1  169  16.805  19.571  24.656  0.1622 -0.1485 -0.4911
    8BOLB   PO1  170  17.048  19.783  25.002  0.2815 -0.0727 -0.1101
    8BOLB   GL1  171  17.114  20.071  24.730 -0.0157 -0.0574 -0.2542
    8BOLB   GL2  172  16.832  20.160  24.635  0.0066 -0.0690 -0.1286
    8BOLB   C1A  173  17.368  20.319  24.799  0.0275 -0.2196  0.0726
    8BOLB   C2A  174  17.509  20.652  24.466  0.2118  0.0874  0.2806
    8BOLB   C3A  175  17.644  20.967  24.687  0.0450 -0.0283 -0.2920
    8BOLB   C4A  176  17.936  20.851  25.102  0.1576  0.0097  0.2299
    8BOLB   C1B  177  16.927  20.549  24.411  0.0035  0.1390  0.0509
    8BOLB   C2B  178  17.190  20.805  24.114  0.2374  0.1429  0.0104
    8BOLB   C3B  179  17.313  21.079  24.352 -0.1160 -0.0662  0.1840
    8BOLB   C4B  180  17.476  21.529  24.269  0.0097  0.0811 -0.0999
    8BOLB   NC2  181  17.590  20.196   0.499  0.4633  0.2711 -0.0278
    8BOLB   PO2  182  17.893  20.356   0.678 -0.0871  0.2576 -0.1344
    8BOLB   GL3  183  17.697  20.664   0.357  0.1400  0.1947 -0.0816
    8BOLB   GL4  184  17.481  20.509   0.117 -0.2466  0.1756  0.1710
    8BOLB   C1C  185  17.759  20.938   0.038  0.0653 -0.3197 -0.0801
    8BOLB   C2C  186  17.871  21.100  26.572  0.2520 -0.3071  0.0782
    8BOLB   C3C  187  17.889  21.098  26.014 -0.1833  0.0893  0.0290
    8BOLB   C4C  188  18.010  21.031  25.497 -0.0839  0.3391 -0.2123
    8BOLB   C1D  189  17.802  20.582  26.677  0.1879  0.2771 -0.1935
    8BOLB   C2D  190  17.656  20.746  26.302 -0.0268  0.3844  0.1952
    8BOLB   C3D  191  17.650  20.695  25.807 -0.0655  0.3211 -0.0806
    8BOLB   C4D  192  17.593  20.584  25.421 -0.1865  0.0584 -0.0502
    9BOLB   NC1  193  34.944  28.824  24.415  0.0505  0.4470  0.0561
    9BOLB   PO1  194  35.169  29.020  24.674  0.1926  0.1344  0.1659
    9BOLB   GL1  195  35.633  29.105  24.745  0.0294  0.4903  0.1034
    9BOLB   GL2  196  35.876  29.187  24.638  0.0830  0.0960 -0.1607
    9BOLB   C1A  197  35.937  28.881  25.058 -0.0922 -0.1465 -0.1588
    9BOLB   C2A  198  36.313  28.628  24.980  0.2650 -0.4064  0.2060
    9BOLB   C3A  199  36.652  28.322  24.839 -0.3828 -0.1121 -0.2163
    9BOLB   C4A  200  37.086  28.502  24.825  0.0953  0.0768 -0.0546
    9BOLB   C1B  201  36.313  29.077  24.683  0.1532 -0.0006 -0.1493
    9BOLB   C2B  202  36.728  29.135  24.833 -0.2323 -0.0134 -0.1520
    9BOLB   C3B  203  36.863  28.768  25.135 -0.0944 -0.0007  0.2469
    9BOLB   C4B  204  36.765  28.400  25.310  0.0840  0.0683  0.0056
    9BOLB   NC2  205  39.540  28.662  23.992  0.3945 -0.0417  0.2918
    9BOLB   PO2  206  39.425  28.302  24.286 -0.0521 -0.0061  0.3016
    9BOLB   GL3  207  39.189  28.606  24.425  0.1824  0.3389 -0.2164
    9BOLB   GL4  208  39.063  28.760  24.204  0.0495  0.0389 -0.2755
    9BOLB   C1C  209  38.811  28.654  24.674  0.0258 -0.2701 -0.5273
    9BOLB   C2C  210  38.452  28.698  24.688  0.2066  0.0143  0.0568
    9BOLB   C3C  211  37.957  28.626  24.707  0.1242 -0.1197  0.1892
    9BOLB   C4C  212  37.543  28.588  24.710 -0.1012 -0.1520 -0.1362
    9BOLB   C1D  213  38.682  28.807  24.011 -0.2102 -0.3350  0.1655
    9BOLB   C2D  214  38.459  28.433  24.130 -0.2477 -0.1963 -0.2115
    9BOLB   C3D  215  38.119  28.458  24.304 -0.1082  0.1158 -0.1450
    9BOLB   C4D  216  37.859  28.210  24.463  0.0898  0.3204  0.0303
   10BOLB   NC1  217  23.036  21.349   6.977  0.0441 -0.2611 -0.0596
   10BOLB   PO1  218  23.491  21.289   7.034  0.3457  0.1735 -0.1420
   10BOLB   GL1  219  23.357  21.589   6.630 -0.1116 -0.0836 -0.0744
   10BOLB   GL2  220  23.329  21.820   6.854  0.2361 -0.0408 -0.0325
   10BOLB   C1A  221  23.434  21.370   6.197  0.0307  0.0561  0.0048
   10BOLB   C2A  222  23.256  21.317   5.805  0.0615 -0.0151  0.4386
   10BOLB   C3A  223  23.425  21.137   5.334 -0.1159 -0.0037  0.0570
   10BOLB   C4A  224  23.600  21.119   4.931 -0.2876 -0.0271 -0.1915
   10BOLB   C1B  225  23.241  22.031   6.425 -0.3175 -0.1208  0.0314
   10BOLB   C2B  226  23.677  21.983   6.127  0.2311  0.0835 -0.1129
   10BOLB   C3B  227  23.704  22.083   5.681 -0.3384  0.0674  0.1390
   10BOLB   C4B  228  23.733  22.493   5.429 -0.2101 -0.1942  0.5011
   10BOLB   NC2  229  23.707  18.888   5.509 -0.1208  0.0127  0.2676
   10BOLB   PO2  230  23.887  19.161   5.233  0.1576 -0.1958  0.1081
   10BOLB   GL3  231  23.776  19.542   5.013 -0.5103  0.0444 -0.0128
   10BOLB   GL4  232  23.848  19.812   5.176 -0.0327  0.0613  0.1092
   10BOLB   C1C  233  23.967  19.803   4.672 -0.0745  0.0581 -0.0186
   10BOLB   C2C  234  23.879  20.186   4.438  0.2509 -0.0943  0.1016
   10BOLB   C3C  235  23.810  20.597   4.449  0.1386  0.0587  0.2563
   10BOLB   C4C  236  23.859  20.815   4.755 -0.0424 -0.1447  0.3187
   10BOLB   C1D  237  23.957  20.208   5.020 -0.0658  0.1549  0.2030
   10BOLB   C2D  238  24.324  20.348   4.687 -0.0893 -0.3116 -0.1468
   10BOLB   C3D  239  24.299  20.552   4.277 -0.2990  0.2491 -0.4415
   10BOLB   C4D  240  24.317  20.528   3.789  0.1950 -0.1047  0.2202
   11BOLB   NC1  241  33.782  24.467  21.322 -0.0072 -0.0734  0.0607
   11BOLB   PO1  242  34.068  24.245  21.147  0.2335 -0.2106 -0.3484
   11BOLB   GL1  243  34.386  24.032  21.173  0.0422 -0.1355  0.0286
   11BOLB   GL2  244  34.551  24.288  21.356  0.0167 -0.2956  0.0590
   11BOLB   C1A  245  34.771  23.720  21.108  0.1178  0.0332 -0.1921
   11BOLB   C2A  246  35.301  23.696  21.056  0.1783  0.0231 -0.0419
   11BOLB   C3A  247  35.645  23.921  21.086  0.1024  0.0980 -0.0874
   11BOLB   C4A  248  36.047  23.722  21.343 -0.2225  0.1278  0.2298
   11BOLB   C1B  249  34.972  24.130  21.368  0.0440  0.3076 -0.1148
   11BOLB   C2B  250  35.372  24.003  21.539  0.0001 -0.3231  0.0919
   11BOLB   C3B  251  35.420  23.616  21.865 -0.0563 -0.0743 -0.2102
   11BOLB   C4B  252  35.242  23.420  22.191  0.1149 -0.2625  0.0684
   11BOLB   NC2  253  37.233  22.222  20.283  0.0383 -0.2874  0.0180
   11BOLB   PO2  254  37.125  21.779  20.314 -0.1098  0.1378  0.1583
   11BOLB   GL3  255  36.777  22.161  20.255  0.0418 -0.2199 -0.2127
   11BOLB   GL4  256  36.537  22.243  20.113 -0.0839  0.1258 -0.1421
   11BOLB   C1C  257  36.631  22.546  20.585 -0.1237  0.1343  0.0263
   11BOLB   C2C  258  36.442  22.848  20.797 -0.2116  0.0320 -0.1617
   11BOLB   C3C  259  36.349  22.995  21.236  0.0987 -0.2695 -0.1423
   11BOLB   C4C  260  36.409  23.403  21.351  0.3926 -0.1425 -0.1478
   11BOLB   C1D  261  36.196  22.432  20.218  0.0811 -0.0290  0.1545
   11BOLB   C2D  262  35.801  22.668  20.289 -0.1724 -0.1185 -0.0514
   11BOLB   C3D  263  35.516  22.951  20.416 -0.1252  0.0768  0.4890
   11BOLB   C4D  264  35.270  23.349  20.274 -0.3342  0.0367 -0.0355
   12BOLB   NC1  265  13.197  30.019  23.184  0.2050 -0.1616 -0.1137
   12BOLB   PO1  266  13.237  29.565  23.207  0.0636  0.4121  0.1129
   12BOLB   GL1  267  13.597  29.582  23.167 -0.0658 -0.0809  0.2751
   12BOLB   GL2  268  13.892  29.793  23.313  0.1726 -0.1093 -0.0492
   12BOLB   C1A  269  13.873  29.337  23.069  0.2236  0.0711 -0.2527
   12BOLB   C2A  270  13.885  29.028  22.877 -0.2055 -0.1092 -0.3028
   12BOLB   C3A  271  14.167  28.887  22.516  0.1557 -0.3662  0.3422
   12BOLB   C4A  272  14.563  28.654  22.419  0.1427  0.1896  0.0598
   12BOLB   C1B  273  14.293  29.592  23.323 -0.0507 -0.0424 -0.1414
   12BOLB   C2B  274  14.660  29.796  23.359 -0.1521 -0.0869 -0.0496
   12BOLB   C3B  275  14.848  29.891  22.975 -0.1819 -0.2965 -0.0444
   12BOLB   C4B  276  14.893  30.234  22.719 -0.0198  0.1349 -0.4013
   12BOLB   NC2  277  13.330  29.610  22.190 -0.2273 -0.2204  0.0595
   12BOLB   PO2  278  13.566  29.728  21.891  0.1559  0.0766  0.0337
   12BOLB   GL3  279  13.921  29.647  21.622 -0.1753  0.3339 -0.3062
   12BOLB   GL4  280  13.983  29.441  21.462  0.3208  0.3873 -0.2832
   12BOLB   C1C  281  14.384  29.657  21.635  0.0523  0.1127 -0.0595
   12BOLB   C2C  282  14.677  29.268  21.529 -0.1298  0.1402 -0.1308
   12BOLB   C3C  283  14.829  28.993  21.870 -0.1390  0.2145  0.0052
   12BOLB   C4C  284  14.876  28.784  22.214  0.1580 -0.0411  0.4147
   12BOLB   C1D  285  14.212  29.206  21.712 -0.0026 -0.0210  0.0223
   12BOLB   C2D  286  14.420  29.213  22.089 -0.1590 -0.0965  0.0174
   12BOLB   C3D  287  14.417  29.495  22.398 -0.0445 -0.4050  0.0140
   12BOLB   C4D  288  14.637  29.504  22.889  0.0969  0.1929  0.3824
   13BOLB   NC1  289  15.438  21.377  24.694 -0.0401  0.3284 -0.2814
   13BOLB   PO1  290  15.736  21.226  24.390  0.1170  0.0308 -0.1349
   13BOLB   GL1  291  15.909  21.544  24.400 -0.3358 -0.1129  0.0365
   13BOLB   GL2  292  16.022  21.754  24.712  0.1217  0.1618 -0.3536
   13BOLB   C1A  293  16.160  21.846  24.208  0.1959 -0.3874  0.0157
   13BOLB   C2A  294  16.328  22.149  23.968  0.0852 -0.1356  0.1340
   13BOLB   C3A  295  16.161  22.446  23.742 -0.0909 -0.1306  0.0546
   13BOLB   C4A  296  16.061  22.674  23.369  0.2460 -0.0515  0.2634
   13BOLB   C1B  297  16.447  21.797  25.041 -0.0457 -0.2654  0.1310
   13BOLB   C2B  298  16.922  21.809  25.022 -0.1493 -0.0630 -0.0592
   13BOLB   C3B  299  17.317  21.840  25.224 -0.3957 -0.3203  0.3960
   13BOLB   C4B  300  17.571  22.188  25.367 -0.1935 -0.2125  0.1462
   13BOLB   NC2  301  14.274  22.158  22.057 -0.0732  0.1162  0.2751
   13BOLB   PO2  302  14.233  22.236  22.514  0.0493  0.1334  0.0663
   13BOLB   GL3  303  14.641  22.346  22.379 -0.3820 -0.0238 -0.4707
   13BOLB   GL4  304  14.935  22.138  22.591 -0.1174 -0.0251  0.0530
   13BOLB   C1C  305  15.129  22.543  22.416  0.0974  0.0118 -0.1111
   13BOLB   C2C  306  15.518  22.610  22.408 -0.0564  0.2399 -0.1459
   13BOLB   C3C  307  15.923  22.720  22.513 -0.2335  0.0654 -0.0238
   13BOLB   C4C  308  16.187  22.660  22.994  0.1851 -0.0945  0.0308
   13BOLB   C1D  309  15.300  22.254  22.852 -0.2526 -0.0729 -0.0957
   13BOLB   C2D  310  15.591  22.599  23.075 -0.4227  0.3948  0.0678
   13BOLB   C3D  311  15.706  22.989  22.899  0.1622  0.2152 -0.2984
   13BOLB   C4D  312  15.567  23.243  22.855  0.2345 -0.1690 -0.0043
   14BOLB   NC1  313  14.351  31.800  21.143 -0.1512  0.1196 -0.0251
   14BOLB   PO1  314  14.620  31.677  21.498  0.1966 -0.0361 -0.0415
   14BOLB   GL1  315  14.819  31.304  21.607  0.0483  0.0778  0.1688
   14BOLB   GL2  316  14.626  30.954  21.596  0.2134  0.1049 -0.1831
   14BOLB   C1A  317  15.132  31.020  21.860  0.2789  0.2108  0.0979
   14BOLB   C2A  318  15.393  30.888  21.657 -0.0635 -0.2786  0.1115
   14BOLB   C3A  319  15.583  30.559  21.482  0.2268 -0.1339  0.0626
   14BOLB   C4A  320  15.568  30.081  21.588 -0.1861 -0.0652  0.1488
   14BOLB   C1B  321  14.786  30.556  21.603  0.2041  0.0013  0.0772
   14BOLB   C2B  322  15.073  30.324  21.399  0.0071  0.1064  0.0873
   14BOLB   C3B  323  15.141  30.075  21.080  0.0409  0.2486 -0.0981
   14BOLB   C4B  324  15.540  29.863  20.916  0.1918  0.3390  0.2078
   14BOLB   NC2  325  14.384  29.984  20.529 -0.0372 -0.1920  0.0983
   14BOLB   PO2  326  14.688  30.261  20.632  0.1774 -0.1324 -0.1314
   14BOLB   GL3  327  14.776  29.874  20.784 -0.1806  0.0252  0.3005
   14BOLB   GL4  328  15.019  29.884  20.581 -0.2612  0.1603 -0.2871
   14BOLB   C1C  329  14.940  29.476  20.895 -0.0070 -0.1628 -0.1304
   14BOLB   C2C  330  15.357  29.419  20.851 -0.2996 -0.1973 -0.2050
   14BOLB   C3C  331  15.752  29.419  21.165  0.2679  0.1513 -0.1138
   14BOLB   C4C  332  15.697  29.817  21.390  0.3170 -0.0672  0.0562
   14BOLB   C1D  333  15.543  29.785  20.411 -0.1329  0.2079  0.0182
   14BOLB   C2D  334  15.959  29.872  20.316  0.2283  0.0962 -0.1193
   14BOLB   C3D  335  16.402  29.912  20.421  0.1676  0.3515  0.2770
   14BOLB   C4D  336  16.572  29.766  20.788 -0.1507  0.1499 -0.0465
   15BOLB   NC1  337  29.870  36.734  18.448 -0.2779 -0.1653  0.0431
   15BOLB   PO1  338  29.991  37.204  18.420  0.2992  0.3469 -0.0355
   15BOLB   GL1  339  29.870  37.578  18.158  0.1366  0.2171 -0.1371
   15BOLB   GL2  340  30.053  37.612  17.931  0.0568 -0.1605 -0.1231
   15BOLB   C1A  341  29.852  37.991  18.078 -0.0148  0.1176 -0.0616
   15BOLB   C2A  342  29.877  38.338  18.382 -0.0118 -0.1773  0.0793
   15BOLB   C3A  343  29.806  38.703  18.322 -0.1501 -0.0084  0.0880
   15BOLB   C4A  344  29.836  38.992  18.129  0.0821 -0.0166 -0.3623
   15BOLB   C1B  345  30.260  37.967  17.762  0.0020 -0.0595  0.1012
   15BOLB   C2B  346  30.384  38.101  17.291  0.0027 -0.0423  0.2030
   15BOLB   C3B  347  30.744  38.367  17.132 -0.0146 -0.0738  0.1155
   15BOLB   C4B  348  31.093  38.651  17.318  0.2286 -0.0111  0.0764
   15BOLB   NC2  349  30.044  41.021  16.425  0.1427 -0.0356 -0.1458
   15BOLB   PO2  350  30.398  41.123  16.659 -0.0245 -0.0937 -0.0779
   15BOLB   GL3  351  30.385  40.636  16.751  0.3121  0.2950 -0.2398
   15BOLB   GL4  352  30.590  40.424  16.604 -0.0986 -0.4347 -0.1241
   15BOLB   C1C  353  30.143  40.284  16.965  0.0356 -0.0355 -0.1617
   15BOLB   C2C  354  30.030  39.953  17.322  0.0370  0.0043 -0.0160
   15BOLB   C3C  355  29.904  39.700  17.666 -0.1348 -0.2154 -0.3010
   15BOLB   C4C  356  29.728  39.373  17.930 -0.1116  0.2358  0.0264
   15BOLB   C1D  357  30.511  40.049  16.764  0.1066  0.0537  0.0780
   15BOLB   C2D  358  30.586  39.840  17.102 -0.2204 -0.1324  0.1273
   15BOLB   C3D  359  30.667  39.363  17.097  0.1324  0.0875  0.0131
   15BOLB   C4D  360  30.838  38.941  16.935  0.0826 -0.0760  0.2402
   16BOLB   NC1  361  22.637  34.999  18.016  0.2316 -0.0182 -0.1926
   16BOLB   PO1  362  22.957  35.077  17.656  0.1044  0.0504 -0.2361
   16BOLB   GL1  363  22.594  35.287  17.504 -0.0027  0.0162 -0.0492
   16BOLB   GL2  364  22.475  35.209  17.277 -0.1975  0.0877 -0.0430
   16BOLB   C1A  365  22.216  35.642  17.266 -0.1941 -0.2414  0.2383
   16BOLB   C2A  366  21.831  35.650  17.071 -0.2568 -0.0345 -0.2580
   16BOLB   C3A  367  21.604  35.984  16.882  0.2402  0.1292 -0.2269
   16BOLB   C4A  368  21.835  36.300  16.633  0.4155 -0.3471  0.0766
   16BOLB   C1B  369  22.371  35.175  16.968 -0.3118 -0.0380  0.2090
   16BOLB   C2B  370  22.191  35.553  16.725 -0.1648  0.1171 -0.1651
   16BOLB   C3B  371  21.907  35.800  16.571  0.0981  0.0294  0.0377
   16BOLB   C4B  372  21.743  35.775  16.208  0.1849  0.0896  0.2488
   16BOLB   NC2  373  21.378  37.694  14.515 -0.2323 -0.0219 -0.4733
   16BOLB   PO2  374  21.504  37.737  15.013  0.1930  0.0754 -0.0903
   16BOLB   GL3  375  21.535  37.493  15.280  0.0276  0.0572  0.1471
   16BOLB   GL4  376  21.221  37.441  15.448  0.0266  0.1944  0.2870
   16BOLB   C1C  377  21.871  37.264  15.491 -0.0256 -0.1382 -0.3069
   16BOLB   C2C  378  21.850  37.053  15.813  0.3002  0.0114  0.0940
   16BOLB   C3C  379  21.998  36.767  16.143 -0.2326  0.0321  0.0791
   16BOLB   C4C  380  21.885  36.656  16.498 -0.0101  0.0036 -0.0627
   16BOLB   C1D  381  21.336  37.236  15.730  0.1438 -0.0060  0.0218
   16BOLB   C2D  382  21.035  36.832  15.897  0.1491 -0.1469 -0.1336
   16BOLB   C3D  383  21.183  36.425  16.039 -0.0937  0.1189  0.2588
   16BOLB   C4D  384  21.224  35.989  15.925 -0.1694  0.2014 -0.1414
   17BOLB   NC1  385  22.202  29.553  16.389 -0.2415 -0.0166  0.1584
   17BOLB   PO1  386  22.001  29.572  15.988 -0.2056 -0.2018  0.0421
   17BOLB   GL1  387  21.848  29.444  15.516 -0.2310  0.1426  0.1270
   17BOLB   GL2  388  21.912  29.088  15.316  0.1892 -0.2065  0.0633
   17BOLB   C1A  389  21.707  29.567  15.237 -0.2537  0.0829  0.0419
   17BOLB   C2A  390  21.270  29.629  14.983 -0.1209  0.0902  0.0794
   17BOLB   C3A  391  21.028  29.482  14.584 -0.2326  0.0845  0.0445
   17BOLB   C4A  392  20.587  29.557  14.636 -0.2049  0.0604  0.2854
   17BOLB   C1B  393  21.724  28.800  14.845 -0.0225 -0.0298  0.0435
   17BOLB   C2B  394  21.525  28.785  14.454  0.1962 -0.1503 -0.0552
   17BOLB   C3B  395  21.101  28.698  14.258 -0.0239 -0.2086 -0.0135
   17BOLB   C4B  396  20.729  28.768  14.074 -0.0108 -0.1097 -0.0950
   17BOLB   NC2  397  18.608  29.848  13.096 -0.1509  0.0570  0.1680
   17BOLB   PO2  398  18.581  29.386  13.275 -0.3184 -0.0574  0.0072
   17BOLB   GL3  399  18.901  29.662  13.496  0.0391 -0.2105 -0.4448
   17BOLB   GL4  400  19.108  29.829  13.216 -0.0563 -0.3651  0.0522
   17BOLB   C1C  401  19.379  29.692  13.535 -0.0191 -0.0582  0.2952
   17BOLB   C2C  402  19.669  29.791  13.758  0.2487 -0.1859 -0.1074
   17BOLB   C3C  403  19.854  29.727  14.099 -0.1672  0.1604 -0.1175
   17BOLB   C4C  404  20.264  29.743  14.373 -0.0485  0.1200 -0.0685
   17BOLB   C1D  405  19.263  30.208  13.463  0.0639 -0.1252 -0.1922
   17BOLB   C2D  406  19.579  30.315  13.671 -0.2190  0.1481 -0.0480
   17BOLB   C3D  407  19.805  30.223  13.972  0.1201 -0.0589 -0.0107
   17BOLB   C4D  408  20.251  30.250  14.170  0.0219  0.1172 -0.2496
   18BOLB   NC1  409  28.672  37.955  24.917 -0.1386 -0.1465 -0.1113
   18BOLB   PO1  410  28.592  37.741  25.318  0.2363  0.0353  0.0948
   18BOLB   GL1  411  28.665  38.012  25.525 -0.1142 -0.0308  0.3691
   18BOLB   GL2  412  28.739  38.239  25.302 -0.0662 -0.0965 -0.1860
   18BOLB   C1A  413  28.663  38.291  25.852  0.0659  0.1880 -0.0994
   18BOLB   C2A  414  28.309  38.384  26.168 -0.5424  0.0797 -0.2518
   18BOLB   C3A  415  27.868  38.461  26.300  0.0813  0.2231 -0.0748
   18BOLB   C4A  416  27.652  38.694  26.546  0.1442  0.0863  0.1034
   18BOLB   C1B  417  28.571  38.653  25.488 -0.0464 -0.0722 -0.1467
   18BOLB   C2B  418  28.408  39.081  25.595  0.1066 -0.2114  0.1314
   18BOLB   C3B  419  28.316  39.403  25.566 -0.0572 -0.2205  0.1471
   18BOLB   C4B  420  28.240  39.693  25.781  0.0482  0.1731  0.2499
   18BOLB   NC2  421  28.563  40.060   0.981  0.0670 -0.0994 -0.1190
   18BOLB   PO2  422  28.263  40.457   1.208  0.3892  0.2384 -0.2212
   18BOLB   GL3  423  28.079  40.058   1.105  0.0415 -0.0491  0.0073
   18BOLB   GL4  424  28.194  39.920   1.456  0.0151 -0.0521  0.1617
   18BOLB   C1C  425  27.935  39.712   0.856  0.1146  0.4131 -0.0440
   18BOLB   C2C  426  27.854  39.633   0.461  0.1910 -0.0236  0.0098
   18BOLB   C3C  427  27.922  39.245   0.222  0.4055  0.0390  0.1346
   18BOLB   C4C  428  27.851  38.906  26.801  0.1695  0.1196 -0.3282
   18BOLB   C1D  429  28.191  39.442   1.496 -0.3318 -0.2309 -0.2380
   18BOLB   C2D  430  28.295  39.047   1.311 -0.2975  0.0687  0.0418
   18BOLB   C3D  431  28.617  38.734   1.154  0.2165  0.1382 -0.0172
   18BOLB   C4D  432  28.927  38.472   1.073 -0.1275 -0.2735 -0.0059
   19BOLB   NC1  433  20.897  23.947   7.347  0.1145 -0.1041  0.0917
   19BOLB   PO1  434  20.545  24.081   7.084 -0.1152  0.0889 -0.1108
   19BOLB   GL1  435  20.625  24.454   6.884 -0.0536 -0.0094  0.1740
   19BOLB   GL2  436  20.724  24.297   6.598 -0.1709 -0.3013 -0.0412
   19BOLB   C1A  437  20.578  24.803   6.574 -0.0918 -0.0904 -0.0600
   19BOLB   C2A  438  20.736  25.053   6.210 -0.1993  0.5035 -0.0557
   19BOLB   C3A  439  20.744  25.208   5.805 -0.1681  0.5363  0.0398
   19BOLB   C4A  440  20.876  25.627   5.691 -0.0283 -0.3549 -0.2828
   19BOLB   C1B  441  20.948  24.552   6.311  0.1200 -0.0374  0.0110
   19BOLB   C2B  442  21.323  24.709   6.083  0.1028 -0.3265 -0.0938
   19BOLB   C3B  443  21.706  24.838   6.075 -0.1382  0.4397 -0.0692
   19BOLB   C4B  444  21.932  25.186   6.080  0.1867  0.4642  0.0460
   19BOLB   NC2  445  19.873  26.376   7.456  0.0218 -0.1265 -0.0827
   19BOLB   PO2  446  20.279  26.205   7.568 -0.0954 -0.1563 -0.3708
   19BOLB   GL3  447  20.719  26.186   7.378  0.0291  0.0472  0.1054
   19BOLB   GL4  448  20.621  26.141   6.986  0.1793  0.3810 -0.0045
   19BOLB   C1C  449  21.121  26.133   7.095 -0.0201  0.1935 -0.2467
   19BOLB   C2C  450  21.375  26.144   6.686  0.1629  0.1369 -0.2634
   19BOLB   C3C  451  21.341  25.933   6.271  0.1851 -0.0664 -0.2450
   19BOLB   C4C  452  21.145  25.857   5.932 -0.1839 -0.1175  0.1425
   19BOLB   C1D  453  20.750  26.610   7.010  0.1518  0.1547  0.0617
   19BOLB   C2D  454  21.000  26.913   7.014 -0.4078  0.1004  0.0530
   19BOLB   C3D  455  21.303  27.298   7.072  0.0608 -0.0108  0.1161
   19BOLB   C4D  456  21.412  27.664   6.744  0.2440  0.1626  0.0415
   20BOLB   NC1  457  31.277  35.728  17.021  0.1732 -0.0289  0.1829
   20BOLB   PO1  458  31.503  35.961  16.990 -0.1723 -0.1165  0.2416
   20BOLB   GL1  459  31.535  36.356  16.793  0.0851  0.1511 -0.1149
   20BOLB   GL2  460  31.220  36.469  16.640 -0.2381  0.0287  0.0426
   20BOLB   C1A  461  31.892  36.571  16.715 -0.1266 -0.1232 -0.1995
   20BOLB   C2A  462  32.229  36.823  16.783 -0.1513  0.1635 -0.1851
   20BOLB   C3A  463  32.413  37.206  16.741 -0.0980  0.0740  0.2762
   20BOLB   C4A  464  32.347  37.504  16.445 -0.1005  0.1061 -0.2398
   20BOLB   C1B  465  31.450  36.711  16.471  0.0702  0.2304  0.0417
   20BOLB   C2B  466  31.796  36.957  16.454 -0.3463  0.1084 -0.1091
   20BOLB   C3B  467  31.763  37.453  16.384 -0.2310  0.0996  0.2123
   20BOLB   C4B  468  31.764  37.784  16.230 -0.0399 -0.1055 -0.1950
   20BOLB   NC2  469  33.308  39.485  16.018 -0.0816 -0.2288 -0.2593
   20BOLB   PO2  470  32.791  39.584  16.023 -0.2191 -0.3429  0.1459
   20BOLB   GL3  471  32.935  39.145  15.875  0.1809  0.1093  0.0637
   20BOLB   GL4  472  32.733  39.119  15.554  0.1859  0.0799 -0.0309
   20BOLB   C1C  473  32.889  38.775  15.948 -0.1809  0.1065  0.1810
   20BOLB   C2C  474  32.595  38.467  15.957 -0.1141 -0.0237  0.1495
   20BOLB   C3C  475  32.271  38.179  16.019 -0.1696  0.0190  0.0009
   20BOLB   C4C  476  32.318  37.776  16.036  0.0008 -0.4566 -0.2858
   20BOLB   C1D  477  32.395  38.899  15.799 -0.2876  0.2066  0.0045
   20BOLB   C2D  478  32.132  38.699  16.027 -0.1568 -0.0406  0.2873
   20BOLB   C3D  479  31.810  38.667  16.008  0.0097  0.6119 -0.0223
   20BOLB   C4D  480  31.591  38.231  16.179  0.0933 -0.0730 -0.0599
   21BOLB   NC1  481  25.923  34.984  15.788 -0.0272 -0.0819 -0.0278
   21BOLB   PO1  482  25.597  35.058  15.671 -0.0193 -0.4486  0.2180
   21BOLB   GL1  483  25.674  35.463  15.511 -0.1815 -0.3064 -0.3541
   21BOLB   GL2  484  25.841  35.686  15.753  0.0602 -0.1048  0.0460
   21BOLB   C1A  485  25.398  35.630  15.214 -0.1443  0.3961 -0.0919
   21BOLB   C2A  486  25.466  35.968  15.020  0.1582 -0.1954  0.0294
   21BOLB   C3A  487  25.144  36.315  14.895 -0.0686 -0.1328  0.1148
   21BOLB   C4A  488  25.152  36.831  14.941  0.2140 -0.1583  0.0340
   21BOLB   C1B  489  25.732  35.984  15.475 -0.0712  0.2024 -0.1546
   21BOLB   C2B  490  25.660  36.440  15.443  0.0770 -0.3197  0.2871
   21BOLB   C3B  491  25.612  36.731  15.166 -0.3589 -0.2319  0.2903
   21BOLB   C4B  492  25.753  36.978  14.825 -0.4186 -0.1482 -0.1004
   21BOLB   NC2  493  24.894  38.156  12.882  0.0048  0.1724 -0.0247
   21BOLB   PO2  494  24.589  38.179  13.222  0.1788 -0.1416 -0.0135
   21BOLB   GL3  495  24.917  37.943  13.367 -0.1704  0.0353 -0.1953
   21BOLB   GL4  496  25.020  37.717  13.270 -0.1429 -0.0030  0.0109
   21BOLB   C1C  497  24.960  37.732  13.765 -0.2392  0.1346  0.1253
   21BOLB   C2C  498  25.061  37.470  13.998  0.2994 -0.2285  0.0270
   21BOLB   C3C  499  25.169  37.425  14.434  0.0435  0.2086 -0.0692
   21BOLB   C4C  500  25.233  37.084  14.623 -0.2141  0.0710 -0.0485
   21BOLB   C1D  501  25.195  37.324  13.321  0.0811 -0.2098  0.1640
   21BOLB   C2D  502  25.398  37.023  13.652 -0.1657 -0.0709 -0.0322
   21BOLB   C3D  503  25.662  36.725  13.776 -0.1101  0.1545 -0.0361
   21BOLB   C4D  504  25.767  36.374  14.011 -0.1118 -0.0638  0.4054
   22BOLB   NC1  505  24.674  36.761  19.516 -0.3907 -0.0802 -0.0267
   22BOLB   PO1  506  24.877  37.140  19.795 -0.0985 -0.1419 -0.1239
   22BOLB   GL1  507  24.493  37.481  19.981 -0.0055  0.0659  0.2325
   22BOLB   GL2  508  24.121  37.397  19.929  0.0319 -0.0790 -0.0344
   22BOLB   C1A  509  24.163  37.869  19.904  0.1200 -0.1387  0.3296
   22BOLB   C2A  510  23.930  38.340  19.825  0.1239  0.0370 -0.0256
   22BOLB   C3A  511  23.608  38.320  19.574  0.0142 -0.0342  0.0789
   22BOLB   C4A  512  23.411  38.534  19.319 -0.3622 -0.0357 -0.3643
   22BOLB   C1B  513  23.826  37.534  19.751  0.3608  0.1792  0.2645
   22BOLB   C2B  514  23.694  37.832  19.696  0.1215 -0.2487  0.0624
   22BOLB   C3B  515  23.258  38.057  19.685  0.2218  0.1181 -0.0056
   22BOLB   C4B  516  22.972  38.315  19.955  0.0428  0.4377 -0.2814
   22BOLB   NC2  517  22.721  41.104  18.969  0.3285 -0.0347 -0.0573
   22BOLB   PO2  518  22.455  40.865  19.183  0.0442 -0.0085  0.1299
   22BOLB   GL3  519  22.657  40.539  19.202  0.2027  0.1496 -0.2822
   22BOLB   GL4  520  22.913  40.624  19.149  0.0125  0.1108 -0.1819
   22BOLB   C1C  521  22.825  40.118  19.124 -0.0760 -0.2966 -0.1608
   22BOLB   C2C  522  22.995  39.787  19.368  0.2759 -0.1865 -0.0069
   22BOLB   C3C  523  23.251  39.455  19.289  0.1315  0.3045  0.1420
   22BOLB   C4C  524  23.164  38.950  19.266  0.0534 -0.5449 -0.0843
   22BOLB   C1D  525  23.117  40.244  19.490  0.1246  0.0187 -0.1780
   22BOLB   C2D  526  23.348  40.116  19.827 -0.2103  0.0084  0.3560
   22BOLB   C3D  527  23.383  39.850  20.142 -0.1640  0.3085 -0.1313
   22BOLB   C4D  528  23.296  39.402  20.159  0.1338 -0.1571  0.3659
   23BOLB   NC1  529  34.632  33.767  22.411  0.2959 -0.2915 -0.2242
   23BOLB   PO1  530  35.029  33.616  22.615  0.1180  0.3893  0.3403
   23BOLB   GL1  531  35.409  33.765  22.644  0.2659 -0.2415  0.2914
   23BOLB   GL2  532  35.494  33.785  22.285 -0.0615  0.2091 -0.4042
   23BOLB   C1A  533  35.744  34.083  22.708  0.1887 -0.2272 -0.1587
   23BOLB   C2A  534  36.149  34.311  22.750  0.3059 -0.3167  0.2247
   23BOLB   C3A  535  36.627  34.559  22.859 -0.1199  0.5217  0.0493
   23BOLB   C4A  536  36.848  34.792  22.729  0.1680  0.1054 -0.5071
   23BOLB   C1B  537  35.839  33.688  22.331  0.2287  0.3435 -0.3344
   23BOLB   C2B  538  36.252  33.891  22.444  0.4959 -0.2031  0.3174
   23BOLB   C3B  539  36.583  33.924  22.640 -0.4138 -0.1812 -0.0269
   23BOLB   C4B  540  36.865  33.929  22.811  0.0289  0.1228 -0.2343
   23BOLB   NC2  541  38.338  36.500  22.482  0.1175  0.2192  0.1044
   23BOLB   PO2  542  38.269  36.613  22.047 -0.1424  0.0250 -0.3132
   23BOLB   GL3  543  38.023  36.219  22.163  0.2127 -0.2195 -0.1384
   23BOLB   GL4  544  37.771  36.302  22.032 -0.2466  0.0633  0.0874
   23BOLB   C1C  545  37.970  35.736  22.241  0.2362  0.3394 -0.0694
   23BOLB   C2C  546  37.962  35.369  22.516  0.1103 -0.0722 -0.0870
   23BOLB   C3C  547  37.680  35.132  22.667 -0.1615 -0.1382 -0.0669
   23BOLB   C4C  548  37.320  34.880  22.742 -0.1252 -0.3057  0.2210
   23BOLB   C1D  549  37.352  36.249  21.880 -0.0074 -0.1276 -0.0630
   23BOLB   C2D  550  37.098  35.975  21.958  0.0439  0.0707 -0.2086
   23BOLB   C3D  551  37.262  35.544  21.829 -0.2755 -0.1043  0.0577
   23BOLB   C4D  552  37.668  35.427  21.822 -0.0427  0.1914 -0.2589
   24BOLB   NC1  553  24.997  25.287  15.625 -0.1652  0.0879 -0.0465
   24BOLB   PO1  554  25.313  24.935  15.427  0.2360  0.1066 -0.1923
   24BOLB   GL1  555  25.461  24.729  15.251  0.0604 -0.1177 -0.1630
   24BOLB   GL2  556  25.432  24.823  14.920 -0.0578  0.0585  0.2639
   24BOLB   C1A  557  25.395  24.233  15.239  0.1140  0.0446 -0.3640
   24BOLB   C2A  558  25.354  23.844  14.997  0.1801 -0.1591 -0.1460
   24BOLB   C3A  559  25.311  23.508  14.679 -0.1890  0.3068 -0.4681
   24BOLB   C4A  560  25.366  23.009  14.533  0.0150 -0.1225 -0.2113
   24BOLB   C1B  561  25.334  24.511  14.698 -0.2468  0.1829  0.1500
   24BOLB   C2B  562  25.250  23.949  14.530 -0.2178 -0.2940 -0.2300
   24BOLB   C3B  563  25.052  23.575  14.289 -0.2546 -0.0842 -0.2330
   24BOLB   C4B  564  25.135  23.238  13.915  0.1568 -0.2415 -0.2588
   24BOLB   NC2  565  23.934  22.572  12.604  0.0770  0.1450  0.3166
   24BOLB   PO2  566  23.730  22.275  12.929 -0.3602 -0.2853  0.1816
   24BOLB   GL3  567  23.912  22.328  13.295  0.1269  0.0384 -0.1671
   24BOLB   GL4  568  23.711  22.362  13.492  0.2739 -0.0369 -0.1021
   24BOLB   C1C  569  24.113  22.686  13.491 -0.0679 -0.3628  0.2336
   24BOLB   C2C  570  24.293  22.979  13.751  0.1575 -0.0424  0.1920
   24BOLB   C3C  571  24.609  23.010  14.090 -0.4257  0.3464 -0.0809
   24BOLB   C4C  572  24.926  22.972  14.388  0.0464  0.0055 -0.0266
   24BOLB   C1D  573  23.843  22.473  13.942  0.0954  0.0380 -0.0274
   24BOLB   C2D  574  23.682  22.575  14.302  0.0493  0.1059 -0.3148
   24BOLB   C3D  575  23.378  22.808  14.386 -0.0639  0.3065 -0.0187
   24BOLB   C4D  576  23.324  23.147  14.284 -0.2328 -0.1940 -0.0600
   25BOLB   NC1  577  35.302  26.893  21.759  0.2994 -0.1447 -0.3194
   25BOLB   PO1  578  35.104  26.495  21.597  0.1508  0.2897 -0.1465
   25BOLB   GL1  579  35.501  26.273  21.553  0.0436 -0.1815 -0.1120
   25BOLB   GL2  580  35.755  26.605  21.574  0.0819  0.2933  0.1236
   25BOLB   C1A  581  35.985  26.181  21.572  0.1168 -0.2776  0.1959
   25BOLB   C2A  582  36.409  26.392  21.580  0.0896  0.1589  0.1046
   25BOLB   C3A  583  36.846  26.452  21.436 -0.0013 -0.4126 -0.1182
   25BOLB   C4A  584  37.218  26.648  21.184 -0.2161  0.3246  0.1866
   25BOLB   C1B  585  36.078  26.813  21.714 -0.0524  0.0012 -0.2361
   25BOLB   C2B  586  36.515  26.885  21.778 -0.2056  0.0861  0.0441
   25BOLB   C3B  587  36.765  26.582  21.977  0.2323  0.2577 -0.4044
   25BOLB   C4B  588  37.103  26.585  22.206  0.0793  0.0355  0.0479
   25BOLB   NC2  589  39.830  27.322  21.535  0.2280 -0.0166 -0.0509
   25BOLB   PO2  590  39.559  27.399  21.218 -0.3006 -0.0438  0.2986
   25BOLB   GL3  591  39.333  27.327  21.420  0.0657  0.0118 -0.0509
   25BOLB   GL4  592  39.430  27.045  21.647 -0.1431  0.0213  0.0235
   25BOLB   C1C  593  38.894  27.355  21.310  0.0069 -0.3316 -0.0208
   25BOLB   C2C  594  38.513  27.165  21.583 -0.4689  0.3245 -0.1964
   25BOLB   C3C  595  37.968  27.076  21.449  0.1311  0.1073  0.0724
   25BOLB   C4C  596  37.671  26.689  21.288  0.2007 -0.0826  0.0867
   25BOLB   C1D  597  38.982  26.821  21.481  0.0998 -0.1611 -0.4334
   25BOLB   C2D  598  38.648  26.557  21.336  0.3153 -0.2796  0.3990
   25BOLB   C3D  599  38.378  26.687  21.024 -0.1161 -0.1360 -0.0286
   25BOLB   C4D  600  37.985  26.703  20.795 -0.1421 -0.1650 -0.0358
   26BOLB   NC1  601  17.468  17.947  20.107  0.3051 -0.1945 -0.1142
   26BOLB   PO1  602  17.593  17.522  20.002 -0.0296  0.0919 -0.3269
   26BOLB   GL1  603  18.076  17.812  20.096  0.3962 -0.1464 -0.0225
   26BOLB   GL2  604  17.910  17.892  20.419  0.0121 -0.0061 -0.1995
   26BOLB   C1A  605  18.186  18.274  20.001  0.1659 -0.0827  0.1924
   26BOLB   C2A  606  18.221  18.758  19.870  0.0135  0.1140  0.3761
   26BOLB   C3A  607  18.061  19.127  19.927  0.1020  0.1516 -0.0771
   26BOLB   C4A  608  18.172  19.417  20.260  0.4357 -0.1825 -0.1620
   26BOLB   C1B  609  18.113  18.373  20.607  0.1629  0.0543  0.3980
   26BOLB   C2B  610  18.558  18.531  20.672  0.0847  0.0610 -0.4194
   26BOLB   C3B  611  18.975  18.630  20.894 -0.2386 -0.2107 -0.3600
   26BOLB   C4B  612  19.172  19.061  20.791  0.3026  0.1068  0.2860
   26BOLB   NC2  613  17.247  18.213  21.465 -0.0095  0.2554 -0.0245
   26BOLB   PO2  614  17.570  17.828  21.603  0.0711  0.1288 -0.2537
   26BOLB   GL3  615  17.730  18.136  21.346 -0.2952  0.0710  0.2858
   26BOLB   GL4  616  18.064  18.211  21.455  0.1096  0.0644 -0.0875
   26BOLB   C1C  617  17.807  18.476  21.142  0.1945 -0.2788 -0.1446
   26BOLB   C2C  618  18.016  18.859  20.946 -0.0347  0.1753  0.1178
   26BOLB   C3C  619  18.295  19.067  20.878 -0.0274  0.0314 -0.1166
   26BOLB   C4C  620  18.429  19.400  20.601  0.1092 -0.0819  0.4163
   26BOLB   C1D  621  17.994  18.667  21.519 -0.2439  0.0078  0.0235
   26BOLB   C2D  622  17.960  19.079  21.512  0.1623  0.0308  0.2593
   26BOLB   C3D  623  18.129  19.478  21.373 -0.1547 -0.0626  0.3866
   26BOLB   C4D  624  18.339  19.565  21.036  0.1950 -0.0046  0.2392
   27BOLB   NC1  625  17.171  22.808   4.216  0.0321  0.0212  0.2467
   27BOLB   PO1  626  17.481  22.900   4.064 -0.0280 -0.1956 -0.2659
   27BOLB   GL1  627  17.731  23.224   4.169  0.1625 -0.0726 -0.1082
   27BOLB   GL2  628  17.990  23.141   3.951 -0.2095  0.1679 -0.1854
   27BOLB   C1A  629  18.019  23.601   3.949  0.2631  0.0982 -0.0553
   27BOLB   C2A  630  18.428  23.795   3.748  0.0345  0.1981 -0.1060
   27BOLB   C3A  631  18.811  23.853   3.545  0.1009  0.0410  0.0834
   27BOLB   C4A  632  18.871  23.721   3.204  0.1967 -0.1128 -0.0727
   27BOLB   C1B  633  18.411  23.305   3.758  0.1902  0.3412 -0.0051
   27BOLB   C2B  634  18.785  23.369   3.731 -0.3524 -0.0321  0.1327
   27BOLB   C3B  635  19.196  23.502   3.560  0.0454 -0.2554 -0.0063
   27BOLB   C4B  636  19.364  23.844   3.547 -0.1585  0.1876  0.0351
   27BOLB   NC2  637  17.349  22.044   2.214 -0.2713  0.1090  0.2207
   27BOLB   PO2  638  17.346  22.498   2.214 -0.2373 -0.1400  0.1669
   27BOLB   GL3  639  17.859  22.523   2.155  0.2031 -0.0185  0.2026
   27BOLB   GL4  640  17.983  22.209   2.141  0.2257  0.0937 -0.0515
   27BOLB   C1C  641  18.201  22.788   2.069 -0.1181  0.2973  0.0419
   27BOLB   C2C  642  18.301  23.086   2.329  0.2654 -0.1225  0.2979
   27BOLB   C3C  643  18.417  23.376   2.698 -0.0595 -0.1738 -0.0211
   27BOLB   C4C  644  18.674  23.563   2.828  0.3241  0.0507 -0.1792
   27BOLB   C1D  645  18.399  22.361   2.368 -0.1764  0.1739  0.2912
   27BOLB   C2D  646  18.594  22.669   2.511 -0.0360  0.4168 -0.1709
   27BOLB   C3D  647  18.536  22.906   2.882  0.0552 -0.0587  0.0265
   27BOLB   C4D  648  18.362  23.104   3.201  0.0847 -0.3345 -0.0312
   28BOLB   NC1  649  19.914  33.155  24.046  0.4554  0.2550 -0.2131
   28BOLB   PO1  650  20.089  33.235  23.602 -0.2162 -0.2332  0.1055
   28BOLB   GL1  651  19.793  33.577  23.670  0.1027  0.1681  0.2727
   28BOLB   GL2  652  19.902  33.690  23.928  0.2360 -0.1144  0.0989
   28BOLB   C1A  653  19.346  33.788  23.768 -0.2134 -0.0720  0.1902
   28BOLB   C2A  654  18.895  33.753  23.621  0.0578  0.1664 -0.2717
   28BOLB   C3A  655  18.492  33.720  23.727  0.1026  0.0103 -0.1213
   28BOLB   C4A  656  18.313  34.065  23.869 -0.0110 -0.2858  0.0843
   28BOLB   C1B  657  19.899  34.018  24.176 -0.2077  0.0892  0.1517
   28BOLB   C2B  658  19.585  34.167  24.352 -0.3351  0.2794 -0.1523
   28BOLB   C3B  659  19.293  34.419  24.348 -0.3972 -0.2070  0.2825
   28BOLB   C4B  660  19.087  34.618  24.781  0.4430  0.2298  0.5259
   28BOLB   NC2  661  17.166  35.628  25.208  0.1708  0.1516  0.5760
   28BOLB   PO2  662  17.544  35.818  25.259  0.0230 -0.0322 -0.0220
   28BOLB   GL3  663  17.630  35.575  24.927 -0.2393 -0.0202  0.2132
   28BOLB   GL4  664  17.604  35.333  25.096 -0.2075  0.1038  0.1666
   28BOLB   C1C  665  17.931  35.305  24.710  0.0267 -0.0783  0.2437
   28BOLB   C2C  666  18.115  35.148  24.437  0.0989  0.1387 -0.1780
   28BOLB   C3C  667  18.321  34.705  24.368 -0.0445 -0.0221  0.0156
   28BOLB   C4C  668  18.403  34.341  24.121  0.1173 -0.0892  0.0418
   28BOLB   C1D  669  17.997  35.144  25.271  0.1557 -0.0510  0.1006
   28BOLB   C2D  670  18.447  35.067  25.378 -0.4036  0.0411 -0.2574
   28BOLB   C3D  671  18.791  35.139  25.511  0.2944 -0.1026  0.2424
   28BOLB   C4D  672  19.243  35.111  25.677 -0.2140  0.2555  0.0837
   29BOLB   NC1  673  32.991  32.856   1.261  0.3401 -0.0186 -0.1014
   29BOLB   PO1  674  33.040  32.560   1.000  0.0153 -0.1972 -0.1976
   29BOLB   GL1  675  33.345  32.513   1.295  0.3478 -0.2989  0.1518
   29BOLB   GL2  676  33.574  32.639   1.178 -0.0996 -0.1126 -0.2299
   29BOLB   C1A  677  33.502  32.428   1.688  0.2785  0.5733 -0.3089
   29BOLB   C2A  678  33.647  32.393   2.087 -0.0235 -0.1230 -0.0377
   29BOLB   C3A  679  33.914  32.376   2.396 -0.2206 -0.1041 -0.0111
   29BOLB   C4A  680  34.327  32.580   2.559 -0.0248 -0.4925 -0.0156
   29BOLB   C1B  681  33.646  33.087   1.164 -0.0819  0.1069 -0.3092
   29BOLB   C2B  682  33.855  33.515   1.058  0.0868 -0.1729 -0.0579
   29BOLB   C3B  683  34.134  33.900   1.177  0.5411  0.1137  0.2566
   29BOLB   C4B  684  34.333  34.230   0.902  0.0398 -0.1860 -0.3135
   29BOLB   NC2  685  35.487  34.578   3.009  0.3865 -0.2866  0.0575
   29BOLB   PO2  686  35.773  34.310   3.088 -0.1763  0.0842 -0.2904
   29BOLB   GL3  687  35.474  34.077   2.956 -0.0429  0.2904  0.0006
   29BOLB   GL4  688  35.322  34.267   2.640  0.1216 -0.3085 -0.1151
   29BOLB   C1C  689  35.119  33.867   3.144  0.2027  0.2694  0.0950
   29BOLB   C2C  690  35.010  33.397   3.163 -0.3176  0.0825  0.0761
   29BOLB   C3C  691  34.729  33.124   2.954  0.1467 -0.1741  0.0730
   29BOLB   C4C  692  34.415  32.951   2.710 -0.0072  0.1147  0.2538
   29BOLB   C1D  693  34.942  34.164   2.353 -0.2655  0.1685  0.0969
   29BOLB   C2D  694  34.511  33.924   2.256 -0.1612  0.3439 -0.0881
   29BOLB   C3D  695  34.266  33.863   2.072 -0.1326  0.0436  0.0569
   29BOLB   C4D  696  34.148  33.823   1.632  0.3650 -0.2684 -0.0021
   30BOLB   NC1  697  16.696  27.854  16.135 -0.0112  0.1037 -0.3097
   30BOLB   PO1  698  16.444  28.078  16.440  0.1426 -0.2344 -0.0187
   30BOLB   GL1  699  16.658  27.849  16.753  0.0112 -0.0587 -0.1118
   30BOLB   GL2  700  17.095  27.945  16.800  0.0598 -0.2082 -0.0209
   30BOLB   C1A  701  16.669  27.848  17.202  0.1331  0.1174  0.1716
   30BOLB   C2A  702  16.873  27.495  17.532 -0.2412 -0.3040  0.4908
   30BOLB   C3A  703  17.053  27.111  17.582  0.0089  0.1486  0.0342
   30BOLB   C4A  704  16.945  26.668  17.631 -0.3287  0.1121 -0.0890
   30BOLB   C1B  705  17.223  28.086  17.170 -0.1164 -0.2103 -0.0130
   30BOLB   C2B  706  17.493  28.180  17.524  0.1045 -0.1995 -0.3278
   30BOLB   C3B  707  17.599  27.958  17.894 -0.1250  0.1453  0.0470
   30BOLB   C4B  708  17.483  27.533  18.153 -0.1485 -0.2740 -0.4572
   30BOLB   NC2  709  14.737  25.643  17.982  0.1397 -0.0375  0.1966
   30BOLB   PO2  710  15.029  25.523  17.615  0.0396  0.1602  0.2306
   30BOLB   GL3  711  15.346  25.763  17.787  0.1669  0.3231 -0.1457
   30BOLB   GL4  712  15.362  25.805  18.170 -0.1892  0.0158  0.2591
   30BOLB   C1C  713  15.620  26.027  17.527 -0.1725 -0.0132 -0.1034
   30BOLB   C2C  714  15.930  26.199  17.250  0.0917 -0.0002 -0.0346
   30BOLB   C3C  715  16.295  26.335  17.439 -0.1181  0.0052 -0.1316
   30BOLB   C4C  716  16.646  26.404  17.482  0.0679 -0.2860 -0.0501
   30BOLB   C1D  717  15.715  25.584  18.160 -0.0874  0.2116 -0.0648
   30BOLB   C2D  718  16.113  25.544  18.289  0.1424 -0.2727  0.0232
   30BOLB   C3D  719  16.472  25.410  18.478  0.1737 -0.3337 -0.0976
   30BOLB   C4D  720  16.517  25.402  18.906  0.1136  0.5073  0.0887
   31BOLB   NC1  721  24.367  35.420  16.429  0.2864  0.0132  0.1211
   31BOLB   PO1  722  24.048  35.123  16.262 -0.0149  0.3909  0.1508
   31BOLB   GL1  723  23.784  35.284  15.866  0.1554  0.0445 -0.1517
   31BOLB   GL2  724  23.460  35.341  16.031 -0.0071  0.2801 -0.1559
   31BOLB   C1A  725  23.528  35.343  15.503  0.2234  0.1668  0.1248
   31BOLB   C2A  726  23.228  35.633  15.316 -0.3234  0.2141 -0.0380
   31BOLB   C3A  727  22.761  35.588  15.175  0.0738 -0.2266 -0.0086
   31BOLB   C4A  728  22.332  35.679  15.187 -0.1330  0.3824 -0.2260
   31BOLB   C1B  729  23.149  35.599  15.797  0.1484 -0.0182 -0.1072
   31BOLB   C2B  730  22.899  35.926  15.592  0.3929  0.0081  0.1691
   31BOLB   C3B  731  22.675  36.072  15.197 -0.1435 -0.1068 -0.3020
   31BOLB   C4B  732  22.452  36.046  14.815  0.4451 -0.0629 -0.0889
   31BOLB   NC2  733  20.695  37.176  14.673 -0.0366 -0.2249 -0.1617
   31BOLB   PO2  734  20.730  37.191  15.185 -0.4547 -0.1351 -0.3270
   31BOLB   GL3  735  21.037  36.944  15.353 -0.1221 -0.0665  0.1191
   31BOLB   GL4  736  21.261  36.981  15.132  0.2571  0.4354 -0.1068
   31BOLB   C1C  737  21.203  36.569  15.530 -0.1730 -0.1347  0.1058
   31BOLB   C2C  738  21.432  36.237  15.472  0.3133  0.0468 -0.4078
   31BOLB   C3C  739  21.761  36.144  15.248  0.0212 -0.1710 -0.3155
   31BOLB   C4C  740  22.055  35.878  15.110 -0.0411 -0.1848 -0.4110
   31BOLB   C1D  741  21.608  36.864  15.432 -0.1703  0.3609  0.2067
   31BOLB   C2D  742  21.752  36.580  15.651 -0.2367  0.2175 -0.3218
   31BOLB   C3D  743  21.660  36.337  16.045  0.0515  0.1389 -0.1651
   31BOLB   C4D  744  21.417  36.106  16.429 -0.3026 -0.1016 -0.3327
   32BOLB   NC1  745  16.245  31.825   1.594 -0.1834  0.0432 -0.2836
   32BOLB   PO1  746  16.591  31.951   1.374 -0.2748 -0.0278 -0.0169
   32BOLB   GL1  747  16.727  31.666   1.110  0.0377 -0.1278 -0.0676
   32BOLB   GL2  748  16.791  31.692   0.847 -0.0499 -0.1897  0.2271
   32BOLB   C1A  749  16.991  31.294   0.962 -0.0520 -0.3328  0.3511
   32BOLB   C2A  750  17.365  31.006   0.781  0.0736 -0.2605  0.2360
   32BOLB   C3A  751  17.564  30.705   0.963 -0.2616  0.0681 -0.3430
   32BOLB   C4A  752  17.766  30.487   1.349  0.1424 -0.2576  0.0851
   32BOLB   C1B  753  16.907  31.580   0.484 -0.2368 -0.0345 -0.1389
   32BOLB   C2B  754  17.034  31.178   0.365 -0.2118  0.0833  0.0485
   32BOLB   C3B  755  16.989  30.812   0.517 -0.2702  0.1961  0.1699
   32BOLB   C4B  756  16.974  30.430   0.508  0.3127  0.2422 -0.0211
   32BOLB   NC2  757  16.485  31.411   2.676 -0.1410 -0.0483 -0.0280
   32BOLB   PO2  758  16.201  31.098   2.794  0.1817  0.1237 -0.3244
   32BOLB   GL3  759  16.427  30.799   2.576 -0.0558 -0.1360  0.0550
   32BOLB   GL4  760  16.271  30.723   2.254 -0.0830  0.0467 -0.1649
   32BOLB   C1C  761  16.826  30.797   2.629 -0.3007 -0.2043  0.1071
   32BOLB   C2C  762  17.125  30.476   2.400 -0.2620  0.1035 -0.0984
   32BOLB   C3C  763  17.523  30.611   2.150 -0.1067  0.0272 -0.1715
   32BOLB   C4C  764  17.811  30.501   1.854  0.0525  0.3139  0.4566
   32BOLB   C1D  765  16.755  30.822   2.089  0.2506 -0.1513  0.4078
   32BOLB   C2D  766  17.147  30.963   2.190  0.0243 -0.0914  0.2088
   32BOLB   C3D  767  17.286  31.059   2.557 -0.3657  0.0341  0.1363
   32BOLB   C4D  768  17.383  31.315   2.780 -0.1974 -0.1559  0.2780
   33BOLB   NC1  769  14.533  31.029  25.796 -0.0035  0.0873 -0.2372
   33BOLB   PO1  770  14.660  30.805  25.434  0.1884  0.0137  0.1356
   33BOLB   GL1  771  15.075  30.858  25.651  0.0404  0.1990 -0.1973
   33BOLB   GL2  772  15.238  31.181  25.681  0.0788 -0.1520 -0.3339
   33BOLB   C1A  773  15.398  30.627  25.649  0.2010 -0.2219  0.0469
   33BOLB   C2A  774  15.518  30.158  25.697 -0.1201  0.0426  0.2752
   33BOLB   C3A  775  15.424  29.585  25.730 -0.3028 -0.2180 -0.1013
   33BOLB   C4A  776  15.310  29.367  26.042  0.0507  0.3375  0.0267
   33BOLB   C1B  777  15.734  30.947  25.767 -0.3641 -0.1094 -0.1812
   33BOLB   C2B  778  16.177  30.737  25.969 -0.1912 -0.1572  0.3214
   33BOLB   C3B  779  16.497  30.871  26.184 -0.1050  0.3372 -0.0175
   33BOLB   C4B  780  16.767  31.145  26.477  0.2124  0.0745  0.1602
   33BOLB   NC2  781  14.328  30.582  26.485 -0.1038  0.0199  0.0172
   33BOLB   PO2  782  14.403  30.865  26.226 -0.1693  0.1075  0.1504
   33BOLB   GL3  783  14.713  30.503  26.024  0.0639  0.0084 -0.1364
   33BOLB   GL4  784  14.547  30.232  26.232 -0.4187 -0.1300 -0.1557
   33BOLB   C1C  785  14.960  30.310  25.716  0.0096  0.0052  0.0420
   33BOLB   C2C  786  14.837  30.059  25.494  0.2029 -0.2580 -0.3798
   33BOLB   C3C  787  14.906  29.727  25.626 -0.1020 -0.0374  0.4414
   33BOLB   C4C  788  14.897  29.488  26.051 -0.2961 -0.0894 -0.2005
   33BOLB   C1D  789  14.895  30.040  26.129  0.0494  0.1761 -0.1059
   33BOLB   C2D  790  15.438  30.099  26.182  0.2268 -0.0308 -0.2384
   33BOLB   C3D  791  15.862  29.964  26.137  0.2381 -0.0610  0.0731
   33BOLB   C4D  792  16.245  29.896  26.062 -0.2926 -0.0909 -0.1857
   34BOLB   NC1  793  24.835  20.833   7.537  0.1371 -0.0627 -0.2490
   34BOLB   PO1  794  25.189  21.090   7.349  0.0345  0.1230  0.0394
   34BOLB   GL1  795  25.163  21.337   6.987  0.0173  0.1792  0.1886
   34BOLB   GL2  796  24.803  21.437   7.003 -0.0561 -0.2410  0.1120
   34BOLB   C1A  797  25.369  21.675   6.729  0.0600 -0.0262  0.1555
   34BOLB   C2A  798  25.323  22.226   6.664 -0.1528  0.0180  0.1107
   34BOLB   C3A  799  25.143  22.346   6.316 -0.1791 -0.0151 -0.2873
   34BOLB   C4A  800  25.041  22.134   5.984  0.2501 -0.3464  0.0451
   34BOLB   C1B  801  24.739  21.679   6.598 -0.2607 -0.2465  0.2602
   34BOLB   C2B  802  24.545  21.623   6.163 -0.0047 -0.2142 -0.1815
   34BOLB   C3B  803  24.176  21.762   5.923 -0.0554 -0.3688  0.0822
   34BOLB   C4B  804  24.062  21.725   5.495  0.0335  0.2557 -0.0967
   34BOLB   NC2  805  24.339  20.425   6.767 -0.1018 -0.1738  0.1230
   34BOLB   PO2  806  24.474  20.841   6.672 -0.1189  0.1508  0.1689
   34BOLB   GL3  807  24.906  20.801   6.462  0.1648 -0.2418  0.3126
   34BOLB   GL4  808  24.990  21.174   6.538 -0.2279 -0.3117 -0.3278
   34BOLB   C1C  809  25.054  20.780   6.023 -0.0731 -0.0981 -0.3418
   34BOLB   C2C  810  25.116  20.948   5.647  0.0016 -0.2495  0.1005
   34BOLB   C3C  811  25.391  21.312   5.616  0.0915  0.2252 -0.3832
   34BOLB   C4C  812  25.116  21.666   5.787 -0.1543  0.2311 -0.1236
   34BOLB   C1D  813  24.818  21.267   6.134  0.0332 -0.1687  0.0936
   34BOLB   C2D  814  24.770  21.342   5.792  0.0762  0.0682  0.2509
   34BOLB   C3D  815  24.935  21.352   5.372  0.1281  0.3776 -0.0530
   34BOLB   C4D  816  25.167  21.279   5.112  0.0729 -0.0335 -0.1020
   35BOLB   NC1  817  39.493  28.533  18.460 -0.1136 -0.2118 -0.2122
   35BOLB   PO1  818  39.689  28.321  18.909 -0.1575  0.0268 -0.2464
   35BOLB   GL1  819  39.262  28.564  18.973 -0.0337 -0.0276 -0.1370
   35BOLB   GL2  820  39.076  28.623  18.662 -0.2194  0.0648 -0.5033
   35BOLB   C1A  821  39.046  28.617  19.231  0.0471 -0.0023  0.0819
   35BOLB   C2A  822  38.918  28.846  19.562 -0.1916  0.4624  0.0151
   35BOLB   C3A  823  38.469  29.077  19.669 -0.1284 -0.0965 -0.0967
   35BOLB   C4A  824  38.063  29.014  19.880  0.3056 -0.0738 -0.0955
   35BOLB   C1B  825  38.732  28.634  18.670  0.2294 -0.2156  0.0424
   35BOLB   C2B  826  38.321  28.451  18.726  0.0279 -0.1797  0.3988
   35BOLB   C3B  827  37.991  28.432  18.989 -0.2993  0.1247 -0.1998
   35BOLB   C4B  828  37.658  28.608  19.337  0.0626  0.2417  0.0052
   35BOLB   NC2  829  35.690  28.685  21.366  0.0932  0.2194  0.0564
   35BOLB   PO2  830  35.896  28.946  21.164 -0.2789 -0.1854  0.4342
   35BOLB   GL3  831  36.306  29.076  21.165 -0.1537  0.3819  0.2528
   35BOLB   GL4  832  36.488  29.157  21.376 -0.0767  0.1609  0.4634
   35BOLB   C1C  833  36.698  29.094  20.844  0.3030 -0.2043  0.2430
   35BOLB   C2C  834  37.089  29.169  20.656 -0.4319 -0.0411 -0.1720
   35BOLB   C3C  835  37.380  28.990  20.521 -0.2628  0.1634 -0.0077
   35BOLB   C4C  836  37.850  29.100  20.274  0.3118 -0.3073  0.1366
   35BOLB   C1D  837  36.943  29.276  21.235 -0.2218 -0.0331  0.0992
   35BOLB   C2D  838  37.346  29.346  21.030 -0.0403  0.0677  0.3491
   35BOLB   C3D  839  37.625  29.492  21.151  0.1773  0.1101  0.2147
   35BOLB   C4D  840  38.041  29.517  21.066 -0.1264  0.0349  0.1977
   36BOLB   NC1  841  19.897  30.136  18.393 -0.0351  0.3064 -0.2566
   36BOLB   PO1  842  19.783  29.655  18.372 -0.1807 -0.0241 -0.2449
   36BOLB   GL1  843  19.513  29.507  18.116 -0.0398  0.1746 -0.2967
   36BOLB   GL2  844  19.523  29.523  17.793 -0.5200  0.1461  0.0817
   36BOLB   C1A  845  19.150  29.236  17.966  0.0912 -0.2906 -0.0545
   36BOLB   C2A  846  19.108  28.827  17.818 -0.1063 -0.1031  0.0183
   36BOLB   C3A  847  18.811  28.619  17.684 -0.0709 -0.0463 -0.2300
   36BOLB   C4A  848  18.490  28.428  17.437  0.0517 -0.2272  0.0295
   36BOLB   C1B  849  19.328  29.231  17.484  0.2988 -0.1991  0.0520
   36BOLB   C2B  850  19.179  29.157  17.084 -0.0268 -0.0583  0.0789
   36BOLB   C3B  851  18.999  28.954  16.710 -0.1549  0.0518  0.1968
   36BOLB   C4B  852  19.136  28.878  16.254  0.1850 -0.1255  0.1901
   36BOLB   NC2  853  17.185  28.022  15.451 -0.1441  0.0859  0.2720
   36BOLB   PO2  854  17.355  28.371  15.201 -0.0545 -0.2398  0.3196
   36BOLB   GL3  855  17.697  28.367  15.512 -0.3601  0.2364  0.2574
   36BOLB   GL4  856  17.356  28.372  15.792 -0.3673  0.0987  0.0289
   36BOLB   C1C  857  18.144  28.425  15.780  0.0081 -0.0852 -0.0242
   36BOLB   C2C  858  18.280  28.298  16.233 -0.2608 -0.0657 -0.3231
   36BOLB   C3C  859  18.373  28.500  16.685  0.1375 -0.0574  0.3577
   36BOLB   C4C  860  18.281  28.325  17.073 -0.0523 -0.0006 -0.2497
   36BOLB   C1D  861  17.786  28.627  16.057 -0.1239  0.2264  0.0186
   36BOLB   C2D  862  18.254  28.837  16.168  0.1122  0.3511  0.0142
   36BOLB   C3D  863  18.634  28.656  15.958  0.1528  0.1052  0.1216
   36BOLB   C4D  864  18.963  28.436  16.000  0.0801  0.1505  0.0640
   37BOLB   NC1  865  29.826  34.890   1.209 -0.5167  0.3014  0.1851
   37BOLB   PO1  866  30.260  34.750   1.298  0.2343 -0.3592 -0.0347
   37BOLB   GL1  867  30.443  34.999   1.496 -0.5343  0.1825  0.0295
   37BOLB   GL2  868  30.624  35.059   1.265  0.0549  0.1158  0.0386
   37BOLB   C1A  869  30.587  35.383   1.667  0.1797 -0.1934  0.4374
   37BOLB   C2A  870  30.751  35.663   1.951 -0.0973  0.1122 -0.1127
   37BOLB   C3A  871  30.922  36.035   1.848 -0.0419 -0.1276 -0.1232
   37BOLB   C4A  872  31.101  36.427   1.673  0.1457 -0.0969  0.0696
   37BOLB   C1B  873  30.767  35.399   1.171 -0.4390  0.1480 -0.1268
   37BOLB   C2B  874  30.939  35.712   1.454  0.2414  0.0325  0.1082
   37BOLB   C3B  875  31.157  35.458   1.686  0.1074  0.4829  0.1562
   37BOLB   C4B  876  30.998  35.096   1.727 -0.1948  0.3974 -0.2148
   37BOLB   NC2  877  31.436  38.035   3.607 -0.2089  0.1831  0.1584
   37BOLB   PO2  878  31.276  38.338   3.326 -0.1393  0.2765  0.1700
   37BOLB   GL3  879  31.144  38.231   2.841  0.1156 -0.0895  0.0690
   37BOLB   GL4  880  30.767  38.183   2.742 -0.0487  0.2822  0.0932
   37BOLB   C1C  881  31.343  37.845   2.631 -0.1682 -0.3765  0.2005
   37BOLB   C2C  882  31.245  37.549   2.303  0.0440  0.0279 -0.3813
   37BOLB   C3C  883  31.079  37.253   2.016 -0.0571 -0.0251 -0.5701
   37BOLB   C4C  884  31.095  36.855   1.817  0.0893 -0.2705 -0.3054
   37BOLB   C1D  885  30.850  37.822   2.592  0.3683  0.1258  0.0234
   37BOLB   C2D  886  30.675  37.405   2.438  0.0004  0.1106  0.1243
   37BOLB   C3D  887  30.678  37.007   2.127  0.0096 -0.2163  0.2805
   37BOLB   C4D  888  30.678  36.549   1.932  0.0663  0.1791 -0.0502
   38BOLB   NC1  889  35.036  25.764  12.997  0.0825 -0.0635  0.1250
   38BOLB   PO1  890  34.809  25.898  12.651 -0.3914  0.0277 -0.2203
   38BOLB   GL1  891  34.326  26.030  12.698 -0.0929 -0.3710  0.0015
   38BOLB   GL2  892  34.118  25.688  12.739 -0.2507  0.1580 -0.1229
   38BOLB   C1A  893  34.424  26.377  12.895  0.0587 -0.1462 -0.2218
   38BOLB   C2A  894  34.185  26.576  13.307  0.1474 -0.3850 -0.0107
   38BOLB   C3A  895  33.784  26.438  13.473 -0.1280  0.3254  0.0583
   38BOLB   C4A  896  33.800  26.141  13.827  0.4258 -0.2448  0.1457
   38BOLB   C1B  897  33.824  25.656  13.009  0.2807 -0.1958  0.1916
   38BOLB   C2B  898  33.566  25.911  13.214  0.0547 -0.2389 -0.1277
   38BOLB   C3B  899  33.285  25.714  13.361  0.1768 -0.3202  0.1490
   38BOLB   C4B  900  33.197  25.376  13.747  0.0441 -0.0932  0.2068
   38BOLB   NC2  901  33.685  24.426  12.366  0.3577 -0.2327 -0.1021
   38BOLB   PO2  902  33.833  24.621  12.761 -0.0968  0.1697  0.0020
   38BOLB   GL3  903  33.685  24.655  13.164  0.0881 -0.1767 -0.2545
   38BOLB   GL4  904  33.460  24.785  13.093 -0.0422  0.1653  0.0621
   38BOLB   C1C  905  33.944  24.775  13.488 -0.2633 -0.1297 -0.2118
   38BOLB   C2C  906  34.162  25.097  13.663 -0.1676 -0.0069 -0.3526
   38BOLB   C3C  907  34.190  25.399  13.931 -0.0501 -0.0474 -0.0467
   38BOLB   C4C  908  33.995  25.813  14.041  0.0013  0.1125 -0.1102
   38BOLB   C1D  909  33.291  24.824  13.544  0.0766  0.0013  0.0535
   38BOLB   C2D  910  32.871  25.024  13.842 -0.2579  0.1986  0.3225
   38BOLB   C3D  911  32.704  24.953  14.217 -0.0517 -0.2999 -0.1220
   38BOLB   C4D  912  32.841  24.886  14.624 -0.2316  0.3955 -0.0449
   39BOLB   NC1  913  25.815  28.472   0.932 -0.1331 -0.5116 -0.0733
   39BOLB   PO1  914  25.973  28.107   0.653 -0.1739  0.1708 -0.1140
   39BOLB   GL1  915  25.540  28.093   0.662  0.3233  0.3944 -0.1526
   39BOLB   GL2  916  25.260  28.206   0.341 -0.0925  0.2003  0.1978
   39BOLB   C1A  917  25.391  27.991   1.065  0.2794 -0.2568  0.1840
   39BOLB   C2A  918  25.341  27.780   1.384  0.1287  0.0607  0.0146
   39BOLB   C3A  919  25.398  27.896   1.799  0.2187 -0.0908 -0.4076
   39BOLB   C4A  920  25.165  28.290   1.892  0.0434  0.1232 -0.0897
   39BOLB   C1B  921  24.926  27.906   0.395  0.1352  0.0137  0.1832
   39BOLB   C2B  922  24.554  27.787   0.195 -0.0817  0.2089 -0.4723
   39BOLB   C3B  923  24.512  27.400   0.376  0.4961  0.4762 -0.0153
   39BOLB   C4B  924  24.246  27.044   0.553 -0.3747  0.1443 -0.1765
   39BOLB   NC2  925  24.544  30.293   2.051 -0.0322  0.4355  0.0376
   39BOLB   PO2  926  24.767  29.838   1.917 -0.0817 -0.1454 -0.2191
   39BOLB   GL3  927  24.551  29.648   2.187  0.0897 -0.0975  0.0703
   39BOLB   GL4  928  24.732  29.374   2.166  0.1654 -0.5713  0.0865
   39BOLB   C1C  929  24.319  29.315   2.367 -0.0667  0.3439 -0.1233
   39BOLB   C2C  930  24.389  28.970   2.342  0.0248 -0.0659  0.1447
   39BOLB   C3C  931  24.457  28.531   2.187  0.0043  0.1359  0.2459
   39BOLB   C4C  932  24.775  28.412   1.922  0.0064  0.0990  0.0110
   39BOLB   C1D  933  24.911  29.169   2.541  0.0553 -0.2069  0.0135
   39BOLB   C2D  934  24.809  28.811   2.732 -0.1845 -0.1044 -0.1405
   39BOLB   C3D  935  24.992  28.476   2.893  0.0563  0.0728  0.0868
   39BOLB   C4D  936  25.336  28.169   2.992 -0.0613 -0.2392 -0.2091
   40BOLB   NC1  937  32.056  35.105  11.541 -0.0064 -0.2266  0.2063
   40BOLB   PO1  938  31.861  34.813  11.337 -0.1928 -0.1003  0.3258
   40BOLB   GL1  939  31.742  34.649  11.732 -0.0405  0.1564 -0.0966
   40BOLB   GL2  940  31.436  34.572  11.816  0.0212 -0.1659  0.1447
   40BOLB   C1A  941  31.864  34.334  12.131 -0.0868 -0.3389  0.1639
   40BOLB   C2A  942  31.906  34.498  12.488 -0.0114 -0.2019  0.0406
   40BOLB   C3A  943  32.166  34.658  12.828  0.0012  0.1647  0.0255
   40BOLB   C4A  944  32.198  34.594  13.290 -0.1702  0.0570  0.2215
   40BOLB   C1B  945  31.343  34.374  12.181 -0.0073 -0.1334 -0.2097
   40BOLB   C2B  946  31.322  34.198  12.515 -0.1132 -0.1798 -0.3514
   40BOLB   C3B  947  31.359  34.044  12.975  0.0156  0.0932 -0.0236
   40BOLB   C4B  948  31.452  33.742  13.370 -0.0910  0.1927 -0.1453
   40BOLB   NC2  949  34.036  36.305  12.828 -0.0373  0.2387  0.3004
   40BOLB   PO2  950  33.813  35.932  12.780 -0.6156  0.0036  0.1898
   40BOLB   GL3  951  33.641  35.641  12.977 -0.0799 -0.0228 -0.1911
   40BOLB   GL4  952  33.736  35.835  13.278  0.0616  0.3596 -0.1122
   40BOLB   C1C  953  33.515  35.263  13.084 -0.0834 -0.0283 -0.0728
   40BOLB   C2C  954  33.426  34.809  12.954  0.0397  0.4491 -0.0052
   40BOLB   C3C  955  33.057  34.621  13.046  0.2272  0.0264  0.1090
   40BOLB   C4C  956  32.684  34.485  13.303  0.2230  0.0766 -0.0250
   40BOLB   C1D  957  33.924  35.565  13.420 -0.1273 -0.0368  0.2339
   40BOLB   C2D  958  33.859  35.150  13.582  0.0328 -0.2849  0.2475
   40BOLB   C3D  959  33.549  34.889  13.416  0.0040  0.0138 -0.0491
   40BOLB   C4D  960  33.529  34.441  13.453  0.0066  0.0296 -0.0588
   41BOLB   NC1  961  28.931  31.797   2.609  0.0918  0.0168 -0.0772
   41BOLB   PO1  962  28.761  31.625   3.020  0.1559  0.0693 -0.0555
   41BOLB   GL1  963  28.730  31.805   3.392  0.5326 -0.3431 -0.1223
   41BOLB   GL2  964  28.462  32.035   3.353 -0.0261 -0.0152 -0.0767
   41BOLB   C1A  965  28.598  31.920   3.906 -0.0635 -0.1900 -0.4147
   41BOLB   C2A  966  28.448  31.962   4.384  0.0113  0.0177 -0.1149
   41BOLB   C3A  967  28.214  32.179   4.726 -0.0486  0.2358  0.0642
   41BOLB   C4A  968  28.376  32.433   4.977 -0.0165  0.1495  0.1164
   41BOLB   C1B  969  28.543  32.423   3.613  0.2936  0.1233 -0.3017
   41BOLB   C2B  970  28.479  32.383   4.085  0.1561  0.4833  0.1387
   41BOLB   C3B  971  28.548  32.574   4.504  0.1830 -0.2152  0.1602
   41BOLB   C4B  972  28.987  32.576   4.886 -0.1286  0.1449 -0.0275
   41BOLB   NC2  973  28.905  33.326   6.814 -0.0883 -0.2477 -0.1266
   41BOLB   PO2  974  29.206  33.566   6.630 -0.0903  0.3774  0.1640
   41BOLB   GL3  975  29.311  33.287   6.283 -0.1720  0.1851 -0.1263
   41BOLB   GL4  976  29.422  33.434   5.957 -0.1342  0.2179 -0.0277
   41BOLB   C1C  977  29.134  32.917   6.129  0.2059 -0.1695  0.0404
   41BOLB   C2C  978  29.034  32.469   5.983 -0.0012 -0.1748  0.0536
   41BOLB   C3C  979  28.983  32.395   5.491  0.2568  0.2035  0.4635
   41BOLB   C4C  980  28.648  32.355   5.275 -0.2500  0.2326 -0.4318
   41BOLB   C1D  981  28.973  33.479   5.954  0.1920 -0.2702  0.0731
   41BOLB   C2D  982  28.730  33.244   5.923  0.0590 -0.1436  0.2538
   41BOLB   C3D  983  28.384  33.163   6.024 -0.2980 -0.1613  0.0008
   41BOLB   C4D  984  28.169  32.775   5.893 -0.1177  0.0864 -0.0826
   42BOLB   NC1  985  22.771  16.692   0.772  0.0982 -0.1028 -0.2078
   42BOLB   PO1  986  23.215  16.775   0.830  0.0067 -0.0328  0.0116
   42BOLB   GL1  987  23.211  17.045   0.558 -0.3572  0.2389  0.1644
   42BOLB   GL2  988  22.967  17.080   0.445 -0.1095 -0.3186  0.0826
   42BOLB   C1A  989  23.448  17.189   0.231  0.1104  0.2335  0.0316
   42BOLB   C2A  990  23.426  17.335  26.831  0.1346 -0.1523 -0.2042
   42BOLB   C3A  991  23.598  17.477  26.557 -0.1570  0.1429 -0.0183
   42BOLB   C4A  992  23.727  17.416  26.168 -0.3432  0.1925  0.2207
   42BOLB   C1B  993  22.987  17.489   0.703 -0.0074  0.0556 -0.1570
   42BOLB   C2B  994  23.056  17.791   1.011 -0.3162 -0.0053  0.3708
   42BOLB   C3B  995  22.981  18.053   1.439  0.0526  0.1169  0.0498
   42BOLB   C4B  996  22.754  18.312   1.764 -0.2598  0.0798 -0.0254
   42BOLB   NC2  997  24.881  15.624  24.311  0.0250  0.1948  0.1507
   42BOLB   PO2  998  24.454  15.667  24.489  0.1973 -0.2623 -0.0205
   42BOLB   GL3  999  24.651  15.866  24.811 -0.0944 -0.0373 -0.1686
   42BOLB   GL4 1000  24.934  16.025  24.623 -0.0608  0.1755  0.2730
   42BOLB   C1C 1001  24.595  16.224  24.999 -0.0107 -0.1023 -0.1114
   42BOLB   C2C 1002  24.351  16.517  25.401 -0.1093 -0.3740 -0.1737
   42BOLB   C3C 1003  24.029  16.885  25.565 -0.1577  0.1182  0.0062
   42BOLB   C4C 1004  24.081  17.286  25.929  0.0116  0.0260 -0.0620
   42BOLB   C1D 1005  25.116  16.197  24.180 -0.1521 -0.0830  0.0411
   42BOLB   C2D 1006  25.164  16.540  23.909 -0.0871  0.1583 -0.2338
   42BOLB   C3D 1007  25.218  16.940  23.910 -0.1419 -0.0005  0.1891
   42BOLB   C4D 1008  25.469  17.329  23.958 -0.1489  0.0369 -0.2478
   43BOLB   NC1 1009  31.988  38.126  13.880  0.2818  0.1206  0.0374
   43BOLB   PO1 1010  31.869  38.478  14.161 -0.0672 -0.0287  0.0288
   43BOLB   GL1 1011  31.498  38.234  14.176 -0.0631  0.1484 -0.2344
   43BOLB   GL2 1012  31.343  38.392  14.210 -0.3206  0.2702 -0.0498
   43BOLB   C1A 1013  31.555  37.774  14.302  0.2437  0.3349  0.1832
   43BOLB   C2A 1014  31.173  37.364  14.375  0.0123 -0.2623  0.0859
   43BOLB   C3A 1015  30.815  37.108  14.388 -0.0506 -0.0883 -0.2839
   43BOLB   C4A 1016  30.572  36.695  14.580  0.0175  0.1339 -0.1084
   43BOLB   C1B 1017  31.194  38.557  14.597 -0.1583  0.1830  0.4406
   43BOLB   C2B 1018  30.982  38.720  15.056 -0.2393  0.0907 -0.3050
   43BOLB   C3B 1019  31.186  38.884  15.294  0.1354  0.1415  0.4043
   43BOLB   C4B 1020  31.533  39.061  15.565  0.2169  0.0422  0.0149
   43BOLB   NC2 1021  29.777  34.837  16.851 -0.0414 -0.0157 -0.0012
   43BOLB   PO2 1022  30.062  35.212  16.575  0.0559 -0.2680  0.0327
   43BOLB   GL3 1023  30.251  35.638  16.312 -0.0412  0.2534  0.1796
   43BOLB   GL4 1024  30.479  35.895  16.418  0.1922 -0.1020 -0.3849
   43BOLB   C1C 1025  30.603  35.558  15.877  0.3111  0.1052 -0.1475
   43BOLB   C2C 1026  30.597  35.852  15.492 -0.2175 -0.1249 -0.0566
   43BOLB   C3C 1027  30.415  36.103  15.191 -0.1299  0.2572 -0.0961
   43BOLB   C4C 1028  30.285  36.365  14.832 -0.1320 -0.0824  0.1470
   43BOLB   C1D 1029  30.552  36.011  15.992 -0.1879  0.0603 -0.2536
   43BOLB   C2D 1030  30.857  36.166  15.838  0.2795 -0.2216 -0.0226
   43BOLB   C3D 1031  31.038  36.626  15.722  0.0911  0.2437 -0.1607
   43BOLB   C4D 1032  31.360  36.869  15.622  0.2429  0.1206 -0.0416
   44BOLB   NC1 1033  28.912  29.813   3.057 -0.0060  0.0095  0.0242
   44BOLB   PO1 1034  29.295  29.454   2.872  0.1766  0.1127 -0.2222
   44BOLB   GL1 1035  29.356  29.455   3.314 -0.1863 -0.1963  0.3062
   44BOLB   GL2 1036  29.120  29.535   3.476  0.4308 -0.1331  0.2487
   44BOLB   C1A 1037  29.673  29.524   3.585 -0.1583 -0.1012  0.5351
   44BOLB   C2A 1038  29.553  29.280   3.941  0.1165  0.4671 -0.1201
   44BOLB   C3A 1039  29.675  28.904   4.081  0.1359  0.0590 -0.1541
   44BOLB   C4A 1040  29.894  28.849   4.492  0.1018 -0.0348 -0.0241
   44BOLB   C1B 1041  29.309  29.826   3.897 -0.0297  0.1275  0.1797
   44BOLB   C2B 1042  29.348  29.701   4.306  0.2202  0.1855 -0.0405
   44BOLB   C3B 1043  28.990  29.827   4.627 -0.1443 -0.2568  0.1241
   44BOLB   C4B 1044  28.925  29.737   5.041  0.0817  0.0854 -0.3213
   44BOLB   NC2 1045  30.675  28.933   6.953 -0.1599  0.1441  0.1677
   44BOLB   PO2 1046  30.748  28.484   6.807  0.0378 -0.1743 -0.2886
   44BOLB   GL3 1047  30.486  28.774   6.529 -0.0558  0.2602 -0.1046
   44BOLB   GL4 1048  30.148  28.832   6.626 -0.1600 -0.1484  0.2162
   44BOLB   C1C 1049  30.452  28.847   6.100 -0.0864 -0.0273 -0.1032
   44BOLB   C2C 1050  30.367  28.799   5.688 -0.0277  0.0475  0.0345
   44BOLB   C3C 1051  30.020  28.805   5.352 -0.1342 -0.2940 -0.0964
   44BOLB   C4C 1052  29.949  28.719   4.993  0.2192  0.2254 -0.1603
   44BOLB   C1D 1053  29.886  28.482   6.477 -0.0289  0.1721 -0.0797
   44BOLB   C2D 1054  29.613  28.268   6.025 -0.1177 -0.0840 -0.1781
   44BOLB   C3D 1055  29.556  28.192   5.569 -0.1572  0.2765  0.2103
   44BOLB   C4D 1056  29.526  28.029   5.100 -0.0426  0.0075 -0.1636
   45BOLB   NC1 1057  20.663  38.201  16.418  0.2099  0.0126  0.1259
   45BOLB   PO1 1058  20.853  38.406  16.782 -0.0923  0.1304  0.1573
   45BOLB   GL1 1059  20.916  37.917  16.744  0.0752  0.0215  0.0099
   45BOLB   GL2 1060  20.807  37.795  17.063 -0.0148 -0.1861 -0.0304
   45BOLB   C1A 1061  21.010  37.482  16.696 -0.1571 -0.2226  0.1836
   45BOLB   C2A 1062  21.015  37.129  16.933  0.1719 -0.2058 -0.3132
   45BOLB   C3A 1063  21.021  36.716  17.131  0.0394 -0.1003  0.0438
   45BOLB   C4A 1064  20.812  36.445  17.403 -0.1069  0.1069  0.1906
   45BOLB   C1B 1065  21.091  37.587  17.191  0.1212 -0.0278 -0.2458
   45BOLB   C2B 1066  21.331  37.251  17.289  0.0675  0.0707 -0.1185
   45BOLB   C3B 1067  21.480  36.960  17.467  0.2750  0.1822  0.1364
   45BOLB   C4B 1068  21.391  36.509  17.415 -0.3604 -0.1301 -0.1695
   45BOLB   NC2 1069  19.439  36.588  15.178 -0.1628  0.0306  0.0404
   45BOLB   PO2 1070  19.680  36.588  15.529  0.1359 -0.1255 -0.1911
   45BOLB   GL3 1071  20.019  36.469  15.738 -0.0378 -0.3063  0.0665
   45BOLB   GL4 1072  19.967  36.142  15.856 -0.0335  0.0138  0.0654
   45BOLB   C1C 1073  20.250  36.531  16.173 -0.0156  0.1085  0.1451
   45BOLB   C2C 1074  20.289  36.245  16.615  0.1822 -0.1257  0.0080
   45BOLB   C3C 1075  20.397  35.924  16.947 -0.2992 -0.2108 -0.2083
   45BOLB   C4C 1076  20.701  36.025  17.228 -0.0150 -0.1477 -0.2375
   45BOLB   C1D 1077  20.307  36.030  16.118  0.3607  0.1072 -0.0175
   45BOLB   C2D 1078  20.542  35.806  16.457 -0.0156 -0.1881 -0.1534
   45BOLB   C3D 1079  20.612  35.451  16.778  0.2391  0.3634  0.3968
   45BOLB   C4D 1080  20.705  35.449  17.175 -0.2139  0.0327 -0.1518
   46BOLB   NC1 1081  14.562  21.901  22.790  0.0440 -0.1101  0.0878
   46BOLB   PO1 1082  14.887  21.605  22.683 -0.1791  0.0587 -0.0606
   46BOLB   GL1 1083  15.222  21.820  22.719  0.1065 -0.0612 -0.1260
   46BOLB   GL2 1084  15.372  21.553  22.936 -0.0697  0.3283 -0.0432
   46BOLB   C1A 1085  15.495  22.095  22.460 -0.2292  0.0414 -0.1377
   46BOLB   C2A 1086  15.945  22.254  22.297 -0.1349 -0.2580 -0.3936
   46BOLB   C3A 1087  16.086  22.530  22.020 -0.1817  0.1346 -0.3336
   46BOLB   C4A 1088  16.098  22.628  21.524  0.2142 -0.3275  0.3146
   46BOLB   C1B 1089  15.562  21.998  23.140  0.0345 -0.1320 -0.4670
   46BOLB   C2B 1090  15.917  22.263  23.208 -0.2234 -0.1304  0.1514
   46BOLB   C3B 1091  16.387  22.230  23.271  0.0285 -0.1861 -0.0121
   46BOLB   C4B 1092  16.652  22.500  23.422 -0.0239 -0.1461  0.1835
   46BOLB   NC2 1093  14.766  20.282  20.816 -0.1749 -0.0400  0.0617
   46BOLB   PO2 1094  15.235  20.446  20.805  0.0715  0.0795  0.0351
   46BOLB   GL3 1095  15.469  20.776  21.023 -0.1286 -0.1759  0.0329
   46BOLB   GL4 1096  15.440  20.999  20.746  0.1805  0.3927 -0.4883
   46BOLB   C1C 1097  15.557  21.149  21.188 -0.4353 -0.1108  0.1518
   46BOLB   C2C 1098  15.635  21.565  21.076 -0.3338 -0.3795 -0.7223
   46BOLB   C3C 1099  15.893  21.903  21.137  0.1613 -0.2302 -0.0693
   46BOLB   C4C 1100  16.070  22.367  21.261  0.4371 -0.3079 -0.1939
   46BOLB   C1D 1101  15.804  21.391  20.638 -0.1104  0.3294  0.1026
   46BOLB   C2D 1102  16.175  21.716  20.708 -0.2581 -0.1275  0.0237
   46BOLB   C3D 1103  16.649  21.721  20.585 -0.0045 -0.1011  0.3444
   46BOLB   C4D 1104  16.801  21.487  20.178  0.3453 -0.3902 -0.3926
   47BOLB   NC1 1105  35.205  29.915  24.316  0.2707 -0.0224  0.4767
   47BOLB   PO1 1106  35.510  30.255  24.132  0.1986 -0.0879  0.1283
   47BOLB   GL1 1107  35.930  30.423  24.310 -0.0631  0.1227  0.3632
   47BOLB   GL2 1108  36.018  30.802  24.415  0.1013 -0.1022 -0.2858
   47BOLB   C1A 1109  36.388  30.260  24.364  0.1127 -0.0178 -0.0238
   47BOLB   C2A 1110  36.659  29.992  24.496 -0.0080 -0.0031 -0.2822
   47BOLB   C3A 1111  36.907  30.082  24.863 -0.0095  0.1405  0.2153
   47BOLB   C4A 1112  37.346  30.191  24.789 -0.0188  0.2126 -0.1347
   47BOLB   C1B 1113  36.479  30.753  24.320  0.6235 -0.0502 -0.1903
   47BOLB   C2B 1114  36.913  30.917  24.539  0.0460 -0.3197  0.2938
   47BOLB   C3B 1115  37.206  31.186  24.310  0.0004 -0.0647  0.1881
   47BOLB   C4B 1116  37.642  31.229  24.199 -0.1523  0.1180  0.0647
   47BOLB   NC2 1117  39.781  30.096  25.315 -0.1018  0.0123 -0.0462
   47BOLB   PO2 1118  39.755  29.846  25.667 -0.0260  0.0007 -0.2049
   47BOLB   GL3 1119  39.322  29.822  25.546 -0.0097  0.0459  0.0434
   47BOLB   GL4 1120  39.044  29.742  25.727  0.0662  0.1746 -0.3258
   47BOLB   C1C 1121  39.103  30.102  25.250 -0.4137 -0.1534 -0.3480
   47BOLB   C2C 1122  38.697  30.057  25.045  0.0304 -0.1126 -0.1476
   47BOLB   C3C 1123  38.309  30.321  25.007 -0.0393  0.0163  0.1922
   47BOLB   C4C 1124  37.770  30.254  24.997  0.2005  0.1175  0.1018
   47BOLB   C1D 1125  38.655  29.875  25.693 -0.3013  0.0952  0.0791
   47BOLB   C2D 1126  38.518  30.251  25.508  0.0047 -0.2848  0.1520
   47BOLB   C3D 1127  38.151  30.282  25.461  0.2193  0.3362  0.0972
   47BOLB   C4D 1128  37.678  29.935  25.335 -0.0594  0.1864  0.2128
   48BOLB   NC1 1129  31.298  29.175  15.290  0.2356  0.1340  0.2380
   48BOLB   PO1 1130  31.439  29.155  14.801  0.1973  0.0036 -0.0926
   48BOLB   GL1 1131  31.588  28.855  14.444 -0.1491  0.0469 -0.3802
   48BOLB   GL2 1132  31.328  28.766  14.462 -0.0158  0.0991 -0.0532
   48BOLB   C1A 1133  31.768  28.782  14.082 -0.0188 -0.0545  0.0455
   48BOLB   C2A 1134  32.012  28.750  13.813  0.0021  0.0040 -0.2508
   48BOLB   C3A 1135  32.147  28.681  13.490  0.1230 -0.1852 -0.3614
   48BOLB   C4A 1136  32.399  28.590  13.052  0.0449 -0.2490  0.1293
   48BOLB   C1B 1137  31.366  28.445  14.108 -0.3157 -0.3205 -0.0383
   48BOLB   C2B 1138  31.537  28.469  13.760 -0.1201  0.0976  0.0057
   48BOLB   C3B 1139  31.655  28.334  13.339  0.0800  0.2874 -0.1074
   48BOLB   C4B 1140  31.633  28.056  13.044 -0.1863 -0.4104  0.1161
   48BOLB   NC2 1141  33.249  28.345  11.094  0.0605  0.0558  0.1547
   48BOLB   PO2 1142  32.857  28.647  11.190  0.2838  0.2136 -0.0339
   48BOLB   GL3 1143  32.704  28.578  11.536  0.0906 -0.1090  0.2366
   48BOLB   GL4 1144  32.400  28.620  11.318 -0.0028 -0.0460 -0.0655
   48BOLB   C1C 1145  32.346  28.617  11.821  0.1175 -0.0851 -0.4417
   48BOLB   C2C 1146  32.158  28.842  12.130 -0.4321  0.1959 -0.0310
   48BOLB   C3C 1147  32.419  28.967  12.439  0.1636  0.3713 -0.0147
   48BOLB   C4C 1148  32.342  28.942  12.863  0.3988 -0.2125 -0.0353
   48BOLB   C1D 1149  31.989  28.836  11.353 -0.0938 -0.0392  0.0464
   48BOLB   C2D 1150  31.904  28.965  11.750  0.0370  0.0436  0.0500
   48BOLB   C3D 1151  31.726  29.090  12.167  0.0648  0.3757  0.1598
   48BOLB   C4D 1152  31.958  29.223  12.483 -0.3063  0.0662 -0.1269
   49BOLB   NC1 1153  32.759  18.324  18.554 -0.3143  0.1672  0.1817
   49BOLB   PO1 1154  32.304  18.312  18.433  0.3387  0.0792 -0.1680
   49BOLB   GL1 1155  31.932  18.536  18.828  0.1237 -0.3854 -0.0162
   49BOLB   GL2 1156  31.867  18.835  18.862 -0.2406 -0.2092 -0.2849
   49BOLB   C1A 1157  31.475  18.645  19.169  0.1804  0.0550 -0.0937
   49BOLB   C2A 1158  31.119  18.893  19.312 -0.2687  0.4506  0.3150
   49BOLB   C3A 1159  31.030  19.379  19.315 -0.0292 -0.3541 -0.0754
   49BOLB   C4A 1160  30.605  19.521  19.185 -0.0604  0.1370 -0.1917
   49BOLB   C1B 1161  31.856  19.208  19.081 -0.1778  0.1098  0.3890
   49BOLB   C2B 1162  31.510  19.264  19.469  0.2402  0.1168  0.2684
   49BOLB   C3B 1163  31.573  19.637  19.812  0.1056  0.3015  0.0639
   49BOLB   C4B 1164  31.786  19.981  20.058 -0.2317 -0.0506 -0.2550
   49BOLB   NC2 1165  29.763  18.511  17.303  0.1201  0.0143 -0.2704
   49BOLB   PO2 1166  30.012  18.220  17.489 -0.0986 -0.0525 -0.0236
   49BOLB   GL3 1167  29.994  18.449  17.840  0.1533 -0.0175  0.2363
   49BOLB   GL4 1168  30.380  18.565  17.827 -0.1273  0.3205 -0.2512
   49BOLB   C1C 1169  29.931  18.882  18.084 -0.1850  0.2248 -0.2043
   49BOLB   C2C 1170  29.902  19.211  18.296 -0.2820  0.0146 -0.3163
   49BOLB   C3C 1171  30.034  19.369  18.536 -0.4266 -0.0919  0.0112
   49BOLB   C4C 1172  30.360  19.537  18.876  0.2838 -0.0071  0.0753
   49BOLB   C1D 1173  30.444  18.770  18.209 -0.2684 -0.2961 -0.0777
   49BOLB   C2D 1174  30.923  18.915  18.414  0.2749  0.0505  0.2025
   49BOLB   C3D 1175  30.859  19.258  18.794  0.0042  0.0932  0.2265
   49BOLB   C4D 1176  30.830  19.603  18.745 -0.3619 -0.1009  0.0858
   50BOLB   NC1 1177  13.673  29.597  23.685  0.0092  0.1550 -0.1327
   50BOLB   PO1 1178  13.540  30.072  23.571 -0.0550  0.1479 -0.1127
   50BOLB   GL1 1179  13.995  29.984  23.760 -0.1697 -0.0538  0.4257
   50BOLB   GL2 1180  14.064  29.680  23.938  0.1594  0.0062 -0.0241
   50BOLB   C1A 1181  14.429  29.919  23.769  0.1109  0.1975  0.1582
   50BOLB   C2A 1182  14.700  29.598  23.771  0.0481  0.4554 -0.3742
   50BOLB   C3A 1183  15.064  29.241  23.715  0.0123 -0.0789  0.0267
   50BOLB   C4A 1184  15.162  28.872  23.607  0.1946 -0.1878  0.1806
   50BOLB   C1B 1185  14.212  29.444  24.101 -0.0680 -0.3083 -0.0172
   50BOLB   C2B 1186  14.534  29.354  24.424  0.2436 -0.2926  0.2367
   50BOLB   C3B 1187  14.939  29.537  24.340 -0.1616 -0.1316  0.1709
   50BOLB   C4B 1188  15.317  29.587  23.898 -0.1911  0.3740 -0.0934
   50BOLB   NC2 1189  13.103  28.582  24.729 -0.0363  0.0555  0.4207
   50BOLB   PO2 1190  13.130  28.195  24.670 -0.1391  0.0144 -0.0145
   50BOLB   GL3 1191  13.610  28.328  24.610  0.1671  0.2897  0.0746
   50BOLB   GL4 1192  13.569  28.722  24.588  0.1492  0.0301  0.1585
   50BOLB   C1C 1193  14.079  28.344  24.445  0.1297  0.1351  0.1290
   50BOLB   C2C 1194  14.526  28.391  24.466 -0.0084 -0.1848  0.6491
   50BOLB   C3C 1195  14.847  28.550  24.305  0.2702  0.2327  0.2565
   50BOLB   C4C 1196  14.944  28.529  23.941 -0.1094 -0.4229  0.0347
   50BOLB   C1D 1197  14.024  28.744  24.860 -0.0866 -0.0756  0.4855
   50BOLB   C2D 1198  14.407  28.653  25.012 -0.1339  0.0982 -0.0302
   50BOLB   C3D 1199  14.781  28.486  25.156  0.0059  0.4201 -0.0906
   50BOLB   C4D 1200  15.095  28.173  25.221  0.1821  0.2794  0.0602
   51BOLB   NC1 1201  21.815  35.742  24.097  0.2593 -0.1788  0.2503
   51BOLB   PO1 1202  21.568  35.379  24.080  0.1941 -0.0651 -0.0527
   51BOLB   GL1 1203  21.263  35.446  24.383 -0.3092 -0.3206  0.0080
   51BOLB   GL2 1204  21.226  35.790  24.399  0.1043  0.1649 -0.1033
   51BOLB   C1A 1205  21.053  35.330  24.768 -0.2953  0.3056  0.2203
   51BOLB   C2A 1206  20.738  35.410  24.944  0.0060  0.0268 -0.2242
   51BOLB   C3A 1207  20.423  35.700  25.134 -0.1771  0.6019  0.1246
   51BOLB   C4A 1208  20.203  35.971  25.381 -0.1980  0.1221 -0.0939
   51BOLB   C1B 1209  21.123  35.821  24.721 -0.1862  0.3638  0.2885
   51BOLB   C2B 1210  20.924  35.988  25.054  0.1958  0.0745  0.0618
   51BOLB   C3B 1211  20.897  36.206  25.336  0.1849 -0.0401  0.0574
   51BOLB   C4B 1212  21.182  36.495  25.503 -0.1289 -0.5250 -0.2052
   51BOLB   NC2 1213  19.104  36.581   0.272 -0.0855  0.0484 -0.0403
   51BOLB   PO2 1214  18.778  36.775   0.096  0.0270  0.3295  0.2318
   51BOLB   GL3 1215  19.065  36.736  26.590  0.0876 -0.0442 -0.1244
   51BOLB   GL4 1216  18.953  36.680  26.322 -0.1404  0.1193 -0.0170
   51BOLB   C1C 1217  19.326  36.283  26.545 -0.0987 -0.4415 -0.2286
   51BOLB   C2C 1218  19.655  36.212  26.226  0.0958  0.3561  0.0676
   51BOLB   C3C 1219  19.760  36.433  25.936 -0.1795  0.1172 -0.3089
   51BOLB   C4C 1220  20.012  36.200  25.620 -0.0639 -0.2650  0.0772
   51BOLB   C1D 1221  19.217  36.475  25.918  0.1268 -0.3503  0.0356
   51BOLB   C2D 1222  19.329  36.384  25.519 -0.3277  0.0651 -0.0821
   51BOLB   C3D 1223  19.339  36.360  25.000 -0.4885 -0.1063  0.0157
   51BOLB   C4D 1224  19.060  36.275  24.683  0.0364 -0.0967 -0.0183
   52BOLB   NC1 1225  32.524  36.397  19.728  0.1293  0.0021  0.0676
   52BOLB   PO1 1226  32.740  36.048  19.979  0.0758 -0.1412  0.1322
   52BOLB   GL1 1227  33.059  36.298  19.731 -0.0815 -0.0769 -0.1034
   52BOLB   GL2 1228  32.987  36.588  19.715 -0.0770  0.3417  0.3707
   52BOLB   C1A 1229  33.336  36.601  19.350  0.1003 -0.0381 -0.2011
   52BOLB   C2A 1230  33.522  37.000  19.142 -0.1599 -0.0681 -0.1344
   52BOLB   C3A 1231  33.724  37.459  19.179  0.2010  0.4859 -0.2486
   52BOLB   C4A 1232  34.026  37.757  19.378 -0.0715  0.0541 -0.1170
   52BOLB   C1B 1233  33.205  37.022  19.605 -0.2101 -0.1106  0.1967
   52BOLB   C2B 1234  33.448  37.297  19.529  0.3040  0.2075  0.1286
   52BOLB   C3B 1235  33.593  37.708  19.819 -0.3061 -0.1400  0.2899
   52BOLB   C4B 1236  33.700  38.131  19.785  0.1482  0.0677  0.1824
   52BOLB   NC2 1237  33.418  40.462  19.718  0.3864  0.3183  0.1028
   52BOLB   PO2 1238  33.736  40.195  19.566  0.0599  0.2894  0.1687
   52BOLB   GL3 1239  33.764  39.822  19.857  0.0689  0.1438 -0.0711
   52BOLB   GL4 1240  33.645  40.059  20.111 -0.2593  0.3804 -0.0598
   52BOLB   C1C 1241  33.789  39.343  19.993 -0.0051 -0.0242  0.1621
   52BOLB   C2C 1242  33.895  38.936  19.870  0.3857  0.2275 -0.1284
   52BOLB   C3C 1243  33.861  38.607  19.603  0.3833 -0.1164 -0.0033
   52BOLB   C4C 1244  34.012  38.247  19.456 -0.0914  0.0268 -0.0554
   52BOLB   C1D 1245  33.282  39.870  20.316  0.3915  0.2872 -0.0713
   52BOLB   C2D 1246  33.057  39.648  20.747  0.1047 -0.6028  0.1969
   52BOLB   C3D 1247  32.579  39.629  20.827 -0.1663 -0.1416  0.1863
   52BOLB   C4D 1248  32.424  39.480  21.238 -0.0729 -0.1903 -0.4227
   53BOLB   NC1 1249  22.780  28.443   7.963  0.2333  0.1226  0.2423
   53BOLB   PO1 1250  23.184  28.691   7.974 -0.3395 -0.2061  0.1393
   53BOLB   GL1 1251  22.894  28.631   7.514  0.1376 -0.0059 -0.0561
   53BOLB   GL2 1252  22.857  28.252   7.475  0.0146 -0.0095 -0.1414
   53BOLB   C1A 1253  22.803  28.553   7.033  0.0842 -0.2137 -0.0642
   53BOLB   C2A 1254  22.679  28.355   6.619 -0.0136  0.3028 -0.2862
   53BOLB   C3A 1255  22.339  28.110   6.351 -0.1769  0.0499  0.0870
   53BOLB   C4A 1256  21.970  28.256   6.087 -0.1028  0.0939  0.0634
   53BOLB   C1B 1257  23.131  27.983   7.291  0.0319 -0.1851 -0.1187
   53BOLB   C2B 1258  23.232  27.719   6.902 -0.0581 -0.1826 -0.2044
   53BOLB   C3B 1259  23.069  27.530   6.551 -0.2141  0.0902  0.2015
   53BOLB   C4B 1260  22.759  27.288   6.208 -0.5755 -0.2393  0.1356
   53BOLB   NC2 1261  20.614  29.222   7.483  0.3366  0.1612 -0.0118
   53BOLB   PO2 1262  20.315  28.900   7.414 -0.1708 -0.3962  0.1933
   53BOLB   GL3 1263  20.287  28.908   6.934 -0.1643 -0.0760 -0.1158
   53BOLB   GL4 1264  20.029  29.079   6.729 -0.2095 -0.0625  0.1119
   53BOLB   C1C 1265  20.579  28.785   6.637  0.3034 -0.0867 -0.0583
   53BOLB   C2C 1266  20.933  28.590   6.427  0.0752  0.0900  0.0859
   53BOLB   C3C 1267  21.312  28.634   6.303  0.0738 -0.1402  0.2166
   53BOLB   C4C 1268  21.565  28.396   6.077 -0.1386 -0.1197  0.1603
   53BOLB   C1D 1269  19.634  29.181   6.461  0.0286 -0.1960  0.0765
   53BOLB   C2D 1270  19.529  29.326   6.061  0.4574 -0.0273 -0.0231
   53BOLB   C3D 1271  19.219  29.435   5.798 -0.1415 -0.3550 -0.0462
   53BOLB   C4D 1272  19.325  29.298   5.309  0.1986  0.2305  0.2425
   54BOLB   NC1 1273  26.335  27.883  13.710 -0.0314  0.0565 -0.2915
   54BOLB   PO1 1274  26.723  27.679  13.829  0.1275 -0.1968  0.0974
   54BOLB   GL1 1275  26.670  27.603  13.351  0.0437 -0.0517  0.0335
   54BOLB   GL2 1276  26.286  27.659  13.226 -0.0503  0.3988 -0.4774
   54BOLB   C1A 1277  26.663  27.460  12.888 -0.1223 -0.1890 -0.1693
   54BOLB   C2A 1278  26.747  27.351  12.473 -0.1082  0.3326  0.1517
   54BOLB   C3A 1279  27.087  27.278  12.210 -0.0728 -0.0880 -0.3165
   54BOLB   C4A 1280  27.350  27.222  11.943 -0.0036  0.0157  0.1332
   54BOLB   C1B 1281  25.812  27.559  13.072 -0.1428 -0.0070 -0.2121
   54BOLB   C2B 1282  25.557  27.322  12.906 -0.0191  0.1751 -0.1546
   54BOLB   C3B 1283  25.702  27.036  12.570  0.5543 -0.2770 -0.3135
   54BOLB   C4B 1284  25.666  26.911  12.045  0.4131 -0.1469 -0.1706
   54BOLB   NC2 1285  27.630  26.830   9.570 -0.1041  0.1135 -0.4983
   54BOLB   PO2 1286  27.885  26.536   9.810  0.0384  0.2083  0.0201
   54BOLB   GL3 1287  27.614  26.834  10.118 -0.1374  0.1145  0.1479
   54BOLB   GL4 1288  27.858  27.002  10.296 -0.3591 -0.0450 -0.0712
   54BOLB   C1C 1289  27.422  26.985  10.570  0.1393  0.0393  0.1127
   54BOLB   C2C 1290  27.684  27.032  10.954 -0.0567 -0.1019  0.2441
   54BOLB   C3C 1291  27.878  27.208  11.394 -0.2450  0.1365  0.0123
   54BOLB   C4C 1292  27.746  27.233  11.823  0.0361 -0.0624  0.1197
   54BOLB   C1D 1293  28.135  27.165  10.586 -0.0951 -0.2631 -0.0932
   54BOLB   C2D 1294  28.324  27.248  10.952  0.1507 -0.0873  0.2979
   54BOLB   C3D 1295  28.601  27.142  11.437  0.0322 -0.1192 -0.1581
   54BOLB   C4D 1296  28.512  26.904  11.880 -0.1080  0.0656 -0.1389
   55BOLB   NC1 1297  17.893  22.320   4.852 -0.3697  0.1976 -0.1546
   55BOLB   PO1 1298  18.022  22.777   5.046 -0.4569 -0.2270  0.0778
   55BOLB   GL1 1299  18.133  22.914   4.627  0.0164  0.1329  0.0653
   55BOLB   GL2 1300  17.926  23.162   4.631 -0.0949 -0.0480 -0.0294
   55BOLB   C1A 1301  18.357  22.998   4.303 -0.1179 -0.0065 -0.0412
   55BOLB   C2A 1302  18.782  22.939   4.145 -0.0333  0.1668  0.1039
   55BOLB   C3A 1303  19.153  23.145   4.029 -0.1662  0.2490 -0.4679
   55BOLB   C4A 1304  19.578  23.347   4.042  0.4148  0.3268 -0.1472
   55BOLB   C1B 1305  18.064  23.472   4.464  0.1707 -0.4078 -0.0332
   55BOLB   C2B 1306  18.499  23.571   4.232  0.0978 -0.0262 -0.0555
   55BOLB   C3B 1307  18.799  23.742   4.071 -0.1043 -0.1207  0.0835
   55BOLB   C4B 1308  19.221  23.746   4.145 -0.1968  0.2283 -0.1514
   55BOLB   NC2 1309  18.555  23.325   5.899 -0.1417 -0.0598 -0.0980
   55BOLB   PO2 1310  18.770  23.780   5.953  0.1503  0.0398 -0.1471
   55BOLB   GL3 1311  19.101  24.004   5.717  0.2225 -0.1333  0.0684
   55BOLB   GL4 1312  19.022  23.934   5.405 -0.1010  0.1956 -0.1318
   55BOLB   C1C 1313  19.541  23.821   5.399 -0.0408 -0.4114 -0.1863
   55BOLB   C2C 1314  19.728  23.945   5.067 -0.0284  0.0341  0.0742
   55BOLB   C3C 1315  20.010  23.839   4.761 -0.1438 -0.3632  0.3399
   55BOLB   C4C 1316  19.894  23.522   4.454  0.0260  0.0772  0.2880
   55BOLB   C1D 1317  19.312  24.293   5.242  0.0107  0.3327 -0.0597
   55BOLB   C2D 1318  19.564  24.535   4.874  0.0465  0.1296  0.1626
   55BOLB   C3D 1319  19.866  24.866   4.788  0.0914 -0.0618 -0.1050
   55BOLB   C4D 1320  20.114  25.269   4.798 -0.0254 -0.0268  0.0423
   56BOLB   NC1 1321  29.657  34.499  15.771 -0.0699  0.1970  0.1662
   56BOLB   PO1 1322  29.391  34.585  15.482  0.1231 -0.0639 -0.1208
   56BOLB   GL1 1323  29.243  34.750  15.048  0.0151  0.0131 -0.0179
   56BOLB   GL2 1324  28.906  34.877  14.972 -0.1389 -0.2915  0.1479
   56BOLB   C1A 1325  29.235  34.816  14.593 -0.2098 -0.0612 -0.0579
   56BOLB   C2A 1326  29.060  35.101  14.262 -0.0035 -0.2765 -0.1358
   56BOLB   C3A 1327  28.966  35.425  13.981 -0.1320  0.4969 -0.3280
   56BOLB   C4A 1328  28.950  35.786  13.698 -0.1172 -0.0191  0.0121
   56BOLB   C1B 1329  28.819  35.153  14.718 -0.1003 -0.2180  0.0961
   56BOLB   C2B 1330  28.903  35.538  14.458  0.1541  0.3180 -0.5087
   56BOLB   C3B 1331  29.140  35.836  14.267 -0.1939  0.2513  0.0359
   56BOLB   C4B 1332  29.362  36.048  13.859 -0.2136  0.4910 -0.2295
   56BOLB   NC2 1333  28.874  36.615  11.615  0.1820  0.1180  0.2205
   56BOLB   PO2 1334  28.598  36.367  11.350 -0.0444 -0.1439 -0.0029
   56BOLB   GL3 1335  28.685  36.145  11.766  0.2961 -0.0259  0.0350
   56BOLB   GL4 1336  29.065  36.053  11.631 -0.0082  0.0297 -0.2024
   56BOLB   C1C 1337  28.880  36.075  12.100 -0.2123 -0.1183 -0.0388
   56BOLB   C2C 1338  28.819  36.007  12.513  0.0106  0.0320  0.1082
   56BOLB   C3C 1339  28.818  36.156  12.913 -0.1338 -0.0665 -0.0049
   56BOLB   C4C 1340  28.939  35.971  13.277 -0.2731 -0.0705 -0.1582
   56BOLB   C1D 1341  29.320  35.818  12.001  0.1001 -0.1396 -0.1103
   56BOLB   C2D 1342  29.672  35.731  12.259 -0.1594 -0.2039 -0.1037
   56BOLB   C3D 1343  29.975  35.462  12.570  0.0454  0.0767 -0.2863
   56BOLB   C4D 1344  29.796  35.277  12.987  0.1524  0.1680  0.1665
   57BOLB   NC1 1345  12.986  27.632  26.701  0.1267  0.4542 -0.2887
   57BOLB   PO1 1346  13.120  27.235  26.702  0.0033  0.0166  0.1275
   57BOLB   GL1 1347  13.478  27.054  26.544  0.0986 -0.0557 -0.2475
   57BOLB   GL2 1348  13.569  26.778  26.325  0.2749 -0.3885  0.1842
   57BOLB   C1A 1349  13.891  27.158  26.358 -0.2591 -0.0230  0.0977
   57BOLB   C2A 1350  14.344  27.260  26.193  0.1208  0.1470 -0.2541
   57BOLB   C3A 1351  14.607  27.272  25.993  0.4030 -0.0990 -0.0860
   57BOLB   C4A 1352  14.763  26.877  25.650  0.1029  0.1516 -0.1221
   57BOLB   C1B 1353  14.018  26.628  26.429 -0.0923 -0.3532  0.1904
   57BOLB   C2B 1354  14.426  26.771  26.354  0.2592  0.2956  0.1742
   57BOLB   C3B 1355  14.714  27.029  26.524  0.2825  0.4209  0.0066
   57BOLB   C4B 1356  14.853  27.353  26.656  0.1014 -0.3097  0.3689
   57BOLB   NC2 1357  13.553  25.002  25.450  0.0688  0.0616  0.1408
   57BOLB   PO2 1358  13.778  24.964  25.744  0.0604 -0.0795  0.2129
   57BOLB   GL3 1359  14.147  25.201  25.658  0.0148  0.0135 -0.1254
   57BOLB   GL4 1360  14.004  25.221  25.293 -0.2627 -0.2262 -0.0562
   57BOLB   C1C 1361  14.327  25.547  25.755  0.0881 -0.2131  0.0587
   57BOLB   C2C 1362  14.699  25.696  25.604 -0.3344 -0.1263  0.1032
   57BOLB   C3C 1363  14.945  25.936  25.605 -0.0176 -0.0888 -0.0510
   57BOLB   C4C 1364  14.869  26.409  25.619 -0.0509 -0.3882 -0.0544
   57BOLB   C1D 1365  14.165  25.603  25.200  0.2679  0.2204  0.3255
   57BOLB   C2D 1366  14.069  25.932  24.984  0.0163 -0.2096 -0.4109
   57BOLB   C3D 1367  14.057  26.288  24.571  0.2505 -0.1084 -0.7386
   57BOLB   C4D 1368  13.807  26.439  24.261 -0.0978 -0.0667 -0.1787
   58BOLB   NC1 1369  24.437  25.441   8.957 -0.0520 -0.1612 -0.0652
   58BOLB   PO1 1370  24.851  25.595   8.887  0.0044  0.2604 -0.0795
   58BOLB   GL1 1371  24.927  25.748   8.383 -0.1257 -0.4169 -0.1605
   58BOLB   GL2 1372  24.885  25.528   8.190  0.2137 -0.1838 -0.0969
   58BOLB   C1A 1373  24.718  26.000   7.991 -0.1130  0.2945  0.1217
   58BOLB   C2A 1374  24.378  26.096   7.766 -0.1214 -0.0953  0.2605
   58BOLB   C3A 1375  24.048  26.311   7.660 -0.1141  0.1960 -0.0030
   58BOLB   C4A 1376  23.687  26.198   7.264  0.0460 -0.0934  0.1038
   58BOLB   C1B 1377  25.087  25.419   7.866  0.0689 -0.1288 -0.1984
   58BOLB   C2B 1378  25.349  25.537   7.472 -0.0754 -0.0056 -0.2392
   58BOLB   C3B 1379  25.595  25.937   7.274  0.1284  0.0292 -0.1231
   58BOLB   C4B 1380  26.019  26.112   7.359 -0.0316 -0.0082  0.0521
   58BOLB   NC2 1381  22.126  25.835   8.580  0.4474  0.2432  0.0358
   58BOLB   PO2 1382  22.219  25.494   8.320 -0.1886  0.3054 -0.1083
   58BOLB   GL3 1383  22.294  25.819   8.105 -0.1567  0.2090 -0.0222
   58BOLB   GL4 1384  22.125  25.949   7.803 -0.2770  0.1451 -0.0422
   58BOLB   C1C 1385  22.615  26.057   7.956 -0.0483 -0.0642 -0.3279
   58BOLB   C2C 1386  22.724  26.007   7.551 -0.2136 -0.0556 -0.0317
   58BOLB   C3C 1387  22.910  26.080   7.069 -0.0386  0.0203 -0.3376
   58BOLB   C4C 1388  23.286  26.230   7.056  0.3019  0.0728  0.0324
   58BOLB   C1D 1389  22.195  26.136   7.406 -0.0564  0.1320 -0.1059
   58BOLB   C2D 1390  22.295  25.965   6.985  0.0154 -0.2706 -0.1492
   58BOLB   C3D 1391  22.151  25.607   6.801 -0.1973 -0.0570 -0.0518
   58BOLB   C4D 1392  22.042  25.165   6.624  0.0632 -0.1411 -0.2455
   59BOLB   NC1 1393  31.405  23.648  26.152 -0.0536  0.0180  0.3200
   59BOLB   PO1 1394  31.031  23.529  26.048  0.0744  0.0319  0.0803
   59BOLB   GL1 1395  31.134  23.227  26.304  0.3516  0.3332 -0.0045
   59BOLB   GL2 1396  30.885  22.931  26.433  0.1755 -0.1172  0.0918
   59BOLB   C1A 1397  31.289  22.726  26.204  0.1271 -0.2188 -0.1274
   59BOLB   C2A 1398  31.409  22.242  26.253  0.1794 -0.0362  0.2015
   59BOLB   C3A 1399  31.756  22.032  26.253  0.3349 -0.2196 -0.1335
   59BOLB   C4A 1400  31.800  21.713  26.550  0.0546  0.2093 -0.1993
   59BOLB   C1B 1401  31.110  22.663  26.700 -0.1571 -0.2369 -0.2005
   59BOLB   C2B 1402  31.160  22.248  26.866 -0.0463 -0.1231  0.0989
   59BOLB   C3B 1403  31.281  22.050   0.260 -0.0542 -0.2934 -0.0207
   59BOLB   C4B 1404  31.432  21.685   0.536  0.0417 -0.0065  0.1264
   59BOLB   NC2 1405  33.446  20.771   1.068  0.0600 -0.1004  0.0981
   59BOLB   PO2 1406  33.040  20.615   1.288  0.1021 -0.1240  0.0560
   59BOLB   GL3 1407  32.886  20.868   0.976 -0.0896 -0.1860  0.1838
   59BOLB   GL4 1408  33.020  20.742   0.741 -0.3598  0.2698  0.1797
   59BOLB   C1C 1409  32.618  21.215   0.787  0.0418 -0.2583 -0.0535
   59BOLB   C2C 1410  32.398  21.292   0.335 -0.0980 -0.0220 -0.0628
   59BOLB   C3C 1411  32.269  21.304  26.811  0.2592  0.0829  0.1572
   59BOLB   C4C 1412  31.872  21.250  26.563  0.0072 -0.0855  0.0542
   59BOLB   C1D 1413  32.866  21.097   0.391  0.0225 -0.1017  0.0146
   59BOLB   C2D 1414  32.858  21.353   0.202 -0.1557 -0.3110 -0.0922
   59BOLB   C3D 1415  32.679  21.574  26.849  0.1075  0.0019 -0.2537
   59BOLB   C4D 1416  32.312  21.751   0.054 -0.2869 -0.2544 -0.2425
   60BOLB   NC1 1417  14.647  29.704  19.749 -0.3947  0.1137 -0.2613
   60BOLB   PO1 1418  14.368  29.525  20.028 -0.1650 -0.0105  0.1317
   60BOLB   GL1 1419  14.918  29.492  20.149 -0.1677 -0.2045 -0.0748
   60BOLB   GL2 1420  15.057  29.439  20.358  0.0586 -0.2147  0.0153
   60BOLB   C1A 1421  15.337  29.536  20.006 -0.0982 -0.0849 -0.2189
   60BOLB   C2A 1422  15.603  29.257  19.741  0.1419  0.2589  0.0237
   60BOLB   C3A 1423  15.671  28.875  19.714 -0.0356  0.1881  0.0526
   60BOLB   C4A 1424  15.979  28.516  19.540 -0.3958  0.0534  0.0276
   60BOLB   C1B 1425  14.916  29.042  20.577 -0.0413 -0.1357 -0.0244
   60BOLB   C2B 1426  15.173  28.812  20.774  0.2961  0.0674 -0.0487
   60BOLB   C3B 1427  15.352  28.878  21.055 -0.3244 -0.0404 -0.2119
   60BOLB   C4B 1428  15.659  28.974  21.350 -0.1463  0.2103  0.1926
   60BOLB   NC2 1429  14.136  26.770  19.380 -0.0400  0.0008 -0.0340
   60BOLB   PO2 1430  14.415  26.915  19.035  0.0095 -0.2101 -0.0235
   60BOLB   GL3 1431  14.833  26.969  19.177 -0.0921  0.2776  0.1081
   60BOLB   GL4 1432  14.872  26.635  18.876  0.3076  0.3616 -0.0813
   60BOLB   C1C 1433  15.260  27.221  19.385  0.4711 -0.2016  0.2790
   60BOLB   C2C 1434  15.580  27.526  19.399  0.2685 -0.0049  0.1458
   60BOLB   C3C 1435  15.710  27.878  19.194  0.2625  0.2112  0.0853
   60BOLB   C4C 1436  15.958  28.240  19.261 -0.2415  0.0192 -0.3527
   60BOLB   C1D 1437  15.015  26.194  18.972  0.0446 -0.0282 -0.1433
   60BOLB   C2D 1438  15.480  25.986  19.069  0.0083  0.1042  0.1213
   60BOLB   C3D 1439  15.407  25.551  19.275  0.0531 -0.4174 -0.3222
   60BOLB   C4D 1440  15.462  25.146  19.535 -0.1117  0.1777 -0.1578
   61BOLB   NC1 1441  20.718  24.952   7.606 -0.1944  0.0784 -0.2801
   61BOLB   PO1 1442  20.836  25.277   7.634 -0.0022  0.1705  0.0513
   61BOLB   GL1 1443  20.637  25.408   7.271 -0.0267  0.2897 -0.0158
   61BOLB   GL2 1444  20.485  25.661   7.347 -0.2094 -0.0955  0.5585
   61BOLB   C1A 1445  20.742  25.680   6.907 -0.1312 -0.0519 -0.0902
   61BOLB   C2A 1446  20.842  25.970   6.635  0.0397  0.1234 -0.2456
   61BOLB   C3A 1447  20.828  26.205   6.209 -0.0815 -0.1346  0.0812
   61BOLB   C4A 1448  20.989  26.689   6.085  0.0529 -0.0825 -0.0251
   61BOLB   C1B 1449  20.125  25.621   7.000  0.1854 -0.1696  0.0115
   61BOLB   C2B 1450  19.948  25.997   6.715  0.1274 -0.1393  0.0194
   61BOLB   C3B 1451  19.934  26.233   6.327  0.0950 -0.1779 -0.0900
   61BOLB   C4B 1452  19.682  26.480   6.025 -0.3519  0.0863 -0.0641
   61BOLB   NC2 1453  19.197  27.106   7.341 -0.2553  0.2976  0.2250
   61BOLB   PO2 1454  19.478  27.442   7.443 -0.2332  0.2107  0.1506
   61BOLB   GL3 1455  19.361  27.425   7.009 -0.0288  0.1814  0.0128
   61BOLB   GL4 1456  19.094  27.465   6.798 -0.6118 -0.2423  0.2618
   61BOLB   C1C 1457  19.668  27.190   6.659 -0.0188 -0.3419  0.0591
   61BOLB   C2C 1458  19.947  27.068   6.334 -0.2156  0.1410  0.0523
   61BOLB   C3C 1459  20.412  27.123   6.166 -0.0133 -0.1350  0.2162
   61BOLB   C4C 1460  20.926  27.137   6.034  0.0221 -0.4549 -0.2647
   61BOLB   C1D 1461  19.093  27.189   6.447 -0.1461 -0.1395  0.0366
   61BOLB   C2D 1462  19.220  27.029   6.150  0.0088  0.3588  0.0198
   61BOLB   C3D 1463  19.603  27.102   5.982 -0.3238  0.0917 -0.1321
   61BOLB   C4D 1464  19.887  26.951   5.670 -0.2045  0.0051  0.2026
   62BOLB   NC1 1465  28.201  22.360  17.112 -0.0927  0.0448 -0.2732
   62BOLB   PO1 1466  28.072  22.184  17.436  0.0345  0.2641 -0.0595
   62BOLB   GL1 1467  27.783  21.903  17.312 -0.0108 -0.0614  0.2097
   62BOLB   GL2 1468  27.884  21.631  17.415  0.0578 -0.1760 -0.0202
   62BOLB   C1A 1469  27.749  21.559  16.942 -0.1585  0.4769  0.1061
   62BOLB   C2A 1470  27.917  21.265  16.792 -0.0200  0.2259 -0.0340
   62BOLB   C3A 1471  27.982  20.862  16.972 -0.0672 -0.1413  0.2072
   62BOLB   C4A 1472  27.786  20.436  16.927  0.0781 -0.0683  0.3457
   62BOLB   C1B 1473  27.722  21.294  17.329  0.1633  0.3092 -0.0842
   62BOLB   C2B 1474  27.531  20.996  17.133  0.2114 -0.2366 -0.0328
   62BOLB   C3B 1475  27.306  20.679  16.868  0.0233  0.2342 -0.1596
   62BOLB   C4B 1476  27.085  20.399  16.658 -0.1499  0.1453 -0.1601
   62BOLB   NC2 1477  26.573  18.708  15.585  0.0080  0.3002  0.2360
   62BOLB   PO2 1478  27.009  18.971  15.283 -0.0646  0.1486  0.2775
   62BOLB   GL3 1479  27.267  19.250  15.564  0.0924 -0.0117  0.1252
   62BOLB   GL4 1480  27.627  19.329  15.536 -0.1265  0.0179  0.1080
   62BOLB   C1C 1481  27.192  19.692  15.765  0.1203 -0.0916  0.4947
   62BOLB   C2C 1482  27.490  19.990  15.892  0.1549  0.0459 -0.0764
   62BOLB   C3C 1483  27.775  19.940  16.244 -0.2307 -0.2831 -0.0614
   62BOLB   C4C 1484  27.919  20.196  16.589 -0.1344  0.1018 -0.3543
   62BOLB   C1D 1485  27.684  19.509  15.908  0.0843 -0.3025  0.0396
   62BOLB   C2D 1486  27.852  19.316  16.190 -0.2052  0.4416 -0.1520
   62BOLB   C3D 1487  28.287  19.178  16.354 -0.0369 -0.0501 -0.1905
   62BOLB   C4D 1488  28.587  19.357  16.651  0.3420  0.0616  0.1682
   63BOLB   NC1 1489  18.381  19.824   1.772 -0.0765 -0.1452  0.1051
   63BOLB   PO1 1490  18.693  19.781   1.376 -0.0825 -0.0863  0.0803
   63BOLB   GL1 1491  19.014  19.771   0.988  0.0618  0.3320  0.0195
   63BOLB   GL2 1492  19.327  19.749   1.073  0.0967  0.1413 -0.0238
   63BOLB   C1A 1493  19.064  20.124   0.848  0.0656  0.0714 -0.0931
   63BOLB   C2A 1494  19.401  20.301   0.629 -0.0929  0.0292  0.0959
   63BOLB   C3A 1495  19.776  20.416   0.551  0.1337  0.0892 -0.2666
   63BOLB   C4A 1496  20.186  20.587   0.444 -0.0934  0.2315 -0.2392
   63BOLB   C1B 1497  19.682  19.858   0.930 -0.2521 -0.1925 -0.0161
   63BOLB   C2B 1498  19.968  20.153   0.969 -0.0040 -0.0418  0.1066
   63BOLB   C3B 1499  20.326  20.559   0.963 -0.1483  0.1464  0.1953
   63BOLB   C4B 1500  20.627  20.836   1.246 -0.3446  0.0271  0.1177
   63BOLB   NC2 1501  19.626  18.836   1.365  0.0097  0.0234  0.4671
   63BOLB   PO2 1502  19.423  19.075   1.084 -0.1751 -0.2200 -0.1617
   63BOLB   GL3 1503  19.720  19.439   1.188  0.0427  0.1063  0.1715
   63BOLB   GL4 1504  19.662  19.713   1.428  0.0226  0.2165 -0.1828
   63BOLB   C1C 1505  20.096  19.520   1.064  0.1403 -0.1304  0.3929
   63BOLB   C2C 1506  20.383  19.772   0.982 -0.2140 -0.0214 -0.0724
   63BOLB   C3C 1507  20.696  20.050   0.686  0.0789  0.2630 -0.0115
   63BOLB   C4C 1508  20.613  20.443   0.551  0.4896 -0.1702 -0.1747
   63BOLB   C1D 1509  20.139  19.905   1.387  0.0624  0.2033  0.1270
   63BOLB   C2D 1510  20.503  20.171   1.264 -0.0238 -0.0168 -0.0548
   63BOLB   C3D 1511  20.806  20.383   1.091  0.0090  0.1315 -0.1003
   63BOLB   C4D 1512  21.004  20.752   0.903 -0.2350  0.1899 -0.1890
   64BOLB   NC1 1513  35.283  22.302  15.467  0.0270  0.0274  0.1804
   64BOLB   PO1 1514  34.929  22.141  15.262 -0.1793 -0.0772  0.2320
   64BOLB   GL1 1515  34.699  22.132  15.614  0.2348  0.0996 -0.0983
   64BOLB   GL2 1516  34.703  22.519  15.541  0.1628 -0.0650  0.1284
   64BOLB   C1A 1517  34.356  22.348  15.914 -0.0178  0.0577 -0.2789
   64BOLB   C2A 1518  34.175  22.220  16.351  0.1328 -0.3941  0.0531
   64BOLB   C3A 1519  33.948  22.358  16.681 -0.4592  0.0982  0.0114
   64BOLB   C4A 1520  33.920  22.409  17.163 -0.2015  0.2453 -0.0918
   64BOLB   C1B 1521  34.578  22.852  15.920 -0.2171  0.2898 -0.0392
   64BOLB   C2B 1522  34.369  23.185  16.222  0.2212 -0.0668 -0.0573
   64BOLB   C3B 1523  34.349  23.528  16.557 -0.1671 -0.1015  0.3449
   64BOLB   C4B 1524  34.167  23.726  16.782 -0.1474 -0.1100 -0.6744
   64BOLB   NC2 1525  32.156  23.946  18.730 -0.1950 -0.1419  0.0880
   64BOLB   PO2 1526  32.182  23.610  18.522 -0.0419 -0.1483 -0.0107
   64BOLB   GL3 1527  32.428  23.298  18.397 -0.1656 -0.1159  0.0313
   64BOLB   GL4 1528  32.423  23.219  18.016 -0.0683  0.3304 -0.0247
   64BOLB   C1C 1529  32.783  22.900  18.321 -0.3387  0.0129 -0.0998
   64BOLB   C2C 1530  33.057  22.746  17.905  0.0919  0.2349 -0.0617
   64BOLB   C3C 1531  33.345  22.555  17.686 -0.0120  0.0369 -0.2414
   64BOLB   C4C 1532  33.798  22.610  17.561 -0.0291  0.1869 -0.0154
   64BOLB   C1D 1533  32.532  22.825  17.834 -0.2849 -0.1694  0.2172
   64BOLB   C2D 1534  32.647  22.375  17.596  0.2851 -0.0944  0.2472
   64BOLB   C3D 1535  32.820  21.932  17.441 -0.1728 -0.5637 -0.3639
   64BOLB   C4D 1536  33.002  21.649  17.026 -0.0633  0.0026 -0.2373
   65BOLB   NC1 1537  20.344  27.145   7.727 -0.5889  0.2178 -0.2421
   65BOLB   PO1 1538  20.072  26.905   7.564 -0.1162 -0.2642 -0.0171
   65BOLB   GL1 1539  20.273  27.128   7.225  0.2290  0.2266 -0.1586
   65BOLB   GL2 1540  20.362  26.940   7.108 -0.3274  0.2400 -0.1386
   65BOLB   C1A 1541  20.544  27.395   6.958 -0.4810  0.2938  0.1430
   65BOLB   C2A 1542  20.932  27.661   6.964  0.4145 -0.1076 -0.3330
   65BOLB   C3A 1543  21.036  27.974   6.618  0.2392  0.0003  0.1958
   65BOLB   C4A 1544  21.366  28.159   6.492  0.0653  0.3015 -0.2503
   65BOLB   C1B 1545  20.493  27.007   6.673 -0.0159  0.2615  0.1560
   65BOLB   C2B 1546  20.712  26.726   6.533 -0.0256 -0.1953  0.2888
   65BOLB   C3B 1547  21.046  26.519   6.559 -0.2318  0.1865  0.1668
   65BOLB   C4B 1548  21.404  26.401   6.211 -0.0144 -0.2134 -0.1736
   65BOLB   NC2 1549  22.215  28.898   7.823  0.1513 -0.0994  0.0504
   65BOLB   PO2 1550  22.606  28.900   7.830 -0.3358  0.2573  0.2857
   65BOLB   GL3 1551  22.524  29.041   7.468 -0.1339  0.0637  0.3136
   65BOLB   GL4 1552  22.812  29.259   7.255 -0.2257 -0.3008 -0.2827
   65BOLB   C1C 1553  22.295  29.204   7.095  0.0543  0.2871  0.2626
   65BOLB   C2C 1554  22.233  28.868   6.653  0.3276 -0.1503 -0.3654
   65BOLB   C3C 1555  22.114  28.475   6.684  0.0842 -0.2246 -0.1052
   65BOLB   C4C 1556  21.778  28.267   6.538 -0.0230  0.1764 -0.1987
   65BOLB   C1D 1557  22.735  29.035   6.750 -0.0642 -0.0978  0.0177
   65BOLB   C2D 1558  22.682  28.899   6.280  0.3180 -0.2560  0.1750
   65BOLB   C3D 1559  22.725  28.466   6.165  0.3094 -0.1654 -0.0700
   65BOLB   C4D 1560  22.900  28.036   5.887  0.2969 -0.0331  0.1913
   66BOLB   NC1 1561  25.844  15.624  24.212 -0.1450 -0.0948  0.1309
   66BOLB   PO1 1562  25.970  15.836  23.866 -0.4064 -0.0980  0.0807
   66BOLB   GL1 1563  26.007  16.250  23.965 -0.2737  0.0768  0.1380
   66BOLB   GL2 1564  26.179  16.489  24.203  0.3167  0.0427 -0.0150
   66BOLB   C1A 1565  25.681  16.623  24.023  0.1438  0.0888 -0.0033
   66BOLB   C2A 1566  25.823  16.887  24.271 -0.1686  0.1561 -0.3343
   66BOLB   C3A 1567  25.998  17.350  24.157  0.0555  0.3664 -0.1999
   66BOLB   C4A 1568  26.363  17.662  24.196  0.0311 -0.1159  0.1702
   66BOLB   C1B 1569  26.197  16.758  23.881  0.4383 -0.2141 -0.0544
   66BOLB   C2B 1570  25.852  17.112  23.623 -0.0915 -0.0141  0.3147
   66BOLB   C3B 1571  25.956  17.322  23.234 -0.0054  0.1003 -0.0398
   66BOLB   C4B 1572  26.193  17.697  23.294  0.2850 -0.3176 -0.1135
   66BOLB   NC2 1573  28.353  17.137  25.005 -0.1258 -0.3100  0.0195
   66BOLB   PO2 1574  28.651  17.216  24.675 -0.1320  0.0985  0.0416
   66BOLB   GL3 1575  28.239  17.479  24.657  0.0478  0.0752 -0.1260
   66BOLB   GL4 1576  28.197  17.740  24.926 -0.1186  0.0893 -0.1883
   66BOLB   C1C 1577  27.977  17.551  24.408  0.1287 -0.2228 -0.1757
   66BOLB   C2C 1578  27.611  17.585  24.190 -0.1448  0.1048  0.1306
   66BOLB   C3C 1579  27.166  17.758  24.346  0.2616 -0.0337 -0.0866
   66BOLB   C4C 1580  26.749  17.691  24.289 -0.3353 -0.1038  0.1481
   66BOLB   C1D 1581  28.029  17.974  24.688  0.1456  0.3500 -0.0975
   66BOLB   C2D 1582  27.762  18.067  24.364 -0.0972 -0.0510 -0.0590
   66BOLB   C3D 1583  27.540  18.025  23.994  0.0649 -0.1639  0.0181
   66BOLB   C4D 1584  27.226  17.657  23.877  0.1250 -0.0087  0.2032
   67BOLB   NC1 1585  23.187  15.529  22.272 -0.2088  0.1598  0.3042
   67BOLB   PO1 1586  23.112  15.791  21.902 -0.3004  0.0431 -0.2165
   67BOLB   GL1 1587  23.291  16.098  22.096 -0.0378  0.1277  0.1885
   67BOLB   GL2 1588  22.997  16.131  22.321  0.3389  0.1802  0.2391
   67BOLB   C1A 1589  23.480  16.482  21.948 -0.3057 -0.1151  0.2990
   67BOLB   C2A 1590  23.353  16.842  21.627  0.1079  0.0654 -0.1238
   67BOLB   C3A 1591  23.333  17.184  21.453  0.2576 -0.0101  0.0644
   67BOLB   C4A 1592  23.593  17.486  21.576 -0.1654 -0.3811  0.0402
   67BOLB   C1B 1593  23.043  16.538  22.522 -0.1076  0.1120  0.0598
   67BOLB   C2B 1594  23.298  16.864  22.548  0.0715  0.0259 -0.0799
   67BOLB   C3B 1595  23.217  17.280  22.410 -0.2572 -0.1211  0.1915
   67BOLB   C4B 1596  23.123  17.615  22.179 -0.0393  0.2826  0.1197
   67BOLB   NC2 1597  23.509  15.395  21.387  0.1295  0.1735 -0.0328
   67BOLB   PO2 1598  23.895  15.371  21.350  0.2338  0.1672  0.0182
   67BOLB   GL3 1599  23.874  15.735  21.674 -0.0461 -0.1550 -0.0098
   67BOLB   GL4 1600  23.506  15.837  21.537 -0.0911  0.2394 -0.1726
   67BOLB   C1C 1601  23.794  16.051  21.935 -0.3066  0.1209  0.0523
   67BOLB   C2C 1602  23.959  16.509  21.994 -0.1582 -0.2688 -0.0346
   67BOLB   C3C 1603  23.820  16.876  21.916  0.2843  0.2436 -0.1890
   67BOLB   C4C 1604  23.877  17.230  21.785  0.2029 -0.1336 -0.1370
   67BOLB   C1D 1605  23.559  16.188  21.529  0.3963  0.1935  0.0837
   67BOLB   C2D 1606  23.804  16.551  21.467 -0.0604  0.0526 -0.1063
   67BOLB   C3D 1607  24.199  16.792  21.589 -0.0584  0.0625 -0.1556
   67BOLB   C4D 1608  24.321  17.135  21.558  0.0574  0.1776 -0.0037
   68BOLB   NC1 1609  30.444  24.666  15.694 -0.0145 -0.0992  0.2184
   68BOLB   PO1 1610  30.773  24.455  15.712  0.2228  0.0158  0.4024
   68BOLB   GL1 1611  30.638  24.280  15.414  0.0627  0.1196 -0.3603
   68BOLB   GL2 1612  30.450  24.080  15.617 -0.3508  0.0372 -0.4285
   68BOLB   C1A 1613  30.617  24.222  14.977  0.8969  0.0701  0.1458
   68BOLB   C2A 1614  30.620  24.137  14.525  0.1044  0.4201  0.0044
   68BOLB   C3A 1615  30.769  23.717  14.353  0.1792 -0.2487  0.2276
   68BOLB   C4A 1616  30.714  23.248  14.254 -0.2777 -0.1223  0.1150
   68BOLB   C1B 1617  30.797  23.826  15.264  0.3084 -0.2071  0.0192
   68BOLB   C2B 1618  31.221  23.558  15.029  0.1567 -0.1971 -0.2880
   68BOLB   C3B 1619  31.479  23.328  14.944 -0.3371 -0.1816 -0.0843
   68BOLB   C4B 1620  31.694  23.612  14.720 -0.0824 -0.0008 -0.1124
   68BOLB   NC2 1621  30.115  20.903  13.290  0.3010  0.0959  0.1463
   68BOLB   PO2 1622  29.881  21.067  12.863 -0.0134 -0.2801 -0.1369
   68BOLB   GL3 1623  30.056  21.391  13.112 -0.0265 -0.0819 -0.1380
   68BOLB   GL4 1624  30.123  21.672  13.096 -0.0886  0.0771  0.0011
   68BOLB   C1C 1625  30.215  21.675  13.556 -0.0068  0.1567 -0.0327
   68BOLB   C2C 1626  30.277  22.111  13.606  0.0944 -0.0758  0.1800
   68BOLB   C3C 1627  30.332  22.477  13.910  0.2682 -0.0542 -0.0064
   68BOLB   C4C 1628  30.559  22.993  13.972  0.3576 -0.1435 -0.0093
   68BOLB   C1D 1629  30.438  21.995  13.179 -0.2009 -0.1389  0.3339
   68BOLB   C2D 1630  30.331  22.470  13.086 -0.2541 -0.0111  0.1136
   68BOLB   C3D 1631  30.288  22.775  12.779  0.0606  0.2220 -0.1379
   68BOLB   C4D 1632  30.054  22.872  12.463  0.2030  0.0234 -0.2955
   69BOLB   NC1 1633  29.811  33.033  15.070 -0.2003 -0.0731  0.2641
   69BOLB   PO1 1634  30.043  33.253  14.712  0.2151  0.0815  0.2316
   69BOLB   GL1 1635  29.781  33.525  14.270  0.1486  0.2436  0.4430
   69BOLB   GL2 1636  29.460  33.711  14.370 -0.1547 -0.2498  0.0776
   69BOLB   C1A 1637  29.851  33.811  14.000  0.2464 -0.0456  0.1258
   69BOLB   C2A 1638  29.693  34.095  13.561  0.5223 -0.2389 -0.1914
   69BOLB   C3A 1639  29.857  34.358  13.275  0.0293  0.0319  0.0667
   69BOLB   C4A 1640  29.896  34.721  12.923  0.1092  0.0355 -0.2272
   69BOLB   C1B 1641  29.301  33.857  13.935  0.0324 -0.1791 -0.2869
   69BOLB   C2B 1642  29.272  33.856  13.524  0.1899 -0.2112  0.0612
   69BOLB   C3B 1643  29.189  34.030  13.203 -0.0811  0.2410 -0.2125
   69BOLB   C4B 1644  29.130  34.178  12.707 -0.1245  0.1205  0.2273
   69BOLB   NC2 1645  30.955  35.625  11.577  0.2915  0.3878 -0.1969
   69BOLB   PO2 1646  31.344  35.396  11.500  0.3027  0.0474 -0.2726
   69BOLB   GL3 1647  31.364  35.106  11.798 -0.2282  0.1179  0.1330
   69BOLB   GL4 1648  31.640  35.196  11.860 -0.0268  0.3283  0.0411
   69BOLB   C1C 1649  31.134  34.908  12.028  0.0147  0.1647 -0.0763
   69BOLB   C2C 1650  30.703  34.903  12.295 -0.2450  0.1105  0.0144
   69BOLB   C3C 1651  30.353  35.053  12.500 -0.1747 -0.0783 -0.1940
   69BOLB   C4C 1652  29.986  34.948  12.566  0.3384  0.2482 -0.0437
   69BOLB   C1D 1653  31.513  35.311  12.344  0.1277 -0.1311  0.1459
   69BOLB   C2D 1654  31.390  35.608  12.682  0.1404 -0.0003  0.2270
   69BOLB   C3D 1655  31.363  35.956  12.912  0.1557 -0.3306  0.0919
   69BOLB   C4D 1656  31.684  36.062  13.240  0.0264  0.1041  0.0568
   70BOLB   NC1 1657  32.394  23.577  23.561  0.2136  0.0329  0.0018
   70BOLB   PO1 1658  32.757  23.273  23.338 -0.2033  0.2296 -0.2354
   70BOLB   GL1 1659  32.921  22.836  23.303 -0.2172  0.0548  0.2279
   70BOLB   GL2 1660  32.801  22.625  23.488  0.1512 -0.2150 -0.2216
   70BOLB   C1A 1661  33.209  22.579  23.156 -0.1467  0.5809  0.3733
   70BOLB   C2A 1662  33.497  22.190  23.301 -0.1212 -0.3812  0.0280
   70BOLB   C3A 1663  33.779  21.906  23.601  0.2717  0.3037 -0.1445
   70BOLB   C4A 1664  34.054  21.608  23.423 -0.1571  0.1181  0.2239
   70BOLB   C1B 1665  33.186  22.367  23.653  0.1776 -0.3943  0.4496
   70BOLB   C2B 1666  33.278  21.999  23.695 -0.0665  0.3515 -0.1062
   70BOLB   C3B 1667  33.427  21.504  23.741 -0.2903 -0.0583 -0.0371
   70BOLB   C4B 1668  33.367  21.065  23.829 -0.6319 -0.2171 -0.0164
   70BOLB   NC2 1669  35.802  20.181  23.252 -0.1053  0.0429  0.0429
   70BOLB   PO2 1670  35.906  20.631  23.453  0.2067  0.1381 -0.2573
   70BOLB   GL3 1671  35.657  20.977  23.321  0.2070 -0.1813  0.0800
   70BOLB   GL4 1672  35.450  21.227  23.105 -0.0370  0.0583 -0.0924
   70BOLB   C1C 1673  35.537  21.402  23.537 -0.0092 -0.0832 -0.2200
   70BOLB   C2C 1674  35.212  21.456  23.667  0.0894 -0.0578 -0.4065
   70BOLB   C3C 1675  34.796  21.534  23.715  0.2130 -0.0016 -0.1335
   70BOLB   C4C 1676  34.373  21.399  23.663  0.3016  0.1226  0.3538
   70BOLB   C1D 1677  35.315  21.634  23.170 -0.0733  0.0919  0.0193
   70BOLB   C2D 1678  34.945  21.937  23.301  0.2414 -0.0392 -0.3220
   70BOLB   C3D 1679  34.553  22.201  23.440 -0.3108 -0.1598 -0.0009
   70BOLB   C4D 1680  34.329  22.595  23.336 -0.0478  0.1431 -0.1031
   71BOLB   NC1 1681  16.902  23.057   3.780  0.1901 -0.2579 -0.2953
   71BOLB   PO1 1682  16.779  23.553   3.658 -0.2958  0.2159 -0.1281
   71BOLB   GL1 1683  17.189  23.544   3.521 -0.0433 -0.0465 -0.1164
   71BOLB   GL2 1684  17.510  23.539   3.672 -0.4601 -0.6214  0.0309
   71BOLB   C1A 1685  17.595  23.378   3.238  0.0634  0.0384  0.2059
   71BOLB   C2A 1686  18.047  23.469   3.059 -0.3733  0.0123  0.0432
   71BOLB   C3A 1687  18.373  23.706   3.277 -0.1554  0.0271 -0.0134
   71BOLB   C4A 1688  18.230  24.127   3.418 -0.2074  0.2213 -0.4222
   71BOLB   C1B 1689  17.856  23.764   3.459 -0.0181  0.4563  0.1336
   71BOLB   C2B 1690  17.865  23.944   2.969  0.0007  0.0512 -0.0048
   71BOLB   C3B 1691  18.229  23.850   2.723 -0.2062 -0.0826  0.0162
   71BOLB   C4B 1692  18.484  23.921   2.559 -0.2657  0.0606 -0.0902
   71BOLB   NC2 1693  16.576  23.173   3.386  0.2136 -0.1666 -0.0694
   71BOLB   PO2 1694  16.461  22.864   3.131 -0.4749  0.2712  0.0583
   71BOLB   GL3 1695  16.799  23.176   2.919 -0.0621  0.2774 -0.0592
   71BOLB   GL4 1696  16.761  23.347   2.614  0.2462 -0.1593 -0.1003
   71BOLB   C1C 1697  17.121  23.570   2.919  0.0973  0.3253  0.1445
   71BOLB   C2C 1698  17.329  23.899   3.048 -0.2366  0.3695  0.1089
   71BOLB   C3C 1699  17.501  24.190   3.405  0.1080 -0.0105  0.1607
   71BOLB   C4C 1700  17.919  24.330   3.375 -0.2136  0.0846  0.0995
   71BOLB   C1D 1701  17.145  23.346   2.368  0.0314 -0.1447  0.0157
   71BOLB   C2D 1702  17.294  23.544   1.921 -0.2439 -0.1809  0.1930
   71BOLB   C3D 1703  17.526  23.622   1.636 -0.0312 -0.1094 -0.0221
   71BOLB   C4D 1704  17.948  23.716   1.812 -0.1984 -0.1604 -0.2723
   72BOLB   NC1 1705  30.847  33.865   1.337  0.0640  0.4099 -0.2831
   72BOLB   PO1 1706  31.136  33.667   1.533  0.2550  0.0785  0.3279
   72BOLB   GL1 1707  31.337  34.030   1.369  0.0098  0.3512  0.1628
   72BOLB   GL2 1708  31.168  34.273   1.523 -0.1122 -0.1335  0.4078
   72BOLB   C1A 1709  31.697  34.336   1.572  0.4542 -0.0104 -0.0268
   72BOLB   C2A 1710  31.859  34.663   1.788  0.2792  0.1981 -0.0805
   72BOLB   C3A 1711  32.034  34.944   2.070  0.1294 -0.1422 -0.1037
   72BOLB   C4A 1712  32.360  35.080   2.291  0.0068 -0.0917 -0.0084
   72BOLB   C1B 1713  31.256  34.485   1.927 -0.0989  0.0748  0.1120
   72BOLB   C2B 1714  31.235  34.532   2.280  0.0529  0.3297 -0.1175
   72BOLB   C3B 1715  31.245  34.630   2.782  0.0946 -0.5159 -0.1293
   72BOLB   C4B 1716  31.567  34.841   2.916  0.1936 -0.1995  0.1022
   72BOLB   NC2 1717  31.383  35.775   4.497  0.4647 -0.1619  0.3510
   72BOLB   PO2 1718  31.726  35.958   4.275 -0.1124  0.0339  0.0839
   72BOLB   GL3 1719  32.037  36.004   3.878 -0.0924  0.1861  0.0451
   72BOLB   GL4 1720  32.214  36.333   3.698  0.1960  0.0566  0.0799
   72BOLB   C1C 1721  32.282  35.796   3.655  0.0149 -0.1346  0.3047
   72BOLB   C2C 1722  32.561  35.760   3.283 -0.0741 -0.0072 -0.0044
   72BOLB   C3C 1723  32.499  35.537   3.027 -0.2836 -0.3713  0.2961
   72BOLB   C4C 1724  32.456  35.391   2.600  0.1140 -0.2717  0.3999
   72BOLB   C1D 1725  32.093  36.050   3.268 -0.0462 -0.3919  0.1278
   72BOLB   C2D 1726  31.984  35.683   3.094  0.1962 -0.2408 -0.0452
   72BOLB   C3D 1727  31.862  35.246   2.935 -0.0017  0.2029  0.2257
   72BOLB   C4D 1728  32.102  34.923   2.743  0.3307  0.1281 -0.1448
   73BOLB   NC1 1729  24.329  16.946   2.632 -0.1161 -0.1135  0.0966
   73BOLB   PO1 1730  24.071  16.665   2.359  0.1491 -0.0518 -0.0819
   73BOLB   GL1 1731  24.164  17.120   2.151 -0.0793  0.0310 -0.1984
   73BOLB   GL2 1732  24.459  17.139   2.184  0.0214  0.0278  0.1268
   73BOLB   C1A 1733  24.148  17.393   1.786 -0.1082  0.1693  0.2832
   73BOLB   C2A 1734  24.506  17.363   1.435 -0.1017  0.0584 -0.0356
   73BOLB   C3A 1735  24.295  17.563   1.079 -0.2065  0.4508 -0.0416
   73BOLB   C4A 1736  24.177  18.069   1.005  0.2301  0.0753 -0.0628
   73BOLB   C1B 1737  24.574  17.526   2.032 -0.2176  0.0861  0.1992
   73BOLB   C2B 1738  24.841  17.799   1.740  0.2122 -0.2480  0.2096
   73BOLB   C3B 1739  25.219  18.022   1.658 -0.1745 -0.0246 -0.1906
   73BOLB   C4B 1740  25.611  18.250   1.794 -0.1475  0.1270  0.2116
   73BOLB   NC2 1741  24.522  17.446   3.348 -0.0499  0.0391 -0.1049
   73BOLB   PO2 1742  24.255  17.219   3.007 -0.2392 -0.0068  0.4173
   73BOLB   GL3 1743  24.305  17.450   2.638  0.1448  0.1789  0.3791
   73BOLB   GL4 1744  24.682  17.568   2.860  0.2160  0.2190  0.1220
   73BOLB   C1C 1745  24.178  17.724   2.355  0.0121 -0.2628 -0.1055
   73BOLB   C2C 1746  24.061  17.852   1.947  0.4010  0.0731 -0.1037
   73BOLB   C3C 1747  23.880  18.159   1.675 -0.1620 -0.1102 -0.0934
   73BOLB   C4C 1748  23.896  18.261   1.276 -0.2731  0.1612  0.1674
   73BOLB   C1D 1749  24.651  17.777   2.456  0.0912 -0.0859 -0.0556
   73BOLB   C2D 1750  24.559  18.108   2.150  0.3450 -0.3070 -0.1095
   73BOLB   C3D 1751  24.415  18.452   1.787  0.1915  0.2601 -0.3116
   73BOLB   C4D 1752  24.597  18.934   1.740  0.0326  0.2532 -0.1330
   74BOLB   NC1 1753  27.012  15.650  25.486 -0.0930 -0.4052  0.2466
   74BOLB   PO1 1754  27.016  16.070  25.803 -0.1475 -0.1046 -0.0494
   74BOLB   GL1 1755  26.741  16.547  25.821  0.2359 -0.1036 -0.2286
   74BOLB   GL2 1756  26.633  16.662  25.570  0.2654 -0.2318  0.0123
   74BOLB   C1A 1757  26.321  16.720  26.028  0.0004 -0.2393  0.2086
   74BOLB   C2A 1758  25.948  17.077  26.093 -0.2347  0.0025 -0.1176
   74BOLB   C3A 1759  25.625  17.216  26.379  0.2068 -0.0848 -0.1240
   74BOLB   C4A 1760  25.266  17.432  26.366  0.0209  0.1444  0.0910
   74BOLB   C1B 1761  26.490  16.952  25.222  0.0681 -0.0274  0.0298
   74BOLB   C2B 1762  26.426  17.364  25.038 -0.0314 -0.1025 -0.0063
   74BOLB   C3B 1763  26.308  17.736  25.108  0.0165 -0.3902 -0.0465
   74BOLB   C4B 1764  26.349  18.180  24.993 -0.0579 -0.1898 -0.1433
   74BOLB   NC2 1765  24.316  16.084   0.479 -0.1135 -0.0491  0.0914
   74BOLB   PO2 1766  24.523  16.281   0.732 -0.1040  0.3175 -0.1572
   74BOLB   GL3 1767  24.332  16.641   0.645 -0.2556 -0.0087  0.0783
   74BOLB   GL4 1768  24.668  16.829   0.662 -0.4095 -0.0103  0.2247
   74BOLB   C1C 1769  24.269  16.815   0.373 -0.0289 -0.1494  0.0438
   74BOLB   C2C 1770  24.311  16.980  26.863 -0.1724 -0.3731  0.0483
   74BOLB   C3C 1771  24.634  17.214  26.605  0.1173 -0.0240 -0.1068
   74BOLB   C4C 1772  24.965  17.180  26.325  0.0221  0.3313 -0.2059
   74BOLB   C1D 1773  24.578  17.285   0.726  0.0348  0.1872 -0.1494
   74BOLB   C2D 1774  24.745  17.703   0.772 -0.2058 -0.1718  0.2085
   74BOLB   C3D 1775  25.144  17.844   0.954  0.0553 -0.2528 -0.2458
   74BOLB   C4D 1776  25.469  17.969   1.242  0.1657  0.0473  0.0779
   75BOLB   NC1 1777  15.923  23.601  16.738 -0.0846 -0.3896  0.3333
   75BOLB   PO1 1778  15.991  24.071  16.593 -0.2322 -0.2410  0.0284
   75BOLB   GL1 1779  16.130  24.001  16.997 -0.1214 -0.3206 -0.1576
   75BOLB   GL2 1780  16.265  23.724  17.149  0.1936 -0.1422  0.0858
   75BOLB   C1A 1781  16.159  24.213  17.400 -0.0454  0.0471 -0.0459
   75BOLB   C2A 1782  16.496  24.302  17.761 -0.1770 -0.0744  0.0744
   75BOLB   C3A 1783  16.841  24.394  18.073 -0.1038 -0.0916  0.1712
   75BOLB   C4A 1784  16.769  24.300  18.535  0.2635  0.4145  0.1550
   75BOLB   C1B 1785  16.551  23.843  17.485 -0.0921 -0.0845  0.0274
   75BOLB   C2B 1786  16.876  23.605  17.782  0.0313  0.1418  0.2828
   75BOLB   C3B 1787  16.947  23.496  18.234 -0.1157 -0.3258  0.1766
   75BOLB   C4B 1788  16.686  23.358  18.647  0.3636 -0.0340  0.0546
   75BOLB   NC2 1789  14.598  24.637  17.949  0.2301  0.1638  0.4909
   75BOLB   PO2 1790  14.741  24.182  18.073  0.2003  0.0407 -0.0445
   75BOLB   GL3 1791  14.988  24.353  18.456 -0.0557 -0.0190 -0.0396
   75BOLB   GL4 1792  15.159  24.115  18.394  0.1050 -0.0404 -0.2595
   75BOLB   C1C 1793  15.348  24.588  18.619  0.2618 -0.1218 -0.0057
   75BOLB   C2C 1794  15.715  24.736  18.737 -0.2140  0.1417  0.3009
   75BOLB   C3C 1795  16.044  24.472  18.850  0.4451  0.0251 -0.1347
   75BOLB   C4C 1796  16.491  24.324  18.760  0.1919 -0.1332  0.2423
   75BOLB   C1D 1797  15.399  23.844  18.488  0.1350 -0.2928 -0.0104
   75BOLB   C2D 1798  15.849  23.664  18.645 -0.1634 -0.0265 -0.0318
   75BOLB   C3D 1799  16.229  23.432  18.443  0.1794 -0.0447 -0.3976
   75BOLB   C4D 1800  16.371  22.971  18.578 -0.2781 -0.0307  0.3057
   76BOLB   NC1 1801  24.415  19.477   5.813  0.1984  0.0369 -0.3200
   76BOLB   PO1 1802  24.801  19.743   5.623 -0.2345 -0.2704 -0.2543
   76BOLB   GL1 1803  25.032  20.030   5.500 -0.1943  0.0888 -0.0525
   76BOLB   GL2 1804  25.359  19.985   5.734  0.1686 -0.1237  0.1039
   76BOLB   C1A 1805  25.062  20.443   5.495  0.1063 -0.1247  0.2251
   76BOLB   C2A 1806  24.853  20.856   5.256 -0.3602  0.0011 -0.0053
   76BOLB   C3A 1807  24.470  21.055   5.319  0.0889 -0.3301 -0.0073
   76BOLB   C4A 1808  24.423  21.436   5.454  0.1036  0.0668 -0.1504
   76BOLB   C1B 1809  25.531  20.420   5.597  0.0269  0.3061  0.0319
   76BOLB   C2B 1810  25.469  20.694   5.389  0.2244 -0.0945 -0.0722
   76BOLB   C3B 1811  25.354  20.830   5.028 -0.4863 -0.0175 -0.0915
   76BOLB   C4B 1812  25.158  20.604   4.739 -0.3062 -0.0383 -0.1869
   76BOLB   NC2 1813  24.573  21.806   7.846 -0.1138  0.3416 -0.2698
   76BOLB   PO2 1814  24.666  21.765   7.375  0.0308 -0.2430  0.4151
   76BOLB   GL3 1815  24.544  21.981   6.995 -0.1642  0.1127  0.0098
   76BOLB   GL4 1816  24.270  21.858   6.953 -0.0218  0.2101  0.0411
   76BOLB   C1C 1817  24.671  22.184   6.560 -0.1422 -0.1167 -0.0139
   76BOLB   C2C 1818  24.619  22.293   6.152  0.2059  0.1218 -0.1331
   76BOLB   C3C 1819  24.604  22.049   5.813 -0.0749 -0.2459 -0.0005
   76BOLB   C4C 1820  24.637  21.786   5.616 -0.3008 -0.2402  0.0052
   76BOLB   C1D 1821  24.152  22.005   6.560  0.4956 -0.1525  0.2104
   76BOLB   C2D 1822  24.088  22.269   6.224  0.1929  0.0084 -0.1672
   76BOLB   C3D 1823  24.156  22.290   5.845  0.0921  0.1113 -0.1261
   76BOLB   C4D 1824  24.175  22.261   5.444  0.2098  0.0806  0.3255
   77BOLB   NC1 1825  34.110  27.749   5.329 -0.2253  0.0268  0.0307
   77BOLB   PO1 1826  34.357  27.684   4.907  0.1282 -0.2251  0.1766
   77BOLB   GL1 1827  34.272  27.975   4.600  0.1247  0.0531 -0.0751
   77BOLB   GL2 1828  34.436  27.900   4.351 -0.1015  0.1958 -0.0100
   77BOLB   C1A 1829  33.893  28.199   4.530  0.3555 -0.1869  0.3267
   77BOLB   C2A 1830  33.778  28.515   4.450  0.0330  0.2477  0.6650
   77BOLB   C3A 1831  33.970  28.859   4.109  0.1989  0.1729  0.3154
   77BOLB   C4A 1832  33.799  29.208   3.715  0.0413  0.2506  0.0607
   77BOLB   C1B 1833  34.422  27.884   3.948  0.1317 -0.0207  0.0732
   77BOLB   C2B 1834  34.088  27.890   3.542 -0.2321 -0.1038 -0.0282
   77BOLB   C3B 1835  34.171  27.712   3.034  0.1560 -0.0092 -0.0277
   77BOLB   C4B 1836  34.193  27.437   2.651 -0.0920  0.0003  0.2305
   77BOLB   NC2 1837  33.944  29.141   5.603  0.1276  0.1493 -0.1373
   77BOLB   PO2 1838  34.158  29.024   5.320 -0.0517 -0.1034  0.0241
   77BOLB   GL3 1839  33.911  29.297   5.108 -0.1904 -0.2890 -0.0497
   77BOLB   GL4 1840  34.039  29.499   5.011  0.2003  0.0306 -0.1897
   77BOLB   C1C 1841  33.518  29.435   4.911 -0.0247  0.3040 -0.2570
   77BOLB   C2C 1842  33.445  29.563   4.541 -0.1163  0.0934 -0.0843
   77BOLB   C3C 1843  33.570  29.763   4.151  0.1315 -0.1138  0.4570
   77BOLB   C4C 1844  33.681  29.660   3.775 -0.0904 -0.1082 -0.0794
   77BOLB   C1D 1845  33.929  29.380   4.588 -0.0508 -0.0294  0.4343
   77BOLB   C2D 1846  33.667  29.300   4.200  0.2553  0.2570  0.2334
   77BOLB   C3D 1847  33.456  29.070   4.019  0.2105  0.2096 -0.0983
   77BOLB   C4D 1848  33.085  28.916   4.127 -0.2121  0.0886 -0.2483
   78BOLB   NC1 1849  21.032  19.884   4.526 -0.1470 -0.2452 -0.0064
   78BOLB   PO1 1850  21.155  20.418   4.737  0.2198 -0.0341 -0.0041
   78BOLB   GL1 1851  21.362  20.877   4.733 -0.2783  0.0085  0.0136
   78BOLB   GL2 1852  21.298  21.157   4.826 -0.1939  0.3094  0.0248
   78BOLB   C1A 1853  21.730  21.006   4.515  0.0594 -0.0399  0.0197
   78BOLB   C2A 1854  21.927  21.347   4.285 -0.4484  0.0090 -0.1083
   78BOLB   C3A 1855  21.929  21.821   4.224  0.2248  0.1315 -0.0614
   78BOLB   C4A 1856  22.016  22.214   4.184 -0.1883  0.0378 -0.1246
   78BOLB   C1B 1857  21.362  21.325   4.423  0.1609  0.2245 -0.1113
   78BOLB   C2B 1858  21.473  21.587   4.122 -0.0464  0.2697 -0.2339
   78BOLB   C3B 1859  21.795  21.540   3.869  0.0678 -0.2660  0.0703
   78BOLB   C4B 1860  22.159  21.513   3.890 -0.1663  0.1645  0.1135
   78BOLB   NC2 1861  19.991  21.553   4.552  0.1504  0.1959  0.3700
   78BOLB   PO2 1862  20.106  21.541   5.056 -0.1992  0.0018  0.3139
   78BOLB   GL3 1863  20.324  21.920   4.866  0.0143 -0.3685  0.2009
   78BOLB   GL4 1864  20.172  22.202   4.976 -0.2380 -0.1149 -0.1239
   78BOLB   C1C 1865  20.488  22.119   4.516 -0.2769 -0.2649  0.1310
   78BOLB   C2C 1866  20.835  22.264   4.458  0.0646  0.1401 -0.3753
   78BOLB   C3C 1867  21.164  22.280   4.154 -0.1464  0.0272  0.0929
   78BOLB   C4C 1868  21.571  22.528   4.084  0.0116 -0.1914  0.0078
   78BOLB   C1D 1869  20.425  22.535   4.875  0.2145  0.1305  0.2429
   78BOLB   C2D 1870  20.839  22.680   4.904  0.3936 -0.0540 -0.4414
   78BOLB   C3D 1871  21.145  22.612   4.568  0.2154 -0.1964  0.0625
   78BOLB   C4D 1872  21.411  22.877   4.327  0.0360 -0.3089 -0.3159
   79BOLB   NC1 1873  15.524  20.625  20.435 -0.1872  0.2359 -0.1944
   79BOLB   PO1 1874  15.700  20.634  19.966 -0.1640 -0.0307  0.2124
   79BOLB   GL1 1875  16.090  20.854  20.146 -0.0403  0.1159 -0.0204
   79BOLB   GL2 1876  16.046  20.826  20.484 -0.1515 -0.1173 -0.2227
   79BOLB   C1A 1877  16.026  21.240  20.132 -0.1317 -0.0823 -0.0407
   79BOLB   C2A 1878  16.105  21.601  20.182 -0.0778  0.1166  0.1005
   79BOLB   C3A 1879  16.151  22.061  19.990  0.2890  0.0567  0.1817
   79BOLB   C4A 1880  16.087  22.438  20.076  0.0524  0.0869 -0.2779
   79BOLB   C1B 1881  16.527  20.765  20.509  0.0577  0.0330 -0.1067
   79BOLB   C2B 1882  16.820  20.633  20.282  0.0535 -0.2875  0.1548
   79BOLB   C3B 1883  17.205  20.504  20.351  0.0712 -0.1258  0.1484
   79BOLB   C4B 1884  17.563  20.796  20.424 -0.0637  0.0232 -0.3285
   79BOLB   NC2 1885  13.476  22.943  20.555 -0.3206  0.1473 -0.3155
   79BOLB   PO2 1886  13.941  23.001  20.606 -0.2551 -0.0362 -0.2813
   79BOLB   GL3 1887  14.324  23.299  20.441 -0.0303 -0.0356 -0.1119
   79BOLB   GL4 1888  14.484  23.114  20.619 -0.1438  0.2641 -0.0689
   79BOLB   C1C 1889  14.617  23.332  20.034  0.0494 -0.0033  0.3137
   79BOLB   C2C 1890  15.062  23.345  19.897  0.0131 -0.0339 -0.0947
   79BOLB   C3C 1891  15.417  23.103  19.914 -0.2776  0.2032  0.1886
   79BOLB   C4C 1892  15.803  22.768  19.965  0.0190  0.0024  0.3722
   79BOLB   C1D 1893  14.675  23.515  20.882  0.2451  0.1397  0.2642
   79BOLB   C2D 1894  14.826  23.770  21.187  0.0920  0.1173 -0.5582
   79BOLB   C3D 1895  15.032  24.196  21.282 -0.0216 -0.3265  0.1774
   79BOLB   C4D 1896  15.326  24.537  21.276  0.0389  0.2678 -0.0740
   80BOLB   NC1 1897  18.694  37.936  24.641 -0.0128  0.0146 -0.1680
   80BOLB   PO1 1898  19.119  37.939  24.800 -0.1171 -0.0319 -0.0572
   80BOLB   GL1 1899  19.524  37.871  24.928 -0.0141 -0.4106 -0.2982
   80BOLB   GL2 1900  19.857  37.962  24.740  0.0068 -0.4633  0.1441
   80BOLB   C1A 1901  19.851  37.571  25.002 -0.0292 -0.0297 -0.1037
   80BOLB   C2A 1902  20.262  37.398  25.041 -0.0474  0.0270 -0.0158
   80BOLB   C3A 1903  20.643  37.302  25.191 -0.0802 -0.0491  0.1199
   80BOLB   C4A 1904  20.859  37.440  25.626  0.1746 -0.1175 -0.0386
   80BOLB   C1B 1905  20.349  37.854  24.750  0.0558 -0.0356 -0.4054
   80BOLB   C2B 1906  20.751  37.666  24.841  0.0285 -0.2566 -0.0322
   80BOLB   C3B 1907  21.107  37.508  25.014 -0.0481 -0.3732  0.2069
   80BOLB   C4B 1908  21.472  37.343  25.038 -0.1585  0.3958  0.5038
   80BOLB   NC2 1909  20.575  38.733   0.313 -0.0023 -0.0591 -0.0927
   80BOLB   PO2 1910  20.942  38.920   0.179 -0.2114 -0.0324 -0.2203
   80BOLB   GL3 1911  20.946  38.432   0.328  0.2364 -0.0555 -0.2928
   80BOLB   GL4 1912  21.264  38.317   0.480  0.2134 -0.4475 -0.0887
   80BOLB   C1C 1913  20.954  38.084   0.077  0.1037  0.0928  0.1777
   80BOLB   C2C 1914  20.985  37.809  26.629  0.0671  0.0533 -0.0913
   80BOLB   C3C 1915  20.862  37.595  26.376  0.1468  0.0892 -0.1145
   80BOLB   C4C 1916  20.788  37.571  25.986  0.0223  0.2798  0.0678
   80BOLB   C1D 1917  21.574  38.059   0.733  0.0966  0.0877  0.2093
   80BOLB   C2D 1918  21.936  37.779   0.631 -0.2561 -0.3162  0.0499
   80BOLB   C3D 1919  22.197  37.646   0.379 -0.0557  0.1965  0.0531
   80BOLB   C4D 1920  22.234  37.162   0.444 -0.4981  0.0913  0.3331
   81BOLB   NC1 1921  20.841  17.063  26.079 -0.0674  0.0906 -0.1481
   81BOLB   PO1 1922  20.996  17.418  26.303 -0.1025  0.3663  0.3161
   81BOLB   GL1 1923  21.051  17.707  26.010 -0.0732  0.0148  0.0127
   81BOLB   GL2 1924  20.791  17.872  26.014  0.3156 -0.1905 -0.1176
   81BOLB   C1A 1925  21.072  17.929  25.569  0.0945 -0.1194 -0.1141
   81BOLB   C2A 1926  21.421  18.189  25.458 -0.2466  0.0054 -0.3220
   81BOLB   C3A 1927  21.327  18.599  25.245  0.0697 -0.0013 -0.0448
   81BOLB   C4A 1928  21.204  19.006  25.419  0.6170 -0.0263 -0.1891
   81BOLB   C1B 1929  21.126  18.272  25.908  0.0795 -0.0940  0.1779
   81BOLB   C2B 1930  21.420  18.616  25.977 -0.1290 -0.1434  0.1581
   81BOLB   C3B 1931  21.673  19.049  26.169  0.2717  0.1649 -0.0306
   81BOLB   C4B 1932  21.949  19.333  26.403  0.3473 -0.1833  0.0187
   81BOLB   NC2 1933  20.194  17.908  26.812  0.1312  0.1212  0.0274
   81BOLB   PO2 1934  19.978  17.875  26.419 -0.0314 -0.1654  0.0441
   81BOLB   GL3 1935  19.731  18.236  26.256 -0.0777  0.0886 -0.1815
   81BOLB   GL4 1936  19.629  18.308  25.905 -0.1585  0.0793  0.0110
   81BOLB   C1C 1937  19.911  18.606  26.212 -0.1804 -0.3671  0.2556
   81BOLB   C2C 1938  20.130  18.864  25.968  0.0897 -0.0294  0.3704
   81BOLB   C3C 1939  20.417  19.001  25.729 -0.2705 -0.0660  0.1176
   81BOLB   C4C 1940  20.860  19.317  25.615  0.1179 -0.0247  0.0173
   81BOLB   C1D 1941  20.087  18.240  25.869 -0.4048 -0.0555  0.2121
   81BOLB   C2D 1942  20.549  18.317  25.931 -0.3342 -0.2411 -0.3061
   81BOLB   C3D 1943  20.878  18.283  26.381  0.0066  0.0741 -0.3091
   81BOLB   C4D 1944  21.225  18.448  26.524 -0.4022 -0.3579 -0.1559
   82BOLB   NC1 1945  29.744  33.916  14.701 -0.1710  0.0242 -0.1574
   82BOLB   PO1 1946  30.166  33.785  14.573 -0.2072  0.1049  0.3840
   82BOLB   GL1 1947  30.335  33.781  14.214 -0.0452 -0.0918 -0.1456
   82BOLB   GL2 1948  30.654  33.788  14.340  0.1691 -0.0727 -0.1672
   82BOLB   C1A 1949  30.347  34.037  13.908  0.1736  0.3253 -0.2411
   82BOLB   C2A 1950  30.763  34.276  13.727  0.1595  0.0709  0.3451
   82BOLB   C3A 1951  31.217  34.369  13.939  0.0957 -0.0807  0.0385
   82BOLB   C4A 1952  31.383  34.716  13.927 -0.2917  0.2748  0.1122
   82BOLB   C1B 1953  30.808  34.067  14.204  0.0867  0.2106  0.0109
   82BOLB   C2B 1954  30.957  34.527  14.337  0.4038 -0.3304  0.1411
   82BOLB   C3B 1955  30.982  35.006  14.311  0.0607 -0.0556 -0.0645
   82BOLB   C4B 1956  30.988  35.298  13.961 -0.2789 -0.1247 -0.0195
   82BOLB   NC2 1957  33.013  35.451  12.289  0.2102  0.0748  0.0437
   82BOLB   PO2 1958  32.812  35.863  12.245 -0.0651  0.0259  0.3204
   82BOLB   GL3 1959  32.686  35.642  12.563 -0.0353  0.0680 -0.2328
   82BOLB   GL4 1960  32.491  35.436  12.311  0.0696  0.1437  0.1456
   82BOLB   C1C 1961  32.496  35.353  12.840 -0.1627  0.0819  0.2950
   82BOLB   C2C 1962  32.146  35.263  13.122 -0.1798  0.0688 -0.2256
   82BOLB   C3C 1963  31.905  35.144  13.483 -0.2002  0.1538  0.2016
   82BOLB   C4C 1964  31.704  34.758  13.672 -0.1858 -0.3026  0.1921
   82BOLB   C1D 1965  32.210  35.167  12.467  0.0470 -0.1441  0.2323
   82BOLB   C2D 1966  31.836  35.033  12.650  0.2713  0.1354 -0.0779
   82BOLB   C3D 1967  31.404  35.152  12.805 -0.1528 -0.1669  0.1950
   82BOLB   C4D 1968  31.096  35.396  13.079 -0.2131 -0.3367  0.1856
   83BOLB   NC1 1969  13.479  24.126  23.308  0.0949  0.4563  0.1901
   83BOLB   PO1 1970  13.368  23.673  23.126  0.0824  0.4143  0.0526
   83BOLB   GL1 1971  13.807  23.755  23.161 -0.3232 -0.0663 -0.2204
   83BOLB   GL2 1972  13.838  23.765  23.471  0.1649  0.2074  0.2995
   83BOLB   C1A 1973  14.233  23.973  23.029  0.3256  0.2287 -0.0146
   83BOLB   C2A 1974  14.455  24.353  22.944 -0.2385 -0.2961  0.1641
   83BOLB   C3A 1975  14.807  24.556  23.251  0.3051  0.1485  0.0563
   83BOLB   C4A 1976  15.185  24.773  23.335  0.0756 -0.2549  0.3606
   83BOLB   C1B 1977  14.017  24.155  23.618 -0.2743  0.0425 -0.0022
   83BOLB   C2B 1978  14.389  24.447  23.502  0.0319  0.2317  0.1498
   83BOLB   C3B 1979  14.609  24.773  23.646  0.0461 -0.0460 -0.3716
   83BOLB   C4B 1980  14.954  25.044  23.813  0.0581 -0.2025  0.0706
   83BOLB   NC2 1981  12.982  26.183  23.562 -0.5075 -0.2357  0.0357
   83BOLB   PO2 1982  13.273  25.907  23.638 -0.0699 -0.0099 -0.0706
   83BOLB   GL3 1983  13.760  25.923  23.703 -0.1787  0.0987  0.1640
   83BOLB   GL4 1984  13.923  25.939  24.119 -0.2005  0.0619 -0.1406
   83BOLB   C1C 1985  14.077  25.805  23.468 -0.1696 -0.2018  0.0669
   83BOLB   C2C 1986  14.483  25.684  23.543  0.0671 -0.1099  0.0709
   83BOLB   C3C 1987  14.954  25.539  23.618  0.1630  0.0805 -0.2450
   83BOLB   C4C 1988  15.280  25.245  23.442 -0.1795 -0.0260 -0.0488
   83BOLB   C1D 1989  14.259  26.187  24.129  0.1685  0.2680  0.5156
   83BOLB   C2D 1990  14.589  26.178  24.196 -0.2556 -0.3082 -0.1252
   83BOLB   C3D 1991  14.915  25.910  24.159  0.0496  0.2907 -0.0931
   83BOLB   C4D 1992  15.168  25.528  24.077 -0.1386  0.2225  0.0217
   84BOLB   NC1 1993  18.396  29.636   5.781  0.1562 -0.2483  0.0568
   84BOLB   PO1 1994  18.068  29.753   5.544 -0.0617 -0.0857 -0.1789
   84BOLB   GL1 1995  18.313  29.800   5.252  0.0324 -0.2150  0.0513
   84BOLB   GL2 1996  18.252  30.015   4.912  0.0900  0.1744  0.0941
   84BOLB   C1A 1997  18.622  29.527   4.969 -0.2771  0.1552 -0.0515
   84BOLB   C2A 1998  18.963  29.413   4.812 -0.3470  0.1716  0.1251
   84BOLB   C3A 1999  19.347  29.634   4.630  0.1344 -0.2682  0.2331
   84BOLB   C4A 2000  19.611  29.844   4.587  0.1566 -0.2010 -0.0801
   84BOLB   C1B 2001  18.579  29.910   4.492 -0.0512  0.2080 -0.0731
   84BOLB   C2B 2002  18.947  29.691   4.261 -0.0319 -0.0082 -0.1532
   84BOLB   C3B 2003  19.293  29.965   3.981 -0.0499  0.3210 -0.1112
   84BOLB   C4B 2004  19.334  30.354   3.751  0.1092 -0.1111 -0.1963
   84BOLB   NC2 2005  20.703  31.026   6.087 -0.0394  0.0387  0.0250
   84BOLB   PO2 2006  20.733  30.631   6.351  0.0522 -0.1369 -0.2741
   84BOLB   GL3 2007  20.486  30.501   6.110 -0.0283 -0.1439  0.1235
   84BOLB   GL4 2008  20.301  30.333   6.150  0.1713 -0.0267 -0.1482
   84BOLB   C1C 2009  20.538  30.388   5.730 -0.2079 -0.2578 -0.3701
   84BOLB   C2C 2010  20.486  30.134   5.393 -0.1993  0.3399 -0.1082
   84BOLB   C3C 2011  20.118  29.776   5.251 -0.0694  0.2247 -0.2922
   84BOLB   C4C 2012  19.915  29.802   4.886 -0.0375  0.5580 -0.0906
   84BOLB   C1D 2013  20.342  29.923   5.870  0.3987 -0.1604  0.1103
   84BOLB   C2D 2014  20.576  29.680   5.612 -0.2174  0.3281  0.0036
   84BOLB   C3D 2015  21.027  29.471   5.522 -0.1553  0.1713 -0.0590
   84BOLB   C4D 2016  21.036  29.065   5.341  0.0005  0.0087  0.2340
   85BOLB   NC1 2017  24.033  27.750  14.806  0.0665 -0.3258  0.0021
   85BOLB   PO1 2018  24.295  27.441  14.454  0.0522  0.0067  0.1465
   85BOLB   GL1 2019  24.141  27.136  14.181  0.0920  0.0385  0.1274
   85BOLB   GL2 2020  24.038  26.843  14.307 -0.1245 -0.2079  0.0558
   85BOLB   C1A 2021  23.956  27.068  13.855  0.0939 -0.1283 -0.1515
   85BOLB   C2A 2022  23.703  26.874  13.585  0.0144 -0.3919  0.2970
   85BOLB   C3A 2023  23.729  26.508  13.226 -0.2252  0.0856  0.0651
   85BOLB   C4A 2024  23.499  26.362  12.932 -0.2045 -0.0002 -0.2968
   85BOLB   C1B 2025  23.996  26.510  14.077  0.3197  0.1478  0.0808
   85BOLB   C2B 2026  23.791  26.090  14.031  0.1880 -0.0526 -0.0388
   85BOLB   C3B 2027  23.702  25.722  14.145  0.0372  0.0667 -0.4334
   85BOLB   C4B 2028  23.381  25.487  14.064 -0.1280 -0.4111  0.0415
   85BOLB   NC2 2029  21.703  25.810  11.538  0.2885  0.2298 -0.0842
   85BOLB   PO2 2030  22.025  25.661  11.452  0.0545 -0.3090 -0.1105
   85BOLB   GL3 2031  22.230  25.767  11.820  0.1853 -0.0528  0.2977
   85BOLB   GL4 2032  22.079  25.923  11.968 -0.1137 -0.0430 -0.2276
   85BOLB   C1C 2033  22.569  25.525  11.923 -0.0111 -0.0194  0.1517
   85BOLB   C2C 2034  22.861  25.621  12.189  0.0221  0.0270  0.2704
   85BOLB   C3C 2035  23.068  25.934  12.540 -0.1607 -0.1493 -0.0185
   85BOLB   C4C 2036  23.203  26.252  12.631  0.2073 -0.1815 -0.1333
   85BOLB   C1D 2037  22.352  26.064  12.342  0.1854  0.0783 -0.0601
   85BOLB   C2D 2038  22.629  26.208  12.608 -0.3689 -0.0370 -0.1336
   85BOLB   C3D 2039  22.978  26.035  12.996 -0.1392  0.1675  0.0708
   85BOLB   C4D 2040  22.946  26.088  13.451  0.4020 -0.2741 -0.1043
   86BOLB   NC1 2041  13.321  26.248  25.668  0.1445 -0.3802  0.1271
   86BOLB   PO1 2042  13.144  26.122  25.241  0.2617 -0.2198 -0.3182
   86BOLB   GL1 2043  13.541  26.070  25.201 -0.2001  0.0553 -0.1266
   86BOLB   GL2 2044  13.768  26.003  25.507  0.6121  0.2529 -0.0387
   86BOLB   C1A 2045  13.811  26.385  25.070 -0.0104  0.1104  0.2157
   86BOLB   C2A 2046  14.236  26.425  25.024 -0.1036 -0.0396 -0.1308
   86BOLB   C3A 2047  14.689  26.664  25.084 -0.2604 -0.2450  0.1479
   86BOLB   C4A 2048  14.769  26.966  25.149  0.3172 -0.1768  0.1354
   86BOLB   C1B 2049  14.227  26.026  25.564 -0.0798  0.0386  0.2627
   86BOLB   C2B 2050  14.590  26.144  25.354  0.3068  0.0795 -0.0698
   86BOLB   C3B 2051  14.892  26.148  25.057  0.0087  0.1094  0.0478
   86BOLB   C4B 2052  15.197  26.427  24.965  0.2216  0.1784  0.2750
   86BOLB   NC2 2053  13.042  28.394  26.199  0.3822  0.2054 -0.1900
   86BOLB   PO2 2054  13.204  28.030  26.353 -0.4200 -0.0250  0.0371
   86BOLB   GL3 2055  13.546  27.836  26.057  0.2758  0.0404  0.4589
   86BOLB   GL4 2056  13.822  28.130  26.065 -0.0230  0.0701 -0.0558
   86BOLB   C1C 2057  13.921  27.909  25.661  0.0663 -0.4632  0.0541
   86BOLB   C2C 2058  14.009  27.689  25.207 -0.1324 -0.1377  0.3877
   86BOLB   C3C 2059  14.384  27.617  24.927  0.0017 -0.0795  0.1653
   86BOLB   C4C 2060  14.785  27.293  24.962 -0.2210 -0.1761  0.4379
   86BOLB   C1D 2061  14.275  28.018  26.018 -0.1875  0.0900 -0.1330
   86BOLB   C2D 2062  14.626  28.038  25.847  0.1534 -0.0899  0.0424
   86BOLB   C3D 2063  14.978  27.714  25.826 -0.2191  0.0297  0.2225
   86BOLB   C4D 2064  15.033  27.445  26.205  0.2459  0.0828  0.2240
   87BOLB   NC1 2065  25.120  32.889  15.303  0.1461  0.0852  0.2453
   87BOLB   PO1 2066  25.256  33.002  14.902 -0.0062 -0.1127 -0.2981
   87BOLB   GL1 2067  25.044  33.410  14.600 -0.0895 -0.3370 -0.2616
   87BOLB   GL2 2068  24.891  33.222  14.348 -0.1520 -0.3142 -0.2430
   87BOLB   C1A 2069  25.003  33.777  14.274 -0.2479 -0.0219 -0.5345
   87BOLB   C2A 2070  25.074  33.968  13.900  0.4600 -0.0496  0.4549
   87BOLB   C3A 2071  24.872  34.114  13.507 -0.2763 -0.0656 -0.0731
   87BOLB   C4A 2072  24.817  34.288  13.105  0.1507 -0.1084 -0.2946
   87BOLB   C1B 2073  24.878  33.340  13.955  0.1479  0.5042 -0.1548
   87BOLB   C2B 2074  24.758  33.476  13.490  0.1944  0.1558  0.0843
   87BOLB   C3B 2075  25.010  33.745  13.196 -0.1438 -0.0521 -0.0658
   87BOLB   C4B 2076  25.404  33.866  12.983  0.1163 -0.1575  0.1181
   87BOLB   NC2 2077  24.284  35.141  10.419 -0.0303 -0.1805 -0.0244
   87BOLB   PO2 2078  24.165  34.974  10.862  0.1102 -0.3385 -0.0425
   87BOLB   GL3 2079  24.121  34.760  11.261 -0.0205  0.0915 -0.1746
   87BOLB   GL4 2080  24.253  34.534  11.117 -0.1862 -0.0572  0.0119
   87BOLB   C1C 2081  24.489  34.629  11.544  0.0292  0.3545  0.1376
   87BOLB   C2C 2082  24.735  34.610  11.942 -0.2219  0.1307 -0.2290
   87BOLB   C3C 2083  25.027  34.671  12.325  0.1279 -0.0230  0.0035
   87BOLB   C4C 2084  24.907  34.650  12.764 -0.2071 -0.0189  0.0404
   87BOLB   C1D 2085  24.190  34.228  11.514  0.0264 -0.3302  0.0343
   87BOLB   C2D 2086  24.338  33.817  11.757 -0.1008 -0.2531 -0.1570
   87BOLB   C3D 2087  24.642  33.619  11.992 -0.3199 -0.2147  0.0963
   87BOLB   C4D 2088  24.925  33.462  12.214 -0.3372  0.0802 -0.0678
   88BOLB   NC1 2089  35.682  35.941   2.995 -0.2782 -0.0289  0.2666
   88BOLB   PO1 2090  35.559  35.653   2.546  0.0689  0.0454  0.1969
   88BOLB   GL1 2091  35.088  35.410   2.571 -0.0840  0.1209  0.2006
   88BOLB   GL2 2092  35.325  35.093   2.616 -0.1487  0.0666 -0.2959
   88BOLB   C1A 2093  34.623  35.150   2.470  0.0888 -0.0119  0.2534
   88BOLB   C2A 2094  34.371  34.788   2.620  0.2804 -0.2079 -0.1639
   88BOLB   C3A 2095  34.052  34.623   2.718 -0.0009  0.1060 -0.1137
   88BOLB   C4A 2096  33.665  34.379   2.849  0.1007  0.1236  0.1790
   88BOLB   C1B 2097  35.092  34.773   2.501  0.1783  0.0525  0.1327
   88BOLB   C2B 2098  34.676  34.536   2.329  0.2470 -0.2700  0.0935
   88BOLB   C3B 2099  34.392  34.438   2.083  0.1826  0.0492  0.0098
   88BOLB   C4B 2100  34.292  34.304   1.700  0.1428 -0.1168  0.1571
   88BOLB   NC2 2101  33.151  35.630   4.803  0.3790 -0.0299 -0.2727
   88BOLB   PO2 2102  33.352  35.810   4.469 -0.0665  0.0353 -0.2381
   88BOLB   GL3 2103  33.180  35.552   4.309  0.0539  0.1593  0.1556
   88BOLB   GL4 2104  33.092  35.169   4.449 -0.2977 -0.2252  0.3057
   88BOLB   C1C 2105  32.945  35.329   3.973 -0.1404 -0.0819 -0.1945
   88BOLB   C2C 2106  32.965  35.060   3.671 -0.2123  0.1289  0.1898
   88BOLB   C3C 2107  33.158  34.786   3.426 -0.0795 -0.1365  0.1939
   88BOLB   C4C 2108  33.393  34.544   3.157 -0.0071 -0.0772  0.2001
   88BOLB   C1D 2109  32.660  35.158   4.338 -0.1987  0.3060 -0.4047
   88BOLB   C2D 2110  32.559  34.935   3.924 -0.3700  0.5454  0.0350
   88BOLB   C3D 2111  32.516  34.808   3.526  0.1682 -0.4782 -0.3207
   88BOLB   C4D 2112  32.397  34.776   3.111 -0.1002 -0.2020  0.0813
   89BOLB   NC1 2113  24.350  17.709   4.149  0.2806 -0.2637  0.2786
   89BOLB   PO1 2114  24.020  17.664   3.859 -0.1107  0.1239 -0.0785
   89BOLB   GL1 2115  24.115  17.925   3.424  0.0949 -0.0858  0.0473
   89BOLB   GL2 2116  24.111  18.202   3.584 -0.2053  0.0235 -0.2900
   89BOLB   C1A 2117  24.498  18.211   3.319 -0.1027 -0.1773  0.0718
   89BOLB   C2A 2118  24.652  18.502   2.973  0.0329 -0.4695  0.3197
   89BOLB   C3A 2119  24.756  18.915   2.796 -0.1231 -0.0425 -0.0845
   89BOLB   C4A 2120  25.075  19.332   2.705 -0.1628  0.1488 -0.2029
   89BOLB   C1B 2121  24.277  18.633   3.497  0.3172  0.3765  0.1870
   89BOLB   C2B 2122  24.558  18.894   3.291 -0.0758  0.1430 -0.0437
   89BOLB   C3B 2123  24.930  19.129   3.203 -0.0131  0.4216 -0.1108
   89BOLB   C4B 2124  25.274  18.899   3.079 -0.2694  0.0010 -0.1525
   89BOLB   NC2 2125  24.527  18.534   4.729  0.0618  0.3679  0.0245
   89BOLB   PO2 2126  24.877  18.210   4.559  0.2357 -0.0309 -0.0331
   89BOLB   GL3 2127  24.949  18.600   4.423  0.1733  0.0658 -0.0504
   89BOLB   GL4 2128  24.857  18.888   4.617  0.0564 -0.1756 -0.1088
   89BOLB   C1C 2129  25.010  19.009   4.163 -0.0276 -0.0231 -0.2830
   89BOLB   C2C 2130  25.018  19.405   3.956  0.1728 -0.0981  0.2937
   89BOLB   C3C 2131  25.099  19.541   3.576  0.1856  0.2036 -0.1245
   89BOLB   C4C 2132  25.244  19.473   3.084  0.3179  0.1955  0.1103
   89BOLB   C1D 2133  24.877  19.365   4.467 -0.1136 -0.1092 -0.0894
   89BOLB   C2D 2134  25.277  19.625   4.277  0.4620  0.0826 -0.0849
   89BOLB   C3D 2135  25.448  19.937   3.991 -0.1532  0.0695 -0.1052
   89BOLB   C4D 2136  25.723  20.163   3.786 -0.1905 -0.0656 -0.1135
   90BOLB   NC1 2137  13.554  27.317  20.746 -0.1307  0.1534  0.1825
   90BOLB   PO1 2138  13.365  27.596  20.935  0.0555 -0.0759 -0.0062
   90BOLB   GL1 2139  13.690  27.547  21.236  0.0770 -0.0330 -0.0093
   90BOLB   GL2 2140  13.937  27.572  20.987 -0.1586 -0.0010  0.0992
   90BOLB   C1A 2141  14.040  27.526  21.440  0.2009 -0.2852  0.0469
   90BOLB   C2A 2142  14.418  27.235  21.638 -0.1115 -0.0098 -0.3244
   90BOLB   C3A 2143  14.668  27.074  22.028  0.1486  0.2228  0.0618
   90BOLB   C4A 2144  14.737  26.701  22.345 -0.0192 -0.0774  0.1311
   90BOLB   C1B 2145  14.227  27.373  21.047 -0.0555  0.1382  0.0711
   90BOLB   C2B 2146  14.668  27.153  21.092  0.3367  0.0341  0.2554
   90BOLB   C3B 2147  15.125  27.318  21.088  0.3622  0.0149 -0.0553
   90BOLB   C4B 2148  15.372  27.685  21.091 -0.3037 -0.2480  0.2263
   90BOLB   NC2 2149  12.848  26.310  22.317  0.1283  0.0399 -0.1005
   90BOLB   PO2 2150  13.021  25.957  22.558  0.0021 -0.0907 -0.0074
   90BOLB   GL3 2151  13.245  25.760  22.907 -0.3009  0.2002  0.1316
   90BOLB   GL4 2152  13.308  25.461  22.957 -0.1070 -0.2417  0.0001
   90BOLB   C1C 2153  13.647  25.768  23.040 -0.3578 -0.1433 -0.1383
   90BOLB   C2C 2154  14.023  25.941  22.903  0.0926 -0.1339  0.0178
   90BOLB   C3C 2155  14.279  26.387  22.848 -0.0400  0.1697 -0.1058
   90BOLB   C4C 2156  14.626  26.563  22.703 -0.0211  0.1724 -0.2364
   90BOLB   C1D 2157  13.656  25.242  23.050 -0.0954  0.1968 -0.1493
   90BOLB   C2D 2158  14.042  25.350  23.135 -0.0494 -0.0044 -0.4108
   90BOLB   C3D 2159  14.338  25.625  23.098 -0.1933  0.2589 -0.0343
   90BOLB   C4D 2160  14.787  25.622  23.039  0.0748  0.2817  0.2627
   91BOLB   NC1 2161  14.867  23.509   0.272  0.1072 -0.1590  0.0324
   91BOLB   PO1 2162  14.576  23.582  26.848 -0.0592  0.0740  0.0304
   91BOLB   GL1 2163  14.774  23.670  26.444  0.3728 -0.0290  0.1611
   91BOLB   GL2 2164  14.613  23.529  26.067  0.0043  0.2517  0.3435
   91BOLB   C1A 2165  15.123  23.759  26.282  0.0400 -0.0800  0.0759
   91BOLB   C2A 2166  15.446  23.968  26.160 -0.3169 -0.2975 -0.0424
   91BOLB   C3A 2167  15.820  24.162  26.347 -0.0438 -0.1552  0.0998
   91BOLB   C4A 2168  15.814  24.596  26.288  0.2844  0.0107  0.1767
   91BOLB   C1B 2169  15.011  23.722  25.825 -0.2885 -0.1662  0.5679
   91BOLB   C2B 2170  15.261  24.139  25.736 -0.2392 -0.3309 -0.0502
   91BOLB   C3B 2171  15.415  24.539  25.605  0.2897 -0.3491  0.0486
   91BOLB   C4B 2172  15.440  24.801  25.289  0.2446  0.0478  0.6271
   91BOLB   NC2 2173  13.768  25.236  26.144  0.0859 -0.1028 -0.1268
   91BOLB   PO2 2174  13.966  25.416  26.527  0.2122  0.0586  0.0202
   91BOLB   GL3 2175  14.156  25.666  26.245 -0.1490  0.0329  0.4474
   91BOLB   GL4 2176  13.943  25.748  25.997  0.0937  0.0104 -0.1749
   91BOLB   C1C 2177  14.640  25.680  26.129 -0.0733  0.2111  0.3054
   91BOLB   C2C 2178  14.980  25.312  26.156  0.3137 -0.1875 -0.1469
   91BOLB   C3C 2179  15.476  25.360  26.122 -0.1838  0.2927 -0.0489
   91BOLB   C4C 2180  15.558  24.958  26.337 -0.0255  0.1751  0.0729
   91BOLB   C1D 2181  13.978  26.127  26.206  0.1682 -0.1689 -0.0245
   91BOLB   C2D 2182  13.831  26.426  25.941 -0.0460  0.1996 -0.3344
   91BOLB   C3D 2183  14.010  26.523  25.546  0.3403  0.1295 -0.3718
   91BOLB   C4D 2184  14.373  26.588  25.486 -0.1873 -0.2547  0.1987
   92BOLB   NC1 2185  27.717  21.257  20.668  0.0483 -0.1425 -0.0804
   92BOLB   PO1 2186  27.465  21.228  21.091  0.0195 -0.0900  0.0918
   92BOLB   GL1 2187  27.489  20.866  20.872 -0.0161  0.2456  0.1192
   92BOLB   GL2 2188  27.172  20.681  21.026  0.1610  0.1126 -0.4498
   92BOLB   C1A 2189  27.432  20.593  20.626  0.3200 -0.0147  0.0382
   92BOLB   C2A 2190  27.287  20.320  20.422 -0.0016 -0.1743 -0.0858
   92BOLB   C3A 2191  27.527  20.005  20.279 -0.1422  0.1171  0.1938
   92BOLB   C4A 2192  27.859  19.577  20.248  0.2515 -0.2418  0.0894
   92BOLB   C1B 2193  27.017  20.231  20.808  0.3457  0.2599 -0.6009
   92BOLB   C2B 2194  27.037  19.807  20.539 -0.2685 -0.1789 -0.0707
   92BOLB   C3B 2195  27.308  19.561  20.214  0.1419 -0.3633  0.2114
   92BOLB   C4B 2196  27.524  19.222  19.945  0.0749 -0.1069  0.2106
   92BOLB   NC2 2197  28.883  17.586  18.581 -0.2440 -0.0601  0.0655
   92BOLB   PO2 2198  28.820  17.832  18.911  0.1540  0.3304  0.0582
   92BOLB   GL3 2199  28.572  18.076  19.107 -0.1261  0.0059  0.0465
   92BOLB   GL4 2200  28.585  18.399  18.925 -0.2606  0.1370 -0.0537
   92BOLB   C1C 2201  28.522  18.306  19.432 -0.0399  0.0941  0.0212
   92BOLB   C2C 2202  28.211  18.563  19.649  0.0099 -0.1825  0.3495
   92BOLB   C3C 2203  28.102  19.004  19.692 -0.0844  0.0416  0.0875
   92BOLB   C4C 2204  28.047  19.412  19.820  0.3099 -0.0728 -0.0890
   92BOLB   C1D 2205  28.566  18.725  19.212  0.1263  0.2486 -0.2872
   92BOLB   C2D 2206  28.349  18.962  19.252 -0.1959 -0.1214  0.3260
   92BOLB   C3D 2207  28.226  19.282  19.279  0.0111  0.3754 -0.1300
   92BOLB   C4D 2208  27.894  19.431  19.308 -0.2651 -0.1629 -0.1035
   93BOLB   NC1 2209  23.493  27.543   9.712  0.0770 -0.1890 -0.0029
   93BOLB   PO1 2210  23.286  27.630  10.189 -0.1869  0.0825  0.1943
   93BOLB   GL1 2211  23.503  27.748  10.609 -0.0382  0.0326  0.2505
   93BOLB   GL2 2212  23.297  27.844  10.789 -0.1710 -0.4088  0.1920
   93BOLB   C1A 2213  23.732  27.631  11.070 -0.1427  0.2900  0.0865
   93BOLB   C2A 2214  23.847  27.706  11.424  0.1459 -0.0952  0.2219
   93BOLB   C3A 2215  23.989  27.511  11.762  0.2180  0.1914 -0.4772
   93BOLB   C4A 2216  24.215  27.100  11.937 -0.2020  0.3348  0.1859
   93BOLB   C1B 2217  23.350  27.988  11.198 -0.0096 -0.0055  0.0341
   93BOLB   C2B 2218  23.539  28.200  11.522  0.0721  0.1416 -0.0417
   93BOLB   C3B 2219  23.488  28.559  11.927  0.0619 -0.1667 -0.1060
   93BOLB   C4B 2220  23.617  28.545  12.429 -0.0868  0.0701 -0.0928
   93BOLB   NC2 2221  23.572  25.188  11.056 -0.0247 -0.2325  0.2522
   93BOLB   PO2 2222  23.307  25.018  11.251 -0.0547 -0.0247  0.2414
   93BOLB   GL3 2223  23.436  25.291  11.627 -0.0456  0.1056  0.2735
   93BOLB   GL4 2224  23.278  25.382  11.934  0.0292  0.3160  0.2507
   93BOLB   C1C 2225  23.627  25.692  11.601  0.2477 -0.0670 -0.0010
   93BOLB   C2C 2226  23.954  25.906  11.735 -0.0423 -0.0291  0.2050
   93BOLB   C3C 2227  24.209  26.289  11.806 -0.2956  0.3125 -0.0961
   93BOLB   C4C 2228  24.369  26.720  11.918  0.0084  0.1430 -0.1617
   93BOLB   C1D 2229  23.673  25.511  12.090 -0.0156  0.1680  0.0015
   93BOLB   C2D 2230  23.923  25.500  12.459 -0.0192 -0.1775  0.0155
   93BOLB   C3D 2231  23.850  25.562  12.826 -0.1675 -0.0528  0.1571
   93BOLB   C4D 2232  23.782  25.745  13.220 -0.0925  0.0012  0.3188
   94BOLB   NC1 2233  32.727  24.546  18.475  0.1314  0.0231  0.2266
   94BOLB   PO1 2234  32.702  24.461  18.014 -0.0070  0.3256 -0.2189
   94BOLB   GL1 2235  33.011  24.170  17.971 -0.0104  0.1005 -0.0065
   94BOLB   GL2 2236  32.931  23.883  18.139 -0.1093  0.1990  0.0012
   94BOLB   C1A 2237  33.425  24.133  17.814  0.1447 -0.2302  0.4348
   94BOLB   C2A 2238  33.708  23.807  17.697  0.0646  0.0263 -0.0199
   94BOLB   C3A 2239  34.051  23.567  17.329  0.3392  0.1380 -0.0170
   94BOLB   C4A 2240  34.373  23.328  17.047  0.0424  0.3035  0.3395
   94BOLB   C1B 2241  33.293  23.631  18.013  0.0619  0.0111 -0.2027
   94BOLB   C2B 2242  33.650  23.417  18.069  0.2297 -0.0916 -0.1172
   94BOLB   C3B 2243  34.071  23.455  17.963  0.1680 -0.1789 -0.1194
   94BOLB   C4B 2244  34.300  23.236  17.783  0.2531 -0.0379  0.1430
   94BOLB   NC2 2245  36.674  23.653  16.446  0.0642  0.1302  0.1330
   94BOLB   PO2 2246  36.420  23.464  16.010  0.0195  0.0661  0.2309
   94BOLB   GL3 2247  35.966  23.664  16.105 -0.2980 -0.2539 -0.0672
   94BOLB   GL4 2248  35.619  23.453  16.141  0.0165  0.0468 -0.2009
   94BOLB   C1C 2249  35.597  23.912  16.173 -0.0226  0.2339 -0.0598
   94BOLB   C2C 2250  35.212  23.993  16.314  0.2160  0.1464  0.0977
   94BOLB   C3C 2251  34.805  23.748  16.622 -0.1588  0.0458  0.0003
   94BOLB   C4C 2252  34.745  23.417  16.887 -0.3725 -0.1984  0.2241
   94BOLB   C1D 2253  35.716  23.370  16.612  0.1950  0.2034 -0.1310
   94BOLB   C2D 2254  35.417  23.594  16.966  0.1700  0.3308  0.0517
   94BOLB   C3D 2255  35.052  23.568  17.255 -0.3346  0.0941  0.2724
   94BOLB   C4D 2256  35.165  23.440  17.539  0.0987  0.2344 -0.0559
   95BOLB   NC1 2257  20.206  28.090   7.436  0.1646 -0.0082 -0.2362
   95BOLB   PO1 2258  19.825  28.193   7.256  0.0137 -0.1914 -0.0402
   95BOLB   GL1 2259  19.761  28.185   6.803 -0.2817 -0.0892  0.0241
   95BOLB   GL2 2260  19.826  28.553   6.755  0.5257 -0.0292 -0.0078
   95BOLB   C1A 2261  20.136  28.147   6.436 -0.0601  0.0621 -0.2638
   95BOLB   C2A 2262  20.539  28.143   6.353 -0.1180  0.2418 -0.3939
   95BOLB   C3A 2263  20.948  28.198   6.152 -0.2216  0.0361  0.1775
   95BOLB   C4A 2264  21.287  28.018   5.918  0.0139 -0.1549  0.3423
   95BOLB   C1B 2265  20.299  28.421   6.881  0.3385 -0.2606 -0.0724
   95BOLB   C2B 2266  20.793  28.333   6.797  0.3051 -0.0888 -0.1461
   95BOLB   C3B 2267  21.205  28.420   6.857  0.2347  0.1669  0.1397
   95BOLB   C4B 2268  21.414  28.661   7.137 -0.1192  0.0510  0.0819
   95BOLB   NC2 2269  21.207  27.555   7.948  0.2330 -0.1248  0.0420
   95BOLB   PO2 2270  21.564  27.741   8.064 -0.1333  0.1059 -0.0089
   95BOLB   GL3 2271  21.817  27.777   7.688 -0.0228  0.1047  0.1410
   95BOLB   GL4 2272  21.905  28.175   7.615 -0.1510  0.0148  0.5188
   95BOLB   C1C 2273  21.719  27.556   7.315 -0.2434  0.0727  0.2319
   95BOLB   C2C 2274  21.847  27.475   6.854  0.0855 -0.2663  0.0721
   95BOLB   C3C 2275  21.799  27.435   6.422 -0.1733 -0.1755 -0.2263
   95BOLB   C4C 2276  21.627  27.803   6.172 -0.2664 -0.1591 -0.0228
   95BOLB   C1D 2277  22.172  28.007   7.324  0.1124 -0.0936  0.0072
   95BOLB   C2D 2278  22.318  27.704   6.987  0.0935  0.0343  0.2675
   95BOLB   C3D 2279  22.403  27.518   6.509  0.0717 -0.3304 -0.1590
   95BOLB   C4D 2280  22.268  27.358   6.149  0.0182  0.2512 -0.2789
   96BOLB   NC1 2281  31.561  37.094  19.968  0.1684 -0.0861  0.0926
   96BOLB   PO1 2282  31.941  37.052  20.141 -0.0791 -0.1066  0.2611
   96BOLB   GL1 2283  32.367  37.228  20.296 -0.1992  0.3789  0.1202
   96BOLB   GL2 2284  32.553  36.987  20.438 -0.1657 -0.2139 -0.0701
   96BOLB   C1A 2285  32.659  37.489  20.208 -0.0710 -0.0613  0.2338
   96BOLB   C2A 2286  32.860  37.810  20.169  0.2227 -0.1040  0.1270
   96BOLB   C3A 2287  33.090  38.078  20.432  0.0989 -0.2375 -0.2062
   96BOLB   C4A 2288  33.326  38.366  20.626  0.0005  0.3379  0.1261
   96BOLB   C1B 2289  32.802  37.198  20.604  0.1806 -0.2067  0.0796
   96BOLB   C2B 2290  33.165  37.411  20.475 -0.3097 -0.1937  0.1939
   96BOLB   C3B 2291  33.343  37.694  20.280 -0.2590  0.2441  0.1580
   96BOLB   C4B 2292  33.588  38.002  20.286  0.2030 -0.0256  0.1596
   96BOLB   NC2 2293  36.067  39.132  20.648 -0.3682  0.1943 -0.1627
   96BOLB   PO2 2294  35.773  39.324  20.457  0.0424 -0.1669  0.2805
   96BOLB   GL3 2295  35.560  39.015  20.693  0.1750  0.0986  0.2897
   96BOLB   GL4 2296  35.624  38.736  20.735  0.1217  0.3071  0.1665
   96BOLB   C1C 2297  35.125  38.910  20.830  0.2583  0.0039  0.0115
   96BOLB   C2C 2298  34.748  38.635  20.915 -0.1217 -0.0116 -0.2049
   96BOLB   C3C 2299  34.236  38.572  20.733 -0.0947  0.1600 -0.0630
   96BOLB   C4C 2300  33.738  38.388  20.711 -0.0899  0.2175 -0.2750
   96BOLB   C1D 2301  35.637  38.473  20.430 -0.1312  0.2101  0.0980
   96BOLB   C2D 2302  35.382  38.105  20.315 -0.2439  0.0886  0.3209
   96BOLB   C3D 2303  35.375  37.659  20.222 -0.2141 -0.1352  0.1043
   96BOLB   C4D 2304  35.027  37.487  20.297 -0.1118 -0.2364 -0.5789
   97BOLB   NC1 2305  21.258  26.445  18.515 -0.1636  0.1711 -0.0521
   97BOLB   PO1 2306  20.796  26.371  18.222  0.1731  0.2219 -0.2112
   97BOLB   GL1 2307  20.440  26.070  18.397  0.3265  0.1010 -0.2131
   97BOLB   GL2 2308  20.516  25.717  18.281  0.0599 -0.0743  0.0040
   97BOLB   C1A 2309  19.999  26.134  18.182 -0.4123  0.2205 -0.5201
   97BOLB   C2A 2310  19.680  26.018  18.061  0.0518  0.0704 -0.0547
   97BOLB   C3A 2311  19.328  25.924  17.623 -0.0108 -0.1428  0.1922
   97BOLB   C4A 2312  19.088  25.894  17.317  0.0152 -0.1097 -0.2621
   97BOLB   C1B 2313  20.234  25.747  17.946 -0.0950 -0.1309 -0.0243
   97BOLB   C2B 2314  19.966  25.654  17.580 -0.4219 -0.1139  0.1163
   97BOLB   C3B 2315  19.985  25.497  17.218 -0.4315 -0.3694 -0.1551
   97BOLB   C4B 2316  19.845  25.173  16.943  0.2759  0.3211 -0.1289
   97BOLB   NC2 2317  17.780  24.801  15.321  0.1663 -0.2238  0.0696
   97BOLB   PO2 2318  17.824  25.265  15.570  0.0690  0.0931  0.2934
   97BOLB   GL3 2319  17.848  25.018  15.969 -0.1386  0.1600 -0.4135
   97BOLB   GL4 2320  17.663  24.717  15.817  0.1422 -0.1894  0.1163
   97BOLB   C1C 2321  18.087  24.784  16.378 -0.0689  0.3769  0.2118
   97BOLB   C2C 2322  18.259  24.967  16.817  0.1363  0.0451 -0.2630
   97BOLB   C3C 2323  18.616  25.131  17.055  0.3697  0.0494  0.0734
   97BOLB   C4C 2324  18.791  25.573  17.311  0.0299 -0.2180 -0.1714
   97BOLB   C1D 2325  17.918  24.493  16.023  0.0668 -0.0364 -0.1087
   97BOLB   C2D 2326  18.254  24.299  16.337  0.2323 -0.0361  0.1339
   97BOLB   C3D 2327  18.496  24.416  16.700 -0.1454  0.0606 -0.2585
   97BOLB   C4D 2328  18.728  24.503  17.003 -0.1106 -0.1567  0.0786
   98BOLB   NC1 2329  39.284  25.817  22.304 -0.1324 -0.1534 -0.0700
   98BOLB   PO1 2330  39.112  25.423  22.223 -0.0355  0.2302  0.2385
   98BOLB   GL1 2331  38.809  25.672  22.419  0.1832 -0.0611 -0.0027
   98BOLB   GL2 2332  38.635  25.618  22.713 -0.1679 -0.0954 -0.3158
   98BOLB   C1A 2333  38.583  26.048  22.472 -0.4323  0.1583 -0.1140
   98BOLB   C2A 2334  38.333  26.295  22.739 -0.0575  0.1382 -0.2356
   98BOLB   C3A 2335  37.937  26.295  22.707 -0.1814  0.0382  0.1089
   98BOLB   C4A 2336  37.645  26.099  22.527 -0.1562 -0.2912 -0.0462
   98BOLB   C1B 2337  38.368  25.296  22.652  0.2381 -0.0193  0.2081
   98BOLB   C2B 2338  38.097  25.135  22.358  0.1096 -0.2243 -0.2328
   98BOLB   C3B 2339  37.750  25.148  22.108  0.0257  0.0092 -0.0378
   98BOLB   C4B 2340  37.400  25.409  21.881  0.0696  0.0348 -0.0499
   98BOLB   NC2 2341  35.211  26.469  22.449 -0.0499  0.0697  0.3436
   98BOLB   PO2 2342  35.449  26.501  22.018  0.0891  0.1557 -0.3194
   98BOLB   GL3 2343  35.826  26.311  22.112 -0.2594 -0.0843 -0.2993
   98BOLB   GL4 2344  35.781  26.540  22.380 -0.2302 -0.3952 -0.0448
   98BOLB   C1C 2345  36.181  26.177  22.050  0.1965  0.0099 -0.1444
   98BOLB   C2C 2346  36.592  26.061  22.055 -0.2762 -0.1332  0.1333
   98BOLB   C3C 2347  36.915  26.017  22.224  0.0079 -0.0261 -0.0473
   98BOLB   C4C 2348  37.218  25.956  22.432 -0.1540  0.1090 -0.0455
   98BOLB   C1D 2349  36.066  26.324  22.543 -0.2868  0.1547 -0.3613
   98BOLB   C2D 2350  36.337  25.951  22.561  0.0209 -0.0166  0.1256
   98BOLB   C3D 2351  36.453  25.613  22.352  0.0016  0.0677 -0.0411
   98BOLB   C4D 2352  36.623  25.223  22.456  0.3722  0.1922  0.3927
   99BOLB   NC1 2353  35.383  28.378  19.884 -0.0385  0.0301 -0.1697
   99BOLB   PO1 2354  35.265  28.765  19.681 -0.2397  0.1595  0.4171
   99BOLB   GL1 2355  35.794  28.767  19.710  0.1628 -0.1835 -0.1999
   99BOLB   GL2 2356  36.047  28.831  19.474 -0.3825  0.0314  0.1483
   99BOLB   C1A 2357  36.153  28.677  19.912  0.1166  0.3008  0.1674
   99BOLB   C2A 2358  36.556  28.544  19.871  0.1580 -0.1118 -0.0337
   99BOLB   C3A 2359  37.000  28.619  19.795 -0.0459 -0.0197 -0.0970
   99BOLB   C4A 2360  37.378  28.656  20.095 -0.1344  0.1853 -0.0810
   99BOLB   C1B 2361  36.377  28.745  19.413 -0.7458 -0.1731  0.0353
   99BOLB   C2B 2362  36.730  28.718  19.317  0.1167 -0.2707  0.0996
   99BOLB   C3B 2363  37.132  28.831  19.329  0.1024 -0.1121  0.1131
   99BOLB   C4B 2364  37.439  28.917  19.032 -0.2443  0.2841 -0.0110
   99BOLB   NC2 2365  39.935  28.162  20.068 -0.0496  0.0740  0.0663
   99BOLB   PO2 2366  39.859  28.565  19.799  0.2212 -0.1306 -0.2209
   99BOLB   GL3 2367  39.459  28.562  19.864  0.5623  0.1276 -0.1980
   99BOLB   GL4 2368  39.433  28.177  19.763  0.1084 -0.1285 -0.0460
   99BOLB   C1C 2369  38.991  28.441  19.856 -0.0770 -0.2531  0.1332
   99BOLB   C2C 2370  38.629  28.657  19.945  0.1403  0.0096  0.1123
   99BOLB   C3C 2371  38.217  28.581  20.146 -0.1110 -0.2819 -0.1419
   99BOLB   C4C 2372  37.775  28.612  20.353  0.2110  0.1622  0.0801
   99BOLB   C1D 2373  39.337  28.135  20.188 -0.0744 -0.0467 -0.0646
   99BOLB   C2D 2374  39.018  28.267  20.368 -0.1991 -0.0861 -0.0042
   99BOLB   C3D 2375  38.808  28.052  20.760 -0.0213 -0.1661  0.2345
   99BOLB   C4D 2376  38.654  27.791  21.101 -0.1947  0.0039  0.0862
  100BOLB   NC1 2377  15.482  20.129  21.528  0.4020  0.0557 -0.6071
  100BOLB   PO1 2378  15.625  20.156  21.950 -0.2406 -0.0302 -0.1254
  100BOLB   GL1 2379  15.837  20.527  21.949  0.5033 -0.1798  0.1008
  100BOLB   GL2 2380  16.096  20.427  22.210  0.1406  0.0252  0.3879
  100BOLB   C1A 2381  16.149  20.853  21.913 -0.0970 -0.2035  0.0369
  100BOLB   C2A 2382  16.561  21.089  21.768  0.0859  0.2968 -0.1357
  100BOLB   C3A 2383  16.500  21.337  21.428  0.0255  0.0458 -0.1724
  100BOLB   C4A 2384  16.336  21.704  21.203 -0.0488  0.2698  0.0099
  100BOLB   C1B 2385  16.413  20.625  22.348  0.1570  0.2191 -0.1784
  100BOLB   C2B 2386  16.893  20.599  22.406  0.1078  0.0343 -0.1987
  100BOLB   C3B 2387  17.229  20.731  22.747 -0.2392 -0.2170  0.2327
  100BOLB   C4B 2388  17.586  20.723  23.100  0.1475  0.1057 -0.0994
  100BOLB   NC2 2389  14.831  21.591  20.808 -0.2419  0.1611  0.0475
  100BOLB   PO2 2390  14.857  21.499  20.383 -0.1100  0.0967  0.1238
  100BOLB   GL3 2391  15.215  21.668  20.328 -0.1697  0.0560 -0.0192
  100BOLB   GL4 2392  15.275  21.709  20.602  0.0688 -0.0677 -0.3360
  100BOLB   C1C 2393  15.628  21.843  20.276 -0.3908  0.0705 -0.1303
  100BOLB   C2C 2394  15.976  22.086  20.461 -0.0720  0.0693 -0.2289
  100BOLB   C3C 2395  16.198  22.303  20.729  0.1880  0.0710 -0.1600
  100BOLB   C4C 2396  16.469  22.003  20.972  0.0695 -0.4308 -0.0086
  100BOLB   C1D 2397  15.564  22.028  20.769 -0.1335 -0.1805  0.0428
  100BOLB   C2D 2398  15.663  22.350  20.962  0.2477 -0.2132  0.2286
  100BOLB   C3D 2399  15.858  22.765  20.994  0.0002  0.0958  0.0030
  100BOLB   C4D 2400  16.241  22.880  21.153 -0.0081 -0.1517  0.0379
  101BOLB   NC1 2401  18.039  27.397   6.657  0.0424  0.0257 -0.0227
  101BOLB   PO1 2402  17.698  27.288   6.305 -0.1648  0.3113 -0.1595
  101BOLB   GL1 2403  18.099  27.252   6.211  0.0439 -0.1329  0.0505
  101BOLB   GL2 2404  18.125  26.979   6.328 -0.3178  0.2333  0.1065
  101BOLB   C1A 2405  18.263  27.435   5.772  0.0367 -0.0650 -0.2650
  101BOLB   C2A 2406  18.645  27.350   5.501  0.1422  0.0028  0.0040
  101BOLB   C3A 2407  18.872  27.019   5.282 -0.2959  0.0328 -0.1055
  101BOLB   C4A 2408  19.056  26.735   5.283  0.2379 -0.0441 -0.0601
  101BOLB   C1B 2409  18.434  26.831   5.965 -0.2169 -0.2101 -0.0269
  101BOLB   C2B 2410  18.496  26.709   5.555 -0.0607 -0.0961 -0.0067
  101BOLB   C3B 2411  18.441  26.806   5.206 -0.1906 -0.0214  0.0428
  101BOLB   C4B 2412  18.300  26.438   5.058 -0.0019  0.0172  0.0181
  101BOLB   NC2 2413  17.692  24.942   5.891 -0.1520 -0.0679 -0.2336
  101BOLB   PO2 2414  17.508  25.324   5.802 -0.2685 -0.1553 -0.0461
  101BOLB   GL3 2415  17.553  25.505   5.448  0.0844 -0.0962 -0.1248
  101BOLB   GL4 2416  17.821  25.286   5.380  0.3667 -0.1241  0.3646
  101BOLB   C1C 2417  17.759  25.896   5.167  0.0420  0.2844  0.2048
  101BOLB   C2C 2418  18.155  25.940   5.237  0.5136 -0.0992  0.1877
  101BOLB   C3C 2419  18.559  25.975   5.300  0.2502 -0.3817 -0.0464
  101BOLB   C4C 2420  18.812  26.382   5.191  0.0668 -0.0324 -0.0696
  101BOLB   C1D 2421  18.228  25.050   5.492 -0.0210 -0.1601 -0.1006
  101BOLB   C2D 2422  18.580  25.062   5.744 -0.0398 -0.0451  0.0838
  101BOLB   C3D 2423  19.042  25.116   5.790  0.2492 -0.2012 -0.0002
  101BOLB   C4D 2424  19.436  24.910   5.691  0.0900  0.1504 -0.1433
  102BOLB   NC1 2425  24.121  16.305  19.314  0.0465  0.0591 -0.2349
  102BOLB   PO1 2426  24.370  16.453  19.032 -0.1819 -0.1356  0.3248
  102BOLB   GL1 2427  24.336  16.798  19.166 -0.0468 -0.0690  0.1615
  102BOLB   GL2 2428  24.100  16.802  19.410  0.1184  0.4649  0.2489
  102BOLB   C1A 2429  24.334  17.252  19.205  0.0282 -0.0936 -0.1462
  102BOLB   C2A 2430  24.325  17.684  19.447 -0.1281  0.1347 -0.1037
  102BOLB   C3A 2431  24.079  18.081  19.486  0.1296  0.0622 -0.2456
  102BOLB   C4A 2432  23.665  18.195  19.345  0.0266  0.2349  0.3629
  102BOLB   C1B 2433  24.051  17.100  19.757 -0.3637 -0.2278 -0.1665
  102BOLB   C2B 2434  23.942  17.534  19.751  0.0856 -0.0132 -0.2485
  102BOLB   C3B 2435  23.733  17.975  19.918  0.1378 -0.0827  0.1478
  102BOLB   C4B 2436  23.543  18.375  19.761 -0.1510 -0.4626 -0.4473
  102BOLB   NC2 2437  21.959  17.289  18.046  0.2002 -0.2364 -0.1210
  102BOLB   PO2 2438  22.215  17.107  18.307 -0.0755  0.2212  0.0859
  102BOLB   GL3 2439  22.255  17.466  18.515 -0.3108  0.2000 -0.1356
  102BOLB   GL4 2440  21.896  17.753  18.403  0.2411 -0.1549 -0.1101
  102BOLB   C1C 2441  22.623  17.703  18.675 -0.0324 -0.0848 -0.1360
  102BOLB   C2C 2442  22.843  18.039  18.897  0.2858 -0.0784 -0.1704
  102BOLB   C3C 2443  23.000  18.337  19.212 -0.0096  0.0802  0.0384
  102BOLB   C4C 2444  23.339  18.476  19.258 -0.0861  0.1187 -0.2746
  102BOLB   C1D 2445  21.704  18.018  18.719  0.3209  0.1531  0.1069
  102BOLB   C2D 2446  21.545  18.364  18.877  0.3555  0.1711  0.2273
  102BOLB   C3D 2447  21.191  18.112  19.006  0.0408  0.1361 -0.1138
  102BOLB   C4D 2448  21.026  18.243  19.436 -0.2001 -0.2091 -0.1158
  103BOLB   NC1 2449  16.628  18.856  23.855 -0.2332  0.1324 -0.1513
  103BOLB   PO1 2450  16.960  18.989  23.595 -0.0639 -0.0053  0.2827
  103BOLB   GL1 2451  17.245  19.289  23.398 -0.1408 -0.4149  0.3046
  103BOLB   GL2 2452  17.407  19.470  23.601 -0.0780  0.0350 -0.1461
  103BOLB   C1A 2453  17.657  19.357  23.144 -0.0614 -0.0610 -0.1061
  103BOLB   C2A 2454  17.961  19.414  22.998 -0.2301  0.0290 -0.2497
  103BOLB   C3A 2455  18.115  19.622  22.611  0.0084 -0.0151  0.0776
  103BOLB   C4A 2456  18.030  19.701  22.148  0.0971  0.3039 -0.1881
  103BOLB   C1B 2457  17.513  19.870  23.346 -0.0457 -0.1385 -0.0648
  103BOLB   C2B 2458  17.570  20.239  23.417  0.1707  0.1227 -0.0240
  103BOLB   C3B 2459  17.458  20.676  23.649  0.0185 -0.1189 -0.0927
  103BOLB   C4B 2460  17.583  21.026  23.543 -0.1376 -0.1402 -0.0317
  103BOLB   NC2 2461  15.875  19.283  21.670  0.0214 -0.3929 -0.0650
  103BOLB   PO2 2462  16.242  19.477  21.870  0.1003 -0.1948 -0.2816
  103BOLB   GL3 2463  16.546  19.822  21.790  0.1186 -0.2315  0.1806
  103BOLB   GL4 2464  16.412  20.154  21.786  0.1052 -0.0600 -0.2474
  103BOLB   C1C 2465  16.946  19.760  21.435  0.0983  0.2753 -0.0467
  103BOLB   C2C 2466  17.407  19.862  21.432 -0.2489  0.0062  0.0727
  103BOLB   C3C 2467  17.763  19.866  21.420 -0.3272  0.0983  0.0726
  103BOLB   C4C 2468  17.933  19.901  21.797  0.0332 -0.1096  0.0456
  103BOLB   C1D 2469  16.638  20.569  21.904 -0.0924  0.2606  0.1330
  103BOLB   C2D 2470  16.963  20.766  21.897 -0.0180 -0.0040 -0.0477
  103BOLB   C3D 2471  17.022  21.021  21.563 -0.3242  0.1507 -0.0357
  103BOLB   C4D 2472  17.175  21.198  21.272  0.2043 -0.2070  0.0381
  104BOLB   NC1 2473  24.526  25.051  16.469  0.1125 -0.1042 -0.0402
  104BOLB   PO1 2474  24.762  24.755  16.179  0.3346 -0.1913  0.1881
  104BOLB   GL1 2475  24.514  24.451  15.905 -0.0020  0.0407  0.0497
  104BOLB   GL2 2476  24.637  24.074  15.929  0.3045  0.3968 -0.1632
  104BOLB   C1A 2477  24.382  24.215  15.557 -0.1858  0.2256  0.1284
  104BOLB   C2A 2478  24.030  24.115  15.273 -0.0003  0.3723 -0.1147
  104BOLB   C3A 2479  23.689  24.202  15.098 -0.0707  0.2041 -0.0880
  104BOLB   C4A 2480  23.324  24.136  14.806  0.1152  0.1004  0.0209
  104BOLB   C1B 2481  24.667  23.742  15.694 -0.0682  0.0377 -0.0196
  104BOLB   C2B 2482  24.545  23.417  15.488  0.0079 -0.0418 -0.0166
  104BOLB   C3B 2483  24.492  23.080  15.224 -0.1975  0.0624  0.1114
  104BOLB   C4B 2484  24.233  22.687  15.248  0.4251 -0.1043  0.0826
  104BOLB   NC2 2485  21.729  22.746  12.949 -0.0322  0.1934  0.0390
  104BOLB   PO2 2486  21.604  22.931  13.394 -0.0977  0.0389 -0.0673
  104BOLB   GL3 2487  21.842  23.264  13.531  0.3076  0.0779  0.2780
  104BOLB   GL4 2488  21.654  23.284  13.814  0.1270 -0.3763  0.1445
  104BOLB   C1C 2489  22.170  23.512  13.722 -0.2539 -0.0240 -0.0333
  104BOLB   C2C 2490  22.497  23.863  13.828  0.3153  0.0942 -0.2710
  104BOLB   C3C 2491  22.842  24.011  13.985  0.1363 -0.0034 -0.0502
  104BOLB   C4C 2492  23.081  24.146  14.337  0.1739 -0.0402  0.1549
  104BOLB   C1D 2493  21.677  23.613  14.104  0.0647 -0.1582  0.0865
  104BOLB   C2D 2494  21.666  23.875  14.472 -0.0114  0.0617  0.1953
  104BOLB   C3D 2495  21.812  24.356  14.568  0.0169 -0.0492 -0.1497
  104BOLB   C4D 2496  21.713  24.734  14.294 -0.0142  0.4466  0.1258
  105BOLB   NC1 2497  33.828  26.238  25.962  0.0433  0.0837 -0.0525
  105BOLB   PO1 2498  33.682  26.650  26.173  0.0748  0.2529  0.2091
  105BOLB   GL1 2499  34.156  26.574  26.372 -0.1184  0.0625  0.0852
  105BOLB   GL2 2500  34.111  26.479  26.746 -0.3154  0.2084  0.0260
  105BOLB   C1A 2501  34.533  26.427  26.432  0.1365 -0.2716 -0.3282
  105BOLB   C2A 2502  34.809  26.290  26.768  0.0903  0.0232  0.1392
  105BOLB   C3A 2503  34.911  26.068   0.141 -0.3468  0.1226 -0.0597
  105BOLB   C4A 2504  34.732  25.958   0.510 -0.0937 -0.0443  0.0991
  105BOLB   C1B 2505  34.350  26.538   0.065  0.1005 -0.4388 -0.1248
  105BOLB   C2B 2506  34.715  26.487   0.365  0.1576 -0.5511  0.0852
  105BOLB   C3B 2507  34.768  26.399   0.834  0.1539  0.1315 -0.0290
  105BOLB   C4B 2508  34.926  26.254   1.158 -0.0998  0.1509 -0.1692
  105BOLB   NC2 2509  35.593  25.290   2.990  0.0452  0.0069 -0.1687
  105BOLB   PO2 2510  35.731  25.354   2.568 -0.0760 -0.0745 -0.3431
  105BOLB   GL3 2511  35.295  25.319   2.550  0.2539  0.2035 -0.2589
  105BOLB   GL4 2512  35.234  25.474   2.688  0.2940 -0.3702  0.1693
  105BOLB   C1C 2513  34.944  25.564   2.312 -0.0436  0.0251 -0.1482
  105BOLB   C2C 2514  34.781  25.669   1.788 -0.0003  0.1080  0.2856
  105BOLB   C3C 2515  34.676  25.793   1.319 -0.0265 -0.1480 -0.0623
  105BOLB   C4C 2516  34.508  25.952   0.950  0.3412 -0.0807  0.1733
  105BOLB   C1D 2517  34.782  25.669   2.769 -0.3647  0.1002  0.0201
  105BOLB   C2D 2518  34.462  25.784   2.566  0.0554 -0.1555  0.2466
  105BOLB   C3D 2519  34.047  25.886   2.420  0.1048  0.1554  0.1839
  105BOLB   C4D 2520  33.801  26.079   2.644  0.1855 -0.1160  0.1280
  106BOLB   NC1 2521  39.273  25.351  21.344  0.0096  0.1813  0.0485
  106BOLB   PO1 2522  39.310  25.639  21.567 -0.1108  0.0013  0.3558
  106BOLB   GL1 2523  38.858  25.428  21.641  0.3075 -0.3255 -0.2084
  106BOLB   GL2 2524  38.683  25.651  21.853  0.2031  0.0760 -0.0893
  106BOLB   C1A 2525  38.509  25.531  21.435  0.0526 -0.2282 -0.0118
  106BOLB   C2A 2526  38.108  25.710  21.597 -0.0003 -0.0454  0.1436
  106BOLB   C3A 2527  37.812  25.660  21.809  0.1524 -0.1846  0.1272
  106BOLB   C4A 2528  37.665  25.714  22.242 -0.1246 -0.1312 -0.2178
  106BOLB   C1B 2529  38.436  25.959  22.022 -0.0397  0.0542 -0.2257
  106BOLB   C2B 2530  37.893  26.189  22.019 -0.1042 -0.2139  0.1921
  106BOLB   C3B 2531  37.440  26.240  22.012  0.1818 -0.1638  0.0134
  106BOLB   C4B 2532  37.169  25.968  21.810  0.1703  0.0730  0.0462
  106BOLB   NC2 2533  39.542  25.554  24.203  0.0576  0.4317 -0.1319
  106BOLB   PO2 2534  39.586  25.986  23.889  0.2227 -0.3115 -0.1535
  106BOLB   GL3 2535  39.143  26.066  23.945 -0.0496 -0.1105 -0.0262
  106BOLB   GL4 2536  39.000  26.228  24.136  0.0222  0.1513 -0.0940
  106BOLB   C1C 2537  38.700  26.023  23.714  0.0779  0.0394 -0.0736
  106BOLB   C2C 2538  38.297  25.997  23.399  0.0024  0.0208  0.0115
  106BOLB   C3C 2539  38.189  25.799  22.958  0.1743  0.2601  0.0899
  106BOLB   C4C 2540  37.920  25.579  22.617 -0.0092  0.1379  0.2290
  106BOLB   C1D 2541  38.612  26.240  24.249  0.2690  0.0408 -0.1243
  106BOLB   C2D 2542  38.255  26.165  24.221  0.1754 -0.2143  0.1958
  106BOLB   C3D 2543  37.884  25.996  24.340 -0.0545  0.1252  0.0464
  106BOLB   C4D 2544  37.617  25.955  24.630 -0.0786 -0.1590  0.1010
  107BOLB   NC1 2545  16.820  18.951  20.133 -0.0570  0.0127  0.0391
  107BOLB   PO1 2546  17.124  18.758  19.944 -0.1723  0.2650  0.2498
  107BOLB   GL1 2547  17.291  18.930  20.376 -0.2432  0.0462  0.3152
  107BOLB   GL2 2548  17.155  19.168  20.488  0.0419 -0.0519  0.2585
  107BOLB   C1A 2549  17.472  18.850  20.748 -0.1441  0.1894  0.4014
  107BOLB   C2A 2550  17.484  18.931  21.232  0.1110  0.1632 -0.3583
  107BOLB   C3A 2551  17.528  18.949  21.702 -0.3182  0.2224 -0.0924
  107BOLB   C4A 2552  17.798  18.876  21.987  0.2783  0.0037 -0.1201
  107BOLB   C1B 2553  17.443  19.503  20.567  0.2381 -0.3231 -0.1707
  107BOLB   C2B 2554  17.559  19.909  20.479 -0.1966 -0.1015  0.0624
  107BOLB   C3B 2555  17.663  20.313  20.301  0.0079  0.1677  0.1914
  107BOLB   C4B 2556  17.491  20.691  19.968  0.0191 -0.2428 -0.0960
  107BOLB   NC2 2557  16.223  18.605  21.847 -0.0398  0.1069 -0.1790
  107BOLB   PO2 2558  16.588  18.832  21.738 -0.2479 -0.1817 -0.1346
  107BOLB   GL3 2559  16.897  18.912  22.047 -0.1449 -0.0615  0.0937
  107BOLB   GL4 2560  17.124  19.079  21.906  0.3664  0.0067  0.3807
  107BOLB   C1C 2561  17.013  19.124  22.392  0.1155  0.0731  0.1974
  107BOLB   C2C 2562  17.160  19.181  22.746  0.5567 -0.0142 -0.0922
  107BOLB   C3C 2563  17.635  19.148  22.702  0.1685 -0.3224  0.0487
  107BOLB   C4C 2564  17.929  19.047  22.393 -0.3100  0.2916  0.0595
  107BOLB   C1D 2565  17.264  19.529  21.879  0.0637  0.1731 -0.4485
  107BOLB   C2D 2566  17.342  19.888  21.947  0.0172  0.1052  0.1907
  107BOLB   C3D 2567  17.521  20.236  21.832 -0.2979  0.0876  0.1615
  107BOLB   C4D 2568  17.448  20.747  21.776 -0.1084 -0.0705 -0.1655
  108BOLB   NC1 2569  21.458  30.712  16.508  0.0169  0.0467 -0.3950
  108BOLB   PO1 2570  21.214  30.440  16.748 -0.3484  0.2072  0.0063
  108BOLB   GL1 2571  20.941  30.509  16.441  0.2084 -0.2238 -0.5479
  108BOLB   GL2 2572  20.958  30.414  16.116 -0.1501  0.2558 -0.1084
  108BOLB   C1A 2573  20.548  30.639  16.274 -0.0923 -0.0876  0.2002
  108BOLB   C2A 2574  20.252  30.599  16.092 -0.2271 -0.0631  0.1728
  108BOLB   C3A 2575  19.953  30.798  15.820 -0.2152 -0.1605 -0.0759
  108BOLB   C4A 2576  19.442  30.867  15.792  0.2368 -0.0858 -0.1217
  108BOLB   C1B 2577  20.687  30.462  15.799  0.0726  0.0299  0.1969
  108BOLB   C2B 2578  20.338  30.456  15.661 -0.0247  0.1492  0.2130
  108BOLB   C3B 2579  19.938  30.403  15.565  0.0953  0.1933 -0.0814
  108BOLB   C4B 2580  19.661  30.354  15.324 -0.0800  0.1690 -0.0595
  108BOLB   NC2 2581  17.101  30.984  15.511  0.1388 -0.1991 -0.0728
  108BOLB   PO2 2582  17.249  30.711  15.177 -0.1734 -0.2148 -0.0711
  108BOLB   GL3 2583  17.551  30.897  15.398  0.2422 -0.1831  0.0180
  108BOLB   GL4 2584  17.676  30.593  15.736  0.1387  0.1471 -0.3362
  108BOLB   C1C 2585  18.002  30.921  15.413  0.2364 -0.0103 -0.0272
  108BOLB   C2C 2586  18.436  30.932  15.286 -0.1176  0.2346 -0.0864
  108BOLB   C3C 2587  18.836  30.795  15.234 -0.0616  0.1699  0.2354
  108BOLB   C4C 2588  19.141  30.705  15.602  0.1775 -0.2597  0.0157
  108BOLB   C1D 2589  18.064  30.437  15.564  0.1355 -0.0309 -0.2319
  108BOLB   C2D 2590  18.387  30.454  15.220  0.1288  0.2584 -0.2223
  108BOLB   C3D 2591  18.438  30.581  14.789  0.0732 -0.1002 -0.4047
  108BOLB   C4D 2592  18.812  30.774  14.709  0.0737  0.0706 -0.0034
  109BOLB   NC1 2593  21.039  33.837  18.870  0.0412 -0.1297 -0.1378
  109BOLB   PO1 2594  20.754  33.579  18.709  0.3649  0.5228 -0.0493
  109BOLB   GL1 2595  20.401  33.550  18.577  0.1166 -0.0163  0.2342
  109BOLB   GL2 2596  20.309  33.325  18.293  0.0649 -0.3142  0.2829
  109BOLB   C1A 2597  19.990  33.746  18.443 -0.0339 -0.0266 -0.2141
  109BOLB   C2A 2598  19.513  33.791  18.282  0.2603 -0.1183  0.2009
  109BOLB   C3A 2599  19.232  33.921  18.046  0.3147  0.0002  0.1376
  109BOLB   C4A 2600  19.175  34.147  17.678 -0.1347 -0.0331 -0.0701
  109BOLB   C1B 2601  20.112  33.553  17.920 -0.1573  0.2083  0.0326
  109BOLB   C2B 2602  19.844  33.888  17.821  0.0799 -0.2247 -0.0187
  109BOLB   C3B 2603  19.621  33.945  17.519 -0.1137  0.1338 -0.1208
  109BOLB   C4B 2604  19.682  33.695  17.234 -0.1375 -0.0535  0.2297
  109BOLB   NC2 2605  17.411  35.059  16.379  0.1739 -0.1941  0.1810
  109BOLB   PO2 2606  17.797  34.902  16.626 -0.1500  0.1726 -0.0214
  109BOLB   GL3 2607  18.110  34.582  16.647  0.2368  0.0005 -0.1562
  109BOLB   GL4 2608  18.014  34.611  17.061  0.1425 -0.0180 -0.3997
  109BOLB   C1C 2609  18.450  34.284  16.441  0.4013  0.1406 -0.0834
  109BOLB   C2C 2610  18.718  34.111  16.619  0.1245 -0.2512  0.4152
  109BOLB   C3C 2611  19.006  33.954  17.002 -0.2500  0.3148  0.1875
  109BOLB   C4C 2612  19.207  34.141  17.244 -0.0745  0.0050 -0.0751
  109BOLB   C1D 2613  18.433  34.594  16.935 -0.1696 -0.1309 -0.0898
  109BOLB   C2D 2614  18.710  34.340  17.088  0.2708 -0.1333  0.1156
  109BOLB   C3D 2615  18.608  33.972  17.340 -0.1867  0.2139  0.2967
  109BOLB   C4D 2616  18.766  33.602  17.317  0.6560  0.2881  0.1628
  110BOLB   NC1 2617  24.238  22.481  18.495  0.0718  0.0651  0.3211
  110BOLB   PO1 2618  23.985  22.785  18.682  0.2765  0.3635  0.1684
  110BOLB   GL1 2619  23.762  22.436  18.463 -0.0601 -0.0353  0.2689
  110BOLB   GL2 2620  23.875  22.239  18.750 -0.1712 -0.2527 -0.0782
  110BOLB   C1A 2621  23.892  22.012  18.290  0.2492 -0.0413 -0.1788
  110BOLB   C2A 2622  23.993  21.671  18.232  0.0213 -0.3040 -0.0778
  110BOLB   C3A 2623  24.013  21.159  18.098  0.3966  0.2107 -0.1243
  110BOLB   C4A 2624  23.732  20.889  17.935 -0.1096  0.2469  0.0456
  110BOLB   C1B 2625  23.490  22.202  18.852  0.0510 -0.1457 -0.0196
  110BOLB   C2B 2626  23.039  22.251  19.005 -0.0019 -0.1491  0.2130
  110BOLB   C3B 2627  22.924  22.087  19.358  0.1404  0.0250 -0.1149
  110BOLB   C4B 2628  22.727  21.992  19.740  0.1698 -0.2741 -0.4706
  110BOLB   NC2 2629  23.959  19.384  16.051 -0.0737  0.3554 -0.0577
  110BOLB   PO2 2630  23.567  19.227  16.336 -0.0411 -0.0480  0.0064
  110BOLB   GL3 2631  23.667  19.621  16.408  0.0669 -0.3403 -0.1001
  110BOLB   GL4 2632  23.915  19.781  16.385 -0.0001 -0.1283  0.2359
  110BOLB   C1C 2633  23.545  19.947  16.624  0.0293 -0.2297 -0.3711
  110BOLB   C2C 2634  23.532  20.315  16.924  0.0670  0.1427  0.3377
  110BOLB   C3C 2635  23.565  20.565  17.194 -0.1302  0.1381 -0.0715
  110BOLB   C4C 2636  23.547  20.764  17.572 -0.0870  0.0280 -0.3138
  110BOLB   C1D 2637  24.024  20.158  16.530  0.0534  0.1718 -0.0721
  110BOLB   C2D 2638  24.333  20.459  16.535 -0.0110 -0.3929 -0.2459
  110BOLB   C3D 2639  24.789  20.511  16.667 -0.1720  0.1304 -0.1951
  110BOLB   C4D 2640  25.074  20.544  16.991  0.0294  0.0688 -0.2126
  111BOLB   NC1 2641  24.875  15.896  19.681  0.1636 -0.0902  0.2707
  111BOLB   PO1 2642  24.394  16.073  19.662  0.1545 -0.2686  0.1793
  111BOLB   GL1 2643  24.314  16.471  19.789  0.1467 -0.2092  0.2456
  111BOLB   GL2 2644  24.568  16.756  19.675  0.2095 -0.0701 -0.2015
  111BOLB   C1A 2645  24.175  16.798  20.097  0.0914 -0.0498 -0.1315
  111BOLB   C2A 2646  23.833  17.210  20.172  0.0441  0.3019 -0.0959
  111BOLB   C3A 2647  23.818  17.635  20.253 -0.3528  0.2171 -0.1229
  111BOLB   C4A 2648  23.817  17.796  20.589  0.0743 -0.2180  0.0431
  111BOLB   C1B 2649  24.786  16.894  19.946  0.2837 -0.0385 -0.0080
  111BOLB   C2B 2650  24.666  17.222  20.269  0.1611 -0.0382  0.1532
  111BOLB   C3B 2651  24.699  17.471  20.616 -0.2826 -0.0232  0.0102
  111BOLB   C4B 2652  24.772  17.945  20.637 -0.0075 -0.0538 -0.1358
  111BOLB   NC2 2653  25.278  15.781  21.067 -0.2830 -0.3273 -0.1324
  111BOLB   PO2 2654  25.122  15.850  20.691  0.2479  0.1002 -0.0237
  111BOLB   GL3 2655  24.883  16.146  20.815  0.1278  0.0820 -0.0677
  111BOLB   GL4 2656  24.658  16.208  20.539 -0.0047 -0.1583  0.1440
  111BOLB   C1C 2657  24.693  16.561  20.947 -0.2548 -0.0994 -0.1824
  111BOLB   C2C 2658  24.606  16.937  21.142 -0.2644 -0.0698 -0.0367
  111BOLB   C3C 2659  24.461  17.374  21.089  0.4293  0.1110  0.0657
  111BOLB   C4C 2660  24.117  17.681  20.917  0.2207  0.1257 -0.3628
  111BOLB   C1D 2661  24.759  16.657  20.475 -0.0982  0.0453  0.0799
  111BOLB   C2D 2662  24.909  16.922  20.630 -0.2257  0.0371 -0.0846
  111BOLB   C3D 2663  24.991  17.266  21.020 -0.2899 -0.1820  0.1987
  111BOLB   C4D 2664  24.861  17.644  21.054 -0.0875 -0.0184 -0.2659
  112BOLB   NC1 2665  26.958  40.556   2.344  0.0483  0.0806 -0.1363
  112BOLB   PO1 2666  26.873  40.102   2.083  0.0911  0.0557  0.1520
  112BOLB   GL1 2667  26.885  39.616   1.901 -0.1305  0.4471 -0.0015
  112BOLB   GL2 2668  27.156  39.602   1.762 -0.3266 -0.1058 -0.0956
  112BOLB   C1A 2669  26.628  39.350   1.498  0.0715  0.0602  0.5090
  112BOLB   C2A 2670  26.531  38.977   1.072  0.3191  0.3038  0.1667
  112BOLB   C3A 2671  26.733  38.636   0.913  0.0300 -0.3397  0.2040
  112BOLB   C4A 2672  26.848  38.666   0.605 -0.1232  0.2121  0.2094
  112BOLB   C1B 2673  27.132  39.259   1.441 -0.0858  0.2337 -0.5083
  112BOLB   C2B 2674  27.013  38.863   1.225 -0.1926 -0.1295 -0.1141
  112BOLB   C3B 2675  27.056  38.356   1.222 -0.0359  0.1671  0.1090
  112BOLB   C4B 2676  26.774  38.050   1.459  0.2304  0.0256  0.0294
  112BOLB   NC2 2677  26.733  36.619  25.942 -0.2538 -0.2683  0.1678
  112BOLB   PO2 2678  27.022  36.532  26.288  0.1049 -0.1737 -0.2361
  112BOLB   GL3 2679  27.070  37.023  26.374 -0.1053  0.1740 -0.0238
  112BOLB   GL4 2680  27.308  37.202  26.176  0.2566  0.0612 -0.2029
  112BOLB   C1C 2681  26.860  37.470  26.288 -0.1844 -0.2840  0.1605
  112BOLB   C2C 2682  26.696  37.850  26.375  0.3084  0.1849  0.0097
  112BOLB   C3C 2683  26.713  38.130  26.640 -0.0353 -0.0758 -0.1800
  112BOLB   C4C 2684  26.830  38.424   0.147  0.0275 -0.1717  0.1888
  112BOLB   C1D 2685  27.383  37.405  26.535  0.2255 -0.2067 -0.0959
  112BOLB   C2D 2686  27.513  37.449   0.101  0.3077  0.1981  0.1374
  112BOLB   C3D 2687  27.351  37.328   0.407 -0.2945  0.0197  0.1214
  112BOLB   C4D 2688  26.961  37.492   0.628  0.0582  0.1653  0.1480
  113BOLB   NC1 2689  29.988  21.635  22.368  0.0957 -0.2876  0.2113
  113BOLB   PO1 2690  30.049  21.203  22.372  0.0220  0.4517  0.1347
  113BOLB   GL1 2691  30.259  20.823  22.273  0.2795  0.0597  0.2164
  113BOLB   GL2 2692  30.342  20.637  22.511  0.1343  0.3116 -0.1236
  113BOLB   C1A 2693  30.683  20.663  22.149 -0.0531  0.1146  0.0535
  113BOLB   C2A 2694  30.721  20.412  21.800 -0.1204  0.1382  0.1853
  113BOLB   C3A 2695  31.000  20.186  21.542 -0.4690  0.0757  0.0731
  113BOLB   C4A 2696  31.247  19.940  21.262  0.0694  0.2055  0.0250
  113BOLB   C1B 2697  30.518  20.598  23.000 -0.2226  0.2631 -0.0852
  113BOLB   C2B 2698  30.485  20.638  23.421  0.1580  0.1525 -0.3271
  113BOLB   C3B 2699  30.499  20.315  23.755 -0.0498  0.1925 -0.1947
  113BOLB   C4B 2700  30.917  20.350  23.791 -0.0279 -0.0303 -0.1020
  113BOLB   NC2 2701  33.036  18.608  20.197 -0.0013 -0.2902  0.0095
  113BOLB   PO2 2702  32.906  18.390  20.587 -0.2901  0.0804 -0.0906
  113BOLB   GL3 2703  32.927  18.674  20.780  0.1205 -0.0121 -0.1426
  113BOLB   GL4 2704  33.057  18.937  21.013  0.0974  0.1644  0.2035
  113BOLB   C1C 2705  32.638  19.004  20.726 -0.0639 -0.0606  0.0127
  113BOLB   C2C 2706  32.335  19.338  20.654 -0.3333  0.2373  0.0920
  113BOLB   C3C 2707  32.024  19.565  20.893  0.0439 -0.0256 -0.2385
  113BOLB   C4C 2708  31.642  19.690  21.083 -0.0323 -0.1151 -0.1552
  113BOLB   C1D 2709  32.924  19.355  20.837 -0.0007 -0.1732  0.0786
  113BOLB   C2D 2710  32.776  19.666  20.669  0.0593 -0.1692  0.1005
  113BOLB   C3D 2711  32.347  19.932  20.753 -0.0290  0.0264 -0.0994
  113BOLB   C4D 2712  31.947  20.068  20.982 -0.0467  0.0617 -0.1888
  114BOLB   NC1 2713  28.835  17.847   0.265  0.3139  0.0797  0.3140
  114BOLB   PO1 2714  28.990  18.208   0.280 -0.1398  0.2248  0.1001
  114BOLB   GL1 2715  28.870  18.316  26.833  0.4363 -0.0611 -0.1501
  114BOLB   GL2 2716  28.746  17.997  26.708 -0.0706 -0.1335 -0.0368
  114BOLB   C1A 2717  28.662  18.671  26.568  0.5194  0.3253  0.0531
  114BOLB   C2A 2718  28.259  18.861  26.603 -0.1074  0.4414 -0.0550
  114BOLB   C3A 2719  27.998  18.888   0.124 -0.1544  0.3079  0.1904
  114BOLB   C4A 2720  27.668  18.716   0.419 -0.2108  0.2718  0.2929
  114BOLB   C1B 2721  28.664  18.219  26.285 -0.3880 -0.0225  0.2396
  114BOLB   C2B 2722  28.557  18.697  26.098 -0.2983  0.0801  0.0160
  114BOLB   C3B 2723  28.533  18.920  25.735 -0.2046 -0.0905  0.2328
  114BOLB   C4B 2724  28.458  19.181  25.391  0.1857  0.0200 -0.4820
  114BOLB   NC2 2725  27.260  17.011   1.992 -0.1408  0.1841  0.1245
  114BOLB   PO2 2726  27.384  16.895   1.719  0.0026  0.0053 -0.0102
  114BOLB   GL3 2727  27.316  17.251   1.516  0.3389  0.1687 -0.0511
  114BOLB   GL4 2728  27.219  17.534   1.796  0.1163  0.2372 -0.1196
  114BOLB   C1C 2729  27.219  17.610   1.303  0.0955 -0.1654 -0.1179
  114BOLB   C2C 2730  27.380  17.927   1.134  0.1887  0.1595  0.1026
  114BOLB   C3C 2731  27.591  18.109   0.887  0.0402  0.0069 -0.0871
  114BOLB   C4C 2732  27.610  18.490   0.745  0.0999  0.1571  0.0427
  114BOLB   C1D 2733  26.969  17.724   2.100 -0.1071  0.1317 -0.0249
  114BOLB   C2D 2734  26.742  18.130   2.168 -0.1092  0.0087 -0.0405
  114BOLB   C3D 2735  26.392  18.268   2.420 -0.0566  0.0502  0.0533
  114BOLB   C4D 2736  26.104  17.944   2.613 -0.0498  0.2010 -0.2589
  115BOLB   NC1 2737  35.203  32.722  23.451 -0.2058 -0.0927 -0.2140
  115BOLB   PO1 2738  35.406  32.337  23.446  0.2692 -0.0247 -0.1596
  115BOLB   GL1 2739  35.749  32.419  23.621 -0.3660 -0.0404 -0.1359
  115BOLB   GL2 2740  36.020  32.283  23.380  0.1654  0.2298 -0.2157
  115BOLB   C1A 2741  36.038  32.531  23.876 -0.1766 -0.1468  0.2625
  115BOLB   C2A 2742  36.507  32.455  24.037 -0.0685  0.3314 -0.0525
  115BOLB   C3A 2743  36.687  32.322  24.348  0.1299 -0.0075 -0.1018
  115BOLB   C4A 2744  37.095  32.072  24.421  0.2335 -0.1606 -0.0504
  115BOLB   C1B 2745  36.397  32.265  23.397  0.2800  0.0166 -0.1742
  115BOLB   C2B 2746  36.782  32.408  23.435  0.0440  0.2326  0.1825
  115BOLB   C3B 2747  36.980  32.673  23.758 -0.1266  0.5348 -0.2694
  115BOLB   C4B 2748  36.910  32.890  24.209 -0.0575  0.4659  0.1298
  115BOLB   NC2 2749  39.472  32.341  24.502  0.0542  0.0999  0.0047
  115BOLB   PO2 2750  39.289  32.533  24.918 -0.1091  0.2130  0.1796
  115BOLB   GL3 2751  38.907  32.419  24.811 -0.2769  0.2248  0.1194
  115BOLB   GL4 2752  38.579  32.479  24.944  0.2210  0.0397  0.2404
  115BOLB   C1C 2753  38.683  32.100  24.686  0.2148 -0.0751  0.2121
  115BOLB   C2C 2754  38.319  32.096  24.468 -0.1082 -0.0371  0.2832
  115BOLB   C3C 2755  37.927  32.175  24.442 -0.1081 -0.0321  0.2279
  115BOLB   C4C 2756  37.543  32.172  24.510 -0.1577 -0.3996  0.0082
  115BOLB   C1D 2757  38.116  32.470  24.876  0.0911 -0.1402  0.3867
  115BOLB   C2D 2758  37.655  32.339  24.979  0.1061 -0.1341 -0.3055
  115BOLB   C3D 2759  37.257  32.327  24.950 -0.1918 -0.2369  0.0182
  115BOLB   C4D 2760  37.062  32.571  24.573 -0.2756 -0.0186 -0.1355
  116BOLB   NC1 2761  18.900  21.071  14.882  0.1892 -0.0788  0.0457
  116BOLB   PO1 2762  19.246  21.156  15.163 -0.0456  0.2534  0.0183
  116BOLB   GL1 2763  19.432  21.427  15.472  0.0121  0.2985 -0.0545
  116BOLB   GL2 2764  19.649  21.642  15.395  0.0275 -0.0618 -0.0087
  116BOLB   C1A 2765  19.397  21.830  15.795  0.0947 -0.0174 -0.0317
  116BOLB   C2A 2766  19.526  21.939  16.169 -0.0189  0.2280  0.0260
  116BOLB   C3A 2767  19.705  22.184  16.492  0.2836 -0.3310 -0.1888
  116BOLB   C4A 2768  20.192  22.360  16.431  0.1367  0.2077 -0.1357
  116BOLB   C1B 2769  19.880  21.614  15.805  0.3187  0.1884  0.2172
  116BOLB   C2B 2770  19.841  21.556  16.224  0.0120 -0.1990 -0.1095
  116BOLB   C3B 2771  19.889  21.152  16.317 -0.1565  0.0891  0.0591
  116BOLB   C4B 2772  19.757  20.610  16.245 -0.1290 -0.0516 -0.2305
  116BOLB   NC2 2773  20.308  21.246  14.633 -0.3460  0.0848 -0.3117
  116BOLB   PO2 2774  20.771  21.423  14.806 -0.2759  0.2295 -0.0897
  116BOLB   GL3 2775  20.740  21.852  15.120  0.2163 -0.0475  0.2312
  116BOLB   GL4 2776  21.038  21.775  15.264  0.0512 -0.0645 -0.0606
  116BOLB   C1C 2777  20.585  22.270  15.427  0.1786 -0.4530 -0.0454
  116BOLB   C2C 2778  20.804  22.506  15.766 -0.0554 -0.0841 -0.0596
  116BOLB   C3C 2779  20.830  22.428  16.143  0.3086 -0.1339  0.2760
  116BOLB   C4C 2780  20.634  22.509  16.488 -0.2910 -0.1368 -0.0768
  116BOLB   C1D 2781  21.063  22.168  15.575 -0.1583  0.1730  0.1818
  116BOLB   C2D 2782  21.246  22.192  16.022  0.0059  0.2692 -0.1298
  116BOLB   C3D 2783  21.314  21.998  16.415 -0.3031 -0.0033 -0.1325
  116BOLB   C4D 2784  21.538  21.695  16.697 -0.1814 -0.2356  0.0041
  117BOLB   NC1 2785  26.909  36.693  11.963  0.0436  0.4495 -0.3029
  117BOLB   PO1 2786  26.698  36.392  11.733  0.1983  0.1006 -0.2565
  117BOLB   GL1 2787  26.802  36.058  12.018 -0.0763 -0.0793 -0.4220
  117BOLB   GL2 2788  26.969  36.276  12.225  0.2671  0.0019  0.1908
  117BOLB   C1A 2789  27.061  35.817  12.301  0.3536  0.1153  0.1699
  117BOLB   C2A 2790  27.165  36.002  12.651 -0.1317  0.0839  0.5276
  117BOLB   C3A 2791  27.279  36.126  13.020  0.0030  0.0096 -0.2296
  117BOLB   C4A 2792  27.415  36.347  13.312  0.1743  0.1372  0.4380
  117BOLB   C1B 2793  26.649  36.266  12.569  0.1074 -0.0092  0.2059
  117BOLB   C2B 2794  26.382  36.183  12.885  0.0856 -0.1587  0.0203
  117BOLB   C3B 2795  26.090  36.248  13.170 -0.0274  0.2560 -0.2097
  117BOLB   C4B 2796  26.001  36.476  13.551 -0.0988 -0.1694  0.0270
  117BOLB   NC2 2797  27.537  35.721  15.779 -0.2491  0.0914 -0.1079
  117BOLB   PO2 2798  27.721  35.456  15.428 -0.0526 -0.1552 -0.1020
  117BOLB   GL3 2799  27.722  35.524  15.033 -0.1766  0.2159  0.3611
  117BOLB   GL4 2800  27.992  35.443  14.915 -0.0682  0.0155 -0.2715
  117BOLB   C1C 2801  27.705  35.992  14.876 -0.2420  0.3736  0.0942
  117BOLB   C2C 2802  27.658  36.438  14.466  0.1772  0.2526 -0.2418
  117BOLB   C3C 2803  27.442  36.547  14.114  0.2345 -0.2039 -0.0093
  117BOLB   C4C 2804  27.481  36.623  13.660 -0.1250  0.2575  0.1164
  117BOLB   C1D 2805  27.992  35.513  14.436  0.3472 -0.0182 -0.2617
  117BOLB   C2D 2806  27.953  35.877  14.404  0.3384 -0.1406  0.3872
  117BOLB   C3D 2807  28.197  36.170  14.291  0.2463 -0.2438 -0.0429
  117BOLB   C4D 2808  28.368  36.436  13.936  0.0786  0.0360  0.0638
  118BOLB   NC1 2809  35.381  26.699  21.261  0.3267  0.0708 -0.2174
  118BOLB   PO1 2810  35.164  27.146  21.308 -0.0646 -0.2755  0.0047
  118BOLB   GL1 2811  35.647  27.132  21.308  0.1331  0.0974 -0.0408
  118BOLB   GL2 2812  35.702  27.053  20.912 -0.0355 -0.0602  0.2945
  118BOLB   C1A 2813  36.037  26.816  21.193  0.0665 -0.2298  0.0055
  118BOLB   C2A 2814  36.447  26.693  21.109  0.0371  0.0670  0.0906
  118BOLB   C3A 2815  36.707  26.544  20.884  0.0919  0.3131  0.2997
  118BOLB   C4A 2816  37.054  26.247  20.933 -0.1885  0.2317  0.0619
  118BOLB   C1B 2817  36.067  27.004  20.735 -0.0341 -0.2531  0.0008
  118BOLB   C2B 2818  36.476  26.963  20.610 -0.0141 -0.1930  0.0191
  118BOLB   C3B 2819  36.677  26.535  20.375  0.2140 -0.0964 -0.3356
  118BOLB   C4B 2820  36.796  26.219  20.090  0.0448  0.1490  0.1138
  118BOLB   NC2 2821  39.112  25.683  19.954  0.2417  0.0204 -0.0639
  118BOLB   PO2 2822  39.217  25.865  20.376  0.0168 -0.5150  0.0574
  118BOLB   GL3 2823  38.837  25.982  20.543  0.0211  0.0832 -0.1953
  118BOLB   GL4 2824  38.725  25.684  20.684 -0.0421 -0.1521 -0.0912
  118BOLB   C1C 2825  38.399  26.058  20.542 -0.0473 -0.0595 -0.0581
  118BOLB   C2C 2826  38.127  26.221  20.872  0.2917  0.0003  0.3956
  118BOLB   C3C 2827  37.865  26.298  21.029  0.2670  0.4006 -0.0151
  118BOLB   C4C 2828  37.408  26.207  20.974 -0.4405 -0.0887 -0.2859
  118BOLB   C1D 2829  38.302  25.560  20.560  0.1769 -0.4949 -0.0834
  118BOLB   C2D 2830  37.986  25.754  20.625 -0.1414 -0.0060  0.0923
  118BOLB   C3D 2831  37.549  25.778  20.624 -0.3085  0.1295  0.2234
  118BOLB   C4D 2832  37.356  26.213  20.352 -0.2276  0.3624  0.0603
  119BOLB   NC1 2833  32.638  30.384  15.768  0.2070 -0.2153  0.0030
  119BOLB   PO1 2834  32.928  30.422  15.311  0.2046 -0.0181 -0.3651
  119BOLB   GL1 2835  33.193  30.270  14.936  0.1447  0.1092  0.0626
  119BOLB   GL2 2836  33.376  29.991  15.109 -0.1769 -0.1298  0.1528
  119BOLB   C1A 2837  33.423  30.372  14.649  0.1614 -0.0383  0.1690
  119BOLB   C2A 2838  33.738  30.546  14.278  0.3861 -0.1422 -0.1247
  119BOLB   C3A 2839  34.010  30.838  14.096 -0.1834  0.0859 -0.0785
  119BOLB   C4A 2840  34.371  30.726  14.148 -0.1316  0.0810  0.2951
  119BOLB   C1B 2841  33.657  29.835  14.752 -0.3214  0.0378  0.1678
  119BOLB   C2B 2842  33.956  29.809  14.367  0.1478 -0.0732  0.0749
  119BOLB   C3B 2843  33.929  29.929  14.019  0.0444 -0.0864 -0.0079
  119BOLB   C4B 2844  34.262  30.024  13.640 -0.0683  0.0829 -0.6116
  119BOLB   NC2 2845  35.482  30.961  12.463 -0.0075  0.0643 -0.0204
  119BOLB   PO2 2846  35.010  31.023  12.220  0.1094 -0.1572 -0.0544
  119BOLB   GL3 2847  34.985  30.971  12.588  0.0554  0.1999  0.2612
  119BOLB   GL4 2848  34.650  30.986  12.568  0.0786  0.0839  0.0368
  119BOLB   C1C 2849  35.076  30.626  12.906 -0.0002 -0.1082  0.2848
  119BOLB   C2C 2850  35.097  30.538  13.315 -0.1911  0.2595  0.0244
  119BOLB   C3C 2851  34.963  30.479  13.717  0.1821  0.0919  0.2238
  119BOLB   C4C 2852  34.632  30.422  13.927 -0.2113  0.0284 -0.0950
  119BOLB   C1D 2853  34.614  31.146  12.969  0.2919 -0.2439  0.0737
  119BOLB   C2D 2854  34.304  31.217  13.265  0.2399 -0.4820 -0.1935
  119BOLB   C3D 2855  34.010  31.317  13.434 -0.2633 -0.2488 -0.0315
  119BOLB   C4D 2856  33.589  31.525  13.204  0.0794 -0.1738  0.2283
  120BOLB   NC1 2857  23.569  36.294  23.387  0.1180  0.1286 -0.0352
  120BOLB   PO1 2858  23.291  36.264  23.734  0.1063  0.1194 -0.3145
  120BOLB   GL1 2859  23.097  36.643  23.868 -0.0695  0.1608 -0.4537
  120BOLB   GL2 2860  22.874  36.503  24.071 -0.1994 -0.4734 -0.1863
  120BOLB   C1A 2861  22.871  37.011  24.049  0.1325 -0.0968 -0.0762
  120BOLB   C2A 2862  22.800  37.407  24.107 -0.0741 -0.0115  0.1719
  120BOLB   C3A 2863  22.776  37.825  24.266 -0.1098  0.0063  0.3199
  120BOLB   C4A 2864  22.365  38.096  24.341 -0.0017  0.0139 -0.1768
  120BOLB   C1B 2865  22.594  36.697  24.357 -0.0521 -0.0574 -0.0800
  120BOLB   C2B 2866  22.374  37.066  24.338 -0.0682 -0.0821 -0.1523
  120BOLB   C3B 2867  21.953  37.118  24.239 -0.0049  0.0593 -0.1622
  120BOLB   C4B 2868  21.614  36.807  24.109 -0.0132  0.2997  0.0520
  120BOLB   NC2 2869  21.566  39.911  24.142 -0.2439  0.0953 -0.0376
  120BOLB   PO2 2870  21.115  39.879  24.135  0.0739 -0.1863  0.2723
  120BOLB   GL3 2871  21.335  39.396  24.115 -0.0252  0.0846 -0.2211
  120BOLB   GL4 2872  21.585  39.259  23.771 -0.0383 -0.1702 -0.4036
  120BOLB   C1C 2873  21.430  39.223  24.515 -0.2475  0.1030  0.1095
  120BOLB   C2C 2874  21.671  38.959  24.680  0.3785 -0.2133 -0.3077
  120BOLB   C3C 2875  21.833  38.640  24.586  0.0086 -0.1796  0.1176
  120BOLB   C4C 2876  22.112  38.372  24.380  0.3079 -0.2806 -0.0284
  120BOLB   C1D 2877  21.759  38.880  23.605 -0.1872 -0.2082  0.0649
  120BOLB   C2D 2878  22.179  38.623  23.502 -0.3159 -0.2609  0.0151
  120BOLB   C3D 2879  22.557  38.578  23.493 -0.0486  0.1329 -0.2333
  120BOLB   C4D 2880  22.857  38.304  23.364  0.2082 -0.3618  0.1244
  121BOLB   NC1 2881  26.079  21.613   7.485  0.3287 -0.0608  0.3635
  121BOLB   PO1 2882  25.683  21.611   7.330  0.2281  0.4168 -0.3592
  121BOLB   GL1 2883  25.581  22.081   7.256  0.2022  0.0404 -0.1440
  121BOLB   GL2 2884  25.418  22.270   7.512  0.1193 -0.0702  0.1398
  121BOLB   C1A 2885  25.599  22.473   7.005  0.2233  0.1139 -0.1580
  121BOLB   C2A 2886  25.581  22.893   6.970  0.0609  0.1586  0.1993
  121BOLB   C3A 2887  25.661  23.241   6.611 -0.3941 -0.0056  0.0115
  121BOLB   C4A 2888  26.010  23.480   6.539  0.0523 -0.2471  0.4206
  121BOLB   C1B 2889  25.167  22.366   7.158  0.1367 -0.0650  0.1177
  121BOLB   C2B 2890  24.951  22.547   6.844  0.0913  0.3431 -0.1242
  121BOLB   C3B 2891  24.818  22.776   6.399  0.2163  0.1380 -0.0291
  121BOLB   C4B 2892  24.913  22.667   5.991  0.0584  0.0044  0.1670
  121BOLB   NC2 2893  27.456  24.576   7.958 -0.2699  0.0206  0.0603
  121BOLB   PO2 2894  27.387  24.146   8.222  0.1593 -0.0810 -0.2400
  121BOLB   GL3 2895  27.135  24.135   7.969  0.2994 -0.1565  0.0529
  121BOLB   GL4 2896  26.936  23.972   8.116 -0.1409  0.0942  0.0262
  121BOLB   C1C 2897  27.120  24.251   7.411 -0.0874  0.3114 -0.1425
  121BOLB   C2C 2898  26.730  24.340   7.111 -0.0911 -0.2974 -0.0267
  121BOLB   C3C 2899  26.428  24.145   6.759 -0.0469  0.1831  0.1742
  121BOLB   C4C 2900  26.152  23.850   6.462 -0.0962  0.0125 -0.1444
  121BOLB   C1D 2901  26.603  24.176   7.867 -0.2335  0.2624 -0.1591
  121BOLB   C2D 2902  26.692  24.442   7.602 -0.2386  0.0705 -0.0888
  121BOLB   C3D 2903  26.425  24.597   7.309 -0.1230 -0.0932 -0.1172
  121BOLB   C4D 2904  26.222  24.536   6.933  0.2067  0.2674  0.0592
  122BOLB   NC1 2905  20.968  19.487  16.303  0.3291  0.2070 -0.3648
  122BOLB   PO1 2906  20.633  19.308  16.320 -0.3550  0.1960 -0.0705
  122BOLB   GL1 2907  20.578  19.460  16.732 -0.0842  0.0837  0.0752
  122BOLB   GL2 2908  20.539  19.769  16.735  0.2303  0.1176 -0.0458
  122BOLB   C1A 2909  20.864  19.534  17.018  0.0780  0.0689  0.0468
  122BOLB   C2A 2910  21.306  19.567  16.985 -0.0047 -0.1510  0.0752
  122BOLB   C3A 2911  21.575  19.500  17.324 -0.1667 -0.2166  0.0482
  122BOLB   C4A 2912  21.437  19.515  17.777  0.3295  0.1186  0.1391
  122BOLB   C1B 2913  20.476  20.119  16.962 -0.0236  0.1218  0.0313
  122BOLB   C2B 2914  20.320  20.576  17.106  0.0211  0.2052  0.0804
  122BOLB   C3B 2915  20.269  21.017  17.063 -0.1079 -0.0485  0.0937
  122BOLB   C4B 2916  20.215  21.354  17.296  0.2198  0.1476  0.1472
  122BOLB   NC2 2917  20.282  17.258  17.684 -0.0865 -0.1527  0.3710
  122BOLB   PO2 2918  20.670  17.464  17.737 -0.1572  0.1699 -0.2500
  122BOLB   GL3 2919  20.571  17.821  17.862  0.0642  0.1982  0.1573
  122BOLB   GL4 2920  20.851  17.960  17.832  0.2562 -0.2395  0.0273
  122BOLB   C1C 2921  20.542  18.358  18.020 -0.0635  0.1211  0.1458
  122BOLB   C2C 2922  20.795  18.658  17.895 -0.2774 -0.0668  0.0147
  122BOLB   C3C 2923  20.973  19.087  17.871 -0.0791 -0.0808 -0.0767
  122BOLB   C4C 2924  21.052  19.339  17.924 -0.1365  0.0667  0.2777
  122BOLB   C1D 2925  21.073  18.312  18.070  0.1015  0.4035 -0.1298
  122BOLB   C2D 2926  21.327  18.439  18.420  0.1612 -0.2727  0.1778
  122BOLB   C3D 2927  21.487  18.812  18.689 -0.0744 -0.1555 -0.0180
  122BOLB   C4D 2928  21.845  19.165  18.862  0.4345 -0.2386 -0.2550
  123BOLB   NC1 2929  20.280  22.047   5.499  0.0580 -0.2767 -0.0207
  123BOLB   PO1 2930  20.609  22.014   5.661  0.0287  0.5950  0.0718
  123BOLB   GL1 2931  20.901  22.181   5.805 -0.6312  0.1233 -0.0297
  123BOLB   GL2 2932  20.736  22.519   5.867  0.0466  0.2433 -0.0437
  123BOLB   C1A 2933  21.214  22.369   5.653  0.1539  0.1657  0.0798
  123BOLB   C2A 2934  21.590  22.576   5.692  0.0073  0.1483 -0.0244
  123BOLB   C3A 2935  21.916  22.770   5.519  0.1942  0.4201 -0.0489
  123BOLB   C4A 2936  21.782  23.124   5.279  0.0111  0.1698 -0.2132
  123BOLB   C1B 2937  20.787  22.912   5.817 -0.0839  0.1243 -0.0633
  123BOLB   C2B 2938  20.946  23.206   5.413  0.2109  0.0874 -0.2158
  123BOLB   C3B 2939  20.854  23.554   5.133 -0.2055  0.2358 -0.1007
  123BOLB   C4B 2940  20.933  23.612   4.618  0.0719  0.2580 -0.1811
  123BOLB   NC2 2941  20.356  22.989   6.722 -0.0263  0.2414  0.1833
  123BOLB   PO2 2942  20.641  23.249   6.749  0.0352  0.2756  0.2277
  123BOLB   GL3 2943  21.047  23.425   6.542 -0.0997  0.0484 -0.1098
  123BOLB   GL4 2944  20.876  23.267   6.344 -0.0799 -0.1006 -0.2269
  123BOLB   C1C 2945  21.232  23.675   6.317  0.0493 -0.2245  0.1362
  123BOLB   C2C 2946  21.407  23.658   5.931  0.1883 -0.1125  0.0201
  123BOLB   C3C 2947  21.369  23.686   5.436 -0.0221  0.1293 -0.0151
  123BOLB   C4C 2948  21.575  23.351   5.184  0.1248  0.2700  0.1804
  123BOLB   C1D 2949  20.756  23.743   6.222 -0.2575  0.1504 -0.0852
  123BOLB   C2D 2950  20.689  24.080   6.082 -0.0787 -0.0196  0.0084
  123BOLB   C3D 2951  20.426  24.239   5.778  0.0366 -0.2108 -0.0503
  123BOLB   C4D 2952  20.076  24.401   5.733  0.2014 -0.1036  0.2849
  124BOLB   NC1 2953  26.125  27.021   8.540 -0.0060  0.2172 -0.2992
  124BOLB   PO1 2954  25.672  26.962   8.421 -0.0113 -0.1379 -0.0482
  124BOLB   GL1 2955  25.857  26.870   8.030 -0.4710 -0.0068 -0.1781
  124BOLB   GL2 2956  26.000  27.144   8.002 -0.1323  0.1057 -0.0984
  124BOLB   C1A 2957  26.017  26.514   7.759 -0.0309 -0.2951  0.2373
  124BOLB   C2A 2958  26.325  26.523   7.462  0.1178  0.1504  0.1693
  124BOLB   C3A 2959  26.583  26.175   7.214  0.1235 -0.2346  0.0705
  124BOLB   C4A 2960  26.967  25.911   7.256  0.0576  0.0960  0.0795
  124BOLB   C1B 2961  25.722  27.272   7.595 -0.0583  0.1184  0.0421
  124BOLB   C2B 2962  25.415  27.521   7.460  0.0544  0.1920 -0.0552
  124BOLB   C3B 2963  25.022  27.519   7.656 -0.0351  0.0424 -0.1467
  124BOLB   C4B 2964  24.689  27.269   7.842 -0.1480 -0.0137  0.2371
  124BOLB   NC2 2965  28.966  25.415   7.579  0.0667  0.0260  0.0767
  124BOLB   PO2 2966  29.033  25.662   7.210  0.1460 -0.1496  0.1500
  124BOLB   GL3 2967  28.853  25.541   6.789  0.3581  0.1750  0.0087
  124BOLB   GL4 2968  28.741  25.851   6.501  0.1281 -0.1480  0.1912
  124BOLB   C1C 2969  28.417  25.404   6.685 -0.0817 -0.0848  0.0019
  124BOLB   C2C 2970  28.042  25.463   6.884 -0.1192 -0.2637 -0.2543
  124BOLB   C3C 2971  27.824  25.769   7.132  0.2892  0.0305 -0.2188
  124BOLB   C4C 2972  27.405  25.927   7.109 -0.3087  0.4306  0.0251
  124BOLB   C1D 2973  28.591  25.656   6.253  0.1194 -0.1947  0.1400
  124BOLB   C2D 2974  28.327  25.707   6.073 -0.2099 -0.0747  0.0676
  124BOLB   C3D 2975  28.212  25.686   5.806 -0.2460 -0.0342 -0.1985
  124BOLB   C4D 2976  27.949  25.419   5.823 -0.1265  0.3864  0.1572
  125BOLB   NC1 2977  33.369  29.068  11.073  0.0189  0.0437  0.1119
  125BOLB   PO1 2978  33.328  28.729  11.365  0.0049 -0.2726  0.1707
  125BOLB   GL1 2979  33.232  28.456  11.597  0.2390 -0.2033  0.0807
  125BOLB   GL2 2980  33.431  28.199  11.602  0.0333 -0.2405 -0.4724
  125BOLB   C1A 2981  33.031  28.508  11.927  0.2349 -0.0503 -0.0155
  125BOLB   C2A 2982  33.102  28.499  12.290 -0.0846  0.1786 -0.0161
  125BOLB   C3A 2983  32.822  28.454  12.645 -0.1063 -0.1089  0.3405
  125BOLB   C4A 2984  32.758  28.234  13.029 -0.2996 -0.3814  0.0467
  125BOLB   C1B 2985  33.332  28.029  11.963 -0.3540  0.1925 -0.3526
  125BOLB   C2B 2986  33.092  28.008  12.210 -0.0349 -0.0675  0.3481
  125BOLB   C3B 2987  32.752  28.099  12.235  0.1149  0.0599 -0.1430
  125BOLB   C4B 2988  32.363  27.894  12.374 -0.1608  0.1233 -0.2395
  125BOLB   NC2 2989  31.741  27.750  15.300  0.0019 -0.2222  0.0627
  125BOLB   PO2 2990  32.063  27.777  15.273 -0.1249 -0.0299  0.1453
  125BOLB   GL3 2991  32.250  27.834  14.915 -0.0721 -0.0114  0.2663
  125BOLB   GL4 2992  32.548  27.728  14.883  0.3198 -0.2171  0.0239
  125BOLB   C1C 2993  32.420  27.897  14.443  0.0776  0.1770 -0.1893
  125BOLB   C2C 2994  32.337  28.202  14.258 -0.1130  0.3006 -0.2032
  125BOLB   C3C 2995  32.456  28.370  13.885 -0.2015  0.0869 -0.1794
  125BOLB   C4C 2996  32.605  28.319  13.477  0.1316  0.0245  0.3705
  125BOLB   C1D 2997  32.759  27.543  14.579 -0.0729  0.2744  0.0217
  125BOLB   C2D 2998  32.918  27.441  14.247  0.0889 -0.1135 -0.0099
  125BOLB   C3D 2999  33.140  27.413  13.907  0.0074  0.3919  0.1347
  125BOLB   C4D 3000  33.052  27.063  13.683 -0.1747  0.0404  0.2472
  126BOLB   NC1 3001  21.614  40.241  23.368  0.0677  0.0609  0.0952
  126BOLB   PO1 3002  21.235  39.995  23.095 -0.1354  0.0712 -0.1192
  126BOLB   GL1 3003  21.391  39.599  23.181  0.3711 -0.0620  0.2041
  126BOLB   GL2 3004  21.119  39.417  23.095 -0.3374  0.4374 -0.2968
  126BOLB   C1A 3005  21.722  39.287  23.171 -0.2027  0.1107 -0.0506
  126BOLB   C2A 3006  22.119  38.994  23.000  0.1105 -0.0749  0.0856
  126BOLB   C3A 3007  22.260  38.548  22.870 -0.0934  0.2563  0.3182
  126BOLB   C4A 3008  22.419  38.257  22.690  0.0906 -0.1421  0.2346
  126BOLB   C1B 3009  21.297  39.005  23.123 -0.0425 -0.1565  0.0397
  126BOLB   C2B 3010  21.549  38.650  23.139  0.1673 -0.1005  0.0760
  126BOLB   C3B 3011  21.915  38.379  23.156 -0.1128 -0.1767 -0.2446
  126BOLB   C4B 3012  22.305  38.191  23.274 -0.4073 -0.1918  0.2260
  126BOLB   NC2 3013  22.970  35.846  23.497  0.1107 -0.1322  0.1885
  126BOLB   PO2 3014  23.122  36.105  23.226 -0.1976 -0.3827  0.7044
  126BOLB   GL3 3015  22.981  36.450  23.015  0.2428  0.1188 -0.3302
  126BOLB   GL4 3016  22.653  36.420  22.787  0.2629 -0.0054  0.2464
  126BOLB   C1C 3017  22.871  36.879  23.052  0.0321  0.2041 -0.1398
  126BOLB   C2C 3018  22.733  37.337  23.088  0.3785  0.0278  0.0375
  126BOLB   C3C 3019  22.592  37.694  23.183  0.0618 -0.4276  0.0304
  126BOLB   C4C 3020  22.706  38.030  22.918 -0.1685  0.3736 -0.1552
  126BOLB   C1D 3021  22.228  36.706  22.895  0.0127  0.1774  0.0423
  126BOLB   C2D 3022  21.980  37.002  23.034  0.1757  0.0022 -0.0505
  126BOLB   C3D 3023  21.796  37.383  23.254 -0.0933 -0.1243 -0.2116
  126BOLB   C4D 3024  21.446  37.328  23.444  0.0915 -0.2948 -0.0576
  127BOLB   NC1 3025  32.662  22.844   3.346 -0.0339  0.1670 -0.0651
  127BOLB   PO1 3026  32.257  22.628   3.562  0.2196  0.3217 -0.1992
  127BOLB   GL1 3027  32.045  22.933   3.341 -0.0432  0.1433 -0.1367
  127BOLB   GL2 3028  32.160  23.054   3.152 -0.0667 -0.0539 -0.1845
  127BOLB   C1A 3029  31.629  23.167   3.251  0.0023 -0.1848 -0.3070
  127BOLB   C2A 3030  31.326  23.507   3.080 -0.0097 -0.0755  0.0964
  127BOLB   C3A 3031  31.111  23.729   2.778 -0.2304 -0.0067  0.1302
  127BOLB   C4A 3032  30.920  23.945   2.412  0.0841 -0.0601  0.1763
  127BOLB   C1B 3033  31.925  22.979   2.796  0.0210  0.0341  0.0266
  127BOLB   C2B 3034  31.951  23.210   2.387  0.1911  0.0525  0.1027
  127BOLB   C3B 3035  31.655  23.448   2.045 -0.1468  0.2736  0.0749
  127BOLB   C4B 3036  31.519  23.810   1.902  0.0562 -0.0025 -0.0145
  127BOLB   NC2 3037  30.223  25.141   0.349  0.0016 -0.0860 -0.1395
  127BOLB   PO2 3038  30.146  24.942   0.717  0.2702  0.0690 -0.2614
  127BOLB   GL3 3039  30.202  24.611   0.827  0.0293 -0.0049  0.2232
  127BOLB   GL4 3040  29.819  24.464   0.935 -0.0339 -0.0864  0.0738
  127BOLB   C1C 3041  30.464  24.469   1.177 -0.3472  0.1556  0.1587
  127BOLB   C2C 3042  30.559  24.706   1.556 -0.4097 -0.1408 -0.0355
  127BOLB   C3C 3043  30.891  24.497   1.728  0.0450  0.1091 -0.2618
  127BOLB   C4C 3044  30.972  24.323   2.091  0.0476 -0.1596  0.0406
  127BOLB   C1D 3045  29.711  24.233   1.294 -0.0202 -0.1597  0.1750
  127BOLB   C2D 3046  29.646  23.941   1.394  0.1358  0.3548  0.0504
  127BOLB   C3D 3047  29.161  23.876   1.515 -0.1427  0.0987 -0.2181
  127BOLB   C4D 3048  28.916  23.613   1.752 -0.2447 -0.0337  0.0909
  128BOLB   NC1 3049  30.267  19.397  15.054 -0.1176  0.0981  0.1576
  128BOLB   PO1 3050  30.279  19.440  14.624  0.1996  0.4564 -0.1337
  128BOLB   GL1 3051  30.205  19.847  14.820  0.1470  0.1850  0.2816
  128BOLB   GL2 3052  30.527  19.852  15.021  0.0204 -0.0597 -0.3369
  128BOLB   C1A 3053  29.954  20.265  14.786 -0.2226  0.1482  0.0059
  128BOLB   C2A 3054  29.802  20.640  15.104 -0.0184  0.4500  0.1438
  128BOLB   C3A 3055  29.718  20.932  15.226  0.1956  0.1322  0.1430
  128BOLB   C4A 3056  29.455  21.272  15.319 -0.0632 -0.0644  0.1710
  128BOLB   C1B 3057  30.300  20.087  15.349  0.2825 -0.3152 -0.3416
  128BOLB   C2B 3058  30.057  20.489  15.539 -0.0050  0.0330  0.2113
  128BOLB   C3B 3059  29.807  20.512  15.935 -0.3035  0.0581  0.0868
  128BOLB   C4B 3060  29.801  20.792  16.181  0.2590 -0.0452 -0.0893
  128BOLB   NC2 3061  29.152  23.489  17.053 -0.0426 -0.0260 -0.0052
  128BOLB   PO2 3062  29.049  23.313  16.627  0.0851  0.0091 -0.4777
  128BOLB   GL3 3063  29.196  22.900  16.469 -0.0456  0.0305  0.2582
  128BOLB   GL4 3064  28.907  22.618  16.385 -0.2480 -0.3216  0.0590
  128BOLB   C1C 3065  29.388  22.622  16.233  0.0092  0.0359 -0.1462
  128BOLB   C2C 3066  29.588  22.359  15.898 -0.0698 -0.0834 -0.4403
  128BOLB   C3C 3067  29.380  22.087  15.688 -0.2245 -0.1366 -0.0964
  128BOLB   C4C 3068  29.545  21.677  15.448  0.3537 -0.1392  0.0368
  128BOLB   C1D 3069  28.754  22.498  15.983  0.1124  0.0901  0.4330
  128BOLB   C2D 3070  28.566  22.425  15.613  0.1079 -0.5864 -0.2589
  128BOLB   C3D 3071  28.641  22.251  15.201 -0.1426 -0.0674  0.3249
  128BOLB   C4D 3072  28.793  22.141  14.779 -0.0698  0.1748 -0.0625
  129BOLB   NC1 3073  20.141  32.339  21.403  0.2350  0.2056 -0.1233
  129BOLB   PO1 3074  20.286  32.802  21.282 -0.5715  0.2145 -0.0372
  129BOLB   GL1 3075  19.947  32.993  21.230 -0.2010  0.1945  0.2674
  129BOLB   GL2 3076  19.846  33.333  21.563 -0.1433  0.0683 -0.0915
  129BOLB   C1A 3077  19.511  33.001  20.944 -0.0490 -0.2795  0.0523
  129BOLB   C2A 3078  19.248  33.228  20.683 -0.1208 -0.1997  0.4362
  129BOLB   C3A 3079  18.878  33.332  20.621  0.2734  0.3322 -0.1231
  129BOLB   C4A 3080  18.485  33.289  20.617 -0.0280  0.2138 -0.2918
  129BOLB   C1B 3081  19.560  33.502  21.279  0.1353 -0.2998 -0.0343
  129BOLB   C2B 3082  19.202  33.604  21.054 -0.1002  0.1034 -0.1180
  129BOLB   C3B 3083  18.926  33.773  20.794 -0.2425  0.1858 -0.2295
  129BOLB   C4B 3084  18.774  33.799  20.394 -0.0380 -0.1395  0.0475
  129BOLB   NC2 3085  16.345  32.809  19.925 -0.1170 -0.1146 -0.0556
  129BOLB   PO2 3086  16.237  33.046  20.253  0.0441 -0.0174  0.0111
  129BOLB   GL3 3087  16.466  33.081  20.634  0.0567 -0.0493 -0.0347
  129BOLB   GL4 3088  16.772  33.034  20.415  0.1378 -0.1697 -0.0655
  129BOLB   C1C 3089  16.833  32.969  20.886 -0.1261 -0.2456 -0.0538
  129BOLB   C2C 3090  17.251  32.988  20.880  0.1138  0.2699 -0.2727
  129BOLB   C3C 3091  17.779  32.941  20.920 -0.2719 -0.1507 -0.0237
  129BOLB   C4C 3092  18.164  33.017  20.657  0.0339  0.0313 -0.2108
  129BOLB   C1D 3093  17.139  33.008  20.338  0.0064 -0.0875  0.2381
  129BOLB   C2D 3094  17.382  32.700  20.083 -0.2356 -0.1991 -0.0369
  129BOLB   C3D 3095  17.315  32.238  20.020  0.2479  0.0509  0.0473
  129BOLB   C4D 3096  17.428  31.979  19.671 -0.1109 -0.0168 -0.1110
  130BOLB   NC1 3097  35.560  30.126  18.665 -0.1835 -0.2447  0.2099
  130BOLB   PO1 3098  35.810  29.792  18.914 -0.4137 -0.0217  0.2832
  130BOLB   GL1 3099  36.070  30.156  18.882 -0.1240  0.2733 -0.0512
  130BOLB   GL2 3100  36.098  30.283  19.153 -0.1579  0.0318 -0.2076
  130BOLB   C1A 3101  36.547  30.310  18.863 -0.0319 -0.0294  0.2152
  130BOLB   C2A 3102  36.951  30.584  18.892  0.0777 -0.3735 -0.0478
  130BOLB   C3A 3103  37.294  30.841  18.809  0.1278  0.2636  0.0297
  130BOLB   C4A 3104  37.610  30.920  18.707  0.2666 -0.0139 -0.0047
  130BOLB   C1B 3105  36.386  29.920  19.196 -0.1735  0.0836  0.1455
  130BOLB   C2B 3106  36.513  29.767  18.862  0.2700  0.0454 -0.2309
  130BOLB   C3B 3107  36.642  29.926  18.489 -0.0628  0.0232  0.1396
  130BOLB   C4B 3108  36.830  30.224  18.180 -0.1499  0.2788 -0.0993
  130BOLB   NC2 3109  38.949  31.225  16.958 -0.0006  0.0685 -0.1259
  130BOLB   PO2 3110  39.111  31.325  17.302 -0.0830  0.0898  0.0621
  130BOLB   GL3 3111  38.852  31.492  17.469 -0.1771  0.2494 -0.2194
  130BOLB   GL4 3112  38.749  31.582  17.805 -0.1370  0.1220 -0.0130
  130BOLB   C1C 3113  38.413  31.505  17.400  0.1566 -0.0902  0.0137
  130BOLB   C2C 3114  38.050  31.366  17.579  0.1694  0.0018  0.0336
  130BOLB   C3C 3115  37.895  31.359  18.002  0.0779  0.2153  0.3574
  130BOLB   C4C 3116  37.842  31.300  18.460 -0.2581 -0.1123 -0.1808
  130BOLB   C1D 3117  38.430  31.169  17.827 -0.0306 -0.1624 -0.1690
  130BOLB   C2D 3118  38.427  30.999  18.354 -0.1684 -0.1060 -0.4930
  130BOLB   C3D 3119  38.091  30.988  18.762 -0.0527 -0.3196  0.4386
  130BOLB   C4D 3120  37.971  30.874  19.076 -0.0769  0.3134 -0.0150
  131BOLB   NC1 3121  15.295  21.697  17.562  0.1437 -0.0970  0.0662
  131BOLB   PO1 3122  15.734  21.742  17.567 -0.3727 -0.3215 -0.2256
  131BOLB   GL1 3123  15.981  21.588  17.944  0.0049  0.1325 -0.1683
  131BOLB   GL2 3124  15.924  21.218  17.907  0.1246  0.1619  0.3802
  131BOLB   C1A 3125  16.346  21.504  18.209 -0.1237  0.0195  0.0101
  131BOLB   C2A 3126  16.822  21.536  18.342  0.3112  0.1704 -0.0612
  131BOLB   C3A 3127  17.283  21.472  18.576 -0.0211 -0.3867  0.0929
  131BOLB   C4A 3128  17.405  21.138  18.817  0.1257  0.1182 -0.0058
  131BOLB   C1B 3129  16.369  21.232  17.758 -0.1035 -0.2700 -0.2658
  131BOLB   C2B 3130  16.735  21.407  17.863 -0.4541  0.1301 -0.0983
  131BOLB   C3B 3131  16.898  21.807  17.963  0.0996  0.0293 -0.3269
  131BOLB   C4B 3132  16.765  22.176  17.773  0.2517  0.3512 -0.1847
  131BOLB   NC2 3133  17.268  18.561  19.537  0.0120  0.0647  0.3315
  131BOLB   PO2 3134  17.077  18.959  19.478  0.2565 -0.1804 -0.1877
  131BOLB   GL3 3135  17.176  19.328  19.685 -0.0479 -0.0056  0.2105
  131BOLB   GL4 3136  17.140  19.320  19.978  0.3720  0.2089 -0.2125
  131BOLB   C1C 3137  17.053  19.723  19.635  0.0057  0.1430  0.0473
  131BOLB   C2C 3138  16.921  19.975  19.346  0.0262  0.0053  0.0820
  131BOLB   C3C 3139  17.062  20.347  19.089  0.0821 -0.0766 -0.1841
  131BOLB   C4C 3140  17.197  20.735  18.923  0.2114 -0.4421  0.0264
  131BOLB   C1D 3141  17.410  19.619  20.095 -0.1476 -0.1491  0.1802
  131BOLB   C2D 3142  17.568  19.971  19.916 -0.0755  0.0099  0.0579
  131BOLB   C3D 3143  17.773  20.365  19.672  0.1230  0.0578  0.0619
  131BOLB   C4D 3144  17.912  20.745  19.600  0.0546 -0.1833 -0.2968
  132BOLB   NC1 3145  21.393  16.589  25.743  0.3850  0.0844  0.1857
  132BOLB   PO1 3146  21.260  16.782  26.052 -0.2849  0.0604  0.0768
  132BOLB   GL1 3147  21.532  17.013  25.962 -0.4229 -0.0485  0.3985
  132BOLB   GL2 3148  21.686  17.264  26.181  0.0758 -0.0936  0.1374
  132BOLB   C1A 3149  21.944  17.242  25.751 -0.0971 -0.1349  0.5489
  132BOLB   C2A 3150  22.383  17.499  25.845  0.3045 -0.0417 -0.2879
  132BOLB   C3A 3151  22.371  17.942  25.855 -0.2114 -0.1120  0.0427
  132BOLB   C4A 3152  22.436  18.272  26.198 -0.0326  0.1527  0.1784
  132BOLB   C1B 3153  21.976  17.573  26.161  0.0112  0.1475 -0.1844
  132BOLB   C2B 3154  21.969  18.074  26.131  0.0685  0.3619  0.3051
  132BOLB   C3B 3155  21.851  18.395  25.887  0.2300 -0.0505  0.2760
  132BOLB   C4B 3156  21.788  18.601  25.542 -0.2153 -0.0682 -0.1399
  132BOLB   NC2 3157  21.324  17.962   1.822 -0.0932  0.1142  0.1193
  132BOLB   PO2 3158  21.133  17.931   1.340 -0.1493 -0.0001  0.2798
  132BOLB   GL3 3159  21.418  18.043   0.872 -0.3108 -0.0572 -0.1926
  132BOLB   GL4 3160  21.212  18.179   0.650  0.0014  0.1389 -0.0715
  132BOLB   C1C 3161  21.664  18.329   0.696 -0.0152  0.1960 -0.1362
  132BOLB   C2C 3162  21.882  18.404   0.323  0.0508 -0.3062  0.0179
  132BOLB   C3C 3163  22.255  18.330   0.094  0.1824 -0.1282  0.0641
  132BOLB   C4C 3164  22.205  18.244  26.632  0.1216  0.0820  0.0873
  132BOLB   C1D 3165  21.289  18.573   0.474 -0.0912 -0.0647 -0.3964
  132BOLB   C2D 3166  21.357  19.038   0.410 -0.1918 -0.0825  0.2122
  132BOLB   C3D 3167  20.955  19.244   0.084 -0.0680  0.1445  0.0521
  132BOLB   C4D 3168  21.005  19.584  26.615  0.3541  0.0295 -0.0230
  133BOLB   NC1 3169  33.382  30.308  15.515 -0.1207 -0.4913  0.1752
  133BOLB   PO1 3170  33.445  29.948  15.671 -0.0412  0.1875  0.1159
  133BOLB   GL1 3171  33.931  29.986  15.570 -0.3864 -0.0312 -0.0000
  133BOLB   GL2 3172  34.162  30.210  15.562  0.2623  0.1288  0.0236
  133BOLB   C1A 3173  34.013  29.948  15.106 -0.0965  0.1751  0.0182
  133BOLB   C2A 3174  34.225  29.737  14.826  0.2718 -0.0291  0.1772
  133BOLB   C3A 3175  34.419  29.603  14.434  0.0375  0.0151  0.0274
  133BOLB   C4A 3176  34.802  29.221  14.362 -0.2280  0.1261 -0.2647
  133BOLB   C1B 3177  34.549  30.503  15.501 -0.1574  0.1106  0.0627
  133BOLB   C2B 3178  34.934  30.493  15.180 -0.0275 -0.0883 -0.1719
  133BOLB   C3B 3179  35.344  30.441  15.034 -0.1041 -0.2095 -0.0537
  133BOLB   C4B 3180  35.762  30.653  15.057  0.1868  0.1558  0.0570
  133BOLB   NC2 3181  36.613  29.407  13.257 -0.0578  0.3702  0.0175
  133BOLB   PO2 3182  36.478  29.629  12.873  0.0680  0.1592 -0.1886
  133BOLB   GL3 3183  36.171  29.687  13.206  0.1036  0.0969 -0.0621
  133BOLB   GL4 3184  36.099  29.962  13.329  0.2165 -0.3645  0.3241
  133BOLB   C1C 3185  35.955  29.298  13.479  0.1262  0.2613  0.1987
  133BOLB   C2C 3186  35.579  29.278  13.537  0.1335  0.0139  0.0149
  133BOLB   C3C 3187  35.272  28.901  13.663  0.3223 -0.1444  0.0217
  133BOLB   C4C 3188  35.030  28.972  14.041 -0.0767  0.1312 -0.0047
  133BOLB   C1D 3189  36.020  29.920  13.686 -0.0027  0.2583 -0.1020
  133BOLB   C2D 3190  35.749  29.668  13.789  0.0534 -0.0086 -0.1788
  133BOLB   C3D 3191  35.305  29.643  13.777 -0.0620 -0.3577 -0.2349
  133BOLB   C4D 3192  35.058  29.538  14.071  0.1504  0.0037 -0.0171
  134BOLB   NC1 3193  25.447  27.181  13.890  0.0565 -0.2599  0.0213
  134BOLB   PO1 3194  25.653  26.825  14.056 -0.2814 -0.1851  0.2289
  134BOLB   GL1 3195  25.914  26.556  13.950  0.0256 -0.1121  0.2364
  134BOLB   GL2 3196  25.960  26.466  13.532  0.1505 -0.0732  0.0303
  134BOLB   C1A 3197  26.119  26.118  13.775  0.1448  0.1605  0.0875
  134BOLB   C2A 3198  26.095  25.644  13.620  0.1397  0.1918  0.0600
  134BOLB   C3A 3199  26.021  25.247  13.521 -0.0190  0.2406  0.0030
  134BOLB   C4A 3200  26.326  24.867  13.558 -0.0738  0.0528 -0.3076
  134BOLB   C1B 3201  25.897  26.038  13.278 -0.1010 -0.2587 -0.0614
  134BOLB   C2B 3202  25.928  25.512  13.073 -0.0688 -0.2197  0.1199
  134BOLB   C3B 3203  25.898  25.077  13.080 -0.0350  0.0098  0.0481
  134BOLB   C4B 3204  26.035  24.709  13.207 -0.0494 -0.3103  0.1401
  134BOLB   NC2 3205  25.636  23.706  11.203  0.3883 -0.1074  0.0822
  134BOLB   PO2 3206  25.893  24.066  11.306 -0.3690  0.0227  0.0325
  134BOLB   GL3 3207  26.011  24.094  11.826  0.1151 -0.2797 -0.0603
  134BOLB   GL4 3208  25.795  24.390  11.821 -0.0170  0.0922 -0.0818
  134BOLB   C1C 3209  26.024  24.116  12.177 -0.1101 -0.1342 -0.0680
  134BOLB   C2C 3210  26.192  24.323  12.545  0.3567 -0.0353 -0.1749
  134BOLB   C3C 3211  26.545  24.549  12.761 -0.0712  0.1833 -0.1996
  134BOLB   C4C 3212  26.589  24.577  13.200 -0.3608  0.1313 -0.0044
  134BOLB   C1D 3213  25.777  24.681  12.156  0.0431  0.1315  0.0446
  134BOLB   C2D 3214  25.734  24.825  12.579  0.0050 -0.1750  0.2427
  134BOLB   C3D 3215  25.703  24.445  12.872 -0.0025  0.0075 -0.4988
  134BOLB   C4D 3216  25.402  24.349  13.131  0.1844  0.1599  0.2421
  135BOLB   NC1 3217  35.292  27.636  23.764 -0.2169 -0.1763  0.0592
  135BOLB   PO1 3218  35.690  27.601  23.647  0.1958  0.0412 -0.4283
  135BOLB   GL1 3219  35.922  27.633  24.078 -0.2057 -0.1958 -0.1545
  135BOLB   GL2 3220  36.276  27.726  23.953  0.0820  0.0433 -0.0159
  135BOLB   C1A 3221  35.996  27.650  24.519  0.0305 -0.0541  0.3845
  135BOLB   C2A 3222  36.340  27.529  24.690  0.0778  0.0203  0.2111
  135BOLB   C3A 3223  36.747  27.298  24.801 -0.1983 -0.0172  0.4196
  135BOLB   C4A 3224  37.049  27.201  25.027  0.0915  0.2878  0.2062
  135BOLB   C1B 3225  36.500  27.728  24.267  0.0257  0.3923 -0.0818
  135BOLB   C2B 3226  36.770  27.830  24.623  0.0496  0.0823 -0.0535
  135BOLB   C3B 3227  37.078  27.987  24.827  0.2778 -0.1293 -0.3251
  135BOLB   C4B 3228  37.498  28.106  24.796  0.0779 -0.3461 -0.1923
  135BOLB   NC2 3229  38.999  26.175  25.804 -0.0444  0.0023 -0.1000
  135BOLB   PO2 3230  38.680  25.868  25.808 -0.2919  0.4119  0.0559
  135BOLB   GL3 3231  38.581  26.203  25.613 -0.0672 -0.2095 -0.4010
  135BOLB   GL4 3232  38.553  26.125  25.297  0.1212  0.0353  0.1499
  135BOLB   C1C 3233  38.382  26.570  25.459  0.3248  0.1373 -0.1457
  135BOLB   C2C 3234  38.059  26.660  25.263 -0.3293 -0.0697  0.1783
  135BOLB   C3C 3235  37.857  26.981  25.161  0.1990 -0.1682  0.0430
  135BOLB   C4C 3236  37.506  27.158  25.106  0.2961 -0.0617  0.2215
  135BOLB   C1D 3237  38.099  26.191  25.239 -0.0799  0.0142 -0.1570
  135BOLB   C2D 3238  37.688  26.280  25.030  0.1775  0.0492 -0.0646
  135BOLB   C3D 3239  37.469  26.657  25.002  0.3950 -0.0580 -0.0825
  135BOLB   C4D 3240  37.365  26.939  24.694  0.0768  0.0340  0.0803
  136BOLB   NC1 3241  27.730  33.726   2.151 -0.0767  0.1175  0.0724
  136BOLB   PO1 3242  27.403  33.502   2.451  0.0314  0.0814 -0.0204
  136BOLB   GL1 3243  27.270  33.761   2.809  0.1283  0.2038 -0.0400
  136BOLB   GL2 3244  26.924  33.734   2.767  0.0049 -0.2610  0.0179
  136BOLB   C1A 3245  27.300  33.807   3.230  0.1145 -0.2777 -0.1231
  136BOLB   C2A 3246  27.388  33.688   3.709  0.0372 -0.0192  0.2383
  136BOLB   C3A 3247  27.172  33.927   4.142  0.0494 -0.0830  0.3205
  136BOLB   C4A 3248  27.359  34.112   4.440 -0.0230 -0.2576 -0.1184
  136BOLB   C1B 3249  26.766  33.940   3.299  0.0639 -0.0453  0.2029
  136BOLB   C2B 3250  26.931  34.062   3.742  0.0970 -0.1072 -0.0768
  136BOLB   C3B 3251  27.172  34.339   3.927  0.1054  0.1080  0.0074
  136BOLB   C4B 3252  27.473  34.563   4.103  0.0215  0.1160 -0.3098
  136BOLB   NC2 3253  27.627  34.293   6.930 -0.0393  0.0310  0.0404
  136BOLB   PO2 3254  27.196  34.442   6.596 -0.1496  0.3038 -0.0955
  136BOLB   GL3 3255  27.438  34.179   6.252 -0.2298 -0.0109  0.1246
  136BOLB   GL4 3256  27.281  33.864   6.178  0.2209  0.2226 -0.0070
  136BOLB   C1C 3257  27.719  34.184   5.996 -0.1293  0.1890  0.2476
  136BOLB   C2C 3258  27.868  34.122   5.653 -0.1677  0.3216 -0.6159
  136BOLB   C3C 3259  27.749  34.270   5.327 -0.1168  0.1577  0.1274
  136BOLB   C4C 3260  27.642  34.322   4.839  0.2637  0.0251 -0.0123
  136BOLB   C1D 3261  27.080  33.554   5.909  0.0665 -0.1243  0.4159
  136BOLB   C2D 3262  26.711  33.425   5.788  0.1174  0.0072 -0.1682
  136BOLB   C3D 3263  26.617  33.305   5.399  0.0298 -0.4711  0.1181
  136BOLB   C4D 3264  26.443  33.207   4.957 -0.4009  0.0282  0.1096
  137BOLB   NC1 3265  20.525  31.231  24.355  0.1488  0.1227 -0.3331
  137BOLB   PO1 3266  20.160  30.990  24.461  0.1542 -0.2003  0.0021
  137BOLB   GL1 3267  19.767  31.102  24.779  0.1135  0.0038  0.1370
  137BOLB   GL2 3268  19.866  31.049  25.133 -0.0022 -0.2135  0.0058
  137BOLB   C1A 3269  19.496  31.395  24.560  0.2772  0.0140  0.0773
  137BOLB   C2A 3270  19.154  31.612  24.625 -0.0637  0.0721  0.1795
  137BOLB   C3A 3271  18.717  31.739  24.820 -0.3067  0.1249  0.5325
  137BOLB   C4A 3272  18.283  31.885  24.932 -0.1516  0.1043  0.1100
  137BOLB   C1B 3273  19.526  30.874  25.264  0.2343  0.0679  0.2362
  137BOLB   C2B 3274  19.182  30.803  25.633 -0.2505  0.1782 -0.2135
  137BOLB   C3B 3275  18.796  31.028  25.850  0.2543 -0.0272 -0.2134
  137BOLB   C4B 3276  18.381  31.081  25.666  0.0730 -0.2619  0.2703
  137BOLB   NC2 3277  15.982  33.239  25.137 -0.0078 -0.1858  0.0386
  137BOLB   PO2 3278  16.004  32.828  25.236 -0.1485  0.2599 -0.3476
  137BOLB   GL3 3279  16.281  32.740  25.149 -0.3410 -0.0673  0.2384
  137BOLB   GL4 3280  16.545  33.007  25.263 -0.2413  0.3022 -0.0455
  137BOLB   C1C 3281  16.638  32.461  25.171 -0.0695  0.0991 -0.6547
  137BOLB   C2C 3282  17.008  32.304  25.146  0.1287  0.3495 -0.2958
  137BOLB   C3C 3283  17.493  32.181  25.254  0.4097 -0.1918 -0.0812
  137BOLB   C4C 3284  17.898  31.954  25.104 -0.1350 -0.0824 -0.1349
  137BOLB   C1D 3285  16.894  32.874  25.032 -0.0670 -0.0081  0.2200
  137BOLB   C2D 3286  17.294  32.703  25.274  0.2871 -0.1161  0.1842
  137BOLB   C3D 3287  17.659  32.591  25.096 -0.2472 -0.1981  0.2081
  137BOLB   C4D 3288  17.795  32.288  24.731 -0.0463  0.0527 -0.2863
  138BOLB   NC1 3289  21.633  38.192  15.842 -0.0809 -0.1303 -0.1850
  138BOLB   PO1 3290  21.866  38.616  15.843 -0.0510  0.1150  0.0915
  138BOLB   GL1 3291  22.159  38.251  15.885 -0.3780 -0.1255  0.1746
  138BOLB   GL2 3292  22.141  38.045  15.686  0.4247 -0.0828 -0.1955
  138BOLB   C1A 3293  22.544  38.127  16.143  0.1947  0.2303  0.1724
  138BOLB   C2A 3294  22.556  38.048  16.517  0.2735  0.0620  0.3132
  138BOLB   C3A 3295  22.584  38.024  16.971 -0.1683 -0.1794 -0.0334
  138BOLB   C4A 3296  22.442  37.780  17.277  0.1941  0.2995  0.3062
  138BOLB   C1B 3297  22.140  37.577  15.890  0.3025  0.0159  0.0901
  138BOLB   C2B 3298  22.330  37.231  16.177  0.0925 -0.0079 -0.0389
  138BOLB   C3B 3299  22.436  36.793  16.455 -0.1405 -0.0420  0.0098
  138BOLB   C4B 3300  22.314  36.454  16.716  0.1063  0.0775 -0.1181
  138BOLB   NC2 3301  20.806  39.403  18.176  0.1923 -0.0181 -0.0378
  138BOLB   PO2 3302  20.533  38.992  17.951  0.1033 -0.0565 -0.1534
  138BOLB   GL3 3303  20.863  38.706  18.069  0.0563  0.1104  0.0361
  138BOLB   GL4 3304  21.009  38.813  18.298 -0.1346 -0.0356  0.1639
  138BOLB   C1C 3305  21.176  38.323  18.220  0.1277 -0.1680 -0.4224
  138BOLB   C2C 3306  21.583  38.068  18.103  0.0856  0.3699 -0.3164
  138BOLB   C3C 3307  21.928  37.784  17.967  0.2958 -0.0557 -0.0949
  138BOLB   C4C 3308  22.165  37.671  17.589 -0.5282  0.3157  0.0190
  138BOLB   C1D 3309  21.497  38.884  18.320 -0.2851 -0.1881 -0.0052
  138BOLB   C2D 3310  21.850  38.860  18.579  0.1926  0.2099  0.0160
  138BOLB   C3D 3311  22.233  38.652  18.608  0.0643  0.1092  0.1066
  138BOLB   C4D 3312  22.710  38.612  18.602  0.0739 -0.0309 -0.1165
  139BOLB   NC1 3313  26.179  38.114  20.333 -0.0736 -0.1052  0.2901
  139BOLB   PO1 3314  26.458  38.018  20.591  0.0730 -0.1182  0.1148
  139BOLB   GL1 3315  26.269  38.377  20.737  0.1243 -0.1391  0.2408
  139BOLB   GL2 3316  26.257  38.592  20.447 -0.2964  0.1101 -0.1951
  139BOLB   C1A 3317  26.312  38.787  20.887  0.4423  0.4513 -0.3000
  139BOLB   C2A 3318  25.940  39.120  20.974 -0.1680 -0.1355 -0.0087
  139BOLB   C3A 3319  25.720  39.390  20.787  0.2139  0.2444 -0.2248
  139BOLB   C4A 3320  25.534  39.720  20.637  0.1728  0.3031 -0.1797
  139BOLB   C1B 3321  26.576  38.888  20.320 -0.2909 -0.2447 -0.2926
  139BOLB   C2B 3322  26.539  39.259  20.094 -0.0048 -0.0107 -0.3594
  139BOLB   C3B 3323  26.391  39.651  20.211 -0.0623  0.1669 -0.0458
  139BOLB   C4B 3324  25.982  39.893  20.273 -0.0189  0.0458  0.5516
  139BOLB   NC2 3325  24.282  41.852  19.622 -0.0565  0.2606  0.1924
  139BOLB   PO2 3326  24.245  41.476  19.612  0.3281  0.1514  0.0031
  139BOLB   GL3 3327  24.461  41.089  19.561 -0.0319 -0.4455  0.0226
  139BOLB   GL4 3328  24.478  40.989  19.207 -0.1617  0.0819 -0.2243
  139BOLB   C1C 3329  24.745  40.812  19.772 -0.0653  0.0253 -0.1312
  139BOLB   C2C 3330  25.017  40.746  20.157  0.0168  0.0111 -0.1700
  139BOLB   C3C 3331  25.266  40.447  20.377 -0.1030  0.0589 -0.1661
  139BOLB   C4C 3332  25.485  40.086  20.431  0.2222 -0.1411 -0.1665
  139BOLB   C1D 3333  24.633  40.554  19.400  0.0077  0.2468  0.1758
  139BOLB   C2D 3334  24.879  40.283  19.740  0.1594  0.0448  0.1818
  139BOLB   C3D 3335  24.921  39.893  19.768 -0.0755  0.2539 -0.0018
  139BOLB   C4D 3336  25.034  39.542  19.789 -0.0762 -0.0661 -0.0374
  140BOLB   NC1 3337  20.963  33.334  20.740  0.1946 -0.1708  0.2071
  140BOLB   PO1 3338  20.787  33.766  20.483  0.1527 -0.1112  0.0952
  140BOLB   GL1 3339  20.423  33.970  20.465  0.2722  0.0894  0.3715
  140BOLB   GL2 3340  20.448  34.307  20.732  0.4233 -0.2868 -0.0119
  140BOLB   C1A 3341  20.196  34.274  20.290 -0.2193 -0.1250  0.0631
  140BOLB   C2A 3342  19.944  34.686  20.250 -0.1052 -0.1789  0.3267
  140BOLB   C3A 3343  19.722  35.093  20.161 -0.0197 -0.0695  0.1404
  140BOLB   C4A 3344  19.519  35.446  19.947  0.2129  0.4517  0.1395
  140BOLB   C1B 3345  20.010  34.569  20.776 -0.0397 -0.0744 -0.0509
  140BOLB   C2B 3346  19.721  34.844  20.993 -0.0453 -0.1809  0.0829
  140BOLB   C3B 3347  19.468  34.801  21.372 -0.0475  0.1102  0.1383
  140BOLB   C4B 3348  19.172  34.957  21.592 -0.2752  0.3625  0.0250
  140BOLB   NC2 3349  16.842  35.835  20.394 -0.1361 -0.0211  0.3606
  140BOLB   PO2 3350  17.239  35.975  20.018 -0.0236  0.1598  0.4440
  140BOLB   GL3 3351  17.624  35.834  20.037 -0.1452 -0.1336 -0.1587
  140BOLB   GL4 3352  17.675  35.562  19.849 -0.2553  0.1678 -0.0302
  140BOLB   C1C 3353  18.044  35.807  20.015 -0.0298  0.1157 -0.1481
  140BOLB   C2C 3354  18.470  36.016  19.998  0.0231  0.2574  0.2104
  140BOLB   C3C 3355  18.822  35.794  19.887  0.3195 -0.1585 -0.0087
  140BOLB   C4C 3356  19.150  35.597  19.706 -0.0533 -0.1950  0.0006
  140BOLB   C1D 3357  17.922  35.230  20.116 -0.2696  0.1493  0.1035
  140BOLB   C2D 3358  17.976  34.971  20.463 -0.0066  0.3101 -0.3928
  140BOLB   C3D 3359  18.194  34.952  20.835 -0.3419 -0.1077 -0.0527
  140BOLB   C4D 3360  18.582  34.821  21.103  0.1869  0.2299  0.0418
  141BOLB   NC1 3361  34.228  26.877  18.049 -0.3962 -0.0176  0.0408
  141BOLB   PO1 3362  34.439  27.368  18.087 -0.0721  0.2549  0.2880
  141BOLB   GL1 3363  34.729  26.986  17.927  0.2308 -0.1694 -0.3152
  141BOLB   GL2 3364  34.902  27.227  18.189 -0.0626 -0.0615  0.1645
  141BOLB   C1A 3365  35.053  26.889  17.676 -0.0146 -0.2892  0.0317
  141BOLB   C2A 3366  35.491  26.798  17.683 -0.1835 -0.1507 -0.0040
  141BOLB   C3A 3367  35.880  26.654  17.677 -0.1363 -0.0395  0.1285
  141BOLB   C4A 3368  36.167  26.948  17.421 -0.1003 -0.1381  0.2042
  141BOLB   C1B 3369  35.103  26.878  18.160 -0.1716  0.0093  0.1266
  141BOLB   C2B 3370  35.368  26.472  18.045  0.2039 -0.0970 -0.1982
  141BOLB   C3B 3371  35.762  26.317  18.219 -0.2846  0.3760  0.0622
  141BOLB   C4B 3372  36.125  26.105  17.943 -0.1777  0.2792 -0.0072
  141BOLB   NC2 3373  37.671  26.880  15.290 -0.1331  0.1386 -0.1618
  141BOLB   PO2 3374  37.886  26.807  15.651 -0.0214 -0.1914 -0.0514
  141BOLB   GL3 3375  37.718  27.099  15.752  0.0209  0.1682 -0.2194
  141BOLB   GL4 3376  37.579  27.307  15.537  0.0888 -0.2014  0.1808
  141BOLB   C1C 3377  37.237  27.118  16.021  0.0738  0.0135  0.1076
  141BOLB   C2C 3378  37.077  27.056  16.476  0.2545 -0.2460  0.0557
  141BOLB   C3C 3379  36.908  27.141  16.925 -0.1487  0.1289  0.1685
  141BOLB   C4C 3380  36.513  27.058  17.099 -0.0100  0.0159  0.0626
  141BOLB   C1D 3381  37.365  27.639  15.381  0.1400 -0.0836 -0.2959
  141BOLB   C2D 3382  36.950  27.822  15.195  0.0269  0.0171 -0.0471
  141BOLB   C3D 3383  36.594  28.091  14.962 -0.0076 -0.2403 -0.0193
  141BOLB   C4D 3384  36.340  28.339  15.135  0.3530  0.0447 -0.1770
  142BOLB   NC1 3385  35.985  36.887   0.378 -0.0149  0.5038  0.0114
  142BOLB   PO1 3386  35.763  37.246   0.462  0.4871  0.1999  0.2958
  142BOLB   GL1 3387  35.465  36.857   0.506  0.1004 -0.2610 -0.3546
  142BOLB   GL2 3388  35.209  37.018   0.649  0.0487 -0.0367  0.0514
  142BOLB   C1A 3389  35.281  36.552   0.398 -0.0808 -0.4139 -0.0171
  142BOLB   C2A 3390  34.935  36.196   0.286  0.0143 -0.1534  0.3051
  142BOLB   C3A 3391  34.692  36.008   0.007 -0.0253 -0.1701  0.0867
  142BOLB   C4A 3392  34.247  35.921  26.881 -0.1715 -0.1622 -0.2813
  142BOLB   C1B 3393  34.919  36.796   0.882  0.0602 -0.3188  0.2024
  142BOLB   C2B 3394  34.732  36.286   0.899  0.1758  0.0674 -0.0991
  142BOLB   C3B 3395  34.450  35.894   0.912  0.0855  0.0094 -0.1218
  142BOLB   C4B 3396  34.481  35.597   1.237 -0.1285  0.0660 -0.2474
  142BOLB   NC2 3397  32.733  34.084  26.316  0.0258  0.2073 -0.0714
  142BOLB   PO2 3398  33.003  34.239  25.906 -0.0926  0.0168  0.2116
  142BOLB   GL3 3399  33.071  34.588  26.343 -0.3745 -0.0326  0.4682
  142BOLB   GL4 3400  33.035  34.915  26.535 -0.3071  0.0255 -0.3842
  142BOLB   C1C 3401  33.524  34.720  26.405  0.1770  0.2299  0.1509
  142BOLB   C2C 3402  33.743  34.937  26.695  0.1890 -0.2062  0.2435
  142BOLB   C3C 3403  33.784  35.281   0.023  0.0687  0.0049 -0.1205
  142BOLB   C4C 3404  34.032  35.480   0.111 -0.3597 -0.1960 -0.0762
  142BOLB   C1D 3405  33.105  35.205  26.764 -0.0619  0.2591  0.0390
  142BOLB   C2D 3406  33.308  35.363   0.099  0.3696 -0.2644  0.3989
  142BOLB   C3D 3407  33.580  35.419   0.484 -0.1191 -0.1207 -0.1004
  142BOLB   C4D 3408  34.010  35.633   0.659  0.1081 -0.2295 -0.1762
  143BOLB   NC1 3409  30.555  26.929   2.146  0.0318  0.2398 -0.2768
  143BOLB   PO1 3410  30.892  26.953   1.837 -0.2561  0.0169 -0.2637
  143BOLB   GL1 3411  31.202  26.832   2.156  0.1715 -0.2466 -0.1935
  143BOLB   GL2 3412  31.461  26.640   2.045 -0.2723  0.0099 -0.0035
  143BOLB   C1A 3413  31.359  26.679   2.612  0.0169 -0.1822  0.0529
  143BOLB   C2A 3414  31.599  26.537   2.812  0.0560 -0.0721 -0.1166
  143BOLB   C3A 3415  31.778  26.280   3.110  0.1693  0.2347 -0.2724
  143BOLB   C4A 3416  32.066  25.927   3.254 -0.1684 -0.3578 -0.1934
  143BOLB   C1B 3417  31.783  26.433   2.316  0.0547  0.1320 -0.1108
  143BOLB   C2B 3418  31.839  26.167   2.541 -0.2082 -0.1104  0.1681
  143BOLB   C3B 3419  31.892  25.769   2.822  0.2105 -0.3774 -0.0272
  143BOLB   C4B 3420  31.672  25.555   3.190 -0.1357  0.1025 -0.3543
  143BOLB   NC2 3421  34.050  25.728   4.295 -0.1405 -0.0818  0.1622
  143BOLB   PO2 3422  34.031  25.330   4.271 -0.0726 -0.1143  0.1709
  143BOLB   GL3 3423  33.700  25.336   3.945 -0.2103  0.3472 -0.1542
  143BOLB   GL4 3424  33.430  25.027   3.882  0.0253  0.1475  0.0019
  143BOLB   C1C 3425  33.448  25.561   3.693  0.0185  0.1792  0.0065
  143BOLB   C2C 3426  33.150  25.572   3.378  0.1531  0.1229 -0.3528
  143BOLB   C3C 3427  32.793  25.589   3.104 -0.1784  0.0465 -0.0691
  143BOLB   C4C 3428  32.338  25.587   3.156 -0.1478  0.0586  0.0386
  143BOLB   C1D 3429  33.062  25.294   4.011  0.2008  0.1480  0.0969
  143BOLB   C2D 3430  32.652  25.369   4.142  0.2193  0.2112 -0.1362
  143BOLB   C3D 3431  32.288  25.193   3.910 -0.2605  0.3577 -0.0914
  143BOLB   C4D 3432  32.242  24.940   3.627 -0.0840  0.0477  0.1077
  144BOLB   NC1 3433  30.478  37.492  24.318  0.0240 -0.0959  0.1416
  144BOLB   PO1 3434  30.285  37.214  24.547 -0.1465 -0.2234 -0.2007
  144BOLB   GL1 3435  30.626  37.552  24.817 -0.2107 -0.0545  0.1199
  144BOLB   GL2 3436  30.563  37.913  24.650  0.1055 -0.0114  0.0800
  144BOLB   C1A 3437  30.887  37.867  25.075 -0.0061  0.0855  0.2139
  144BOLB   C2A 3438  31.082  38.221  25.014  0.1576  0.1291 -0.3586
  144BOLB   C3A 3439  31.265  38.588  25.132  0.0315  0.1263  0.5272
  144BOLB   C4A 3440  31.163  38.945  25.031  0.1789 -0.2342  0.2381
  144BOLB   C1B 3441  30.493  38.225  24.978 -0.2402  0.0283  0.1258
  144BOLB   C2B 3442  30.706  38.514  25.250 -0.0018 -0.0649 -0.0843
  144BOLB   C3B 3443  30.990  38.787  25.472  0.2378 -0.0893 -0.1958
  144BOLB   C4B 3444  31.139  39.171  25.657  0.0811  0.2002  0.0108
  144BOLB   NC2 3445  32.096  41.148  25.002 -0.1206  0.0650 -0.4347
  144BOLB   PO2 3446  31.719  41.054  25.306  0.2213 -0.2050  0.0486
  144BOLB   GL3 3447  31.749  40.737  25.043  0.0827 -0.1419 -0.2174
  144BOLB   GL4 3448  31.920  40.407  24.948  0.2174 -0.2632  0.1390
  144BOLB   C1C 3449  31.447  40.480  25.183 -0.3023  0.0403  0.0383
  144BOLB   C2C 3450  31.187  40.168  24.857  0.0734  0.1422 -0.2707
  144BOLB   C3C 3451  31.129  39.797  24.816  0.0362  0.3581  0.0342
  144BOLB   C4C 3452  31.167  39.350  24.678  0.1012 -0.0911 -0.1480
  144BOLB   C1D 3453  31.665  40.089  24.843 -0.0599 -0.2071  0.0403
  144BOLB   C2D 3454  31.554  39.618  24.872  0.2884 -0.1249 -0.1964
  144BOLB   C3D 3455  31.645  39.157  25.046 -0.0716  0.0954  0.0176
  144BOLB   C4D 3456  32.034  39.054  25.217 -0.2421 -0.1299 -0.2275
  145BOLB   NC1 3457  22.892  32.520  10.551 -0.1934 -0.1791  0.0319
  145BOLB   PO1 3458  23.277  32.464  10.421  0.1206  0.0039 -0.1332
  145BOLB   GL1 3459  23.636  32.220  10.659  0.0446 -0.1470 -0.1079
  145BOLB   GL2 3460  23.981  32.172  10.667 -0.2107 -0.0344 -0.0246
  145BOLB   C1A 3461  23.407  32.075  10.991 -0.0921 -0.1129  0.1394
  145BOLB   C2A 3462  23.482  32.238  11.438  0.1227  0.0145 -0.3474
  145BOLB   C3A 3463  23.667  32.338  11.771 -0.2028 -0.2182 -0.2974
  145BOLB   C4A 3464  24.056  32.593  11.979 -0.2178 -0.2689 -0.4959
  145BOLB   C1B 3465  24.250  32.048  10.966 -0.1919  0.1434 -0.0839
  145BOLB   C2B 3466  24.411  31.911  11.320  0.2262 -0.1447  0.0276
  145BOLB   C3B 3467  24.574  31.847  11.712 -0.1113 -0.1260  0.2600
  145BOLB   C4B 3468  24.832  31.860  12.104  0.2197  0.0176  0.0905
  145BOLB   NC2 3469  24.235  33.599  10.284  0.1304  0.3841  0.0172
  145BOLB   PO2 3470  24.008  33.491  10.639 -0.0604  0.1221  0.2273
  145BOLB   GL3 3471  24.026  33.365  11.035  0.1405  0.2206  0.1776
  145BOLB   GL4 3472  23.927  33.051  10.928 -0.1804 -0.0720 -0.4836
  145BOLB   C1C 3473  24.256  33.547  11.321  0.2636  0.0467  0.1540
  145BOLB   C2C 3474  24.630  33.421  11.508  0.3372  0.2538  0.3623
  145BOLB   C3C 3475  24.626  33.101  11.986  0.0514 -0.1970  0.1186
  145BOLB   C4C 3476  24.335  32.834  12.250 -0.0007  0.1558 -0.1768
  145BOLB   C1D 3477  23.743  33.146  11.310  0.0380 -0.1710  0.0970
  145BOLB   C2D 3478  23.717  33.399  11.515 -0.0071 -0.4976  0.2639
  145BOLB   C3D 3479  23.681  33.499  11.915 -0.0302  0.5117  0.1473
  145BOLB   C4D 3480  23.487  33.710  12.270 -0.0223  0.0041  0.1087
  146BOLB   NC1 3481  22.802  33.873  16.337 -0.6256  0.0253 -0.0651
  146BOLB   PO1 3482  22.870  33.426  16.277  0.0673  0.0760 -0.1125
  146BOLB   GL1 3483  22.619  33.546  15.936  0.1165 -0.2643  0.4159
  146BOLB   GL2 3484  22.347  33.719  16.060  0.4681 -0.1861 -0.2111
  146BOLB   C1A 3485  22.518  33.779  15.462  0.0618 -0.2673  0.0632
  146BOLB   C2A 3486  22.354  34.073  15.213  0.0979 -0.2110 -0.0574
  146BOLB   C3A 3487  21.998  34.232  15.077  0.1712  0.4474 -0.1835
  146BOLB   C4A 3488  21.878  34.625  14.817 -0.2081  0.0797 -0.1399
  146BOLB   C1B 3489  21.950  33.491  15.898  0.0684  0.0387  0.1309
  146BOLB   C2B 3490  21.755  33.280  15.601 -0.0963  0.1936  0.1943
  146BOLB   C3B 3491  21.632  33.445  15.223  0.1681  0.1566  0.0043
  146BOLB   C4B 3492  21.465  33.308  14.843 -0.0920 -0.2188 -0.2083
  146BOLB   NC2 3493  21.211  37.055  13.678  0.0607  0.0358 -0.1987
  146BOLB   PO2 3494  21.151  36.645  13.851 -0.3537 -0.1223 -0.3473
  146BOLB   GL3 3495  21.225  36.227  13.854  0.2199  0.3407 -0.6070
  146BOLB   GL4 3496  21.416  36.060  13.756  0.3272  0.3355 -0.0608
  146BOLB   C1C 3497  21.160  35.953  14.209  0.2462 -0.1331 -0.2687
  146BOLB   C2C 3498  21.361  35.612  14.412  0.2053  0.1242 -0.1338
  146BOLB   C3C 3499  21.534  35.354  14.698  0.0221  0.1857 -0.4980
  146BOLB   C4C 3500  21.767  35.003  14.773 -0.3680 -0.2262  0.2508
  146BOLB   C1D 3501  21.318  35.580  13.788  0.0347 -0.1145 -0.0736
  146BOLB   C2D 3502  21.452  35.285  14.041  0.0546  0.1886 -0.1637
  146BOLB   C3D 3503  21.588  35.088  14.299 -0.0912  0.0169 -0.0103
  146BOLB   C4D 3504  21.496  34.687  14.405 -0.0248  0.3651 -0.2195
  147BOLB   NC1 3505  35.178  33.147  22.524 -0.0526  0.1374  0.0997
  147BOLB   PO1 3506  35.420  32.831  22.511  0.1094  0.1708 -0.2571
  147BOLB   GL1 3507  35.918  32.880  22.461  0.1178  0.0321  0.0258
  147BOLB   GL2 3508  35.940  32.557  22.365 -0.0447  0.1401  0.0660
  147BOLB   C1A 3509  36.221  33.188  22.408  0.0441 -0.0897  0.2092
  147BOLB   C2A 3510  36.608  33.404  22.519 -0.0384 -0.2154  0.2335
  147BOLB   C3A 3511  37.012  33.568  22.564  0.0242 -0.1009 -0.0878
  147BOLB   C4A 3512  37.337  33.788  22.860  0.0250 -0.2737 -0.0457
  147BOLB   C1B 3513  36.352  32.656  22.495  0.1988  0.1973  0.1825
  147BOLB   C2B 3514  36.627  32.868  22.581 -0.0291 -0.2486 -0.1274
  147BOLB   C3B 3515  36.994  32.999  22.438 -0.0170 -0.0752 -0.0891
  147BOLB   C4B 3516  37.218  33.255  22.218 -0.1759  0.2850  0.2361
  147BOLB   NC2 3517  38.359  35.767  24.533 -0.1652  0.0275 -0.2151
  147BOLB   PO2 3518  38.558  35.387  24.299  0.0587  0.2754  0.0706
  147BOLB   GL3 3519  38.307  35.136  23.989  0.0188 -0.2172 -0.2633
  147BOLB   GL4 3520  38.210  34.817  24.198 -0.1220 -0.4673  0.0558
  147BOLB   C1C 3521  38.123  34.934  23.646  0.0748  0.3774 -0.0451
  147BOLB   C2C 3522  37.808  34.533  23.531  0.2755 -0.1665  0.3565
  147BOLB   C3C 3523  37.379  34.275  23.507  0.1044  0.0271 -0.1379
  147BOLB   C4C 3524  37.140  34.017  23.197 -0.1864  0.3137  0.1323
  147BOLB   C1D 3525  37.955  34.526  24.044  0.0333  0.0529  0.1677
  147BOLB   C2D 3526  37.693  34.174  23.868 -0.1077 -0.0412  0.1186
  147BOLB   C3D 3527  37.431  33.836  23.874 -0.2353 -0.4835  0.2477
  147BOLB   C4D 3528  37.146  33.584  23.719 -0.3505 -0.1637  0.0594
  148BOLB   NC1 3529  21.209  34.926  20.862  0.1739 -0.1460  0.2606
  148BOLB   PO1 3530  20.943  34.542  20.811  0.1462  0.3717  0.0910
  148BOLB   GL1 3531  20.649  34.854  20.663 -0.0532  0.1445 -0.3291
  148BOLB   GL2 3532  20.472  34.737  20.395 -0.1545 -0.0031 -0.1060
  148BOLB   C1A 3533  20.525  35.219  20.566 -0.1654  0.1265  0.0316
  148BOLB   C2A 3534  20.493  35.689  20.608  0.0492  0.2601 -0.2348
  148BOLB   C3A 3535  20.223  35.997  20.506  0.2338  0.4422  0.1597
  148BOLB   C4A 3536  19.957  36.395  20.412 -0.1594  0.0027 -0.2084
  148BOLB   C1B 3537  20.238  35.064  20.107 -0.0024  0.0444 -0.1178
  148BOLB   C2B 3538  20.021  35.364  19.875 -0.0127 -0.0363  0.0509
  148BOLB   C3B 3539  19.815  35.735  19.750  0.1137  0.0251 -0.2464
  148BOLB   C4B 3540  20.029  36.138  19.569 -0.0396  0.4101  0.0711
  148BOLB   NC2 3541  18.345  37.514  20.167  0.2368  0.1719 -0.2673
  148BOLB   PO2 3542  18.311  37.862  20.427  0.0624 -0.0339  0.0272
  148BOLB   GL3 3543  18.753  37.677  20.553  0.0507 -0.0887  0.2500
  148BOLB   GL4 3544  18.789  37.415  20.695 -0.2065  0.2749 -0.0460
  148BOLB   C1C 3545  19.163  37.647  20.385  0.0872 -0.2887 -0.2229
  148BOLB   C2C 3546  19.370  37.373  20.103 -0.0331  0.2317  0.2204
  148BOLB   C3C 3547  19.563  37.026  19.893 -0.1206 -0.0152  0.0737
  148BOLB   C4C 3548  19.749  36.603  20.116 -0.3819 -0.2229 -0.1580
  148BOLB   C1D 3549  19.109  37.173  20.526  0.0363  0.2535  0.2341
  148BOLB   C2D 3550  19.477  36.936  20.417 -0.0483  0.3722 -0.0926
  148BOLB   C3D 3551  19.916  36.980  20.500  0.1628  0.3560  0.1348
  148BOLB   C4D 3552  20.322  36.747  20.462 -0.1762  0.1271  0.3009
  149BOLB   NC1 3553  14.289  22.992  24.754  0.1636  0.1682 -0.1929
  149BOLB   PO1 3554  14.548  22.818  25.082  0.1824 -0.2451 -0.0146
  149BOLB   GL1 3555  14.851  23.195  25.096  0.0281  0.1825  0.0187
  149BOLB   GL2 3556  14.627  23.475  25.015 -0.1018 -0.0245  0.0564
  149BOLB   C1A 3557  15.176  23.207  24.848 -0.2828  0.0618 -0.1249
  149BOLB   C2A 3558  15.477  23.621  24.689 -0.1675 -0.1499 -0.2157
  149BOLB   C3A 3559  15.211  23.973  24.573 -0.0716 -0.1479 -0.0208
  149BOLB   C4A 3560  14.797  24.143  24.315 -0.0828 -0.1172  0.2971
  149BOLB   C1B 3561  14.785  23.326  24.608  0.1975 -0.0200  0.0677
  149BOLB   C2B 3562  15.126  23.525  24.381  0.3684  0.5406 -0.2765
  149BOLB   C3B 3563  15.472  23.765  24.134  0.3235 -0.1152 -0.1360
  149BOLB   C4B 3564  15.752  23.679  23.959  0.1967  0.1064 -0.1366
  149BOLB   NC2 3565  13.224  25.208  24.185 -0.2617  0.0089  0.1840
  149BOLB   PO2 3566  13.139  25.325  23.780  0.1634  0.1764  0.1136
  149BOLB   GL3 3567  13.434  25.280  23.552 -0.1091  0.0161  0.3684
  149BOLB   GL4 3568  13.593  25.545  23.444  0.3916  0.1812 -0.1799
  149BOLB   C1C 3569  13.773  24.973  23.530  0.0894  0.0363 -0.1075
  149BOLB   C2C 3570  14.005  24.754  23.797  0.2822  0.1174  0.1070
  149BOLB   C3C 3571  14.363  24.521  23.984  0.0085  0.0234 -0.0621
  149BOLB   C4C 3572  14.694  24.303  24.022 -0.0991  0.3435 -0.1169
  149BOLB   C1D 3573  13.970  25.344  23.774  0.0394 -0.1801 -0.2967
  149BOLB   C2D 3574  14.332  25.653  24.013  0.1010  0.2960  0.0287
  149BOLB   C3D 3575  14.656  25.463  24.092  0.3076  0.1384 -0.1157
  149BOLB   C4D 3576  14.839  25.203  24.323  0.0491 -0.3239  0.3223
  150BOLB   NC1 3577  23.576  32.488  15.342  0.3537 -0.3425 -0.2948
  150BOLB   PO1 3578  23.442  32.024  15.302 -0.4050 -0.0286 -0.3001
  150BOLB   GL1 3579  23.145  32.297  14.976 -0.0323  0.1553  0.2495
  150BOLB   GL2 3580  23.000  32.210  14.743 -0.0067 -0.1145  0.1593
  150BOLB   C1A 3581  22.909  32.739  14.996  0.2845  0.1749 -0.1340
  150BOLB   C2A 3582  22.474  32.986  14.819 -0.2249 -0.0108  0.1581
  150BOLB   C3A 3583  22.332  33.372  14.567 -0.0582  0.0075  0.1129
  150BOLB   C4A 3584  22.254  33.689  14.295 -0.0562 -0.2650  0.1475
  150BOLB   C1B 3585  22.768  32.424  14.558 -0.0149  0.0732  0.0447
  150BOLB   C2B 3586  22.518  32.649  14.350 -0.0490  0.1190  0.1894
  150BOLB   C3B 3587  22.211  32.813  14.064 -0.1141 -0.2020  0.2153
  150BOLB   C4B 3588  21.733  32.970  14.044  0.1889 -0.2496  0.1243
  150BOLB   NC2 3589  21.236  35.498  12.699 -0.1687  0.3112 -0.2240
  150BOLB   PO2 3590  21.282  35.350  12.340 -0.2287  0.0647  0.2214
  150BOLB   GL3 3591  21.548  35.076  12.647 -0.2234  0.1272  0.1689
  150BOLB   GL4 3592  21.853  35.347  12.619 -0.2235 -0.1954 -0.3725
  150BOLB   C1C 3593  21.555  34.758  12.909  0.0265  0.0450 -0.2476
  150BOLB   C2C 3594  21.679  34.690  13.292 -0.3207 -0.1537  0.1663
  150BOLB   C3C 3595  21.808  34.454  13.710 -0.0087  0.1589  0.3143
  150BOLB   C4C 3596  22.010  34.076  14.055 -0.0067 -0.0805  0.0218
  150BOLB   C1D 3597  21.823  35.161  12.993 -0.2154  0.2138  0.1641
  150BOLB   C2D 3598  22.066  35.171  13.346  0.3018 -0.2290  0.1945
  150BOLB   C3D 3599  22.192  34.827  13.466  0.1889 -0.1424 -0.4317
  150BOLB   C4D 3600  22.357  34.616  13.661 -0.2055 -0.1612  0.2104
  151BOLB   NC1 3601  28.363  31.133   2.450  0.0661  0.1416  0.2607
  151BOLB   PO1 3602  28.328  30.804   2.687 -0.0685  0.0687 -0.1440
  151BOLB   GL1 3603  28.400  30.775   3.277  0.1156 -0.2484  0.1986
  151BOLB   GL2 3604  28.153  30.593   3.398 -0.1546 -0.1397  0.2592
  151BOLB   C1A 3605  28.478  30.892   3.746  0.1059  0.1622 -0.0452
  151BOLB   C2A 3606  28.580  31.108   4.157  0.1554  0.3529  0.1655
  151BOLB   C3A 3607  28.392  31.169   4.545 -0.0097 -0.0217 -0.0609
  151BOLB   C4A 3608  28.459  31.161   5.034 -0.0199  0.0574 -0.0736
  151BOLB   C1B 3609  28.084  30.519   3.831  0.2390  0.1733  0.2066
  151BOLB   C2B 3610  28.392  30.458   4.020 -0.0600  0.1660 -0.1398
  151BOLB   C3B 3611  28.636  30.456   4.439 -0.3252 -0.1190  0.0010
  151BOLB   C4B 3612  28.712  30.236   4.836  0.0274  0.1312  0.3734
  151BOLB   NC2 3613  29.910  31.576   6.841 -0.3219 -0.2074 -0.2381
  151BOLB   PO2 3614  29.445  31.667   6.981 -0.0869  0.2232  0.1821
  151BOLB   GL3 3615  29.570  31.773   6.492 -0.1008  0.0117  0.2271
  151BOLB   GL4 3616  29.832  31.799   6.277 -0.1349  0.3037 -0.3114
  151BOLB   C1C 3617  29.355  31.575   6.219  0.2358  0.1720  0.0256
  151BOLB   C2C 3618  29.036  31.448   5.946  0.1798  0.1328 -0.3156
  151BOLB   C3C 3619  28.944  31.257   5.581  0.1641 -0.1800 -0.1811
  151BOLB   C4C 3620  28.569  31.080   5.456 -0.1866  0.1700  0.0742
  151BOLB   C1D 3621  29.967  31.772   5.901  0.1639  0.1549 -0.1947
  151BOLB   C2D 3622  29.849  31.728   5.452  0.0505 -0.1727  0.0978
  151BOLB   C3D 3623  29.625  31.829   5.054  0.0285 -0.4719 -0.1654
  151BOLB   C4D 3624  29.639  31.838   4.513 -0.2433 -0.0557 -0.0180
  152BOLB   NC1 3625  33.944  34.122  18.812  0.0915  0.2275  0.0306
  152BOLB   PO1 3626  34.393  34.314  18.974  0.2283 -0.1243 -0.0717
  152BOLB   GL1 3627  34.603  34.607  19.086 -0.0556 -0.0637 -0.0214
  152BOLB   GL2 3628  34.938  34.505  19.243  0.2097  0.5017  0.2298
  152BOLB   C1A 3629  34.972  34.942  18.946 -0.0778  0.1641  0.3193
  152BOLB   C2A 3630  35.344  34.928  18.990 -0.2686  0.1746  0.0857
  152BOLB   C3A 3631  35.794  34.959  18.972  0.0588 -0.1791  0.2167
  152BOLB   C4A 3632  36.021  35.318  18.942  0.1581  0.0214 -0.0885
  152BOLB   C1B 3633  35.042  34.831  19.449 -0.0982  0.0138  0.2932
  152BOLB   C2B 3634  35.457  35.030  19.550 -0.0513 -0.1900  0.2333
  152BOLB   C3B 3635  35.782  35.348  19.653  0.0907 -0.1725  0.1402
  152BOLB   C4B 3636  35.926  35.801  19.502  0.1960  0.2770  0.0335
  152BOLB   NC2 3637  37.159  36.875  17.230  0.4306 -0.2956  0.3271
  152BOLB   PO2 3638  37.037  37.109  17.582  0.5288  0.1610 -0.2469
  152BOLB   GL3 3639  36.748  36.785  17.618  0.1826 -0.0465  0.0595
  152BOLB   GL4 3640  36.822  36.470  17.545 -0.1122 -0.0149  0.2352
  152BOLB   C1C 3641  36.528  36.525  17.991 -0.3865  0.0471  0.2908
  152BOLB   C2C 3642  36.596  36.372  18.395  0.0517  0.1062  0.1260
  152BOLB   C3C 3643  36.513  36.084  18.773 -0.0476 -0.1520 -0.0859
  152BOLB   C4C 3644  36.320  35.709  18.862 -0.0055 -0.0239  0.0115
  152BOLB   C1D 3645  36.599  36.115  17.563  0.0764 -0.0143  0.0633
  152BOLB   C2D 3646  36.460  36.031  17.869  0.0409 -0.2940  0.0272
  152BOLB   C3D 3647  36.221  35.985  18.294 -0.2827  0.0915  0.0128
  152BOLB   C4D 3648  35.982  35.734  18.526  0.0884 -0.0846  0.1758
  153BOLB   NC1 3649  33.050  23.392  20.928  0.0821  0.1128  0.1327
  153BOLB   PO1 3650  32.728  23.153  21.013 -0.1055 -0.1142  0.2405
  153BOLB   GL1 3651  33.032  22.936  20.815  0.0507  0.2833 -0.2034
  153BOLB   GL2 3652  33.116  22.760  21.185  0.1890 -0.2072  0.1532
  153BOLB   C1A 3653  33.356  22.792  20.761 -0.3380  0.1676  0.2745
  153BOLB   C2A 3654  33.593  22.465  20.657 -0.0514 -0.1052  0.1305
  153BOLB   C3A 3655  33.862  22.158  20.542 -0.0910  0.0331  0.0021
  153BOLB   C4A 3656  34.093  21.692  20.580  0.1804  0.2195  0.3464
  153BOLB   C1B 3657  33.534  22.527  21.280 -0.0112  0.0196 -0.1440
  153BOLB   C2B 3658  33.891  22.158  21.554  0.2608 -0.1300 -0.1799
  153BOLB   C3B 3659  34.256  21.892  21.551  0.0953 -0.0940 -0.2942
  153BOLB   C4B 3660  34.672  21.772  21.732 -0.3949  0.3939 -0.5097
  153BOLB   NC2 3661  36.268  20.632  21.078 -0.0315 -0.1254 -0.3760
  153BOLB   PO2 3662  36.366  21.013  21.347 -0.1212  0.1333  0.0351
  153BOLB   GL3 3663  35.933  21.045  21.270  0.2613 -0.0841  0.0349
  153BOLB   GL4 3664  35.804  21.020  21.612  0.3922 -0.1074 -0.1368
  153BOLB   C1C 3665  35.682  21.291  21.145  0.0478 -0.0321 -0.0024
  153BOLB   C2C 3666  35.282  21.281  20.890  0.0576 -0.3638 -0.0952
  153BOLB   C3C 3667  34.851  21.439  20.773 -0.3120  0.0457  0.1505
  153BOLB   C4C 3668  34.413  21.414  20.646 -0.2561  0.1593  0.1256
  153BOLB   C1D 3669  35.353  21.225  21.506 -0.0920  0.0554  0.1986
  153BOLB   C2D 3670  35.085  21.430  21.764  0.0917  0.1042  0.0356
  153BOLB   C3D 3671  34.841  21.503  22.163  0.0778  0.1929 -0.0777
  153BOLB   C4D 3672  34.931  21.882  22.318  0.0894  0.1296 -0.0452
  154BOLB   NC1 3673  29.144  17.629  20.549  0.2048  0.0316  0.5033
  154BOLB   PO1 3674  29.481  17.510  20.234 -0.3288  0.0410  0.1332
  154BOLB   GL1 3675  29.522  18.013  20.221  0.0190  0.1114  0.0103
  154BOLB   GL2 3676  29.465  18.023  20.499  0.0669  0.0588 -0.0412
  154BOLB   C1A 3677  29.498  18.473  20.165 -0.2483 -0.0085 -0.0067
  154BOLB   C2A 3678  29.575  18.881  20.044  0.2633  0.1546  0.0481
  154BOLB   C3A 3679  29.572  19.341  20.116 -0.0805 -0.3344  0.0734
  154BOLB   C4A 3680  29.323  19.606  20.199  0.1261  0.2264  0.0191
  154BOLB   C1B 3681  29.373  18.472  20.681  0.0082  0.0469 -0.0942
  154BOLB   C2B 3682  29.396  18.866  20.547  0.0698 -0.2072 -0.0579
  154BOLB   C3B 3683  29.145  19.193  20.385  0.0227  0.2551 -0.4142
  154BOLB   C4B 3684  28.960  19.569  20.657 -0.4366 -0.0081 -0.0852
  154BOLB   NC2 3685  28.307  21.592  20.286 -0.3847 -0.1241 -0.4408
  154BOLB   PO2 3686  28.120  21.528  20.775 -0.1524 -0.0930  0.4849
  154BOLB   GL3 3687  28.349  21.188  20.743  0.1581 -0.1420 -0.0626
  154BOLB   GL4 3688  28.481  21.067  21.109 -0.4310 -0.1439 -0.0254
  154BOLB   C1C 3689  28.287  20.703  20.649  0.0096  0.0835 -0.2106
  154BOLB   C2C 3690  28.629  20.357  20.612  0.2044  0.0603 -0.1668
  154BOLB   C3C 3691  28.733  20.086  20.312 -0.1848  0.1435  0.2344
  154BOLB   C4C 3692  28.973  19.832  20.277  0.1111  0.1728  0.0694
  154BOLB   C1D 3693  28.464  20.583  21.129  0.1870 -0.0931  0.0107
  154BOLB   C2D 3694  28.461  20.144  21.075 -0.1820  0.4591 -0.1481
  154BOLB   C3D 3695  28.385  19.668  20.920  0.0022  0.1856 -0.3377
  154BOLB   C4D 3696  27.996  19.516  20.740  0.2067  0.2467 -0.2677
  155BOLB   NC1 3697  31.961  24.905  16.606  0.1678 -0.0442  0.3114
  155BOLB   PO1 3698  31.725  24.548  16.730 -0.2235  0.1767  0.1020
  155BOLB   GL1 3699  32.070  24.450  16.366  0.1825 -0.0117  0.0690
  155BOLB   GL2 3700  32.271  24.634  16.240  0.1193 -0.0365 -0.0575
  155BOLB   C1A 3701  32.183  24.174  15.939 -0.0631 -0.0999 -0.0835
  155BOLB   C2A 3702  32.371  23.848  16.023 -0.1325 -0.1114 -0.1278
  155BOLB   C3A 3703  32.492  23.497  15.810 -0.1476 -0.1821 -0.1849
  155BOLB   C4A 3704  32.274  23.356  15.416 -0.4302  0.1721  0.0592
  155BOLB   C1B 3705  32.454  24.561  15.860  0.1036 -0.0884  0.0400
  155BOLB   C2B 3706  32.801  24.712  15.517 -0.2286  0.0738  0.0307
  155BOLB   C3B 3707  32.903  24.521  15.167  0.1055 -0.2630  0.0675
  155BOLB   C4B 3708  33.032  24.384  14.730  0.3818 -0.2862  0.0226
  155BOLB   NC2 3709  33.389  21.831  14.035  0.1047 -0.1713  0.1811
  155BOLB   PO2 3710  33.150  21.996  13.727  0.2436 -0.3347 -0.1694
  155BOLB   GL3 3711  33.032  22.302  14.018 -0.0488 -0.1474 -0.2025
  155BOLB   GL4 3712  33.253  22.555  13.979 -0.2563  0.0714  0.2639
  155BOLB   C1C 3713  33.151  22.278  14.456 -0.2693 -0.0765 -0.1267
  155BOLB   C2C 3714  32.990  22.424  14.938  0.0589  0.1890  0.3214
  155BOLB   C3C 3715  32.636  22.628  15.004  0.0915 -0.2378 -0.1449
  155BOLB   C4C 3716  32.397  22.995  15.221  0.0640 -0.1281  0.3640
  155BOLB   C1D 3717  33.330  22.768  14.421 -0.0062  0.1092  0.3362
  155BOLB   C2D 3718  33.530  22.499  14.689  0.1876  0.3956 -0.0844
  155BOLB   C3D 3719  33.458  22.094  14.845 -0.1502  0.0402  0.0522
  155BOLB   C4D 3720  33.025  21.888  14.779  0.0248 -0.0471  0.0134
  156BOLB   NC1 3721  30.244  26.708  15.412 -0.2473  0.1540  0.1349
  156BOLB   PO1 3722  30.139  26.647  14.897 -0.1604 -0.2508 -0.1251
  156BOLB   GL1 3723  30.311  26.801  14.410 -0.0216  0.0824 -0.3577
  156BOLB   GL2 3724  30.112  26.944  14.140 -0.0966  0.0181 -0.0580
  156BOLB   C1A 3725  30.474  26.629  14.017 -0.4982  0.5019 -0.0980
  156BOLB   C2A 3726  30.587  26.616  13.616  0.0726  0.0263 -0.2825
  156BOLB   C3A 3727  30.793  26.545  13.246  0.1574 -0.0750  0.0943
  156BOLB   C4A 3728  31.171  26.260  13.013 -0.2113 -0.3545  0.4900
  156BOLB   C1B 3729  30.052  26.622  13.779  0.1224 -0.2369  0.0219
  156BOLB   C2B 3730  30.154  26.591  13.334  0.0568 -0.1473  0.0097
  156BOLB   C3B 3731  30.115  26.395  12.957  0.2774 -0.2155  0.1894
  156BOLB   C4B 3732  30.198  26.160  12.560  0.1063 -0.2616  0.1392
  156BOLB   NC2 3733  32.346  26.034  11.075  0.1613  0.1534 -0.0182
  156BOLB   PO2 3734  32.065  25.632  10.949  0.2799 -0.2755 -0.1803
  156BOLB   GL3 3735  31.827  25.691  11.313  0.0653  0.1574 -0.0655
  156BOLB   GL4 3736  31.757  25.269  11.389  0.0238 -0.2354  0.0368
  156BOLB   C1C 3737  31.537  25.651  11.556  0.3785  0.3452  0.0607
  156BOLB   C2C 3738  31.597  25.701  11.977  0.0544  0.0427  0.4395
  156BOLB   C3C 3739  31.474  25.851  12.355  0.0798 -0.0613 -0.0047
  156BOLB   C4C 3740  31.295  26.042  12.718  0.1736 -0.5015 -0.0198
  156BOLB   C1D 3741  31.682  25.247  11.885  0.0700  0.0801 -0.0354
  156BOLB   C2D 3742  31.442  25.350  12.281  0.4332 -0.0129 -0.1957
  156BOLB   C3D 3743  31.347  25.598  12.748 -0.0880  0.0339 -0.0469
  156BOLB   C4D 3744  31.254  25.706  13.136 -0.0440 -0.1107 -0.1226
  157BOLB   NC1 3745  27.119  35.313   0.543  0.0326 -0.1677  0.0940
  157BOLB   PO1 3746  27.052  35.604   0.943 -0.1460  0.2679 -0.1497
  157BOLB   GL1 3747  27.172  35.675   1.304  0.0884  0.3741 -0.1938
  157BOLB   GL2 3748  27.271  35.957   1.584 -0.3580 -0.0207 -0.2046
  157BOLB   C1A 3749  26.947  35.675   1.759  0.0039  0.1547  0.0262
  157BOLB   C2A 3750  26.740  35.836   2.003  0.2053  0.0887  0.1644
  157BOLB   C3A 3751  26.449  35.799   2.239 -0.0803  0.1200  0.0877
  157BOLB   C4A 3752  26.381  35.764   2.737  0.0842  0.0482 -0.0197
  157BOLB   C1B 3753  27.155  36.203   2.089 -0.1776 -0.2267 -0.3377
  157BOLB   C2B 3754  27.143  36.362   2.456 -0.0084 -0.0089 -0.0284
  157BOLB   C3B 3755  26.873  36.529   2.832 -0.1098 -0.0701  0.1138
  157BOLB   C4B 3756  26.815  36.660   3.178  0.0434 -0.0158  0.3963
  157BOLB   NC2 3757  26.600  36.097   5.341  0.1069 -0.2405 -0.3194
  157BOLB   PO2 3758  26.681  36.471   5.065 -0.0603  0.1077 -0.0370
  157BOLB   GL3 3759  26.442  36.534   4.749 -0.1582 -0.2798 -0.0188
  157BOLB   GL4 3760  26.320  36.843   4.496  0.2457 -0.1365  0.0284
  157BOLB   C1C 3761  26.226  36.319   4.396 -0.0503 -0.3596 -0.0378
  157BOLB   C2C 3762  26.256  36.305   3.861 -0.2008  0.4605  0.3017
  157BOLB   C3C 3763  26.322  35.950   3.586 -0.0841  0.0017  0.1330
  157BOLB   C4C 3764  26.212  35.851   3.163  0.0487  0.0767  0.0840
  157BOLB   C1D 3765  26.608  37.041   4.219 -0.3525  0.2967 -0.4280
  157BOLB   C2D 3766  27.046  36.951   4.030 -0.0623 -0.2637 -0.1649
  157BOLB   C3D 3767  27.329  36.677   4.056 -0.3672  0.0420 -0.2958
  157BOLB   C4D 3768  27.185  36.236   4.028  0.2448  0.1912 -0.2601
  158BOLB   NC1 3769  32.994  27.029  16.898 -0.3581 -0.1572 -0.0271
  158BOLB   PO1 3770  33.429  26.843  16.601 -0.2039 -0.1919  0.0287
  158BOLB   GL1 3771  33.565  26.807  16.234 -0.2993  0.4968  0.1887
  158BOLB   GL2 3772  33.482  26.849  15.990  0.1325 -0.0985 -0.0585
  158BOLB   C1A 3773  33.897  26.697  15.844 -0.1272  0.0824  0.0521
  158BOLB   C2A 3774  34.250  26.786  15.666 -0.3063  0.0345  0.0993
  158BOLB   C3A 3775  34.439  27.002  15.277 -0.0990  0.4634  0.0900
  158BOLB   C4A 3776  34.520  27.104  14.836 -0.1121 -0.1938 -0.2591
  158BOLB   C1B 3777  33.616  27.114  15.660 -0.0510 -0.2906  0.1879
  158BOLB   C2B 3778  33.917  26.997  15.318  0.1972  0.3184 -0.2772
  158BOLB   C3B 3779  34.135  26.806  14.940  0.1293 -0.1645 -0.0421
  158BOLB   C4B 3780  34.459  26.626  14.979  0.2077 -0.0918  0.1184
  158BOLB   NC2 3781  36.271  27.117  12.741  0.0267  0.1055 -0.0475
  158BOLB   PO2 3782  35.894  27.341  12.917 -0.2543 -0.0903 -0.0937
  158BOLB   GL3 3783  35.567  27.354  13.249 -0.4897  0.0102 -0.1165
  158BOLB   GL4 3784  35.553  27.648  13.270  0.3374 -0.4222  0.0591
  158BOLB   C1C 3785  35.382  27.313  13.658 -0.1603  0.2757  0.2669
  158BOLB   C2C 3786  35.283  27.055  13.969 -0.3515 -0.0219 -0.0380
  158BOLB   C3C 3787  35.120  26.960  14.427  0.2975 -0.1065 -0.2116
  158BOLB   C4C 3788  34.740  26.975  14.541  0.2362  0.1992  0.4262
  158BOLB   C1D 3789  35.284  27.891  13.590 -0.0061 -0.2943  0.5593
  158BOLB   C2D 3790  35.301  27.738  14.042 -0.1666  0.1488  0.0947
  158BOLB   C3D 3791  35.073  27.477  14.190 -0.1362 -0.0514 -0.2363
  158BOLB   C4D 3792  34.672  27.581  14.210  0.3162 -0.0028 -0.0963
  159BOLB   NC1 3793  20.804  20.359   4.368  0.0118 -0.0735  0.1780
  159BOLB   PO1 3794  20.603  20.676   4.581 -0.1040 -0.2202  0.0468
  159BOLB   GL1 3795  20.963  20.919   4.357  0.2347  0.1330 -0.1959
  159BOLB   GL2 3796  20.784  21.271   4.267  0.0478 -0.0812 -0.1106
  159BOLB   C1A 3797  21.223  21.143   3.992  0.2460  0.0736 -0.0930
  159BOLB   C2A 3798  21.689  21.068   3.966  0.1842  0.0640  0.1987
  159BOLB   C3A 3799  22.090  20.913   4.075  0.0327  0.2281 -0.1137
  159BOLB   C4A 3800  22.482  21.103   4.179  0.0284  0.1972 -0.0988
  159BOLB   C1B 3801  20.938  21.587   4.142 -0.1222 -0.3294  0.0796
  159BOLB   C2B 3802  21.163  21.844   4.371  0.0594  0.1826 -0.3341
  159BOLB   C3B 3803  21.595  21.981   4.521 -0.0015  0.2083  0.1991
  159BOLB   C4B 3804  21.889  22.094   4.734 -0.3704 -0.2601 -0.0336
  159BOLB   NC2 3805  22.084  20.552   5.700  0.6391  0.2875  0.1470
  159BOLB   PO2 3806  21.660  20.466   5.499 -0.2468 -0.1550 -0.1061
  159BOLB   GL3 3807  21.967  20.783   5.232  0.0549 -0.0238  0.4077
  159BOLB   GL4 3808  22.229  20.692   5.042 -0.0004  0.3397  0.0601
  159BOLB   C1C 3809  22.111  21.211   5.215 -0.5209 -0.0064  0.2693
  159BOLB   C2C 3810  22.371  21.593   4.975 -0.1012  0.0171 -0.0572
  159BOLB   C3C 3811  22.739  21.618   4.753  0.0905  0.1527  0.0486
  159BOLB   C4C 3812  22.703  21.485   4.370 -0.1760 -0.1527 -0.0309
  159BOLB   C1D 3813  22.556  20.990   4.993 -0.0370  0.2102 -0.2459
  159BOLB   C2D 3814  22.803  20.997   4.661 -0.0260  0.1555 -0.0320
  159BOLB   C3D 3815  22.990  21.066   4.221  0.2794 -0.1944 -0.1577
  159BOLB   C4D 3816  23.275  20.708   4.000  0.0361  0.0445  0.2445
  160BOLB   NC1 3817  31.306  36.817  18.836 -0.2598  0.3776  0.1087
  160BOLB   PO1 3818  31.290  37.222  19.059  0.1212  0.2636  0.0585
  160BOLB   GL1 3819  31.219  37.259  18.649 -0.1716  0.0417 -0.2482
  160BOLB   GL2 3820  31.510  37.094  18.476 -0.2550 -0.0104 -0.2480
  160BOLB   C1A 3821  31.386  37.579  18.388  0.0494  0.0351  0.3064
  160BOLB   C2A 3822  31.234  37.900  18.054  0.2154 -0.3305  0.0361
  160BOLB   C3A 3823  31.281  38.347  17.975  0.1142 -0.0992 -0.1403
  160BOLB   C4A 3824  31.287  38.837  17.916 -0.2876  0.3071  0.0457
  160BOLB   C1B 3825  31.787  37.330  18.240  0.2878  0.2265  0.2019
  160BOLB   C2B 3826  32.044  37.606  18.210  0.3107  0.0313  0.3412
  160BOLB   C3B 3827  32.423  37.888  18.481  0.5554 -0.1993 -0.0142
  160BOLB   C4B 3828  32.857  37.804  18.833  0.1802 -0.2440 -0.1112
  160BOLB   NC2 3829  31.698  41.066  17.622  0.2373 -0.0824  0.1963
  160BOLB   PO2 3830  31.550  41.307  18.001  0.0942  0.0187 -0.5159
  160BOLB   GL3 3831  31.340  40.931  18.216 -0.1824 -0.2295  0.0624
  160BOLB   GL4 3832  31.190  40.777  18.527 -0.1590  0.2218  0.1851
  160BOLB   C1C 3833  31.173  40.463  18.155 -0.2738 -0.0229  0.0519
  160BOLB   C2C 3834  31.139  40.071  18.271 -0.1398 -0.0973 -0.0463
  160BOLB   C3C 3835  31.243  39.623  18.147  0.2186 -0.1634  0.0173
  160BOLB   C4C 3836  31.172  39.309  17.905  0.0294  0.2912 -0.0834
  160BOLB   C1D 3837  31.309  40.291  18.671 -0.1938  0.0511  0.0835
  160BOLB   C2D 3838  31.295  39.873  18.690  0.0156  0.0483 -0.1564
  160BOLB   C3D 3839  31.475  39.442  18.526  0.4069  0.0404  0.1101
  160BOLB   C4D 3840  31.834  39.114  18.623  0.1182  0.0304  0.1921
  161BOLB   NC1 3841  28.117  36.788  17.494 -0.0283 -0.0782  0.3264
  161BOLB   PO1 3842  28.371  37.092  17.647  0.3071  0.1325  0.0330
  161BOLB   GL1 3843  28.508  37.431  17.533  0.1038  0.3730  0.1259
  161BOLB   GL2 3844  28.445  37.442  17.251  0.0485 -0.4701  0.3479
  161BOLB   C1A 3845  28.568  37.979  17.517  0.0416  0.0158  0.1731
  161BOLB   C2A 3846  28.666  38.404  17.602 -0.2101  0.1475  0.2272
  161BOLB   C3A 3847  28.936  38.856  17.574  0.2219  0.1274 -0.1449
  161BOLB   C4A 3848  28.950  39.342  17.637 -0.0182  0.0117  0.3818
  161BOLB   C1B 3849  28.641  37.599  16.904 -0.3671 -0.1776  0.2366
  161BOLB   C2B 3850  28.786  37.903  16.617 -0.0702 -0.0420 -0.3315
  161BOLB   C3B 3851  28.971  38.206  16.346 -0.0282  0.1796  0.0708
  161BOLB   C4B 3852  28.987  38.093  15.953  0.1246  0.2508  0.0754
  161BOLB   NC2 3853  29.145  41.828  17.848  0.3099  0.3351  0.1127
  161BOLB   PO2 3854  28.866  41.659  17.547  0.5352 -0.1316 -0.0728
  161BOLB   GL3 3855  28.733  41.275  17.715  0.2087 -0.1057  0.0592
  161BOLB   GL4 3856  28.455  41.137  18.012 -0.3033  0.1172 -0.0767
  161BOLB   C1C 3857  28.604  40.840  17.637 -0.0497  0.5415 -0.0039
  161BOLB   C2C 3858  28.711  40.501  17.735 -0.1382 -0.0597 -0.2196
  161BOLB   C3C 3859  28.932  40.075  17.719 -0.0372  0.0762 -0.0231
  161BOLB   C4C 3860  28.850  39.766  17.713 -0.1807  0.0102  0.1402
  161BOLB   C1D 3861  28.197  40.785  17.967  0.3360 -0.0890 -0.1913
  161BOLB   C2D 3862  27.773  40.650  18.093  0.3315 -0.0208  0.4188
  161BOLB   C3D 3863  27.644  40.310  18.181 -0.1507  0.2245 -0.0111
  161BOLB   C4D 3864  27.552  40.045  18.061  0.1185  0.0480  0.0322
  162BOLB   NC1 3865  25.169  27.548  14.764 -0.0497  0.2515 -0.1397
  162BOLB   PO1 3866  24.869  27.732  14.514 -0.1733  0.0753 -0.1075
  162BOLB   GL1 3867  24.673  27.525  14.133  0.0210  0.0470  0.3126
  162BOLB   GL2 3868  24.553  27.652  13.886  0.0521 -0.3103  0.3071
  162BOLB   C1A 3869  24.438  27.178  13.796 -0.0195  0.1434 -0.1226
  162BOLB   C2A 3870  24.363  27.086  13.440 -0.0891  0.0070  0.1282
  162BOLB   C3A 3871  24.360  27.089  12.945  0.1723  0.0127  0.4186
  162BOLB   C4A 3872  24.296  27.014  12.483  0.1727  0.0312 -0.4633
  162BOLB   C1B 3873  24.578  27.547  13.431 -0.2892 -0.0970 -0.0928
  162BOLB   C2B 3874  24.600  27.510  13.080  0.2694  0.2870 -0.0532
  162BOLB   C3B 3875  24.639  27.453  12.668 -0.1250 -0.0909 -0.0282
  162BOLB   C4B 3876  25.105  27.269  12.510  0.0282  0.0087  0.0428
  162BOLB   NC2 3877  24.510  27.022  10.099  0.2474  0.3201  0.0163
  162BOLB   PO2 3878  24.389  26.577  10.349  0.1891 -0.0523  0.2413
  162BOLB   GL3 3879  24.653  26.876  10.635 -0.1470  0.0529  0.1973
  162BOLB   GL4 3880  24.363  26.944  10.832 -0.0876  0.0684  0.0426
  162BOLB   C1C 3881  24.885  27.136  10.872  0.1748  0.2857 -0.2348
  162BOLB   C2C 3882  24.838  27.137  11.289 -0.0972  0.1364  0.0328
  162BOLB   C3C 3883  24.707  27.047  11.754 -0.1779 -0.0435 -0.0785
  162BOLB   C4C 3884  24.629  27.097  12.218 -0.1344  0.1524 -0.1505
  162BOLB   C1D 3885  24.564  26.772  11.069  0.1120 -0.0305  0.0300
  162BOLB   C2D 3886  24.690  26.598  11.463 -0.0229  0.2001 -0.1823
  162BOLB   C3D 3887  24.666  26.167  11.532 -0.1597  0.1301 -0.1056
  162BOLB   C4D 3888  24.396  25.865  11.597  0.0142  0.0405  0.1854
  163BOLB   NC1 3889  27.621  22.381  17.237  0.0636 -0.0212 -0.1656
  163BOLB   PO1 3890  27.123  22.424  17.290 -0.1977  0.0977 -0.1522
  163BOLB   GL1 3891  27.036  22.025  17.202  0.0749  0.0437 -0.0546
  163BOLB   GL2 3892  26.730  21.916  17.420 -0.0716  0.0274  0.0392
  163BOLB   C1A 3893  27.314  21.771  17.083  0.1299  0.0772 -0.0033
  163BOLB   C2A 3894  27.152  21.283  16.902  0.0354  0.0121 -0.1667
  163BOLB   C3A 3895  27.022  21.030  16.612 -0.1278 -0.0705  0.3022
  163BOLB   C4A 3896  27.151  20.759  16.329 -0.2027  0.0426  0.1182
  163BOLB   C1B 3897  26.826  21.592  17.237  0.2881 -0.1088  0.3221
  163BOLB   C2B 3898  26.648  21.212  17.020 -0.0875 -0.0236 -0.1835
  163BOLB   C3B 3899  26.546  20.729  16.942  0.1617 -0.2980  0.2086
  163BOLB   C4B 3900  26.610  20.317  16.850  0.2321  0.1515  0.1132
  163BOLB   NC2 3901  27.898  19.071  15.123  0.0717  0.0488 -0.0908
  163BOLB   PO2 3902  28.193  19.298  14.864  0.0398  0.2921  0.1547
  163BOLB   GL3 3903  28.113  19.691  15.066 -0.0482 -0.0853 -0.2665
  163BOLB   GL4 3904  27.802  19.561  15.106 -0.0053 -0.0030 -0.1369
  163BOLB   C1C 3905  28.067  20.065  15.236 -0.1494  0.1107  0.3397
  163BOLB   C2C 3906  27.755  20.295  15.277  0.0488 -0.0331 -0.1820
  163BOLB   C3C 3907  27.584  20.485  15.637 -0.1587 -0.0957  0.0683
  163BOLB   C4C 3908  27.421  20.694  15.991  0.2171  0.0543 -0.0766
  163BOLB   C1D 3909  27.767  19.758  15.493 -0.3074 -0.2004 -0.2143
  163BOLB   C2D 3910  27.951  20.120  15.747  0.0125 -0.0097  0.1729
  163BOLB   C3D 3911  28.345  20.208  15.946  0.0032 -0.0493 -0.1875
  163BOLB   C4D 3912  28.708  19.987  15.898 -0.2003  0.3399  0.3476
  164BOLB   NC1 3913  32.794  24.296  25.402  0.1929  0.1484 -0.2529
  164BOLB   PO1 3914  32.671  24.047  25.646  0.0899  0.2612 -0.2021
  164BOLB   GL1 3915  32.725  23.707  25.907  0.0477  0.1280 -0.0281
  164BOLB   GL2 3916  32.558  23.401  26.075  0.0290 -0.2098  0.2710
  164BOLB   C1A 3917  33.031  23.520  26.237  0.0060  0.2817 -0.0697
  164BOLB   C2A 3918  33.408  23.289  26.350 -0.0476 -0.1014  0.0890
  164BOLB   C3A 3919  33.713  22.995  26.248 -0.1019 -0.0446 -0.5202
  164BOLB   C4A 3920  33.865  22.695  26.537 -0.1372 -0.0058 -0.0156
  164BOLB   C1B 3921  32.735  23.046  26.156 -0.0295  0.1532 -0.0445
  164BOLB   C2B 3922  32.749  22.714  26.491 -0.1441 -0.0944  0.0691
  164BOLB   C3B 3923  33.090  22.510  26.758  0.2314  0.3606  0.3152
  164BOLB   C4B 3924  33.161  22.085  26.805 -0.0036  0.0097  0.0867
  164BOLB   NC2 3925  35.232  20.830   0.286  0.1740  0.0031 -0.0716
  164BOLB   PO2 3926  34.974  21.178   0.359 -0.0107  0.0829  0.1987
  164BOLB   GL3 3927  34.702  21.374   0.385  0.0031 -0.0753  0.1545
  164BOLB   GL4 3928  34.704  21.709   0.205  0.0820 -0.0622 -0.2951
  164BOLB   C1C 3929  34.333  21.688   0.553 -0.0497 -0.2770 -0.0350
  164BOLB   C2C 3930  34.041  21.918   0.390  0.0787 -0.1893  0.4006
  164BOLB   C3C 3931  33.623  22.123   0.228 -0.0997  0.0991 -0.0100
  164BOLB   C4C 3932  33.634  22.478  26.860  0.1235  0.1237  0.0934
  164BOLB   C1D 3933  34.355  21.522   0.014  0.0842  0.2094 -0.0747
  164BOLB   C2D 3934  33.918  21.503   0.062 -0.2369  0.0304  0.3452
  164BOLB   C3D 3935  33.597  21.615  26.781 -0.0795 -0.0102 -0.1144
  164BOLB   C4D 3936  33.184  21.568  26.541  0.3495 -0.0987  0.0390
  165BOLB   NC1 3937  37.827  23.972  26.403  0.0041 -0.0681 -0.0788
  165BOLB   PO1 3938  37.687  23.575  26.190  0.0228  0.0046  0.1455
  165BOLB   GL1 3939  37.298  23.733  26.246 -0.0678  0.1400 -0.2829
  165BOLB   GL2 3940  37.197  23.955  26.505  0.2830 -0.1308  0.1239
  165BOLB   C1A 3941  36.942  23.787  25.992  0.5333  0.1048  0.0029
  165BOLB   C2A 3942  36.570  23.996  25.796 -0.1089  0.0108  0.0007
  165BOLB   C3A 3943  36.157  24.217  25.859  0.4324 -0.1736  0.2754
  165BOLB   C4A 3944  35.948  24.468  26.108 -0.1191 -0.0589 -0.3510
  165BOLB   C1B 3945  36.770  24.115  26.340 -0.0785 -0.0892 -0.1571
  165BOLB   C2B 3946  36.589  24.402  26.133  0.1753  0.3850  0.3583
  165BOLB   C3B 3947  36.314  24.641  25.785 -0.1610  0.2931  0.0533
  165BOLB   C4B 3948  35.861  24.883  25.760  0.0766 -0.0477 -0.0058
  165BOLB   NC2 3949  37.513  25.907   0.545  0.1718  0.3268  0.4529
  165BOLB   PO2 3950  37.212  26.085   0.916 -0.0222  0.3422 -0.1279
  165BOLB   GL3 3951  36.923  26.016   0.658 -0.2579  0.1436  0.2868
  165BOLB   GL4 3952  36.796  26.215   0.398 -0.3384  0.0202  0.1601
  165BOLB   C1C 3953  36.605  25.622   0.465 -0.2451 -0.1467  0.1238
  165BOLB   C2C 3954  36.558  25.282   0.231  0.0842  0.0577 -0.1149
  165BOLB   C3C 3955  36.378  25.034  26.793 -0.0338  0.2500 -0.2136
  165BOLB   C4C 3956  36.157  24.724  26.440 -0.0691 -0.3600 -0.3562
  165BOLB   C1D 3957  36.792  26.399   0.120  0.0521 -0.0955  0.0358
  165BOLB   C2D 3958  36.582  26.697  26.688 -0.0435  0.1230 -0.0218
  165BOLB   C3D 3959  36.263  26.750  26.413 -0.3880 -0.0710  0.0411
  165BOLB   C4D 3960  35.907  26.587  26.199 -0.3197 -0.0805 -0.4560
  166BOLB   NC1 3961  20.706  32.403  22.122 -0.1871  0.0560 -0.5553
  166BOLB   PO1 3962  20.257  32.652  22.068 -0.0371  0.1626  0.0897
  166BOLB   GL1 3963  19.900  32.689  21.875  0.2783 -0.0500 -0.1322
  166BOLB   GL2 3964  19.785  32.616  21.649  0.2263 -0.0537  0.0879
  166BOLB   C1A 3965  19.538  32.842  21.977  0.0379  0.6373 -0.1680
  166BOLB   C2A 3966  19.091  32.993  21.854 -0.0235 -0.3628 -0.1232
  166BOLB   C3A 3967  18.641  33.285  21.922 -0.0676 -0.3297 -0.0137
  166BOLB   C4A 3968  18.218  33.145  22.027 -0.2539 -0.0400  0.1702
  166BOLB   C1B 3969  19.459  32.943  21.460 -0.2716  0.2673 -0.0528
  166BOLB   C2B 3970  19.057  33.087  21.388 -0.2433  0.0562  0.1773
  166BOLB   C3B 3971  18.755  33.363  21.103  0.1890 -0.0309 -0.1691
  166BOLB   C4B 3972  18.433  33.683  20.878  0.1630 -0.4469 -0.4929
  166BOLB   NC2 3973  16.449  33.846  22.060  0.2472 -0.0580 -0.0746
  166BOLB   PO2 3974  16.524  34.094  21.689 -0.1994 -0.0792  0.2001
  166BOLB   GL3 3975  16.761  34.240  21.967 -0.0460 -0.0011 -0.3312
  166BOLB   GL4 3976  17.023  34.166  21.685  0.1637  0.0938  0.1461
  166BOLB   C1C 3977  17.075  34.097  22.248 -0.1473  0.0686  0.1856
  166BOLB   C2C 3978  17.190  33.743  22.378  0.0115 -0.4680  0.0578
  166BOLB   C3C 3979  17.421  33.384  22.265  0.1816 -0.0305  0.0570
  166BOLB   C4C 3980  17.892  33.297  22.335  0.1129  0.0985 -0.1130
  166BOLB   C1D 3981  17.434  34.240  21.554  0.0977 -0.0160  0.1384
  166BOLB   C2D 3982  17.794  33.910  21.535  0.0021 -0.0675 -0.0238
  166BOLB   C3D 3983  18.070  33.666  21.297 -0.0865 -0.0223  0.2718
  166BOLB   C4D 3984  18.175  33.266  21.124 -0.2089 -0.0125  0.0031
  167BOLB   NC1 3985  35.744  29.305  23.681  0.2000 -0.4378 -0.1035
  167BOLB   PO1 3986  35.692  29.294  23.251  0.0437  0.0355  0.2300
  167BOLB   GL1 3987  36.064  29.160  23.187  0.1498 -0.1630 -0.2288
  167BOLB   GL2 3988  36.221  29.171  22.873  0.2122  0.2098  0.2543
  167BOLB   C1A 3989  36.438  28.868  23.324 -0.1206  0.1865  0.0764
  167BOLB   C2A 3990  36.873  28.840  23.339  0.0931  0.0340  0.0873
  167BOLB   C3A 3991  37.239  28.927  23.306 -0.1100 -0.2921 -0.1503
  167BOLB   C4A 3992  37.467  29.091  23.532  0.0819  0.0734  0.0102
  167BOLB   C1B 3993  36.692  28.983  22.835 -0.2052  0.0888  0.3726
  167BOLB   C2B 3994  37.074  28.900  22.759 -0.2785 -0.2762  0.4863
  167BOLB   C3B 3995  37.411  28.627  22.678 -0.3609  0.1339 -0.1654
  167BOLB   C4B 3996  37.810  28.589  22.546 -0.1029  0.0768 -0.1428
  167BOLB   NC2 3997  39.702  30.052  23.818 -0.3370 -0.0940  0.0608
  167BOLB   PO2 3998  39.685  29.666  24.083  0.0254 -0.2770  0.1704
  167BOLB   GL3 3999  39.268  29.760  24.262 -0.0171 -0.3757 -0.0265
  167BOLB   GL4 4000  39.124  30.004  24.074 -0.0262 -0.0098  0.0802
  167BOLB   C1C 4001  38.853  29.635  24.234  0.1336  0.3412  0.1026
  167BOLB   C2C 4002  38.413  29.558  24.051  0.1429 -0.0433  0.0441
  167BOLB   C3C 4003  37.994  29.385  24.063  0.1144  0.1650 -0.1754
  167BOLB   C4C 4004  37.784  29.131  23.811 -0.1125  0.4938 -0.1853
  167BOLB   C1D 4005  38.704  30.068  24.091 -0.0973  0.0713  0.0026
  167BOLB   C2D 4006  38.312  30.222  24.055 -0.0832  0.0837 -0.1472
  167BOLB   C3D 4007  37.891  30.281  24.037 -0.0183  0.0712  0.4144
  167BOLB   C4D 4008  37.552  30.409  23.795  0.3165  0.0191  0.2041
  168BOLB   NC1 4009  21.484  34.636  19.134  0.2841 -0.0619  0.1891
  168BOLB   PO1 4010  21.295  34.323  19.053 -0.3653 -0.2865  0.2854
  168BOLB   GL1 4011  20.945  34.433  18.905  0.0827  0.1620 -0.0519
  168BOLB   GL2 4012  20.919  34.260  18.608  0.0178  0.2930  0.1860
  168BOLB   C1A 4013  20.478  34.532  18.927  0.1374 -0.1093 -0.1894
  168BOLB   C2A 4014  19.984  34.439  18.966 -0.0177  0.1041  0.0748
  168BOLB   C3A 4015  19.778  34.484  19.461  0.1516  0.3012 -0.1850
  168BOLB   C4A 4016  19.412  34.390  19.537 -0.2559 -0.1794  0.3500
  168BOLB   C1B 4017  20.618  34.441  18.463 -0.2984 -0.1834  0.0772
  168BOLB   C2B 4018  20.398  34.797  18.506  0.2034  0.2770 -0.0803
  168BOLB   C3B 4019  20.393  35.018  18.885  0.0320  0.1849 -0.1053
  168BOLB   C4B 4020  20.096  35.407  19.029 -0.2070  0.0559 -0.0259
  168BOLB   NC2 4021  17.863  36.370  18.291  0.2534  0.4889 -0.2613
  168BOLB   PO2 4022  17.850  36.158  18.764 -0.3484 -0.0567 -0.0982
  168BOLB   GL3 4023  17.970  35.729  18.752  0.1646 -0.0343 -0.0777
  168BOLB   GL4 4024  18.169  35.555  18.510 -0.0392 -0.1308  0.2005
  168BOLB   C1C 4025  18.229  35.412  18.975  0.4106 -0.1080  0.2017
  168BOLB   C2C 4026  18.368  35.148  19.354  0.1698  0.5121  0.0642
  168BOLB   C3C 4027  18.744  34.918  19.514 -0.0558  0.1017 -0.0260
  168BOLB   C4C 4028  18.984  34.663  19.522  0.0884 -0.0741 -0.2207
  168BOLB   C1D 4029  17.951  35.253  18.515  0.1081 -0.2734  0.2787
  168BOLB   C2D 4030  17.872  34.875  18.562 -0.1786 -0.0801 -0.2637
  168BOLB   C3D 4031  17.778  34.539  18.836  0.1314 -0.0688 -0.0911
  168BOLB   C4D 4032  17.942  34.248  19.177 -0.0699 -0.1400  0.2026
  169BOLB   NC1 4033  29.605  24.504  15.494  0.0360  0.0359 -0.4099
  169BOLB   PO1 4034  30.067  24.715  15.406  0.1810 -0.2029  0.1372
  169BOLB   GL1 4035  30.081  24.487  15.088  0.1841  0.1681 -0.1586
  169BOLB   GL2 4036  29.776  24.242  15.048  0.0751  0.0301 -0.3695
  169BOLB   C1A 4037  30.134  24.191  14.680  0.0533 -0.0409 -0.0942
  169BOLB   C2A 4038  30.115  23.880  14.495  0.2566  0.1665  0.0170
  169BOLB   C3A 4039  30.151  23.485  14.302  0.0282  0.1810 -0.1411
  169BOLB   C4A 4040  30.010  23.261  13.904 -0.1398  0.1023  0.0614
  169BOLB   C1B 4041  29.659  24.297  14.688 -0.1376  0.0028 -0.0719
  169BOLB   C2B 4042  29.720  24.223  14.264 -0.3864  0.2143  0.0700
  169BOLB   C3B 4043  29.788  23.800  14.161  0.1859 -0.0430 -0.0646
  169BOLB   C4B 4044  29.570  23.535  13.982 -0.2615 -0.2213  0.2724
  169BOLB   NC2 4045  29.875  22.263  11.892 -0.0369 -0.0292  0.5277
  169BOLB   PO2 4046  30.308  22.163  12.084  0.2549  0.0421 -0.1538
  169BOLB   GL3 4047  30.042  22.016  12.445 -0.0646 -0.5619 -0.0073
  169BOLB   GL4 4048  29.705  22.002  12.368  0.1007  0.0486  0.1504
  169BOLB   C1C 4049  30.077  22.075  12.824 -0.0439 -0.1424 -0.1414
  169BOLB   C2C 4050  29.902  22.255  13.268 -0.4685  0.0442 -0.3357
  169BOLB   C3C 4051  29.833  22.452  13.631  0.1876 -0.1268  0.3059
  169BOLB   C4C 4052  29.973  22.826  13.771 -0.1539  0.0744 -0.1528
  169BOLB   C1D 4053  29.774  22.418  12.495 -0.3828 -0.2305 -0.0814
  169BOLB   C2D 4054  29.807  22.592  12.942  0.0800 -0.3573  0.2728
  169BOLB   C3D 4055  29.831  22.846  13.298 -0.0992 -0.1818  0.1367
  169BOLB   C4D 4056  29.733  23.288  13.448 -0.0430  0.2190 -0.2551
  170BOLB   NC1 4057  22.810  33.626   0.806  0.5447 -0.1002  0.0942
  170BOLB   PO1 4058  22.388  33.600   0.608  0.1760 -0.3144  0.0835
  170BOLB   GL1 4059  22.220  33.587   0.918  0.1062 -0.1081 -0.0087
  170BOLB   GL2 4060  21.859  33.753   0.694  0.2253  0.3498 -0.1970
  170BOLB   C1A 4061  22.098  33.435   1.331  0.1293 -0.1006 -0.2131
  170BOLB   C2A 4062  21.855  33.381   1.697  0.1143 -0.0805  0.1858
  170BOLB   C3A 4063  21.612  33.208   2.071 -0.2063 -0.0832  0.0232
  170BOLB   C4A 4064  21.252  33.425   2.339  0.0430  0.2586  0.0677
  170BOLB   C1B 4065  21.982  33.948   1.131 -0.2725 -0.0726  0.3289
  170BOLB   C2B 4066  21.997  33.871   1.641  0.1123 -0.3523  0.1366
  170BOLB   C3B 4067  21.860  34.016   2.021 -0.0932 -0.3021 -0.1194
  170BOLB   C4B 4068  21.644  33.821   2.369  0.1704 -0.0483  0.2354
  170BOLB   NC2 4069  19.791  35.254   2.227  0.1595 -0.2131  0.2521
  170BOLB   PO2 4070  19.584  34.856   2.394  0.0733  0.1799 -0.0433
  170BOLB   GL3 4071  19.913  34.620   2.536  0.1906  0.1290 -0.1365
  170BOLB   GL4 4072  19.997  34.241   2.505 -0.2022  0.0422  0.1399
  170BOLB   C1C 4073  20.244  34.611   2.764  0.0851 -0.2044 -0.3176
  170BOLB   C2C 4074  20.715  34.521   2.924  0.0333  0.0081 -0.2375
  170BOLB   C3C 4075  20.964  34.182   2.545 -0.1306  0.0338  0.1287
  170BOLB   C4C 4076  21.204  33.894   2.410  0.0210  0.1744 -0.1121
  170BOLB   C1D 4077  20.406  34.121   2.330 -0.0013 -0.2786 -0.1652
  170BOLB   C2D 4078  20.707  33.843   2.228 -0.3112  0.0528  0.1319
  170BOLB   C3D 4079  21.036  33.776   1.910 -0.1605  0.2096 -0.1342
  170BOLB   C4D 4080  21.505  33.681   1.832 -0.1661  0.1261  0.0509
  171BOLB   NC1 4081  23.225  32.958  10.370 -0.0212  0.0234 -0.0320
  171BOLB   PO1 4082  23.067  33.285  10.641 -0.1190 -0.2065 -0.0183
  171BOLB   GL1 4083  23.252  33.025  11.034 -0.0097 -0.2899  0.2570
  171BOLB   GL2 4084  23.389  32.764  10.971  0.3172  0.3226  0.3693
  171BOLB   C1A 4085  23.241  33.074  11.373  0.1012 -0.0241  0.2215
  171BOLB   C2A 4086  23.128  32.714  11.590  0.0146 -0.1448  0.2562
  171BOLB   C3A 4087  23.173  32.355  11.867  0.3998 -0.1431 -0.0656
  171BOLB   C4A 4088  23.220  32.108  12.056  0.0022  0.0353 -0.1485
  171BOLB   C1B 4089  23.600  32.702  11.289 -0.1426  0.1352 -0.1711
  171BOLB   C2B 4090  23.582  32.832  11.739 -0.2163  0.0875 -0.0317
  171BOLB   C3B 4091  23.831  33.008  12.063  0.2920  0.0212 -0.0572
  171BOLB   C4B 4092  23.728  33.214  12.408 -0.2154 -0.3447  0.0782
  171BOLB   NC2 4093  24.533  31.594  13.886  0.0312  0.1522 -0.0108
  171BOLB   PO2 4094  24.229  31.544  14.226 -0.0288 -0.0220  0.0125
  171BOLB   GL3 4095  24.002  31.554  13.894  0.1047 -0.2144 -0.0297
  171BOLB   GL4 4096  23.827  31.245  13.771  0.0624 -0.2491 -0.0563
  171BOLB   C1C 4097  23.696  31.746  13.571  0.0214  0.0870 -0.2231
  171BOLB   C2C 4098  23.599  32.005  13.214  0.0831  0.1392  0.1467
  171BOLB   C3C 4099  23.362  32.004  12.792 -0.0934  0.3616  0.0525
  171BOLB   C4C 4100  23.324  32.132  12.342  0.1920  0.1350  0.0328
  171BOLB   C1D 4101  23.627  31.258  13.418  0.1339  0.2914 -0.0571
  171BOLB   C2D 4102  23.649  31.509  12.952  0.4543 -0.3116  0.3567
  171BOLB   C3D 4103  23.722  31.474  12.524  0.0414 -0.1167 -0.1774
  171BOLB   C4D 4104  23.933  31.516  12.095  0.0382  0.3190  0.1796
  172BOLB   NC1 4105  26.457  36.083  16.417  0.0500  0.2170  0.2004
  172BOLB   PO1 4106  26.337  36.397  16.728  0.2323 -0.0231  0.0744
  172BOLB   GL1 4107  26.171  36.741  16.563 -0.2845  0.1373  0.0237
  172BOLB   GL2 4108  26.132  36.948  16.818  0.1500 -0.0859 -0.1159
  172BOLB   C1A 4109  26.086  37.060  16.189 -0.0127 -0.3849  0.2058
  172BOLB   C2A 4110  25.886  37.328  15.813 -0.2688  0.0698  0.1483
  172BOLB   C3A 4111  26.079  37.673  15.704 -0.0853  0.2123  0.0837
  172BOLB   C4A 4112  26.271  38.026  15.802  0.0573  0.1682 -0.0426
  172BOLB   C1B 4113  25.964  37.288  16.712  0.2565  0.0023  0.0648
  172BOLB   C2B 4114  25.881  37.470  16.363  0.5259 -0.0603  0.0497
  172BOLB   C3B 4115  25.544  37.705  15.995 -0.1845 -0.1883 -0.0325
  172BOLB   C4B 4116  25.078  37.751  15.984 -0.1351 -0.1153 -0.1049
  172BOLB   NC2 4117  26.877  40.511  15.875 -0.2056  0.0028 -0.0498
  172BOLB   PO2 4118  26.486  40.606  16.059 -0.0643  0.0770 -0.2634
  172BOLB   GL3 4119  26.282  40.204  16.096  0.3182  0.1045 -0.2692
  172BOLB   GL4 4120  26.593  40.047  15.982 -0.0764 -0.0473  0.4796
  172BOLB   C1C 4121  26.205  39.761  15.961  0.1046  0.0526  0.1655
  172BOLB   C2C 4122  26.453  39.415  15.986  0.1688  0.1635  0.1476
  172BOLB   C3C 4123  26.373  38.992  15.931 -0.0414  0.0568 -0.0306
  172BOLB   C4C 4124  26.218  38.504  15.866  0.1655 -0.2774  0.0958
  172BOLB   C1D 4125  26.496  39.774  16.387  0.2337  0.2414  0.0267
  172BOLB   C2D 4126  26.689  39.344  16.565 -0.0445  0.0694 -0.1919
  172BOLB   C3D 4127  26.756  38.999  16.869  0.2331  0.2315  0.1685
  172BOLB   C4D 4128  26.852  38.553  16.713 -0.0596 -0.1777  0.0809
  173BOLB   NC1 4129  32.828  23.838  19.106 -0.0998  0.3135  0.5235
  173BOLB   PO1 4130  32.643  23.521  19.318 -0.0736 -0.0061  0.0697
  173BOLB   GL1 4131  32.781  23.147  19.247 -0.0265 -0.3153 -0.0252
  173BOLB   GL2 4132  32.998  23.311  19.072 -0.0454 -0.1252 -0.3812
  173BOLB   C1A 4133  32.949  22.855  18.945  0.2791 -0.0717  0.0933
  173BOLB   C2A 4134  32.998  22.516  18.624  0.1007 -0.2019  0.4866
  173BOLB   C3A 4135  33.292  22.267  18.382 -0.2074 -0.0429  0.2748
  173BOLB   C4A 4136  33.680  22.257  18.193  0.3489  0.0319 -0.1091
  173BOLB   C1B 4137  33.246  22.975  19.391  0.0371 -0.1353  0.1038
  173BOLB   C2B 4138  33.585  22.837  19.423 -0.0608 -0.2142 -0.0415
  173BOLB   C3B 4139  33.972  22.948  19.655 -0.0194 -0.0034 -0.0096
  173BOLB   C4B 4140  34.236  22.795  19.557 -0.0467  0.1208 -0.0896
  173BOLB   NC2 4141  35.424  20.853  17.491 -0.1839 -0.1172 -0.0228
  173BOLB   PO2 4142  35.170  20.715  17.178 -0.2137  0.0132 -0.2638
  173BOLB   GL3 4143  34.812  21.037  17.260 -0.0042  0.1343 -0.0635
  173BOLB   GL4 4144  34.695  21.119  16.888  0.2890 -0.0022  0.0144
  173BOLB   C1C 4145  34.436  20.935  17.440  0.0871  0.1661 -0.0080
  173BOLB   C2C 4146  34.214  21.106  17.702  0.0603  0.2231 -0.0850
  173BOLB   C3C 4147  34.040  21.439  17.788  0.1909 -0.0486 -0.1456
  173BOLB   C4C 4148  33.964  21.862  17.970  0.0344  0.0585  0.0556
  173BOLB   C1D 4149  34.389  21.360  17.081 -0.2765  0.0033 -0.0248
  173BOLB   C2D 4150  34.107  21.615  17.297 -0.2661  0.2346  0.0433
  173BOLB   C3D 4151  33.846  21.956  17.408 -0.2223 -0.0233 -0.2275
  173BOLB   C4D 4152  33.683  22.167  17.711  0.2494 -0.2069 -0.1854
  174BOLB   NC1 4153  30.097  33.413   1.683  0.1878  0.0280 -0.0365
  174BOLB   PO1 4154  30.130  33.136   1.946  0.0052 -0.1167 -0.4540
  174BOLB   GL1 4155  30.154  33.232   2.414  0.0261  0.2502 -0.1738
  174BOLB   GL2 4156  30.023  33.532   2.569 -0.0477  0.0929 -0.3239
  174BOLB   C1A 4157  30.454  33.023   2.758  0.4033  0.1808  0.2256
  174BOLB   C2A 4158  30.552  33.023   3.247  0.1103  0.0357  0.1738
  174BOLB   C3A 4159  30.303  32.822   3.566 -0.0527  0.0112  0.2733
  174BOLB   C4A 4160  29.913  32.815   3.788  0.0621 -0.0003 -0.3060
  174BOLB   C1B 4161  30.151  33.830   2.926  0.0545  0.0689 -0.1801
  174BOLB   C2B 4162  30.306  34.006   3.404 -0.0593  0.0079  0.0307
  174BOLB   C3B 4163  30.488  34.155   3.668 -0.0055  0.1083 -0.0649
  174BOLB   C4B 4164  30.596  34.371   4.094 -0.2964  0.1176 -0.0183
  174BOLB   NC2 4165  30.406  34.349   5.953  0.2083  0.2128  0.3917
  174BOLB   PO2 4166  30.141  33.959   6.005 -0.1440  0.1748  0.1600
  174BOLB   GL3 4167  29.839  33.698   5.735 -0.0263  0.1804 -0.1402
  174BOLB   GL4 4168  29.904  33.808   5.395 -0.3076  0.1670  0.0129
  174BOLB   C1C 4169  29.738  33.257   5.605 -0.0212 -0.0026  0.2023
  174BOLB   C2C 4170  29.829  33.075   5.167 -0.0467  0.0920  0.2631
  174BOLB   C3C 4171  29.827  32.854   4.708 -0.1556 -0.3783 -0.1032
  174BOLB   C4C 4172  29.827  32.819   4.329 -0.0594 -0.1972 -0.0716
  174BOLB   C1D 4173  29.667  33.578   5.180  0.1243  0.1349  0.1909
  174BOLB   C2D 4174  29.393  33.311   5.058 -0.3631  0.2944  0.2110
  174BOLB   C3D 4175  29.317  32.999   4.802  0.2321 -0.1407  0.3110
  174BOLB   C4D 4176  29.394  32.700   4.616  0.0026 -0.2194 -0.3012
  175BOLB   NC1 4177  28.102  34.067   2.058 -0.0035  0.0276 -0.1111
  175BOLB   PO1 4178  28.135  33.471   2.155  0.0249  0.2228 -0.3308
  175BOLB   GL1 4179  28.095  33.713   2.500  0.4578 -0.2043  0.0689
  175BOLB   GL2 4180  27.853  33.650   2.698 -0.1607  0.0797 -0.1326
  175BOLB   C1A 4181  28.235  34.144   2.629  0.2423 -0.0832 -0.1103
  175BOLB   C2A 4182  28.142  34.476   2.773  0.0692  0.0543  0.0231
  175BOLB   C3A 4183  28.357  34.816   2.993 -0.1415  0.0452 -0.3190
  175BOLB   C4A 4184  28.511  35.004   3.288 -0.3391  0.1334  0.0776
  175BOLB   C1B 4185  27.799  33.993   2.986  0.1848 -0.0997 -0.1868
  175BOLB   C2B 4186  27.872  34.240   3.277 -0.0309 -0.4476  0.3600
  175BOLB   C3B 4187  28.067  34.211   3.634 -0.1082  0.0672  0.2635
  175BOLB   C4B 4188  28.054  34.514   3.890 -0.4121  0.3649 -0.1463
  175BOLB   NC2 4189  28.240  36.708   4.931 -0.0146  0.0890  0.0056
  175BOLB   PO2 4190  28.627  36.749   4.652 -0.1738  0.0856 -0.1403
  175BOLB   GL3 4191  28.678  36.277   4.511 -0.0065 -0.2034  0.0667
  175BOLB   GL4 4192  28.930  36.171   4.561 -0.3803  0.2533 -0.3070
  175BOLB   C1C 4193  28.613  36.052   4.213 -0.1216 -0.2771  0.0347
  175BOLB   C2C 4194  29.033  35.798   4.022  0.1055  0.2339  0.2100
  175BOLB   C3C 4195  29.026  35.369   3.940  0.1283  0.2065 -0.1893
  175BOLB   C4C 4196  28.790  35.140   3.596 -0.2921  0.3291 -0.2014
  175BOLB   C1D 4197  29.055  36.338   4.171  0.1547 -0.4033  0.2329
  175BOLB   C2D 4198  28.721  36.171   3.787  0.3709  0.0821  0.3314
  175BOLB   C3D 4199  28.330  36.201   3.557 -0.0676 -0.1644 -0.2444
  175BOLB   C4D 4200  28.009  35.982   3.443  0.1401  0.1557 -0.0829
  176BOLB   NC1 4201  32.751  35.966  22.595  0.1638  0.0879 -0.0966
  176BOLB   PO1 4202  33.097  36.197  22.581 -0.0614 -0.2789 -0.0473
  176BOLB   GL1 4203  33.390  36.336  22.906 -0.2142 -0.3067  0.3251
  176BOLB   GL2 4204  33.070  36.530  23.129 -0.0195 -0.1542 -0.1435
  176BOLB   C1A 4205  33.876  36.471  22.750  0.0673  0.1775 -0.0568
  176BOLB   C2A 4206  34.259  36.610  22.677  0.0047 -0.2206  0.0579
  176BOLB   C3A 4207  34.586  36.827  22.535  0.0025 -0.0174  0.2953
  176BOLB   C4A 4208  34.996  36.802  22.493  0.2767 -0.3992 -0.1192
  176BOLB   C1B 4209  33.334  36.876  23.239  0.0141  0.1588 -0.0207
  176BOLB   C2B 4210  33.762  37.109  23.276 -0.1013  0.1880 -0.1114
  176BOLB   C3B 4211  34.077  37.341  23.507  0.0726 -0.1116  0.0298
  176BOLB   C4B 4212  34.367  37.355  23.892  0.1536  0.4013  0.0859
  176BOLB   NC2 4213  37.113  38.266  22.699 -0.0710 -0.1248 -0.1870
  176BOLB   PO2 4214  36.749  38.547  22.630  0.4081  0.1367 -0.0664
  176BOLB   GL3 4215  36.533  38.227  22.675  0.1394 -0.0396  0.1779
  176BOLB   GL4 4216  36.212  38.275  22.710  0.5552  0.1670 -0.0246
  176BOLB   C1C 4217  36.291  37.975  22.354  0.2541  0.1453  0.2279
  176BOLB   C2C 4218  35.874  37.823  22.582 -0.1510 -0.2265  0.0452
  176BOLB   C3C 4219  35.692  37.373  22.642 -0.1899  0.0993  0.0090
  176BOLB   C4C 4220  35.456  36.988  22.688 -0.2425 -0.3859 -0.0339
  176BOLB   C1D 4221  35.857  38.306  22.526  0.1797  0.3386  0.4167
  176BOLB   C2D 4222  35.462  38.591  22.597 -0.3640  0.2619 -0.2179
  176BOLB   C3D 4223  35.007  38.767  22.549 -0.0678 -0.0675 -0.4971
  176BOLB   C4D 4224  34.591  38.487  22.702 -0.0040 -0.2320  0.0636
  177BOLB   NC1 4225  29.594  27.625  14.868  0.0398 -0.0488 -0.0083
  177BOLB   PO1 4226  29.754  27.494  14.461  0.0894  0.0002 -0.1198
  177BOLB   GL1 4227  29.815  27.432  14.077 -0.1503 -0.0333 -0.0364
  177BOLB   GL2 4228  29.651  27.635  13.800  0.1543  0.0200 -0.0790
  177BOLB   C1A 4229  29.850  27.092  13.679  0.0705  0.0430 -0.2446
  177BOLB   C2A 4230  29.881  26.998  13.285 -0.0294  0.3051 -0.1598
  177BOLB   C3A 4231  30.007  26.937  12.831 -0.2260  0.2597 -0.3901
  177BOLB   C4A 4232  30.082  27.229  12.600  0.4102  0.0587  0.0641
  177BOLB   C1B 4233  29.982  27.481  13.474 -0.3914  0.2892 -0.2489
  177BOLB   C2B 4234  30.036  27.403  13.059  0.2173 -0.1864  0.0056
  177BOLB   C3B 4235  30.422  27.405  12.890 -0.1888  0.2187 -0.5408
  177BOLB   C4B 4236  30.753  27.594  12.627  0.2728  0.0541 -0.1178
  177BOLB   NC2 4237  30.543  27.491  10.070  0.1840 -0.0970 -0.1085
  177BOLB   PO2 4238  30.287  27.138  10.104 -0.2057  0.0245 -0.0696
  177BOLB   GL3 4239  30.291  27.416  10.510 -0.2162 -0.1946 -0.1109
  177BOLB   GL4 4240  30.246  27.716  10.462  0.0886 -0.0564  0.0311
  177BOLB   C1C 4241  30.595  27.333  10.951  0.1762  0.0125  0.2908
  177BOLB   C2C 4242  30.581  27.596  11.314 -0.2823  0.1069 -0.0179
  177BOLB   C3C 4243  30.455  27.582  11.805 -0.1326  0.2923  0.1904
  177BOLB   C4C 4244  30.230  27.454  12.254 -0.0096  0.2985 -0.0922
  177BOLB   C1D 4245  30.225  27.652  10.927  0.2479  0.0240 -0.0279
  177BOLB   C2D 4246  30.132  27.867  11.323  0.2790 -0.2147  0.2676
  177BOLB   C3D 4247  30.034  27.851  11.843 -0.1349 -0.0245  0.0133
  177BOLB   C4D 4248  29.785  27.903  12.259  0.2021  0.2203 -0.1097
  178BOLB   NC1 4249  34.871  25.872  22.374  0.1389 -0.0607  0.1511
  178BOLB   PO1 4250  35.106  26.003  22.648  0.2671  0.0081  0.1192
  178BOLB   GL1 4251  35.496  26.112  22.719  0.0632 -0.2326  0.0747
  178BOLB   GL2 4252  35.633  26.416  22.859 -0.2305  0.2865  0.2161
  178BOLB   C1A 4253  35.873  25.915  22.864 -0.1840 -0.0775  0.0288
  178BOLB   C2A 4254  36.266  25.728  23.034  0.2697 -0.1665 -0.1554
  178BOLB   C3A 4255  36.668  25.696  22.799 -0.3051 -0.1796 -0.1043
  178BOLB   C4A 4256  36.980  25.559  22.483  0.3739  0.0076 -0.0329
  178BOLB   C1B 4257  36.102  26.427  23.011  0.0131  0.0734  0.2262
  178BOLB   C2B 4258  36.435  26.566  23.309 -0.1913  0.0377 -0.2060
  178BOLB   C3B 4259  36.616  26.757  23.627  0.1451  0.1212 -0.1316
  178BOLB   C4B 4260  36.816  27.085  23.866 -0.1440  0.1466  0.0230
  178BOLB   NC2 4261  38.661  23.628  22.751 -0.2771 -0.1066 -0.1723
  178BOLB   PO2 4262  38.461  23.402  22.454 -0.0059  0.2861  0.1996
  178BOLB   GL3 4263  38.281  23.764  22.365 -0.0220 -0.1974  0.5025
  178BOLB   GL4 4264  37.909  23.822  22.177  0.0486 -0.2483 -0.0407
  178BOLB   C1C 4265  38.093  24.276  22.521 -0.0040  0.1679  0.0444
  178BOLB   C2C 4266  37.838  24.694  22.416 -0.4526  0.0976  0.1589
  178BOLB   C3C 4267  37.608  25.123  22.654  0.0297 -0.1630  0.1065
  178BOLB   C4C 4268  37.307  25.334  22.396 -0.0188 -0.1811 -0.0783
  178BOLB   C1D 4269  37.688  24.150  22.153 -0.2632  0.1726 -0.1735
  178BOLB   C2D 4270  37.510  24.480  21.988 -0.2634  0.0782 -0.1064
  178BOLB   C3D 4271  37.262  24.772  22.360 -0.0203  0.0977  0.0929
  178BOLB   C4D 4272  36.840  24.762  22.378  0.2906 -0.1549  0.0759
  179BOLB   NC1 4273  29.500  33.794  15.118  0.0430  0.3167  0.1051
  179BOLB   PO1 4274  29.204  33.977  14.729 -0.1612  0.1025  0.3719
  179BOLB   GL1 4275  29.232  34.213  14.371  0.0584  0.4805  0.2317
  179BOLB   GL2 4276  29.551  34.239  14.246  0.0310 -0.3058 -0.0151
  179BOLB   C1A 4277  29.174  34.345  13.943 -0.1056  0.2140 -0.0374
  179BOLB   C2A 4278  29.322  34.409  13.562 -0.3020 -0.0744 -0.2586
  179BOLB   C3A 4279  29.479  34.659  13.368  0.0572 -0.1458  0.0491
  179BOLB   C4A 4280  29.649  35.035  13.434 -0.2643 -0.0703  0.1819
  179BOLB   C1B 4281  29.969  34.293  13.961  0.0443  0.4018 -0.2992
  179BOLB   C2B 4282  30.143  34.529  13.688  0.0469  0.2536 -0.1362
  179BOLB   C3B 4283  30.277  34.748  13.338  0.2417 -0.0196 -0.2515
  179BOLB   C4B 4284  30.422  34.703  12.926  0.1232 -0.2495 -0.2173
  179BOLB   NC2 4285  30.024  36.075  11.422  0.3561 -0.2136  0.0132
  179BOLB   PO2 4286  30.445  35.898  11.527  0.1139  0.1430  0.0467
  179BOLB   GL3 4287  30.386  35.664  11.874 -0.2861 -0.0442 -0.1322
  179BOLB   GL4 4288  30.091  35.630  12.064 -0.2940  0.0808  0.2491
  179BOLB   C1C 4289  30.527  35.522  12.423 -0.1954 -0.1264 -0.2521
  179BOLB   C2C 4290  30.488  35.428  12.816  0.0178  0.0172  0.1065
  179BOLB   C3C 4291  30.268  35.213  13.087 -0.1548  0.2028  0.0319
  179BOLB   C4C 4292  30.114  35.225  13.391 -0.0741  0.0545 -0.1580
  179BOLB   C1D 4293  30.220  35.863  12.339 -0.4165 -0.0959 -0.1391
  179BOLB   C2D 4294  30.523  36.116  12.623  0.1463 -0.1400 -0.2826
  179BOLB   C3D 4295  30.574  36.279  13.002 -0.2139  0.1126  0.0717
  179BOLB   C4D 4296  30.421  36.427  13.392  0.1971 -0.1242 -0.1166
  180BOLB   NC1 4297  28.083  22.330  18.917 -0.1405 -0.1389 -0.0110
  180BOLB   PO1 4298  28.256  22.005  18.837  0.0790  0.0843 -0.0617
  180BOLB   GL1 4299  28.253  21.709  18.525 -0.0895  0.0799  0.0972
  180BOLB   GL2 4300  28.383  21.820  18.180 -0.0393  0.0903  0.1361
  180BOLB   C1A 4301  28.339  21.275  18.331 -0.0406 -0.3093  0.1954
  180BOLB   C2A 4302  28.482  20.853  18.235  0.1064 -0.0012 -0.4546
  180BOLB   C3A 4303  28.126  20.599  18.098  0.1975  0.2602  0.1273
  180BOLB   C4A 4304  27.841  20.275  17.838  0.1467  0.2520  0.0600
  180BOLB   C1B 4305  28.705  21.597  18.276  0.0795  0.0029 -0.1666
  180BOLB   C2B 4306  28.828  21.229  18.174 -0.0060 -0.1329 -0.2153
  180BOLB   C3B 4307  28.976  20.877  17.977  0.2968  0.0451 -0.0268
  180BOLB   C4B 4308  29.264  20.737  17.728 -0.0659 -0.1645  0.1368
  180BOLB   NC2 4309  28.796  18.050  16.300 -0.1560  0.0412 -0.1771
  180BOLB   PO2 4310  28.693  18.356  16.484 -0.3494  0.1324  0.0372
  180BOLB   GL3 4311  28.716  18.642  16.812  0.1047 -0.0994 -0.0703
  180BOLB   GL4 4312  28.868  18.954  16.824  0.0257 -0.0795  0.1392
  180BOLB   C1C 4313  28.313  18.897  16.828 -0.0031 -0.0487  0.2117
  180BOLB   C2C 4314  28.166  19.239  16.971  0.2035  0.1015  0.0595
  180BOLB   C3C 4315  28.196  19.539  17.365  0.1018 -0.4468 -0.2133
  180BOLB   C4C 4316  27.881  19.840  17.546  0.1394 -0.4061 -0.0354
  180BOLB   C1D 4317  29.055  19.334  16.867  0.1591 -0.0112  0.1921
  180BOLB   C2D 4318  29.209  19.761  17.077  0.3558  0.1341  0.1179
  180BOLB   C3D 4319  28.998  20.153  17.163 -0.0092 -0.0475 -0.1319
  180BOLB   C4D 4320  28.829  20.361  17.533 -0.2055 -0.1361  0.2714
  181BOLB   NC1 4321  23.613  35.280  25.931  0.2063 -0.3916  0.2819
  181BOLB   PO1 4322  23.289  35.468  25.711 -0.0583 -0.0442 -0.1780
  181BOLB   GL1 4323  23.259  35.822  25.776 -0.1131 -0.0798 -0.1840
  181BOLB   GL2 4324  23.155  36.086  25.577  0.2049 -0.4980 -0.3888
  181BOLB   C1A 4325  23.030  35.998  26.132 -0.1487  0.1673  0.1256
  181BOLB   C2A 4326  22.740  36.278  26.130  0.1387 -0.2261  0.1231
  181BOLB   C3A 4327  22.604  36.610  26.382 -0.0262  0.1412 -0.2485
  181BOLB   C4A 4328  22.357  37.017  26.541  0.1566 -0.1585  0.0379
  181BOLB   C1B 4329  23.001  36.413  25.745  0.0057  0.2661  0.0379
  181BOLB   C2B 4330  22.856  36.759  25.959  0.3368  0.1078  0.2534
  181BOLB   C3B 4331  22.487  37.016  26.056 -0.2724  0.4643 -0.0692
  181BOLB   C4B 4332  22.041  37.007  26.121  0.3393 -0.0260 -0.4501
  181BOLB   NC2 4333  23.018  39.536   0.370  0.0061  0.0543 -0.0463
  181BOLB   PO2 4334  22.750  39.260   0.510 -0.1145 -0.0130  0.1246
  181BOLB   GL3 4335  22.606  38.856   0.257  0.4949 -0.2752  0.3937
  181BOLB   GL4 4336  22.753  38.913  26.811 -0.0156 -0.0871 -0.0931
  181BOLB   C1C 4337  22.380  38.459   0.126  0.1333  0.3479 -0.2601
  181BOLB   C2C 4338  22.355  38.057   0.146  0.3693 -0.3392  0.3424
  181BOLB   C3C 4339  22.376  37.596  26.822  0.0112 -0.1288  0.3295
  181BOLB   C4C 4340  22.296  37.288  26.771  0.0304  0.0736 -0.0431
  181BOLB   C1D 4341  23.087  38.767  26.615 -0.2771  0.0464  0.1354
  181BOLB   C2D 4342  23.298  38.823  26.376 -0.0859  0.2878  0.3259
  181BOLB   C3D 4343  23.816  38.852  26.204  0.0976  0.0629  0.0740
  181BOLB   C4D 4344  23.993  38.450  26.085 -0.1931 -0.1187  0.1912
  182BOLB   NC1 4345  25.302  31.080  14.020  0.1590 -0.2958 -0.2910
  182BOLB   PO1 4346  25.258  30.892  13.619  0.4566 -0.0791  0.0306
  182BOLB   GL1 4347  25.055  30.782  13.215  0.0420 -0.0490  0.0594
  182BOLB   GL2 4348  24.952  31.102  13.111  0.1427 -0.6328  0.3102
  182BOLB   C1A 4349  25.052  30.787  12.730 -0.2795  0.0057 -0.2419
  182BOLB   C2A 4350  25.321  30.745  12.351  0.2947  0.0569  0.1093
  182BOLB   C3A 4351  25.452  30.776  11.951  0.1506  0.1039 -0.2099
  182BOLB   C4A 4352  25.824  30.947  11.840 -0.0959 -0.0476  0.0932
  182BOLB   C1B 4353  24.679  31.138  12.725  0.4820  0.0350 -0.1406
  182BOLB   C2B 4354  24.712  31.008  12.381  0.1674 -0.2261 -0.0848
  182BOLB   C3B 4355  25.049  31.001  12.061  0.2978 -0.1527  0.1288
  182BOLB   C4B 4356  25.320  31.199  11.748 -0.1238 -0.0419 -0.0492
  182BOLB   NC2 4357  26.575  30.658   9.279 -0.0696  0.1602  0.1701
  182BOLB   PO2 4358  26.294  30.415   9.438 -0.4036  0.1780  0.2088
  182BOLB   GL3 4359  26.115  30.530   9.786  0.1703  0.1864  0.1788
  182BOLB   GL4 4360  25.802  30.655   9.931 -0.0975  0.1949  0.0558
  182BOLB   C1C 4361  26.060  30.607  10.306  0.0159  0.2476  0.3238
  182BOLB   C2C 4362  25.936  30.925  10.554 -0.0784 -0.1261  0.2143
  182BOLB   C3C 4363  25.952  31.110  10.962  0.1068 -0.3382 -0.1664
  182BOLB   C4C 4364  25.903  31.133  11.462 -0.0363 -0.2981  0.1831
  182BOLB   C1D 4365  25.592  30.811  10.286 -0.0464 -0.1003  0.0048
  182BOLB   C2D 4366  25.430  30.746  10.746  0.0255  0.0100  0.1245
  182BOLB   C3D 4367  25.738  30.636  11.202  0.1823  0.0494  0.0591
  182BOLB   C4D 4368  26.070  30.688  11.519  0.0089  0.1831  0.0230
  183BOLB   NC1 4369  28.629  21.737  22.950  0.1767 -0.0664  0.2037
  183BOLB   PO1 4370  28.338  21.356  22.866  0.2404  0.3742  0.0474
  183BOLB   GL1 4371  28.545  21.095  23.159 -0.4511 -0.3936 -0.1398
  183BOLB   GL2 4372  28.332  20.809  23.070  0.3407  0.0614 -0.0337
  183BOLB   C1A 4373  28.868  20.842  23.279  0.0550 -0.1774 -0.1330
  183BOLB   C2A 4374  28.658  20.441  23.388  0.0657 -0.3391  0.1389
  183BOLB   C3A 4375  28.843  20.142  23.651 -0.3582 -0.2009 -0.0131
  183BOLB   C4A 4376  29.015  19.707  23.585 -0.0022 -0.0312  0.1032
  183BOLB   C1B 4377  28.428  20.479  22.930 -0.2609 -0.1534 -0.2689
  183BOLB   C2B 4378  28.689  20.093  22.851  0.0933  0.0130 -0.2519
  183BOLB   C3B 4379  28.610  19.631  22.833  0.0526 -0.1044 -0.1659
  183BOLB   C4B 4380  28.690  19.178  22.689  0.0837  0.0470  0.0953
  183BOLB   NC2 4381  30.320  17.764  23.843 -0.1912  0.2881  0.0912
  183BOLB   PO2 4382  30.277  17.923  24.368  0.1678  0.1225 -0.0170
  183BOLB   GL3 4383  30.023  18.180  24.404 -0.0226 -0.0182  0.1275
  183BOLB   GL4 4384  30.067  18.384  24.665  0.2119  0.4042 -0.1047
  183BOLB   C1C 4385  29.602  18.353  24.169  0.0426  0.3396  0.2317
  183BOLB   C2C 4386  29.476  18.677  23.896 -0.1198 -0.2220  0.3102
  183BOLB   C3C 4387  29.528  19.065  23.848  0.0458 -0.1088 -0.1437
  183BOLB   C4C 4388  29.286  19.482  23.681 -0.0170  0.1554 -0.0814
  183BOLB   C1D 4389  29.649  18.670  24.612 -0.0100 -0.0994  0.3366
  183BOLB   C2D 4390  29.718  19.033  24.359 -0.0701  0.1553 -0.1417
  183BOLB   C3D 4391  30.167  19.121  24.146 -0.0261 -0.0292  0.3465
  183BOLB   C4D 4392  30.559  19.231  23.863  0.1495 -0.0287 -0.0306
  184BOLB   NC1 4393  33.561  28.098  15.800 -0.0768 -0.0086  0.0548
  184BOLB   PO1 4394  33.331  28.390  15.707  0.1327  0.1198 -0.0297
  184BOLB   GL1 4395  33.774  28.470  15.543 -0.0063  0.2930  0.1208
  184BOLB   GL2 4396  33.893  28.826  15.578 -0.3821  0.1924  0.0287
  184BOLB   C1A 4397  34.228  28.479  15.344  0.1098  0.1845 -0.1524
  184BOLB   C2A 4398  34.735  28.540  15.349  0.2512 -0.4746 -0.3010
  184BOLB   C3A 4399  35.165  28.288  15.460 -0.2948 -0.2059  0.2525
  184BOLB   C4A 4400  35.640  28.004  15.373  0.0417 -0.2221 -0.0147
  184BOLB   C1B 4401  33.955  28.849  15.175 -0.1462 -0.2732  0.0913
  184BOLB   C2B 4402  34.129  28.845  14.831  0.2283 -0.2889 -0.0255
  184BOLB   C3B 4403  34.438  29.160  14.750 -0.3452  0.2429  0.1967
  184BOLB   C4B 4404  34.614  29.475  14.927 -0.0943 -0.1488 -0.0173
  184BOLB   NC2 4405  36.914  26.232  14.433  0.0241 -0.0571  0.0463
  184BOLB   PO2 4406  36.977  26.659  14.458  0.0705 -0.1886  0.0297
  184BOLB   GL3 4407  36.665  26.629  14.695  0.0170 -0.1121 -0.1122
  184BOLB   GL4 4408  36.395  26.435  14.627 -0.0160  0.1484 -0.1291
  184BOLB   C1C 4409  36.357  26.692  15.032  0.1279 -0.3399  0.3383
  184BOLB   C2C 4410  36.109  26.922  15.230  0.0727 -0.1079  0.0467
  184BOLB   C3C 4411  35.904  27.238  15.493 -0.1787  0.0815  0.2074
  184BOLB   C4C 4412  35.828  27.609  15.373 -0.1859  0.0069 -0.1860
  184BOLB   C1D 4413  36.019  26.420  14.768  0.0302 -0.1607  0.2453
  184BOLB   C2D 4414  35.577  26.303  14.850  0.1148  0.5354  0.2802
  184BOLB   C3D 4415  35.186  26.165  14.870  0.0684 -0.0490  0.1077
  184BOLB   C4D 4416  34.777  25.951  14.586  0.2030 -0.1351  0.1059
  185BOLB   NC1 4417  18.301  20.064   1.350 -0.0188  0.0969 -0.1293
  185BOLB   PO1 4418  18.261  20.537   1.555 -0.0906 -0.1870 -0.1105
  185BOLB   GL1 4419  18.603  20.554   1.259  0.1782  0.1007  0.1641
  185BOLB   GL2 4420  18.955  20.464   1.220  0.2829  0.0931 -0.0941
  185BOLB   C1A 4421  18.697  20.512   0.784  0.3334 -0.1295 -0.2101
  185BOLB   C2A 4422  18.957  20.391   0.354 -0.0892  0.2789  0.0852
  185BOLB   C3A 4423  19.154  20.521  26.903  0.1495 -0.0413  0.3387
  185BOLB   C4A 4424  19.103  20.551  26.496  0.0574  0.0206  0.2451
  185BOLB   C1B 4425  19.175  20.610   0.881 -0.0254  0.0379 -0.0990
  185BOLB   C2B 4426  19.507  20.937   0.910  0.2777  0.2765 -0.2925
  185BOLB   C3B 4427  19.630  21.310   0.845 -0.3573 -0.1109 -0.1201
  185BOLB   C4B 4428  19.458  21.780   0.886  0.1902 -0.0905  0.0988
  185BOLB   NC2 4429  18.054  18.739  25.540 -0.1835 -0.0902  0.1244
  185BOLB   PO2 4430  17.877  19.185  25.715 -0.4668 -0.1006 -0.2655
  185BOLB   GL3 4431  18.289  19.243  25.470 -0.0564 -0.0268  0.5737
  185BOLB   GL4 4432  18.481  19.234  25.755 -0.0780 -0.1823  0.0157
  185BOLB   C1C 4433  18.515  19.614  25.360 -0.0415 -0.1405 -0.2908
  185BOLB   C2C 4434  18.855  19.792  25.642  0.1721 -0.2255  0.1981
  185BOLB   C3C 4435  18.940  20.229  25.808  0.1214 -0.2051 -0.2619
  185BOLB   C4C 4436  19.131  20.475  26.114 -0.2024 -0.1839  0.1458
  185BOLB   C1D 4437  18.833  19.329  25.533  0.1742  0.0345  0.0958
  185BOLB   C2D 4438  19.113  19.344  25.188  0.0618 -0.2067 -0.2805
  185BOLB   C3D 4439  19.284  19.324  24.838  0.0437  0.2670 -0.2425
  185BOLB   C4D 4440  19.378  19.430  24.435 -0.0002  0.1641 -0.0205
  186BOLB   NC1 4441  32.356  23.496  12.684 -0.1609 -0.3180 -0.0086
  186BOLB   PO1 4442  32.804  23.656  12.915  0.1605 -0.0830 -0.1245
  186BOLB   GL1 4443  32.481  23.954  12.860 -0.2496  0.0737 -0.1593
  186BOLB   GL2 4444  32.356  23.825  13.106 -0.1006 -0.0283 -0.0508
  186BOLB   C1A 4445  32.042  24.264  13.026 -0.0564  0.0822  0.0527
  186BOLB   C2A 4446  31.763  24.177  13.383 -0.0148  0.0342 -0.2755
  186BOLB   C3A 4447  31.362  24.224  13.323  0.0371  0.4173 -0.2080
  186BOLB   C4A 4448  31.009  24.169  13.549  0.1635  0.0733  0.2741
  186BOLB   C1B 4449  31.907  23.740  13.123  0.2432 -0.0303 -0.1648
  186BOLB   C2B 4450  31.572  23.406  13.066 -0.2007 -0.0576  0.1804
  186BOLB   C3B 4451  31.164  23.262  13.204  0.1262  0.0392 -0.1825
  186BOLB   C4B 4452  30.723  23.200  13.409 -0.0408 -0.3634 -0.0235
  186BOLB   NC2 4453  30.798  22.265  12.292  0.1055 -0.1786  0.2208
  186BOLB   PO2 4454  30.993  22.205  12.779 -0.1699 -0.0239  0.0066
  186BOLB   GL3 4455  30.813  22.596  12.922  0.2575  0.1780  0.1483
  186BOLB   GL4 4456  30.937  22.640  13.203  0.2229 -0.0678 -0.0335
  186BOLB   C1C 4457  30.730  23.023  12.880 -0.1267  0.1772 -0.0162
  186BOLB   C2C 4458  30.635  23.404  12.962 -0.0133 -0.2008  0.2645
  186BOLB   C3C 4459  30.417  23.711  13.214 -0.3082  0.2073  0.3501
  186BOLB   C4C 4460  30.512  24.117  13.499  0.2111  0.2088  0.0513
  186BOLB   C1D 4461  30.944  22.848  13.635  0.1627 -0.1158 -0.4165
  186BOLB   C2D 4462  31.123  23.049  14.126 -0.0175  0.1138 -0.1684
  186BOLB   C3D 4463  31.564  23.181  14.204 -0.1999  0.2411  0.2465
  186BOLB   C4D 4464  32.033  23.234  14.387 -0.0023 -0.1084  0.0465
  187BOLB   NC1 4465  25.248  37.792  20.759 -0.2236 -0.0706 -0.0284
  187BOLB   PO1 4466  25.025  38.098  20.540 -0.2127  0.0648 -0.0198
  187BOLB   GL1 4467  24.912  38.449  20.583 -0.2022 -0.0549  0.2513
  187BOLB   GL2 4468  25.235  38.593  20.496  0.0887  0.0714  0.1449
  187BOLB   C1A 4469  24.847  38.945  20.513  0.1288 -0.0713 -0.0775
  187BOLB   C2A 4470  24.796  39.325  20.321  0.0029  0.0476 -0.1296
  187BOLB   C3A 4471  24.566  39.703  20.424 -0.3796  0.0108 -0.4170
  187BOLB   C4A 4472  24.434  39.786  20.850  0.3967  0.1127 -0.1983
  187BOLB   C1B 4473  25.275  38.875  20.206  0.2509  0.0494  0.0067
  187BOLB   C2B 4474  25.668  39.190  20.056  0.2184 -0.0732 -0.3058
  187BOLB   C3B 4475  25.960  39.383  20.293 -0.1566 -0.1778 -0.1424
  187BOLB   C4B 4476  26.156  39.093  20.496  0.1107 -0.2155 -0.0284
  187BOLB   NC2 4477  22.361  40.780  19.868  0.4600 -0.0784  0.1734
  187BOLB   PO2 4478  22.158  40.600  20.179  0.0551 -0.1645 -0.1202
  187BOLB   GL3 4479  22.494  40.482  20.289 -0.1476 -0.0797  0.2779
  187BOLB   GL4 4480  22.569  40.540  20.624 -0.2659 -0.0205  0.2655
  187BOLB   C1C 4481  22.907  40.405  20.214  0.2026  0.0163 -0.2289
  187BOLB   C2C 4482  23.293  40.228  20.466 -0.0786  0.1277  0.0660
  187BOLB   C3C 4483  23.729  40.211  20.684 -0.1763  0.1741  0.2376
  187BOLB   C4C 4484  23.995  39.919  20.935  0.2063  0.3246 -0.1882
  187BOLB   C1D 4485  22.854  40.183  20.629 -0.1407  0.0184  0.2611
  187BOLB   C2D 4486  22.997  39.720  20.617 -0.1300 -0.2094 -0.5757
  187BOLB   C3D 4487  23.122  39.319  20.703 -0.1128  0.1131  0.0244
  187BOLB   C4D 4488  23.274  38.936  20.367  0.0275 -0.1990  0.1107
  188BOLB   NC1 4489  30.012  24.631   6.222  0.2655  0.1012 -0.0460
  188BOLB   PO1 4490  29.952  24.331   6.320 -0.2623  0.1353  0.3228
  188BOLB   GL1 4491  29.703  24.268   5.980  0.1097  0.4067  0.4030
  188BOLB   GL2 4492  29.862  24.250   5.597 -0.1588  0.3925 -0.1826
  188BOLB   C1A 4493  29.337  24.408   5.716  0.3101 -0.1037 -0.1602
  188BOLB   C2A 4494  29.290  24.594   5.257  0.0500 -0.0848 -0.2113
  188BOLB   C3A 4495  29.320  24.492   4.786 -0.0541  0.0980  0.0800
  188BOLB   C4A 4496  29.575  24.382   4.445 -0.0793  0.1106  0.1732
  188BOLB   C1B 4497  29.779  24.691   5.588  0.0757  0.0978 -0.0092
  188BOLB   C2B 4498  29.470  25.024   5.474  0.1540 -0.0275  0.0992
  188BOLB   C3B 4499  28.957  25.037   5.350  0.0389 -0.1467 -0.1380
  188BOLB   C4B 4500  28.553  25.070   5.303  0.0471 -0.0735 -0.1512
  188BOLB   NC2 4501  30.411  22.740   5.749 -0.1167  0.1239  0.0637
  188BOLB   PO2 4502  30.581  22.868   5.469  0.1044 -0.0619 -0.0558
  188BOLB   GL3 4503  30.265  23.102   5.189  0.0577  0.1184  0.0304
  188BOLB   GL4 4504  29.972  23.229   5.271  0.3800 -0.0601  0.0495
  188BOLB   C1C 4505  30.023  23.264   4.778 -0.0679 -0.0696 -0.2313
  188BOLB   C2C 4506  29.941  23.663   4.516 -0.2393  0.0037  0.0735
  188BOLB   C3C 4507  29.985  23.986   4.131  0.0905  0.1474 -0.0070
  188BOLB   C4C 4508  29.729  24.345   4.066 -0.0112  0.0803  0.0407
  188BOLB   C1D 4509  29.925  22.792   4.983  0.2787 -0.1476 -0.1778
  188BOLB   C2D 4510  29.926  22.567   4.694 -0.0753  0.1422 -0.0114
  188BOLB   C3D 4511  29.598  22.179   4.558 -0.2909 -0.0739 -0.2077
  188BOLB   C4D 4512  29.137  22.192   4.422 -0.0540 -0.0035 -0.1849
  189BOLB   NC1 4513  32.179  27.332  15.084  0.2156  0.1180 -0.5983
  189BOLB   PO1 4514  31.805  27.404  14.992 -0.2690 -0.1330  0.2042
  189BOLB   GL1 4515  32.072  27.465  14.569 -0.2417  0.1472  0.0339
  189BOLB   GL2 4516  31.936  27.693  14.468 -0.2196 -0.0588 -0.0419
  189BOLB   C1A 4517  32.388  27.378  14.271  0.1193  0.0722 -0.1463
  189BOLB   C2A 4518  32.602  27.050  14.256 -0.3559 -0.5302  0.0688
  189BOLB   C3A 4519  32.497  26.661  14.218  0.0641  0.2791  0.0151
  189BOLB   C4A 4520  32.774  26.398  13.954 -0.2729  0.0947  0.0136
  189BOLB   C1B 4521  32.019  27.788  14.147 -0.0196  0.2537  0.1216
  189BOLB   C2B 4522  32.380  27.832  13.955  0.2268 -0.0649 -0.0216
  189BOLB   C3B 4523  32.778  27.869  14.070 -0.2251 -0.1056 -0.3798
  189BOLB   C4B 4524  32.936  27.979  14.453 -0.0395  0.0810 -0.2972
  189BOLB   NC2 4525  33.639  26.420  11.865 -0.1543 -0.0060 -0.0798
  189BOLB   PO2 4526  33.454  25.962  11.857 -0.1901 -0.0211 -0.0444
  189BOLB   GL3 4527  33.245  26.138  12.092 -0.1510 -0.1875 -0.1123
  189BOLB   GL4 4528  33.211  26.526  12.200 -0.1991  0.1113  0.0242
  189BOLB   C1C 4529  33.008  26.146  12.458  0.0429  0.0254  0.0514
  189BOLB   C2C 4530  32.928  26.508  12.680 -0.1575 -0.1827 -0.0831
  189BOLB   C3C 4531  32.920  26.639  13.095  0.0877  0.1596  0.1703
  189BOLB   C4C 4532  32.980  26.441  13.536  0.4589  0.1875 -0.0354
  189BOLB   C1D 4533  32.950  26.876  12.392 -0.2289  0.0578  0.0091
  189BOLB   C2D 4534  32.938  27.083  12.687  0.0942  0.0368  0.0034
  189BOLB   C3D 4535  32.596  27.397  12.770  0.1022 -0.0568 -0.0996
  189BOLB   C4D 4536  32.301  27.713  12.859 -0.2242 -0.1668  0.1752
  190BOLB   NC1 4537  28.726  34.032  14.771  0.3219 -0.2190  0.0277
  190BOLB   PO1 4538  28.422  33.755  14.690 -0.4053  0.0354  0.0084
  190BOLB   GL1 4539  28.413  34.039  14.315 -0.1433  0.0591 -0.2627
  190BOLB   GL2 4540  28.649  34.269  14.306  0.2130  0.0853 -0.2999
  190BOLB   C1A 4541  28.379  34.360  13.909 -0.4221  0.1565  0.1197
  190BOLB   C2A 4542  28.244  34.446  13.493  0.0802 -0.1325 -0.2305
  190BOLB   C3A 4543  28.173  34.484  13.056  0.0996 -0.0992  0.1217
  190BOLB   C4A 4544  27.957  34.778  12.807 -0.0341  0.0505 -0.1997
  190BOLB   C1B 4545  28.812  34.059  13.978  0.2211 -0.0793  0.0240
  190BOLB   C2B 4546  28.849  34.045  13.552 -0.1013  0.0734 -0.0946
  190BOLB   C3B 4547  28.759  34.301  13.261  0.0211 -0.2876  0.0243
  190BOLB   C4B 4548  29.049  34.591  13.067  0.1654  0.0327  0.1342
  190BOLB   NC2 4549  27.474  35.630  10.521 -0.0778  0.3529 -0.2790
  190BOLB   PO2 4550  27.693  35.416  10.728  0.0131 -0.1571  0.0414
  190BOLB   GL3 4551  27.454  35.214  11.075  0.2027  0.2656 -0.2961
  190BOLB   GL4 4552  27.603  35.383  11.289  0.2136  0.0918  0.0239
  190BOLB   C1C 4553  27.238  35.041  11.453 -0.1340 -0.0234  0.0265
  190BOLB   C2C 4554  27.180  35.014  11.950 -0.1102 -0.0861  0.2368
  190BOLB   C3C 4555  27.468  35.190  12.245  0.0416 -0.2195  0.1372
  190BOLB   C4C 4556  27.777  35.100  12.626  0.1150 -0.1191 -0.1799
  190BOLB   C1D 4557  27.964  35.444  11.577 -0.2506  0.0490 -0.3224
  190BOLB   C2D 4558  27.943  35.353  12.028  0.0642  0.1460 -0.1064
  190BOLB   C3D 4559  28.157  35.019  12.223 -0.1314 -0.6315 -0.1812
  190BOLB   C4D 4560  28.330  34.632  12.268 -0.0188 -0.1326  0.0010
  191BOLB   NC1 4561  35.867  29.164  22.025  0.1111 -0.2470  0.0250
  191BOLB   PO1 4562  35.626  28.869  21.860 -0.2405  0.0614 -0.1158
  191BOLB   GL1 4563  36.115  28.895  21.671 -0.0199 -0.1222  0.1332
  191BOLB   GL2 4564  36.380  29.023  21.872 -0.0503 -0.2741  0.0513
  191BOLB   C1A 4565  36.483  28.680  21.485 -0.0892  0.2953 -0.1262
  191BOLB   C2A 4566  36.902  28.581  21.377 -0.0537 -0.3510 -0.1066
  191BOLB   C3A 4567  37.127  28.215  21.215 -0.1773 -0.0270  0.0057
  191BOLB   C4A 4568  37.498  28.059  20.995  0.1075 -0.1987 -0.3664
  191BOLB   C1B 4569  36.801  29.001  21.711  0.1797  0.1533 -0.1326
  191BOLB   C2B 4570  37.193  28.945  21.508 -0.0013  0.1320 -0.2895
  191BOLB   C3B 4571  37.449  28.511  21.408 -0.0734  0.1665 -0.0241
  191BOLB   C4B 4572  37.906  28.339  21.232  0.0508  0.1030  0.3296
  191BOLB   NC2 4573  39.684  27.520  19.551  0.0631 -0.0794  0.5013
  191BOLB   PO2 4574  39.323  27.806  19.492  0.0992  0.2962  0.1281
  191BOLB   GL3 4575  39.000  27.943  19.705 -0.0045 -0.1184 -0.2474
  191BOLB   GL4 4576  38.915  28.085  19.362  0.3068  0.0468  0.3247
  191BOLB   C1C 4577  38.845  27.941  20.005  0.2791 -0.2779  0.0187
  191BOLB   C2C 4578  38.570  28.136  20.224  0.0307 -0.0763 -0.1866
  191BOLB   C3C 4579  38.160  28.155  20.464  0.0073 -0.0511 -0.0204
  191BOLB   C4C 4580  37.725  28.104  20.599 -0.1399 -0.1155 -0.3557
  191BOLB   C1D 4581  38.594  28.334  19.555 -0.0812  0.0675 -0.0769
  191BOLB   C2D 4582  38.238  28.523  19.605  0.0153 -0.0551  0.2428
  191BOLB   C3D 4583  37.826  28.556  19.797  0.1618 -0.2080 -0.0148
  191BOLB   C4D 4584  37.435  28.318  19.753 -0.4794  0.1627 -0.2233
  192BOLB   NC1 4585  20.963  34.739  21.248  0.0707  0.0539 -0.0407
  192BOLB   PO1 4586  20.940  34.642  21.699  0.0765 -0.2734  0.1595
  192BOLB   GL1 4587  20.747  34.990  21.807 -0.0863 -0.1489  0.2441
  192BOLB   GL2 4588  20.612  35.042  21.505 -0.0030 -0.0798 -0.0762
  192BOLB   C1A 4589  20.296  35.101  21.898 -0.0889  0.0823 -0.2542
  192BOLB   C2A 4590  19.897  35.233  21.848 -0.1411 -0.0690  0.0504
  192BOLB   C3A 4591  19.578  35.332  21.562 -0.0561 -0.1511  0.1377
  192BOLB   C4A 4592  19.378  35.357  21.139  0.0995 -0.3484 -0.1095
  192BOLB   C1B 4593  20.347  35.261  21.387  0.0092 -0.4419  0.2676
  192BOLB   C2B 4594  20.062  35.533  21.450  0.1750  0.2622 -0.0406
  192BOLB   C3B 4595  19.676  35.775  21.310  0.1642 -0.1518  0.0541
  192BOLB   C4B 4596  19.264  36.006  21.218  0.0261 -0.0868 -0.0409
  192BOLB   NC2 4597  17.716  36.843  22.629 -0.1829 -0.0821 -0.2600
  192BOLB   PO2 4598  17.718  37.083  22.198  0.1551  0.4916 -0.0925
  192BOLB   GL3 4599  18.037  36.945  21.778 -0.0680  0.3810 -0.1781
  192BOLB   GL4 4600  18.177  36.831  21.915 -0.1223  0.0789  0.2059
  192BOLB   C1C 4601  18.220  36.503  21.524 -0.2099  0.1376 -0.2980
  192BOLB   C2C 4602  18.483  36.267  21.447  0.0464  0.0071 -0.1886
  192BOLB   C3C 4603  18.748  35.847  21.419 -0.1100 -0.0385 -0.0796
  192BOLB   C4C 4604  18.993  35.624  21.085  0.0990 -0.2194  0.0766
  192BOLB   C1D 4605  18.421  36.932  22.369  0.0963 -0.1547  0.2692
  192BOLB   C2D 4606  18.778  37.003  22.547 -0.0549  0.0299  0.0339
  192BOLB   C3D 4607  19.127  36.938  22.819 -0.2766  0.0540  0.0867
  192BOLB   C4D 4608  19.549  36.926  22.838 -0.0547 -0.1230 -0.0491
  193BOLB   NC1 4609  20.684  27.492  17.534 -0.1559 -0.0309  0.2053
  193BOLB   PO1 4610  20.798  27.199  17.263  0.0456 -0.0541 -0.1381
  193BOLB   GL1 4611  20.299  27.132  17.239 -0.0494  0.0888 -0.1192
  193BOLB   GL2 4612  20.078  27.274  17.340  0.0170 -0.0108  0.1064
  193BOLB   C1A 4613  20.079  27.383  16.831  0.1175  0.2364  0.2859
  193BOLB   C2A 4614  19.996  27.202  16.409  0.0275  0.3177 -0.1062
  193BOLB   C3A 4615  19.821  26.794  16.302  0.0855  0.0002 -0.2390
  193BOLB   C4A 4616  19.984  26.335  16.065 -0.1904 -0.1076 -0.0488
  193BOLB   C1B 4617  19.557  27.264  17.296  0.2371  0.0267  0.2413
  193BOLB   C2B 4618  19.124  27.110  17.282 -0.0742  0.3962 -0.0087
  193BOLB   C3B 4619  18.703  27.067  17.308 -0.3470 -0.0142 -0.0778
  193BOLB   C4B 4620  18.261  27.138  17.369 -0.3732 -0.5166  0.1536
  193BOLB   NC2 4621  18.962  25.062  14.557  0.1031 -0.0306  0.0354
  193BOLB   PO2 4622  19.125  24.587  14.399 -0.2467 -0.0629  0.0386
  193BOLB   GL3 4623  19.343  24.858  14.729 -0.1587  0.1772  0.0615
  193BOLB   GL4 4624  19.485  25.274  14.743 -0.1321  0.1355  0.2645
  193BOLB   C1C 4625  19.559  24.960  15.084  0.0728  0.2121  0.1433
  193BOLB   C2C 4626  19.653  25.333  15.391 -0.1226  0.2096 -0.0389
  193BOLB   C3C 4627  19.767  25.642  15.600  0.3551 -0.3056  0.0144
  193BOLB   C4C 4628  19.794  26.017  15.854  0.1796 -0.0412  0.2311
  193BOLB   C1D 4629  19.897  25.398  14.950  0.2520  0.0764  0.0568
  193BOLB   C2D 4630  20.121  25.444  15.283 -0.2745 -0.2592  0.0530
  193BOLB   C3D 4631  20.342  25.407  15.722 -0.0595  0.2974 -0.3986
  193BOLB   C4D 4632  20.481  25.184  15.950 -0.1425 -0.1592 -0.0991
  194BOLB   NC1 4633  29.419  38.021  21.236 -0.3729  0.0432 -0.1277
  194BOLB   PO1 4634  29.760  37.957  21.505  0.2931  0.2496  0.1157
  194BOLB   GL1 4635  29.850  38.335  21.314 -0.1421 -0.0485  0.0381
  194BOLB   GL2 4636  29.656  38.395  21.048 -0.0709  0.2386  0.0972
  194BOLB   C1A 4637  30.132  38.710  21.119 -0.1018 -0.2611  0.0873
  194BOLB   C2A 4638  30.231  39.224  21.121  0.2102 -0.1443 -0.0335
  194BOLB   C3A 4639  30.202  39.652  20.928 -0.1209  0.1714 -0.1522
  194BOLB   C4A 4640  30.071  40.069  20.728 -0.0152  0.1504  0.1696
  194BOLB   C1B 4641  29.659  38.775  21.318 -0.1206  0.0871  0.0538
  194BOLB   C2B 4642  29.759  39.171  21.351 -0.1380  0.0400  0.1897
  194BOLB   C3B 4643  29.780  39.505  21.112  0.4297  0.2975  0.0454
  194BOLB   C4B 4644  29.571  39.831  20.970 -0.2341  0.1817 -0.2517
  194BOLB   NC2 4645  30.259  41.704  19.631 -0.0326  0.1058  0.0100
  194BOLB   PO2 4646  30.115  41.834  19.251  0.1103 -0.0207  0.2156
  194BOLB   GL3 4647  30.252  41.423  19.225 -0.0686  0.1001  0.2885
  194BOLB   GL4 4648  30.281  41.181  18.919  0.3261  0.0871 -0.0011
  194BOLB   C1C 4649  30.331  41.036  19.417  0.0653 -0.0223  0.2319
  194BOLB   C2C 4650  30.351  41.014  19.897 -0.0050 -0.1295 -0.1182
  194BOLB   C3C 4651  30.141  40.751  20.107 -0.0113 -0.0627 -0.1030
  194BOLB   C4C 4652  30.011  40.369  20.374 -0.3313  0.0991  0.0614
  194BOLB   C1D 4653  30.121  40.858  18.818 -0.2388 -0.1544 -0.3542
  194BOLB   C2D 4654  29.974  40.429  18.893  0.0286 -0.1023  0.2657
  194BOLB   C3D 4655  29.667  40.257  19.173 -0.3886 -0.1306  0.0816
  194BOLB   C4D 4656  29.617  40.049  19.504 -0.0389  0.3632 -0.2351
  195BOLB   NC1 4657  23.694  24.474  16.374 -0.0465  0.0637 -0.2651
  195BOLB   PO1 4658  24.116  24.153  16.392 -0.0651  0.1195 -0.1919
  195BOLB   GL1 4659  23.776  23.950  16.287  0.2760 -0.2090 -0.2062
  195BOLB   GL2 4660  23.471  24.158  16.136  0.2257  0.0691 -0.1944
  195BOLB   C1A 4661  23.710  23.416  16.222 -0.0185 -0.0549  0.0781
  195BOLB   C2A 4662  23.461  23.134  16.305  0.0873  0.1265 -0.1185
  195BOLB   C3A 4663  23.408  22.716  16.337 -0.1730 -0.2285 -0.2144
  195BOLB   C4A 4664  23.174  22.525  15.998  0.0763 -0.4011 -0.0544
  195BOLB   C1B 4665  23.416  23.779  15.996 -0.0704 -0.0688 -0.0381
  195BOLB   C2B 4666  23.161  23.510  15.750  0.0080  0.1058  0.1555
  195BOLB   C3B 4667  23.168  23.144  15.798  0.0282  0.0927  0.0689
  195BOLB   C4B 4668  23.498  22.830  15.851 -0.0683  0.1657 -0.0436
  195BOLB   NC2 4669  21.947  21.755  13.998  0.0867 -0.0934  0.1707
  195BOLB   PO2 4670  22.350  21.803  13.748  0.2270 -0.1622  0.1920
  195BOLB   GL3 4671  22.549  21.875  14.113 -0.0448 -0.0018 -0.1637
  195BOLB   GL4 4672  22.353  21.961  14.268  0.0575 -0.1088  0.1671
  195BOLB   C1C 4673  22.704  22.053  14.598  0.1101  0.2933 -0.2208
  195BOLB   C2C 4674  22.548  22.017  15.022 -0.2654  0.3909  0.0880
  195BOLB   C3C 4675  22.620  22.408  15.323  0.2137  0.0734  0.0096
  195BOLB   C4C 4676  22.881  22.648  15.619  0.0787  0.5238 -0.1049
  195BOLB   C1D 4677  22.088  22.035  14.821  0.3489 -0.1266  0.1371
  195BOLB   C2D 4678  22.055  22.136  15.281  0.1854 -0.1018 -0.1564
  195BOLB   C3D 4679  22.150  22.218  15.691 -0.2167  0.0032  0.1518
  195BOLB   C4D 4680  22.453  22.065  15.996  0.0963 -0.0485 -0.0478
  196BOLB   NC1 4681  22.289  22.988  13.402  0.1134 -0.1205 -0.1305
  196BOLB   PO1 4682  22.515  22.605  13.404 -0.0893  0.1103 -0.0386
  196BOLB   GL1 4683  22.641  22.877  13.740  0.0708 -0.0711 -0.2201
  196BOLB   GL2 4684  22.435  22.777  13.956  0.1546 -0.0287 -0.0767
  196BOLB   C1A 4685  22.889  22.986  14.142 -0.0863  0.3680 -0.2658
  196BOLB   C2A 4686  22.995  23.027  14.642 -0.2466  0.0096  0.0952
  196BOLB   C3A 4687  22.563  23.280  14.746  0.3549 -0.5686 -0.0339
  196BOLB   C4A 4688  22.512  23.685  14.947 -0.0801 -0.0069 -0.1973
  196BOLB   C1B 4689  22.512  22.864  14.430  0.0145 -0.1445 -0.0046
  196BOLB   C2B 4690  22.159  22.864  14.745 -0.1007 -0.2504 -0.1330
  196BOLB   C3B 4691  22.086  23.122  15.128 -0.2255 -0.0367  0.2307
  196BOLB   C4B 4692  22.368  23.365  15.236  0.0393  0.1457  0.1199
  196BOLB   NC2 4693  23.575  24.343  17.180  0.0515 -0.1603 -0.0821
  196BOLB   PO2 4694  23.412  24.725  16.983 -0.1408 -0.2709 -0.0937
  196BOLB   GL3 4695  23.290  24.746  16.546 -0.0483  0.3405 -0.1717
  196BOLB   GL4 4696  23.386  25.016  16.368 -0.2003 -0.3884 -0.2404
  196BOLB   C1C 4697  22.921  24.536  16.309  0.0072 -0.1573 -0.1953
  196BOLB   C2C 4698  22.983  24.313  15.913  0.3815  0.0786 -0.1388
  196BOLB   C3C 4699  22.952  24.029  15.654 -0.1263  0.0211  0.0253
  196BOLB   C4C 4700  22.639  23.871  15.255 -0.0232  0.1274  0.1900
  196BOLB   C1D 4701  23.031  24.972  16.100  0.1786  0.3269  0.0148
  196BOLB   C2D 4702  22.743  24.768  15.851  0.0105 -0.2230  0.0389
  196BOLB   C3D 4703  22.547  24.342  15.663 -0.0745 -0.2767 -0.0346
  196BOLB   C4D 4704  22.240  24.202  15.507 -0.0871  0.1466 -0.3113
  197BOLB   NC1 4705  20.805  34.569  23.153  0.0861  0.0240 -0.5450
  197BOLB   PO1 4706  21.033  34.906  23.247  0.1782  0.1436  0.1495
  197BOLB   GL1 4707  20.821  35.217  23.089  0.0034  0.1457 -0.0083
  197BOLB   GL2 4708  20.562  35.125  23.167 -0.0598 -0.0475 -0.1210
  197BOLB   C1A 4709  20.787  35.615  23.094 -0.1449 -0.1446  0.0743
  197BOLB   C2A 4710  20.491  35.871  22.900  0.1258 -0.0243 -0.1381
  197BOLB   C3A 4711  20.183  35.868  22.703  0.0248  0.1733 -0.1992
  197BOLB   C4A 4712  19.942  35.977  22.448 -0.0167 -0.0998  0.3292
  197BOLB   C1B 4713  20.284  35.502  23.255 -0.0662  0.0408 -0.1940
  197BOLB   C2B 4714  19.976  35.782  23.158 -0.0316 -0.1082 -0.0969
  197BOLB   C3B 4715  19.613  36.087  23.206  0.0104  0.0364  0.2436
  197BOLB   C4B 4716  19.552  36.476  23.066 -0.4062 -0.2589  0.0194
  197BOLB   NC2 4717  18.227  37.511  21.236  0.3287  0.0161 -0.3646
  197BOLB   PO2 4718  18.173  37.481  21.583 -0.3318  0.0290  0.0873
  197BOLB   GL3 4719  18.580  37.287  21.539 -0.0234 -0.3494 -0.2290
  197BOLB   GL4 4720  18.707  37.389  21.163  0.0053  0.1305  0.2084
  197BOLB   C1C 4721  18.998  37.047  21.404  0.0171 -0.0988 -0.2845
  197BOLB   C2C 4722  19.193  36.805  21.717 -0.1111 -0.0013 -0.3807
  197BOLB   C3C 4723  19.491  36.469  21.911 -0.0738  0.1369 -0.2206
  197BOLB   C4C 4724  19.880  36.198  22.054  0.0433 -0.2768 -0.2809
  197BOLB   C1D 4725  18.823  36.973  20.942 -0.2026 -0.0012 -0.3075
  197BOLB   C2D 4726  18.879  36.541  20.846  0.2062  0.2506  0.0077
  197BOLB   C3D 4727  19.107  36.179  20.751  0.0140  0.2971  0.0820
  197BOLB   C4D 4728  19.358  35.767  20.808 -0.2769 -0.3767  0.0698
  198BOLB   NC1 4729  30.826  21.022  13.216 -0.0613  0.0415  0.0765
  198BOLB   PO1 4730  30.634  20.710  13.554 -0.2645  0.0108  0.0284
  198BOLB   GL1 4731  30.469  21.074  13.664 -0.1966 -0.2250 -0.1699
  198BOLB   GL2 4732  30.612  21.379  13.541  0.0106 -0.0238  0.0187
  198BOLB   C1A 4733  30.061  21.274  13.786 -0.0850 -0.0227  0.0313
  198BOLB   C2A 4734  29.739  21.475  13.948  0.0404 -0.0722 -0.1106
  198BOLB   C3A 4735  29.458  21.814  14.031 -0.2202  0.1528 -0.2008
  198BOLB   C4A 4736  29.372  22.130  14.262 -0.1760 -0.0458 -0.2230
  198BOLB   C1B 4737  30.445  21.465  13.959 -0.0193 -0.1152  0.0492
  198BOLB   C2B 4738  30.375  21.901  14.045 -0.0812 -0.2245  0.0061
  198BOLB   C3B 4739  30.753  22.197  14.085 -0.0737 -0.1128  0.0508
  198BOLB   C4B 4740  31.005  22.548  14.117 -0.2040  0.2339  0.1842
  198BOLB   NC2 4741  28.583  23.433  15.927  0.1163 -0.2681 -0.1541
  198BOLB   PO2 4742  28.846  23.129  16.203 -0.2227 -0.1005 -0.0616
  198BOLB   GL3 4743  29.254  23.013  15.939  0.2786 -0.1598 -0.1970
  198BOLB   GL4 4744  29.551  23.073  16.091 -0.3196 -0.1045 -0.0412
  198BOLB   C1C 4745  29.196  22.601  15.755  0.1338 -0.0223  0.3075
  198BOLB   C2C 4746  29.018  22.430  15.453 -0.2968 -0.1839  0.3091
  198BOLB   C3C 4747  29.161  22.165  15.104  0.2901 -0.1079 -0.0329
  198BOLB   C4C 4748  29.267  22.289  14.646  0.0020  0.1550  0.1981
  198BOLB   C1D 4749  29.782  22.844  15.929 -0.0016  0.2934  0.1410
  198BOLB   C2D 4750  29.798  22.604  15.524 -0.2082  0.0784  0.1882
  198BOLB   C3D 4751  30.026  22.336  15.235 -0.0398  0.0468 -0.2706
  198BOLB   C4D 4752  30.158  22.032  14.943 -0.4762  0.2076  0.0443
  199BOLB   NC1 4753  33.427  24.365  24.697  0.2830 -0.4096  0.2073
  199BOLB   PO1 4754  33.657  24.830  24.588  0.4019  0.0492  0.1915
  199BOLB   GL1 4755  33.896  24.492  24.706  0.4199  0.0863  0.3740
  199BOLB   GL2 4756  33.922  24.562  25.005  0.2504 -0.3218 -0.1120
  199BOLB   C1A 4757  34.155  24.139  24.885  0.0176  0.2409 -0.2730
  199BOLB   C2A 4758  34.411  23.799  25.038 -0.3032  0.0539 -0.1057
  199BOLB   C3A 4759  34.636  23.502  25.008  0.0934 -0.3855  0.1193
  199BOLB   C4A 4760  35.002  23.272  25.200  0.3217  0.2766 -0.0877
  199BOLB   C1B 4761  34.174  24.421  25.326  0.1312  0.0111  0.2564
  199BOLB   C2B 4762  34.368  24.038  25.482  0.0759  0.0996  0.0220
  199BOLB   C3B 4763  34.725  23.637  25.604 -0.2377 -0.1099 -0.4691
  199BOLB   C4B 4764  34.663  23.155  25.773 -0.0545  0.0230  0.2011
  199BOLB   NC2 4765  36.768  21.957  26.270 -0.1316  0.0265  0.4488
  199BOLB   PO2 4766  36.725  21.929  25.700  0.0312  0.0999  0.0714
  199BOLB   GL3 4767  36.366  22.283  25.616 -0.1584 -0.0796  0.0717
  199BOLB   GL4 4768  36.449  22.467  25.502  0.1885 -0.0906 -0.2373
  199BOLB   C1C 4769  36.069  22.558  25.750  0.1504 -0.2699 -0.0999
  199BOLB   C2C 4770  35.752  22.616  25.561  0.0871  0.1387 -0.1167
  199BOLB   C3C 4771  35.451  22.922  25.600 -0.1760  0.1492 -0.1505
  199BOLB   C4C 4772  35.198  23.190  25.547  0.0652  0.3303 -0.3040
  199BOLB   C1D 4773  36.209  22.663  25.307 -0.4315  0.1970  0.0888
  199BOLB   C2D 4774  35.816  22.782  25.114  0.0182  0.3356  0.0707
  199BOLB   C3D 4775  35.457  23.003  25.022  0.2050  0.0103 -0.1566
  199BOLB   C4D 4776  35.354  23.319  24.697  0.2876 -0.3669 -0.0636
  200BOLB   NC1 4777  30.501  41.626  25.170  0.4189  0.0369  0.0063
  200BOLB   PO1 4778  30.416  41.505  25.645 -0.1117  0.3844  0.0845
  200BOLB   GL1 4779  30.404  41.162  25.425 -0.0843 -0.1173  0.1958
  200BOLB   GL2 4780  30.292  41.236  25.016 -0.2417  0.0437  0.2966
  200BOLB   C1A 4781  30.503  40.746  25.206  0.2060 -0.0807  0.1511
  200BOLB   C2A 4782  30.307  40.333  25.119 -0.3081  0.3655  0.3258
  200BOLB   C3A 4783  30.505  39.946  25.095 -0.0187  0.1004  0.2811
  200BOLB   C4A 4784  30.787  39.603  25.194  0.1735 -0.0885 -0.2209
  200BOLB   C1B 4785  30.164  41.053  24.881 -0.1646 -0.2371 -0.1678
  200BOLB   C2B 4786  30.110  40.700  24.813  0.1451  0.0297  0.3621
  200BOLB   C3B 4787  29.801  40.419  24.536  0.0325 -0.1459 -0.0525
  200BOLB   C4B 4788  29.560  39.994  24.363  0.0781 -0.2267 -0.0850
  200BOLB   NC2 4789  32.634  40.385  26.034 -0.1896 -0.0169  0.1744
  200BOLB   PO2 4790  32.677  40.168  26.363  0.0914  0.1956 -0.0738
  200BOLB   GL3 4791  32.675  39.897  25.974 -0.1401  0.0219  0.1435
  200BOLB   GL4 4792  32.671  39.623  26.162 -0.5692 -0.0958 -0.2155
  200BOLB   C1C 4793  32.285  39.752  25.648 -0.0759  0.2305  0.0052
  200BOLB   C2C 4794  31.903  39.455  25.502  0.2931 -0.1866  0.2515
  200BOLB   C3C 4795  31.507  39.464  25.404 -0.0412 -0.1106 -0.1935
  200BOLB   C4C 4796  31.131  39.505  25.191 -0.1120 -0.2660 -0.0758
  200BOLB   C1D 4797  32.426  39.344  25.999  0.2046  0.1515  0.1890
  200BOLB   C2D 4798  32.505  39.029  25.804 -0.2053 -0.4127 -0.1052
  200BOLB   C3D 4799  32.933  39.070  25.565  0.0739 -0.1506  0.2015
  200BOLB   C4D 4800  33.335  38.800  25.335 -0.0345 -0.0357  0.2186
  201BOLB   NC1 4801  33.276  24.578  20.678 -0.1586 -0.1562 -0.1337
  201BOLB   PO1 4802  33.497  24.196  20.439 -0.1320 -0.2643 -0.1684
  201BOLB   GL1 4803  33.871  23.843  20.470  0.2464 -0.2786 -0.3637
  201BOLB   GL2 4804  34.094  24.037  20.643  0.2180 -0.1566 -0.0387
  201BOLB   C1A 4805  34.160  23.588  20.444  0.0041  0.1695 -0.3585
  201BOLB   C2A 4806  34.411  23.440  20.130 -0.0325  0.0972  0.1825
  201BOLB   C3A 4807  34.745  23.285  20.123 -0.2471  0.1270 -0.2168
  201BOLB   C4A 4808  35.068  22.944  20.123 -0.1262 -0.4384  0.1116
  201BOLB   C1B 4809  34.584  23.908  20.638 -0.1040 -0.0025 -0.0159
  201BOLB   C2B 4810  34.779  23.478  20.608 -0.3434 -0.1452  0.2481
  201BOLB   C3B 4811  34.945  23.229  21.041 -0.0992  0.0247  0.2366
  201BOLB   C4B 4812  35.142  22.990  21.173 -0.1837 -0.0445  0.3143
  201BOLB   NC2 4813  36.950  21.423  18.620  0.5707  0.0014  0.1220
  201BOLB   PO2 4814  36.720  21.728  18.912 -0.1283 -0.0802  0.0858
  201BOLB   GL3 4815  36.425  22.006  19.093  0.2243  0.1560  0.1624
  201BOLB   GL4 4816  36.192  21.995  18.961 -0.1867 -0.0090  0.0622
  201BOLB   C1C 4817  36.357  22.441  19.286  0.3016 -0.1901  0.2285
  201BOLB   C2C 4818  36.033  22.621  19.419  0.1528 -0.0548 -0.0493
  201BOLB   C3C 4819  35.771  22.721  19.673  0.0743 -0.1051  0.4342
  201BOLB   C4C 4820  35.479  22.812  19.958 -0.1212  0.2885 -0.0045
  201BOLB   C1D 4821  35.996  22.084  19.358 -0.2422 -0.0485  0.3484
  201BOLB   C2D 4822  35.623  22.157  19.515  0.0643 -0.0061  0.1123
  201BOLB   C3D 4823  35.218  21.983  19.412 -0.1361  0.1306  0.1991
  201BOLB   C4D 4824  34.840  22.234  19.382  0.0589 -0.0110  0.0081
  202BOLB   NC1 4825  29.678  22.866  17.344  0.0770  0.1182  0.1874
  202BOLB   PO1 4826  29.982  22.614  17.407 -0.1556 -0.1383  0.1196
  202BOLB   GL1 4827  30.390  22.478  17.240  0.0323  0.0029  0.1241
  202BOLB   GL2 4828  30.636  22.372  17.418  0.0896  0.3252 -0.1215
  202BOLB   C1A 4829  30.645  22.431  16.893  0.0178  0.3107  0.1107
  202BOLB   C2A 4830  31.006  22.355  16.758 -0.0510 -0.0502  0.1861
  202BOLB   C3A 4831  31.314  22.522  16.459  0.1156 -0.1486  0.0148
  202BOLB   C4A 4832  31.254  22.533  15.986  0.1887  0.2888  0.4704
  202BOLB   C1B 4833  30.979  22.187  17.341  0.1712  0.1023  0.0674
  202BOLB   C2B 4834  31.172  21.877  17.012 -0.1345 -0.0921  0.2362
  202BOLB   C3B 4835  31.254  21.874  16.632 -0.0777 -0.0028  0.0158
  202BOLB   C4B 4836  31.494  22.047  16.231 -0.0537 -0.1870 -0.2117
  202BOLB   NC2 4837  32.244  20.721  14.793  0.2035 -0.2049 -0.0215
  202BOLB   PO2 4838  32.114  20.542  14.407 -0.1908 -0.1065 -0.2165
  202BOLB   GL3 4839  31.637  20.792  14.607 -0.2147 -0.0765 -0.0244
  202BOLB   GL4 4840  31.423  20.700  14.822 -0.0596 -0.2170 -0.1459
  202BOLB   C1C 4841  31.480  21.207  14.812  0.1244 -0.3238 -0.0568
  202BOLB   C2C 4842  31.559  21.566  15.089  0.0888 -0.5716 -0.1545
  202BOLB   C3C 4843  31.693  21.832  15.335  0.1243  0.0150 -0.0669
  202BOLB   C4C 4844  31.525  22.221  15.643 -0.1992 -0.1170  0.1256
  202BOLB   C1D 4845  31.393  20.964  15.231  0.0728  0.0128 -0.3830
  202BOLB   C2D 4846  31.390  21.268  15.420  0.0732 -0.1787  0.1892
  202BOLB   C3D 4847  31.337  21.605  15.656 -0.0424 -0.1243 -0.3376
  202BOLB   C4D 4848  31.070  22.023  15.647 -0.1501 -0.2509  0.0994
  203BOLB   NC1 4849  34.513  25.428  12.540 -0.1645  0.0167  0.1221
  203BOLB   PO1 4850  34.878  25.374  12.790  0.1103  0.0394  0.2670
  203BOLB   GL1 4851  34.535  25.593  13.126 -0.0035 -0.1350  0.0883
  203BOLB   GL2 4852  34.591  25.964  13.213  0.2911  0.3067  0.1222
  203BOLB   C1A 4853  34.577  25.532  13.562  0.0665  0.0134 -0.0468
  203BOLB   C2A 4854  34.682  25.552  14.020  0.0597 -0.0860 -0.1075
  203BOLB   C3A 4855  34.444  25.578  14.385  0.0864 -0.2991 -0.0129
  203BOLB   C4A 4856  34.094  25.675  14.601 -0.0178 -0.1260 -0.3263
  203BOLB   C1B 4857  34.647  26.416  13.385  0.3135  0.0238  0.0056
  203BOLB   C2B 4858  34.424  26.442  13.765 -0.0108 -0.1269  0.0406
  203BOLB   C3B 4859  34.046  26.536  13.942 -0.0606  0.2094  0.0989
  203BOLB   C4B 4860  33.869  26.227  14.383  0.3528 -0.3544 -0.1459
  203BOLB   NC2 4861  31.350  26.087  15.320 -0.1262 -0.0823  0.0296
  203BOLB   PO2 4862  31.771  25.998  15.396  0.1692  0.1368 -0.3479
  203BOLB   GL3 4863  31.994  26.008  15.028 -0.2306 -0.0764  0.3041
  203BOLB   GL4 4864  32.084  25.650  15.102  0.4011 -0.0191 -0.1551
  203BOLB   C1C 4865  32.447  25.975  14.902 -0.0310 -0.0277  0.3191
  203BOLB   C2C 4866  32.860  25.954  14.741 -0.1509 -0.3395  0.2493
  203BOLB   C3C 4867  33.272  25.836  14.763 -0.1407 -0.1103  0.2487
  203BOLB   C4C 4868  33.710  25.696  14.666 -0.0710 -0.0048  0.0087
  203BOLB   C1D 4869  32.322  25.430  14.809  0.0956  0.0467  0.2749
  203BOLB   C2D 4870  32.616  25.398  14.452 -0.1276  0.1241 -0.1204
  203BOLB   C3D 4871  32.618  25.410  14.072  0.0665 -0.1298  0.1469
  203BOLB   C4D 4872  32.185  25.597  13.681 -0.2208  0.1891 -0.0668
  204BOLB   NC1 4873  33.947  25.985  23.844  0.0842  0.3296 -0.0009
  204BOLB   PO1 4874  34.406  25.852  23.918 -0.2953  0.1495  0.1330
  204BOLB   GL1 4875  34.878  25.671  23.748  0.0699 -0.1653 -0.2091
  204BOLB   GL2 4876  35.164  25.890  23.633  0.0479 -0.0022  0.0460
  204BOLB   C1A 4877  35.285  25.471  23.855  0.2038  0.0155 -0.0357
  204BOLB   C2A 4878  35.768  25.407  23.819  0.1330 -0.2905 -0.3690
  204BOLB   C3A 4879  36.180  25.225  23.871 -0.2290  0.1740  0.4924
  204BOLB   C4A 4880  36.554  25.061  23.908  0.3142 -0.0652 -0.2840
  204BOLB   C1B 4881  35.513  26.067  23.829  0.0757 -0.0223  0.1181
  204BOLB   C2B 4882  35.955  25.886  23.990  0.2393  0.0744  0.0970
  204BOLB   C3B 4883  36.199  25.704  24.285 -0.0128 -0.0764  0.0447
  204BOLB   C4B 4884  36.442  25.418  24.219 -0.0318  0.0528  0.1492
  204BOLB   NC2 4885  38.968  24.913  22.999  0.1351  0.0592  0.1229
  204BOLB   PO2 4886  38.929  24.562  22.716  0.1245 -0.0712  0.2216
  204BOLB   GL3 4887  38.433  24.658  22.659  0.0202  0.0110  0.1413
  204BOLB   GL4 4888  38.433  24.703  22.184  0.0721 -0.0517 -0.1535
  204BOLB   C1C 4889  37.963  24.883  22.923 -0.2667 -0.0369 -0.1516
  204BOLB   C2C 4890  37.549  25.012  23.131 -0.0200 -0.1425  0.0083
  204BOLB   C3C 4891  37.282  25.028  23.474  0.0141  0.0389  0.2248
  204BOLB   C4C 4892  36.940  24.952  23.773  0.5759  0.0272 -0.0670
  204BOLB   C1D 4893  38.149  24.615  21.909  0.0972 -0.0077  0.1278
  204BOLB   C2D 4894  37.917  24.337  21.722  0.1379  0.1354  0.2135
  204BOLB   C3D 4895  37.588  24.125  21.520 -0.0025  0.3244  0.1551
  204BOLB   C4D 4896  37.343  24.066  21.080 -0.0692 -0.1873 -0.2229
  205BOLB   NC1 4897  28.153  35.237  15.445 -0.4050 -0.0677  0.2736
  205BOLB   PO1 4898  27.861  35.049  15.165 -0.0158  0.0678 -0.1290
  205BOLB   GL1 4899  27.718  35.080  14.792 -0.2339 -0.1937 -0.2373
  205BOLB   GL2 4900  27.885  34.816  14.741  0.1060  0.0665  0.0618
  205BOLB   C1A 4901  27.509  35.301  14.586 -0.1292 -0.1442 -0.0865
  205BOLB   C2A 4902  27.481  35.598  14.235  0.4095  0.1255  0.2106
  205BOLB   C3A 4903  27.585  35.984  14.047  0.2375  0.2592 -0.1450
  205BOLB   C4A 4904  27.863  36.232  13.912 -0.2231  0.1667  0.2195
  205BOLB   C1B 4905  27.905  34.973  14.312 -0.2064 -0.1197  0.1340
  205BOLB   C2B 4906  27.986  35.278  13.978  0.3284 -0.1294  0.0050
  205BOLB   C3B 4907  28.062  35.711  13.911  0.1416  0.3051  0.0043
  205BOLB   C4B 4908  28.352  35.936  13.893  0.2859  0.2374  0.0654
  205BOLB   NC2 4909  28.502  38.059  11.911  0.1049  0.0081  0.4220
  205BOLB   PO2 4910  28.729  37.992  12.262  0.0305 -0.0417 -0.0629
  205BOLB   GL3 4911  28.837  37.890  12.700 -0.0408  0.2356  0.0617
  205BOLB   GL4 4912  29.116  37.737  12.731 -0.0655  0.0944 -0.0903
  205BOLB   C1C 4913  28.606  37.594  13.079  0.1059  0.1899 -0.1604
  205BOLB   C2C 4914  28.446  37.392  13.525  0.2982 -0.4230  0.0502
  205BOLB   C3C 4915  28.135  37.150  13.849 -0.1267  0.1020 -0.0418
  205BOLB   C4C 4916  27.934  36.695  13.906  0.2057  0.2160 -0.1885
  205BOLB   C1D 4917  29.183  37.619  13.146 -0.1252 -0.0984 -0.0278
  205BOLB   C2D 4918  28.931  37.594  13.488  0.0882  0.1809 -0.0659
  205BOLB   C3D 4919  28.701  37.734  13.887 -0.0757  0.0638  0.0321
  205BOLB   C4D 4920  28.430  37.956  14.155 -0.0938  0.1834 -0.0087
  206BOLB   NC1 4921  25.366  40.733  16.084  0.0844  0.0027  0.2693
  206BOLB   PO1 4922  25.375  40.355  15.793 -0.3307 -0.1559 -0.1432
  206BOLB   GL1 4923  25.519  39.872  15.561 -0.1959  0.0432 -0.0156
  206BOLB   GL2 4924  25.655  39.846  15.314  0.0928  0.2220 -0.0167
  206BOLB   C1A 4925  25.558  39.396  15.601 -0.0800 -0.2042 -0.0850
  206BOLB   C2A 4926  25.614  38.925  15.622 -0.1008 -0.1447  0.5067
  206BOLB   C3A 4927  25.596  38.584  15.789 -0.2716 -0.1640 -0.4567
  206BOLB   C4A 4928  25.805  38.238  15.979 -0.0296  0.0139 -0.1037
  206BOLB   C1B 4929  25.649  39.414  15.090 -0.0593 -0.0336  0.1000
  206BOLB   C2B 4930  26.024  39.054  15.130  0.1372 -0.1224  0.3520
  206BOLB   C3B 4931  26.161  38.779  15.384  0.0250  0.0618  0.0540
  206BOLB   C4B 4932  26.295  38.331  15.377  0.0151 -0.2795  0.0605
  206BOLB   NC2 4933  26.175  36.545  17.181 -0.1314  0.2486  0.1671
  206BOLB   PO2 4934  26.674  36.456  17.155 -0.1558 -0.4658 -0.2285
  206BOLB   GL3 4935  26.706  36.842  17.070  0.1289  0.0106 -0.0867
  206BOLB   GL4 4936  26.621  36.881  16.732 -0.0263  0.4235  0.0330
  206BOLB   C1C 4937  26.814  37.289  16.874 -0.0419  0.0327  0.2225
  206BOLB   C2C 4938  26.614  37.685  16.785  0.2557  0.3882  0.1693
  206BOLB   C3C 4939  26.263  37.851  16.617 -0.0678 -0.3662 -0.1079
  206BOLB   C4C 4940  25.977  37.909  16.181  0.3840 -0.1856 -0.0377
  206BOLB   C1D 4941  26.446  37.225  16.543 -0.0014 -0.0466  0.0358
  206BOLB   C2D 4942  26.377  37.549  16.211 -0.2118  0.0091 -0.1318
  206BOLB   C3D 4943  26.761  37.862  16.218  0.0227 -0.0176  0.2395
  206BOLB   C4D 4944  26.916  38.029  16.550 -0.2841  0.2247  0.0517
  207BOLB   NC1 4945  20.602  29.346  17.226 -0.3799  0.0505  0.1874
  207BOLB   PO1 4946  20.845  29.630  17.216  0.0981 -0.1660  0.1120
  207BOLB   GL1 4947  20.687  29.575  16.744  0.1333  0.3070 -0.3381
  207BOLB   GL2 4948  20.761  29.512  16.495 -0.2063  0.1129 -0.0824
  207BOLB   C1A 4949  20.307  29.774  16.582 -0.0776 -0.5144  0.0920
  207BOLB   C2A 4950  20.059  29.748  16.319 -0.0199 -0.0057 -0.0192
  207BOLB   C3A 4951  19.702  29.518  16.045 -0.0738  0.3715 -0.2079
  207BOLB   C4A 4952  19.302  29.228  15.918 -0.1519  0.0175  0.3141
  207BOLB   C1B 4953  20.520  29.478  16.177  0.0347 -0.0520  0.3614
  207BOLB   C2B 4954  20.208  29.659  15.806 -0.0728  0.2274 -0.0224
  207BOLB   C3B 4955  19.770  29.851  15.698 -0.0180 -0.2040 -0.2677
  207BOLB   C4B 4956  19.273  29.746  15.861 -0.3530 -0.0482 -0.0552
  207BOLB   NC2 4957  16.914  28.619  15.402  0.2379  0.3696  0.2010
  207BOLB   PO2 4958  17.169  29.034  15.442  0.1824 -0.0186 -0.2222
  207BOLB   GL3 4959  17.331  28.886  15.694 -0.0443 -0.0811  0.0615
  207BOLB   GL4 4960  17.421  29.032  15.984  0.0283  0.0486 -0.1404
  207BOLB   C1C 4961  17.766  28.803  15.600  0.1839 -0.4777  0.2555
  207BOLB   C2C 4962  18.102  28.885  15.697 -0.3138 -0.4147 -0.1028
  207BOLB   C3C 4963  18.498  29.059  15.645 -0.1751 -0.2968  0.0364
  207BOLB   C4C 4964  18.877  29.034  15.805 -0.1221 -0.1390 -0.0198
  207BOLB   C1D 4965  17.779  29.124  16.212 -0.2599  0.4447 -0.0578
  207BOLB   C2D 4966  18.121  29.385  16.356  0.1266 -0.0366 -0.0152
  207BOLB   C3D 4967  18.447  29.528  16.674  0.0236  0.2258  0.1099
  207BOLB   C4D 4968  18.813  29.465  16.836  0.1602 -0.0582 -0.2817
  208BOLB   NC1 4969  28.584  42.256  22.396  0.0804  0.1506 -0.0675
  208BOLB   PO1 4970  28.924  42.257  22.236  0.1985  0.1024  0.0212
  208BOLB   GL1 4971  29.091  41.979  22.413 -0.0302  0.2614 -0.0963
  208BOLB   GL2 4972  29.170  41.768  22.161 -0.4227  0.0713 -0.1629
  208BOLB   C1A 4973  29.381  41.607  22.516 -0.0119  0.1752 -0.3314
  208BOLB   C2A 4974  29.657  41.354  22.407  0.0642 -0.0409  0.2380
  208BOLB   C3A 4975  29.893  41.168  22.758  0.0988  0.0223 -0.1034
  208BOLB   C4A 4976  30.277  41.010  22.770  0.4067  0.1190  0.1833
  208BOLB   C1B 4977  28.944  41.418  22.409  0.0111 -0.2495 -0.2455
  208BOLB   C2B 4978  28.827  41.067  22.636 -0.0149 -0.0296 -0.0017
  208BOLB   C3B 4979  28.543  40.606  22.591 -0.0781  0.1854  0.0856
  208BOLB   C4B 4980  28.454  40.202  22.282  0.2470  0.0157  0.0962
  208BOLB   NC2 4981  31.348  41.736  21.079  0.0042 -0.0618  0.0226
  208BOLB   PO2 4982  31.237  41.434  21.445 -0.0710 -0.1396 -0.1904
  208BOLB   GL3 4983  31.269  41.018  21.439 -0.1896 -0.0471  0.2498
  208BOLB   GL4 4984  31.174  40.886  21.187 -0.1529 -0.0473 -0.0415
  208BOLB   C1C 4985  31.218  40.712  21.672 -0.0952 -0.1080 -0.1529
  208BOLB   C2C 4986  30.994  40.523  21.979 -0.2037 -0.3413 -0.1516
  208BOLB   C3C 4987  30.847  40.799  22.382 -0.0095  0.1820  0.0983
  208BOLB   C4C 4988  30.559  40.997  22.470  0.1854 -0.3166 -0.0147
  208BOLB   C1D 4989  30.998  40.509  21.321 -0.1851 -0.2637 -0.2627
  208BOLB   C2D 4990  30.735  40.285  21.612  0.2874  0.2468 -0.0100
  208BOLB   C3D 4991  30.627  39.934  21.884 -0.1697  0.1304  0.3083
  208BOLB   C4D 4992  30.859  39.545  21.993  0.2731  0.0798  0.1276
  209BOLB   NC1 4993  30.539  27.537  14.789  0.0542 -0.0467  0.0416
  209BOLB   PO1 4994  30.815  27.316  14.637 -0.3709 -0.2769  0.0690
  209BOLB   GL1 4995  31.147  27.115  14.431  0.0580  0.1856  0.4460
  209BOLB   GL2 4996  31.604  27.250  14.545  0.1051 -0.1993  0.0054
  209BOLB   C1A 4997  31.340  27.044  14.081 -0.0030  0.0191 -0.2439
  209BOLB   C2A 4998  31.569  27.103  13.731 -0.3155 -0.0462 -0.3178
  209BOLB   C3A 4999  31.734  27.223  13.218  0.3221  0.0442 -0.0598
  209BOLB   C4A 5000  31.522  27.223  12.885  0.2501  0.4084 -0.2295
  209BOLB   C1B 5001  31.703  27.397  14.166 -0.2410 -0.0506  0.1827
  209BOLB   C2B 5002  31.927  27.425  13.807 -0.1414  0.2321  0.0565
  209BOLB   C3B 5003  32.473  27.399  13.755  0.1169 -0.1358  0.1230
  209BOLB   C4B 5004  32.775  27.276  13.350  0.3383 -0.0108 -0.1669
  209BOLB   NC2 5005  31.707  26.797  10.364  0.1304 -0.2128  0.0323
  209BOLB   PO2 5006  31.439  27.148  10.471 -0.1003  0.0366 -0.4370
  209BOLB   GL3 5007  31.569  26.922  10.844 -0.4158 -0.0717 -0.2386
  209BOLB   GL4 5008  31.572  26.604  10.832  0.2173  0.1539 -0.1966
  209BOLB   C1C 5009  31.357  27.006  11.194 -0.1883  0.0289 -0.2303
  209BOLB   C2C 5010  31.315  27.063  11.673 -0.1890  0.0082  0.4187
  209BOLB   C3C 5011  31.175  27.218  12.123  0.1720 -0.1875  0.1864
  209BOLB   C4C 5012  31.193  27.225  12.549 -0.1150 -0.1186  0.2365
  209BOLB   C1D 5013  31.580  26.589  11.314  0.4349 -0.1340  0.2839
  209BOLB   C2D 5014  31.291  26.554  11.462 -0.0196 -0.1470 -0.1499
  209BOLB   C3D 5015  31.092  26.560  11.816  0.0728 -0.1907 -0.0049
  209BOLB   C4D 5016  30.735  26.738  12.097  0.1843 -0.0507 -0.0562
  210BOLB   NC1 5017  23.701  36.985  21.700  0.0369  0.2247 -0.0543
  210BOLB   PO1 5018  23.873  37.281  21.865  0.0616  0.2003 -0.0089
  210BOLB   GL1 5019  23.872  37.497  22.242  0.0952  0.0476 -0.1032
  210BOLB   GL2 5020  23.546  37.426  22.337 -0.1782  0.0247 -0.0367
  210BOLB   C1A 5021  23.733  37.915  22.436  0.2049  0.0808  0.0043
  210BOLB   C2A 5022  23.482  38.263  22.548  0.0404  0.1635 -0.2360
  210BOLB   C3A 5023  23.341  38.595  22.253 -0.4799 -0.0710  0.1540
  210BOLB   C4A 5024  23.034  38.701  22.112  0.3428 -0.1671  0.3054
  210BOLB   C1B 5025  23.229  37.726  22.294  0.3456 -0.0393  0.0425
  210BOLB   C2B 5026  23.047  37.981  22.534 -0.2009 -0.0568 -0.1569
  210BOLB   C3B 5027  22.896  38.379  22.511  0.0347  0.1605  0.2036
  210BOLB   C4B 5028  23.024  38.710  22.627 -0.0333  0.0326  0.1273
  210BOLB   NC2 5029  21.695  40.230  22.144  0.1216 -0.1437 -0.1487
  210BOLB   PO2 5030  21.567  40.280  22.643  0.4477  0.2873  0.0056
  210BOLB   GL3 5031  21.508  39.796  22.601 -0.0542 -0.3340 -0.0558
  210BOLB   GL4 5032  21.850  39.832  22.504 -0.2220 -0.2087  0.1621
  210BOLB   C1C 5033  21.474  39.346  22.749  0.1222 -0.1277  0.4262
  210BOLB   C2C 5034  21.848  39.259  22.660 -0.1857  0.2665  0.4574
  210BOLB   C3C 5035  22.236  39.041  22.497 -0.0325  0.1229 -0.0012
  210BOLB   C4C 5036  22.596  38.784  22.414 -0.2088 -0.1834 -0.1229
  210BOLB   C1D 5037  22.198  39.717  22.718 -0.4601 -0.0264  0.3111
  210BOLB   C2D 5038  22.355  39.391  22.924  0.2759 -0.1910 -0.0950
  210BOLB   C3D 5039  22.596  39.016  22.905  0.0045 -0.0687 -0.1037
  210BOLB   C4D 5040  22.769  38.628  23.058 -0.0246  0.1941 -0.1414
  211BOLB   NC1 5041  24.600  36.337  17.294  0.1845 -0.0354  0.1391
  211BOLB   PO1 5042  25.018  36.552  17.278  0.0060 -0.0222  0.4344
  211BOLB   GL1 5043  24.914  36.895  17.168  0.1754 -0.2636 -0.0715
  211BOLB   GL2 5044  25.092  37.039  17.063  0.2184  0.2540 -0.1471
  211BOLB   C1A 5045  24.597  37.144  16.991 -0.1648 -0.0235 -0.0086
  211BOLB   C2A 5046  24.436  37.309  16.560  0.0135  0.0165 -0.2052
  211BOLB   C3A 5047  24.231  37.655  16.330  0.1154  0.1698 -0.2320
  211BOLB   C4A 5048  24.536  38.019  16.264  0.2937 -0.0867  0.4046
  211BOLB   C1B 5049  25.046  37.393  16.878 -0.0899  0.1425 -0.1768
  211BOLB   C2B 5050  25.080  37.938  16.823  0.0743 -0.0380 -0.3092
  211BOLB   C3B 5051  25.335  38.261  16.983 -0.3218 -0.5345  0.1787
  211BOLB   C4B 5052  25.594  38.289  17.320  0.1481  0.2936  0.1476
  211BOLB   NC2 5053  24.687  40.027  15.161  0.1626  0.2987  0.1646
  211BOLB   PO2 5054  24.297  40.101  15.421  0.0835 -0.0624 -0.3707
  211BOLB   GL3 5055  24.275  39.627  15.509 -0.2155 -0.1379 -0.2200
  211BOLB   GL4 5056  24.235  39.657  15.909  0.2004  0.0503  0.0989
  211BOLB   C1C 5057  24.366  39.207  15.641  0.2652 -0.4759 -0.0018
  211BOLB   C2C 5058  24.701  38.953  15.588 -0.2668  0.1218  0.0357
  211BOLB   C3C 5059  25.027  38.596  15.775 -0.0396  0.2680  0.0097
  211BOLB   C4C 5060  24.767  38.262  15.962 -0.1977  0.1196 -0.2673
  211BOLB   C1D 5061  24.561  39.544  16.052  0.0442  0.3298  0.0031
  211BOLB   C2D 5062  24.814  39.205  15.982 -0.3325  0.0519 -0.2545
  211BOLB   C3D 5063  24.768  38.747  16.239  0.2394 -0.0436 -0.1905
  211BOLB   C4D 5064  24.991  38.367  16.456  0.0246  0.2438  0.1731
  212BOLB   NC1 5065  25.878  37.899  21.833 -0.2508  0.0784 -0.2674
  212BOLB   PO1 5066  26.322  38.004  21.643 -0.0558 -0.0581 -0.0264
  212BOLB   GL1 5067  26.272  38.377  21.612  0.0066  0.0777  0.0172
  212BOLB   GL2 5068  26.267  38.496  21.348 -0.0304 -0.3672 -0.2037
  212BOLB   C1A 5069  26.018  38.632  21.747  0.2891  0.0783 -0.0968
  212BOLB   C2A 5070  25.845  38.932  21.941 -0.1011 -0.0226  0.1377
  212BOLB   C3A 5071  25.529  39.288  22.026  0.2841 -0.1072 -0.2938
  212BOLB   C4A 5072  25.529  39.673  21.791 -0.0980 -0.0016  0.0046
  212BOLB   C1B 5073  26.133  38.960  21.412  0.3145 -0.1431  0.0178
  212BOLB   C2B 5074  26.334  39.307  21.168  0.3026 -0.2915  0.3104
  212BOLB   C3B 5075  26.650  39.630  21.164 -0.0257 -0.0120  0.0290
  212BOLB   C4B 5076  27.006  39.705  21.390  0.0930  0.1215  0.0257
  212BOLB   NC2 5077  25.187  42.055  21.976 -0.1915 -0.0074  0.0454
  212BOLB   PO2 5078  25.152  41.941  21.523  0.0616  0.0030  0.0648
  212BOLB   GL3 5079  25.236  41.514  21.529 -0.1161  0.1193 -0.0792
  212BOLB   GL4 5080  25.322  41.423  21.204 -0.0346  0.1172  0.2355
  212BOLB   C1C 5081  25.304  41.098  21.666  0.1077  0.0764 -0.0067
  212BOLB   C2C 5082  25.246  40.741  21.759 -0.1686  0.5894  0.1804
  212BOLB   C3C 5083  25.141  40.341  21.768  0.1624  0.1133 -0.1721
  212BOLB   C4C 5084  25.197  39.940  21.572 -0.4077  0.1311  0.0667
  212BOLB   C1D 5085  25.141  41.035  21.149  0.1005  0.3226  0.0375
  212BOLB   C2D 5086  24.721  40.946  21.003 -0.0774  0.1247  0.1693
  212BOLB   C3D 5087  24.663  40.546  20.917 -0.3075 -0.1523  0.1956
  212BOLB   C4D 5088  24.607  40.203  20.605 -0.2498 -0.0655  0.0746
  213BOLB   NC1 5089  24.892  31.761   2.718  0.2964  0.1822 -0.1679
  213BOLB   PO1 5090  24.833  32.206   2.804  0.1266 -0.1219  0.2631
  213BOLB   GL1 5091  24.537  32.532   2.909  0.2136 -0.0825  0.1724
  213BOLB   GL2 5092  24.182  32.500   3.027 -0.1806  0.0117  0.0950
  213BOLB   C1A 5093  24.387  32.839   3.314  0.2820 -0.0846  0.1238
  213BOLB   C2A 5094  23.995  33.032   3.479  0.2534 -0.1383  0.2757
  213BOLB   C3A 5095  23.817  32.857   3.698  0.1995 -0.2737  0.1806
  213BOLB   C4A 5096  23.549  32.623   3.824  0.1835 -0.1709 -0.0330
  213BOLB   C1B 5097  23.881  32.532   3.329  0.0056 -0.1931  0.1089
  213BOLB   C2B 5098  23.628  32.235   3.498 -0.1033  0.0361 -0.0696
  213BOLB   C3B 5099  23.468  32.144   3.834  0.1014 -0.1781  0.0909
  213BOLB   C4B 5100  23.388  31.965   4.291  0.2317 -0.0183  0.4949
  213BOLB   NC2 5101  21.991  32.361   5.705 -0.1977 -0.2384 -0.1659
  213BOLB   PO2 5102  22.266  32.855   5.798  0.2249 -0.0453 -0.0614
  213BOLB   GL3 5103  22.389  32.663   5.460 -0.1161  0.2886  0.1390
  213BOLB   GL4 5104  22.239  32.408   5.287  0.0291  0.3252 -0.6199
  213BOLB   C1C 5105  22.585  32.970   5.197 -0.0377 -0.1243  0.2034
  213BOLB   C2C 5106  22.646  32.808   4.748 -0.0299  0.0922  0.3211
  213BOLB   C3C 5107  23.021  32.745   4.457  0.1548  0.3127  0.2344
  213BOLB   C4C 5108  23.298  32.559   4.143  0.1469  0.1807 -0.0665
  213BOLB   C1D 5109  22.216  31.918   5.198  0.1553 -0.0582  0.3778
  213BOLB   C2D 5110  22.601  31.637   5.161 -0.2473  0.2847 -0.1123
  213BOLB   C3D 5111  22.831  31.150   5.080  0.2419  0.1452  0.0558
  213BOLB   C4D 5112  23.165  30.886   5.080  0.1163  0.1148 -0.1155
  214BOLB   NC1 5113  25.538  33.502   2.150  0.2110  0.4137 -0.2433
  214BOLB   PO1 5114  25.289  33.429   2.361 -0.1980  0.0668  0.2374
  214BOLB   GL1 5115  25.494  33.445   2.766  0.2867 -0.2263  0.0319
  214BOLB   GL2 5116  25.141  33.591   2.844 -0.3242 -0.1418 -0.0285
  214BOLB   C1A 5117  25.587  33.713   3.012  0.0375  0.1070 -0.1728
  214BOLB   C2A 5118  25.720  33.862   3.379  0.2242 -0.3078 -0.2018
  214BOLB   C3A 5119  25.912  33.866   3.848  0.0643  0.1749  0.1746
  214BOLB   C4A 5120  26.103  34.007   4.071  0.1739 -0.0720 -0.3048
  214BOLB   C1B 5121  24.900  33.785   3.100  0.2743 -0.2181 -0.1004
  214BOLB   C2B 5122  24.727  34.171   3.234 -0.1023  0.0122 -0.4080
  214BOLB   C3B 5123  24.705  34.572   3.252 -0.0718  0.1004  0.3091
  214BOLB   C4B 5124  24.974  34.948   3.414  0.0245 -0.0426 -0.0394
  214BOLB   NC2 5125  25.262  34.381   6.267  0.0356 -0.1136 -0.1001
  214BOLB   PO2 5126  25.502  34.043   6.389 -0.1361  0.1226  0.0685
  214BOLB   GL3 5127  25.600  34.017   5.871  0.2883 -0.0771  0.2615
  214BOLB   GL4 5128  25.481  34.303   5.729 -0.0106  0.3061  0.2253
  214BOLB   C1C 5129  25.520  33.835   5.439  0.1030  0.2868 -0.0545
  214BOLB   C2C 5130  25.757  33.903   5.039 -0.3725 -0.0836 -0.2044
  214BOLB   C3C 5131  26.117  34.189   4.869 -0.1131  0.2893 -0.0304
  214BOLB   C4C 5132  26.224  34.177   4.440 -0.2024  0.0199  0.1928
  214BOLB   C1D 5133  25.672  34.353   5.333  0.2818  0.0434  0.2393
  214BOLB   C2D 5134  25.666  34.384   4.993  0.0880 -0.1423 -0.1709
  214BOLB   C3D 5135  25.416  34.213   4.796 -0.1889  0.0284  0.1135
  214BOLB   C4D 5136  25.332  33.987   4.449  0.4918  0.0014 -0.4108
  215BOLB   NC1 5137  30.035  22.760  20.582  0.0934 -0.1081 -0.0348
  215BOLB   PO1 5138  30.187  22.332  20.452 -0.3527  0.0212 -0.0564
  215BOLB   GL1 5139  30.334  21.922  20.299 -0.2719 -0.0591  0.2433
  215BOLB   GL2 5140  30.729  21.957  20.273  0.2804 -0.2830 -0.2103
  215BOLB   C1A 5141  30.517  21.486  20.154 -0.0543 -0.1875 -0.1502
  215BOLB   C2A 5142  30.683  21.047  20.160  0.1591 -0.1815 -0.3585
  215BOLB   C3A 5143  30.764  20.728  20.308  0.1462 -0.2024  0.0749
  215BOLB   C4A 5144  30.856  20.353  20.558 -0.1642  0.3240  0.0060
  215BOLB   C1B 5145  30.920  21.657  19.910 -0.0913  0.0502  0.1990
  215BOLB   C2B 5146  31.075  21.305  19.933  0.1895  0.1194 -0.0074
  215BOLB   C3B 5147  31.140  20.814  20.012  0.0157  0.0993 -0.3202
  215BOLB   C4B 5148  31.044  20.432  20.077 -0.0142 -0.0292  0.4130
  215BOLB   NC2 5149  31.613  17.722  20.221  0.0825  0.0100  0.1127
  215BOLB   PO2 5150  31.188  17.939  20.473 -0.1008 -0.0764  0.0376
  215BOLB   GL3 5151  31.263  18.360  20.153  0.1225  0.0984 -0.0262
  215BOLB   GL4 5152  31.234  18.288  19.849 -0.1463  0.0015 -0.1678
  215BOLB   C1C 5153  31.187  18.712  20.141  0.2304 -0.0080  0.2287
  215BOLB   C2C 5154  30.947  18.990  20.297 -0.0588 -0.2237 -0.0290
  215BOLB   C3C 5155  30.852  19.483  20.426 -0.1463  0.1571  0.2659
  215BOLB   C4C 5156  30.838  19.928  20.532 -0.3382  0.0936  0.2513
  215BOLB   C1D 5157  31.422  18.738  19.675 -0.0937 -0.1052 -0.0074
  215BOLB   C2D 5158  31.810  18.846  19.460  0.2714 -0.1237 -0.1072
  215BOLB   C3D 5159  31.972  19.258  19.605  0.0259  0.2327 -0.0090
  215BOLB   C4D 5160  32.055  19.638  19.745 -0.0258 -0.0537 -0.3074
  216BOLB   NC1 5161  31.401  31.185  14.476  0.1213 -0.0155 -0.0698
  216BOLB   PO1 5162  31.748  31.376  14.594  0.1060  0.0223 -0.0814
  216BOLB   GL1 5163  32.041  31.510  14.343  0.1812  0.2402 -0.3643
  216BOLB   GL2 5164  32.093  31.873  14.373  0.0300  0.0950  0.1533
  216BOLB   C1A 5165  32.512  31.503  14.185  0.0627 -0.2142 -0.0350
  216BOLB   C2A 5166  32.779  31.466  13.832 -0.2643 -0.3224  0.1540
  216BOLB   C3A 5167  32.879  31.283  13.431  0.2286  0.0372 -0.0628
  216BOLB   C4A 5168  33.081  31.043  13.217 -0.0420  0.0141 -0.1205
  216BOLB   C1B 5169  32.285  31.845  13.843 -0.0451 -0.0711  0.2052
  216BOLB   C2B 5170  32.248  31.454  13.615 -0.0755  0.2549  0.0049
  216BOLB   C3B 5171  31.966  31.136  13.532 -0.0185 -0.1675  0.0003
  216BOLB   C4B 5172  31.457  31.008  13.598 -0.1699 -0.1869  0.2539
  216BOLB   NC2 5173  34.251  30.149  11.085 -0.1234 -0.1842  0.2127
  216BOLB   PO2 5174  33.855  29.897  10.915  0.3629 -0.0968  0.0582
  216BOLB   GL3 5175  33.755  30.007  11.324  0.0766  0.1473 -0.1910
  216BOLB   GL4 5176  33.592  29.747  11.512 -0.1554  0.0913 -0.2350
  216BOLB   C1C 5177  33.720  30.321  11.647  0.0177  0.0247 -0.2682
  216BOLB   C2C 5178  33.461  30.348  12.050 -0.0102 -0.2463 -0.0927
  216BOLB   C3C 5179  33.270  30.640  12.354  0.0661 -0.0016 -0.1659
  216BOLB   C4C 5180  33.254  30.704  12.853  0.0644 -0.0895 -0.1275
  216BOLB   C1D 5181  33.266  29.712  11.795  0.0316 -0.3890  0.0568
  216BOLB   C2D 5182  33.194  29.879  12.136 -0.0056 -0.1890 -0.3594
  216BOLB   C3D 5183  33.115  30.189  12.508 -0.1537 -0.1437 -0.3375
  216BOLB   C4D 5184  32.926  30.060  12.909  0.2809  0.0880 -0.2834
  217BOLB   NC1 5185  26.857  27.230  13.658 -0.4117 -0.2825  0.0473
  217BOLB   PO1 5186  26.438  27.265  13.707 -0.0086  0.0404 -0.0953
  217BOLB   GL1 5187  26.387  27.136  13.311  0.0033 -0.3527 -0.0530
  217BOLB   GL2 5188  26.123  27.067  13.378  0.1853 -0.0003  0.0348
  217BOLB   C1A 5189  26.165  27.186  12.878 -0.2245 -0.2991  0.0024
  217BOLB   C2A 5190  26.216  27.317  12.499 -0.1235  0.0445  0.0810
  217BOLB   C3A 5191  26.093  27.317  12.128 -0.2257  0.2360 -0.2574
  217BOLB   C4A 5192  26.228  27.452  11.764 -0.0257 -0.1514 -0.3299
  217BOLB   C1B 5193  26.152  26.731  13.166 -0.2780 -0.2095  0.1959
  217BOLB   C2B 5194  26.049  26.532  12.803 -0.1605  0.2369  0.0286
  217BOLB   C3B 5195  26.195  26.328  12.402 -0.1153 -0.1730  0.1152
  217BOLB   C4B 5196  25.999  26.049  12.083 -0.0902  0.0181  0.1901
  217BOLB   NC2 5197  25.911  27.004   9.844 -0.3394  0.0978  0.0941
  217BOLB   PO2 5198  26.033  27.429   9.793  0.1102 -0.0120  0.0335
  217BOLB   GL3 5199  26.019  27.786   9.961  0.1847 -0.4547  0.1169
  217BOLB   GL4 5200  26.378  27.697   9.998 -0.1238 -0.1411  0.4598
  217BOLB   C1C 5201  25.814  27.901  10.463  0.2405  0.2766  0.1761
  217BOLB   C2C 5202  25.999  28.140  10.750 -0.1372  0.3420 -0.2462
  217BOLB   C3C 5203  26.234  28.022  11.238 -0.1590  0.1378 -0.1631
  217BOLB   C4C 5204  26.058  27.656  11.496 -0.0112 -0.0287 -0.0615
  217BOLB   C1D 5205  26.288  27.835  10.393 -0.3458 -0.1674  0.1648
  217BOLB   C2D 5206  26.237  27.665  10.802 -0.1306  0.1071  0.1681
  217BOLB   C3D 5207  26.037  27.321  10.868 -0.1059 -0.1730  0.0643
  217BOLB   C4D 5208  26.238  26.963  10.774 -0.4213 -0.0609  0.0841
  218BOLB   NC1 5209  34.151  24.279  21.646  0.2315  0.1918 -0.0361
  218BOLB   PO1 5210  33.918  23.877  21.888 -0.1563  0.0215  0.2096
  218BOLB   GL1 5211  34.168  23.474  21.837  0.0255  0.1957  0.1388
  218BOLB   GL2 5212  34.026  23.203  21.653  0.0171 -0.3437  0.2150
  218BOLB   C1A 5213  34.575  23.407  21.920  0.1757  0.1414 -0.0384
  218BOLB   C2A 5214  34.680  23.100  22.107 -0.0312 -0.0004 -0.2201
  218BOLB   C3A 5215  34.929  23.048  22.339  0.1321  0.1132 -0.0272
  218BOLB   C4A 5216  35.165  22.762  22.704 -0.2389  0.1269 -0.1686
  218BOLB   C1B 5217  34.361  22.965  21.774  0.0877  0.3740  0.0903
  218BOLB   C2B 5218  34.785  22.685  21.719  0.3215  0.0954  0.2522
  218BOLB   C3B 5219  34.832  22.233  21.855 -0.3356  0.0970  0.1996
  218BOLB   C4B 5220  35.138  21.960  21.828  0.0168 -0.1441  0.0262
  218BOLB   NC2 5221  36.798  21.576  23.536 -0.2002  0.0531 -0.1062
  218BOLB   PO2 5222  37.017  21.773  23.180 -0.2175 -0.0966  0.2551
  218BOLB   GL3 5223  36.571  21.897  23.237 -0.0603 -0.1358  0.0504
  218BOLB   GL4 5224  36.524  22.110  22.962  0.3295  0.2880 -0.3261
  218BOLB   C1C 5225  36.475  22.241  23.478 -0.0663 -0.2272 -0.0366
  218BOLB   C2C 5226  36.174  22.578  23.510 -0.1942  0.1394 -0.1491
  218BOLB   C3C 5227  35.779  22.806  23.267 -0.0803 -0.0458 -0.2196
  218BOLB   C4C 5228  35.394  22.699  23.098 -0.2516 -0.0255  0.4068
  218BOLB   C1D 5229  36.184  21.892  22.911 -0.0656  0.2632 -0.0074
  218BOLB   C2D 5230  35.906  22.059  22.673 -0.2521 -0.0158 -0.1492
  218BOLB   C3D 5231  35.783  22.130  22.263  0.0712  0.1477 -0.1205
  218BOLB   C4D 5232  35.647  22.055  21.818  0.2069 -0.1855  0.2236
  219BOLB   NC1 5233  24.424  27.939  14.356  0.0198 -0.1095 -0.0825
  219BOLB   PO1 5234  24.098  28.240  14.520  0.1020 -0.0960  0.0361
  219BOLB   GL1 5235  23.854  27.935  14.254 -0.0691 -0.0888  0.0273
  219BOLB   GL2 5236  23.589  27.897  14.385 -0.1064 -0.2740  0.0840
  219BOLB   C1A 5237  24.000  27.685  13.925 -0.0365  0.2630 -0.4420
  219BOLB   C2A 5238  24.001  27.531  13.640  0.2654  0.0301  0.0077
  219BOLB   C3A 5239  24.038  27.407  13.278 -0.1661  0.0789  0.1171
  219BOLB   C4A 5240  23.873  26.944  13.079 -0.0764  0.1655 -0.0892
  219BOLB   C1B 5241  23.279  27.761  14.167 -0.1091  0.1165 -0.1476
  219BOLB   C2B 5242  22.918  27.898  13.992 -0.0411 -0.0543 -0.2240
  219BOLB   C3B 5243  22.743  27.884  13.600 -0.4540  0.1084 -0.3113
  219BOLB   C4B 5244  22.642  27.763  13.184 -0.3270  0.1414  0.0438
  219BOLB   NC2 5245  24.086  25.944  10.676  0.2887 -0.1104  0.0656
  219BOLB   PO2 5246  23.655  25.985  10.591 -0.0605  0.5876  0.4754
  219BOLB   GL3 5247  23.600  25.856  11.027 -0.0702 -0.1369  0.2918
  219BOLB   GL4 5248  23.797  25.644  11.105 -0.1786 -0.1351 -0.3927
  219BOLB   C1C 5249  23.737  26.208  11.399 -0.0492  0.0550 -0.0638
  219BOLB   C2C 5250  23.582  26.201  11.831  0.1466 -0.1497  0.2486
  219BOLB   C3C 5251  23.584  26.452  12.362 -0.4901 -0.0033 -0.4328
  219BOLB   C4C 5252  23.744  26.690  12.689  0.1623  0.0411 -0.0049
  219BOLB   C1D 5253  24.214  25.598  11.235  0.1322  0.1424  0.1013
  219BOLB   C2D 5254  24.661  25.862  11.096 -0.0094 -0.0456  0.1363
  219BOLB   C3D 5255  24.880  26.219  11.095 -0.1260  0.1739  0.1641
  219BOLB   C4D 5256  25.065  26.676  10.989  0.0307  0.0616 -0.1889
  220BOLB   NC1 5257  15.764  22.403  17.030  0.2544 -0.2470  0.0734
  220BOLB   PO1 5258  16.208  22.164  16.940 -0.1451 -0.1133  0.3936
  220BOLB   GL1 5259  16.388  22.160  17.252  0.3295  0.0542  0.0663
  220BOLB   GL2 5260  16.342  21.738  17.120 -0.2826 -0.1226  0.2833
  220BOLB   C1A 5261  16.340  22.516  17.634  0.0040  0.0397  0.0083
  220BOLB   C2A 5262  16.481  22.664  18.010  0.1245  0.2812  0.0977
  220BOLB   C3A 5263  16.664  22.586  18.409  0.0235 -0.0276 -0.0298
  220BOLB   C4A 5264  16.750  22.321  18.740  0.0068 -0.2160  0.4132
  220BOLB   C1B 5265  16.505  21.764  17.521 -0.1234  0.1651  0.4150
  220BOLB   C2B 5266  16.291  22.047  17.815  0.0808  0.3171  0.2545
  220BOLB   C3B 5267  16.006  22.425  18.035 -0.0453 -0.2400  0.3137
  220BOLB   C4B 5268  16.191  22.481  18.407  0.0109 -0.2853 -0.1876
  220BOLB   NC2 5269  15.731  20.860  17.588 -0.3048 -0.0491  0.1388
  220BOLB   PO2 5270  15.958  20.408  17.639 -0.2192  0.2493 -0.0010
  220BOLB   GL3 5271  16.220  20.749  17.853 -0.1238  0.3303  0.1271
  220BOLB   GL4 5272  16.433  20.662  18.132  0.0503 -0.3398 -0.1500
  220BOLB   C1C 5273  16.147  21.019  18.279 -0.1125 -0.1125  0.1613
  220BOLB   C2C 5274  16.231  21.216  18.660  0.3723 -0.1040  0.2013
  220BOLB   C3C 5275  16.376  21.604  18.672 -0.0959  0.1576  0.0386
  220BOLB   C4C 5276  16.552  21.941  18.926  0.1343 -0.2682  0.2334
  220BOLB   C1D 5277  16.703  21.024  18.216  0.0830 -0.1113 -0.1971
  220BOLB   C2D 5278  17.111  21.190  18.114  0.2134  0.5558 -0.1666
  220BOLB   C3D 5279  17.515  21.208  18.145  0.1477 -0.0193 -0.2243
  220BOLB   C4D 5280  17.829  21.546  18.130 -0.0786 -0.0702  0.4519
  221BOLB   NC1 5281  22.541  31.719   1.550 -0.1875  0.0001  0.0558
  221BOLB   PO1 5282  22.438  32.050   1.340 -0.0976 -0.3543 -0.1663
  221BOLB   GL1 5283  22.101  32.038   1.550  0.1380  0.1810 -0.2325
  221BOLB   GL2 5284  21.861  31.975   1.319 -0.2077  0.0046  0.1542
  221BOLB   C1A 5285  21.902  32.259   1.888 -0.1415 -0.0862 -0.1342
  221BOLB   C2A 5286  21.551  32.251   2.141  0.0902 -0.2880 -0.0760
  221BOLB   C3A 5287  21.149  32.263   2.150  0.0843  0.0648  0.1142
  221BOLB   C4A 5288  20.854  32.606   2.158 -0.1520 -0.3333  0.2266
  221BOLB   C1B 5289  21.592  31.930   1.658  0.0734 -0.2098 -0.1203
  221BOLB   C2B 5290  21.319  31.852   1.933  0.1267 -0.2146 -0.0683
  221BOLB   C3B 5291  20.885  31.816   1.851 -0.0967  0.1797  0.3890
  221BOLB   C4B 5292  20.435  31.707   2.102 -0.1574 -0.1272  0.4075
  221BOLB   NC2 5293  19.480  32.641   3.895 -0.0540 -0.3311  0.1215
  221BOLB   PO2 5294  19.296  32.973   3.742 -0.0171  0.0918  0.0739
  221BOLB   GL3 5295  19.626  32.836   3.459 -0.0849  0.0100 -0.0793
  221BOLB   GL4 5296  19.661  32.690   3.275 -0.0095  0.1322  0.3416
  221BOLB   C1C 5297  19.848  33.048   3.005  0.0723  0.0549 -0.0932
  221BOLB   C2C 5298  20.226  32.940   2.788 -0.0828  0.2697 -0.0920
  221BOLB   C3C 5299  20.641  33.060   2.714 -0.0463 -0.0123 -0.3268
  221BOLB   C4C 5300  20.892  32.870   2.346  0.0467 -0.0686 -0.2098
  221BOLB   C1D 5301  19.984  32.551   3.059  0.0604 -0.2534 -0.1729
  221BOLB   C2D 5302  20.087  32.421   2.753  0.1167  0.1017 -0.4360
  221BOLB   C3D 5303  20.418  32.069   2.604  0.0053  0.3230 -0.1681
  221BOLB   C4D 5304  20.787  31.982   2.382 -0.0365 -0.2340 -0.1184
  222BOLB   NC1 5305  19.407  29.437  20.335  0.0824 -0.1959 -0.2611
  222BOLB   PO1 5306  19.421  29.950  20.202  0.2114  0.0371 -0.0960
  222BOLB   GL1 5307  19.108  29.809  20.019  0.1134  0.2873 -0.1805
  222BOLB   GL2 5308  19.005  29.416  20.034 -0.2629 -0.4180  0.1849
  222BOLB   C1A 5309  18.685  29.753  19.817 -0.0854  0.0955  0.2506
  222BOLB   C2A 5310  18.290  29.810  19.855  0.1234 -0.0535 -0.0037
  222BOLB   C3A 5311  18.033  29.943  19.584 -0.0749 -0.1279 -0.4320
  222BOLB   C4A 5312  17.655  29.984  19.546  0.1121  0.1759  0.1011
  222BOLB   C1B 5313  18.584  29.360  20.174 -0.0221  0.3519  0.1540
  222BOLB   C2B 5314  18.351  29.346  19.741  0.3063 -0.3916  0.0530
  222BOLB   C3B 5315  18.256  28.982  19.520 -0.0410  0.1735  0.0540
  222BOLB   C4B 5316  17.996  28.698  19.405  0.1542  0.2158  0.0103
  222BOLB   NC2 5317  15.458  30.418  17.806 -0.0854  0.1795 -0.0975
  222BOLB   PO2 5318  15.560  30.012  17.995  0.2359 -0.1087 -0.0389
  222BOLB   GL3 5319  15.956  29.888  18.211  0.0211 -0.1567  0.0476
  222BOLB   GL4 5320  16.182  30.060  18.005  0.0465  0.1039  0.3761
  222BOLB   C1C 5321  16.248  29.865  18.544  0.0360 -0.1048  0.2882
  222BOLB   C2C 5322  16.569  29.723  18.828  0.0313  0.1773 -0.0246
  222BOLB   C3C 5323  16.881  29.774  19.202 -0.2300  0.2217  0.3291
  222BOLB   C4C 5324  17.240  29.649  19.433 -0.2255 -0.0639  0.1267
  222BOLB   C1D 5325  16.346  30.423  18.333  0.1525 -0.1896  0.1109
  222BOLB   C2D 5326  16.749  30.581  18.383 -0.1280 -0.0569  0.0305
  222BOLB   C3D 5327  17.131  30.722  18.045 -0.1287  0.2892  0.0428
  222BOLB   C4D 5328  17.241  31.126  17.842 -0.0950  0.1840  0.0312
  223BOLB   NC1 5329  34.968  31.724  18.935  0.2141 -0.2237  0.3609
  223BOLB   PO1 5330  35.364  31.572  18.814  0.1338 -0.0376 -0.3299
  223BOLB   GL1 5331  35.755  31.620  18.694  0.0717 -0.0054 -0.0196
  223BOLB   GL2 5332  35.938  31.431  18.649  0.2829 -0.3346 -0.3813
  223BOLB   C1A 5333  35.932  31.879  18.318  0.3232 -0.1855  0.1590
  223BOLB   C2A 5334  36.304  32.054  18.267  0.0010 -0.1219 -0.0267
  223BOLB   C3A 5335  36.599  32.426  18.222 -0.0726 -0.1239 -0.0209
  223BOLB   C4A 5336  36.768  32.861  18.219 -0.4255 -0.2766 -0.3062
  223BOLB   C1B 5337  36.318  31.044  18.506  0.2834  0.1096  0.2020
  223BOLB   C2B 5338  36.753  30.867  18.419 -0.1514  0.2900 -0.2247
  223BOLB   C3B 5339  37.123  30.675  18.199 -0.3084  0.0266  0.4421
  223BOLB   C4B 5340  37.325  30.738  17.832 -0.0210 -0.0209  0.1263
  223BOLB   NC2 5341  39.019  33.276  18.160  0.0605 -0.0264 -0.4557
  223BOLB   PO2 5342  39.092  33.754  18.174  0.0747  0.0265  0.0137
  223BOLB   GL3 5343  38.550  33.665  18.209 -0.2075  0.0057 -0.1145
  223BOLB   GL4 5344  38.535  33.370  18.241 -0.0516  0.5313 -0.0780
  223BOLB   C1C 5345  38.089  33.582  18.271 -0.1463  0.0698  0.1837
  223BOLB   C2C 5346  37.892  33.196  18.302 -0.0177 -0.1506  0.0697
  223BOLB   C3C 5347  37.567  32.892  18.254 -0.2207  0.0359 -0.0676
  223BOLB   C4C 5348  37.223  32.936  18.052 -0.1061  0.2250 -0.2942
  223BOLB   C1D 5349  38.309  33.313  18.629 -0.1317  0.2773 -0.3957
  223BOLB   C2D 5350  37.900  33.436  18.804  0.0478  0.1036 -0.1423
  223BOLB   C3D 5351  37.877  33.706  19.036  0.2737 -0.0358  0.1458
  223BOLB   C4D 5352  37.818  33.622  19.363  0.2456 -0.0457 -0.1102
  224BOLB   NC1 5353  21.397  33.006  17.670 -0.1687  0.2178  0.3203
  224BOLB   PO1 5354  21.502  33.372  17.521 -0.0951 -0.0884 -0.0408
  224BOLB   GL1 5355  21.029  33.458  17.372 -0.2340  0.0074 -0.1480
  224BOLB   GL2 5356  20.982  33.110  17.374 -0.0939 -0.0781 -0.2316
  224BOLB   C1A 5357  20.774  33.658  17.186  0.2422 -0.0557 -0.1170
  224BOLB   C2A 5358  20.484  33.788  16.866 -0.0768 -0.0785  0.0061
  224BOLB   C3A 5359  20.433  33.812  16.359  0.1654  0.2484 -0.1180
  224BOLB   C4A 5360  20.055  33.866  16.195 -0.0010 -0.2216  0.1981
  224BOLB   C1B 5361  20.619  33.156  17.226 -0.3060  0.2658 -0.1746
  224BOLB   C2B 5362  20.164  33.406  17.076 -0.1021 -0.0132 -0.0739
  224BOLB   C3B 5363  19.954  33.746  16.829 -0.3462  0.2955 -0.1341
  224BOLB   C4B 5364  20.183  34.153  16.705 -0.0912 -0.0445 -0.1348
  224BOLB   NC2 5365  17.782  35.348  15.677 -0.2008  0.1765 -0.0158
  224BOLB   PO2 5366  18.196  35.104  15.626  0.0890 -0.1979  0.2300
  224BOLB   GL3 5367  18.415  34.874  15.938 -0.2255 -0.3078  0.1648
  224BOLB   GL4 5368  18.305  34.765  16.199 -0.3872 -0.1019  0.0210
  224BOLB   C1C 5369  18.763  34.573  15.932 -0.1267  0.1223  0.0077
  224BOLB   C2C 5370  18.957  34.302  16.206  0.0876  0.1172 -0.0699
  224BOLB   C3C 5371  19.322  34.106  16.087  0.0755  0.0202  0.0485
  224BOLB   C4C 5372  19.708  33.857  15.985 -0.1901 -0.0652  0.2900
  224BOLB   C1D 5373  18.641  34.726  16.380  0.5240  0.0925 -0.0402
  224BOLB   C2D 5374  18.976  34.612  16.624  0.1666  0.1492 -0.0683
  224BOLB   C3D 5375  19.267  34.310  16.822  0.0446 -0.2381  0.2421
  224BOLB   C4D 5376  19.708  34.170  17.034 -0.0779 -0.1825 -0.0131
  225BOLB   NC1 5377  36.003  27.964  23.560  0.1082 -0.0087 -0.1330
  225BOLB   PO1 5378  35.944  28.237  23.160  0.1165  0.1809 -0.2793
  225BOLB   GL1 5379  36.299  27.971  23.171 -0.1767  0.3967  0.0453
  225BOLB   GL2 5380  36.508  28.185  23.312  0.0397 -0.4663 -0.1979
  225BOLB   C1A 5381  36.590  27.597  23.173 -0.0687 -0.2190 -0.0384
  225BOLB   C2A 5382  36.855  27.343  22.930  0.0129 -0.5124 -0.1911
  225BOLB   C3A 5383  37.262  27.670  22.749  0.1124 -0.0811 -0.0123
  225BOLB   C4A 5384  37.750  27.774  22.737  0.2073 -0.1092  0.1300
  225BOLB   C1B 5385  36.816  28.094  23.456 -0.0380  0.1909  0.1521
  225BOLB   C2B 5386  37.278  28.079  23.598 -0.0156  0.0026 -0.1957
  225BOLB   C3B 5387  37.793  28.014  23.476 -0.2195 -0.1200 -0.1342
  225BOLB   C4B 5388  38.181  27.920  23.516  0.1287  0.1331  0.1635
  225BOLB   NC2 5389  39.774  26.878  23.931  0.2581  0.0044 -0.0664
  225BOLB   PO2 5390  39.782  27.232  23.679 -0.0162  0.1750 -0.0241
  225BOLB   GL3 5391  39.471  27.559  23.602  0.1911  0.0476 -0.1511
  225BOLB   GL4 5392  39.324  27.429  23.884 -0.5045  0.4508  0.2116
  225BOLB   C1C 5393  38.968  27.615  23.519 -0.1559 -0.2301 -0.0359
  225BOLB   C2C 5394  38.612  27.778  23.493  0.0892  0.0496 -0.1217
  225BOLB   C3C 5395  38.422  27.729  23.144  0.2495  0.1053 -0.0360
  225BOLB   C4C 5396  38.088  27.839  22.983  0.2741  0.0101 -0.0825
  225BOLB   C1D 5397  39.009  27.203  23.771  0.1833  0.1937  0.0348
  225BOLB   C2D 5398  38.552  27.075  23.891 -0.2383  0.2587  0.4666
  225BOLB   C3D 5399  38.323  26.872  23.588  0.0417  0.2126  0.0760
  225BOLB   C4D 5400  37.810  26.710  23.595  0.3351 -0.0647 -0.1393
  226BOLB   NC1 5401  27.811  21.672  19.716 -0.0188 -0.2849  0.0384
  226BOLB   PO1 5402  27.502  21.375  19.878  0.0254 -0.1981  0.2009
  226BOLB   GL1 5403  27.877  21.112  19.801 -0.0387  0.1000 -0.2178
  226BOLB   GL2 5404  28.112  21.122  20.112  0.1845 -0.1773  0.0841
  226BOLB   C1A 5405  28.072  20.717  19.821  0.1142 -0.1618 -0.1974
  226BOLB   C2A 5406  28.297  20.387  19.590 -0.1507 -0.0014  0.0726
  226BOLB   C3A 5407  28.422  20.185  19.192 -0.0053  0.1644 -0.1828
  226BOLB   C4A 5408  28.431  20.078  18.906  0.2497  0.1435  0.0348
  226BOLB   C1B 5409  28.311  20.856  20.204 -0.0340  0.0062  0.1557
  226BOLB   C2B 5410  28.293  20.396  20.111  0.3601 -0.1709 -0.2946
  226BOLB   C3B 5411  28.257  19.998  20.027 -0.0408  0.2235  0.3088
  226BOLB   C4B 5412  28.558  19.732  19.937 -0.0954 -0.0308  0.1199
  226BOLB   NC2 5413  28.741  18.233  17.182 -0.2212 -0.0833 -0.0871
  226BOLB   PO2 5414  29.102  18.546  17.116  0.2521  0.1433 -0.2067
  226BOLB   GL3 5415  29.098  18.770  17.478  0.1717  0.0953  0.1397
  226BOLB   GL4 5416  29.474  18.725  17.642 -0.0184 -0.0471  0.1340
  226BOLB   C1C 5417  28.847  19.154  17.686  0.0425 -0.0654  0.2708
  226BOLB   C2C 5418  28.613  19.507  17.801 -0.0407  0.2965  0.0426
  226BOLB   C3C 5419  28.578  19.660  18.191 -0.0908 -0.1594  0.1414
  226BOLB   C4C 5420  28.449  19.730  18.587  0.2365  0.0683  0.2410
  226BOLB   C1D 5421  29.632  19.166  17.542 -0.2789  0.0371 -0.1187
  226BOLB   C2D 5422  29.633  19.486  17.857 -0.2436  0.0647 -0.0353
  226BOLB   C3D 5423  29.510  19.915  17.539 -0.2354  0.0986 -0.0389
  226BOLB   C4D 5424  29.396  20.373  17.437  0.3185 -0.0223 -0.1508
  227BOLB   NC1 5425  32.583  26.280  17.591  0.2516  0.0953 -0.1946
  227BOLB   PO1 5426  32.733  25.984  17.292  0.0399  0.5776  0.2748
  227BOLB   GL1 5427  32.894  25.694  16.886  0.0750  0.2234  0.2075
  227BOLB   GL2 5428  33.270  25.721  16.906 -0.1726  0.0799 -0.1456
  227BOLB   C1A 5429  33.072  25.339  16.565 -0.4204 -0.1380  0.0085
  227BOLB   C2A 5430  33.144  25.182  16.163  0.1674 -0.1631 -0.1366
  227BOLB   C3A 5431  33.481  24.947  15.939 -0.0187  0.0849 -0.0029
  227BOLB   C4A 5432  33.739  24.644  15.795 -0.2918 -0.1850  0.1250
  227BOLB   C1B 5433  33.646  25.703  16.940 -0.0532  0.2445  0.0911
  227BOLB   C2B 5434  33.999  25.768  16.850  0.0100 -0.1145 -0.0749
  227BOLB   C3B 5435  34.295  25.584  16.884  0.0660 -0.0513  0.0576
  227BOLB   C4B 5436  34.635  25.587  16.572  0.2323  0.3696 -0.0931
  227BOLB   NC2 5437  35.828  23.947  14.832  0.1382  0.1605 -0.1409
  227BOLB   PO2 5438  35.536  23.765  14.573  0.1703  0.2024  0.1264
  227BOLB   GL3 5439  35.240  23.652  14.847  0.1417  0.2295 -0.1026
  227BOLB   GL4 5440  35.022  23.440  15.072  0.1308  0.1861 -0.0391
  227BOLB   C1C 5441  34.931  23.993  14.991 -0.0302  0.0897 -0.0655
  227BOLB   C2C 5442  34.635  24.083  15.318  0.0898 -0.0998  0.0791
  227BOLB   C3C 5443  34.225  24.285  15.312 -0.0949  0.2316  0.0951
  227BOLB   C4C 5444  33.888  24.509  15.441  0.1313  0.0886 -0.0623
  227BOLB   C1D 5445  34.604  23.563  15.346  0.0638  0.1483  0.1485
  227BOLB   C2D 5446  34.236  23.715  15.185  0.3344 -0.0709  0.3859
  227BOLB   C3D 5447  33.954  23.905  15.234  0.1890  0.2959 -0.1461
  227BOLB   C4D 5448  33.588  24.113  15.192 -0.0375 -0.0363  0.0489
  228BOLB   NC1 5449  23.260  35.563  19.353  0.0989  0.1640 -0.1935
  228BOLB   PO1 5450  23.484  35.914  19.404  0.1157  0.0859 -0.0776
  228BOLB   GL1 5451  23.270  36.329  19.382  0.4667 -0.1563 -0.0893
  228BOLB   GL2 5452  23.398  36.597  19.524 -0.0218 -0.0709  0.1943
  228BOLB   C1A 5453  22.946  36.699  19.417  0.1110 -0.2898  0.0057
  228BOLB   C2A 5454  22.513  36.920  19.435  0.2017  0.1893 -0.2286
  228BOLB   C3A 5455  22.269  37.155  19.097  0.2511  0.4190  0.2011
  228BOLB   C4A 5456  22.100  37.430  18.873 -0.0805  0.0563 -0.1414
  228BOLB   C1B 5457  23.367  36.872  19.153  0.2212 -0.1821 -0.1618
  228BOLB   C2B 5458  23.026  37.177  19.085 -0.0710 -0.1149 -0.0343
  228BOLB   C3B 5459  22.780  37.429  18.807  0.2720 -0.1613  0.0857
  228BOLB   C4B 5460  22.717  37.681  18.473 -0.2622  0.1790 -0.4845
  228BOLB   NC2 5461  20.035  38.644  17.441 -0.2094 -0.1746 -0.0290
  228BOLB   PO2 5462  20.185  38.221  17.466  0.1068  0.1915  0.1541
  228BOLB   GL3 5463  20.505  38.037  17.424 -0.0342 -0.4546 -0.2270
  228BOLB   GL4 5464  20.438  37.673  17.542 -0.1561  0.0854  0.0485
  228BOLB   C1C 5465  20.916  37.788  17.656 -0.1289  0.0028  0.2932
  228BOLB   C2C 5466  21.180  37.754  18.022 -0.0173 -0.3642  0.2746
  228BOLB   C3C 5467  21.405  37.593  18.331  0.0538  0.0325  0.2923
  228BOLB   C4C 5468  21.743  37.589  18.561 -0.2286 -0.2314  0.5480
  228BOLB   C1D 5469  20.135  37.301  17.527 -0.1117  0.1436  0.1345
  228BOLB   C2D 5470  20.034  36.913  17.519  0.1737 -0.2591 -0.0214
  228BOLB   C3D 5471  19.903  36.460  17.811  0.0496 -0.1301  0.0676
  228BOLB   C4D 5472  20.342  36.357  17.906  0.0836  0.1140  0.0805
  229BOLB   NC1 5473  31.042  30.383  14.573 -0.1422 -0.1505  0.0494
  229BOLB   PO1 5474  31.426  30.667  14.424  0.0119 -0.0983  0.0252
  229BOLB   GL1 5475  31.514  30.738  14.032  0.0970 -0.1681  0.2520
  229BOLB   GL2 5476  31.564  31.177  14.042 -0.0037  0.0339 -0.0095
  229BOLB   C1A 5477  31.762  30.609  13.746 -0.2264 -0.1483 -0.1182
  229BOLB   C2A 5478  31.916  30.630  13.383  0.1075  0.4789 -0.0549
  229BOLB   C3A 5479  31.871  30.519  12.899 -0.0915  0.1346 -0.0360
  229BOLB   C4A 5480  32.216  30.507  12.617  0.0030 -0.3118  0.2270
  229BOLB   C1B 5481  31.754  31.551  13.804 -0.1141 -0.1940 -0.2118
  229BOLB   C2B 5482  31.893  31.756  13.429  0.0643  0.4785 -0.1420
  229BOLB   C3B 5483  32.018  31.454  13.126  0.1751  0.3741 -0.2255
  229BOLB   C4B 5484  32.035  31.034  13.050 -0.0088 -0.2395  0.1743
  229BOLB   NC2 5485  31.522  30.613  10.080  0.0556 -0.1656 -0.4056
  229BOLB   PO2 5486  31.858  30.626  10.375  0.1655 -0.2382  0.2355
  229BOLB   GL3 5487  32.095  30.680  10.835 -0.2550  0.1009 -0.1194
  229BOLB   GL4 5488  32.033  30.505  11.050 -0.0448 -0.4058  0.1838
  229BOLB   C1C 5489  32.527  30.699  10.922 -0.0698 -0.0578  0.3870
  229BOLB   C2C 5490  32.671  30.591  11.403 -0.0926  0.1094  0.2173
  229BOLB   C3C 5491  32.479  30.450  11.788  0.0648  0.1711  0.1685
  229BOLB   C4C 5492  32.274  30.418  12.142  0.1738 -0.1775 -0.2340
  229BOLB   C1D 5493  32.183  30.851  11.296 -0.0479  0.0687  0.1663
  229BOLB   C2D 5494  32.059  31.254  11.410  0.0816  0.1106  0.0693
  229BOLB   C3D 5495  31.892  31.338  11.784 -0.0190  0.2185  0.2169
  229BOLB   C4D 5496  31.668  31.174  12.282  0.1959  0.0555  0.2837
  230BOLB   NC1 5497  27.723  34.458   1.747 -0.2713 -0.0351 -0.1791
  230BOLB   PO1 5498  27.266  34.499   1.905 -0.0174 -0.0958  0.1716
  230BOLB   GL1 5499  27.311  34.864   2.093 -0.2610  0.1141  0.1186
  230BOLB   GL2 5500  27.061  34.980   2.377  0.0066 -0.0363 -0.1314
  230BOLB   C1A 5501  27.535  35.229   2.407  0.1069 -0.0647  0.0067
  230BOLB   C2A 5502  27.524  35.698   2.552 -0.0056 -0.0336  0.1725
  230BOLB   C3A 5503  27.515  36.057   2.684  0.1127  0.1056 -0.1608
  230BOLB   C4A 5504  27.470  36.453   2.847 -0.0899  0.0490  0.1301
  230BOLB   C1B 5505  27.320  34.900   2.730 -0.0946 -0.0772  0.0879
  230BOLB   C2B 5506  27.296  34.859   3.173 -0.0140 -0.1844 -0.2719
  230BOLB   C3B 5507  27.165  34.655   3.539  0.2877 -0.2500 -0.2016
  230BOLB   C4B 5508  26.847  34.551   3.509 -0.0887  0.1618 -0.0300
  230BOLB   NC2 5509  26.714  38.125   4.313 -0.0974  0.0472  0.2208
  230BOLB   PO2 5510  26.271  38.107   4.439  0.2639  0.0191 -0.0585
  230BOLB   GL3 5511  26.374  37.816   4.115  0.1177  0.3161  0.2176
  230BOLB   GL4 5512  26.466  37.961   3.915 -0.0989 -0.2633  0.1566
  230BOLB   C1C 5513  26.521  37.454   3.854  0.0336 -0.0253 -0.0618
  230BOLB   C2C 5514  26.965  37.329   3.621  0.0216  0.2030 -0.1277
  230BOLB   C3C 5515  27.221  37.051   3.360 -0.0602  0.0089  0.2083
  230BOLB   C4C 5516  27.329  36.732   3.115  0.4068 -0.3240 -0.0055
  230BOLB   C1D 5517  26.173  37.884   3.620  0.2541  0.1232 -0.0093
  230BOLB   C2D 5518  26.101  37.545   3.352  0.0859 -0.2199  0.2811
  230BOLB   C3D 5519  26.197  37.292   2.975 -0.1603  0.0251  0.1181
  230BOLB   C4D 5520  26.296  36.763   2.974  0.1506  0.0787 -0.3087
  231BOLB   NC1 5521  21.238  26.094  17.983  0.1998 -0.0346  0.3110
  231BOLB   PO1 5522  20.944  25.873  18.107 -0.2785  0.0535 -0.3058
  231BOLB   GL1 5523  20.704  25.571  17.753 -0.0885 -0.0088 -0.1401
  231BOLB   GL2 5524  20.503  25.736  17.452  0.1086  0.2116 -0.1992
  231BOLB   C1A 5525  20.259  25.309  17.604 -0.1180 -0.0876 -0.2336
  231BOLB   C2A 5526  19.910  25.085  17.585  0.0729  0.0608 -0.0462
  231BOLB   C3A 5527  19.693  24.649  17.731  0.0149  0.0227  0.0334
  231BOLB   C4A 5528  19.361  24.519  17.647  0.0266 -0.0544 -0.1051
  231BOLB   C1B 5529  20.523  25.359  17.168  0.3484 -0.3343 -0.1354
  231BOLB   C2B 5530  20.685  24.928  17.042 -0.1036  0.0331  0.1327
  231BOLB   C3B 5531  20.642  24.588  16.777  0.2303 -0.0682 -0.0564
  231BOLB   C4B 5532  20.793  24.224  16.757  0.0993  0.0242  0.1568
  231BOLB   NC2 5533  18.344  23.841  15.456  0.0957 -0.1614  0.0361
  231BOLB   PO2 5534  18.076  23.685  15.793  0.2830 -0.0089  0.2031
  231BOLB   GL3 5535  18.213  23.815  16.157  0.0722  0.3039  0.0235
  231BOLB   GL4 5536  18.121  23.553  16.348  0.1079  0.1935  0.3013
  231BOLB   C1C 5537  18.531  23.927  16.495 -0.1011  0.0845  0.2638
  231BOLB   C2C 5538  18.702  23.893  16.964 -0.3109  0.0726 -0.0423
  231BOLB   C3C 5539  19.018  24.133  17.195  0.1072  0.0227 -0.2916
  231BOLB   C4C 5540  18.962  24.272  17.573  0.2926 -0.0570  0.2511
  231BOLB   C1D 5541  18.442  23.366  16.188  0.1808  0.2384  0.1457
  231BOLB   C2D 5542  18.864  23.537  16.258 -0.0244  0.0872  0.1974
  231BOLB   C3D 5543  19.042  23.918  16.443  0.5473 -0.1111 -0.1677
  231BOLB   C4D 5544  19.255  23.861  16.766 -0.0611 -0.0503  0.3622
  232BOLB   NC1 5545  23.264  34.534  16.607 -0.1262 -0.1216 -0.0392
  232BOLB   PO1 5546  23.418  34.855  16.835 -0.2848 -0.3503  0.0298
  232BOLB   GL1 5547  23.135  35.304  16.685 -0.0115  0.2615  0.2044
  232BOLB   GL2 5548  22.839  35.352  16.707 -0.0079  0.1611 -0.0679
  232BOLB   C1A 5549  23.151  35.650  16.315  0.1426 -0.3400  0.0702
  232BOLB   C2A 5550  23.273  36.127  16.223  0.0706  0.0190  0.3382
  232BOLB   C3A 5551  23.022  36.381  16.059 -0.4267 -0.0406  0.0321
  232BOLB   C4A 5552  23.062  36.708  15.827  0.0748  0.1145  0.2381
  232BOLB   C1B 5553  22.686  35.561  17.048  0.0262  0.0616 -0.1555
  232BOLB   C2B 5554  22.534  36.033  17.105 -0.1991  0.0296  0.0830
  232BOLB   C3B 5555  22.718  36.453  16.997 -0.0027 -0.0843 -0.0850
  232BOLB   C4B 5556  22.897  36.864  16.788  0.2132  0.1941  0.4515
  232BOLB   NC2 5557  23.183  37.958  13.429  0.3787 -0.1185 -0.0716
  232BOLB   PO2 5558  23.075  37.576  13.616 -0.1715  0.1674  0.0221
  232BOLB   GL3 5559  23.109  37.338  13.935  0.0902 -0.1350 -0.0263
  232BOLB   GL4 5560  23.083  37.568  14.171 -0.2088  0.1063  0.2657
  232BOLB   C1C 5561  22.803  37.137  14.332 -0.1583 -0.0981  0.1158
  232BOLB   C2C 5562  22.990  37.073  14.726  0.5416 -0.1583 -0.5946
  232BOLB   C3C 5563  23.174  36.897  15.041  0.1094  0.0912  0.1738
  232BOLB   C4C 5564  23.181  36.867  15.485 -0.0706 -0.0199  0.1556
  232BOLB   C1D 5565  23.328  37.837  14.424 -0.2869  0.0035  0.1361
  232BOLB   C2D 5566  23.697  37.926  14.753  0.1646 -0.0251 -0.1348
  232BOLB   C3D 5567  23.887  37.746  15.073  0.0613  0.2135 -0.1086
  232BOLB   C4D 5568  24.156  37.732  15.375 -0.2131 -0.0905 -0.0400
  233BOLB   NC1 5569  31.364  34.779   0.471 -0.3838 -0.5853 -0.0594
  233BOLB   PO1 5570  31.741  34.594   0.613 -0.3094  0.0791  0.2176
  233BOLB   GL1 5571  32.201  34.880   0.630 -0.1830  0.1055  0.0121
  233BOLB   GL2 5572  32.490  34.902   0.553 -0.0361  0.1255  0.2915
  233BOLB   C1A 5573  32.283  35.065   1.043  0.2809  0.0800  0.1780
  233BOLB   C2A 5574  32.627  35.071   1.294  0.1515 -0.1943 -0.2841
  233BOLB   C3A 5575  33.165  35.152   1.211  0.0287  0.1183  0.0951
  233BOLB   C4A 5576  33.435  35.428   0.957 -0.0889 -0.2327 -0.1165
  233BOLB   C1B 5577  32.647  35.207   0.773 -0.1772  0.0196  0.0022
  233BOLB   C2B 5578  32.908  35.543   0.996  0.1074  0.1789 -0.1516
  233BOLB   C3B 5579  33.125  35.953   1.044  0.0684  0.2144 -0.1925
  233BOLB   C4B 5580  33.282  36.290   1.186  0.1404  0.3844  0.0967
  233BOLB   NC2 5581  34.576  37.418   1.820  0.1959  0.0794 -0.2423
  233BOLB   PO2 5582  34.715  36.971   1.939  0.0178  0.2455 -0.0808
  233BOLB   GL3 5583  34.292  36.886   1.733 -0.0687  0.2242  0.0620
  233BOLB   GL4 5584  34.160  37.130   1.575 -0.0748  0.1485 -0.1153
  233BOLB   C1C 5585  34.089  36.566   1.501  0.3687 -0.1597  0.1468
  233BOLB   C2C 5586  33.811  36.427   1.255 -0.2308 -0.4619  0.2522
  233BOLB   C3C 5587  33.689  36.231   0.889 -0.0079  0.1900 -0.2282
  233BOLB   C4C 5588  33.573  35.776   0.827 -0.3481  0.0124  0.2214
  233BOLB   C1D 5589  33.750  36.946   1.562  0.0103  0.1903  0.0281
  233BOLB   C2D 5590  33.452  36.621   1.523 -0.1335 -0.0103 -0.0394
  233BOLB   C3D 5591  33.012  36.498   1.497  0.1254 -0.0063  0.2021
  233BOLB   C4D 5592  32.671  36.221   1.398  0.1419 -0.1151 -0.1286
  234BOLB   NC1 5593  19.862  32.844  23.190  0.0869  0.0053  0.1396
  234BOLB   PO1 5594  19.780  32.827  23.657 -0.1951 -0.2466 -0.0555
  234BOLB   GL1 5595  19.500  33.094  23.707 -0.2579  0.0897  0.0408
  234BOLB   GL2 5596  19.457  33.254  23.970  0.0208  0.0003 -0.0204
  234BOLB   C1A 5597  19.235  33.370  23.537  0.5095  0.3007  0.3620
  234BOLB   C2A 5598  19.011  33.455  23.221 -0.2270 -0.0273  0.2619
  234BOLB   C3A 5599  18.760  33.895  23.087 -0.0615 -0.0362 -0.1098
  234BOLB   C4A 5600  18.531  34.146  22.867 -0.2249  0.0544 -0.0288
  234BOLB   C1B 5601  19.032  33.376  23.990 -0.1916 -0.1314  0.0280
  234BOLB   C2B 5602  18.672  33.435  24.113 -0.4938 -0.1647 -0.1285
  234BOLB   C3B 5603  18.347  33.329  24.409 -0.1688 -0.1679 -0.4577
  234BOLB   C4B 5604  17.873  33.299  24.441  0.2872  0.0921 -0.0328
  234BOLB   NC2 5605  16.634  35.014  22.426  0.1753  0.3731 -0.0749
  234BOLB   PO2 5606  16.594  35.315  22.077 -0.0115  0.3888 -0.2481
  234BOLB   GL3 5607  16.991  35.209  22.017 -0.3101  0.0165 -0.3111
  234BOLB   GL4 5608  17.193  35.362  21.815  0.0898  0.0110  0.0621
  234BOLB   C1C 5609  17.360  35.022  22.192 -0.1091  0.0037  0.1260
  234BOLB   C2C 5610  17.649  34.705  22.412  0.1581 -0.1573 -0.1128
  234BOLB   C3C 5611  18.012  34.441  22.526 -0.0867 -0.0485  0.1807
  234BOLB   C4C 5612  18.392  34.260  22.568 -0.0812  0.3974  0.0630
  234BOLB   C1D 5613  17.613  35.313  21.821  0.4401 -0.3624  0.4542
  234BOLB   C2D 5614  18.022  35.340  21.814  0.0332 -0.0780 -0.0095
  234BOLB   C3D 5615  18.408  35.094  21.866 -0.0076  0.2171 -0.1786
  234BOLB   C4D 5616  18.659  34.891  21.625  0.1016 -0.0130  0.0277
  235BOLB   NC1 5617  29.217  23.969  16.150 -0.2877  0.1019 -0.1573
  235BOLB   PO1 5618  29.375  23.856  15.875  0.4215  0.3779  0.1224
  235BOLB   GL1 5619  29.528  23.596  15.645 -0.0822 -0.0110  0.2337
  235BOLB   GL2 5620  29.594  23.839  15.367 -0.1764  0.1024 -0.1002
  235BOLB   C1A 5621  29.573  23.140  15.452 -0.2528  0.0381 -0.0409
  235BOLB   C2A 5622  29.782  22.931  15.082  0.1237 -0.1000  0.5302
  235BOLB   C3A 5623  29.701  22.540  14.935 -0.2101 -0.0885 -0.0298
  235BOLB   C4A 5624  29.772  22.240  14.654  0.2041 -0.0013 -0.1681
  235BOLB   C1B 5625  29.822  23.560  15.095 -0.1287  0.0845 -0.1396
  235BOLB   C2B 5626  30.079  23.340  14.737 -0.1720  0.0306  0.1613
  235BOLB   C3B 5627  30.447  23.050  14.686 -0.0856  0.0817 -0.1964
  235BOLB   C4B 5628  30.589  22.678  14.375  0.2508  0.5081  0.2740
  235BOLB   NC2 5629  29.805  20.215  13.630  0.1117  0.0671 -0.3864
  235BOLB   PO2 5630  29.742  20.331  13.228  0.1650  0.1193 -0.1028
  235BOLB   GL3 5631  29.722  20.762  13.536  0.1332  0.0912  0.2992
  235BOLB   GL4 5632  29.374  20.816  13.484 -0.1117 -0.2445  0.1021
  235BOLB   C1C 5633  29.600  21.011  13.931 -0.3279 -0.0551 -0.2910
  235BOLB   C2C 5634  29.472  21.252  14.249 -0.0649  0.0510 -0.1423
  235BOLB   C3C 5635  29.635  21.506  14.427 -0.0489 -0.1158  0.1663
  235BOLB   C4C 5636  29.673  21.857  14.612 -0.6289  0.0843 -0.0838
  235BOLB   C1D 5637  29.180  21.106  13.760  0.0679 -0.0182 -0.1367
  235BOLB   C2D 5638  28.750  21.192  13.995 -0.2393  0.5518 -0.0681
  235BOLB   C3D 5639  28.479  21.582  14.161 -0.2979 -0.2569  0.2511
  235BOLB   C4D 5640  28.763  21.899  14.266  0.1196  0.2379 -0.1001
  236BOLB   NC1 5641  18.729  23.700   6.898 -0.0928 -0.0216  0.0137
  236BOLB   PO1 5642  19.142  23.938   6.817  0.0195 -0.0491  0.0603
  236BOLB   GL1 5643  19.329  24.298   6.532 -0.0248  0.0312  0.0553
  236BOLB   GL2 5644  19.144  24.228   6.195 -0.0089 -0.1368  0.5134
  236BOLB   C1A 5645  19.521  24.564   6.229 -0.0919 -0.0315 -0.1377
  236BOLB   C2A 5646  19.794  24.868   5.978  0.0516  0.2455  0.0480
  236BOLB   C3A 5647  19.937  24.898   5.605  0.1452 -0.0591 -0.0266
  236BOLB   C4A 5648  20.348  24.948   5.327  0.1411 -0.0246  0.1133
  236BOLB   C1B 5649  19.070  24.592   5.829 -0.2182 -0.3958  0.1787
  236BOLB   C2B 5650  19.118  24.715   5.363  0.1764  0.3033  0.0464
  236BOLB   C3B 5651  18.889  24.667   5.056  0.2375 -0.0149 -0.4803
  236BOLB   C4B 5652  18.479  24.638   4.938  0.3626 -0.2469 -0.2982
  236BOLB   NC2 5653  19.270  23.809   6.358  0.0281  0.5339 -0.1600
  236BOLB   PO2 5654  19.327  23.461   6.012 -0.1254 -0.0155 -0.2151
  236BOLB   GL3 5655  19.654  23.736   5.860 -0.1527  0.4383 -0.0990
  236BOLB   GL4 5656  19.572  23.957   5.988  0.2908  0.1571 -0.6526
  236BOLB   C1C 5657  19.979  23.955   5.621  0.2666 -0.0141  0.2540
  236BOLB   C2C 5658  20.176  24.164   5.272 -0.1494  0.2438  0.4303
  236BOLB   C3C 5659  20.075  24.383   4.872 -0.3808  0.0756  0.2872
  236BOLB   C4C 5660  20.454  24.695   4.970  0.1813 -0.1185 -0.0715
  236BOLB   C1D 5661  19.553  24.346   5.707 -0.1145 -0.1841 -0.0404
  236BOLB   C2D 5662  19.836  24.519   5.281  0.0470 -0.1274 -0.0558
  236BOLB   C3D 5663  19.664  24.980   5.211 -0.0286  0.0556 -0.0660
  236BOLB   C4D 5664  19.628  25.308   5.045 -0.1458 -0.0720  0.0411
  237BOLB   NC1 5665  22.590  35.533  25.211  0.2660  0.0072  0.1129
  237BOLB   PO1 5666  22.815  35.664  25.408 -0.0556 -0.2458 -0.2117
  237BOLB   GL1 5667  22.736  35.840  25.820  0.0379  0.0540  0.0084
  237BOLB   GL2 5668  22.603  36.140  25.666 -0.1640 -0.1273 -0.2483
  237BOLB   C1A 5669  22.578  35.830  26.206 -0.0368  0.2811 -0.1290
  237BOLB   C2A 5670  22.388  36.050  26.565  0.1459 -0.3200  0.2825
  237BOLB   C3A 5671  22.226  36.490  26.625  0.2648  0.2400  0.4157
  237BOLB   C4A 5672  21.924  36.789  26.638 -0.3619 -0.2519  0.1392
  237BOLB   C1B 5673  22.457  36.586  25.716  0.0463  0.0256  0.2394
  237BOLB   C2B 5674  22.197  36.898  25.652  0.5300  0.1609  0.1400
  237BOLB   C3B 5675  22.171  37.307  25.759  0.2255 -0.1751 -0.0670
  237BOLB   C4B 5676  22.297  37.444  26.203  0.2032 -0.0063 -0.0362
  237BOLB   NC2 5677  20.621  37.538   1.768  0.1719  0.2422  0.1560
  237BOLB   PO2 5678  20.320  37.690   1.450  0.2504 -0.1893  0.1677
  237BOLB   GL3 5679  20.604  37.525   1.140 -0.2378 -0.1017  0.0914
  237BOLB   GL4 5680  20.750  37.228   1.384 -0.0003  0.0486 -0.0133
  237BOLB   C1C 5681  20.756  37.545   0.870 -0.1141 -0.2564 -0.0280
  237BOLB   C2C 5682  21.048  37.366   0.599 -0.0791  0.1757 -0.1117
  237BOLB   C3C 5683  21.302  37.217   0.231 -0.0121  0.2843  0.2542
  237BOLB   C4C 5684  21.665  37.090  26.913  0.0065 -0.2842  0.4498
  237BOLB   C1D 5685  21.181  37.373   1.101 -0.0988  0.1483  0.1958
  237BOLB   C2D 5686  21.561  37.468   0.962  0.0387  0.1520  0.0477
  237BOLB   C3D 5687  21.930  37.327   0.907  0.0735 -0.2572  0.2367
  237BOLB   C4D 5688  21.997  36.847   0.828  0.0675 -0.2180  0.1027
  238BOLB   NC1 5689  33.253  36.238  20.727 -0.3670 -0.0236  0.1685
  238BOLB   PO1 5690  32.970  35.893  20.546  0.3539  0.5047  0.1670
  238BOLB   GL1 5691  33.053  36.281  20.284 -0.1031  0.0755  0.0026
  238BOLB   GL2 5692  33.123  36.574  20.313  0.1511 -0.2197  0.0907
  238BOLB   C1A 5693  33.423  36.521  19.954 -0.1134  0.0210 -0.1687
  238BOLB   C2A 5694  33.647  36.849  19.738  0.1948 -0.2228 -0.1810
  238BOLB   C3A 5695  33.946  37.102  19.547 -0.2786 -0.0419  0.2420
  238BOLB   C4A 5696  34.281  37.330  19.430 -0.2108  0.0749 -0.1106
  238BOLB   C1B 5697  33.233  36.896  20.640  0.1466 -0.1140 -0.0882
  238BOLB   C2B 5698  33.395  37.267  20.863  0.1351  0.2908 -0.1431
  238BOLB   C3B 5699  33.820  37.439  20.972 -0.0655  0.0928 -0.2266
  238BOLB   C4B 5700  34.208  37.448  20.701 -0.0148 -0.1702  0.2087
  238BOLB   NC2 5701  35.347  39.333  18.240  0.2015 -0.0927 -0.0043
  238BOLB   PO2 5702  35.579  39.074  18.533 -0.2144  0.2279  0.1803
  238BOLB   GL3 5703  35.444  38.737  18.720 -0.1491  0.1347  0.3931
  238BOLB   GL4 5704  35.796  38.538  18.785 -0.1089  0.0832 -0.0849
  238BOLB   C1C 5705  35.368  38.316  18.878 -0.1016 -0.1223 -0.0413
  238BOLB   C2C 5706  35.205  38.042  19.076 -0.2677  0.0883 -0.3913
  238BOLB   C3C 5707  34.806  37.969  19.231 -0.3512 -0.3503  0.7170
  238BOLB   C4C 5708  34.649  37.611  19.427  0.2838  0.0464 -0.0087
  238BOLB   C1D 5709  35.927  38.167  18.489 -0.3918 -0.2488 -0.2363
  238BOLB   C2D 5710  36.113  37.635  18.566 -0.3499 -0.3990  0.1119
  238BOLB   C3D 5711  36.083  37.172  18.513 -0.2957 -0.1178 -0.1239
  238BOLB   C4D 5712  35.779  36.769  18.735  0.3625  0.0359  0.3008
  239BOLB   NC1 5713  32.109  22.822  23.972  0.1475 -0.1612 -0.0435
  239BOLB   PO1 5714  32.305  23.244  23.911 -0.2432  0.2412 -0.0915
  239BOLB   GL1 5715  32.689  22.874  23.946  0.3459  0.0004 -0.3242
  239BOLB   GL2 5716  32.996  22.960  23.800  0.2755  0.5282 -0.2419
  239BOLB   C1A 5717  33.006  22.534  24.103 -0.1051 -0.0448  0.2057
  239BOLB   C2A 5718  33.042  22.109  24.132  0.4281  0.0744 -0.0289
  239BOLB   C3A 5719  33.148  21.716  24.257  0.4387 -0.0650  0.4588
  239BOLB   C4A 5720  33.298  21.436  24.453 -0.0029 -0.1926  0.2079
  239BOLB   C1B 5721  33.407  22.772  23.865 -0.0234  0.0075 -0.3393
  239BOLB   C2B 5722  33.550  22.357  24.016  0.0125  0.1964 -0.0054
  239BOLB   C3B 5723  33.609  21.929  24.107  0.0552 -0.4557  0.0959
  239BOLB   C4B 5724  33.841  21.493  24.179  0.0386  0.3867 -0.0550
  239BOLB   NC2 5725  34.157  18.821  24.521  0.1161  0.1151 -0.1325
  239BOLB   PO2 5726  33.759  19.183  24.500 -0.1513 -0.0063  0.2412
  239BOLB   GL3 5727  33.348  19.449  24.499  0.0251  0.2444  0.3723
  239BOLB   GL4 5728  33.152  19.340  24.595  0.0562 -0.0250 -0.1445
  239BOLB   C1C 5729  33.323  19.856  24.388 -0.0573 -0.1910 -0.0917
  239BOLB   C2C 5730  33.277  20.248  24.215 -0.2920 -0.0828  0.0022
  239BOLB   C3C 5731  33.149  20.652  24.198  0.0336  0.0834 -0.0286
  239BOLB   C4C 5732  33.179  20.994  24.372 -0.0492 -0.2042 -0.0071
  239BOLB   C1D 5733  33.013  19.670  24.786 -0.3126 -0.1360  0.1274
  239BOLB   C2D 5734  32.847  19.982  24.857  0.2433 -0.0202 -0.0111
  239BOLB   C3D 5735  32.570  20.259  24.735  0.0764  0.1029 -0.0346
  239BOLB   C4D 5736  32.287  20.278  24.307  0.2331 -0.3869  0.1835
  240BOLB   NC1 5737  27.973  37.015  17.903  0.2274 -0.1390 -0.1690
  240BOLB   PO1 5738  28.259  37.034  18.250 -0.0021  0.0719  0.2069
  240BOLB   GL1 5739  28.560  37.328  18.382 -0.0808 -0.1896 -0.1869
  240BOLB   GL2 5740  28.669  37.265  18.042 -0.0350  0.0574  0.1336
  240BOLB   C1A 5741  28.598  37.723  18.115 -0.1229 -0.0184 -0.0515
  240BOLB   C2A 5742  28.326  38.021  17.962 -0.0481 -0.0576  0.2744
  240BOLB   C3A 5743  28.202  38.247  17.725  0.2695  0.1433 -0.0066
  240BOLB   C4A 5744  28.212  38.666  17.485  0.1651 -0.1069  0.1362
  240BOLB   C1B 5745  28.904  37.523  17.860 -0.1506 -0.1116  0.0611
  240BOLB   C2B 5746  29.046  37.953  17.657  0.3879 -0.2035  0.0143
  240BOLB   C3B 5747  29.363  38.111  17.269 -0.0557 -0.0091 -0.2259
  240BOLB   C4B 5748  29.605  38.441  17.041 -0.1244  0.3447 -0.1731
  240BOLB   NC2 5749  27.889  40.510  15.852  0.1579 -0.1338  0.0600
  240BOLB   PO2 5750  27.392  40.524  16.059  0.0363  0.1000 -0.4456
  240BOLB   GL3 5751  27.604  40.255  16.198  0.1609 -0.2885 -0.1465
  240BOLB   GL4 5752  27.829  40.393  16.325  0.1152 -0.0089 -0.2377
  240BOLB   C1C 5753  27.648  39.798  16.286  0.2744 -0.2216 -0.0417
  240BOLB   C2C 5754  27.779  39.583  16.521 -0.1790  0.2684 -0.0746
  240BOLB   C3C 5755  27.861  39.300  16.852 -0.0697 -0.3234 -0.5678
  240BOLB   C4C 5756  28.053  39.015  17.225  0.5392  0.0465  0.0786
  240BOLB   C1D 5757  27.866  40.055  16.622  0.1182 -0.2324 -0.1751
  240BOLB   C2D 5758  27.715  39.842  16.969  0.1587  0.3129  0.0088
  240BOLB   C3D 5759  27.381  39.607  17.225  0.0733  0.1873 -0.0439
  240BOLB   C4D 5760  27.173  39.186  17.368  0.0264 -0.0211  0.1444
  241BOLB   NC1 5761  34.330  34.482  24.525  0.0423 -0.0725 -0.3682
  241BOLB   PO1 5762  34.192  34.560  24.142 -0.1440  0.1567 -0.0007
  241BOLB   GL1 5763  34.455  34.890  24.014  0.0351  0.1179  0.0471
  241BOLB   GL2 5764  34.443  35.035  23.732  0.2119  0.0880  0.1327
  241BOLB   C1A 5765  34.907  35.076  24.040 -0.1496  0.2780  0.1475
  241BOLB   C2A 5766  35.170  35.243  24.105 -0.5480  0.0949 -0.0802
  241BOLB   C3A 5767  35.235  35.493  24.354 -0.0089 -0.1633 -0.0129
  241BOLB   C4A 5768  35.481  35.806  24.417  0.0334 -0.4995 -0.0921
  241BOLB   C1B 5769  34.655  35.480  23.639  0.3109 -0.1210  0.0356
  241BOLB   C2B 5770  35.041  35.741  23.830 -0.2008 -0.3107  0.0149
  241BOLB   C3B 5771  35.358  36.021  23.894  0.1898 -0.0831 -0.1326
  241BOLB   C4B 5772  35.740  36.239  23.795  0.0997  0.0758  0.3469
  241BOLB   NC2 5773  36.266  38.308  24.050  0.1117  0.3503 -0.3926
  241BOLB   PO2 5774  36.602  38.006  23.983 -0.1224  0.0385  0.1917
  241BOLB   GL3 5775  36.531  37.516  24.120 -0.0023 -0.2399  0.0863
  241BOLB   GL4 5776  36.720  37.314  23.984 -0.1964  0.3205  0.1531
  241BOLB   C1C 5777  36.441  37.176  24.365  0.2649 -0.1765 -0.0425
  241BOLB   C2C 5778  36.351  36.815  24.492  0.1256 -0.0298  0.3362
  241BOLB   C3C 5779  36.169  36.428  24.551 -0.1324  0.2270 -0.1559
  241BOLB   C4C 5780  35.798  36.139  24.519 -0.1464 -0.0075 -0.2920
  241BOLB   C1D 5781  36.333  37.108  23.854  0.2614  0.1129  0.0928
  241BOLB   C2D 5782  36.019  37.007  23.571  0.1173 -0.2161 -0.1839
  241BOLB   C3D 5783  35.880  36.727  23.242 -0.2734  0.2942  0.1373
  241BOLB   C4D 5784  35.634  36.615  22.932 -0.1753 -0.2436  0.1132
  242BOLB   NC1 5785  19.901  30.876  20.769 -0.1703  0.1995  0.0238
  242BOLB   PO1 5786  19.863  31.160  20.437  0.0223  0.3715  0.3837
  242BOLB   GL1 5787  19.411  31.155  20.437  0.0309  0.1134  0.0038
  242BOLB   GL2 5788  19.305  30.813  20.447 -0.4614 -0.0852  0.3570
  242BOLB   C1A 5789  18.980  31.179  20.405  0.1200  0.1672  0.0025
  242BOLB   C2A 5790  18.812  31.520  20.487  0.2019 -0.0076 -0.0173
  242BOLB   C3A 5791  18.568  31.899  20.593  0.0316  0.0190 -0.2202
  242BOLB   C4A 5792  18.219  32.068  20.868  0.1410 -0.2859 -0.1105
  242BOLB   C1B 5793  18.896  30.733  20.569  0.3613  0.0652  0.1681
  242BOLB   C2B 5794  18.477  30.536  20.592  0.3872 -0.2165  0.2274
  242BOLB   C3B 5795  18.039  30.396  20.524 -0.0964 -0.0570  0.4080
  242BOLB   C4B 5796  17.642  30.083  20.515  0.1653 -0.0909  0.0618
  242BOLB   NC2 5797  15.879  32.947  21.509  0.2076  0.0117 -0.0709
  242BOLB   PO2 5798  15.778  32.549  21.535 -0.0969 -0.3753  0.1892
  242BOLB   GL3 5799  16.187  32.550  21.571 -0.0231  0.0943  0.2267
  242BOLB   GL4 5800  16.305  32.383  21.823  0.0667  0.2851  0.0365
  242BOLB   C1C 5801  16.631  32.629  21.388 -0.2485 -0.5231 -0.1173
  242BOLB   C2C 5802  17.112  32.420  21.384 -0.4782 -0.0953  0.1300
  242BOLB   C3C 5803  17.454  32.153  21.390  0.1082  0.0501 -0.1923
  242BOLB   C4C 5804  17.805  32.053  21.097  0.2324  0.1690  0.2909
  242BOLB   C1D 5805  16.470  31.914  21.717  0.0261  0.0644 -0.0914
  242BOLB   C2D 5806  16.894  31.557  21.642 -0.0966  0.1480  0.1789
  242BOLB   C3D 5807  17.288  31.362  21.681 -0.0772 -0.4499 -0.0154
  242BOLB   C4D 5808  17.727  31.242  21.403 -0.0003 -0.0007 -0.1799
  243BOLB   NC1 5809  21.559  35.488  21.123 -0.0369  0.1658  0.4142
  243BOLB   PO1 5810  21.377  35.043  21.299  0.0569 -0.0795  0.2224
  243BOLB   GL1 5811  21.002  35.260  21.251  0.4831  0.2174 -0.1568
  243BOLB   GL2 5812  20.758  35.179  21.038  0.3466 -0.3296 -0.0834
  243BOLB   C1A 5813  20.968  35.686  21.305 -0.0884  0.1299  0.0274
  243BOLB   C2A 5814  20.766  36.066  21.279  0.0180  0.0659 -0.0358
  243BOLB   C3A 5815  20.512  36.327  21.189 -0.1875  0.0368 -0.4011
  243BOLB   C4A 5816  20.180  36.505  21.297  0.1388 -0.0989  0.0203
  243BOLB   C1B 5817  20.578  35.528  21.063  0.3062  0.0320  0.1816
  243BOLB   C2B 5818  20.302  35.882  21.208 -0.0277 -0.0789  0.0088
  243BOLB   C3B 5819  19.995  36.116  21.057  0.1859 -0.2271 -0.3414
  243BOLB   C4B 5820  19.563  36.320  20.997 -0.0588 -0.3270 -0.1670
  243BOLB   NC2 5821  17.663  37.978  21.624  0.0889  0.4203 -0.2418
  243BOLB   PO2 5822  18.090  38.038  21.377  0.1794  0.0381  0.0149
  243BOLB   GL3 5823  18.553  37.877  21.529  0.2374  0.2654  0.5406
  243BOLB   GL4 5824  18.819  38.130  21.461  0.1556 -0.0329  0.2750
  243BOLB   C1C 5825  18.900  37.662  21.604  0.1037 -0.0209  0.2320
  243BOLB   C2C 5826  19.217  37.409  21.593 -0.2734 -0.2103  0.0666
  243BOLB   C3C 5827  19.602  37.220  21.444  0.1257 -0.0070  0.1380
  243BOLB   C4C 5828  19.833  36.749  21.410 -0.1991 -0.3169  0.1269
  243BOLB   C1D 5829  18.984  37.907  21.155  0.0032 -0.4057 -0.1666
  243BOLB   C2D 5830  19.178  37.566  20.959  0.1643 -0.1351  0.2481
  243BOLB   C3D 5831  19.316  37.161  21.049  0.0918  0.0042  0.0293
  243BOLB   C4D 5832  19.316  36.763  20.849  0.1135 -0.1352 -0.1844
  244BOLB   NC1 5833  31.075  24.523  16.168  0.0939  0.1663 -0.0985
  244BOLB   PO1 5834  31.226  24.958  16.022  0.2107  0.2068 -0.1330
  244BOLB   GL1 5835  31.502  24.703  15.761 -0.2339  0.1769  0.1944
  244BOLB   GL2 5836  31.292  24.400  15.619  0.2942  0.0843  0.0743
  244BOLB   C1A 5837  31.812  24.480  15.717  0.2750  0.0473  0.1732
  244BOLB   C2A 5838  31.847  24.231  15.365 -0.3746  0.4384  0.3331
  244BOLB   C3A 5839  31.866  24.210  14.915  0.0328 -0.0564 -0.0143
  244BOLB   C4A 5840  32.072  23.967  14.551  0.3377 -0.1369  0.2356
  244BOLB   C1B 5841  31.525  24.085  15.795  0.2146 -0.3286 -0.2423
  244BOLB   C2B 5842  31.711  23.749  15.901 -0.3142 -0.0487  0.2196
  244BOLB   C3B 5843  32.167  23.810  15.579  0.0500 -0.0806 -0.1282
  244BOLB   C4B 5844  32.288  23.919  15.166  0.1221 -0.0007  0.1998
  244BOLB   NC2 5845  33.505  23.227  13.375 -0.0017  0.4620 -0.0922
  244BOLB   PO2 5846  33.240  23.487  13.122 -0.2076 -0.0222 -0.0164
  244BOLB   GL3 5847  33.298  23.774  13.438  0.0244  0.0226 -0.0801
  244BOLB   GL4 5848  33.640  23.896  13.266 -0.4250 -0.1160  0.1756
  244BOLB   C1C 5849  33.094  23.984  13.617 -0.0381 -0.1485 -0.0393
  244BOLB   C2C 5850  33.178  23.961  13.995  0.0762  0.0301  0.1860
  244BOLB   C3C 5851  32.961  23.954  14.402 -0.0207  0.0077  0.0170
  244BOLB   C4C 5852  32.557  23.902  14.487  0.0136  0.1413  0.1510
  244BOLB   C1D 5853  33.839  24.166  13.592  0.0139 -0.1891 -0.5019
  244BOLB   C2D 5854  33.680  24.577  13.842 -0.0112  0.2628  0.1399
  244BOLB   C3D 5855  33.457  24.858  14.018 -0.0641  0.1018 -0.1911
  244BOLB   C4D 5856  33.184  25.012  14.270 -0.2042 -0.1786  0.3413
  245BOLB   NC1 5857  28.485  29.986  14.387 -0.0653 -0.2109 -0.2326
  245BOLB   PO1 5858  28.590  29.893  13.965  0.2092  0.2052 -0.0213
  245BOLB   GL1 5859  28.685  29.821  13.590 -0.1082 -0.1032  0.3136
  245BOLB   GL2 5860  28.701  30.000  13.305  0.3236 -0.0634  0.0352
  245BOLB   C1A 5861  28.733  29.573  13.103  0.0064  0.0555 -0.2301
  245BOLB   C2A 5862  28.962  29.510  12.691  0.1578  0.1175 -0.0681
  245BOLB   C3A 5863  29.153  29.549  12.302  0.3944  0.3431 -0.1213
  245BOLB   C4A 5864  29.428  29.580  12.007 -0.1830 -0.0130  0.1976
  245BOLB   C1B 5865  28.544  30.037  12.819 -0.0001  0.0432  0.1894
  245BOLB   C2B 5866  28.770  30.085  12.510  0.1085  0.1556 -0.0080
  245BOLB   C3B 5867  28.820  30.106  12.078 -0.3144 -0.0993 -0.0875
  245BOLB   C4B 5868  29.132  29.916  11.776 -0.0643  0.2090 -0.0535
  245BOLB   NC2 5869  29.806  29.458   9.542 -0.1891 -0.1339 -0.1194
  245BOLB   PO2 5870  29.994  29.650   9.867 -0.0705 -0.0120  0.2074
  245BOLB   GL3 5871  30.016  29.627  10.286  0.2431  0.0830  0.3783
  245BOLB   GL4 5872  29.831  29.902  10.341 -0.0985  0.2910 -0.0909
  245BOLB   C1C 5873  29.960  29.538  10.676  0.0942  0.0225  0.1532
  245BOLB   C2C 5874  29.987  29.378  11.075 -0.1921 -0.1923  0.1446
  245BOLB   C3C 5875  29.766  29.534  11.475 -0.0276 -0.1513  0.1685
  245BOLB   C4C 5876  29.455  29.554  11.712 -0.0062  0.1214 -0.2042
  245BOLB   C1D 5877  30.233  29.948  10.711  0.0791  0.0074  0.1229
  245BOLB   C2D 5878  30.649  30.071  10.864  0.2675  0.2379  0.0376
  245BOLB   C3D 5879  30.511  30.254  11.257 -0.1110 -0.2479 -0.0729
  245BOLB   C4D 5880  30.426  30.472  11.689 -0.1906 -0.0658  0.0715
  246BOLB   NC1 5881  20.739  26.728  17.301  0.0851  0.0111  0.0674
  246BOLB   PO1 5882  21.084  26.751  17.049 -0.2345  0.0025 -0.1542
  246BOLB   GL1 5883  20.708  26.676  16.768 -0.1926  0.0946 -0.1927
  246BOLB   GL2 5884  20.439  26.628  16.958  0.2250  0.3743  0.1918
  246BOLB   C1A 5885  20.418  26.818  16.427  0.2948 -0.0941 -0.1808
  246BOLB   C2A 5886  20.254  26.759  16.131  0.1762  0.1120 -0.3439
  246BOLB   C3A 5887  20.019  26.857  15.799 -0.0712  0.1325 -0.3365
  246BOLB   C4A 5888  19.661  27.045  15.586  0.0067  0.3828  0.3203
  246BOLB   C1B 5889  19.994  26.847  16.768 -0.0008  0.0520  0.0896
  246BOLB   C2B 5890  19.585  27.188  16.713  0.0975  0.1849  0.3542
  246BOLB   C3B 5891  19.317  27.522  16.507  0.1874  0.4910 -0.1117
  246BOLB   C4B 5892  18.916  27.712  16.578 -0.3010  0.1076  0.0094
  246BOLB   NC2 5893  17.972  27.113  14.244  0.1744  0.1532  0.1399
  246BOLB   PO2 5894  18.259  26.977  14.102 -0.0598 -0.0885 -0.1193
  246BOLB   GL3 5895  18.517  27.256  14.380  0.1196 -0.3014 -0.0167
  246BOLB   GL4 5896  18.705  27.102  14.488  0.2742 -0.0474  0.0629
  246BOLB   C1C 5897  18.900  27.551  14.504 -0.1530 -0.1840 -0.2928
  246BOLB   C2C 5898  19.205  27.572  14.899 -0.1056  0.2244  0.2415
  246BOLB   C3C 5899  19.073  27.542  15.298 -0.2457  0.1234  0.0340
  246BOLB   C4C 5900  19.245  27.305  15.627  0.0917 -0.0360  0.0659
  246BOLB   C1D 5901  18.781  27.229  14.964  0.2475  0.0871  0.0434
  246BOLB   C2D 5902  18.832  27.080  15.377 -0.0958  0.3303  0.0573
  246BOLB   C3D 5903  18.887  26.984  15.923  0.0737 -0.2468 -0.1753
  246BOLB   C4D 5904  18.719  27.060  16.325 -0.0927 -0.0584  0.1033
  247BOLB   NC1 5905  20.697  32.919  19.965 -0.1556 -0.3175  0.1085
  247BOLB   PO1 5906  20.440  32.690  19.663 -0.1850  0.4127 -0.1212
  247BOLB   GL1 5907  19.966  32.726  19.711 -0.0631  0.1459  0.0245
  247BOLB   GL2 5908  19.790  32.980  19.927 -0.1967  0.0125 -0.3107
  247BOLB   C1A 5909  19.531  32.652  19.405  0.1326 -0.2312 -0.6311
  247BOLB   C2A 5910  19.254  32.295  19.158  0.0787  0.1397  0.1240
  247BOLB   C3A 5911  18.810  32.369  19.117  0.2220 -0.1410  0.1743
  247BOLB   C4A 5912  18.504  32.419  18.877  0.0349  0.0682 -0.0540
  247BOLB   C1B 5913  19.469  33.098  19.739  0.0543  0.1074  0.1591
  247BOLB   C2B 5914  19.059  33.477  19.595  0.1016  0.1952  0.0052
  247BOLB   C3B 5915  18.699  33.730  19.519 -0.2697 -0.0175 -0.2227
  247BOLB   C4B 5916  18.466  34.077  19.313 -0.0458  0.2612  0.1739
  247BOLB   NC2 5917  16.442  33.455  18.591 -0.0074 -0.0328 -0.1238
  247BOLB   PO2 5918  16.575  33.776  18.916  0.0146 -0.0468 -0.1611
  247BOLB   GL3 5919  16.848  33.445  18.988  0.0931 -0.0647  0.2755
  247BOLB   GL4 5920  16.927  33.411  18.549 -0.1910  0.3455  0.1749
  247BOLB   C1C 5921  17.140  33.182  19.208  0.1275  0.0525 -0.0378
  247BOLB   C2C 5922  17.566  33.032  19.255  0.0032  0.0661  0.1687
  247BOLB   C3C 5923  17.845  32.842  19.001 -0.1150  0.0127  0.0469
  247BOLB   C4C 5924  18.162  32.673  18.743 -0.0224 -0.0070  0.0493
  247BOLB   C1D 5925  17.216  33.670  18.525 -0.2070  0.3598  0.0809
  247BOLB   C2D 5926  17.620  33.544  18.446 -0.3270 -0.1143 -0.0282
  247BOLB   C3D 5927  17.813  33.044  18.516  0.0686  0.2714  0.1744
  247BOLB   C4D 5928  17.861  32.694  18.267 -0.2082 -0.2800  0.1536
  248BOLB   NC1 5929  26.585  22.741  17.436  0.1000  0.0545  0.4841
  248BOLB   PO1 5930  26.658  22.473  17.134  0.2329  0.1607  0.0060
  248BOLB   GL1 5931  26.672  22.268  16.773 -0.1603  0.0526 -0.0150
  248BOLB   GL2 5932  26.630  22.410  16.536  0.1241  0.2525  0.0359
  248BOLB   C1A 5933  26.504  21.959  16.403  0.3114  0.0576 -0.4775
  248BOLB   C2A 5934  26.630  21.717  16.027  0.4778 -0.0262 -0.4217
  248BOLB   C3A 5935  26.712  21.246  15.929  0.0957  0.0657  0.2025
  248BOLB   C4A 5936  26.943  20.912  15.835 -0.2535 -0.0333  0.0591
  248BOLB   C1B 5937  26.901  22.161  16.338 -0.1107 -0.0900 -0.0196
  248BOLB   C2B 5938  27.282  21.816  16.162  0.1641  0.1895  0.1153
  248BOLB   C3B 5939  27.594  21.572  16.061 -0.3326  0.2607  0.0096
  248BOLB   C4B 5940  28.076  21.618  15.971 -0.3583  0.0907 -0.0177
  248BOLB   NC2 5941  26.810  20.097  13.600 -0.0154  0.1439  0.3757
  248BOLB   PO2 5942  27.117  20.039  13.883 -0.2247  0.3682  0.2383
  248BOLB   GL3 5943  27.122  20.099  14.246 -0.2303 -0.0859 -0.1427
  248BOLB   GL4 5944  26.859  20.189  14.302 -0.0362 -0.0473 -0.0299
  248BOLB   C1C 5945  27.367  20.233  14.530 -0.0977 -0.1369 -0.0923
  248BOLB   C2C 5946  27.345  20.429  14.916  0.0115 -0.2547 -0.2330
  248BOLB   C3C 5947  27.328  20.638  15.280 -0.3007  0.4148 -0.0832
  248BOLB   C4C 5948  27.252  20.912  15.550 -0.1114  0.0543 -0.2442
  248BOLB   C1D 5949  26.828  20.523  14.699 -0.0943  0.4116 -0.1677
  248BOLB   C2D 5950  26.899  20.897  15.018 -0.0064  0.3173  0.0499
  248BOLB   C3D 5951  26.808  21.185  15.341 -0.2209 -0.1237 -0.0046
  248BOLB   C4D 5952  27.142  21.401  15.684 -0.1251 -0.2524 -0.1484
  249BOLB   NC1 5953  20.319  33.286  21.224  0.3891  0.2161 -0.1550
  249BOLB   PO1 5954  20.707  33.425  21.162  0.1555 -0.0172 -0.0124
  249BOLB   GL1 5955  20.374  33.502  20.818 -0.0014  0.0811  0.0007
  249BOLB   GL2 5956  20.176  33.712  20.932  0.0961 -0.0423 -0.1349
  249BOLB   C1A 5957  20.040  33.620  20.441 -0.2644  0.1908 -0.0285
  249BOLB   C2A 5958  19.838  33.838  20.211  0.1362  0.0158  0.2140
  249BOLB   C3A 5959  19.418  34.036  20.089  0.0672 -0.3565 -0.1790
  249BOLB   C4A 5960  19.003  33.968  19.976 -0.1033  0.0310 -0.1300
  249BOLB   C1B 5961  19.940  34.019  20.746  0.0866 -0.1005 -0.2919
  249BOLB   C2B 5962  19.669  34.312  20.458 -0.4127  0.0183 -0.3532
  249BOLB   C3B 5963  19.538  34.722  20.545  0.0594 -0.0559 -0.0587
  249BOLB   C4B 5964  19.600  35.171  20.608  0.1266 -0.1689  0.0197
  249BOLB   NC2 5965  17.320  35.755  19.571  0.2066 -0.2326 -0.0451
  249BOLB   PO2 5966  17.169  35.318  19.461  0.2883  0.1132  0.0173
  249BOLB   GL3 5967  17.353  34.945  19.325  0.0400 -0.3746  0.0626
  249BOLB   GL4 5968  17.212  34.709  19.422 -0.0077 -0.1073 -0.1499
  249BOLB   C1C 5969  17.690  34.632  19.385 -0.1186  0.0751  0.0081
  249BOLB   C2C 5970  18.075  34.604  19.643  0.1716 -0.1501  0.2707
  249BOLB   C3C 5971  18.498  34.514  19.609 -0.2110  0.4191  0.3406
  249BOLB   C4C 5972  18.592  34.106  19.877  0.1361 -0.2287 -0.2208
  249BOLB   C1D 5973  17.419  34.409  19.758  0.0419  0.2886  0.0842
  249BOLB   C2D 5974  17.535  34.243  20.191  0.1904  0.4071 -0.1820
  249BOLB   C3D 5975  17.726  33.940  20.500  0.2009  0.0408  0.1158
  249BOLB   C4D 5976  17.659  33.851  21.029 -0.1788 -0.0414  0.0486
  250BOLB   NC1 5977  34.987  27.483  21.573  0.0639  0.1311 -0.0134
  250BOLB   PO1 5978  35.338  27.394  21.911  0.0600  0.3321 -0.2227
  250BOLB   GL1 5979  35.705  27.162  21.851  0.1318  0.1610 -0.1418
  250BOLB   GL2 5980  35.795  26.933  22.064  0.2241  0.0369  0.0606
  250BOLB   C1A 5981  36.128  27.293  21.859  0.1074  0.2768  0.2686
  250BOLB   C2A 5982  36.448  27.424  21.763  0.0198 -0.1033  0.0158
  250BOLB   C3A 5983  36.768  27.306  21.563  0.1441 -0.2339 -0.1522
  250BOLB   C4A 5984  36.951  26.977  21.443 -0.2684  0.0325  0.2539
  250BOLB   C1B 5985  36.211  26.651  22.180  0.2078 -0.0233  0.1394
  250BOLB   C2B 5986  36.523  26.412  22.391  0.0985  0.1717  0.0195
  250BOLB   C3B 5987  36.863  26.417  22.650  0.2462  0.1955 -0.0180
  250BOLB   C4B 5988  37.302  26.455  22.697 -0.0485  0.0523 -0.0063
  250BOLB   NC2 5989  39.071  25.907  21.901  0.2918 -0.0025 -0.1322
  250BOLB   PO2 5990  39.182  26.240  22.182  0.4061  0.1317 -0.2230
  250BOLB   GL3 5991  38.772  26.313  22.060  0.0106  0.1930  0.2008
  250BOLB   GL4 5992  38.898  26.338  21.675  0.2490 -0.3647  0.0501
  250BOLB   C1C 5993  38.366  26.479  21.750 -0.2352 -0.0760 -0.3615
  250BOLB   C2C 5994  38.047  26.598  21.572 -0.0576 -0.1101  0.0265
  250BOLB   C3C 5995  37.550  26.643  21.765 -0.3503  0.2283 -0.2223
  250BOLB   C4C 5996  37.177  26.778  21.642 -0.0409  0.1696  0.1264
  250BOLB   C1D 5997  38.557  26.023  21.474  0.0867  0.2632  0.2809
  250BOLB   C2D 5998  38.168  26.123  21.350 -0.1730 -0.0499 -0.4103
  250BOLB   C3D 5999  37.849  26.122  21.505 -0.1985 -0.1347 -0.0853
  250BOLB   C4D 6000  37.424  26.301  21.489 -0.0653 -0.2722  0.0471
  251BOLB   NC1 6001  23.422  35.683  25.255  0.1334  0.3492 -0.0664
  251BOLB   PO1 6002  23.789  35.705  25.618 -0.0310  0.0304  0.0262
  251BOLB   GL1 6003  23.607  36.057  25.994 -0.1939  0.0278 -0.0790
  251BOLB   GL2 6004  23.812  36.397  25.896  0.0509  0.0983 -0.0016
  251BOLB   C1A 6005  23.358  36.426  26.091  0.1161  0.3536 -0.1716
  251BOLB   C2A 6006  23.399  36.604  26.430  0.1817  0.0068  0.0886
  251BOLB   C3A 6007  23.221  36.524  26.883  0.2418  0.2064 -0.3114
  251BOLB   C4A 6008  23.240  36.549   0.468 -0.2600  0.0988  0.0817
  251BOLB   C1B 6009  23.519  36.546  25.658  0.1234 -0.3080 -0.0552
  251BOLB   C2B 6010  23.195  36.857  25.558  0.2552  0.0922 -0.3322
  251BOLB   C3B 6011  23.133  37.256  25.548  0.1681  0.1301  0.3222
  251BOLB   C4B 6012  23.023  37.724  25.447  0.1314 -0.4167 -0.2702
  251BOLB   NC2 6013  22.678  39.149   1.040  0.1760 -0.0049  0.1331
  251BOLB   PO2 6014  22.865  38.806   1.222  0.2097  0.3668 -0.2372
  251BOLB   GL3 6015  23.122  38.394   1.290 -0.0343 -0.1054  0.3088
  251BOLB   GL4 6016  23.407  38.615   1.450  0.0334  0.0921  0.0994
  251BOLB   C1C 6017  23.160  37.933   1.284  0.0275 -0.3130 -0.1266
  251BOLB   C2C 6018  23.363  37.570   1.151 -0.1143 -0.2299  0.1221
  251BOLB   C3C 6019  23.428  37.208   0.903 -0.1453 -0.0866  0.1049
  251BOLB   C4C 6020  23.412  36.943   0.621 -0.1919  0.0641 -0.0906
  251BOLB   C1D 6021  23.612  38.227   1.220  0.0910  0.0350  0.0252
  251BOLB   C2D 6022  24.032  37.980   1.111  0.0481  0.0984  0.1631
  251BOLB   C3D 6023  24.490  37.973   1.004  0.0728 -0.1665  0.1429
  251BOLB   C4D 6024  24.819  37.817   0.991  0.0733  0.2959  0.0601
  252BOLB   NC1 6025  27.131  36.669  17.444  0.4096  0.1204  0.1499
  252BOLB   PO1 6026  26.987  37.099  17.426 -0.0128 -0.0611  0.2820
  252BOLB   GL1 6027  27.174  37.431  17.283 -0.0038 -0.2538 -0.3152
  252BOLB   GL2 6028  27.407  37.554  17.636  0.3286  0.2025  0.2214
  252BOLB   C1A 6029  27.147  37.684  16.932 -0.0509 -0.0477 -0.0001
  252BOLB   C2A 6030  27.554  37.568  16.675  0.3549  0.2698  0.1990
  252BOLB   C3A 6031  27.741  37.804  16.378 -0.1440  0.0978 -0.3069
  252BOLB   C4A 6032  27.852  38.184  16.084  0.1235  0.0148 -0.3074
  252BOLB   C1B 6033  27.492  37.801  17.268 -0.0267  0.1556 -0.1883
  252BOLB   C2B 6034  27.759  38.033  16.920 -0.2101 -0.0762 -0.0783
  252BOLB   C3B 6035  27.897  38.278  16.636 -0.3147 -0.1933 -0.1043
  252BOLB   C4B 6036  28.185  38.426  16.312 -0.0932 -0.0368  0.0287
  252BOLB   NC2 6037  27.539  40.084  14.420  0.2526 -0.2872  0.3696
  252BOLB   PO2 6038  27.744  40.166  14.793  0.1641 -0.3195 -0.2028
  252BOLB   GL3 6039  27.824  39.768  15.102  0.2456 -0.3747 -0.0283
  252BOLB   GL4 6040  27.631  39.952  15.315 -0.3134 -0.0093  0.1983
  252BOLB   C1C 6041  27.972  39.503  15.369 -0.0265 -0.0843 -0.1331
  252BOLB   C2C 6042  27.993  39.018  15.541 -0.3983  0.0851  0.3595
  252BOLB   C3C 6043  27.950  38.631  15.552  0.1088 -0.0867  0.1073
  252BOLB   C4C 6044  27.905  38.266  15.739  0.1932 -0.2452 -0.0189
  252BOLB   C1D 6045  27.488  39.589  15.544  0.2074 -0.0137  0.1752
  252BOLB   C2D 6046  27.350  39.217  15.871  0.1692  0.0374  0.0074
  252BOLB   C3D 6047  27.620  38.916  16.035  0.2747  0.1723  0.0001
  252BOLB   C4D 6048  27.764  38.660  16.277  0.0358 -0.1147  0.1495
  253BOLB   NC1 6049  22.840  28.816  14.376 -0.1943 -0.0671 -0.1121
  253BOLB   PO1 6050  23.203  29.199  14.371  0.2217 -0.0630 -0.1478
  253BOLB   GL1 6051  23.191  29.186  13.968  0.2148 -0.0317  0.2830
  253BOLB   GL2 6052  23.543  29.118  13.854 -0.1288 -0.2689 -0.2220
  253BOLB   C1A 6053  22.767  29.052  13.760 -0.3969  0.0305  0.1049
  253BOLB   C2A 6054  22.746  29.036  13.334 -0.1470 -0.2527 -0.0554
  253BOLB   C3A 6055  23.060  29.076  13.029  0.0267  0.1030 -0.1075
  253BOLB   C4A 6056  23.109  29.116  12.615 -0.2354 -0.0032 -0.1819
  253BOLB   C1B 6057  23.317  29.085  13.449  0.0026 -0.1478  0.2947
  253BOLB   C2B 6058  23.444  29.405  13.059 -0.0934 -0.4266 -0.1070
  253BOLB   C3B 6059  23.295  29.695  12.756 -0.1155  0.0157  0.2357
  253BOLB   C4B 6060  23.104  29.623  12.365  0.0025 -0.0253 -0.2410
  253BOLB   NC2 6061  23.288  28.127  10.374  0.1218  0.2431  0.3095
  253BOLB   PO2 6062  23.757  28.202  10.446  0.0412 -0.0139 -0.0438
  253BOLB   GL3 6063  23.695  28.290  10.717 -0.1057  0.1559  0.6117
  253BOLB   GL4 6064  23.767  28.124  10.922 -0.0426  0.1762  0.0246
  253BOLB   C1C 6065  23.539  28.562  11.014  0.1286 -0.1325 -0.0864
  253BOLB   C2C 6066  23.314  28.608  11.442  0.1373  0.1337  0.0650
  253BOLB   C3C 6067  23.057  28.767  11.700  0.3874 -0.2278  0.2984
  253BOLB   C4C 6068  23.051  28.852  12.113  0.2019 -0.3760 -0.2683
  253BOLB   C1D 6069  23.899  28.269  11.217  0.3016 -0.0287 -0.1040
  253BOLB   C2D 6070  24.215  28.339  11.263  0.1724 -0.0616  0.1160
  253BOLB   C3D 6071  24.348  28.456  11.638  0.2233  0.1590 -0.0362
  253BOLB   C4D 6072  24.540  28.660  12.014  0.0861 -0.1943 -0.1605
  254BOLB   NC1 6073  19.931  30.441  22.718  0.3453  0.2682  0.2968
  254BOLB   PO1 6074  19.889  30.540  23.122  0.1172 -0.0901 -0.0568
  254BOLB   GL1 6075  19.446  30.691  23.230  0.0981  0.0978  0.1099
  254BOLB   GL2 6076  19.397  30.724  23.601 -0.1716  0.0289  0.0835
  254BOLB   C1A 6077  19.046  30.891  23.063 -0.0369 -0.3799  0.1997
  254BOLB   C2A 6078  18.715  31.133  23.292 -0.2513 -0.1576  0.0311
  254BOLB   C3A 6079  18.179  30.995  23.285 -0.0965 -0.1854  0.1348
  254BOLB   C4A 6080  17.727  31.101  23.121  0.1499  0.0131  0.0390
  254BOLB   C1B 6081  19.134  30.847  23.993  0.3079 -0.0507  0.3571
  254BOLB   C2B 6082  18.755  30.674  24.188 -0.2356  0.0303 -0.1094
  254BOLB   C3B 6083  18.383  30.767  24.532 -0.1105  0.1925  0.2521
  254BOLB   C4B 6084  18.118  30.561  24.786 -0.2515 -0.0490 -0.0485
  254BOLB   NC2 6085  15.991  32.028  23.631 -0.2382  0.2712  0.0281
  254BOLB   PO2 6086  15.951  32.349  23.363 -0.0855  0.2369  0.0325
  254BOLB   GL3 6087  16.372  32.267  23.221 -0.2526 -0.0828 -0.1488
  254BOLB   GL4 6088  16.446  32.528  23.003  0.0444  0.1341  0.3620
  254BOLB   C1C 6089  16.670  32.187  23.310  0.1638 -0.0989  0.2808
  254BOLB   C2C 6090  16.965  32.045  23.181  0.2080 -0.1685 -0.0809
  254BOLB   C3C 6091  17.263  31.747  23.139 -0.1097  0.3039  0.0555
  254BOLB   C4C 6092  17.471  31.340  23.005 -0.1359  0.2093  0.1283
  254BOLB   C1D 6093  16.769  32.347  22.807 -0.0816  0.2134 -0.0910
  254BOLB   C2D 6094  17.243  32.103  22.800  0.1427 -0.1078  0.0713
  254BOLB   C3D 6095  17.590  31.754  22.804 -0.2552 -0.3834 -0.2163
  254BOLB   C4D 6096  17.879  31.507  22.751  0.0041 -0.0051  0.1355
  255BOLB   NC1 6097  32.399  23.589  25.179 -0.4362  0.1489 -0.2775
  255BOLB   PO1 6098  32.561  24.043  25.042  0.0718  0.0506  0.1561
  255BOLB   GL1 6099  32.869  23.669  25.293  0.1590 -0.2528 -0.2520
  255BOLB   GL2 6100  33.108  23.821  25.567  0.0808  0.0902  0.1520
  255BOLB   C1A 6101  33.151  23.346  25.218  0.0609  0.1402  0.2520
  255BOLB   C2A 6102  33.277  23.039  25.322  0.0702  0.4016  0.0651
  255BOLB   C3A 6103  33.527  22.777  25.321  0.1261 -0.0288  0.0678
  255BOLB   C4A 6104  33.781  22.407  25.330 -0.2631 -0.0087  0.1898
  255BOLB   C1B 6105  33.487  23.879  25.581  0.2400 -0.3129  0.0711
  255BOLB   C2B 6106  34.002  23.887  25.755 -0.1571  0.0186 -0.3540
  255BOLB   C3B 6107  34.232  23.693  25.987 -0.0851 -0.1025  0.0765
  255BOLB   C4B 6108  34.383  23.437  26.156  0.1167  0.0871 -0.0232
  255BOLB   NC2 6109  35.435  22.298   0.498  0.1949 -0.0155 -0.0004
  255BOLB   PO2 6110  35.519  22.006   0.179  0.1956 -0.1578  0.1625
  255BOLB   GL3 6111  35.319  21.977  26.746 -0.0929  0.0954  0.0592
  255BOLB   GL4 6112  35.027  22.065   0.079 -0.2478 -0.1494 -0.4692
  255BOLB   C1C 6113  35.117  21.896  26.368  0.1116  0.0120  0.2387
  255BOLB   C2C 6114  34.725  21.789  26.167 -0.1105 -0.0183 -0.0009
  255BOLB   C3C 6115  34.440  22.056  25.880 -0.2461 -0.0468 -0.2463
  255BOLB   C4C 6116  34.152  22.252  25.695  0.4933 -0.4506  0.0417
  255BOLB   C1D 6117  34.734  21.992  26.702  0.2709 -0.5608  0.2018
  255BOLB   C2D 6118  34.305  21.991  26.790 -0.2830 -0.1014 -0.0002
  255BOLB   C3D 6119  33.984  21.865  26.688 -0.0716 -0.0489 -0.2730
  255BOLB   C4D 6120  33.711  22.090  26.490  0.0213  0.0867 -0.3628
  256BOLB   NC1 6121  29.871  25.955   1.367 -0.3337 -0.1631  0.1991
  256BOLB   PO1 6122  30.099  25.697   1.600  0.1375 -0.0033  0.1186
  256BOLB   GL1 6123  29.860  25.395   1.832 -0.0429  0.3041 -0.1634
  256BOLB   GL2 6124  29.637  25.441   1.941  0.2239 -0.0055 -0.0822
  256BOLB   C1A 6125  29.989  25.059   2.138  0.1697 -0.0551 -0.1694
  256BOLB   C2A 6126  30.113  24.799   2.427  0.0496  0.0982  0.2212
  256BOLB   C3A 6127  30.143  24.857   2.933  0.1971 -0.1287  0.0170
  256BOLB   C4A 6128  30.405  24.788   3.212 -0.0453 -0.1356 -0.1192
  256BOLB   C1B 6129  29.401  25.209   2.202  0.1141 -0.1124 -0.2789
  256BOLB   C2B 6130  29.197  24.940   2.465 -0.3881 -0.0348  0.4116
  256BOLB   C3B 6131  29.314  24.889   2.897 -0.3301 -0.2204 -0.1237
  256BOLB   C4B 6132  29.323  24.802   3.427  0.0740 -0.0377  0.1995
  256BOLB   NC2 6133  31.474  23.166   4.782 -0.3300 -0.0454 -0.1643
  256BOLB   PO2 6134  31.070  23.179   4.944  0.0506  0.0490  0.1574
  256BOLB   GL3 6135  31.004  23.356   4.624 -0.0867 -0.1563  0.0436
  256BOLB   GL4 6136  30.744  23.127   4.457  0.1624 -0.0453  0.0927
  256BOLB   C1C 6137  31.095  23.719   4.299 -0.0683  0.0595 -0.1058
  256BOLB   C2C 6138  31.106  23.814   3.821 -0.1953 -0.0095 -0.2131
  256BOLB   C3C 6139  30.936  24.206   3.552 -0.0587  0.1701  0.3789
  256BOLB   C4C 6140  30.609  24.549   3.512 -0.0271 -0.2726 -0.0128
  256BOLB   C1D 6141  30.726  23.380   4.068  0.0262  0.1531  0.6557
  256BOLB   C2D 6142  30.554  23.634   3.693  0.0952  0.0518 -0.1233
  256BOLB   C3D 6143  30.454  24.070   3.465 -0.0026  0.0632  0.1692
  256BOLB   C4D 6144  30.348  24.321   3.120 -0.2672  0.2666  0.2514
  257BOLB   NC1 6145  39.174  35.783  21.524  0.1737 -0.1852 -0.1276
  257BOLB   PO1 6146  38.826  35.999  21.392 -0.2523  0.0380  0.0155
  257BOLB   GL1 6147  38.525  35.736  21.273 -0.2382  0.1197  0.3264
  257BOLB   GL2 6148  38.591  35.468  21.260  0.0264 -0.0653 -0.3786
  257BOLB   C1A 6149  38.130  35.604  21.076  0.0157 -0.1957 -0.2354
  257BOLB   C2A 6150  37.846  35.337  21.420 -0.1449 -0.0985  0.0745
  257BOLB   C3A 6151  37.408  35.211  21.410  0.0945 -0.2121 -0.1480
  257BOLB   C4A 6152  36.944  35.293  21.221  0.2536  0.0132 -0.1859
  257BOLB   C1B 6153  38.296  35.089  21.403 -0.0496 -0.3725  0.2691
  257BOLB   C2B 6154  38.182  34.671  21.396  0.0813 -0.3123  0.1697
  257BOLB   C3B 6155  38.190  34.594  21.902 -0.1532  0.3640  0.3771
  257BOLB   C4B 6156  38.144  34.405  22.296 -0.2387 -0.1435 -0.3903
  257BOLB   NC2 6157  37.093  37.890  21.198  0.0994 -0.1628  0.0870
  257BOLB   PO2 6158  36.735  37.876  21.099 -0.0936 -0.1830  0.0686
  257BOLB   GL3 6159  36.792  37.443  21.040  0.1198 -0.0322  0.1095
  257BOLB   GL4 6160  36.822  37.405  21.348  0.3769 -0.0410  0.0845
  257BOLB   C1C 6161  36.791  36.956  21.066  0.3451  0.1516 -0.3891
  257BOLB   C2C 6162  36.889  36.508  20.986  0.0293 -0.0864  0.0107
  257BOLB   C3C 6163  36.786  36.066  21.065  0.0993  0.1180  0.0955
  257BOLB   C4C 6164  36.971  35.643  20.958  0.2811  0.2245 -0.6378
  257BOLB   C1D 6165  36.424  37.084  21.401 -0.2672 -0.0138 -0.0961
  257BOLB   C2D 6166  36.233  36.802  21.680  0.3363  0.1376 -0.0165
  257BOLB   C3D 6167  36.338  36.447  21.744  0.2275 -0.1083  0.0152
  257BOLB   C4D 6168  36.542  36.051  21.962  0.3200  0.0598  0.1303
  258BOLB   NC1 6169  26.093  33.514  14.478  0.0829 -0.2207 -0.0609
  258BOLB   PO1 6170  26.380  33.786  14.787  0.2994 -0.1366 -0.0384
  258BOLB   GL1 6171  26.001  34.037  14.538  0.3256  0.0250  0.0739
  258BOLB   GL2 6172  26.023  34.352  14.573 -0.2303  0.1059 -0.1359
  258BOLB   C1A 6173  26.075  34.191  14.093  0.1114 -0.0926  0.2491
  258BOLB   C2A 6174  25.917  34.365  13.769  0.0721  0.1588  0.2394
  258BOLB   C3A 6175  25.687  34.585  13.470 -0.0436 -0.0052 -0.3560
  258BOLB   C4A 6176  25.649  34.835  13.083 -0.1372 -0.0873  0.0006
  258BOLB   C1B 6177  25.918  34.649  14.187  0.2066  0.2525 -0.0900
  258BOLB   C2B 6178  25.673  34.985  14.031  0.0662  0.2401 -0.4030
  258BOLB   C3B 6179  25.284  35.188  13.891  0.2172 -0.0438  0.3128
  258BOLB   C4B 6180  24.940  35.283  13.530  0.1064 -0.4098  0.2674
  258BOLB   NC2 6181  25.695  36.620  11.457 -0.0200  0.3137  0.2197
  258BOLB   PO2 6182  25.372  36.326  11.232  0.0404 -0.3116 -0.0752
  258BOLB   GL3 6183  25.647  35.974  11.420 -0.0827  0.0457 -0.1432
  258BOLB   GL4 6184  25.702  35.997  11.774  0.4153  0.1339  0.2357
  258BOLB   C1C 6185  25.643  35.508  11.767  0.0568  0.1011 -0.1369
  258BOLB   C2C 6186  25.538  35.402  12.130 -0.0561  0.1104  0.1957
  258BOLB   C3C 6187  25.739  35.359  12.430  0.1423 -0.1783  0.0668
  258BOLB   C4C 6188  25.750  35.288  12.838  0.1598 -0.0475  0.1476
  258BOLB   C1D 6189  25.494  35.921  12.120  0.0553  0.2857  0.0779
  258BOLB   C2D 6190  25.451  35.785  12.415 -0.0387  0.0195  0.0434
  258BOLB   C3D 6191  25.291  35.408  12.553  0.2977 -0.1181  0.1316
  258BOLB   C4D 6192  25.374  34.968  12.648  0.0338  0.5182 -0.1653
  259BOLB   NC1 6193  35.096  33.321  19.880  0.1914 -0.3080 -0.1802
  259BOLB   PO1 6194  35.284  33.515  20.260 -0.0273  0.1210  0.0420
  259BOLB   GL1 6195  35.684  33.568  20.244 -0.0195  0.2558  0.2478
  259BOLB   GL2 6196  35.637  33.402  19.924 -0.1092 -0.2301 -0.1404
  259BOLB   C1A 6197  36.097  33.418  20.023 -0.1595  0.0761  0.0533
  259BOLB   C2A 6198  36.358  33.481  19.664 -0.0285 -0.1579  0.0531
  259BOLB   C3A 6199  36.586  33.546  19.272  0.1658  0.0573 -0.3579
  259BOLB   C4A 6200  36.877  33.746  18.900  0.2398  0.1885  0.1050
  259BOLB   C1B 6201  35.954  33.315  19.515 -0.0792  0.0029  0.0492
  259BOLB   C2B 6202  36.206  33.311  19.144  0.2802 -0.2118  0.2574
  259BOLB   C3B 6203  36.436  33.311  18.767 -0.0289 -0.0406  0.0195
  259BOLB   C4B 6204  36.922  33.363  18.606 -0.1427  0.1653 -0.0868
  259BOLB   NC2 6205  39.070  34.817  18.690 -0.1132  0.1043  0.2405
  259BOLB   PO2 6206  38.676  34.728  18.989 -0.2294  0.0566 -0.0646
  259BOLB   GL3 6207  38.288  34.802  18.865 -0.0446 -0.1881  0.0459
  259BOLB   GL4 6208  38.094  34.702  18.549  0.0469  0.1943 -0.3747
  259BOLB   C1C 6209  37.881  34.827  19.076 -0.2862  0.1980 -0.0546
  259BOLB   C2C 6210  37.540  34.787  18.690  0.2681 -0.0508  0.1056
  259BOLB   C3C 6211  37.252  34.513  18.638  0.0540 -0.1560 -0.0206
  259BOLB   C4C 6212  37.058  34.192  18.838 -0.1248 -0.1243 -0.3596
  259BOLB   C1D 6213  37.702  34.332  18.662 -0.4198 -0.0839 -0.2520
  259BOLB   C2D 6214  37.501  33.949  18.790 -0.1704  0.3756 -0.0122
  259BOLB   C3D 6215  37.389  34.063  19.192 -0.2436 -0.2829  0.2435
  259BOLB   C4D 6216  36.942  33.968  19.355  0.0329  0.0532  0.1026
  260BOLB   NC1 6217  19.650  31.833  21.804 -0.3523  0.1879  0.0638
  260BOLB   PO1 6218  19.705  32.061  21.485 -0.0870 -0.1000 -0.2341
  260BOLB   GL1 6219  19.305  31.976  21.433 -0.3561  0.2915 -0.0360
  260BOLB   GL2 6220  19.115  31.926  21.752  0.0890 -0.2849  0.4259
  260BOLB   C1A 6221  18.913  32.244  21.366 -0.2513  0.1125 -0.0475
  260BOLB   C2A 6222  18.555  32.432  21.244  0.2537 -0.1455 -0.1696
  260BOLB   C3A 6223  18.115  32.254  21.420 -0.0238  0.0932  0.2413
  260BOLB   C4A 6224  17.835  31.954  21.622 -0.4555 -0.0643 -0.0610
  260BOLB   C1B 6225  18.784  31.695  21.606 -0.2311  0.1018 -0.0151
  260BOLB   C2B 6226  18.425  31.847  21.931  0.0459 -0.0661  0.3414
  260BOLB   C3B 6227  17.961  31.710  22.037 -0.2383 -0.0614  0.3060
  260BOLB   C4B 6228  17.709  31.315  21.896 -0.0408 -0.1808  0.1247
  260BOLB   NC2 6229  15.274  31.915  22.072  0.1285 -0.2707 -0.0086
  260BOLB   PO2 6230  15.642  32.008  22.422 -0.0492 -0.2645  0.1713
  260BOLB   GL3 6231  15.993  31.853  22.403  0.1620  0.4537  0.1100
  260BOLB   GL4 6232  15.983  31.719  22.656 -0.1076 -0.2062 -0.0404
  260BOLB   C1C 6233  16.431  31.862  22.222 -0.1169  0.1236 -0.2143
  260BOLB   C2C 6234  16.813  31.987  22.398 -0.0020 -0.2788 -0.2199
  260BOLB   C3C 6235  17.174  31.873  22.193 -0.0839  0.2822  0.2356
  260BOLB   C4C 6236  17.481  31.782  21.900 -0.2670  0.2832 -0.0258
  260BOLB   C1D 6237  15.975  31.329  22.913  0.1115  0.0059  0.0084
  260BOLB   C2D 6238  16.055  30.864  22.999  0.0353  0.0161  0.1821
  260BOLB   C3D 6239  16.017  30.606  23.353  0.4951  0.1618  0.1586
  260BOLB   C4D 6240  15.806  30.435  23.831 -0.2730 -0.3834  0.0871
  261BOLB   NC1 6241  34.558  25.178  21.337 -0.0046  0.1515 -0.0268
  261BOLB   PO1 6242  34.478  25.168  20.879 -0.1150 -0.3401  0.0061
  261BOLB   GL1 6243  34.878  25.167  20.903  0.0212 -0.0675  0.1935
  261BOLB   GL2 6244  35.013  25.223  20.642 -0.1705 -0.4648 -0.1562
  261BOLB   C1A 6245  35.068  24.807  20.922  0.0283  0.0275 -0.1611
  261BOLB   C2A 6246  35.386  24.469  20.938  0.2973 -0.0069 -0.0283
  261BOLB   C3A 6247  35.675  24.303  20.742 -0.0521  0.2180  0.0103
  261BOLB   C4A 6248  35.741  23.960  20.376 -0.0592  0.0987  0.2160
  261BOLB   C1B 6249  35.418  25.052  20.705  0.0171 -0.0695 -0.2569
  261BOLB   C2B 6250  35.778  24.755  20.717 -0.0877  0.2471  0.0433
  261BOLB   C3B 6251  36.147  24.586  20.769 -0.2493 -0.1107  0.1381
  261BOLB   C4B 6252  36.447  24.376  21.105  0.1488 -0.0378  0.0179
  261BOLB   NC2 6253  36.980  21.782  19.331 -0.1276 -0.2297 -0.0404
  261BOLB   PO2 6254  37.141  22.094  19.078  0.1786 -0.2035  0.1114
  261BOLB   GL3 6255  36.824  22.321  19.428  0.0107 -0.2916  0.0780
  261BOLB   GL4 6256  36.591  22.094  19.575  0.0394  0.1701 -0.1459
  261BOLB   C1C 6257  36.592  22.620  19.725 -0.2642 -0.1448 -0.2242
  261BOLB   C2C 6258  36.256  22.819  19.929  0.2806  0.0838  0.1018
  261BOLB   C3C 6259  35.898  23.102  19.976 -0.2525  0.0108 -0.0692
  261BOLB   C4C 6260  35.779  23.519  20.151 -0.0694 -0.1172 -0.0029
  261BOLB   C1D 6261  36.284  22.249  19.745 -0.2374  0.1796 -0.1596
  261BOLB   C2D 6262  35.961  22.077  19.932  0.4134 -0.0396  0.0858
  261BOLB   C3D 6263  35.571  22.321  20.002  0.1223  0.1340 -0.1047
  261BOLB   C4D 6264  35.257  22.478  20.258 -0.1394  0.0352 -0.0254
  262BOLB   NC1 6265  29.667  37.468  18.990  0.0688 -0.0025 -0.1536
  262BOLB   PO1 6266  29.893  37.784  19.152 -0.1175 -0.1027  0.0505
  262BOLB   GL1 6267  30.004  38.150  18.837 -0.2485 -0.0012 -0.0039
  262BOLB   GL2 6268  30.361  38.038  18.791  0.1523 -0.2771 -0.0878
  262BOLB   C1A 6269  30.317  38.512  18.709 -0.1036 -0.1608 -0.1518
  262BOLB   C2A 6270  30.564  38.610  18.453  0.0209  0.1790  0.2091
  262BOLB   C3A 6271  30.730  38.663  18.053  0.0203 -0.0353  0.0453
  262BOLB   C4A 6272  30.767  39.031  17.821 -0.1513  0.0706 -0.3073
  262BOLB   C1B 6273  30.739  38.113  18.564 -0.1553 -0.4028 -0.1848
  262BOLB   C2B 6274  31.097  38.118  18.674 -0.0983 -0.2855  0.1083
  262BOLB   C3B 6275  31.457  38.169  18.545  0.1744 -0.2061  0.2976
  262BOLB   C4B 6276  31.685  38.537  18.289  0.0307  0.1141  0.2910
  262BOLB   NC2 6277  31.413  41.646  17.215  0.3036  0.1947  0.0185
  262BOLB   PO2 6278  31.430  41.181  17.193 -0.0647 -0.2116 -0.0059
  262BOLB   GL3 6279  31.453  40.779  17.300 -0.2089 -0.0152  0.2821
  262BOLB   GL4 6280  31.362  40.502  17.108  0.3129 -0.2471  0.1123
  262BOLB   C1C 6281  31.196  40.472  17.628  0.0953  0.1244 -0.1990
  262BOLB   C2C 6282  31.295  40.030  17.788  0.0763  0.1815 -0.1256
  262BOLB   C3C 6283  30.844  39.827  17.864  0.0478 -0.2174 -0.1099
  262BOLB   C4C 6284  30.724  39.438  18.033 -0.0050 -0.1847 -0.0790
  262BOLB   C1D 6285  31.392  40.118  17.332  0.0061 -0.0225 -0.0866
  262BOLB   C2D 6286  30.994  39.923  17.404  0.0563  0.2299 -0.4995
  262BOLB   C3D 6287  30.912  39.490  17.494 -0.7141 -0.2528 -0.1078
  262BOLB   C4D 6288  30.959  39.079  17.395  0.2532 -0.1285  0.0979
  263BOLB   NC1 6289  29.870  36.684  16.990  0.1039 -0.1309 -0.0062
  263BOLB   PO1 6290  29.627  36.560  16.624  0.2213  0.0130 -0.0912
  263BOLB   GL1 6291  29.611  36.938  16.409  0.0660 -0.1642 -0.0604
  263BOLB   GL2 6292  29.442  37.106  16.538  0.0843  0.2387 -0.0586
  263BOLB   C1A 6293  29.834  37.067  16.152  0.1757  0.3501 -0.0497
  263BOLB   C2A 6294  30.195  37.378  16.026 -0.0640 -0.0281 -0.1207
  263BOLB   C3A 6295  30.484  37.614  15.716  0.0120  0.0893  0.0398
  263BOLB   C4A 6296  30.400  37.968  15.379  0.2891 -0.1362 -0.0717
  263BOLB   C1B 6297  29.405  37.343  16.172  0.0468 -0.2129 -0.0892
  263BOLB   C2B 6298  29.347  37.671  15.799 -0.0001 -0.1197  0.1581
  263BOLB   C3B 6299  29.452  38.089  15.910 -0.0433 -0.2077  0.4887
  263BOLB   C4B 6300  29.582  38.464  16.064  0.0439 -0.0875  0.0438
  263BOLB   NC2 6301  30.003  40.290  15.162 -0.0657 -0.1864 -0.1692
  263BOLB   PO2 6302  30.352  40.127  15.392 -0.1791 -0.1076  0.0283
  263BOLB   GL3 6303  30.588  39.771  15.369 -0.0302  0.2878 -0.2834
  263BOLB   GL4 6304  30.616  39.594  15.715 -0.0045 -0.0696 -0.0522
  263BOLB   C1C 6305  30.595  39.462  15.088 -0.1246  0.0754 -0.3078
  263BOLB   C2C 6306  30.607  39.073  14.995  0.2547 -0.0231  0.0199
  263BOLB   C3C 6307  30.432  38.749  15.002  0.0026  0.1100 -0.0079
  263BOLB   C4C 6308  30.434  38.338  15.201 -0.0087 -0.1291  0.2880
  263BOLB   C1D 6309  30.318  39.368  15.594 -0.0419  0.0785  0.2224
  263BOLB   C2D 6310  30.110  38.998  15.387  0.2888 -0.0542  0.1231
  263BOLB   C3D 6311  30.060  38.653  15.384  0.1749 -0.2911 -0.1016
  263BOLB   C4D 6312  29.784  38.243  15.473  0.1768 -0.1624  0.2755
  264BOLB   NC1 6313  29.584  26.999  14.272  0.3031 -0.4668  0.1467
  264BOLB   PO1 6314  29.309  27.316  14.187  0.0358  0.0610  0.4043
  264BOLB   GL1 6315  29.261  27.248  13.788  0.0661  0.4068 -0.1845
  264BOLB   GL2 6316  28.980  27.291  13.642  0.2966 -0.1038 -0.1372
  264BOLB   C1A 6317  29.385  27.383  13.424 -0.2156  0.0958 -0.0430
  264BOLB   C2A 6318  29.453  27.310  13.056 -0.0589 -0.1326 -0.3229
  264BOLB   C3A 6319  29.508  27.003  12.735  0.3355 -0.2865 -0.0225
  264BOLB   C4A 6320  29.668  26.994  12.271 -0.0561  0.1552  0.0090
  264BOLB   C1B 6321  29.001  27.122  13.265 -0.2880  0.0820 -0.0480
  264BOLB   C2B 6322  29.216  26.749  13.023 -0.1087  0.2175  0.3355
  264BOLB   C3B 6323  29.254  26.656  12.545  0.0781 -0.3077 -0.1929
  264BOLB   C4B 6324  29.380  26.516  12.190 -0.2868  0.1874  0.0262
  264BOLB   NC2 6325  28.973  26.343  10.179 -0.3648  0.0608  0.0018
  264BOLB   PO2 6326  28.727  26.692  10.113  0.1522  0.1502  0.5743
  264BOLB   GL3 6327  28.824  26.895  10.498  0.0910 -0.0230 -0.0531
  264BOLB   GL4 6328  28.589  26.818  10.567  0.1252 -0.2058  0.1589
  264BOLB   C1C 6329  28.951  27.189  10.864 -0.1926  0.2075 -0.0966
  264BOLB   C2C 6330  29.336  27.301  11.097  0.1025  0.3036  0.1130
  264BOLB   C3C 6331  29.559  27.069  11.436 -0.2130 -0.0043 -0.2123
  264BOLB   C4C 6332  29.641  26.916  11.888 -0.2133 -0.4678 -0.3350
  264BOLB   C1D 6333  28.530  26.702  11.043  0.0840 -0.2402  0.1264
  264BOLB   C2D 6334  28.712  26.584  11.456  0.4490 -0.1166  0.1622
  264BOLB   C3D 6335  28.585  26.138  11.566 -0.1479  0.0433  0.0017
  264BOLB   C4D 6336  28.818  25.811  11.611 -0.1780 -0.4725  0.1691
  265BOLB   NC1 6337  31.590  33.787  15.538  0.2951  0.1942 -0.2216
  265BOLB   PO1 6338  31.633  33.415  15.361 -0.2165  0.0997 -0.0702
  265BOLB   GL1 6339  31.835  33.616  14.995  0.0021  0.1219 -0.4742
  265BOLB   GL2 6340  31.671  33.877  14.940  0.1539 -0.1130  0.0711
  265BOLB   C1A 6341  32.050  33.577  14.628  0.1282  0.0253 -0.0781
  265BOLB   C2A 6342  32.355  33.613  14.302 -0.2459  0.0095  0.3066
  265BOLB   C3A 6343  32.599  33.781  14.103 -0.4372 -0.2005 -0.3182
  265BOLB   C4A 6344  32.767  33.825  13.709 -0.1105  0.1248  0.0540
  265BOLB   C1B 6345  31.910  34.049  14.591 -0.1856  0.1398  0.1385
  265BOLB   C2B 6346  32.094  34.443  14.655  0.0232  0.3225 -0.1540
  265BOLB   C3B 6347  32.459  34.686  14.498 -0.2471 -0.3271 -0.0193
  265BOLB   C4B 6348  32.857  34.926  14.638  0.2442 -0.1466  0.0041
  265BOLB   NC2 6349  34.404  34.346  12.369  0.3619 -0.0347 -0.0643
  265BOLB   PO2 6350  34.036  34.491  12.032  0.2463 -0.0571 -0.2315
  265BOLB   GL3 6351  33.834  34.152  12.322 -0.2032 -0.1933  0.1365
  265BOLB   GL4 6352  34.078  34.128  12.668 -0.2369 -0.1541 -0.1640
  265BOLB   C1C 6353  33.531  34.046  12.578 -0.2866  0.4311 -0.0603
  265BOLB   C2C 6354  33.314  33.765  12.860 -0.0745 -0.2837  0.2889
  265BOLB   C3C 6355  33.184  33.546  13.215 -0.0807  0.0783  0.2119
  265BOLB   C4C 6356  32.912  33.471  13.573  0.0303  0.0293 -0.1331
  265BOLB   C1D 6357  33.963  33.940  13.043 -0.1339  0.0970 -0.2960
  265BOLB   C2D 6358  33.626  33.983  13.364 -0.4479  0.0305  0.5123
  265BOLB   C3D 6359  33.356  33.738  13.602  0.0076 -0.0935  0.3242
  265BOLB   C4D 6360  33.179  33.746  13.959 -0.0265 -0.0843  0.0349
  266BOLB   NC1 6361  28.438  35.049   0.796  0.1336  0.0342  0.2478
  266BOLB   PO1 6362  28.504  34.730   1.147 -0.1516 -0.1398 -0.0238
  266BOLB   GL1 6363  28.542  34.799   1.635  0.0943  0.1090  0.0112
  266BOLB   GL2 6364  28.795  34.719   1.829 -0.0756  0.1729 -0.3403
  266BOLB   C1A 6365  28.300  35.095   1.808 -0.2513  0.0834  0.0354
  266BOLB   C2A 6366  28.210  35.323   2.130 -0.2156  0.2918  0.0752
  266BOLB   C3A 6367  28.013  35.430   2.534  0.2063 -0.2495 -0.1926
  266BOLB   C4A 6368  28.228  35.298   3.014 -0.5653 -0.1303 -0.0211
  266BOLB   C1B 6369  28.764  34.762   2.276  0.3755  0.0029 -0.0001
  266BOLB   C2B 6370  28.784  34.672   2.628  0.0647 -0.1305 -0.3276
  266BOLB   C3B 6371  28.728  34.537   3.096 -0.1574  0.0407 -0.0082
  266BOLB   C4B 6372  28.382  34.254   3.181  0.1406  0.0947 -0.0461
  266BOLB   NC2 6373  27.372  35.674   5.415  0.2292  0.1298  0.1862
  266BOLB   PO2 6374  27.707  35.531   5.236 -0.1160 -0.0677  0.2163
  266BOLB   GL3 6375  27.604  35.169   4.991  0.0270  0.3583 -0.0031
  266BOLB   GL4 6376  27.378  35.152   5.213 -0.1172 -0.0553  0.2696
  266BOLB   C1C 6377  27.698  34.981   4.621  0.3466  0.2236 -0.1815
  266BOLB   C2C 6378  27.773  34.986   4.114  0.0089  0.1671 -0.0420
  266BOLB   C3C 6379  27.886  35.142   3.739 -0.0815 -0.4050 -0.0682
  266BOLB   C4C 6380  28.195  35.369   3.478 -0.0507  0.1034  0.1293
  266BOLB   C1D 6381  27.183  35.085   4.788  0.1497 -0.2013 -0.0448
  266BOLB   C2D 6382  27.321  35.140   4.319 -0.0271  0.0805  0.3166
  266BOLB   C3D 6383  27.349  35.022   3.883  0.0269 -0.1116 -0.0912
  266BOLB   C4D 6384  27.635  34.672   3.596 -0.0777  0.0821 -0.3556
  267BOLB   NC1 6385  22.341  35.933  20.887  0.1781  0.0356 -0.1033
  267BOLB   PO1 6386  22.278  35.656  20.543 -0.0603  0.1389  0.3357
  267BOLB   GL1 6387  22.363  36.028  20.393  0.0115 -0.3948  0.1205
  267BOLB   GL2 6388  22.579  36.287  20.613  0.0085  0.1435  0.1872
  267BOLB   C1A 6389  22.281  36.469  20.226 -0.4463 -0.0774 -0.0644
  267BOLB   C2A 6390  21.968  36.626  20.052 -0.0106 -0.0962 -0.2551
  267BOLB   C3A 6391  21.786  37.032  19.839  0.2954 -0.1088 -0.0668
  267BOLB   C4A 6392  21.465  37.319  19.539 -0.1674  0.1953  0.2913
  267BOLB   C1B 6393  22.626  36.754  20.463 -0.0925 -0.2624 -0.1990
  267BOLB   C2B 6394  22.451  37.090  20.457  0.1520 -0.4230  0.0959
  267BOLB   C3B 6395  22.123  37.487  20.583  0.0416 -0.1981  0.1438
  267BOLB   C4B 6396  22.134  37.687  20.937  0.0191 -0.0390  0.1334
  267BOLB   NC2 6397  20.013  39.021  20.185 -0.0093  0.2717  0.0527
  267BOLB   PO2 6398  19.948  38.837  19.733 -0.0499  0.2139 -0.0158
  267BOLB   GL3 6399  20.316  38.619  19.532  0.2354  0.4080  0.0480
  267BOLB   GL4 6400  20.433  38.195  19.354  0.2668 -0.1326  0.2230
  267BOLB   C1C 6401  20.764  38.677  19.656  0.0335 -0.0789  0.0700
  267BOLB   C2C 6402  21.133  38.410  19.750  0.2972  0.3875  0.0081
  267BOLB   C3C 6403  21.380  38.027  19.753 -0.0787  0.0338  0.1928
  267BOLB   C4C 6404  21.564  37.747  19.476 -0.0398  0.3284  0.0109
  267BOLB   C1D 6405  20.588  37.860  19.645  0.2247 -0.2662  0.0321
  267BOLB   C2D 6406  20.797  37.838  19.934  0.1292  0.1304 -0.1190
  267BOLB   C3D 6407  21.234  37.574  20.022  0.0101 -0.1904  0.0140
  267BOLB   C4D 6408  21.549  37.542  19.985  0.0612 -0.3338 -0.0966
  268BOLB   NC1 6409  33.135  26.173  16.991 -0.0280 -0.4145  0.0682
  268BOLB   PO1 6410  33.289  26.593  17.059  0.0908  0.1669 -0.0967
  268BOLB   GL1 6411  33.645  26.507  16.937  0.0051  0.1625 -0.0310
  268BOLB   GL2 6412  33.717  26.232  16.997  0.0003  0.0379  0.5043
  268BOLB   C1A 6413  34.129  26.455  17.006  0.0422 -0.1233  0.1213
  268BOLB   C2A 6414  34.512  26.192  17.059  0.0078  0.0675 -0.0139
  268BOLB   C3A 6415  34.686  25.777  17.126 -0.2126 -0.1560 -0.2524
  268BOLB   C4A 6416  35.047  25.638  16.972 -0.1220 -0.0343  0.1315
  268BOLB   C1B 6417  34.059  26.056  17.351 -0.0998  0.0748 -0.0741
  268BOLB   C2B 6418  34.556  26.121  17.521  0.0143 -0.1666 -0.1288
  268BOLB   C3B 6419  34.908  25.758  17.589 -0.1420 -0.1037  0.2218
  268BOLB   C4B 6420  35.443  25.727  17.501  0.0175  0.0020 -0.0469
  268BOLB   NC2 6421  36.794  24.578  15.489 -0.0396 -0.0674 -0.2099
  268BOLB   PO2 6422  36.595  24.217  15.606  0.2806 -0.2707  0.0619
  268BOLB   GL3 6423  36.369  24.494  16.062  0.0015 -0.0015 -0.2263
  268BOLB   GL4 6424  36.202  24.620  15.810  0.0145 -0.1204  0.1584
  268BOLB   C1C 6425  36.222  24.494  16.455  0.1201  0.2787  0.2813
  268BOLB   C2C 6426  35.938  24.667  16.680  0.1139 -0.3532 -0.0280
  268BOLB   C3C 6427  35.634  25.029  16.877  0.0089  0.1673 -0.1076
  268BOLB   C4C 6428  35.409  25.316  16.768 -0.1422  0.1477  0.0759
  268BOLB   C1D 6429  35.835  24.669  15.956  0.2126 -0.0033  0.0684
  268BOLB   C2D 6430  35.683  24.915  16.258 -0.1570  0.1058  0.2044
  268BOLB   C3D 6431  35.314  24.924  16.403 -0.3052 -0.4278  0.1785
  268BOLB   C4D 6432  34.898  25.130  16.577  0.1235  0.1843 -0.0354
  269BOLB   NC1 6433  21.803  33.278  17.051 -0.0152 -0.0726 -0.3597
  269BOLB   PO1 6434  21.561  32.988  17.114 -0.2991  0.3256 -0.1868
  269BOLB   GL1 6435  21.323  33.156  16.961 -0.0232 -0.0386 -0.1870
  269BOLB   GL2 6436  21.451  33.319  16.673 -0.2256 -0.0984  0.2389
  269BOLB   C1A 6437  20.944  33.192  16.839 -0.1143  0.1095 -0.1944
  269BOLB   C2A 6438  20.535  33.352  16.689  0.1581  0.3352  0.1625
  269BOLB   C3A 6439  20.148  33.441  16.508  0.2530 -0.0923 -0.1009
  269BOLB   C4A 6440  19.748  33.369  16.323 -0.0932  0.5904  0.0721
  269BOLB   C1B 6441  21.121  33.453  16.445 -0.0055  0.1013 -0.1195
  269BOLB   C2B 6442  20.837  33.558  16.136  0.1589  0.0503  0.1130
  269BOLB   C3B 6443  20.608  33.583  15.734  0.0087  0.1224  0.1365
  269BOLB   C4B 6444  20.478  33.911  15.390 -0.0123  0.1632  0.3246
  269BOLB   NC2 6445  17.994  34.633  15.827 -0.2206  0.0022 -0.3437
  269BOLB   PO2 6446  17.730  34.347  15.696 -0.2766 -0.1696 -0.0968
  269BOLB   GL3 6447  18.046  34.133  15.578 -0.0607  0.1264  0.2901
  269BOLB   GL4 6448  18.038  33.813  15.725  0.1616 -0.0550 -0.1279
  269BOLB   C1C 6449  18.385  34.112  15.890  0.2122 -0.0001 -0.1916
  269BOLB   C2C 6450  18.666  33.843  16.083 -0.4811  0.1809  0.0915
  269BOLB   C3C 6451  19.030  33.790  16.331 -0.1896 -0.2410 -0.2518
  269BOLB   C4C 6452  19.351  33.460  16.252  0.4302 -0.2933 -0.3169
  269BOLB   C1D 6453  18.474  33.616  15.728  0.1245 -0.3036 -0.2183
  269BOLB   C2D 6454  18.765  33.385  16.034 -0.0274 -0.0010  0.2427
  269BOLB   C3D 6455  18.887  33.202  16.396  0.1177 -0.0297  0.2750
  269BOLB   C4D 6456  19.290  33.063  16.580  0.1522  0.1794 -0.0763
  270BOLB   NC1 6457  28.076  22.927  16.604 -0.3740  0.2086  0.0430
  270BOLB   PO1 6458  28.293  22.843  17.008  0.2431 -0.2498 -0.0083
  270BOLB   GL1 6459  28.217  22.494  16.593 -0.3778 -0.0347  0.0733
  270BOLB   GL2 6460  28.435  22.394  16.401  0.0073  0.0020  0.1983
  270BOLB   C1A 6461  28.064  22.090  16.438 -0.0915 -0.2137 -0.0098
  270BOLB   C2A 6462  27.895  21.751  16.423 -0.1611  0.1647 -0.1355
  270BOLB   C3A 6463  27.924  21.263  16.299  0.0063  0.2270 -0.0881
  270BOLB   C4A 6464  28.044  20.761  16.481 -0.1765  0.0340  0.2133
  270BOLB   C1B 6465  28.284  22.146  16.022  0.2263 -0.0317  0.0933
  270BOLB   C2B 6466  28.391  21.927  15.642 -0.2474  0.0891 -0.0520
  270BOLB   C3B 6467  28.471  21.723  15.166  0.0786 -0.0334 -0.0469
  270BOLB   C4B 6468  28.735  21.453  15.040  0.1136  0.3957 -0.2379
  270BOLB   NC2 6469  28.400  18.625  15.761  0.0468  0.2219 -0.1346
  270BOLB   PO2 6470  28.782  18.648  15.594  0.1910  0.1138  0.0870
  270BOLB   GL3 6471  28.663  19.066  15.592 -0.0289 -0.2402  0.0321
  270BOLB   GL4 6472  28.435  19.229  15.313 -0.3555 -0.2432 -0.1457
  270BOLB   C1C 6473  28.524  19.273  15.900  0.0949 -0.3119  0.1494
  270BOLB   C2C 6474  28.648  19.580  16.166  0.0031  0.1406 -0.0175
  270BOLB   C3C 6475  28.455  19.991  16.466  0.2053  0.1220 -0.3885
  270BOLB   C4C 6476  28.292  20.441  16.539  0.3002  0.2612  0.0670
  270BOLB   C1D 6477  28.205  19.551  15.653  0.0201 -0.0450  0.0268
  270BOLB   C2D 6478  28.193  19.757  16.088  0.2950 -0.3254  0.1082
  270BOLB   C3D 6479  28.022  19.670  16.577 -0.0271 -0.1377  0.1094
  270BOLB   C4D 6480  28.256  19.709  16.871 -0.0343 -0.3854  0.1292
  271BOLB   NC1 6481  22.740  30.538   1.175  0.1158  0.1073  0.0215
  271BOLB   PO1 6482  22.396  30.585   1.500 -0.0836  0.0455  0.0723
  271BOLB   GL1 6483  22.271  30.694   1.963 -0.0516  0.2609  0.0917
  271BOLB   GL2 6484  22.261  31.048   1.887 -0.0245  0.2338 -0.1701
  271BOLB   C1A 6485  22.118  30.836   2.391  0.1147 -0.1442  0.0372
  271BOLB   C2A 6486  21.786  30.927   2.839 -0.0798  0.0104  0.2419
  271BOLB   C3A 6487  21.401  30.909   3.057  0.0916 -0.1141  0.0925
  271BOLB   C4A 6488  21.307  31.231   3.313  0.2177  0.2166  0.0669
  271BOLB   C1B 6489  21.852  31.100   2.063  0.1898  0.0052 -0.0944
  271BOLB   C2B 6490  21.513  30.912   2.400  0.1680  0.0873  0.2319
  271BOLB   C3B 6491  21.101  31.045   2.610  0.0861 -0.1311 -0.1825
  271BOLB   C4B 6492  20.881  31.215   2.953 -0.1048  0.0846  0.0874
  271BOLB   NC2 6493  19.920  32.185   4.960  0.0625 -0.0620  0.0657
  271BOLB   PO2 6494  19.718  32.260   4.609 -0.0813  0.0670 -0.2057
  271BOLB   GL3 6495  19.641  32.106   4.259 -0.0777  0.1880 -0.0349
  271BOLB   GL4 6496  19.779  32.270   4.065 -0.0186 -0.0403 -0.2146
  271BOLB   C1C 6497  20.014  31.883   3.992 -0.0012 -0.1608 -0.1500
  271BOLB   C2C 6498  20.357  31.933   3.768  0.0887 -0.1103  0.3210
  271BOLB   C3C 6499  20.517  31.665   3.465 -0.0372 -0.0830 -0.0398
  271BOLB   C4C 6500  20.924  31.400   3.457  0.0483 -0.2589 -0.1132
  271BOLB   C1D 6501  20.269  32.436   3.957  0.0443  0.2652  0.1701
  271BOLB   C2D 6502  20.609  32.497   3.709  0.1005 -0.3550 -0.1173
  271BOLB   C3D 6503  20.946  32.420   3.350  0.1823  0.2141  0.1734
  271BOLB   C4D 6504  21.280  32.625   3.102  0.0961  0.4291 -0.0600
  272BOLB   NC1 6505  33.317  27.916  26.622 -0.0982 -0.1260  0.0858
  272BOLB   PO1 6506  33.433  27.540  26.478  0.1953  0.0688 -0.2580
  272BOLB   GL1 6507  33.747  27.480  26.821 -0.1761 -0.0922 -0.1106
  272BOLB   GL2 6508  34.030  27.554  26.619 -0.2866 -0.1156 -0.0181
  272BOLB   C1A 6509  34.083  27.449   0.204 -0.0265 -0.0583  0.2528
  272BOLB   C2A 6510  34.395  27.394   0.558  0.0200  0.2111 -0.0897
  272BOLB   C3A 6511  34.577  27.272   0.837 -0.0215 -0.3686  0.3112
  272BOLB   C4A 6512  34.856  27.256   1.113  0.2538  0.2212  0.3557
  272BOLB   C1B 6513  34.426  27.460  26.780 -0.0813 -0.0258 -0.0125
  272BOLB   C2B 6514  34.598  27.260   0.127 -0.0824 -0.2707 -0.0269
  272BOLB   C3B 6515  34.854  27.178   0.410  0.2617 -0.3045  0.1033
  272BOLB   C4B 6516  35.003  26.840   0.687 -0.1167  0.1859 -0.2598
  272BOLB   NC2 6517  36.987  28.027   2.594 -0.0299  0.0647 -0.1128
  272BOLB   PO2 6518  36.865  27.639   2.417 -0.0046 -0.0062 -0.0094
  272BOLB   GL3 6519  36.539  27.673   2.194  0.1150 -0.1574  0.0885
  272BOLB   GL4 6520  36.565  27.759   1.835 -0.0368 -0.1485 -0.3941
  272BOLB   C1C 6521  36.102  27.635   2.199 -0.2825  0.2776 -0.1259
  272BOLB   C2C 6522  35.903  27.692   1.805 -0.3300  0.0218  0.0889
  272BOLB   C3C 6523  35.574  27.581   1.598  0.3084 -0.2408 -0.0651
  272BOLB   C4C 6524  35.184  27.446   1.386 -0.0813  0.2042  0.0482
  272BOLB   C1D 6525  36.211  28.044   1.906  0.0546 -0.0163 -0.2142
  272BOLB   C2D 6526  35.976  28.087   1.546 -0.1419  0.1734  0.0527
  272BOLB   C3D 6527  35.856  28.079   1.034 -0.0370  0.3336  0.0127
  272BOLB   C4D 6528  35.695  28.181   0.674  0.3580 -0.2060  0.1443
  273BOLB   NC1 6529  32.306  34.555  25.673 -0.1423  0.0525 -0.2620
  273BOLB   PO1 6530  32.342  34.987  25.848 -0.3691 -0.1308  0.3530
  273BOLB   GL1 6531  32.442  35.363  26.098  0.1377 -0.1652 -0.3318
  273BOLB   GL2 6532  32.338  35.349  26.431 -0.1011 -0.0182 -0.2300
  273BOLB   C1A 6533  32.615  35.760  26.248 -0.2943 -0.1238 -0.2155
  273BOLB   C2A 6534  32.744  36.044  26.547 -0.1878 -0.2017  0.0604
  273BOLB   C3A 6535  32.832  36.398  26.734 -0.0654 -0.1234  0.0280
  273BOLB   C4A 6536  32.801  36.821  26.775  0.4549  0.2156 -0.1106
  273BOLB   C1B 6537  32.679  35.458  26.698  0.0132 -0.2133 -0.0510
  273BOLB   C2B 6538  32.959  35.758   0.071  0.1375  0.1379  0.0235
  273BOLB   C3B 6539  33.115  36.106   0.132  0.0309 -0.0254  0.0235
  273BOLB   C4B 6540  33.495  36.325   0.156 -0.1481 -0.0756 -0.0288
  273BOLB   NC2 6541  33.611  37.959   1.671 -0.0469 -0.0254 -0.2290
  273BOLB   PO2 6542  33.334  38.163   1.680 -0.4336 -0.0256  0.0588
  273BOLB   GL3 6543  33.124  37.959   1.428  0.0366 -0.0805 -0.0662
  273BOLB   GL4 6544  32.769  38.148   1.475  0.2552  0.2219 -0.2149
  273BOLB   C1C 6545  32.900  37.741   1.025 -0.0221 -0.0321  0.1918
  273BOLB   C2C 6546  32.577  37.654   0.739  0.1704 -0.1895  0.2973
  273BOLB   C3C 6547  32.476  37.485   0.374  0.2332 -0.2522  0.1088
  273BOLB   C4C 6548  32.768  37.188   0.092 -0.2000 -0.1159 -0.0009
  273BOLB   C1D 6549  32.595  38.206   1.101 -0.1664  0.0122 -0.0272
  273BOLB   C2D 6550  32.614  38.145   0.584 -0.0204 -0.1004  0.1301
  273BOLB   C3D 6551  32.436  37.929   0.216 -0.1221 -0.3709 -0.2274
  273BOLB   C4D 6552  32.317  37.937  26.750  0.3144 -0.0988  0.0351
  274BOLB   NC1 6553  23.118  35.969  19.693  0.4169  0.0930  0.0389
  274BOLB   PO1 6554  22.835  35.667  19.651  0.0951  0.1211  0.1478
  274BOLB   GL1 6555  22.620  36.067  19.726 -0.2843  0.1824  0.0816
  274BOLB   GL2 6556  22.708  36.161  19.451  0.1040 -0.0701  0.3243
  274BOLB   C1A 6557  22.298  36.302  19.735  0.3851 -0.0995  0.1154
  274BOLB   C2A 6558  21.761  36.334  19.711 -0.1840 -0.0571  0.2037
  274BOLB   C3A 6559  21.522  36.654  19.572 -0.0902 -0.2940 -0.0152
  274BOLB   C4A 6560  21.401  36.830  19.143  0.1034 -0.2608 -0.0775
  274BOLB   C1B 6561  22.727  36.400  19.052 -0.2264 -0.4117 -0.1395
  274BOLB   C2B 6562  22.685  36.875  18.922 -0.0067  0.0301 -0.2379
  274BOLB   C3B 6563  22.446  37.143  18.638 -0.1566  0.0569 -0.0407
  274BOLB   C4B 6564  22.233  36.931  18.316  0.1560  0.0157 -0.0146
  274BOLB   NC2 6565  19.576  38.540  19.532 -0.2062  0.0233 -0.4035
  274BOLB   PO2 6566  19.245  38.248  19.264  0.2400 -0.0525  0.0471
  274BOLB   GL3 6567  19.722  38.163  19.248  0.1828 -0.3380 -0.0879
  274BOLB   GL4 6568  19.914  38.211  19.554 -0.1154  0.3325 -0.1194
  274BOLB   C1C 6569  20.081  37.835  19.275  0.2039  0.0791  0.0346
  274BOLB   C2C 6570  20.422  37.547  19.266 -0.2338  0.4022 -0.1716
  274BOLB   C3C 6571  20.759  37.341  19.083 -0.1518 -0.3799  0.0478
  274BOLB   C4C 6572  21.083  37.164  19.089  0.3170  0.1167  0.1082
  274BOLB   C1D 6573  20.126  38.205  19.894 -0.1200 -0.0763 -0.0520
  274BOLB   C2D 6574  20.644  38.292  19.895 -0.1405  0.0947 -0.0280
  274BOLB   C3D 6575  21.079  38.217  20.204  0.0440  0.2720  0.2085
  274BOLB   C4D 6576  21.361  38.315  20.476 -0.0622 -0.0379 -0.2252
  275BOLB   NC1 6577  19.833  29.037  18.022  0.2759  0.2246  0.0899
  275BOLB   PO1 6578  19.995  29.334  17.775 -0.2259  0.3921 -0.3940
  275BOLB   GL1 6579  19.981  29.447  17.362  0.3219  0.0657  0.5214
  275BOLB   GL2 6580  19.861  29.772  17.488  0.0879  0.1896 -0.0002
  275BOLB   C1A 6581  19.796  29.774  17.017 -0.1441 -0.0008  0.2136
  275BOLB   C2A 6582  19.771  29.961  16.621 -0.0886  0.0003  0.1344
  275BOLB   C3A 6583  19.551  29.975  16.290 -0.0751 -0.1108  0.0967
  275BOLB   C4A 6584  19.100  30.109  16.153  0.0907 -0.0592 -0.1924
  275BOLB   C1B 6585  19.405  29.794  17.326  0.0672  0.0574 -0.5668
  275BOLB   C2B 6586  18.972  29.603  17.538 -0.1302 -0.1042  0.1028
  275BOLB   C3B 6587  18.858  29.149  17.555  0.0709 -0.0051 -0.2154
  275BOLB   C4B 6588  18.747  28.907  17.235  0.2922 -0.0412 -0.1173
  275BOLB   NC2 6589  16.886  31.480  15.181 -0.3411  0.0985 -0.0052
  275BOLB   PO2 6590  17.097  31.449  15.582 -0.0673 -0.0603 -0.0458
  275BOLB   GL3 6591  17.461  31.296  15.587  0.3775 -0.2530  0.3187
  275BOLB   GL4 6592  17.758  31.407  15.427  0.2754 -0.3481  0.0009
  275BOLB   C1C 6593  17.780  31.059  15.813  0.1614 -0.1160 -0.0272
  275BOLB   C2C 6594  18.191  30.856  15.852 -0.1578 -0.0820  0.1948
  275BOLB   C3C 6595  18.331  30.376  16.037 -0.0676  0.3611  0.2626
  275BOLB   C4C 6596  18.643  30.299  16.241  0.5530  0.0762  0.0675
  275BOLB   C1D 6597  18.264  31.423  15.479  0.0352 -0.3724  0.0410
  275BOLB   C2D 6598  18.568  31.245  15.735 -0.1016 -0.1483 -0.0119
  275BOLB   C3D 6599  18.655  30.793  15.702 -0.3325  0.0903  0.1692
  275BOLB   C4D 6600  18.650  30.426  15.673  0.4542 -0.1821  0.0192
  276BOLB   NC1 6601  24.905  37.356  20.247  0.0963  0.0414  0.2565
  276BOLB   PO1 6602  25.361  37.461  20.404 -0.1483  0.0617  0.0028
  276BOLB   GL1 6603  25.105  37.797  20.102 -0.0732 -0.2113  0.0160
  276BOLB   GL2 6604  25.305  38.144  20.104 -0.1905  0.0049  0.0440
  276BOLB   C1A 6605  24.778  37.984  19.852  0.2933  0.0580 -0.0249
  276BOLB   C2A 6606  24.615  38.159  19.484 -0.1484  0.2887 -0.0536
  276BOLB   C3A 6607  24.632  38.337  19.001  0.0368  0.0980 -0.0925
  276BOLB   C4A 6608  24.522  38.639  18.698 -0.2673  0.0817  0.2212
  276BOLB   C1B 6609  24.938  38.467  20.033  0.3016 -0.0903 -0.3063
  276BOLB   C2B 6610  24.794  38.933  19.942  0.5768  0.0331 -0.4487
  276BOLB   C3B 6611  24.611  39.266  19.785  0.1747 -0.1811 -0.1000
  276BOLB   C4B 6612  24.551  39.635  19.957 -0.0779  0.2155  0.0860
  276BOLB   NC2 6613  23.909  40.944  18.216  0.1713  0.1948 -0.1597
  276BOLB   PO2 6614  24.149  41.274  17.999 -0.2883  0.2499 -0.1037
  276BOLB   GL3 6615  24.351  40.791  18.039  0.3642  0.0281 -0.3705
  276BOLB   GL4 6616  24.509  40.685  17.833 -0.1112  0.1778  0.2331
  276BOLB   C1C 6617  24.122  40.364  18.119  0.1582 -0.0197  0.1574
  276BOLB   C2C 6618  24.145  39.901  18.252 -0.2772 -0.1152  0.0047
  276BOLB   C3C 6619  24.305  39.464  18.376 -0.1493 -0.1270  0.0576
  276BOLB   C4C 6620  24.519  39.079  18.595 -0.2458 -0.4145  0.2801
  276BOLB   C1D 6621  24.344  40.260  17.686 -0.0942  0.5271  0.0990
  276BOLB   C2D 6622  24.452  39.761  17.441  0.0947  0.0997  0.1498
  276BOLB   C3D 6623  24.561  39.427  16.979  0.3775  0.2558  0.1684
  276BOLB   C4D 6624  24.669  39.073  16.961  0.0354  0.0257  0.3255
  277BOLB   NC1 6625  27.650  21.344  21.923  0.0432 -0.1526 -0.0072
  277BOLB   PO1 6626  27.537  20.982  21.941 -0.2974  0.1491 -0.3060
  277BOLB   GL1 6627  27.687  20.629  21.889  0.2093 -0.4196 -0.3821
  277BOLB   GL2 6628  27.873  20.660  22.291  0.1220  0.2451 -0.0194
  277BOLB   C1A 6629  27.760  20.143  21.772  0.2283  0.2065 -0.3159
  277BOLB   C2A 6630  27.949  19.756  21.985 -0.0372  0.3047  0.4584
  277BOLB   C3A 6631  27.839  19.333  22.042  0.0010 -0.1525 -0.0067
  277BOLB   C4A 6632  27.743  19.128  22.505  0.1125 -0.3554 -0.0553
  277BOLB   C1B 6633  27.876  20.281  22.217  0.0570 -0.0175 -0.2142
  277BOLB   C2B 6634  27.900  20.015  22.451  0.2261 -0.0176  0.3975
  277BOLB   C3B 6635  27.603  19.750  22.319  0.1276 -0.0708 -0.0859
  277BOLB   C4B 6636  27.273  19.448  22.328  0.1442 -0.1865  0.1899
  277BOLB   NC2 6637  27.893  16.735  22.665  0.0209 -0.0326  0.0368
  277BOLB   PO2 6638  28.120  16.960  22.390 -0.1009  0.1116 -0.1963
  277BOLB   GL3 6639  27.914  17.299  22.210 -0.3885  0.0786 -0.3449
  277BOLB   GL4 6640  27.603  16.981  22.162  0.3900 -0.0498  0.1314
  277BOLB   C1C 6641  27.953  17.727  22.115  0.1816  0.0992  0.0235
  277BOLB   C2C 6642  27.865  18.169  22.026  0.0912 -0.2924 -0.1491
  277BOLB   C3C 6643  27.506  18.434  22.278 -0.2949 -0.2376 -0.3595
  277BOLB   C4C 6644  27.359  18.810  22.439 -0.4772 -0.1828 -0.1282
  277BOLB   C1D 6645  27.472  17.460  21.993  0.1340 -0.1501 -0.1040
  277BOLB   C2D 6646  27.205  17.746  21.722 -0.1772 -0.1638  0.0048
  277BOLB   C3D 6647  26.928  17.698  21.289 -0.1727  0.0542 -0.1202
  277BOLB   C4D 6648  26.565  17.915  21.044  0.0773 -0.0783  0.0885
  278BOLB   NC1 6649  22.002  31.895  15.693 -0.2235 -0.0203  0.0538
  278BOLB   PO1 6650  21.735  31.748  15.837 -0.0798  0.1730  0.2640
  278BOLB   GL1 6651  21.433  32.081  15.629  0.0442  0.1061  0.1333
  278BOLB   GL2 6652  21.540  32.391  15.758 -0.1195  0.0569  0.3560
  278BOLB   C1A 6653  21.230  32.237  15.371 -0.0101  0.0249 -0.1313
  278BOLB   C2A 6654  21.152  32.473  15.071  0.3227 -0.1292  0.0354
  278BOLB   C3A 6655  21.337  32.748  14.772 -0.0563 -0.1207 -0.1737
  278BOLB   C4A 6656  21.344  32.729  14.240 -0.3860  0.1012 -0.2650
  278BOLB   C1B 6657  21.255  32.641  15.673  0.1014 -0.0248  0.2982
  278BOLB   C2B 6658  20.779  32.628  15.521  0.2944 -0.0771  0.0023
  278BOLB   C3B 6659  20.265  32.571  15.485  0.2527  0.0995 -0.0783
  278BOLB   C4B 6660  20.052  32.288  15.188 -0.0360 -0.0600 -0.4088
  278BOLB   NC2 6661  19.622  32.680  12.718 -0.1193 -0.2510 -0.2148
  278BOLB   PO2 6662  19.468  32.232  12.608  0.0128 -0.3213  0.1388
  278BOLB   GL3 6663  19.795  32.262  12.916 -0.0339  0.0621 -0.0295
  278BOLB   GL4 6664  20.038  32.023  13.069  0.0200 -0.0422  0.0329
  278BOLB   C1C 6665  20.029  32.424  13.320 -0.0275 -0.1921 -0.0496
  278BOLB   C2C 6666  20.439  32.672  13.430  0.1156 -0.0663  0.2170
  278BOLB   C3C 6667  20.790  32.523  13.590 -0.1017 -0.0769  0.3855
  278BOLB   C4C 6668  21.130  32.703  13.763 -0.5225 -0.0928  0.1048
  278BOLB   C1D 6669  20.280  32.000  13.474 -0.1515 -0.1161  0.1710
  278BOLB   C2D 6670  20.630  32.065  13.741  0.1550 -0.2354 -0.0418
  278BOLB   C3D 6671  20.904  31.912  14.080 -0.0459  0.2739  0.0191
  278BOLB   C4D 6672  20.835  31.932  14.526 -0.1300 -0.0446  0.0473
  279BOLB   NC1 6673  30.508  38.215  12.780  0.0926 -0.2239 -0.3555
  279BOLB   PO1 6674  30.668  37.828  12.642 -0.1764 -0.1943  0.0650
  279BOLB   GL1 6675  30.575  37.641  13.023 -0.0227 -0.2055  0.0679
  279BOLB   GL2 6676  30.284  37.297  13.066  0.4457  0.1843 -0.0909
  279BOLB   C1A 6677  30.378  37.636  13.442  0.0715 -0.1138 -0.0538
  279BOLB   C2A 6678  29.956  37.643  13.710  0.0220  0.1187 -0.0093
  279BOLB   C3A 6679  29.751  37.291  13.944  0.4364 -0.0207  0.0350
  279BOLB   C4A 6680  29.509  37.050  14.225 -0.1890  0.0674  0.1318
  279BOLB   C1B 6681  29.993  37.031  13.230  0.0124  0.0200  0.0253
  279BOLB   C2B 6682  29.864  36.857  13.554  0.0411  0.0793  0.0053
  279BOLB   C3B 6683  30.189  36.665  13.777  0.0922 -0.0779  0.2392
  279BOLB   C4B 6684  30.706  36.632  13.707 -0.4129  0.1475 -0.1720
  279BOLB   NC2 6685  29.154  35.594  15.517  0.5697  0.0857 -0.3494
  279BOLB   PO2 6686  28.734  35.409  15.585 -0.1379  0.0861  0.1423
  279BOLB   GL3 6687  28.685  35.732  15.263  0.2024 -0.1024 -0.3629
  279BOLB   GL4 6688  28.336  35.762  15.178  0.1419  0.0302 -0.2520
  279BOLB   C1C 6689  28.787  35.930  14.913  0.1209  0.0716 -0.4511
  279BOLB   C2C 6690  28.889  36.229  14.902  0.2432 -0.0834 -0.2246
  279BOLB   C3C 6691  29.014  36.614  14.832 -0.0225 -0.1115  0.1762
  279BOLB   C4C 6692  29.268  36.944  14.638 -0.2205 -0.3352  0.0576
  279BOLB   C1D 6693  28.265  36.045  14.801  0.1663  0.1066 -0.0343
  279BOLB   C2D 6694  28.443  36.422  14.602 -0.0110  0.4127  0.0725
  279BOLB   C3D 6695  28.652  36.579  14.321 -0.1514 -0.2093 -0.0445
  279BOLB   C4D 6696  28.880  36.909  14.333 -0.1769  0.0507  0.1170
  280BOLB   NC1 6697  32.188  23.376  19.365 -0.3780  0.1525 -0.1057
  280BOLB   PO1 6698  32.081  23.549  19.018 -0.1074  0.0781  0.0433
  280BOLB   GL1 6699  32.250  23.132  18.865  0.1164 -0.1281 -0.0556
  280BOLB   GL2 6700  32.367  22.905  19.087  0.2556  0.2076  0.2773
  280BOLB   C1A 6701  32.359  22.815  18.567 -0.1107 -0.2032 -0.0819
  280BOLB   C2A 6702  32.458  22.508  18.470  0.1577 -0.0078 -0.2070
  280BOLB   C3A 6703  32.676  22.343  18.110  0.0424  0.3291 -0.2244
  280BOLB   C4A 6704  32.971  22.058  17.965 -0.3904  0.0919  0.0996
  280BOLB   C1B 6705  32.639  22.447  18.936  0.1840  0.1044  0.2341
  280BOLB   C2B 6706  32.653  22.028  18.570  0.2420  0.1609 -0.2426
  280BOLB   C3B 6707  32.768  21.637  18.686 -0.2274  0.0490 -0.2462
  280BOLB   C4B 6708  33.168  21.607  18.955 -0.1471  0.1917 -0.2532
  280BOLB   NC2 6709  34.922  20.261  17.937 -0.3177 -0.0945  0.0733
  280BOLB   PO2 6710  34.730  20.069  17.588 -0.0625  0.1034 -0.0288
  280BOLB   GL3 6711  34.427  20.436  17.783  0.2311 -0.0765 -0.0283
  280BOLB   GL4 6712  34.411  20.338  18.137 -0.1219 -0.1873 -0.0391
  280BOLB   C1C 6713  33.896  20.669  17.711 -0.1364  0.1778  0.0311
  280BOLB   C2C 6714  33.644  21.042  17.757  0.1421 -0.0316  0.0220
  280BOLB   C3C 6715  33.288  21.303  17.756 -0.0732  0.3311 -0.1405
  280BOLB   C4C 6716  32.970  21.549  17.902 -0.0441 -0.1401  0.1114
  280BOLB   C1D 6717  34.039  20.563  18.239 -0.2863 -0.0021 -0.1929
  280BOLB   C2D 6718  33.601  20.534  18.565 -0.1855  0.0458 -0.1708
  280BOLB   C3D 6719  33.270  20.821  18.686 -0.0355 -0.2376 -0.2795
  280BOLB   C4D 6720  33.369  21.097  19.096  0.0505 -0.2948  0.2850
  281BOLB   NC1 6721  31.447  26.878  14.901 -0.0166 -0.1383  0.3645
  281BOLB   PO1 6722  31.075  26.904  14.865  0.0576 -0.1040  0.1640
  281BOLB   GL1 6723  31.133  26.623  14.478  0.1398 -0.1270 -0.2759
  281BOLB   GL2 6724  30.906  26.617  14.303  0.2568 -0.1224  0.1322
  281BOLB   C1A 6725  31.302  26.219  14.239 -0.1172 -0.0200 -0.0432
  281BOLB   C2A 6726  31.420  26.027  13.875  0.0985  0.2124 -0.0492
  281BOLB   C3A 6727  31.549  25.828  13.573  0.0077 -0.0120 -0.1506
  281BOLB   C4A 6728  31.733  25.646  13.271 -0.3590 -0.1186  0.0037
  281BOLB   C1B 6729  31.072  26.614  13.946 -0.0683  0.2603  0.1131
  281BOLB   C2B 6730  31.478  26.569  13.790 -0.2658 -0.1251  0.0420
  281BOLB   C3B 6731  31.776  26.640  13.599  0.1841 -0.0292 -0.2378
  281BOLB   C4B 6732  32.224  26.568  13.771  0.1178  0.0315  0.1247
  281BOLB   NC2 6733  32.501  25.361  10.907 -0.1402  0.1930 -0.1594
  281BOLB   PO2 6734  32.526  24.936  11.048 -0.1460 -0.0060 -0.2296
  281BOLB   GL3 6735  32.311  25.134  11.456 -0.1301 -0.0819  0.2720
  281BOLB   GL4 6736  32.153  25.068  11.750  0.1449 -0.0105 -0.1211
  281BOLB   C1C 6737  32.099  25.531  11.702 -0.0386 -0.0355 -0.2363
  281BOLB   C2C 6738  32.062  25.662  12.035 -0.1700  0.0347 -0.1627
  281BOLB   C3C 6739  32.005  25.687  12.513 -0.0592 -0.2274  0.3122
  281BOLB   C4C 6740  31.907  25.654  12.891 -0.1939 -0.0570  0.0514
  281BOLB   C1D 6741  32.023  25.119  12.195 -0.0005 -0.2410 -0.0015
  281BOLB   C2D 6742  31.950  25.184  12.566  0.0444 -0.2702  0.0099
  281BOLB   C3D 6743  31.850  25.167  12.953  0.4406 -0.0813 -0.0273
  281BOLB   C4D 6744  31.827  25.212  13.390 -0.1232 -0.3350  0.3837
  282BOLB   NC1 6745  34.339  27.486  17.248 -0.0545  0.1740 -0.0595
  282BOLB   PO1 6746  34.413  27.115  17.578  0.3187 -0.1909  0.0033
  282BOLB   GL1 6747  34.310  26.927  17.143 -0.2432  0.2799 -0.2248
  282BOLB   GL2 6748  34.465  27.048  17.043  0.0196 -0.0492 -0.1610
  282BOLB   C1A 6749  34.434  26.677  16.695 -0.0166  0.1529 -0.1596
  282BOLB   C2A 6750  34.757  26.437  16.611  0.0763 -0.1093  0.2373
  282BOLB   C3A 6751  34.935  25.998  16.674  0.1389 -0.0289  0.1169
  282BOLB   C4A 6752  35.117  25.523  16.469  0.1667  0.1900  0.1699
  282BOLB   C1B 6753  34.838  26.853  16.982 -0.0156 -0.1236 -0.0003
  282BOLB   C2B 6754  35.111  26.771  16.678 -0.2627  0.0223  0.0571
  282BOLB   C3B 6755  35.114  26.544  16.189 -0.1679 -0.3337  0.1635
  282BOLB   C4B 6756  35.291  26.412  15.795 -0.1214  0.0648  0.1057
  282BOLB   NC2 6757  36.206  24.617  14.598  0.2250  0.1641 -0.2621
  282BOLB   PO2 6758  36.354  25.078  14.485 -0.1211  0.1488 -0.1435
  282BOLB   GL3 6759  36.036  25.034  14.804  0.2794 -0.0268 -0.2062
  282BOLB   GL4 6760  36.027  25.361  14.926 -0.0765  0.1219  0.3132
  282BOLB   C1C 6761  35.884  24.890  15.166 -0.1441  0.0143 -0.1841
  282BOLB   C2C 6762  35.784  24.977  15.604  0.1785  0.2518  0.0117
  282BOLB   C3C 6763  35.743  25.290  15.908 -0.3750 -0.1390  0.1018
  282BOLB   C4C 6764  35.408  25.499  16.183 -0.0536  0.2425  0.2458
  282BOLB   C1D 6765  35.888  25.480  15.339 -0.1880  0.0312 -0.0692
  282BOLB   C2D 6766  35.646  25.700  15.652  0.2659  0.2781  0.0054
  282BOLB   C3D 6767  35.390  25.938  15.882 -0.5020 -0.0787 -0.2208
  282BOLB   C4D 6768  35.229  25.979  16.263  0.4023  0.2629  0.0755
  283BOLB   NC1 6769  33.179  35.286  17.610  0.1138  0.1639  0.2256
  283BOLB   PO1 6770  33.282  35.458  18.101  0.0603  0.2603 -0.1082
  283BOLB   GL1 6771  33.502  35.777  17.980 -0.0166  0.0978  0.0235
  283BOLB   GL2 6772  33.331  35.827  17.750 -0.1786  0.2452 -0.0588
  283BOLB   C1A 6773  33.825  35.842  17.878  0.0485 -0.1314  0.0071
  283BOLB   C2A 6774  33.993  36.214  17.923  0.0577 -0.0839 -0.0811
  283BOLB   C3A 6775  34.471  36.405  17.902  0.2212 -0.0690  0.1034
  283BOLB   C4A 6776  34.549  36.662  17.794 -0.0263  0.1565 -0.3320
  283BOLB   C1B 6777  33.470  36.222  17.767 -0.3027  0.2286 -0.1101
  283BOLB   C2B 6778  33.690  36.651  17.630 -0.1505  0.0744  0.2483
  283BOLB   C3B 6779  33.759  37.049  17.278 -0.1436  0.0500 -0.1067
  283BOLB   C4B 6780  34.034  37.048  16.886  0.2924 -0.0049 -0.0610
  283BOLB   NC2 6781  35.358  38.526  16.903  0.1287  0.2247  0.1044
  283BOLB   PO2 6782  34.897  38.632  16.838 -0.0189  0.1530 -0.2361
  283BOLB   GL3 6783  34.963  38.165  16.870 -0.4304  0.1436  0.2236
  283BOLB   GL4 6784  34.910  37.864  16.648 -0.2169  0.4584  0.0347
  283BOLB   C1C 6785  35.114  37.869  17.316 -0.0611 -0.2177 -0.0461
  283BOLB   C2C 6786  35.271  37.549  17.540  0.1508 -0.1516 -0.3399
  283BOLB   C3C 6787  34.988  37.209  17.547 -0.1211  0.1086 -0.4119
  283BOLB   C4C 6788  34.596  37.014  17.616 -0.2414  0.0042  0.0269
  283BOLB   C1D 6789  34.776  37.621  16.958 -0.2923  0.1602 -0.0306
  283BOLB   C2D 6790  34.931  37.163  17.103  0.0038  0.0709  0.0555
  283BOLB   C3D 6791  34.728  36.792  17.191  0.3433  0.0536 -0.0147
  283BOLB   C4D 6792  34.880  36.424  16.971 -0.2531  0.2684  0.3110
  284BOLB   NC1 6793  25.531  33.497   6.601  0.1890 -0.1196  0.5649
  284BOLB   PO1 6794  25.081  33.650   6.460  0.3046 -0.3086 -0.1766
  284BOLB   GL1 6795  25.007  33.323   6.255  0.1373  0.2803  0.0385
  284BOLB   GL2 6796  24.733  33.372   6.120 -0.0197 -0.1409 -0.0448
  284BOLB   C1A 6797  25.061  32.821   6.143 -0.2145 -0.0989 -0.1079
  284BOLB   C2A 6798  25.047  32.609   5.759 -0.1374 -0.0879 -0.3793
  284BOLB   C3A 6799  25.309  32.388   5.521  0.1430  0.0813 -0.0472
  284BOLB   C4A 6800  25.644  32.150   5.340 -0.0899  0.2545  0.0327
  284BOLB   C1B 6801  24.572  33.413   5.693  0.2588  0.1362 -0.0152
  284BOLB   C2B 6802  24.242  33.286   5.560  0.0926 -0.2065 -0.0916
  284BOLB   C3B 6803  24.147  32.997   5.212 -0.1773 -0.2481  0.4357
  284BOLB   C4B 6804  24.323  32.528   5.183  0.1271 -0.2876  0.3120
  284BOLB   NC2 6805  26.325  31.833   3.064 -0.2333 -0.1410 -0.1325
  284BOLB   PO2 6806  25.999  31.495   3.082 -0.0087  0.0616 -0.2100
  284BOLB   GL3 6807  25.729  31.395   3.510 -0.2898  0.1111  0.1236
  284BOLB   GL4 6808  25.415  31.597   3.474 -0.1722  0.0407 -0.2035
  284BOLB   C1C 6809  25.669  31.260   3.962  0.0710  0.3140 -0.1409
  284BOLB   C2C 6810  25.849  31.462   4.368  0.1431  0.2015 -0.2344
  284BOLB   C3C 6811  25.924  31.847   4.563 -0.1231 -0.0473 -0.1011
  284BOLB   C4C 6812  25.790  32.088   4.928  0.0544 -0.2295  0.1518
  284BOLB   C1D 6813  25.535  31.762   3.886  0.1519  0.1939  0.1019
  284BOLB   C2D 6814  25.533  31.993   4.321  0.0168  0.2761  0.0929
  284BOLB   C3D 6815  25.570  32.352   4.592 -0.0064 -0.0746  0.1015
  284BOLB   C4D 6816  25.317  32.461   4.991 -0.2098 -0.1514  0.1278
  285BOLB   NC1 6817  24.127  36.832  21.049 -0.0838  0.0863 -0.1261
  285BOLB   PO1 6818  23.952  37.132  21.323 -0.3049 -0.1701  0.0617
  285BOLB   GL1 6819  23.838  37.552  21.328  0.2981 -0.0773  0.1757
  285BOLB   GL2 6820  23.763  37.555  21.468 -0.3191  0.0626 -0.0459
  285BOLB   C1A 6821  23.704  37.998  21.285  0.1361 -0.0287 -0.0606
  285BOLB   C2A 6822  23.676  38.426  21.408  0.0572  0.1211  0.1678
  285BOLB   C3A 6823  23.259  38.636  21.524 -0.1550 -0.0763 -0.1297
  285BOLB   C4A 6824  22.921  38.727  21.473 -0.2527 -0.1059 -0.4003
  285BOLB   C1B 6825  23.384  37.685  21.695  0.2297  0.0564 -0.0454
  285BOLB   C2B 6826  23.216  38.007  21.491  0.1262 -0.1914 -0.1527
  285BOLB   C3B 6827  22.824  38.261  21.521 -0.0382 -0.0101 -0.3314
  285BOLB   C4B 6828  22.496  38.565  21.346  0.0552  0.1569 -0.1255
  285BOLB   NC2 6829  21.243  40.094  22.197  0.1485  0.3089  0.3437
  285BOLB   PO2 6830  20.830  39.729  22.183  0.1858  0.1646  0.1293
  285BOLB   GL3 6831  21.297  39.490  22.283 -0.0364 -0.3002 -0.1377
  285BOLB   GL4 6832  21.697  39.460  22.232 -0.0771 -0.0128  0.2971
  285BOLB   C1C 6833  21.520  39.031  22.255  0.0384 -0.2263  0.0357
  285BOLB   C2C 6834  21.917  38.895  22.148  0.0182  0.1533  0.0284
  285BOLB   C3C 6835  22.316  39.059  22.006  0.0018 -0.1468 -0.2928
  285BOLB   C4C 6836  22.628  38.888  21.786  0.1342 -0.1944 -0.4370
  285BOLB   C1D 6837  22.110  39.469  22.318 -0.0932  0.0158  0.3140
  285BOLB   C2D 6838  22.534  39.461  22.420  0.1839 -0.3280 -0.0595
  285BOLB   C3D 6839  22.872  39.204  22.082 -0.1736 -0.0588  0.0873
  285BOLB   C4D 6840  23.240  39.065  21.814 -0.0619 -0.0980 -0.2624
  286BOLB   NC1 6841  20.940  32.309  26.754  0.0526  0.0283 -0.2048
  286BOLB   PO1 6842  20.864  32.109   0.194  0.1308  0.2327  0.0886
  286BOLB   GL1 6843  20.711  31.979   0.446 -0.1645 -0.1125  0.3287
  286BOLB   GL2 6844  20.705  31.619   0.289 -0.0134  0.0908 -0.2572
  286BOLB   C1A 6845  20.418  32.077   0.744 -0.0969 -0.0282 -0.0603
  286BOLB   C2A 6846  20.090  32.232   0.924 -0.0199  0.2536 -0.0747
  286BOLB   C3A 6847  19.967  32.355   1.226 -0.0169  0.1083  0.3822
  286BOLB   C4A 6848  19.917  32.744   1.454  0.0776 -0.0793 -0.3008
  286BOLB   C1B 6849  20.386  31.549   0.570  0.3285  0.0182  0.0336
  286BOLB   C2B 6850  19.971  31.252   0.696 -0.0210  0.1190 -0.1878
  286BOLB   C3B 6851  19.610  31.050   0.598 -0.1314 -0.0107  0.1746
  286BOLB   C4B 6852  19.482  30.607   0.631  0.2287 -0.0211 -0.1259
  286BOLB   NC2 6853  19.307  33.456   3.828 -0.0057  0.3448 -0.2389
  286BOLB   PO2 6854  19.079  33.547   3.466 -0.0208 -0.1557  0.1972
  286BOLB   GL3 6855  19.283  33.612   3.050  0.1888  0.3119 -0.2196
  286BOLB   GL4 6856  19.053  33.600   2.862  0.0516  0.2638  0.2722
  286BOLB   C1C 6857  19.593  33.382   2.808  0.2261 -0.3408  0.0585
  286BOLB   C2C 6858  19.856  33.254   2.533  0.0495  0.2323  0.1954
  286BOLB   C3C 6859  19.967  33.286   2.057 -0.2706  0.1876 -0.1168
  286BOLB   C4C 6860  19.958  33.072   1.674 -0.1671 -0.1700  0.0337
  286BOLB   C1D 6861  19.157  33.380   2.503  0.0522  0.0771 -0.1155
  286BOLB   C2D 6862  19.449  33.250   2.192  0.2173  0.3527  0.0802
  286BOLB   C3D 6863  19.558  32.883   1.960 -0.1412  0.4732 -0.1042
  286BOLB   C4D 6864  19.369  32.681   1.577 -0.2611  0.0875 -0.1351
  287BOLB   NC1 6865  32.582  24.216  19.398  0.1919  0.1769  0.1866
  287BOLB   PO1 6866  32.812  24.001  19.582 -0.2123  0.1811  0.0465
  287BOLB   GL1 6867  33.042  23.616  19.649 -0.2600  0.1625  0.0563
  287BOLB   GL2 6868  33.341  23.574  19.402  0.0238  0.2370  0.3034
  287BOLB   C1A 6869  33.388  23.365  19.837  0.3503 -0.0510 -0.1320
  287BOLB   C2A 6870  33.559  23.049  19.834  0.2374  0.0953  0.4075
  287BOLB   C3A 6871  33.704  22.714  20.017  0.1099  0.0190 -0.0975
  287BOLB   C4A 6872  34.061  22.421  20.017 -0.1896 -0.0053  0.0501
  287BOLB   C1B 6873  33.671  23.395  19.400 -0.1439  0.1413 -0.2377
  287BOLB   C2B 6874  33.979  23.202  19.220  0.1365  0.0715 -0.2023
  287BOLB   C3B 6875  34.275  22.987  18.927  0.0868  0.1073 -0.2368
  287BOLB   C4B 6876  34.681  22.943  18.710  0.0859 -0.1366 -0.1784
  287BOLB   NC2 6877  36.084  21.016  18.999  0.1617  0.0826 -0.1012
  287BOLB   PO2 6878  35.813  21.138  18.768  0.0940 -0.1732  0.0095
  287BOLB   GL3 6879  35.547  21.395  19.057 -0.0169  0.2203  0.0206
  287BOLB   GL4 6880  35.835  21.616  19.193 -0.0743 -0.1836 -0.0980
  287BOLB   C1C 6881  35.111  21.260  19.218  0.1296 -0.1871 -0.1698
  287BOLB   C2C 6882  34.894  21.618  19.396  0.0558 -0.2816 -0.1040
  287BOLB   C3C 6883  34.675  21.809  19.589  0.0287 -0.3880 -0.0822
  287BOLB   C4C 6884  34.431  22.173  19.794  0.2393  0.0383 -0.2233
  287BOLB   C1D 6885  35.664  21.892  18.882  0.0420 -0.0566  0.0707
  287BOLB   C2D 6886  35.231  22.179  18.944  0.1464  0.0310 -0.0147
  287BOLB   C3D 6887  34.888  22.392  18.660  0.1655 -0.0926 -0.1069
  287BOLB   C4D 6888  34.702  22.403  18.257  0.1853  0.1630 -0.1929
  288BOLB   NC1 6889  34.598  28.900  18.275  0.0017 -0.4163 -0.0590
  288BOLB   PO1 6890  34.976  28.721  18.166  0.0626  0.2259 -0.0880
  288BOLB   GL1 6891  35.390  28.542  18.385 -0.0379  0.0948 -0.3653
  288BOLB   GL2 6892  35.544  28.629  18.577 -0.1647 -0.4853 -0.0676
  288BOLB   C1A 6893  35.645  28.277  18.284  0.0218 -0.1332  0.2455
  288BOLB   C2A 6894  35.956  28.026  18.103 -0.0365 -0.1386 -0.0466
  288BOLB   C3A 6895  36.100  27.944  17.728  0.2579  0.2251  0.0436
  288BOLB   C4A 6896  36.410  27.779  17.427  0.2636  0.0255  0.0909
  288BOLB   C1B 6897  35.843  28.721  18.227  0.0742 -0.4881  0.1412
  288BOLB   C2B 6898  36.246  28.711  18.062 -0.2727  0.3625 -0.2071
  288BOLB   C3B 6899  36.329  28.443  17.686  0.0382  0.1126  0.0071
  288BOLB   C4B 6900  36.647  28.246  17.609 -0.1027 -0.0756  0.1394
  288BOLB   NC2 6901  38.432  28.129  15.240 -0.0857 -0.2723 -0.0360
  288BOLB   PO2 6902  38.013  27.931  15.580 -0.2053 -0.0684  0.2491
  288BOLB   GL3 6903  37.611  27.962  15.884 -0.1160  0.3376  0.3919
  288BOLB   GL4 6904  37.820  27.758  16.115 -0.1139 -0.0082 -0.0273
  288BOLB   C1C 6905  37.326  27.630  15.974 -0.0155 -0.1419 -0.0516
  288BOLB   C2C 6906  37.040  27.534  16.222  0.0090 -0.0822 -0.1519
  288BOLB   C3C 6907  36.821  27.595  16.683  0.0974  0.0475 -0.0250
  288BOLB   C4C 6908  36.640  27.546  17.033 -0.1120 -0.1763 -0.0919
  288BOLB   C1D 6909  37.688  28.114  16.369  0.0010  0.1426 -0.2545
  288BOLB   C2D 6910  37.663  28.424  16.672 -0.1632  0.0660  0.3695
  288BOLB   C3D 6911  37.337  28.616  16.969 -0.1576 -0.0404  0.1965
  288BOLB   C4D 6912  37.099  28.918  17.174 -0.0074 -0.1165 -0.1899
  289BOLB   NC1 6913  29.643  37.558  21.845 -0.1063  0.1753 -0.1348
  289BOLB   PO1 6914  29.666  37.837  22.238  0.0868 -0.1799 -0.1743
  289BOLB   GL1 6915  29.728  38.311  22.134 -0.0110 -0.2243  0.4391
  289BOLB   GL2 6916  29.699  38.495  21.797  0.1926  0.2501 -0.1947
  289BOLB   C1A 6917  29.974  38.657  22.225 -0.0855 -0.3546  0.2592
  289BOLB   C2A 6918  30.270  38.811  22.001 -0.2111  0.0234  0.3110
  289BOLB   C3A 6919  30.494  39.133  22.184 -0.3170 -0.0190  0.2282
  289BOLB   C4A 6920  30.399  39.486  22.225 -0.0789  0.1130 -0.0997
  289BOLB   C1B 6921  29.894  38.906  21.725  0.1296 -0.1740 -0.1858
  289BOLB   C2B 6922  29.950  39.202  22.058  0.1494  0.0660  0.0258
  289BOLB   C3B 6923  29.898  39.613  22.079 -0.1475 -0.2676 -0.4054
  289BOLB   C4B 6924  29.779  39.907  22.276 -0.0342  0.0018  0.0531
  289BOLB   NC2 6925  31.265  41.377  22.805  0.1597  0.0689 -0.1398
  289BOLB   PO2 6926  30.945  41.461  23.014  0.1025 -0.0563 -0.1214
  289BOLB   GL3 6927  30.731  41.062  22.938  0.2234  0.0654  0.3439
  289BOLB   GL4 6928  31.039  40.956  22.919 -0.1156 -0.0788  0.3461
  289BOLB   C1C 6929  30.727  40.615  22.802  0.2449 -0.1101  0.2031
  289BOLB   C2C 6930  30.387  40.572  22.580  0.1179 -0.4631  0.1299
  289BOLB   C3C 6931  30.224  40.224  22.415 -0.1647 -0.0610  0.3781
  289BOLB   C4C 6932  30.261  39.782  22.438  0.2076  0.0266  0.0562
  289BOLB   C1D 6933  30.890  40.667  23.286 -0.0258 -0.1016  0.0612
  289BOLB   C2D 6934  30.750  40.454  23.564  0.1524  0.0792 -0.2519
  289BOLB   C3D 6935  30.868  39.989  23.716 -0.2090  0.0069  0.0268
  289BOLB   C4D 6936  30.996  39.546  23.720 -0.3883  0.0520  0.1505
  290BOLB   NC1 6937  32.496  36.391  23.350 -0.2074  0.3352  0.1324
  290BOLB   PO1 6938  32.742  36.048  23.553 -0.1804  0.0767  0.1495
  290BOLB   GL1 6939  33.037  36.181  23.540  0.0526 -0.1167  0.0927
  290BOLB   GL2 6940  33.265  35.958  23.520  0.1662 -0.1013  0.1071
  290BOLB   C1A 6941  33.293  36.568  23.661  0.0676 -0.3293 -0.1652
  290BOLB   C2A 6942  33.506  37.004  23.705  0.1647 -0.1634  0.2510
  290BOLB   C3A 6943  33.464  37.439  23.875  0.1866 -0.0009 -0.0020
  290BOLB   C4A 6944  33.426  37.806  24.204  0.1635  0.2562  0.0851
  290BOLB   C1B 6945  33.609  36.302  23.409 -0.3170  0.1870 -0.1997
  290BOLB   C2B 6946  33.855  36.643  23.180 -0.0820  0.1324  0.1371
  290BOLB   C3B 6947  34.259  36.957  23.078 -0.1857 -0.1019  0.2184
  290BOLB   C4B 6948  34.259  37.390  22.938  0.2564  0.2092  0.2675
  290BOLB   NC2 6949  34.509  39.765  23.168  0.1541 -0.2542  0.4474
  290BOLB   PO2 6950  34.472  39.771  23.538 -0.2851 -0.1186  0.0110
  290BOLB   GL3 6951  34.053  39.585  23.450  0.0129  0.3227  0.1043
  290BOLB   GL4 6952  33.811  39.779  23.606 -0.0023  0.1290 -0.4994
  290BOLB   C1C 6953  33.735  39.242  23.569 -0.0643  0.0380 -0.0452
  290BOLB   C2C 6954  33.689  38.858  23.808  0.2247  0.0354  0.0782
  290BOLB   C3C 6955  33.748  38.606  24.192 -0.0936 -0.0453  0.0032
  290BOLB   C4C 6956  33.627  38.216  24.335  0.0792 -0.4716 -0.4967
  290BOLB   C1D 6957  33.376  39.594  23.605  0.1072 -0.1869  0.0008
  290BOLB   C2D 6958  33.245  39.177  23.451  0.0873 -0.1143 -0.0678
  290BOLB   C3D 6959  32.907  38.699  23.437 -0.0242 -0.1681  0.1705
  290BOLB   C4D 6960  32.502  38.489  23.498 -0.0259  0.2456 -0.3571
  291BOLB   NC1 6961  25.433  23.664  17.089 -0.0276  0.1937  0.3610
  291BOLB   PO1 6962  25.823  23.437  16.962  0.0189 -0.1110  0.2617
  291BOLB   GL1 6963  25.739  23.298  16.507 -0.2046  0.3991  0.0841
  291BOLB   GL2 6964  25.512  23.212  16.355 -0.0732 -0.1100  0.2086
  291BOLB   C1A 6965  25.930  23.140  16.093 -0.1664  0.2374  0.0703
  291BOLB   C2A 6966  26.007  22.686  15.841  0.1108  0.1116 -0.0426
  291BOLB   C3A 6967  25.922  22.351  15.611  0.2518  0.1428  0.1224
  291BOLB   C4A 6968  25.813  21.992  15.299  0.1222 -0.4351  0.2405
  291BOLB   C1B 6969  25.493  22.808  16.151  0.0843  0.0155  0.1415
  291BOLB   C2B 6970  25.526  22.588  15.762 -0.2014  0.3824 -0.2293
  291BOLB   C3B 6971  25.412  22.282  15.374  0.1690 -0.1183 -0.1339
  291BOLB   C4B 6972  25.084  22.271  15.189  0.0459 -0.1991 -0.3889
  291BOLB   NC2 6973  26.725  20.553  13.298  0.1261  0.0339 -0.1220
  291BOLB   PO2 6974  26.499  20.945  13.133  0.1084 -0.2635  0.0754
  291BOLB   GL3 6975  26.299  20.866  13.563 -0.2069  0.1890 -0.2372
  291BOLB   GL4 6976  25.988  21.052  13.544 -0.2120 -0.0677  0.4141
  291BOLB   C1C 6977  26.268  20.963  14.033 -0.0466  0.0382  0.0412
  291BOLB   C2C 6978  26.150  21.338  14.367  0.1019  0.1796 -0.0269
  291BOLB   C3C 6979  26.030  21.633  14.659  0.2479  0.0455  0.0615
  291BOLB   C4C 6980  25.997  21.707  15.086 -0.1558  0.0787  0.2827
  291BOLB   C1D 6981  25.888  21.435  13.860  0.0069  0.2234 -0.1817
  291BOLB   C2D 6982  25.707  21.926  13.790 -0.1876  0.3921  0.0345
  291BOLB   C3D 6983  25.537  22.367  13.911 -0.2684 -0.4345 -0.2803
  291BOLB   C4D 6984  25.274  22.579  14.272 -0.0514 -0.0658  0.0613
  292BOLB   NC1 6985  30.860  31.031   2.829  0.0694 -0.0495  0.2981
  292BOLB   PO1 6986  31.273  30.973   2.796  0.0120  0.2324 -0.1126
  292BOLB   GL1 6987  31.307  30.854   3.168 -0.4435  0.0255 -0.0171
  292BOLB   GL2 6988  31.561  30.808   3.290 -0.1160 -0.2046 -0.1845
  292BOLB   C1A 6989  31.223  31.169   3.640  0.1069 -0.0595 -0.1135
  292BOLB   C2A 6990  30.924  31.129   3.996  0.2658 -0.1406 -0.0507
  292BOLB   C3A 6991  30.484  31.058   4.047 -0.0271 -0.0849 -0.2183
  292BOLB   C4A 6992  30.369  31.184   4.355  0.3834 -0.4031 -0.1471
  292BOLB   C1B 6993  31.706  30.601   3.701 -0.2764  0.2322 -0.0314
  292BOLB   C2B 6994  32.054  30.405   3.903  0.1086  0.0256 -0.0600
  292BOLB   C3B 6995  32.548  30.483   3.955  0.2585  0.2752 -0.1896
  292BOLB   C4B 6996  33.020  30.354   3.942  0.1847 -0.3019 -0.2095
  292BOLB   NC2 6997  31.946  31.000   6.162  0.1879  0.5352 -0.2415
  292BOLB   PO2 6998  31.597  31.231   6.337 -0.2496  0.1612  0.1567
  292BOLB   GL3 6999  31.439  31.030   6.010 -0.0530  0.0624 -0.0235
  292BOLB   GL4 7000  31.620  30.786   5.794 -0.1521 -0.0446  0.1379
  292BOLB   C1C 7001  31.069  30.998   5.694 -0.0595  0.0889 -0.1381
  292BOLB   C2C 7002  30.848  30.899   5.403  0.2106 -0.2190  0.0353
  292BOLB   C3C 7003  30.796  31.247   5.069  0.1440  0.0398  0.1923
  292BOLB   C4C 7004  30.572  31.498   4.713 -0.1446  0.3040  0.0164
  292BOLB   C1D 7005  31.581  30.371   5.925  0.1737 -0.1570  0.0262
  292BOLB   C2D 7006  31.367  29.985   5.872 -0.4108 -0.3145  0.0050
  292BOLB   C3D 7007  31.049  29.670   5.958  0.1544 -0.2179 -0.0068
  292BOLB   C4D 7008  30.690  29.753   6.244 -0.1749  0.1018 -0.0780
  293BOLB   NC1 7009  25.582  26.098  14.660  0.2394 -0.0083  0.1375
  293BOLB   PO1 7010  25.187  26.210  14.604  0.3984  0.0021 -0.1095
  293BOLB   GL1 7011  25.094  26.068  14.172 -0.1700  0.1213  0.2727
  293BOLB   GL2 7012  24.954  26.327  14.032 -0.2264 -0.0606 -0.2332
  293BOLB   C1A 7013  25.150  25.879  13.873 -0.2734  0.2145 -0.0027
  293BOLB   C2A 7014  25.220  26.063  13.441 -0.0802  0.1719  0.0494
  293BOLB   C3A 7015  25.481  26.289  13.026  0.1545  0.1976  0.0093
  293BOLB   C4A 7016  25.279  26.268  12.594  0.0663 -0.2071  0.1838
  293BOLB   C1B 7017  24.772  26.278  13.586 -0.0891  0.3613  0.2836
  293BOLB   C2B 7018  24.379  26.106  13.332 -0.3545 -0.0251 -0.1521
  293BOLB   C3B 7019  24.299  26.171  12.969 -0.1538 -0.1620  0.0012
  293BOLB   C4B 7020  23.989  25.991  12.701 -0.1484  0.0323  0.2170
  293BOLB   NC2 7021  24.601  25.080  10.224 -0.0498  0.0014 -0.3330
  293BOLB   PO2 7022  24.869  25.247  10.455 -0.1943  0.0046 -0.0468
  293BOLB   GL3 7023  24.859  25.419  10.858  0.2141 -0.2324  0.1743
  293BOLB   GL4 7024  25.154  25.582  10.968  0.1061 -0.0716 -0.2538
  293BOLB   C1C 7025  24.835  25.315  11.277  0.0348  0.1234 -0.0138
  293BOLB   C2C 7026  24.970  25.691  11.424 -0.0403  0.2105 -0.0530
  293BOLB   C3C 7027  25.085  26.022  11.760 -0.1572 -0.1572  0.2667
  293BOLB   C4C 7028  25.148  26.248  12.177 -0.0837  0.4034 -0.1380
  293BOLB   C1D 7029  25.432  25.869  11.303 -0.1816  0.0733 -0.1300
  293BOLB   C2D 7030  25.598  26.121  11.661 -0.0229 -0.0626 -0.0074
  293BOLB   C3D 7031  25.630  26.356  12.090 -0.0325 -0.2181  0.2372
  293BOLB   C4D 7032  25.722  26.537  12.492  0.1869  0.3578  0.0775
  294BOLB   NC1 7033  26.814  22.328  17.667 -0.2521 -0.0983 -0.1157
  294BOLB   PO1 7034  26.924  22.031  18.010 -0.0742 -0.2715  0.1709
  294BOLB   GL1 7035  26.977  21.650  17.769 -0.2494  0.2538  0.1806
  294BOLB   GL2 7036  27.249  21.607  17.664 -0.0252  0.0092  0.0137
  294BOLB   C1A 7037  26.682  21.362  17.639 -0.1846 -0.1041 -0.3611
  294BOLB   C2A 7038  26.482  20.988  17.459 -0.0344  0.1361  0.2824
  294BOLB   C3A 7039  26.102  20.970  17.105 -0.0265 -0.3374  0.1125
  294BOLB   C4A 7040  25.748  20.676  16.859  0.1608  0.3566 -0.0023
  294BOLB   C1B 7041  27.236  21.273  17.396  0.0906 -0.0124  0.4038
  294BOLB   C2B 7042  26.956  21.002  17.370 -0.0244  0.2419  0.0581
  294BOLB   C3B 7043  26.740  20.532  17.344  0.6187 -0.1230  0.2227
  294BOLB   C4B 7044  26.930  20.269  17.198 -0.1848 -0.2692 -0.3121
  294BOLB   NC2 7045  25.833  18.623  16.177  0.1199  0.1980  0.1861
  294BOLB   PO2 7046  25.502  18.478  16.137 -0.4051  0.0462 -0.0233
  294BOLB   GL3 7047  25.445  18.802  16.487 -0.0548  0.1445  0.0395
  294BOLB   GL4 7048  25.266  18.717  16.832 -0.0302 -0.0743 -0.2600
  294BOLB   C1C 7049  25.368  19.209  16.594 -0.1695 -0.1645 -0.0147
  294BOLB   C2C 7050  25.470  19.618  16.645 -0.1261  0.4105 -0.0636
  294BOLB   C3C 7051  25.363  19.965  16.850 -0.0971 -0.0882  0.2521
  294BOLB   C4C 7052  25.508  20.269  17.042 -0.0268  0.2243  0.1345
  294BOLB   C1D 7053  25.210  19.148  17.045 -0.0199 -0.0726 -0.2589
  294BOLB   C2D 7054  25.174  19.593  17.192  0.0729  0.1806 -0.0632
  294BOLB   C3D 7055  25.103  20.021  17.305  0.2312 -0.1731 -0.0236
  294BOLB   C4D 7056  25.002  20.435  17.528  0.2484 -0.2756  0.0557
  295BOLB   NC1 7057  27.507  32.621  13.678 -0.0503 -0.0957 -0.2592
  295BOLB   PO1 7058  27.365  32.226  13.760 -0.1426  0.1612 -0.0419
  295BOLB   GL1 7059  27.256  32.109  13.387 -0.2700 -0.1241 -0.0358
  295BOLB   GL2 7060  27.456  32.357  13.266  0.3265 -0.2322 -0.0363
  295BOLB   C1A 7061  27.102  32.289  12.940 -0.1149 -0.4133 -0.0836
  295BOLB   C2A 7062  26.931  32.258  12.563 -0.1927  0.0239 -0.1996
  295BOLB   C3A 7063  27.003  32.145  12.218  0.0212 -0.1117  0.1252
  295BOLB   C4A 7064  27.009  32.109  11.808 -0.2323  0.0191  0.3074
  295BOLB   C1B 7065  27.633  32.212  12.890  0.4791  0.1447 -0.1502
  295BOLB   C2B 7066  27.426  32.301  12.492 -0.3730 -0.3172  0.0557
  295BOLB   C3B 7067  27.183  32.642  12.339  0.5279  0.2406  0.2139
  295BOLB   C4B 7068  27.029  33.043  12.277  0.0310  0.0326  0.0875
  295BOLB   NC2 7069  28.049  31.917   9.754 -0.1225  0.1117  0.2337
  295BOLB   PO2 7070  27.625  32.079   9.822 -0.0876  0.2464  0.2138
  295BOLB   GL3 7071  27.402  31.889  10.158 -0.0129 -0.0866  0.3072
  295BOLB   GL4 7072  27.624  31.841  10.392  0.1109 -0.0321 -0.3799
  295BOLB   C1C 7073  26.979  31.928  10.281  0.2645  0.2881 -0.0800
  295BOLB   C2C 7074  26.850  32.050  10.752 -0.1078  0.2856  0.1213
  295BOLB   C3C 7075  27.124  32.069  11.098 -0.1506  0.1030 -0.4611
  295BOLB   C4C 7076  27.179  32.154  11.523 -0.1093  0.0540  0.0903
  295BOLB   C1D 7077  27.852  31.488  10.519  0.2760  0.2531 -0.2210
  295BOLB   C2D 7078  28.159  31.383  10.802  0.0852  0.0623 -0.0638
  295BOLB   C3D 7079  28.578  31.660  10.595  0.1001 -0.0040  0.2114
  295BOLB   C4D 7080  29.034  31.742  10.425 -0.0975 -0.0343 -0.1910
  296BOLB   NC1 7081  32.248  35.413  25.550  0.0204 -0.0534 -0.1583
  296BOLB   PO1 7082  32.402  35.442  25.279 -0.1149  0.1235  0.0097
  296BOLB   GL1 7083  32.638  35.749  25.303  0.3628  0.4975 -0.0024
  296BOLB   GL2 7084  32.472  36.089  25.420  0.1268 -0.0894  0.0484
  296BOLB   C1A 7085  33.124  36.005  25.233 -0.1362  0.1312 -0.1704
  296BOLB   C2A 7086  33.492  36.015  25.062 -0.0813  0.0487 -0.3916
  296BOLB   C3A 7087  33.890  36.151  24.924  0.0055 -0.4015 -0.1745
  296BOLB   C4A 7088  34.313  36.397  25.001  0.2445  0.1661 -0.0241
  296BOLB   C1B 7089  32.817  36.257  25.555  0.0212  0.1656  0.0011
  296BOLB   C2B 7090  33.083  36.599  25.478 -0.2526 -0.1344 -0.1801
  296BOLB   C3B 7091  33.372  36.919  25.163  0.1358  0.1758 -0.5226
  296BOLB   C4B 7092  33.598  37.079  24.850  0.0411 -0.1519 -0.1966
  296BOLB   NC2 7093  35.847  38.804  25.043 -0.1654  0.2968 -0.3460
  296BOLB   PO2 7094  35.876  38.379  25.256 -0.1232 -0.1644 -0.0112
  296BOLB   GL3 7095  35.716  37.987  25.447  0.1943  0.1787 -0.0284
  296BOLB   GL4 7096  35.675  37.964  25.874  0.0959  0.0378  0.0601
  296BOLB   C1C 7097  35.281  37.670  25.542  0.0884  0.4407 -0.2295
  296BOLB   C2C 7098  35.069  37.245  25.462 -0.0233  0.1969 -0.0900
  296BOLB   C3C 7099  34.730  36.914  25.365 -0.2437 -0.2148 -0.0224
  296BOLB   C4C 7100  34.575  36.661  25.121  0.0518  0.0200  0.0794
  296BOLB   C1D 7101  35.683  37.541  25.807 -0.0473 -0.0197  0.2157
  296BOLB   C2D 7102  35.651  37.204  25.557 -0.0512  0.0940 -0.1356
  296BOLB   C3D 7103  35.459  37.076  25.174  0.3068 -0.1362 -0.0421
  296BOLB   C4D 7104  35.026  36.823  24.893  0.0623 -0.2367 -0.0105
  297BOLB   NC1 7105  35.906  22.074  26.671  0.0000 -0.0800 -0.1480
  297BOLB   PO1 7106  35.903  22.345   0.127 -0.3313 -0.1931  0.1530
  297BOLB   GL1 7107  35.731  22.508  26.577  0.1849 -0.1710  0.1452
  297BOLB   GL2 7108  35.751  22.805  26.546 -0.4269 -0.2051  0.1838
  297BOLB   C1A 7109  35.251  22.380  26.485 -0.0889  0.2211  0.1054
  297BOLB   C2A 7110  35.087  22.379  26.147  0.1370  0.0087  0.0565
  297BOLB   C3A 7111  34.700  22.286  26.227  0.1327 -0.2515 -0.0538
  297BOLB   C4A 7112  34.630  22.500  26.641 -0.0810 -0.0914 -0.0771
  297BOLB   C1B 7113  35.287  23.006  26.639  0.1719  0.0620  0.4614
  297BOLB   C2B 7114  34.772  23.178  26.584  0.0411  0.3131 -0.0748
  297BOLB   C3B 7115  34.550  23.382  26.883 -0.1175 -0.2122  0.2216
  297BOLB   C4B 7116  34.220  23.293   0.298 -0.3906  0.0372  0.1582
  297BOLB   NC2 7117  36.516  23.244   0.632  0.0694 -0.3382  0.0829
  297BOLB   PO2 7118  36.575  23.134   0.324 -0.1409  0.2917  0.1862
  297BOLB   GL3 7119  36.296  23.442   0.156 -0.0247  0.0798  0.0943
  297BOLB   GL4 7120  36.289  23.708   0.401  0.1150  0.1005  0.1262
  297BOLB   C1C 7121  35.877  23.431  26.872  0.0586  0.2724 -0.1397
  297BOLB   C2C 7122  35.565  23.266   0.039  0.0475  0.1638 -0.0193
  297BOLB   C3C 7123  35.090  23.082   0.183 -0.1776  0.2117  0.0846
  297BOLB   C4C 7124  34.805  22.792   0.053 -0.1567  0.0638  0.0967
  297BOLB   C1D 7125  35.892  23.989   0.405  0.0623 -0.0478 -0.0772
  297BOLB   C2D 7126  35.831  24.485   0.474  0.1460 -0.0609 -0.0103
  297BOLB   C3D 7127  35.455  24.732   0.763  0.3069  0.0626 -0.1521
  297BOLB   C4D 7128  35.042  24.736   0.934 -0.0253  0.0905 -0.0294
  298BOLB   NC1 7129  29.254  22.083  23.951 -0.3509 -0.0412  0.0349
  298BOLB   PO1 7130  29.761  21.929  23.990  0.1753 -0.0490 -0.1218
  298BOLB   GL1 7131  29.943  21.593  24.255 -0.0509 -0.0744 -0.2813
  298BOLB   GL2 7132  30.120  21.720  24.506 -0.2247  0.1911  0.0294
  298BOLB   C1A 7133  29.845  21.192  24.454  0.2321 -0.1415 -0.0334
  298BOLB   C2A 7134  29.769  20.769  24.424  0.4321  0.1831  0.3806
  298BOLB   C3A 7135  29.436  20.503  24.586 -0.1114  0.1762  0.1582
  298BOLB   C4A 7136  29.542  20.164  24.901 -0.1514 -0.1032 -0.0228
  298BOLB   C1B 7137  30.368  21.297  24.707  0.0785 -0.0691 -0.0723
  298BOLB   C2B 7138  30.209  21.013  24.938 -0.2744 -0.3082 -0.1613
  298BOLB   C3B 7139  30.030  20.796  25.217  0.0666 -0.1001 -0.2541
  298BOLB   C4B 7140  29.822  20.741  25.618 -0.0578  0.1174 -0.0214
  298BOLB   NC2 7141  30.937  18.746  26.469  0.0406 -0.0252 -0.0746
  298BOLB   PO2 7142  30.500  18.642  26.673 -0.0629 -0.1799  0.4512
  298BOLB   GL3 7143  30.344  19.038  26.436 -0.2347  0.0652 -0.0947
  298BOLB   GL4 7144  30.439  19.201  26.657  0.1738  0.3312 -0.1164
  298BOLB   C1C 7145  29.921  19.217  26.248 -0.0351  0.0086  0.4075
  298BOLB   C2C 7146  29.723  19.613  26.123  0.1797 -0.3683 -0.1008
  298BOLB   C3C 7147  29.456  19.627  25.656 -0.1961  0.0654  0.0521
  298BOLB   C4C 7148  29.575  19.754  25.220 -0.2633 -0.0654 -0.0090
  298BOLB   C1D 7149  30.506  19.500  26.319  0.2033 -0.0001  0.2190
  298BOLB   C2D 7150  30.645  19.898  26.155 -0.1703  0.0382 -0.3285
  298BOLB   C3D 7151  30.438  20.269  26.221  0.0103  0.3236 -0.0290
  298BOLB   C4D 7152  30.483  20.638  26.414  0.1277 -0.2051  0.0814
  299BOLB   NC1 7153  31.395  25.137   0.526  0.1350 -0.2936  0.2803
  299BOLB   PO1 7154  31.289  24.715   0.374  0.0976  0.1924 -0.3339
  299BOLB   GL1 7155  31.195  24.430   0.674 -0.2770 -0.2253  0.1339
  299BOLB   GL2 7156  30.884  24.376   0.565  0.1979 -0.0822 -0.2475
  299BOLB   C1A 7157  31.301  24.092   0.947 -0.2765  0.3086  0.0379
  299BOLB   C2A 7158  31.661  24.020   1.376  0.2100 -0.2226  0.0957
  299BOLB   C3A 7159  31.982  23.932   1.575  0.1564  0.1253  0.1704
  299BOLB   C4A 7160  32.059  23.884   2.168 -0.1257  0.1212 -0.2097
  299BOLB   C1B 7161  30.828  24.192   0.941  0.3788 -0.1050  0.3148
  299BOLB   C2B 7162  30.865  23.841   1.159  0.1783  0.0892  0.0302
  299BOLB   C3B 7163  30.831  23.394   1.309 -0.2013  0.0639 -0.0087
  299BOLB   C4B 7164  30.739  23.109   1.617  0.0038 -0.2796 -0.1946
  299BOLB   NC2 7165  34.143  22.712   2.800  0.4259 -0.4057  0.0838
  299BOLB   PO2 7166  33.648  22.601   2.566 -0.2358 -0.1041 -0.0022
  299BOLB   GL3 7167  33.374  22.920   2.670  0.0605 -0.1578 -0.1103
  299BOLB   GL4 7168  33.433  23.074   2.452  0.0815 -0.1491  0.3623
  299BOLB   C1C 7169  32.962  23.039   2.502  0.0174  0.1697 -0.3048
  299BOLB   C2C 7170  32.895  23.452   2.381  0.0653 -0.0697  0.1602
  299BOLB   C3C 7171  32.755  23.889   2.265 -0.1821 -0.2189  0.0857
  299BOLB   C4C 7172  32.324  24.051   2.300 -0.2618  0.1689  0.1159
  299BOLB   C1D 7173  33.432  23.491   2.377 -0.1334 -0.2260  0.1168
  299BOLB   C2D 7174  33.241  23.909   2.125 -0.1389 -0.0381  0.0830
  299BOLB   C3D 7175  33.044  24.101   1.697 -0.2401  0.2736 -0.1085
  299BOLB   C4D 7176  32.796  23.954   1.380  0.1535  0.1339  0.0100
  300BOLB   NC1 7177  24.926  32.918   1.653  0.3047 -0.1151 -0.1861
  300BOLB   PO1 7178  25.102  32.897   2.097 -0.1019 -0.1791 -0.2226
  300BOLB   GL1 7179  24.895  33.082   2.363 -0.1026  0.0719  0.1300
  300BOLB   GL2 7180  24.771  33.345   2.305 -0.1809 -0.2275  0.0276
  300BOLB   C1A 7181  24.834  33.051   2.792  0.0885 -0.2419  0.1617
  300BOLB   C2A 7182  24.673  33.295   3.191 -0.1254 -0.0263  0.0762
  300BOLB   C3A 7183  24.383  33.293   3.490  0.2762 -0.0167  0.0204
  300BOLB   C4A 7184  24.102  33.565   3.736 -0.1151 -0.2799 -0.2201
  300BOLB   C1B 7185  24.668  33.528   2.677  0.3175  0.0340  0.2436
  300BOLB   C2B 7186  24.409  33.706   3.071 -0.2847  0.0169 -0.4324
  300BOLB   C3B 7187  24.533  33.795   3.515  0.3664 -0.1540 -0.1988
  300BOLB   C4B 7188  24.740  33.957   3.814 -0.1278 -0.1195  0.0047
  300BOLB   NC2 7189  23.494  34.498   5.720 -0.0638  0.2162 -0.5770
  300BOLB   PO2 7190  23.178  34.745   5.491  0.3808  0.0729 -0.1213
  300BOLB   GL3 7191  23.430  34.822   5.204 -0.0089  0.2808 -0.1891
  300BOLB   GL4 7192  23.224  34.825   4.942  0.1998 -0.0454 -0.1702
  300BOLB   C1C 7193  23.677  34.585   4.874 -0.0728 -0.1311  0.3725
  300BOLB   C2C 7194  23.774  34.380   4.511  0.1196 -0.3142  0.0388
  300BOLB   C3C 7195  24.010  34.015   4.418 -0.1209 -0.2103 -0.3432
  300BOLB   C4C 7196  24.119  33.839   4.025  0.1550 -0.1255 -0.1029
  300BOLB   C1D 7197  23.283  34.698   4.586  0.2194 -0.3858 -0.0652
  300BOLB   C2D 7198  23.039  34.364   4.377  0.0789  0.1961  0.4906
  300BOLB   C3D 7199  23.372  34.019   4.233  0.1925 -0.0240 -0.0113
  300BOLB   C4D 7200  23.679  33.728   4.023  0.1701  0.1693 -0.1264
  301BOLB   NC1 7201  30.153  31.095   2.991  0.3059 -0.0506 -0.0246
  301BOLB   PO1 7202  30.429  30.823   2.870  0.1401 -0.1739  0.3452
  301BOLB   GL1 7203  30.531  30.823   3.293  0.3383  0.2340  0.1199
  301BOLB   GL2 7204  30.744  30.943   3.459 -0.1357 -0.0554 -0.2478
  301BOLB   C1A 7205  30.308  31.182   3.600  0.1750  0.0945  0.1451
  301BOLB   C2A 7206  30.457  31.558   3.815  0.2072  0.0073 -0.0010
  301BOLB   C3A 7207  30.720  31.535   4.212 -0.0971 -0.0785 -0.1266
  301BOLB   C4A 7208  31.051  31.332   4.541 -0.1690  0.1485  0.2613
  301BOLB   C1B 7209  31.038  30.741   3.623  0.0696  0.0023 -0.1967
  301BOLB   C2B 7210  31.341  30.708   3.983  0.1350 -0.1382 -0.0140
  301BOLB   C3B 7211  31.609  30.523   4.190 -0.2902  0.0551 -0.0598
  301BOLB   C4B 7212  32.019  30.456   4.390 -0.0223  0.1393 -0.2516
  301BOLB   NC2 7213  33.205  31.963   5.947  0.0920  0.1660  0.1253
  301BOLB   PO2 7214  32.984  32.252   5.633 -0.3075  0.0940 -0.1190
  301BOLB   GL3 7215  32.767  32.023   5.344 -0.1038 -0.0939 -0.0261
  301BOLB   GL4 7216  33.029  32.130   5.117 -0.1582 -0.3046  0.1436
  301BOLB   C1C 7217  32.495  31.901   5.021 -0.0918 -0.1003 -0.1356
  301BOLB   C2C 7218  32.196  31.955   4.756 -0.1123 -0.1922 -0.3516
  301BOLB   C3C 7219  31.692  31.807   4.842  0.2244  0.0171 -0.1624
  301BOLB   C4C 7220  31.515  31.439   4.687 -0.0534 -0.0200 -0.0998
  301BOLB   C1D 7221  33.174  32.492   4.807  0.0980  0.2746  0.2575
  301BOLB   C2D 7222  33.590  32.519   4.556  0.2641 -0.0238  0.0430
  301BOLB   C3D 7223  33.783  32.083   4.353 -0.4631  0.1899  0.2255
  301BOLB   C4D 7224  33.492  31.896   4.110  0.0092 -0.0584 -0.0307
  302BOLB   NC1 7225  25.701  25.209  15.075 -0.3846 -0.1225 -0.0185
  302BOLB   PO1 7226  25.712  25.642  14.871 -0.2322 -0.0198 -0.2569
  302BOLB   GL1 7227  25.442  25.381  14.731 -0.0895  0.0794  0.1375
  302BOLB   GL2 7228  25.313  25.724  14.541  0.0543  0.2257 -0.0075
  302BOLB   C1A 7229  25.322  24.996  14.521  0.1147  0.0025  0.2097
  302BOLB   C2A 7230  25.212  24.570  14.244  0.0696  0.1164 -0.0314
  302BOLB   C3A 7231  24.717  24.719  13.897  0.1992  0.2358  0.2304
  302BOLB   C4A 7232  24.662  24.785  13.472  0.1092 -0.1332 -0.1198
  302BOLB   C1B 7233  25.282  25.453  14.270  0.1880  0.3420  0.0731
  302BOLB   C2B 7234  25.142  25.033  13.955 -0.1912 -0.1723 -0.1657
  302BOLB   C3B 7235  25.163  24.739  13.690  0.0793 -0.0686  0.1455
  302BOLB   C4B 7236  25.014  24.387  13.488  0.0514  0.0640  0.1480
  302BOLB   NC2 7237  23.421  23.912  11.463  0.1084 -0.3038  0.1002
  302BOLB   PO2 7238  23.576  23.742  11.741 -0.3904  0.0750  0.3748
  302BOLB   GL3 7239  23.602  24.230  11.828  0.1494 -0.1264 -0.0119
  302BOLB   GL4 7240  23.845  24.415  11.847  0.2264 -0.1530 -0.0866
  302BOLB   C1C 7241  23.495  24.419  12.251 -0.1206  0.1306 -0.0710
  302BOLB   C2C 7242  23.794  24.518  12.659  0.1649 -0.1186  0.2551
  302BOLB   C3C 7243  24.016  24.673  13.053  0.2653 -0.2273 -0.0355
  302BOLB   C4C 7244  24.470  24.810  13.132  0.2568 -0.1458 -0.2291
  302BOLB   C1D 7245  24.109  24.436  12.189  0.2739 -0.0082  0.1469
  302BOLB   C2D 7246  24.548  24.540  12.282 -0.0133  0.0141 -0.1697
  302BOLB   C3D 7247  24.969  24.387  12.436  0.2661 -0.0150  0.0174
  302BOLB   C4D 7248  25.229  24.612  12.648 -0.0519 -0.1355 -0.2422
  303BOLB   NC1 7249  31.241  27.394  14.914  0.0097  0.0349  0.0208
  303BOLB   PO1 7250  31.009  27.747  14.853 -0.1205 -0.0457 -0.2520
  303BOLB   GL1 7251  31.267  27.622  14.461 -0.0924 -0.2430  0.0988
  303BOLB   GL2 7252  31.445  27.925  14.312 -0.0350 -0.0431 -0.5347
  303BOLB   C1A 7253  31.257  27.516  14.028 -0.2776  0.1869 -0.2740
  303BOLB   C2A 7254  31.258  27.483  13.615  0.0383  0.0173 -0.1731
  303BOLB   C3A 7255  31.361  27.670  13.187 -0.2268  0.1197  0.0586
  303BOLB   C4A 7256  31.253  27.733  12.810  0.1556  0.2750  0.2993
  303BOLB   C1B 7257  31.554  27.921  14.006  0.1689 -0.0558  0.1353
  303BOLB   C2B 7258  31.665  27.838  13.599  0.1939  0.0858 -0.3438
  303BOLB   C3B 7259  31.829  27.642  13.353 -0.0152 -0.1181  0.4770
  303BOLB   C4B 7260  32.252  27.528  13.295 -0.0948  0.3531 -0.0170
  303BOLB   NC2 7261  30.698  27.988  10.173  0.3362 -0.1688  0.0763
  303BOLB   PO2 7262  31.084  27.902  10.503  0.1267  0.1980 -0.0910
  303BOLB   GL3 7263  31.283  27.533  10.812 -0.0903  0.0305  0.2251
  303BOLB   GL4 7264  31.075  27.384  10.938 -0.1729 -0.0159 -0.0050
  303BOLB   C1C 7265  31.525  27.487  11.203  0.1816 -0.0671  0.1172
  303BOLB   C2C 7266  31.469  27.571  11.642 -0.1233 -0.0257 -0.3062
  303BOLB   C3C 7267  31.462  27.672  11.988 -0.0509  0.0831 -0.0251
  303BOLB   C4C 7268  31.300  27.696  12.401  0.1386  0.2474  0.1215
  303BOLB   C1D 7269  30.932  27.195  11.393 -0.1847  0.2708  0.1461
  303BOLB   C2D 7270  30.790  27.170  11.869 -0.3679 -0.1114  0.1949
  303BOLB   C3D 7271  30.641  27.179  12.256  0.0866 -0.1669 -0.0164
  303BOLB   C4D 7272  30.730  27.065  12.607  0.2109 -0.3605  0.1542
  304BOLB   NC1 7273  22.960  31.881  15.333  0.0640  0.0316 -0.2213
  304BOLB   PO1 7274  23.049  31.713  14.932  0.2183 -0.1199 -0.2402
  304BOLB   GL1 7275  22.647  31.822  14.888  0.0530 -0.4146 -0.2326
  304BOLB   GL2 7276  22.562  31.465  14.755  0.2177  0.2313 -0.0623
  304BOLB   C1A 7277  22.463  31.967  14.450 -0.0211 -0.3357 -0.2761
  304BOLB   C2A 7278  22.422  32.221  14.023  0.0108  0.0997 -0.0200
  304BOLB   C3A 7279  22.354  32.398  13.694  0.0439 -0.0179  0.4638
  304BOLB   C4A 7280  22.380  32.133  13.246 -0.3430  0.0318 -0.1145
  304BOLB   C1B 7281  22.370  31.439  14.417  0.1653 -0.0212  0.0104
  304BOLB   C2B 7282  22.103  31.593  14.040  0.3871  0.1000 -0.6199
  304BOLB   C3B 7283  22.250  31.804  13.626 -0.0022  0.0802  0.2232
  304BOLB   C4B 7284  22.017  31.891  13.241  0.3451 -0.4475  0.1319
  304BOLB   NC2 7285  21.156  31.772  11.035  0.0405  0.2714 -0.1025
  304BOLB   PO2 7286  21.443  31.977  10.946 -0.2323 -0.1787  0.1586
  304BOLB   GL3 7287  21.594  32.060  11.437 -0.1589  0.1983 -0.2167
  304BOLB   GL4 7288  21.345  31.908  11.544  0.1045  0.2561  0.1052
  304BOLB   C1C 7289  21.863  31.934  11.705  0.1366 -0.1980  0.0249
  304BOLB   C2C 7290  22.175  31.779  11.937 -0.2000  0.0824 -0.1865
  304BOLB   C3C 7291  22.251  31.773  12.410 -0.2104 -0.4593 -0.1716
  304BOLB   C4C 7292  22.260  31.963  12.717  0.0403 -0.1931 -0.1631
  304BOLB   C1D 7293  21.525  31.570  11.796  0.1177 -0.1368 -0.1141
  304BOLB   C2D 7294  21.366  31.166  11.944 -0.2616  0.3084  0.1308
  304BOLB   C3D 7295  20.937  31.087  12.172  0.1124 -0.0276  0.1089
  304BOLB   C4D 7296  20.705  30.809  12.369 -0.1014 -0.0347 -0.2975
  305BOLB   NC1 7297  30.011  31.942  14.050 -0.2681  0.2510  0.1442
  305BOLB   PO1 7298  30.324  31.687  14.021  0.0644 -0.4071  0.0371
  305BOLB   GL1 7299  30.484  32.041  13.834 -0.1094 -0.1538  0.2080
  305BOLB   GL2 7300  30.309  32.257  13.875 -0.1502 -0.0650  0.1270
  305BOLB   C1A 7301  30.522  32.028  13.454  0.0843 -0.1589  0.0686
  305BOLB   C2A 7302  30.537  32.249  13.012  0.2565 -0.1101 -0.1844
  305BOLB   C3A 7303  30.715  32.419  12.598  0.1669 -0.1865 -0.0994
  305BOLB   C4A 7304  30.767  32.837  12.436  0.0715  0.0763  0.2031
  305BOLB   C1B 7305  30.219  32.484  13.500  0.1616 -0.0462 -0.0678
  305BOLB   C2B 7306  30.299  32.720  13.130 -0.0493 -0.1416 -0.1514
  305BOLB   C3B 7307  30.636  32.813  12.979 -0.1191 -0.0405  0.1677
  305BOLB   C4B 7308  30.840  32.880  13.298 -0.0187  0.0226 -0.1710
  305BOLB   NC2 7309  31.512  34.635  10.946  0.1839 -0.2093 -0.1201
  305BOLB   PO2 7310  31.476  34.387  11.315 -0.0050 -0.0295 -0.2284
  305BOLB   GL3 7311  31.682  34.134  11.667 -0.2093 -0.1752  0.0421
  305BOLB   GL4 7312  32.074  34.178  11.712  0.0064 -0.0739  0.0753
  305BOLB   C1C 7313  31.548  33.900  12.005  0.0909  0.2499 -0.0046
  305BOLB   C2C 7314  31.532  33.700  12.409  0.1115 -0.1803  0.2080
  305BOLB   C3C 7315  31.275  33.346  12.584  0.1261 -0.1249 -0.0740
  305BOLB   C4C 7316  31.124  33.024  12.354  0.1134 -0.3234 -0.2342
  305BOLB   C1D 7317  31.975  33.743  11.785 -0.0128 -0.2025 -0.1769
  305BOLB   C2D 7318  31.869  33.434  12.074  0.3154  0.2837  0.1827
  305BOLB   C3D 7319  31.973  33.353  12.478 -0.0859  0.3192  0.1329
  305BOLB   C4D 7320  31.606  33.448  12.894  0.0108 -0.1500  0.0460
  306BOLB   NC1 7321  29.403  38.181  22.501  0.1935  0.0408  0.3225
  306BOLB   PO1 7322  29.418  38.148  22.999  0.0756 -0.1747 -0.1204
  306BOLB   GL1 7323  29.435  38.513  23.322  0.1924 -0.0603  0.0776
  306BOLB   GL2 7324  29.491  38.691  23.036 -0.0082 -0.2263 -0.2988
  306BOLB   C1A 7325  29.200  38.926  23.309 -0.2461 -0.1348  0.1809
  306BOLB   C2A 7326  29.391  39.259  23.494 -0.2061  0.0318  0.1482
  306BOLB   C3A 7327  29.185  39.569  23.577 -0.0341 -0.2913  0.1325
  306BOLB   C4A 7328  28.967  39.945  23.475  0.3336  0.1997 -0.1801
  306BOLB   C1B 7329  29.683  39.059  23.115  0.1975 -0.1577 -0.0571
  306BOLB   C2B 7330  29.917  39.328  23.379 -0.1379 -0.0424 -0.3438
  306BOLB   C3B 7331  29.801  39.548  23.714 -0.2763 -0.0397  0.3001
  306BOLB   C4B 7332  29.466  39.749  23.947 -0.1397 -0.1835  0.3491
  306BOLB   NC2 7333  28.760  42.365  24.033  0.4205 -0.2485 -0.3725
  306BOLB   PO2 7334  28.492  42.054  24.232  0.0004 -0.0835  0.0528
  306BOLB   GL3 7335  28.456  41.733  23.999  0.1024 -0.1175 -0.4348
  306BOLB   GL4 7336  28.782  41.667  23.958  0.5033 -0.2831  0.2313
  306BOLB   C1C 7337  28.349  41.442  23.662  0.0732  0.3578 -0.0873
  306BOLB   C2C 7338  28.528  41.028  23.555  0.3988 -0.0467  0.0632
  306BOLB   C3C 7339  28.553  40.646  23.546  0.1014  0.2557 -0.3868
  306BOLB   C4C 7340  28.673  40.270  23.409  0.2538 -0.0057  0.0773
  306BOLB   C1D 7341  28.885  41.344  23.721 -0.2501 -0.4619 -0.0892
  306BOLB   C2D 7342  28.942  40.924  23.795  0.1346 -0.0947  0.2220
  306BOLB   C3D 7343  28.914  40.487  23.845  0.3220 -0.2312  0.0222
  306BOLB   C4D 7344  29.114  40.154  24.060 -0.0206  0.0204  0.1714
  307BOLB   NC1 7345  31.014  34.624   0.127  0.0024  0.1093  0.1714
  307BOLB   PO1 7346  30.937  34.617   0.600 -0.1975 -0.2737 -0.3444
  307BOLB   GL1 7347  30.988  35.031   0.893  0.1102  0.0121  0.1196
  307BOLB   GL2 7348  31.103  35.302   0.789  0.1763  0.1159 -0.0166
  307BOLB   C1A 7349  31.198  35.134   1.308 -0.4219  0.1175 -0.2785
  307BOLB   C2A 7350  31.620  35.252   1.523  0.1966  0.3682 -0.1320
  307BOLB   C3A 7351  31.832  35.452   1.786  0.0342 -0.1181  0.1470
  307BOLB   C4A 7352  32.166  35.452   2.049  0.1873  0.3500 -0.0406
  307BOLB   C1B 7353  31.447  35.498   1.121  0.1981 -0.0573  0.0620
  307BOLB   C2B 7354  31.471  35.788   1.520 -0.0917 -0.0074  0.2243
  307BOLB   C3B 7355  31.489  35.996   1.833 -0.1355 -0.1874 -0.3081
  307BOLB   C4B 7356  31.326  36.332   2.094  0.0621 -0.3311 -0.0300
  307BOLB   NC2 7357  33.088  36.411   4.293 -0.4125  0.0864 -0.2780
  307BOLB   PO2 7358  33.082  36.671   3.895 -0.1776 -0.2845 -0.0622
  307BOLB   GL3 7359  32.948  36.313   3.686  0.3438 -0.1313  0.2240
  307BOLB   GL4 7360  32.711  36.121   3.664 -0.2130 -0.2047 -0.0064
  307BOLB   C1C 7361  33.071  36.134   3.313 -0.2916  0.1050 -0.1986
  307BOLB   C2C 7362  32.937  35.982   2.994 -0.1939  0.2729 -0.1953
  307BOLB   C3C 7363  32.900  35.806   2.479 -0.0993  0.2092 -0.0023
  307BOLB   C4C 7364  32.502  35.750   2.237  0.1050  0.0218  0.1005
  307BOLB   C1D 7365  32.606  36.305   3.287  0.1260 -0.0991 -0.0943
  307BOLB   C2D 7366  32.782  36.553   2.919  0.3383  0.2019 -0.3099
  307BOLB   C3D 7367  32.754  36.741   2.524 -0.2117 -0.0756  0.1532
  307BOLB   C4D 7368  32.506  36.781   2.177 -0.1610  0.1769  0.0667
  308BOLB   NC1 7369  26.585  17.502  18.346 -0.3309  0.0803  0.0588
  308BOLB   PO1 7370  26.157  17.541  18.155 -0.2357 -0.1510  0.4381
  308BOLB   GL1 7371  26.427  17.985  18.112  0.2053 -0.1315 -0.2301
  308BOLB   GL2 7372  26.722  18.160  18.006 -0.0347 -0.0660 -0.2472
  308BOLB   C1A 7373  26.297  18.347  18.346  0.0681  0.1559 -0.1332
  308BOLB   C2A 7374  26.288  18.818  18.340 -0.0710  0.0880 -0.0487
  308BOLB   C3A 7375  25.927  19.031  18.321  0.1936 -0.2316  0.2059
  308BOLB   C4A 7376  25.756  19.297  17.998  0.0131  0.0473 -0.0996
  308BOLB   C1B 7377  26.812  18.591  18.246  0.0608 -0.1997  0.0442
  308BOLB   C2B 7378  26.892  19.075  18.281 -0.2496 -0.2075  0.0428
  308BOLB   C3B 7379  26.739  19.482  18.267 -0.0820 -0.2670  0.0918
  308BOLB   C4B 7380  26.796  19.858  18.196 -0.0556  0.0781 -0.0387
  308BOLB   NC2 7381  26.647  18.273  16.441  0.0504 -0.0376 -0.0508
  308BOLB   PO2 7382  26.285  18.511  16.349  0.5652  0.1320 -0.2192
  308BOLB   GL3 7383  26.240  18.880  16.613 -0.1437 -0.0931 -0.2178
  308BOLB   GL4 7384  26.197  19.090  16.416 -0.0119  0.4328  0.2226
  308BOLB   C1C 7385  26.500  19.050  16.973  0.1799  0.0352  0.1230
  308BOLB   C2C 7386  26.428  19.447  17.281  0.2191 -0.1201  0.0873
  308BOLB   C3C 7387  26.094  19.524  17.498 -0.2955  0.3098 -0.0247
  308BOLB   C4C 7388  25.910  19.673  17.814 -0.1053  0.2614 -0.2877
  308BOLB   C1D 7389  25.877  19.419  16.226 -0.3655 -0.1333 -0.1322
  308BOLB   C2D 7390  26.027  19.735  16.014  0.2496 -0.0941 -0.2911
  308BOLB   C3D 7391  26.176  19.807  15.623  0.0701 -0.0187  0.2123
  308BOLB   C4D 7392  26.411  20.067  15.305  0.0895  0.1770  0.0816
  309BOLB   NC1 7393  32.356  36.904  19.947 -0.0867  0.0811 -0.0726
  309BOLB   PO1 7394  32.605  36.855  19.619  0.2750 -0.1377  0.0226
  309BOLB   GL1 7395  32.279  37.227  19.536  0.0651 -0.3761  0.0634
  309BOLB   GL2 7396  32.103  37.364  19.815 -0.0498  0.0158  0.1114
  309BOLB   C1A 7397  32.437  37.589  19.391 -0.0902  0.1824 -0.0340
  309BOLB   C2A 7398  32.738  37.866  19.392  0.1678  0.0806  0.2521
  309BOLB   C3A 7399  33.003  38.213  19.173  0.3354  0.3212  0.0572
  309BOLB   C4A 7400  33.028  38.624  19.148  0.2016 -0.0875  0.1816
  309BOLB   C1B 7401  32.281  37.728  19.846  0.1093  0.1125 -0.2661
  309BOLB   C2B 7402  32.588  38.048  19.823  0.3713  0.2202  0.2476
  309BOLB   C3B 7403  32.661  38.356  20.199  0.0895 -0.3529  0.1819
  309BOLB   C4B 7404  32.573  38.745  20.383  0.3158 -0.2269  0.1298
  309BOLB   NC2 7405  34.566  40.118  19.291 -0.2903 -0.1467 -0.0923
  309BOLB   PO2 7406  34.339  39.802  18.945 -0.1383 -0.0033  0.3809
  309BOLB   GL3 7407  33.968  39.606  18.741  0.1889  0.1786  0.0940
  309BOLB   GL4 7408  33.843  39.416  18.436 -0.4116 -0.0952  0.0042
  309BOLB   C1C 7409  33.499  39.621  18.763 -0.1157 -0.2107 -0.2311
  309BOLB   C2C 7410  33.121  39.740  18.570 -0.0664  0.0578 -0.2150
  309BOLB   C3C 7411  32.837  39.493  18.736 -0.1069 -0.0453 -0.0291
  309BOLB   C4C 7412  32.909  38.999  18.831 -0.2903  0.1349 -0.0478
  309BOLB   C1D 7413  33.971  38.984  18.317  0.0183  0.0161 -0.0684
  309BOLB   C2D 7414  33.815  38.633  18.409 -0.1923 -0.1817  0.4093
  309BOLB   C3D 7415  33.692  38.246  18.574  0.2714 -0.2112 -0.3154
  309BOLB   C4D 7416  33.925  37.876  18.434  0.0367 -0.0510 -0.1521
  310BOLB   NC1 7417  33.805  30.332   0.067  0.1134  0.1844 -0.0124
  310BOLB   PO1 7418  33.974  30.622   0.089  0.0347 -0.2491  0.2029
  310BOLB   GL1 7419  33.975  30.578   0.566  0.2879 -0.1709  0.1158
  310BOLB   GL2 7420  33.915  30.856   0.600 -0.0239 -0.1822 -0.0108
  310BOLB   C1A 7421  34.056  30.495   1.020  0.1927 -0.1676 -0.0772
  310BOLB   C2A 7422  34.447  30.569   1.229  0.0559 -0.1355 -0.2284
  310BOLB   C3A 7423  34.764  30.503   1.556  0.2217 -0.0967  0.1824
  310BOLB   C4A 7424  35.185  30.476   1.763  0.2568 -0.0664  0.0023
  310BOLB   C1B 7425  34.288  30.881   0.863  0.4050  0.3205 -0.1774
  310BOLB   C2B 7426  34.815  30.713   0.899 -0.2986 -0.1506  0.1546
  310BOLB   C3B 7427  35.279  30.816   1.038 -0.0305 -0.1521  0.2304
  310BOLB   C4B 7428  35.648  30.828   0.756 -0.2438 -0.2814 -0.0406
  310BOLB   NC2 7429  36.170  31.199   3.064 -0.1256 -0.1212  0.2898
  310BOLB   PO2 7430  36.510  31.327   2.812 -0.1035  0.1852  0.1838
  310BOLB   GL3 7431  36.579  31.362   2.396 -0.0562 -0.0679  0.0581
  310BOLB   GL4 7432  36.553  31.663   2.275 -0.2389 -0.2414  0.2319
  310BOLB   C1C 7433  36.633  31.245   1.898 -0.0380  0.3515 -0.0340
  310BOLB   C2C 7434  36.373  30.911   1.675  0.0723 -0.2747 -0.0550
  310BOLB   C3C 7435  36.031  30.439   1.746  0.1472  0.1649 -0.0087
  310BOLB   C4C 7436  35.599  30.395   1.828  0.1096 -0.0540 -0.3299
  310BOLB   C1D 7437  36.065  31.618   2.175 -0.2125  0.2969  0.0484
  310BOLB   C2D 7438  35.706  31.408   2.137  0.1840  0.0082 -0.3629
  310BOLB   C3D 7439  35.150  31.343   2.272  0.1567  0.0821  0.3403
  310BOLB   C4D 7440  34.690  31.521   2.311 -0.1438 -0.0693 -0.1289
  311BOLB   NC1 7441  35.201  33.939  19.955 -0.1165  0.2383 -0.1397
  311BOLB   PO1 7442  35.051  34.260  19.722  0.3883 -0.1269 -0.1557
  311BOLB   GL1 7443  35.391  34.586  19.808  0.1742  0.1887  0.2564
  311BOLB   GL2 7444  35.207  34.852  19.921  0.3218  0.3094 -0.2264
  311BOLB   C1A 7445  35.774  34.631  20.009 -0.1590  0.0385  0.2767
  311BOLB   C2A 7446  36.134  34.372  20.044  0.2104  0.1844  0.0736
  311BOLB   C3A 7447  36.468  34.311  19.899 -0.0499  0.1066  0.1798
  311BOLB   C4A 7448  36.749  34.391  19.578 -0.0313 -0.0859  0.1238
  311BOLB   C1B 7449  35.535  35.082  20.118 -0.2952  0.1320 -0.1620
  311BOLB   C2B 7450  35.987  35.174  20.073  0.1876 -0.3644  0.2025
  311BOLB   C3B 7451  36.212  34.880  19.900 -0.1005  0.0994  0.1366
  311BOLB   C4B 7452  36.380  34.755  19.517  0.2969  0.1503  0.0278
  311BOLB   NC2 7453  38.808  34.282  19.915 -0.0861  0.2955 -0.1542
  311BOLB   PO2 7454  38.959  33.868  19.585 -0.0874 -0.0688  0.0223
  311BOLB   GL3 7455  38.513  33.870  19.492  0.1743 -0.0763  0.1052
  311BOLB   GL4 7456  38.473  33.868  19.820 -0.0554 -0.0169  0.0435
  311BOLB   C1C 7457  38.196  34.054  19.269  0.2176 -0.2732  0.1122
  311BOLB   C2C 7458  37.859  34.342  19.179  0.1205  0.1439 -0.2662
  311BOLB   C3C 7459  37.482  34.530  19.155 -0.0303 -0.0499  0.0507
  311BOLB   C4C 7460  37.044  34.489  19.311  0.1290 -0.1505 -0.1334
  311BOLB   C1D 7461  37.949  33.929  19.683 -0.3274 -0.2703 -0.1082
  311BOLB   C2D 7462  37.695  34.191  19.636  0.2044  0.1469  0.2623
  311BOLB   C3D 7463  37.290  34.255  19.779  0.3981  0.1294  0.1325
  311BOLB   C4D 7464  36.945  34.421  20.092 -0.2745  0.0724  0.0985
  312BOLB   NC1 7465  17.434  26.867   6.010 -0.3210  0.1342 -0.3071
  312BOLB   PO1 7466  17.441  26.653   6.312  0.2883 -0.2479 -0.2414
  312BOLB   GL1 7467  17.799  26.581   6.266 -0.0473  0.2047  0.3022
  312BOLB   GL2 7468  17.940  26.671   5.986 -0.2768 -0.5495  0.2085
  312BOLB   C1A 7469  18.289  26.508   6.284 -0.1045  0.3017 -0.0323
  312BOLB   C2A 7470  18.523  26.335   6.070  0.0776  0.1464 -0.3545
  312BOLB   C3A 7471  18.900  26.166   5.866 -0.1428 -0.3019 -0.1014
  312BOLB   C4A 7472  19.087  26.054   5.478  0.2758 -0.2964 -0.2866
  312BOLB   C1B 7473  17.986  26.813   5.610 -0.0489 -0.0483 -0.0830
  312BOLB   C2B 7474  18.169  27.194   5.357  0.5083  0.0757  0.5192
  312BOLB   C3B 7475  18.273  27.591   5.309 -0.3566 -0.1988  0.1067
  312BOLB   C4B 7476  17.999  28.069   5.252  0.2801  0.1701 -0.3347
  312BOLB   NC2 7477  17.129  24.453   5.308  0.3328  0.1271 -0.0438
  312BOLB   PO2 7478  16.818  24.757   5.108  0.3473 -0.3775  0.2925
  312BOLB   GL3 7479  17.190  25.025   4.971 -0.5196 -0.2320 -0.1004
  312BOLB   GL4 7480  17.450  25.016   4.746 -0.1317  0.0144 -0.0325
  312BOLB   C1C 7481  17.618  25.403   4.963 -0.1899  0.3602  0.3086
  312BOLB   C2C 7482  18.136  25.421   4.992  0.0961 -0.1913  0.1725
  312BOLB   C3C 7483  18.527  25.571   4.882 -0.0084 -0.1315 -0.1584
  312BOLB   C4C 7484  18.920  25.823   5.070  0.0850  0.3429 -0.0858
  312BOLB   C1D 7485  17.796  24.885   4.695 -0.0045 -0.0789  0.1821
  312BOLB   C2D 7486  18.163  24.972   4.782 -0.1978  0.1287 -0.3698
  312BOLB   C3D 7487  18.594  25.058   4.620  0.0611  0.3041  0.2705
  312BOLB   C4D 7488  18.937  25.345   4.674 -0.0681 -0.2809  0.1251
  313BOLB   NC1 7489  35.244  33.744  20.705  0.0540  0.1909  0.1780
  313BOLB   PO1 7490  35.415  34.022  20.395  0.0847  0.1387  0.0041
  313BOLB   GL1 7491  35.672  34.076  20.137  0.1199  0.0616  0.0179
  313BOLB   GL2 7492  35.923  33.970  20.390 -0.0421 -0.0055 -0.0700
  313BOLB   C1A 7493  35.687  34.262  19.650  0.1027 -0.0563  0.2494
  313BOLB   C2A 7494  36.147  34.271  19.527  0.0766  0.2539  0.2251
  313BOLB   C3A 7495  36.453  33.948  19.565  0.1074 -0.0163 -0.0989
  313BOLB   C4A 7496  36.834  33.964  19.875  0.0618 -0.1232  0.2936
  313BOLB   C1B 7497  36.181  34.169  20.525  0.5110 -0.0787 -0.1829
  313BOLB   C2B 7498  36.541  34.435  20.486 -0.0152  0.0968 -0.1504
  313BOLB   C3B 7499  36.965  34.612  20.533  0.0289 -0.1885 -0.0482
  313BOLB   C4B 7500  37.050  34.947  20.854 -0.2644 -0.5876 -0.2607
  313BOLB   NC2 7501  39.198  33.098  20.556 -0.1250 -0.0412 -0.1972
  313BOLB   PO2 7502  39.193  33.484  20.428 -0.2431 -0.0546  0.1500
  313BOLB   GL3 7503  38.658  33.438  20.373  0.0666  0.1334 -0.5468
  313BOLB   GL4 7504  38.723  33.061  20.316 -0.0511  0.0084 -0.1080
  313BOLB   C1C 7505  38.341  33.585  20.246 -0.2930  0.1467  0.1391
  313BOLB   C2C 7506  37.937  33.777  20.354  0.2340 -0.0352  0.1964
  313BOLB   C3C 7507  37.536  34.016  20.114 -0.1034  0.1083 -0.1916
  313BOLB   C4C 7508  37.223  33.846  20.157  0.1088 -0.3312  0.3237
  313BOLB   C1D 7509  38.610  32.764  20.190 -0.0198  0.1308  0.2552
  313BOLB   C2D 7510  38.257  32.603  20.118  0.1217 -0.0212 -0.2510
  313BOLB   C3D 7511  37.846  32.614  20.305 -0.0943  0.0029 -0.1627
  313BOLB   C4D 7512  37.549  32.905  20.156 -0.3649 -0.0473  0.1094
  314BOLB   NC1 7513  28.572  33.161   2.162 -0.2307 -0.0170 -0.2318
  314BOLB   PO1 7514  28.750  32.776   2.191 -0.0039 -0.0146 -0.3161
  314BOLB   GL1 7515  28.727  32.886   2.582 -0.1642 -0.0721  0.2376
  314BOLB   GL2 7516  28.513  32.803   2.840  0.0008  0.2265  0.3373
  314BOLB   C1A 7517  29.002  32.804   3.010  0.1463  0.0865 -0.2741
  314BOLB   C2A 7518  29.170  32.879   3.413  0.0389  0.0413  0.0335
  314BOLB   C3A 7519  29.326  32.887   3.796  0.4122  0.2231 -0.0079
  314BOLB   C4A 7520  29.396  33.040   4.225  0.1377 -0.0614  0.0388
  314BOLB   C1B 7521  28.647  32.872   3.278  0.3494  0.0953 -0.0979
  314BOLB   C2B 7522  28.701  32.966   3.722 -0.0207  0.0150 -0.0129
  314BOLB   C3B 7523  28.603  32.946   4.113 -0.1870  0.3205 -0.2021
  314BOLB   C4B 7524  28.377  33.112   4.485 -0.0398  0.0586 -0.2631
  314BOLB   NC2 7525  29.046  34.831   5.789 -0.0254 -0.2939  0.1555
  314BOLB   PO2 7526  29.420  35.027   5.389  0.0274  0.1871  0.1421
  314BOLB   GL3 7527  29.389  34.837   4.957 -0.1039  0.2642 -0.0096
  314BOLB   GL4 7528  29.509  34.809   4.695 -0.2778  0.3517  0.1288
  314BOLB   C1C 7529  29.125  34.415   4.855  0.0506  0.2618 -0.1783
  314BOLB   C2C 7530  29.045  34.121   4.527  0.1030 -0.0645 -0.1715
  314BOLB   C3C 7531  29.288  33.762   4.345  0.0594 -0.0432  0.2175
  314BOLB   C4C 7532  29.328  33.362   4.423  0.0509  0.0757  0.4548
  314BOLB   C1D 7533  29.538  34.423   4.571 -0.0198  0.2393 -0.2533
  314BOLB   C2D 7534  29.600  34.087   4.408  0.0447 -0.0215  0.0221
  314BOLB   C3D 7535  29.976  33.855   4.262  0.1304  0.1137 -0.0586
  314BOLB   C4D 7536  30.314  33.887   4.161 -0.1148  0.1628  0.0981
  315BOLB   NC1 7537  27.890  22.324  18.404 -0.0036 -0.1166  0.1924
  315BOLB   PO1 7538  27.869  21.913  18.329 -0.0670  0.1822  0.2605
  315BOLB   GL1 7539  27.860  21.618  18.128 -0.0114  0.2970 -0.2057
  315BOLB   GL2 7540  27.901  21.344  18.479  0.0141 -0.0510 -0.3399
  315BOLB   C1A 7541  27.919  21.319  17.805 -0.3504  0.2441 -0.1166
  315BOLB   C2A 7542  28.254  21.013  17.852 -0.2323 -0.1275 -0.2737
  315BOLB   C3A 7543  28.449  20.662  17.667  0.2337 -0.0695 -0.0149
  315BOLB   C4A 7544  28.539  20.270  17.912  0.0422  0.2256 -0.0184
  315BOLB   C1B 7545  27.867  20.979  18.235 -0.0663 -0.3692  0.0822
  315BOLB   C2B 7546  27.813  20.816  17.723  0.0828 -0.2008 -0.1510
  315BOLB   C3B 7547  27.818  20.630  17.390 -0.1242  0.3137  0.1169
  315BOLB   C4B 7548  28.093  20.339  17.443  0.1143  0.4341  0.0376
  315BOLB   NC2 7549  28.235  18.054  17.906 -0.0420  0.0888 -0.0907
  315BOLB   PO2 7550  27.839  18.033  17.982 -0.1439 -0.1489  0.0498
  315BOLB   GL3 7551  28.057  18.506  18.080  0.0272  0.1329 -0.1443
  315BOLB   GL4 7552  28.321  18.451  18.347 -0.0639  0.1207  0.1571
  315BOLB   C1C 7553  28.340  18.789  17.956 -0.1040 -0.2806  0.0204
  315BOLB   C2C 7554  28.368  19.065  17.728  0.2761  0.2181 -0.0858
  315BOLB   C3C 7555  28.151  19.367  17.824  0.1537 -0.0447 -0.2631
  315BOLB   C4C 7556  28.242  19.876  17.889  0.0176  0.0688 -0.0065
  315BOLB   C1D 7557  28.328  18.782  18.641 -0.1131 -0.3257 -0.2039
  315BOLB   C2D 7558  28.408  19.231  18.785  0.3368  0.1639  0.0607
  315BOLB   C3D 7559  28.595  19.580  19.047  0.3592 -0.1282  0.1678
  315BOLB   C4D 7560  28.768  19.928  19.398 -0.1106  0.0359  0.0701
  316BOLB   NC1 7561  27.697  21.742  23.261  0.2025 -0.2240 -0.2523
  316BOLB   PO1 7562  28.005  21.384  23.210 -0.1981 -0.1689  0.0704
  316BOLB   GL1 7563  28.018  21.080  23.336  0.0981  0.1120 -0.3857
  316BOLB   GL2 7564  28.207  21.152  23.567 -0.0951  0.2549  0.0943
  316BOLB   C1A 7565  27.730  20.883  23.620 -0.3067  0.3868 -0.2266
  316BOLB   C2A 7566  27.914  20.420  23.761 -0.2611  0.1517 -0.0979
  316BOLB   C3A 7567  27.978  19.960  23.651  0.2221  0.3491 -0.1483
  316BOLB   C4A 7568  28.146  19.570  23.859  0.3224  0.4352  0.2806
  316BOLB   C1B 7569  28.332  20.745  23.588 -0.3184 -0.2846 -0.1595
  316BOLB   C2B 7570  28.430  20.323  23.924  0.0969  0.1007  0.0268
  316BOLB   C3B 7571  28.508  19.869  23.935 -0.2642  0.0749  0.4448
  316BOLB   C4B 7572  28.584  19.747  24.264 -0.0133  0.0062 -0.2055
  316BOLB   NC2 7573  28.854  17.154  24.226 -0.0663  0.0297  0.1466
  316BOLB   PO2 7574  28.820  17.328  23.875 -0.2555  0.0371 -0.2507
  316BOLB   GL3 7575  28.626  17.684  23.957  0.0341  0.3447  0.0332
  316BOLB   GL4 7576  28.313  17.579  24.064 -0.0394 -0.0263 -0.1321
  316BOLB   C1C 7577  28.664  18.079  24.009 -0.0036  0.1353 -0.1309
  316BOLB   C2C 7578  28.503  18.392  23.781  0.1843 -0.1618 -0.1825
  316BOLB   C3C 7579  28.541  18.795  23.879  0.1640 -0.1688  0.1023
  316BOLB   C4C 7580  28.415  19.277  23.916  0.0596 -0.2100 -0.0249
  316BOLB   C1D 7581  28.224  17.972  24.183  0.3160 -0.0488 -0.2898
  316BOLB   C2D 7582  28.082  18.344  24.045  0.1205 -0.1003 -0.1829
  316BOLB   C3D 7583  27.779  18.548  23.685 -0.3097  0.1252 -0.1571
  316BOLB   C4D 7584  27.402  18.556  23.496  0.0341 -0.0909 -0.1584
  317BOLB   NC1 7585  24.807  35.885  18.057 -0.2651  0.2997 -0.3173
  317BOLB   PO1 7586  24.478  36.022  17.762 -0.2814 -0.2842  0.2084
  317BOLB   GL1 7587  24.220  36.402  17.725  0.2954  0.1975 -0.0526
  317BOLB   GL2 7588  23.990  36.245  17.532  0.0478 -0.1610 -0.1295
  317BOLB   C1A 7589  24.222  36.831  17.352  0.2217 -0.0143 -0.1934
  317BOLB   C2A 7590  23.947  37.118  17.149  0.1968  0.1760  0.1189
  317BOLB   C3A 7591  24.208  37.455  17.021 -0.2396  0.1860  0.0138
  317BOLB   C4A 7592  23.995  37.955  16.871  0.0995  0.1982  0.0558
  317BOLB   C1B 7593  23.733  36.661  17.422  0.0996  0.3415  0.0321
  317BOLB   C2B 7594  23.491  37.081  17.283 -0.2706  0.0459 -0.1203
  317BOLB   C3B 7595  23.301  37.311  17.028  0.0460 -0.1682 -0.0451
  317BOLB   C4B 7596  23.351  37.565  16.702  0.2262  0.0716 -0.0411
  317BOLB   NC2 7597  22.953  38.922  15.254 -0.2961  0.0927  0.0046
  317BOLB   PO2 7598  23.347  39.088  15.263 -0.0013  0.1154  0.0083
  317BOLB   GL3 7599  23.421  38.655  15.422  0.1625 -0.3534 -0.0679
  317BOLB   GL4 7600  23.082  38.503  15.391 -0.0593  0.3618 -0.0912
  317BOLB   C1C 7601  23.656  38.333  15.568  0.0450  0.0414  0.0928
  317BOLB   C2C 7602  23.961  38.124  15.662 -0.2130 -0.1758 -0.1338
  317BOLB   C3C 7603  24.110  38.025  16.002  0.0777  0.1143  0.0256
  317BOLB   C4C 7604  24.015  38.070  16.478 -0.1793  0.1320 -0.1357
  317BOLB   C1D 7605  23.097  38.140  15.686 -0.2626 -0.0050 -0.2451
  317BOLB   C2D 7606  23.255  37.720  15.788 -0.0785 -0.0601  0.0427
  317BOLB   C3D 7607  22.995  37.265  15.856 -0.1193 -0.1544  0.2826
  317BOLB   C4D 7608  22.852  36.944  16.231 -0.0986 -0.2017 -0.3440
  318BOLB   NC1 7609  32.774  33.572   1.335  0.4336 -0.3101  0.0302
  318BOLB   PO1 7610  33.048  33.385   1.269 -0.3965 -0.0327  0.0763
  318BOLB   GL1 7611  33.207  33.248   1.685 -0.3644 -0.3116 -0.2122
  318BOLB   GL2 7612  33.322  32.859   1.699  0.2249  0.1817  0.0422
  318BOLB   C1A 7613  33.548  33.405   1.994 -0.0345 -0.0962 -0.1673
  318BOLB   C2A 7614  33.845  33.685   2.175  0.0979  0.2994  0.1326
  318BOLB   C3A 7615  34.016  33.795   2.568  0.0479 -0.4788  0.1920
  318BOLB   C4A 7616  34.016  33.793   2.935  0.1157  0.0062 -0.3672
  318BOLB   C1B 7617  33.729  32.980   1.688  0.0015  0.2428 -0.0505
  318BOLB   C2B 7618  33.893  33.334   1.525 -0.2642  0.1843 -0.1079
  318BOLB   C3B 7619  33.683  33.819   1.409  0.1085 -0.0055 -0.1760
  318BOLB   C4B 7620  33.831  34.182   1.625  0.0255  0.0229 -0.2142
  318BOLB   NC2 7621  33.972  35.453   4.901  0.3146 -0.0727 -0.0415
  318BOLB   PO2 7622  33.573  35.337   4.588 -0.1615  0.0608  0.0572
  318BOLB   GL3 7623  33.601  35.293   4.150 -0.0771  0.1727 -0.0348
  318BOLB   GL4 7624  33.583  35.520   3.837 -0.3060 -0.1612  0.0034
  318BOLB   C1C 7625  33.596  35.007   3.880 -0.0378 -0.1697 -0.0084
  318BOLB   C2C 7626  33.529  34.607   3.601 -0.2577  0.4286 -0.2436
  318BOLB   C3C 7627  33.664  34.183   3.447 -0.1760  0.0382 -0.2428
  318BOLB   C4C 7628  33.871  33.934   3.305  0.0248 -0.0879  0.1848
  318BOLB   C1D 7629  33.403  35.276   3.466  0.1768  0.2707  0.2959
  318BOLB   C2D 7630  33.399  35.041   3.077 -0.1001 -0.1073 -0.0596
  318BOLB   C3D 7631  33.427  34.804   2.770  0.0570 -0.0433 -0.1129
  318BOLB   C4D 7632  33.584  34.550   2.381 -0.1358  0.1689  0.0960
  319BOLB   NC1 7633  35.063  33.750  21.605 -0.1900 -0.0690  0.1090
  319BOLB   PO1 7634  35.470  33.499  21.723 -0.1343 -0.0086 -0.0398
  319BOLB   GL1 7635  35.790  33.834  21.852 -0.1105 -0.4085  0.3094
  319BOLB   GL2 7636  35.941  33.965  21.589  0.0729  0.2764  0.0265
  319BOLB   C1A 7637  36.017  34.202  22.120  0.0211  0.2762  0.1643
  319BOLB   C2A 7638  36.397  34.352  22.335  0.0404 -0.3859 -0.1017
  319BOLB   C3A 7639  36.564  34.816  22.330  0.0317  0.2822  0.1922
  319BOLB   C4A 7640  37.021  35.053  22.297  0.2230  0.1222 -0.4361
  319BOLB   C1B 7641  36.357  34.269  21.430  0.0589  0.0361  0.0323
  319BOLB   C2B 7642  36.849  34.282  21.490  0.0272 -0.2342 -0.1134
  319BOLB   C3B 7643  37.342  34.165  21.409 -0.3908 -0.2861 -0.0709
  319BOLB   C4B 7644  37.664  33.870  21.293 -0.3795  0.0203 -0.0318
  319BOLB   NC2 7645  38.176  36.904  21.568  0.2028 -0.2250  0.1298
  319BOLB   PO2 7646  38.186  36.667  21.072  0.2055  0.0027  0.0584
  319BOLB   GL3 7647  37.796  36.478  21.131  0.0482  0.2192 -0.2106
  319BOLB   GL4 7648  37.568  36.618  20.879  0.0070  0.1792 -0.3400
  319BOLB   C1C 7649  37.612  36.192  21.448 -0.1324  0.2422 -0.0959
  319BOLB   C2C 7650  37.658  35.906  21.849 -0.0528  0.1687 -0.5242
  319BOLB   C3C 7651  37.401  35.715  22.240  0.4224  0.2119 -0.2903
  319BOLB   C4C 7652  37.376  35.310  22.341 -0.0554  0.1446 -0.1778
  319BOLB   C1D 7653  37.437  36.131  20.993 -0.0496 -0.2378 -0.1193
  319BOLB   C2D 7654  37.437  35.784  20.725 -0.1667  0.3388  0.4332
  319BOLB   C3D 7655  37.168  35.401  20.579 -0.1116 -0.3524  0.0884
  319BOLB   C4D 7656  36.680  35.313  20.611  0.0502 -0.3412  0.1753
  320BOLB   NC1 7657  29.461  21.534  23.042 -0.3213  0.0285  0.0450
  320BOLB   PO1 7658  29.719  21.260  23.319 -0.1449  0.0509 -0.0646
  320BOLB   GL1 7659  29.745  20.917  23.072 -0.1547  0.0412 -0.2910
  320BOLB   GL2 7660  30.078  20.764  22.961 -0.1857 -0.0044  0.2388
  320BOLB   C1A 7661  29.601  20.511  23.003 -0.2094  0.0767  0.0333
  320BOLB   C2A 7662  29.587  20.056  23.147  0.1611 -0.2648  0.2338
  320BOLB   C3A 7663  29.420  19.646  23.247 -0.1027 -0.0638 -0.0076
  320BOLB   C4A 7664  29.400  19.266  23.058 -0.3146  0.0132 -0.0813
  320BOLB   C1B 7665  30.090  20.256  22.940  0.3730  0.1264 -0.4444
  320BOLB   C2B 7666  30.374  19.837  22.864 -0.0270 -0.1913  0.0643
  320BOLB   C3B 7667  30.656  19.374  22.872 -0.1187  0.1383 -0.0060
  320BOLB   C4B 7668  30.725  19.225  23.251  0.0182 -0.1671  0.1788
  320BOLB   NC2 7669  31.244  17.659  22.585  0.0881  0.2348 -0.1273
  320BOLB   PO2 7670  30.764  17.609  22.640 -0.0297  0.0049 -0.1609
  320BOLB   GL3 7671  30.673  17.995  22.504  0.1583 -0.3318 -0.0555
  320BOLB   GL4 7672  30.856  18.305  22.679  0.0382  0.1451 -0.2471
  320BOLB   C1C 7673  30.326  18.196  22.311 -0.4339 -0.2429  0.1237
  320BOLB   C2C 7674  29.907  18.201  22.309 -0.2805  0.0612 -0.1371
  320BOLB   C3C 7675  29.583  18.520  22.520 -0.2128 -0.2919  0.2435
  320BOLB   C4C 7676  29.616  18.893  22.891 -0.1351 -0.3270  0.0868
  320BOLB   C1D 7677  30.574  18.606  22.691 -0.0745 -0.0707 -0.1974
  320BOLB   C2D 7678  30.415  18.935  22.897 -0.2355  0.1225 -0.0429
  320BOLB   C3D 7679  30.154  19.314  22.827  0.0765 -0.2120 -0.0913
  320BOLB   C4D 7680  29.874  19.593  23.006  0.3007 -0.3677 -0.0292
  321BOLB   NC1 7681  25.424  21.160  19.067 -0.2216  0.0406 -0.2611
  321BOLB   PO1 7682  25.559  21.493  18.757  0.0034 -0.3008 -0.0807
  321BOLB   GL1 7683  25.461  21.157  18.539  0.0903 -0.0056  0.2029
  321BOLB   GL2 7684  25.257  20.912  18.669 -0.3558  0.0093 -0.0521
  321BOLB   C1A 7685  25.493  20.688  18.316 -0.2937  0.1310  0.0222
  321BOLB   C2A 7686  25.307  20.154  18.389  0.3667  0.0942 -0.1067
  321BOLB   C3A 7687  25.273  19.676  18.270 -0.0957 -0.0704 -0.1429
  321BOLB   C4A 7688  25.142  19.599  17.865  0.0516  0.2049 -0.2039
  321BOLB   C1B 7689  24.925  20.524  18.433  0.2667 -0.1408  0.3400
  321BOLB   C2B 7690  24.832  20.167  18.574  0.2854 -0.0543 -0.0132
  321BOLB   C3B 7691  24.503  20.045  18.828 -0.1239  0.3226  0.0909
  321BOLB   C4B 7692  24.457  19.897  19.291  0.1886 -0.0268 -0.2296
  321BOLB   NC2 7693  23.780  17.567  17.328 -0.1103 -0.1065 -0.1054
  321BOLB   PO2 7694  23.442  17.751  17.070 -0.0877  0.1280 -0.0452
  321BOLB   GL3 7695  23.747  18.121  17.300  0.3872 -0.0865  0.0849
  321BOLB   GL4 7696  23.654  18.355  17.428 -0.0250 -0.0084 -0.0246
  321BOLB   C1C 7697  24.118  18.285  17.315  0.0932 -0.0096 -0.0913
  321BOLB   C2C 7698  24.400  18.684  17.149  0.0421 -0.2187 -0.0474
  321BOLB   C3C 7699  24.935  18.811  17.342  0.4418 -0.1287  0.0384
  321BOLB   C4C 7700  25.085  19.211  17.632 -0.2705 -0.2650  0.1004
  321BOLB   C1D 7701  23.777  18.761  17.410 -0.4707  0.1295 -0.1685
  321BOLB   C2D 7702  24.173  18.943  17.516  0.0400 -0.0259  0.1458
  321BOLB   C3D 7703  24.224  19.254  17.839  0.3060 -0.1217 -0.0442
  321BOLB   C4D 7704  24.240  19.318  18.265  0.0868 -0.2807 -0.0922
  322BOLB   NC1 7705  23.675  36.216  19.046 -0.0589  0.1413  0.3163
  322BOLB   PO1 7706  24.004  36.108  18.725  0.2350 -0.1538  0.0349
  322BOLB   GL1 7707  23.613  36.440  18.588  0.1876  0.0103 -0.1532
  322BOLB   GL2 7708  23.332  36.488  18.403 -0.1163 -0.1686 -0.0292
  322BOLB   C1A 7709  23.561  36.940  18.701 -0.0695  0.0856  0.0808
  322BOLB   C2A 7710  23.632  37.295  18.405  0.1841 -0.3687 -0.1233
  322BOLB   C3A 7711  23.475  37.756  18.388  0.1428  0.2387 -0.0232
  322BOLB   C4A 7712  23.466  38.189  18.365  0.2401 -0.2109 -0.0337
  322BOLB   C1B 7713  23.295  36.861  18.150  0.0545 -0.0930 -0.0284
  322BOLB   C2B 7714  23.099  37.074  17.772  0.0665  0.0357  0.4258
  322BOLB   C3B 7715  23.117  37.384  17.495  0.0888 -0.1293  0.1175
  322BOLB   C4B 7716  22.980  37.785  17.242  0.3973  0.1096  0.0791
  322BOLB   NC2 7717  21.999  39.988  17.570  0.0667 -0.0030  0.0902
  322BOLB   PO2 7718  22.427  40.094  17.699 -0.1210 -0.1038  0.1910
  322BOLB   GL3 7719  22.639  39.964  18.073 -0.2679 -0.1090  0.2116
  322BOLB   GL4 7720  22.889  40.158  18.195  0.0543  0.0456  0.1843
  322BOLB   C1C 7721  22.760  39.643  18.197 -0.1759  0.4091  0.0907
  322BOLB   C2C 7722  23.159  39.445  18.300 -0.0947  0.0275 -0.2106
  322BOLB   C3C 7723  23.365  39.130  18.417  0.0154 -0.0875 -0.0914
  322BOLB   C4C 7724  23.492  38.654  18.433  0.2946 -0.0103  0.1904
  322BOLB   C1D 7725  23.250  39.947  18.066 -0.0504 -0.1146 -0.2523
  322BOLB   C2D 7726  23.537  39.652  17.963 -0.0881  0.1489  0.1590
  322BOLB   C3D 7727  23.804  39.371  18.174  0.0339  0.0579 -0.2582
  322BOLB   C4D 7728  23.920  39.054  18.579  0.4216  0.3717 -0.0770
  323BOLB   NC1 7729  27.483  37.925  20.705  0.3471 -0.1058  0.1964
  323BOLB   PO1 7730  27.382  37.864  20.304 -0.4345  0.0053  0.2194
  323BOLB   GL1 7731  27.134  38.228  20.155 -0.1895  0.3362 -0.2687
  323BOLB   GL2 7732  27.412  38.323  20.021 -0.3195 -0.1580 -0.3235
  323BOLB   C1A 7733  26.957  38.638  19.994 -0.0133  0.1633  0.1562
  323BOLB   C2A 7734  26.964  39.012  19.796 -0.1841  0.1691 -0.1151
  323BOLB   C3A 7735  26.966  39.458  19.789  0.0529  0.0195 -0.0986
  323BOLB   C4A 7736  27.210  39.802  19.918 -0.1625 -0.4189 -0.0733
  323BOLB   C1B 7737  27.349  38.568  19.617  0.2029 -0.1394 -0.0995
  323BOLB   C2B 7738  27.393  38.936  19.493 -0.0828 -0.2080  0.1568
  323BOLB   C3B 7739  27.444  39.473  19.455  0.1817  0.1776  0.3055
  323BOLB   C4B 7740  27.782  39.835  19.444  0.0371 -0.2364  0.1181
  323BOLB   NC2 7741  27.161  42.183  19.490  0.1446  0.2132  0.3054
  323BOLB   PO2 7742  26.659  41.884  19.360  0.0092  0.3408 -0.0357
  323BOLB   GL3 7743  26.794  41.484  19.357 -0.1110 -0.0994 -0.3040
  323BOLB   GL4 7744  26.685  41.275  19.211  0.1551 -0.1370 -0.0605
  323BOLB   C1C 7745  27.011  41.090  19.485 -0.1427  0.0292 -0.0242
  323BOLB   C2C 7746  27.280  40.725  19.471  0.1200 -0.1425 -0.0337
  323BOLB   C3C 7747  27.568  40.442  19.583 -0.0592  0.3213 -0.1073
  323BOLB   C4C 7748  27.548  40.093  19.817 -0.0638  0.3529  0.2168
  323BOLB   C1D 7749  26.708  40.783  19.254 -0.0983 -0.1579 -0.1107
  323BOLB   C2D 7750  26.614  40.454  19.131  0.1350  0.4498  0.0711
  323BOLB   C3D 7751  26.703  40.032  19.176 -0.0814 -0.3306  0.1253
  323BOLB   C4D 7752  26.896  39.697  19.249 -0.2482  0.2708  0.1966
  324BOLB   NC1 7753  35.759  29.211  22.681  0.2484  0.2455 -0.3677
  324BOLB   PO1 7754  36.022  29.449  22.490 -0.0327 -0.4262 -0.1522
  324BOLB   GL1 7755  36.364  29.326  22.349  0.0609  0.1410  0.1335
  324BOLB   GL2 7756  36.538  29.605  22.112 -0.2499 -0.2906 -0.0167
  324BOLB   C1A 7757  36.739  29.128  22.183  0.5090 -0.4391  0.0752
  324BOLB   C2A 7758  37.148  28.936  22.138  0.2440  0.1097  0.2918
  324BOLB   C3A 7759  37.488  28.960  21.872 -0.1801 -0.4121 -0.2471
  324BOLB   C4A 7760  37.685  29.166  21.610 -0.1029  0.0192 -0.2604
  324BOLB   C1B 7761  36.943  29.651  22.125  0.1272  0.0273 -0.2000
  324BOLB   C2B 7762  37.350  29.763  22.259  0.0788  0.2936 -0.0026
  324BOLB   C3B 7763  37.770  29.829  22.356 -0.1265  0.1098  0.2894
  324BOLB   C4B 7764  38.234  29.889  22.177  0.0338  0.1073  0.3144
  324BOLB   NC2 7765  39.787  28.826  20.292  0.2045 -0.3325 -0.2736
  324BOLB   PO2 7766  39.872  28.900  20.751 -0.0611 -0.2578  0.0710
  324BOLB   GL3 7767  39.465  29.111  20.717  0.1440 -0.0187 -0.2107
  324BOLB   GL4 7768  39.260  29.081  20.481 -0.0936  0.0320 -0.2383
  324BOLB   C1C 7769  39.334  29.533  21.057 -0.3685 -0.0208  0.1995
  324BOLB   C2C 7770  38.856  29.529  21.194 -0.1713 -0.0582  0.2954
  324BOLB   C3C 7771  38.494  29.375  21.433  0.0028 -0.0697  0.0262
  324BOLB   C4C 7772  37.998  29.451  21.549  0.1891  0.0972  0.2127
  324BOLB   C1D 7773  38.975  29.252  20.706  0.3852  0.0110 -0.5787
  324BOLB   C2D 7774  38.534  29.452  20.700  0.2842  0.0329 -0.0739
  324BOLB   C3D 7775  38.097  29.396  20.629 -0.2657  0.1219 -0.2286
  324BOLB   C4D 7776  37.914  29.049  20.748 -0.1697  0.0510 -0.0506
  325BOLB   NC1 7777  25.634  32.768  14.654 -0.3001 -0.2251 -0.2487
  325BOLB   PO1 7778  25.845  33.080  14.305 -0.2035 -0.3906  0.2112
  325BOLB   GL1 7779  25.825  33.209  13.909  0.0575 -0.0998  0.0981
  325BOLB   GL2 7780  25.775  32.935  13.765 -0.0068  0.1007 -0.2147
  325BOLB   C1A 7781  25.865  33.575  13.494 -0.1299  0.3591 -0.3323
  325BOLB   C2A 7782  25.783  33.962  13.319  0.2179  0.0417 -0.0606
  325BOLB   C3A 7783  25.857  34.328  12.980 -0.0673  0.0164  0.1516
  325BOLB   C4A 7784  26.023  34.668  12.731 -0.1979  0.0143  0.2638
  325BOLB   C1B 7785  25.526  32.935  13.341 -0.0441  0.1201 -0.2746
  325BOLB   C2B 7786  25.272  32.768  12.965  0.1843  0.0589 -0.4006
  325BOLB   C3B 7787  25.121  33.020  12.618 -0.1243  0.0352  0.0100
  325BOLB   C4B 7788  25.000  32.987  12.259  0.0838  0.2230 -0.3168
  325BOLB   NC2 7789  25.091  36.720  12.033 -0.1175  0.3034 -0.0035
  325BOLB   PO2 7790  25.522  36.763  11.979 -0.1426  0.0094 -0.0874
  325BOLB   GL3 7791  25.563  36.414  12.111 -0.0325  0.2856  0.0452
  325BOLB   GL4 7792  25.412  36.330  12.472 -0.3204 -0.1284  0.0439
  325BOLB   C1C 7793  25.829  36.159  12.325  0.3041  0.2418  0.0708
  325BOLB   C2C 7794  26.004  35.841  12.548  0.1848 -0.0813  0.1250
  325BOLB   C3C 7795  26.237  35.488  12.641 -0.0055 -0.0932  0.3097
  325BOLB   C4C 7796  26.210  35.088  12.518 -0.0371  0.2410  0.1717
  325BOLB   C1D 7797  25.251  36.110  12.772 -0.1658  0.1747  0.1739
  325BOLB   C2D 7798  25.564  35.806  12.912 -0.0291 -0.4129 -0.0570
  325BOLB   C3D 7799  26.073  35.763  13.038  0.0194 -0.1551 -0.3039
  325BOLB   C4D 7800  26.419  35.824  13.239  0.2332 -0.2804 -0.1968
  326BOLB   NC1 7801  32.235  34.123   0.236 -0.2150 -0.3161  0.0434
  326BOLB   PO1 7802  32.201  34.372   0.607  0.0703  0.0800  0.1574
  326BOLB   GL1 7803  32.399  34.463   0.889 -0.0934 -0.0262  0.3149
  326BOLB   GL2 7804  32.644  34.569   0.912  0.1569  0.1284  0.0961
  326BOLB   C1A 7805  32.394  34.653   1.299  0.2548  0.2775 -0.1363
  326BOLB   C2A 7806  32.486  34.766   1.715 -0.0060 -0.0515 -0.0790
  326BOLB   C3A 7807  32.759  34.863   2.092  0.2708 -0.0319  0.2053
  326BOLB   C4A 7808  32.864  35.303   2.186 -0.0034 -0.0459  0.0368
  326BOLB   C1B 7809  33.057  34.850   0.854 -0.4455 -0.0063  0.0238
  326BOLB   C2B 7810  33.419  34.936   0.727  0.1473  0.0750  0.4308
  326BOLB   C3B 7811  33.791  35.076   1.009  0.1607  0.4099 -0.0700
  326BOLB   C4B 7812  34.236  35.162   1.003  0.0915 -0.0040 -0.0719
  326BOLB   NC2 7813  34.759  35.300   3.387  0.4357 -0.0403  0.1734
  326BOLB   PO2 7814  34.781  35.514   2.980 -0.0982  0.0336 -0.0719
  326BOLB   GL3 7815  34.556  35.671   2.554 -0.1388  0.0050 -0.3728
  326BOLB   GL4 7816  34.742  35.616   2.269 -0.1143 -0.3012  0.1094
  326BOLB   C1C 7817  34.287  36.046   2.284  0.0136  0.0522  0.1363
  326BOLB   C2C 7818  33.919  35.853   2.086 -0.2209  0.0583  0.0419
  326BOLB   C3C 7819  33.482  35.693   1.915 -0.2593 -0.1609 -0.2400
  326BOLB   C4C 7820  33.015  35.638   2.025 -0.2622  0.0144 -0.1783
  326BOLB   C1D 7821  34.283  35.542   2.035  0.0182  0.1780 -0.1454
  326BOLB   C2D 7822  33.826  35.355   2.020 -0.1043 -0.2985  0.0300
  326BOLB   C3D 7823  33.636  34.912   1.991 -0.1369 -0.3319  0.0307
  326BOLB   C4D 7824  33.376  34.604   1.835  0.0268  0.1235  0.0494
  327BOLB   NC1 7825  25.319  37.434  22.477  0.2560  0.0298 -0.1571
  327BOLB   PO1 7826  25.523  37.590  22.061  0.1880 -0.2099 -0.0447
  327BOLB   GL1 7827  25.272  38.073  22.016 -0.1636 -0.1751  0.1582
  327BOLB   GL2 7828  25.499  38.237  21.830  0.1257  0.1366 -0.0324
  327BOLB   C1A 7829  24.933  38.351  21.992 -0.1323  0.1019 -0.1340
  327BOLB   C2A 7830  24.891  38.813  21.989 -0.0677  0.1710 -0.0094
  327BOLB   C3A 7831  25.053  39.230  22.209  0.1190 -0.0892  0.1240
  327BOLB   C4A 7832  24.763  39.580  22.419  0.1502  0.1039 -0.1396
  327BOLB   C1B 7833  25.350  38.588  21.935 -0.1694 -0.1751 -0.0792
  327BOLB   C2B 7834  25.426  38.865  22.247  0.0517  0.3735  0.2283
  327BOLB   C3B 7835  25.448  39.177  22.588 -0.0347 -0.0681  0.0077
  327BOLB   C4B 7836  25.597  39.347  22.978 -0.3439  0.1733 -0.1549
  327BOLB   NC2 7837  25.006  41.699  23.487 -0.1668 -0.0968  0.3316
  327BOLB   PO2 7838  25.053  41.303  23.668  0.2365 -0.1153 -0.1989
  327BOLB   GL3 7839  24.998  41.026  23.500 -0.0333 -0.0991  0.1904
  327BOLB   GL4 7840  25.184  40.937  23.195 -0.1860  0.0105 -0.0321
  327BOLB   C1C 7841  24.691  40.749  23.338  0.4384  0.0705 -0.0357
  327BOLB   C2C 7842  24.381  40.441  23.278 -0.2256  0.2462 -0.0342
  327BOLB   C3C 7843  24.329  40.196  22.885  0.0238 -0.1838 -0.1662
  327BOLB   C4C 7844  24.455  39.949  22.588 -0.2297  0.0316 -0.0522
  327BOLB   C1D 7845  25.264  40.525  23.147 -0.0189 -0.0397  0.0069
  327BOLB   C2D 7846  25.194  40.129  23.147 -0.0033 -0.1062 -0.1979
  327BOLB   C3D 7847  25.487  39.854  23.023  0.1268  0.0020 -0.1757
  327BOLB   C4D 7848  25.648  39.798  22.591 -0.1017 -0.0357  0.1233
  328BOLB   NC1 7849  28.103  34.548  15.149 -0.2763  0.0914 -0.0303
  328BOLB   PO1 7850  28.306  34.793  15.423 -0.1949  0.0130 -0.0611
  328BOLB   GL1 7851  28.433  34.984  15.069  0.2062 -0.1630  0.0106
  328BOLB   GL2 7852  28.464  35.306  15.037 -0.1745 -0.0505  0.3362
  328BOLB   C1A 7853  28.312  35.106  14.659  0.0173 -0.0077  0.2724
  328BOLB   C2A 7854  28.539  35.194  14.328  0.1473 -0.1901  0.0901
  328BOLB   C3A 7855  28.471  35.447  13.922 -0.0136  0.1739  0.2876
  328BOLB   C4A 7856  28.503  35.664  13.517 -0.1306 -0.0005  0.0488
  328BOLB   C1B 7857  28.426  35.598  14.672  0.2087  0.2367 -0.4499
  328BOLB   C2B 7858  28.449  35.764  14.357 -0.1916 -0.3231  0.2597
  328BOLB   C3B 7859  28.734  36.106  14.261 -0.0758  0.0290 -0.2202
  328BOLB   C4B 7860  28.856  36.251  13.885 -0.1726  0.3557  0.1152
  328BOLB   NC2 7861  29.583  37.170  11.941  0.2564  0.4138 -0.3173
  328BOLB   PO2 7862  29.169  37.039  11.779 -0.0223 -0.1405 -0.2116
  328BOLB   GL3 7863  28.976  36.837  12.084  0.0500 -0.0341  0.2429
  328BOLB   GL4 7864  29.199  36.631  12.261 -0.0212 -0.2352  0.2713
  328BOLB   C1C 7865  28.701  36.930  12.378  0.0317 -0.0173  0.0844
  328BOLB   C2C 7866  28.458  36.579  12.576  0.4012  0.1723 -0.0266
  328BOLB   C3C 7867  28.342  36.299  12.903 -0.2010  0.2608  0.0161
  328BOLB   C4C 7868  28.414  35.970  13.254 -0.2560 -0.2818 -0.1294
  328BOLB   C1D 7869  28.900  36.493  12.427 -0.2519 -0.0975  0.1274
  328BOLB   C2D 7870  28.434  36.222  12.250 -0.1682  0.1872  0.1293
  328BOLB   C3D 7871  27.993  36.363  12.532  0.1624  0.2976  0.2083
  328BOLB   C4D 7872  27.647  36.447  12.795 -0.1077 -0.0133  0.1462
  329BOLB   NC1 7873  29.251  25.711   1.703 -0.1950  0.3064  0.0078
  329BOLB   PO1 7874  29.672  25.933   1.793  0.0095 -0.0896  0.1479
  329BOLB   GL1 7875  29.928  25.814   2.114 -0.1840 -0.2884 -0.1740
  329BOLB   GL2 7876  30.337  25.872   2.106  0.1758 -0.2455 -0.1077
  329BOLB   C1A 7877  29.909  25.991   2.456 -0.2372 -0.1084 -0.1850
  329BOLB   C2A 7878  29.841  25.696   2.860 -0.0256 -0.2769  0.1271
  329BOLB   C3A 7879  29.792  25.720   3.293  0.2349  0.0458 -0.2197
  329BOLB   C4A 7880  29.843  25.457   3.605  0.2016 -0.0354 -0.3439
  329BOLB   C1B 7881  30.173  25.465   2.349  0.3338  0.1320  0.0781
  329BOLB   C2B 7882  30.154  25.279   2.690 -0.0346  0.3419 -0.2665
  329BOLB   C3B 7883  30.145  25.380   3.056 -0.0295  0.0947 -0.2004
  329BOLB   C4B 7884  30.283  25.319   3.490 -0.0742 -0.2350 -0.1183
  329BOLB   NC2 7885  31.257  24.913   5.469 -0.2975 -0.0337  0.2206
  329BOLB   PO2 7886  30.876  25.170   5.413 -0.2677 -0.2079  0.3055
  329BOLB   GL3 7887  30.750  25.449   5.005 -0.1342  0.1709  0.0047
  329BOLB   GL4 7888  30.970  25.586   4.838 -0.0882 -0.1551 -0.0757
  329BOLB   C1C 7889  30.419  25.679   4.909 -0.0936 -0.1385  0.0848
  329BOLB   C2C 7890  30.204  25.682   4.658 -0.0730  0.0085 -0.0738
  329BOLB   C3C 7891  30.230  25.442   4.359 -0.0120  0.0169  0.2039
  329BOLB   C4C 7892  30.256  25.479   3.913  0.0924 -0.2865  0.1797
  329BOLB   C1D 7893  30.681  25.773   4.407 -0.2217 -0.1175  0.2237
  329BOLB   C2D 7894  30.481  25.930   4.074 -0.0819 -0.1071  0.0630
  329BOLB   C3D 7895  30.474  26.331   3.787  0.1680 -0.3591  0.0471
  329BOLB   C4D 7896  30.241  26.570   3.340  0.0214 -0.0714 -0.2312
  330BOLB   NC1 7897  23.292  32.966  15.971 -0.0095  0.0013  0.3688
  330BOLB   PO1 7898  23.288  32.946  15.547  0.0469 -0.0163 -0.0311
  330BOLB   GL1 7899  23.360  32.900  15.106  0.2983  0.0352 -0.0981
  330BOLB   GL2 7900  23.657  33.076  15.093  0.0461  0.0650  0.1096
  330BOLB   C1A 7901  23.272  32.730  14.678  0.3270  0.0760 -0.4481
  330BOLB   C2A 7902  22.888  32.930  14.516 -0.1606  0.0999 -0.2076
  330BOLB   C3A 7903  22.597  33.072  14.206 -0.0401 -0.2907  0.2515
  330BOLB   C4A 7904  22.332  33.376  13.854 -0.0248  0.0880  0.1057
  330BOLB   C1B 7905  23.303  33.275  14.838  0.0929  0.0787  0.1805
  330BOLB   C2B 7906  23.049  33.450  14.475 -0.1641 -0.2699  0.0485
  330BOLB   C3B 7907  22.741  33.584  14.167 -0.1816 -0.3253 -0.1476
  330BOLB   C4B 7908  22.664  33.783  13.871  0.0569 -0.1178 -0.0168
  330BOLB   NC2 7909  20.512  34.699  12.877  0.0803 -0.1541 -0.2155
  330BOLB   PO2 7910  20.757  34.648  12.493  0.0411 -0.1543 -0.1645
  330BOLB   GL3 7911  20.956  34.351  12.824  0.0238  0.1377  0.0305
  330BOLB   GL4 7912  21.264  34.517  12.563 -0.2277  0.0131 -0.0143
  330BOLB   C1C 7913  21.244  34.433  13.111  0.1114 -0.0625  0.1438
  330BOLB   C2C 7914  21.494  34.200  13.412  0.2318  0.1811 -0.0037
  330BOLB   C3C 7915  21.819  33.941  13.561 -0.0200  0.2555 -0.0819
  330BOLB   C4C 7916  22.164  33.662  13.693 -0.0998  0.0020  0.0671
  330BOLB   C1D 7917  21.459  34.157  12.734 -0.0365  0.1831  0.0477
  330BOLB   C2D 7918  21.270  33.887  13.004  0.1020  0.2499 -0.2379
  330BOLB   C3D 7919  21.165  33.543  13.265 -0.2877  0.1148  0.2648
  330BOLB   C4D 7920  20.828  33.343  13.189  0.3363 -0.1988 -0.0577
  331BOLB   NC1 7921  34.409  25.700  19.748 -0.3746 -0.1464 -0.0082
  331BOLB   PO1 7922  34.183  25.423  19.451  0.0056  0.2155  0.0654
  331BOLB   GL1 7923  34.620  25.315  19.397  0.1006 -0.1964 -0.0132
  331BOLB   GL2 7924  34.849  25.445  19.597 -0.2717 -0.1698 -0.3172
  331BOLB   C1A 7925  35.024  25.019  19.347 -0.1466 -0.0136 -0.2913
  331BOLB   C2A 7926  35.262  24.681  19.241 -0.3262 -0.0578  0.0538
  331BOLB   C3A 7927  35.672  24.472  19.068 -0.0823 -0.1481 -0.5029
  331BOLB   C4A 7928  35.984  24.304  18.933  0.0550  0.0481 -0.2205
  331BOLB   C1B 7929  35.235  25.454  19.277 -0.1395 -0.0219 -0.0367
  331BOLB   C2B 7930  35.479  25.200  19.208  0.0189 -0.2504 -0.0249
  331BOLB   C3B 7931  35.757  25.002  18.988  0.0252 -0.0813 -0.2708
  331BOLB   C4B 7932  36.194  24.833  19.078 -0.4536 -0.3033 -0.1763
  331BOLB   NC2 7933  37.842  24.145  17.755 -0.0003  0.0248 -0.2137
  331BOLB   PO2 7934  38.118  24.171  18.255  0.0582 -0.0149 -0.2318
  331BOLB   GL3 7935  37.819  24.436  18.208  0.0801  0.1271  0.2197
  331BOLB   GL4 7936  37.954  24.629  18.457 -0.0922 -0.0230 -0.1755
  331BOLB   C1C 7937  37.464  24.600  18.236  0.1106  0.1742 -0.4171
  331BOLB   C2C 7938  37.149  24.658  18.449  0.3988 -0.1068 -0.1359
  331BOLB   C3C 7939  36.846  24.607  18.772 -0.0612 -0.0499  0.0580
  331BOLB   C4C 7940  36.486  24.270  18.835 -0.1465 -0.0596  0.1595
  331BOLB   C1D 7941  37.593  24.752  18.696 -0.3080 -0.0447  0.3334
  331BOLB   C2D 7942  37.176  24.945  18.851  0.0271  0.0206 -0.1025
  331BOLB   C3D 7943  36.842  25.138  18.628 -0.2026 -0.2468 -0.0703
  331BOLB   C4D 7944  36.649  25.090  18.261 -0.1601  0.1823 -0.0793
  332BOLB   NC1 7945  21.802  31.865  16.346 -0.0281  0.1347 -0.3029
  332BOLB   PO1 7946  21.518  32.112  16.133  0.1537  0.0411  0.3374
  332BOLB   GL1 7947  21.140  32.307  16.068  0.0961  0.0549  0.0669
  332BOLB   GL2 7948  20.938  32.539  16.211  0.0268 -0.0361 -0.0732
  332BOLB   C1A 7949  20.761  32.218  15.807  0.2117 -0.1364 -0.0435
  332BOLB   C2A 7950  20.423  32.115  15.819 -0.1479  0.1421 -0.2131
  332BOLB   C3A 7951  20.058  32.108  15.658 -0.0963 -0.0393  0.1353
  332BOLB   C4A 7952  19.610  32.118  15.507  0.1099  0.4398  0.1409
  332BOLB   C1B 7953  20.503  32.432  16.212  0.0951 -0.2855 -0.2760
  332BOLB   C2B 7954  20.188  32.584  15.978  0.0464 -0.1617  0.1254
  332BOLB   C3B 7955  19.944  32.976  15.773 -0.1148  0.0738 -0.0392
  332BOLB   C4B 7956  19.752  33.342  15.785  0.0721 -0.2710 -0.4108
  332BOLB   NC2 7957  17.421  32.101  14.627  0.0128  0.0491  0.2083
  332BOLB   PO2 7958  17.593  32.423  14.488  0.0014 -0.0820 -0.0683
  332BOLB   GL3 7959  17.999  32.352  14.561 -0.0265  0.0242 -0.0906
  332BOLB   GL4 7960  18.202  32.286  14.330 -0.2998  0.2808 -0.4194
  332BOLB   C1C 7961  18.166  32.112  14.865 -0.0285 -0.0813 -0.0054
  332BOLB   C2C 7962  18.511  31.906  14.967 -0.3723  0.3004  0.0457
  332BOLB   C3C 7963  18.985  31.840  14.913  0.4205  0.1039  0.0136
  332BOLB   C4C 7964  19.444  32.037  15.096 -0.0146 -0.0813 -0.1481
  332BOLB   C1D 7965  18.645  32.117  14.482  0.1187  0.2007 -0.0273
  332BOLB   C2D 7966  19.066  32.173  14.555 -0.0164  0.1610  0.5037
  332BOLB   C3D 7967  19.351  32.426  14.800 -0.1924 -0.1135  0.1261
  332BOLB   C4D 7968  19.788  32.521  14.671 -0.1887  0.1670  0.0159
  333BOLB   NC1 7969  22.773  31.557  15.705  0.0954  0.3517  0.1179
  333BOLB   PO1 7970  22.303  31.570  15.562 -0.2622 -0.0068 -0.1248
  333BOLB   GL1 7971  22.011  31.695  15.169 -0.1814 -0.1683 -0.1178
  333BOLB   GL2 7972  22.150  31.899  14.924  0.0113 -0.1297 -0.1858
  333BOLB   C1A 7973  21.632  31.685  15.128  0.0265 -0.2183 -0.3069
  333BOLB   C2A 7974  21.347  31.814  14.794  0.1782  0.0797  0.0004
  333BOLB   C3A 7975  21.239  31.659  14.391 -0.2407  0.0858 -0.0141
  333BOLB   C4A 7976  21.129  31.442  14.021 -0.0691  0.1123  0.0285
  333BOLB   C1B 7977  21.795  31.849  14.620 -0.4072  0.3113 -0.2093
  333BOLB   C2B 7978  21.506  32.066  14.305  0.0004 -0.0219  0.1239
  333BOLB   C3B 7979  21.220  32.249  14.010 -0.2363 -0.2011 -0.0555
  333BOLB   C4B 7980  20.854  32.486  14.154 -0.1229 -0.2388 -0.1593
  333BOLB   NC2 7981  19.683  31.630  12.195  0.0694 -0.2688  0.0028
  333BOLB   PO2 7982  19.658  32.029  12.146 -0.0953 -0.0665 -0.0713
  333BOLB   GL3 7983  19.924  31.914  12.540  0.1662 -0.1821  0.0612
  333BOLB   GL4 7984  19.745  31.789  12.755 -0.1759  0.5250 -0.1256
  333BOLB   C1C 7985  20.234  31.613  12.702  0.1788  0.0779  0.2030
  333BOLB   C2C 7986  20.455  31.418  13.048 -0.0360 -0.0813 -0.1262
  333BOLB   C3C 7987  20.595  31.175  13.344  0.1768  0.2948  0.0042
  333BOLB   C4C 7988  20.960  31.120  13.700 -0.1959  0.1222  0.1340
  333BOLB   C1D 7989  19.901  31.529  13.051  0.0413  0.0639  0.1947
  333BOLB   C2D 7990  20.117  31.528  13.395 -0.2213  0.0736  0.1639
  333BOLB   C3D 7991  20.452  31.559  13.723  0.1369 -0.0193 -0.1268
  333BOLB   C4D 7992  20.894  31.610  13.623 -0.1830  0.0076  0.0223
  334BOLB   NC1 7993  29.783  35.721  16.663  0.0324  0.0848 -0.0116
  334BOLB   PO1 7994  29.937  36.223  16.822  0.0280 -0.0950  0.6402
  334BOLB   GL1 7995  30.155  36.465  16.607  0.1252 -0.2757 -0.0191
  334BOLB   GL2 7996  30.114  36.715  16.529  0.3196  0.0020 -0.0782
  334BOLB   C1A 7997  30.373  36.334  16.267 -0.1902  0.0957 -0.1030
  334BOLB   C2A 7998  30.552  36.565  15.969  0.0021 -0.0240 -0.0908
  334BOLB   C3A 7999  30.362  36.759  15.585 -0.1213 -0.0284  0.0575
  334BOLB   C4A 8000  30.472  36.820  15.121 -0.3198 -0.3453  0.3298
  334BOLB   C1B 8001  30.487  36.975  16.393 -0.0772 -0.0534  0.1873
  334BOLB   C2B 8002  30.696  37.163  16.013  0.0849 -0.0040 -0.1954
  334BOLB   C3B 8003  30.971  37.290  15.761 -0.2152 -0.1731 -0.0586
  334BOLB   C4B 8004  31.339  37.435  15.621 -0.1410  0.2615 -0.1095
  334BOLB   NC2 8005  30.830  38.419  13.336 -0.1178 -0.1622  0.1900
  334BOLB   PO2 8006  30.410  38.352  13.240 -0.5157 -0.1719  0.0006
  334BOLB   GL3 8007  30.265  38.082  13.535  0.1450 -0.2493 -0.0978
  334BOLB   GL4 8008  29.896  38.047  13.498 -0.1585 -0.3182 -0.1914
  334BOLB   C1C 8009  30.542  37.919  13.873  0.1031 -0.3338  0.0277
  334BOLB   C2C 8010  30.671  37.751  14.374 -0.0567  0.2703 -0.0132
  334BOLB   C3C 8011  30.575  37.490  14.647 -0.2075  0.2294  0.1734
  334BOLB   C4C 8012  30.642  37.159  14.909  0.0502 -0.2082  0.1086
  334BOLB   C1D 8013  29.506  37.813  13.540 -0.0601  0.0080  0.0287
  334BOLB   C2D 8014  29.222  37.626  13.881  0.0679  0.0831  0.4555
  334BOLB   C3D 8015  29.149  37.377  14.232 -0.0756  0.0535 -0.2620
  334BOLB   C4D 8016  29.280  37.434  14.618  0.0026  0.2658  0.0048
  335BOLB   NC1 8017  13.753  25.280  19.919 -0.2730 -0.0347 -0.2120
  335BOLB   PO1 8018  14.005  25.465  19.578 -0.0755 -0.0491  0.0591
  335BOLB   GL1 8019  14.307  25.471  19.792  0.1235  0.3895  0.1978
  335BOLB   GL2 8020  14.489  25.229  19.533 -0.2327 -0.1000 -0.2460
  335BOLB   C1A 8021  14.642  25.641  19.987 -0.2713 -0.4596 -0.2092
  335BOLB   C2A 8022  15.121  25.537  19.839  0.2110 -0.0751 -0.0409
  335BOLB   C3A 8023  15.617  25.677  19.891  0.0980  0.1197 -0.1651
  335BOLB   C4A 8024  15.835  25.557  19.645 -0.3941  0.1734  0.2147
  335BOLB   C1B 8025  14.606  24.944  19.826 -0.3455  0.1088 -0.2925
  335BOLB   C2B 8026  14.834  24.707  20.167 -0.4006 -0.0149 -0.1810
  335BOLB   C3B 8027  15.191  24.632  20.336 -0.1490 -0.0686  0.1032
  335BOLB   C4B 8028  15.273  24.538  20.696 -0.1839  0.0445 -0.2420
  335BOLB   NC2 8029  15.026  26.564  17.627 -0.1195  0.1003  0.0826
  335BOLB   PO2 8030  15.190  27.019  17.798 -0.1069  0.1200  0.1534
  335BOLB   GL3 8031  15.418  26.682  17.962  0.0226 -0.2753 -0.0089
  335BOLB   GL4 8032  15.381  26.337  17.888  0.1206  0.0708  0.0013
  335BOLB   C1C 8033  15.800  26.628  18.237  0.3251  0.2765  0.1738
  335BOLB   C2C 8034  15.899  26.433  18.625 -0.1165  0.3628 -0.1909
  335BOLB   C3C 8035  15.969  26.216  19.120  0.3309 -0.3031  0.0618
  335BOLB   C4C 8036  15.911  25.731  19.195 -0.2083  0.4853 -0.1415
  335BOLB   C1D 8037  15.868  26.428  17.727 -0.0143 -0.0082 -0.4309
  335BOLB   C2D 8038  16.293  26.556  17.951  0.2610 -0.1546  0.0999
  335BOLB   C3D 8039  16.505  26.615  18.285  0.2358 -0.0215  0.2981
  335BOLB   C4D 8040  16.886  26.571  18.481  0.1388  0.0176  0.1275
  336BOLB   NC1 8041  33.286  33.637  16.615  0.0169 -0.1053 -0.1108
  336BOLB   PO1 8042  33.574  33.376  16.511  0.2245 -0.1338  0.2411
  336BOLB   GL1 8043  33.666  33.581  16.259  0.1475 -0.1047  0.0504
  336BOLB   GL2 8044  33.407  33.482  16.070 -0.0365  0.1032  0.2277
  336BOLB   C1A 8045  33.981  33.835  16.041 -0.3178  0.1014  0.4016
  336BOLB   C2A 8046  34.011  34.227  15.915 -0.1360 -0.1886 -0.0387
  336BOLB   C3A 8047  34.259  34.437  15.658  0.2520  0.0885 -0.0426
  336BOLB   C4A 8048  34.618  34.453  15.395 -0.1155  0.2888  0.2266
  336BOLB   C1B 8049  33.571  33.842  15.752  0.2499 -0.0847 -0.1085
  336BOLB   C2B 8050  33.304  33.991  15.421  0.1614  0.1239 -0.0687
  336BOLB   C3B 8051  33.009  34.323  15.374 -0.1469 -0.2644  0.0459
  336BOLB   C4B 8052  32.919  34.475  15.139 -0.0133  0.0326  0.0756
  336BOLB   NC2 8053  36.001  35.322  12.954  0.3719  0.0942  0.0387
  336BOLB   PO2 8054  35.604  35.175  13.193  0.0444  0.1278  0.1039
  336BOLB   GL3 8055  35.389  35.054  13.552 -0.0768 -0.0683 -0.0844
  336BOLB   GL4 8056  35.679  35.084  13.705  0.1701  0.1969  0.0445
  336BOLB   C1C 8057  35.031  35.041  13.953  0.0295 -0.3805 -0.0554
  336BOLB   C2C 8058  34.902  34.913  14.361 -0.0593 -0.0616  0.0431
  336BOLB   C3C 8059  34.706  34.840  14.785 -0.1359  0.3535  0.0632
  336BOLB   C4C 8060  34.799  34.626  15.094 -0.0965 -0.0828  0.0847
  336BOLB   C1D 8061  35.484  34.888  14.133 -0.2096  0.0370  0.0602
  336BOLB   C2D 8062  35.335  34.637  14.418  0.0048  0.1559 -0.1779
  336BOLB   C3D 8063  35.332  34.614  14.727  0.3844 -0.1939 -0.1468
  336BOLB   C4D 8064  35.238  34.488  15.268 -0.0221  0.0838 -0.3221
  337BOLB   NC1 8065  34.912  31.042  25.523 -0.2355  0.3354  0.1296
  337BOLB   PO1 8066  34.950  31.086  25.124  0.4757 -0.1229 -0.0914
  337BOLB   GL1 8067  35.399  30.991  25.257  0.1982 -0.2229  0.1053
  337BOLB   GL2 8068  35.229  30.665  25.432  0.2304 -0.0089 -0.1980
  337BOLB   C1A 8069  35.758  31.001  25.415 -0.0866 -0.3328 -0.0016
  337BOLB   C2A 8070  35.955  31.141  25.717 -0.2583  0.2011 -0.0737
  337BOLB   C3A 8071  36.212  31.184  26.086  0.0683 -0.2084 -0.1452
  337BOLB   C4A 8072  36.580  31.472  25.918 -0.1988 -0.0251 -0.0276
  337BOLB   C1B 8073  35.628  30.589  25.542  0.0807  0.1914 -0.3692
  337BOLB   C2B 8074  35.996  30.500  25.722 -0.1627  0.0365  0.1161
  337BOLB   C3B 8075  36.376  30.369  25.912 -0.0122 -0.1432 -0.1453
  337BOLB   C4B 8076  36.750  30.452  25.900  0.2818 -0.0498 -0.3353
  337BOLB   NC2 8077  38.829  32.353  26.565 -0.0599 -0.1571  0.3530
  337BOLB   PO2 8078  38.311  32.411  26.787  0.0753 -0.1550  0.3334
  337BOLB   GL3 8079  38.237  32.143  26.521  0.1035 -0.0595 -0.2749
  337BOLB   GL4 8080  38.461  31.939  26.396  0.1316 -0.1108  0.2201
  337BOLB   C1C 8081  37.888  31.978  26.373  0.0204  0.1389  0.1306
  337BOLB   C2C 8082  37.571  32.008  26.204 -0.0889 -0.0116  0.0885
  337BOLB   C3C 8083  37.400  31.895  25.834  0.0426  0.2437 -0.2014
  337BOLB   C4C 8084  36.978  31.716  25.733 -0.3626 -0.1205 -0.1490
  337BOLB   C1D 8085  38.177  31.871  26.002 -0.0478 -0.0489  0.1432
  337BOLB   C2D 8086  37.819  31.599  25.872  0.2248 -0.1975  0.1932
  337BOLB   C3D 8087  37.481  31.412  25.649 -0.3462  0.0371 -0.0154
  337BOLB   C4D 8088  37.435  30.993  25.486  0.0784 -0.0346  0.0869
  338BOLB   NC1 8089  25.051  17.521  16.929 -0.0802 -0.1001  0.0397
  338BOLB   PO1 8090  24.913  17.650  17.346  0.0150 -0.1517  0.2605
  338BOLB   GL1 8091  25.053  17.986  17.485  0.1994 -0.0771  0.2695
  338BOLB   GL2 8092  25.184  17.942  17.757 -0.0896 -0.2205  0.0879
  338BOLB   C1A 8093  25.168  18.418  17.635 -0.0417  0.0251  0.1937
  338BOLB   C2A 8094  25.199  18.763  17.808  0.0328 -0.3650 -0.4412
  338BOLB   C3A 8095  25.317  19.007  18.138 -0.0351  0.0375  0.1207
  338BOLB   C4A 8096  25.426  19.287  18.511 -0.0100  0.2792 -0.1764
  338BOLB   C1B 8097  25.472  18.090  17.995  0.1456 -0.1484  0.0747
  338BOLB   C2B 8098  25.775  18.238  18.373 -0.0304 -0.2407 -0.1405
  338BOLB   C3B 8099  25.953  18.251  18.751 -0.0080 -0.3488  0.3773
  338BOLB   C4B 8100  25.893  18.238  19.073  0.1421  0.0597 -0.2808
  338BOLB   NC2 8101  27.080  17.618  18.499  0.1159  0.3048  0.1724
  338BOLB   PO2 8102  27.024  17.768  18.075 -0.1566  0.1486  0.0044
  338BOLB   GL3 8103  26.870  18.034  18.446 -0.0612 -0.1683  0.0352
  338BOLB   GL4 8104  27.112  18.171  18.449  0.1619  0.2165  0.2076
  338BOLB   C1C 8105  26.621  18.205  18.706  0.0463 -0.1776  0.0333
  338BOLB   C2C 8106  26.381  18.664  18.820  0.1217 -0.0499  0.1025
  338BOLB   C3C 8107  26.164  19.033  18.788  0.0922 -0.1093 -0.0831
  338BOLB   C4C 8108  25.786  19.293  18.763 -0.0333  0.2166 -0.2150
  338BOLB   C1D 8109  27.036  18.578  18.655 -0.3219  0.3816  0.1342
  338BOLB   C2D 8110  26.893  18.899  18.742  0.2109 -0.0473 -0.4220
  338BOLB   C3D 8111  26.599  19.264  18.782  0.0355 -0.2656 -0.0309
  338BOLB   C4D 8112  26.309  19.563  18.609  0.5293 -0.0877 -0.1393
  339BOLB   NC1 8113  28.648  21.753  20.615 -0.2109  0.1894 -0.1748
  339BOLB   PO1 8114  28.702  21.895  20.201 -0.0823 -0.2345  0.1612
  339BOLB   GL1 8115  28.710  21.573  19.971 -0.2669  0.0402  0.0478
  339BOLB   GL2 8116  28.875  21.438  20.314 -0.0958 -0.4566 -0.0650
  339BOLB   C1A 8117  28.729  21.077  19.966  0.0864 -0.1009  0.0107
  339BOLB   C2A 8118  28.741  20.618  20.006 -0.1886 -0.1405  0.0122
  339BOLB   C3A 8119  28.745  20.217  19.773  0.0425 -0.2013 -0.0081
  339BOLB   C4A 8120  29.083  19.861  19.809 -0.0469 -0.1095  0.2873
  339BOLB   C1B 8121  28.905  20.990  20.418  0.2183  0.0590  0.1128
  339BOLB   C2B 8122  29.062  20.542  20.434  0.0559 -0.0232  0.0778
  339BOLB   C3B 8123  29.366  20.178  20.329  0.0576 -0.1843 -0.0726
  339BOLB   C4B 8124  29.584  20.047  20.034 -0.1495  0.3279  0.1486
  339BOLB   NC2 8125  30.913  18.025  19.602  0.2525  0.3780  0.0988
  339BOLB   PO2 8126  30.578  18.072  19.334 -0.3053 -0.0723  0.0921
  339BOLB   GL3 8127  30.244  18.278  19.312 -0.3957  0.0662  0.3022
  339BOLB   GL4 8128  30.419  18.598  19.417  0.0034 -0.0226 -0.0995
  339BOLB   C1C 8129  29.948  18.623  19.301 -0.2335  0.1549 -0.0894
  339BOLB   C2C 8130  29.770  18.864  19.617  0.4307  0.0438  0.1137
  339BOLB   C3C 8131  29.776  19.300  19.605  0.0599  0.0488 -0.3927
  339BOLB   C4C 8132  29.467  19.613  19.695 -0.1565 -0.1613  0.2516
  339BOLB   C1D 8133  30.243  18.965  19.525 -0.2018  0.0666  0.0156
  339BOLB   C2D 8134  30.128  19.202  19.995  0.2012  0.0876 -0.0612
  339BOLB   C3D 8135  29.981  19.647  19.880  0.1423 -0.1635  0.1187
  339BOLB   C4D 8136  29.910  20.126  19.571  0.0668 -0.1520  0.2527
  340BOLB   NC1 8137  28.762  31.714  14.274  0.0444  0.4360 -0.0553
  340BOLB   PO1 8138  28.603  31.580  13.882  0.0818  0.0944 -0.1138
  340BOLB   GL1 8139  28.736  31.755  13.513  0.2809 -0.3298 -0.1527
  340BOLB   GL2 8140  28.995  31.628  13.345 -0.0117  0.1808 -0.2753
  340BOLB   C1A 8141  28.567  32.112  13.292  0.1651  0.2677 -0.0505
  340BOLB   C2A 8142  28.404  31.869  12.941  0.3366 -0.2306  0.1942
  340BOLB   C3A 8143  28.600  31.857  12.581 -0.0274  0.0164  0.0627
  340BOLB   C4A 8144  28.653  31.874  12.215  0.0444  0.1290 -0.0060
  340BOLB   C1B 8145  29.082  31.642  12.948 -0.4723  0.0865 -0.2526
  340BOLB   C2B 8146  29.090  31.732  12.445  0.0336  0.1240 -0.0175
  340BOLB   C3B 8147  29.444  31.933  12.104  0.1818 -0.3690  0.0840
  340BOLB   C4B 8148  29.593  31.938  11.742 -0.3129 -0.0440  0.1585
  340BOLB   NC2 8149  28.647  32.517   9.700 -0.1731 -0.0621 -0.1459
  340BOLB   PO2 8150  28.587  32.071   9.718  0.4782 -0.2050  0.2370
  340BOLB   GL3 8151  28.561  32.122  10.144  0.2495  0.2403  0.2926
  340BOLB   GL4 8152  28.281  32.243  10.169  0.1207  0.1317  0.1384
  340BOLB   C1C 8153  28.605  32.158  10.549  0.1079 -0.0448  0.2544
  340BOLB   C2C 8154  28.541  31.971  10.974 -0.2219  0.3037  0.1841
  340BOLB   C3C 8155  28.540  31.859  11.490 -0.2005 -0.2311 -0.2081
  340BOLB   C4C 8156  28.675  32.037  11.814  0.0212  0.2227  0.0290
  340BOLB   C1D 8157  28.150  31.942  10.436  0.0783  0.1345  0.4035
  340BOLB   C2D 8158  27.997  31.877  10.834 -0.2152  0.0674 -0.0308
  340BOLB   C3D 8159  28.110  31.775  11.246  0.2230 -0.2757  0.4342
  340BOLB   C4D 8160  27.808  31.593  11.492 -0.4109  0.0245  0.0915
  341BOLB   NC1 8161  35.533  31.267  22.375 -0.0826 -0.3509  0.0868
  341BOLB   PO1 8162  35.843  31.271  22.675  0.1041  0.2745  0.3460
  341BOLB   GL1 8163  36.268  31.296  22.696 -0.0636 -0.0331 -0.3705
  341BOLB   GL2 8164  36.414  31.363  23.027  0.0103  0.0778  0.2046
  341BOLB   C1A 8165  36.686  31.335  22.492  0.1865  0.0323  0.2634
  341BOLB   C2A 8166  37.031  31.471  22.277 -0.2040 -0.1881  0.2833
  341BOLB   C3A 8167  37.393  31.671  22.270  0.1103 -0.0582  0.2764
  341BOLB   C4A 8168  37.730  32.004  22.242 -0.2404 -0.0111 -0.0961
  341BOLB   C1B 8169  36.882  31.451  23.068 -0.0097 -0.1208 -0.3781
  341BOLB   C2B 8170  37.201  31.554  22.787 -0.4026 -0.1676  0.3420
  341BOLB   C3B 8171  37.693  31.724  22.660 -0.1221 -0.0051 -0.1142
  341BOLB   C4B 8172  38.071  31.830  22.527  0.0687  0.0901  0.3424
  341BOLB   NC2 8173  39.670  32.886  23.191  0.0793 -0.0035  0.5892
  341BOLB   PO2 8174  39.761  33.162  22.873  0.0797  0.3093 -0.2181
  341BOLB   GL3 8175  39.380  33.160  22.865  0.4023  0.0261  0.4789
  341BOLB   GL4 8176  39.304  33.440  22.678 -0.2988 -0.0914  0.2831
  341BOLB   C1C 8177  39.000  32.913  22.807 -0.0580 -0.2900  0.3337
  341BOLB   C2C 8178  38.557  32.947  22.615  0.0256  0.0116  0.2035
  341BOLB   C3C 8179  38.327  32.583  22.539  0.0749  0.0632 -0.3215
  341BOLB   C4C 8180  38.127  32.254  22.368  0.1044 -0.2408  0.0949
  341BOLB   C1D 8181  38.966  33.274  22.480  0.0901  0.0015  0.0225
  341BOLB   C2D 8182  38.920  33.031  22.151 -0.3132 -0.0249  0.0883
  341BOLB   C3D 8183  38.563  32.794  22.154  0.3416 -0.1614 -0.0476
  341BOLB   C4D 8184  38.181  32.783  22.011  0.4215 -0.2532 -0.2082
  342BOLB   NC1 8185  28.649  30.895  14.198  0.0436 -0.1664 -0.1932
  342BOLB   PO1 8186  28.225  30.957  14.026 -0.3210  0.1723  0.2238
  342BOLB   GL1 8187  28.333  31.068  13.657 -0.1242 -0.0227 -0.2736
  342BOLB   GL2 8188  28.137  31.029  13.379 -0.1189 -0.3126 -0.2160
  342BOLB   C1A 8189  28.543  31.275  13.159 -0.0772  0.3189  0.1747
  342BOLB   C2A 8190  28.687  31.404  12.776 -0.2265  0.0859 -0.0809
  342BOLB   C3A 8191  28.829  31.257  12.365 -0.0091 -0.0584 -0.0854
  342BOLB   C4A 8192  28.805  31.463  11.999 -0.2859  0.1054  0.1874
  342BOLB   C1B 8193  28.195  31.010  12.928  0.2189  0.1923 -0.0053
  342BOLB   C2B 8194  28.396  31.001  12.467 -0.0331 -0.0524  0.1607
  342BOLB   C3B 8195  28.512  31.037  12.064 -0.0429 -0.2991  0.1405
  342BOLB   C4B 8196  28.538  30.920  11.701 -0.2029  0.0336  0.4518
  342BOLB   NC2 8197  30.197  32.308  10.174 -0.1695  0.1902 -0.2057
  342BOLB   PO2 8198  29.787  32.182  10.265 -0.0179 -0.2811  0.1897
  342BOLB   GL3 8199  29.941  32.106  10.669  0.0976  0.1041  0.1343
  342BOLB   GL4 8200  29.958  31.791  10.534 -0.0322 -0.0919 -0.3835
  342BOLB   C1C 8201  29.764  31.862  11.026 -0.0753  0.0148 -0.4602
  342BOLB   C2C 8202  29.605  31.562  11.310  0.1890 -0.3366  0.1704
  342BOLB   C3C 8203  29.288  31.367  11.549 -0.0563 -0.0413 -0.0156
  342BOLB   C4C 8204  28.803  31.392  11.639  0.3314  0.0348 -0.1840
  342BOLB   C1D 8205  30.204  31.744  10.916  0.0969 -0.2259 -0.1800
  342BOLB   C2D 8206  30.087  31.530  11.243  0.1387  0.1183 -0.2555
  342BOLB   C3D 8207  29.931  31.339  11.652  0.1175 -0.2370 -0.0838
  342BOLB   C4D 8208  29.604  31.411  11.986 -0.0942  0.2284  0.0554
  343BOLB   NC1 8209  33.076  23.533  22.989 -0.1052  0.0769  0.1758
  343BOLB   PO1 8210  32.894  23.374  22.667 -0.5665 -0.0954 -0.4833
  343BOLB   GL1 8211  33.075  23.050  22.747 -0.3833  0.0706 -0.0806
  343BOLB   GL2 8212  33.319  23.097  23.008  0.3213 -0.0619  0.1220
  343BOLB   C1A 8213  33.234  22.756  22.529 -0.1264 -0.1137 -0.4981
  343BOLB   C2A 8214  33.550  22.508  22.313 -0.2508  0.2764 -0.0068
  343BOLB   C3A 8215  33.608  22.106  22.131  0.1518  0.1971 -0.0851
  343BOLB   C4A 8216  33.807  21.916  22.370  0.2498  0.0760 -0.2368
  343BOLB   C1B 8217  33.502  22.911  23.387  0.3449  0.0131 -0.1746
  343BOLB   C2B 8218  33.816  22.551  23.572 -0.2185  0.0398 -0.2892
  343BOLB   C3B 8219  34.144  22.209  23.721 -0.1647 -0.0229 -0.0541
  343BOLB   C4B 8220  34.431  21.867  23.897 -0.2791 -0.0047 -0.0635
  343BOLB   NC2 8221  35.034  20.255  22.816  0.0398  0.1783  0.0403
  343BOLB   PO2 8222  35.348  20.560  23.105  0.1987 -0.1495  0.0791
  343BOLB   GL3 8223  35.156  20.864  23.236 -0.0028 -0.1059  0.0400
  343BOLB   GL4 8224  35.201  20.850  23.560 -0.0147 -0.2475  0.0281
  343BOLB   C1C 8225  34.923  21.244  23.306  0.2338  0.0127 -0.0798
  343BOLB   C2C 8226  34.548  21.600  23.203 -0.2359 -0.1923  0.0721
  343BOLB   C3C 8227  34.256  21.536  22.878  0.3367 -0.0458  0.0011
  343BOLB   C4C 8228  34.099  21.852  22.725 -0.0549  0.1897 -0.2673
  343BOLB   C1D 8229  35.172  21.085  23.944  0.0962  0.3319 -0.1893
  343BOLB   C2D 8230  34.893  21.250  24.209 -0.2614 -0.0178 -0.2579
  343BOLB   C3D 8231  34.682  21.154  24.470 -0.1461 -0.0788  0.3432
  343BOLB   C4D 8232  34.480  21.114  24.861 -0.2130 -0.1723  0.0185
  344BOLB   NC1 8233  33.051  31.083   0.545 -0.0946  0.3126  0.1407
  344BOLB   PO1 8234  33.494  31.121   0.710 -0.0377  0.1755  0.0842
  344BOLB   GL1 8235  33.483  31.346   1.104  0.1242 -0.0573  0.0976
  344BOLB   GL2 8236  33.753  31.383   1.207 -0.3871  0.0236 -0.0177
  344BOLB   C1A 8237  33.503  31.782   1.278 -0.1842 -0.1803 -0.0590
  344BOLB   C2A 8238  33.701  31.960   1.617  0.0363 -0.3822 -0.1534
  344BOLB   C3A 8239  34.070  31.959   1.871 -0.1552  0.2869 -0.1599
  344BOLB   C4A 8240  34.483  31.842   1.956  0.0759 -0.0109 -0.1994
  344BOLB   C1B 8241  33.987  31.470   1.583  0.0762 -0.1694 -0.2178
  344BOLB   C2B 8242  34.306  31.306   1.711 -0.0946  0.1407  0.0284
  344BOLB   C3B 8243  34.347  31.170   2.125 -0.4176  0.2654  0.1278
  344BOLB   C4B 8244  34.448  30.785   2.279 -0.1965  0.3226 -0.0843
  344BOLB   NC2 8245  35.936  31.759   3.997  0.0867  0.0793  0.3511
  344BOLB   PO2 8246  36.168  31.628   3.711 -0.0138  0.0303 -0.2378
  344BOLB   GL3 8247  35.929  31.542   3.348  0.1168 -0.1468 -0.0953
  344BOLB   GL4 8248  35.710  31.489   3.525  0.2033 -0.0338  0.1738
  344BOLB   C1C 8249  35.583  31.572   3.006  0.0645  0.2809  0.3213
  344BOLB   C2C 8250  35.403  31.723   2.645  0.1738 -0.3552 -0.1883
  344BOLB   C3C 8251  35.319  31.776   2.180  0.0791  0.0970  0.1016
  344BOLB   C4C 8252  34.932  31.788   1.979 -0.0905 -0.0951 -0.0185
  344BOLB   C1D 8253  35.218  31.446   3.440 -0.0238 -0.3908  0.4594
  344BOLB   C2D 8254  34.790  31.324   3.361  0.2262 -0.2444 -0.2230
  344BOLB   C3D 8255  34.500  31.412   3.076  0.1861 -0.1932 -0.0445
  344BOLB   C4D 8256  34.377  31.631   2.817  0.1332 -0.0370  0.1160
  345BOLB   NC1 8257  31.800  29.533   2.367  0.1499  0.2087  0.3299
  345BOLB   PO1 8258  31.352  29.546   2.425  0.2389  0.3981  0.0657
  345BOLB   GL1 8259  31.476  29.534   2.882 -0.3382 -0.1443 -0.1839
  345BOLB   GL2 8260  31.600  29.946   2.933 -0.1136 -0.0035  0.3407
  345BOLB   C1A 8261  31.808  29.358   3.231  0.1628  0.1014  0.3038
  345BOLB   C2A 8262  32.033  29.206   3.606  0.0605 -0.0213 -0.1197
  345BOLB   C3A 8263  32.147  29.193   3.881  0.1082 -0.0177  0.0332
  345BOLB   C4A 8264  32.260  29.100   4.206 -0.1691  0.2008  0.0558
  345BOLB   C1B 8265  31.424  29.845   3.344 -0.1712 -0.2216 -0.1159
  345BOLB   C2B 8266  31.074  29.814   3.588 -0.2744  0.1181  0.1811
  345BOLB   C3B 8267  31.187  29.690   3.928  0.0262 -0.3523  0.0290
  345BOLB   C4B 8268  31.372  29.580   4.382 -0.0115 -0.0602 -0.0888
  345BOLB   NC2 8269  32.364  28.135   6.439  0.0086  0.1436 -0.3420
  345BOLB   PO2 8270  32.706  28.302   6.229 -0.0690 -0.1217  0.1885
  345BOLB   GL3 8271  32.441  28.362   5.806 -0.0909 -0.0806  0.1527
  345BOLB   GL4 8272  32.150  28.709   5.765  0.0557  0.0395  0.0165
  345BOLB   C1C 8273  32.389  28.453   5.430 -0.0808 -0.2271  0.1417
  345BOLB   C2C 8274  32.348  28.853   5.288  0.1490  0.0699 -0.1176
  345BOLB   C3C 8275  31.955  29.041   5.069  0.0583  0.0426  0.1566
  345BOLB   C4C 8276  31.939  29.033   4.567  0.0950  0.0216 -0.0723
  345BOLB   C1D 8277  31.895  28.606   5.438  0.2328  0.0961 -0.0960
  345BOLB   C2D 8278  31.564  28.619   5.088  0.0996 -0.0726 -0.1303
  345BOLB   C3D 8279  31.391  28.656   4.733 -0.1873 -0.0256  0.2250
  345BOLB   C4D 8280  31.193  28.738   4.358  0.1525 -0.0910 -0.1248
  346BOLB   NC1 8281  32.643  35.957  24.057 -0.0247  0.0728  0.0284
  346BOLB   PO1 8282  32.329  36.265  23.812  0.0988  0.3894 -0.0217
  346BOLB   GL1 8283  32.646  36.467  23.819  0.0069 -0.2863  0.0830
  346BOLB   GL2 8284  32.728  36.726  23.627  0.1316 -0.1720  0.4827
  346BOLB   C1A 8285  32.998  36.594  24.094 -0.1158  0.3627  0.0355
  346BOLB   C2A 8286  33.246  36.866  24.246 -0.2415 -0.0900 -0.1084
  346BOLB   C3A 8287  33.452  37.203  24.361 -0.1785  0.1520  0.1062
  346BOLB   C4A 8288  33.651  37.499  24.619 -0.2443  0.2379  0.1135
  346BOLB   C1B 8289  32.970  37.056  23.825 -0.0666 -0.0345  0.3187
  346BOLB   C2B 8290  33.034  37.464  24.068 -0.0665 -0.0405  0.0071
  346BOLB   C3B 8291  32.956  37.932  24.217 -0.2492  0.1573  0.1321
  346BOLB   C4B 8292  32.904  38.134  24.627  0.0287  0.0437  0.1480
  346BOLB   NC2 8293  35.532  38.674  25.466 -0.1048  0.0210  0.3079
  346BOLB   PO2 8294  35.336  39.033  25.126  0.2514  0.0965 -0.4046
  346BOLB   GL3 8295  35.180  38.609  24.982  0.1164 -0.1044 -0.2833
  346BOLB   GL4 8296  35.435  38.472  25.026 -0.2837 -0.0216  0.1506
  346BOLB   C1C 8297  35.064  38.163  24.915 -0.0117  0.2703  0.4116
  346BOLB   C2C 8298  34.736  37.854  24.794 -0.0035  0.0881 -0.2040
  346BOLB   C3C 8299  34.245  37.938  24.758 -0.1508 -0.2513 -0.0156
  346BOLB   C4C 8300  33.877  37.840  24.582  0.0130  0.3412 -0.0739
  346BOLB   C1D 8301  35.454  38.242  24.668 -0.1405  0.2487  0.0098
  346BOLB   C2D 8302  35.170  37.794  24.578 -0.2548  0.3648 -0.0719
  346BOLB   C3D 8303  34.951  37.747  24.239 -0.2676 -0.2417 -0.0515
  346BOLB   C4D 8304  34.793  37.346  24.141  0.2024  0.2597 -0.0416
  347BOLB   NC1 8305  34.387  24.462  22.254  0.0117  0.1087 -0.1070
  347BOLB   PO1 8306  34.277  24.081  22.150 -0.0899  0.0535  0.1047
  347BOLB   GL1 8307  34.684  24.050  22.369  0.1110  0.0636  0.2830
  347BOLB   GL2 8308  34.720  23.877  22.175  0.1429  0.1158  0.1536
  347BOLB   C1A 8309  34.952  23.794  22.589  0.3554  0.1760 -0.4709
  347BOLB   C2A 8310  35.189  23.367  22.654 -0.1575 -0.1433  0.0667
  347BOLB   C3A 8311  35.506  23.355  22.588  0.1176  0.3700  0.0962
  347BOLB   C4A 8312  35.783  23.410  22.327  0.3882  0.1487 -0.0593
  347BOLB   C1B 8313  34.920  23.731  21.680  0.0464  0.1877  0.1218
  347BOLB   C2B 8314  35.206  23.486  21.467 -0.2324 -0.2665 -0.0410
  347BOLB   C3B 8315  35.590  23.440  21.405 -0.0601  0.1058 -0.0487
  347BOLB   C4B 8316  35.865  23.170  21.289  0.0756  0.2301 -0.0208
  347BOLB   NC2 8317  37.993  22.533  22.867 -0.1602 -0.0267  0.0109
  347BOLB   PO2 8318  37.963  22.875  23.213  0.3618 -0.0491  0.0968
  347BOLB   GL3 8319  37.531  22.811  23.047 -0.1309  0.0525 -0.0025
  347BOLB   GL4 8320  37.291  22.625  23.214  0.0442 -0.1492  0.0752
  347BOLB   C1C 8321  37.191  22.982  22.788  0.0573 -0.0098 -0.4581
  347BOLB   C2C 8322  36.914  23.265  22.528 -0.1333 -0.1499 -0.2739
  347BOLB   C3C 8323  36.557  23.315  22.308  0.3178 -0.0795  0.0880
  347BOLB   C4C 8324  36.169  23.284  22.219  0.0120  0.0388 -0.1240
  347BOLB   C1D 8325  36.901  22.731  23.290  0.1452  0.0037 -0.0456
  347BOLB   C2D 8326  36.459  23.005  23.477 -0.1362  0.0215 -0.3180
  347BOLB   C3D 8327  36.309  22.847  23.959  0.1656 -0.4910 -0.3112
  347BOLB   C4D 8328  36.313  22.681  24.273  0.0903  0.2380  0.1494
  348BOLB   NC1 8329  31.750  34.849   0.107 -0.1495 -0.3971  0.0948
  348BOLB   PO1 8330  31.287  35.058   0.065 -0.0403  0.0209  0.0316
  348BOLB   GL1 8331  31.247  35.444   0.332 -0.0120 -0.2870 -0.2552
  348BOLB   GL2 8332  31.330  35.740   0.133  0.0435  0.0103 -0.2687
  348BOLB   C1A 8333  31.532  35.539   0.592 -0.0366 -0.1149  0.1995
  348BOLB   C2A 8334  31.789  35.567   0.391  0.0977 -0.2392 -0.4112
  348BOLB   C3A 8335  32.136  35.868   0.484 -0.3090 -0.0970  0.0102
  348BOLB   C4A 8336  32.390  36.342   0.538  0.2365  0.2116  0.1485
  348BOLB   C1B 8337  31.726  35.979   0.118  0.0943 -0.0920  0.0672
  348BOLB   C2B 8338  32.119  36.283   0.066  0.3866  0.1211  0.2699
  348BOLB   C3B 8339  32.471  36.581   0.142  0.2018  0.1767  0.4419
  348BOLB   C4B 8340  32.867  36.608   0.297 -0.0769  0.2614  0.1944
  348BOLB   NC2 8341  33.454  37.562   2.575  0.3329  0.2674 -0.0168
  348BOLB   PO2 8342  33.692  37.832   2.177  0.1821  0.1521 -0.0020
  348BOLB   GL3 8343  33.504  37.240   2.191 -0.1661 -0.1389  0.0112
  348BOLB   GL4 8344  33.773  37.101   2.024  0.2529  0.1336  0.0566
  348BOLB   C1C 8345  33.315  37.083   1.805 -0.0553 -0.2421  0.0001
  348BOLB   C2C 8346  33.091  36.988   1.426  0.0981 -0.0693  0.0984
  348BOLB   C3C 8347  32.984  36.762   1.048 -0.2262 -0.2617  0.1998
  348BOLB   C4C 8348  32.608  36.694   0.754 -0.1156  0.1208  0.2387
  348BOLB   C1D 8349  33.801  36.716   2.010 -0.0361  0.1451 -0.0599
  348BOLB   C2D 8350  33.556  36.323   1.932 -0.0471 -0.0898 -0.0657
  348BOLB   C3D 8351  33.250  36.193   1.840  0.0758 -0.1212 -0.3585
  348BOLB   C4D 8352  33.044  35.974   1.551 -0.1283  0.0488 -0.1881
  349BOLB   NC1 8353  19.347  38.727  23.051  0.1834  0.2107  0.0600
  349BOLB   PO1 8354  19.131  38.636  22.734 -0.0642  0.1544 -0.0944
  349BOLB   GL1 8355  19.239  38.337  22.349 -0.3133  0.0156 -0.0682
  349BOLB   GL2 8356  19.254  38.036  22.459 -0.4791  0.0013 -0.2795
  349BOLB   C1A 8357  19.647  38.171  22.125  0.0715  0.1470 -0.4199
  349BOLB   C2A 8358  20.022  37.955  22.018 -0.1104  0.1896 -0.1294
  349BOLB   C3A 8359  20.432  37.894  21.891 -0.0203  0.1898  0.2345
  349BOLB   C4A 8360  20.849  37.661  21.836  0.1156  0.2847 -0.0514
  349BOLB   C1B 8361  19.303  37.633  22.604 -0.0350 -0.0505  0.0935
  349BOLB   C2B 8362  19.520  37.273  22.521  0.1667  0.0879 -0.0104
  349BOLB   C3B 8363  19.962  37.143  22.497 -0.0611  0.2102 -0.0108
  349BOLB   C4B 8364  20.304  37.079  22.183  0.0595 -0.2704 -0.0104
  349BOLB   NC2 8365  21.931  39.928  21.068 -0.2190 -0.1917 -0.3670
  349BOLB   PO2 8366  21.509  39.739  21.073 -0.0210  0.3189  0.0688
  349BOLB   GL3 8367  21.515  39.343  21.203  0.1299  0.1838 -0.3047
  349BOLB   GL4 8368  21.855  39.279  21.223 -0.1032 -0.1241  0.2959
  349BOLB   C1C 8369  21.237  38.931  21.272  0.2152  0.1189 -0.0465
  349BOLB   C2C 8370  21.264  38.587  21.456  0.4094 -0.0732  0.0804
  349BOLB   C3C 8371  21.159  38.236  21.338 -0.0771 -0.0015 -0.2798
  349BOLB   C4C 8372  21.127  37.876  21.620  0.1515 -0.1101 -0.0458
  349BOLB   C1D 8373  21.928  38.859  21.258 -0.1278  0.2440 -0.0532
  349BOLB   C2D 8374  21.832  38.460  21.365  0.2736 -0.3870  0.1872
  349BOLB   C3D 8375  21.644  38.096  21.571 -0.0778  0.2032  0.4884
  349BOLB   C4D 8376  21.509  37.638  21.392  0.0586 -0.1519  0.3245
  350BOLB   NC1 8377  21.687  34.670  22.306 -0.0124  0.1790 -0.4453
  350BOLB   PO1 8378  21.687  35.104  22.169 -0.2061 -0.3844 -0.0446
  350BOLB   GL1 8379  21.336  35.497  21.993  0.1054 -0.0415  0.2112
  350BOLB   GL2 8380  21.155  35.403  21.740 -0.1333 -0.0030  0.0498
  350BOLB   C1A 8381  21.056  35.796  22.125  0.1131 -0.1508  0.2557
  350BOLB   C2A 8382  20.865  36.239  22.111  0.0907 -0.1642  0.0064
  350BOLB   C3A 8383  20.862  36.618  22.273  0.4535  0.2802  0.0201
  350BOLB   C4A 8384  20.571  36.772  22.517 -0.2391  0.1719 -0.1471
  350BOLB   C1B 8385  20.732  35.472  21.799  0.1776 -0.0857 -0.3684
  350BOLB   C2B 8386  20.239  35.696  21.841 -0.3464 -0.1155  0.2685
  350BOLB   C3B 8387  19.798  35.729  21.872 -0.1133 -0.4021  0.0110
  350BOLB   C4B 8388  19.439  36.023  22.153  0.0493 -0.1148  0.0252
  350BOLB   NC2 8389  18.672  37.715  23.738 -0.0616  0.2675  0.0043
  350BOLB   PO2 8390  18.768  37.906  23.255 -0.1271  0.0284 -0.1855
  350BOLB   GL3 8391  19.116  37.779  23.379 -0.0634  0.5215 -0.2039
  350BOLB   GL4 8392  19.081  37.484  23.582 -0.1765  0.1832  0.1708
  350BOLB   C1C 8393  19.534  37.683  23.439  0.0555  0.0498  0.0314
  350BOLB   C2C 8394  19.905  37.351  23.379 -0.0261 -0.1725  0.1653
  350BOLB   C3C 8395  20.152  37.107  23.076  0.2959 -0.4277  0.0579
  350BOLB   C4C 8396  20.215  36.799  22.782  0.0426  0.2266 -0.1193
  350BOLB   C1D 8397  19.367  37.130  23.407 -0.0898 -0.0032  0.1832
  350BOLB   C2D 8398  19.728  36.896  23.312  0.1365 -0.1033  0.2640
  350BOLB   C3D 8399  20.093  36.582  23.296  0.1050  0.2051 -0.1948
  350BOLB   C4D 8400  20.420  36.333  23.144 -0.0682 -0.2147  0.3827
  351BOLB   NC1 8401  31.341  35.488  26.577 -0.0981 -0.1693 -0.2353
  351BOLB   PO1 8402  31.130  35.812  26.643  0.2547  0.2431  0.0474
  351BOLB   GL1 8403  31.245  36.136  26.756  0.1088 -0.0371  0.1246
  351BOLB   GL2 8404  31.427  36.383  26.912 -0.0705  0.2820 -0.1069
  351BOLB   C1A 8405  30.991  36.457  26.871 -0.0668 -0.0881  0.0347
  351BOLB   C2A 8406  30.888  36.892   0.127  0.1039 -0.0295 -0.1402
  351BOLB   C3A 8407  30.989  37.037   0.509 -0.0771 -0.0892  0.1118
  351BOLB   C4A 8408  31.238  37.058   0.779 -0.0095 -0.1881 -0.2245
  351BOLB   C1B 8409  31.390  36.748   0.315  0.0523 -0.1695 -0.2836
  351BOLB   C2B 8410  31.326  37.170   0.148  0.2411  0.1180 -0.6227
  351BOLB   C3B 8411  31.279  37.646   0.082 -0.1637  0.0239  0.1679
  351BOLB   C4B 8412  30.989  37.966   0.101 -0.0479  0.0695 -0.1888
  351BOLB   NC2 8413  31.891  38.937   2.232 -0.1071 -0.1330 -0.1235
  351BOLB   PO2 8414  32.167  38.671   2.015  0.2672  0.2733  0.1919
  351BOLB   GL3 8415  31.873  38.425   1.843  0.1312 -0.3032  0.0718
  351BOLB   GL4 8416  31.943  38.181   1.952  0.0159  0.0683  0.2430
  351BOLB   C1C 8417  31.569  38.147   1.647  0.0698  0.1792  0.1669
  351BOLB   C2C 8418  31.767  37.931   1.261 -0.2489  0.2000  0.2239
  351BOLB   C3C 8419  31.746  37.614   0.929  0.0357 -0.1063  0.0640
  351BOLB   C4C 8420  31.699  37.120   0.978  0.1800  0.1819  0.0066
  351BOLB   C1D 8421  31.774  37.775   1.885 -0.0594 -0.0441  0.2686
  351BOLB   C2D 8422  31.421  37.559   1.795  0.3548 -0.0161 -0.0789
  351BOLB   C3D 8423  30.954  37.467   1.574 -0.0372 -0.1386  0.0982
  351BOLB   C4D 8424  30.478  37.373   1.338  0.3700  0.0527  0.1362
  352BOLB   NC1 8425  20.679  28.592  16.564  0.0305  0.0909  0.0894
  352BOLB   PO1 8426  20.642  29.041  16.744 -0.0602 -0.1768  0.1517
  352BOLB   GL1 8427  20.265  29.101  16.622 -0.1867  0.1751 -0.3113
  352BOLB   GL2 8428  20.219  29.353  16.906 -0.0038  0.1167 -0.0745
  352BOLB   C1A 8429  20.084  29.210  16.302 -0.2523  0.2600 -0.0455
  352BOLB   C2A 8430  20.137  29.197  15.947  0.1932 -0.2028  0.0167
  352BOLB   C3A 8431  19.899  29.033  15.600 -0.1235  0.0974  0.2043
  352BOLB   C4A 8432  19.672  29.057  15.219 -0.1085 -0.1682  0.1350
  352BOLB   C1B 8433  19.824  29.426  16.694  0.1929 -0.1730  0.0544
  352BOLB   C2B 8434  19.487  29.257  16.494 -0.3247  0.2709  0.0021
  352BOLB   C3B 8435  19.673  28.953  16.103 -0.0378 -0.2885 -0.1794
  352BOLB   C4B 8436  19.600  28.514  16.111 -0.0139 -0.1655  0.1513
  352BOLB   NC2 8437  17.848  28.798  14.046  0.0620  0.0309 -0.0259
  352BOLB   PO2 8438  17.675  28.842  14.534  0.2701 -0.0774  0.0317
  352BOLB   GL3 8439  17.988  28.909  14.954  0.2975 -0.3317 -0.0691
  352BOLB   GL4 8440  17.871  29.282  14.908 -0.0526 -0.1668 -0.0591
  352BOLB   C1C 8441  18.162  28.644  15.278  0.1725  0.0667  0.4326
  352BOLB   C2C 8442  18.554  28.655  15.414  0.1466  0.0189  0.0214
  352BOLB   C3C 8443  18.847  28.822  15.181 -0.2481  0.0130  0.4144
  352BOLB   C4C 8444  19.188  29.046  15.198  0.1394 -0.3810  0.3044
  352BOLB   C1D 8445  18.309  29.205  15.192  0.2106  0.0496  0.1049
  352BOLB   C2D 8446  18.526  29.526  15.386  0.2089  0.1495 -0.1047
  352BOLB   C3D 8447  18.771  29.714  15.770  0.3507  0.0674 -0.1530
  352BOLB   C4D 8448  18.748  29.973  15.901 -0.2621  0.0315  0.0894
  353BOLB   NC1 8449  33.208  24.830  24.807 -0.2323 -0.2212  0.1615
  353BOLB   PO1 8450  33.438  24.620  25.229 -0.3314 -0.0418 -0.1383
  353BOLB   GL1 8451  33.701  24.629  25.538  0.0913  0.1928 -0.2321
  353BOLB   GL2 8452  33.784  24.369  25.616 -0.0286  0.0048  0.0796
  353BOLB   C1A 8453  34.088  24.865  25.647 -0.1090 -0.3625  0.1917
  353BOLB   C2A 8454  34.547  24.692  25.643  0.3370 -0.0335 -0.0870
  353BOLB   C3A 8455  34.868  24.414  25.551  0.0015 -0.0279  0.2223
  353BOLB   C4A 8456  35.095  24.225  25.865 -0.0830 -0.0985  0.0741
  353BOLB   C1B 8457  34.158  24.323  25.865 -0.0855  0.2272 -0.1476
  353BOLB   C2B 8458  34.641  24.141  25.908  0.1001  0.2611  0.2494
  353BOLB   C3B 8459  35.018  24.051  26.288  0.0415  0.2014  0.1655
  353BOLB   C4B 8460  35.510  24.188  26.301 -0.5301  0.0431  0.0361
  353BOLB   NC2 8461  37.051  22.936  26.512 -0.0832  0.0080 -0.1492
  353BOLB   PO2 8462  36.879  22.500  26.349 -0.0424  0.2895 -0.1921
  353BOLB   GL3 8463  36.635  22.845  26.194  0.0724  0.2037 -0.3730
  353BOLB   GL4 8464  36.413  22.634  26.090  0.0456 -0.0839 -0.0321
  353BOLB   C1C 8465  36.464  23.269  26.109 -0.1136  0.2763 -0.0310
  353BOLB   C2C 8466  36.054  23.506  25.926  0.1157  0.2981 -0.0840
  353BOLB   C3C 8467  35.892  23.807  25.744 -0.0838  0.5933  0.1312
  353BOLB   C4C 8468  35.582  24.171  25.725 -0.0658  0.0225  0.1463
  353BOLB   C1D 8469  36.037  22.913  26.188  0.0249  0.0640 -0.0442
  353BOLB   C2D 8470  35.793  23.076  25.918  0.0436  0.3474 -0.0949
  353BOLB   C3D 8471  35.697  23.359  25.563  0.4692  0.2817  0.5164
  353BOLB   C4D 8472  35.399  23.549  25.226  0.1657 -0.0469 -0.0774
  354BOLB   NC1 8473  31.821  22.403  21.737 -0.1685 -0.1536  0.6697
  354BOLB   PO1 8474  31.479  22.098  21.819  0.0782 -0.2914  0.1836
  354BOLB   GL1 8475  31.878  21.881  21.591  0.4026 -0.2284  0.5190
  354BOLB   GL2 8476  31.748  21.904  21.368 -0.2098 -0.1962  0.2053
  354BOLB   C1A 8477  32.267  21.596  21.505  0.1948  0.0187  0.0568
  354BOLB   C2A 8478  32.694  21.630  21.377 -0.0456 -0.3777 -0.1076
  354BOLB   C3A 8479  33.162  21.545  21.443 -0.1422  0.2693  0.1994
  354BOLB   C4A 8480  33.533  21.281  21.260  0.0152 -0.1396  0.1037
  354BOLB   C1B 8481  31.724  21.528  21.197  0.0619  0.1468 -0.0025
  354BOLB   C2B 8482  32.080  21.151  21.073 -0.1920 -0.1303  0.2658
  354BOLB   C3B 8483  32.226  20.793  20.798  0.4971 -0.0196 -0.0838
  354BOLB   C4B 8484  32.651  20.655  20.572  0.1155 -0.0074  0.1611
  354BOLB   NC2 8485  35.195  19.801  19.957 -0.0856 -0.3385 -0.2188
  354BOLB   PO2 8486  34.875  19.579  19.958  0.2518 -0.1180  0.0204
  354BOLB   GL3 8487  34.514  19.677  20.181  0.2150 -0.2772  0.0610
  354BOLB   GL4 8488  34.326  19.870  19.921 -0.3889 -0.3256 -0.2089
  354BOLB   C1C 8489  34.187  19.855  20.558 -0.3374  0.2455 -0.2039
  354BOLB   C2C 8490  34.112  20.165  20.900  0.1176  0.1062 -0.0628
  354BOLB   C3C 8491  33.849  20.419  21.050  0.1045 -0.0518  0.1200
  354BOLB   C4C 8492  33.623  20.840  21.058 -0.3815  0.4762 -0.0558
  354BOLB   C1D 8493  33.833  19.987  19.929  0.0776  0.1074 -0.5079
  354BOLB   C2D 8494  33.422  20.209  20.087 -0.0233 -0.0759 -0.1954
  354BOLB   C3D 8495  33.101  20.429  20.372  0.0917  0.1996  0.0137
  354BOLB   C4D 8496  32.834  20.207  20.750 -0.0347 -0.4064  0.0561
  355BOLB   NC1 8497  15.816  20.901  16.846  0.1899  0.0677 -0.0151
  355BOLB   PO1 8498  16.349  21.016  16.898  0.0865  0.0096  0.0654
  355BOLB   GL1 8499  16.619  21.303  17.101  0.0576  0.0265 -0.0808
  355BOLB   GL2 8500  16.689  21.175  17.382 -0.0735 -0.2614 -0.0701
  355BOLB   C1A 8501  16.865  21.612  17.233 -0.1189 -0.0282  0.0127
  355BOLB   C2A 8502  17.022  21.892  17.460  0.0543 -0.1558 -0.1239
  355BOLB   C3A 8503  17.239  22.122  17.698  0.1907  0.3527  0.0913
  355BOLB   C4A 8504  17.376  22.268  18.034 -0.0079  0.2106 -0.0667
  355BOLB   C1B 8505  16.739  20.882  17.718  0.0044 -0.0593 -0.0680
  355BOLB   C2B 8506  17.010  20.681  17.876  0.3304 -0.1510 -0.1082
  355BOLB   C3B 8507  17.488  20.770  17.897 -0.0865 -0.2335  0.2178
  355BOLB   C4B 8508  17.745  20.503  18.116  0.2487 -0.2817 -0.2160
  355BOLB   NC2 8509  15.370  23.034  17.748  0.0744 -0.0996 -0.0528
  355BOLB   PO2 8510  15.274  22.565  18.031 -0.0495  0.0870  0.0507
  355BOLB   GL3 8511  15.551  22.537  18.336 -0.2232 -0.0799 -0.2213
  355BOLB   GL4 8512  15.450  22.844  18.541  0.2386 -0.2747  0.0773
  355BOLB   C1C 8513  15.745  22.229  18.502 -0.0776 -0.0461 -0.0880
  355BOLB   C2C 8514  16.140  21.925  18.375 -0.2000  0.0209 -0.1085
  355BOLB   C3C 8515  16.573  22.085  18.275 -0.1500  0.1584  0.0294
  355BOLB   C4C 8516  16.990  22.188  18.253 -0.0051 -0.1533 -0.2412
  355BOLB   C1D 8517  15.828  23.080  18.859 -0.2788  0.2205 -0.0116
  355BOLB   C2D 8518  16.174  22.899  19.097  0.4147  0.2364 -0.1004
  355BOLB   C3D 8519  16.222  23.098  19.574  0.1026  0.1726  0.3404
  355BOLB   C4D 8520  16.384  23.455  19.909 -0.0023  0.2685 -0.0702
  356BOLB   NC1 8521  31.851  36.318  18.224 -0.0490  0.1359  0.2356
  356BOLB   PO1 8522  31.861  36.164  17.764 -0.1351 -0.1694 -0.2095
  356BOLB   GL1 8523  31.952  36.325  17.375  0.1417 -0.0176 -0.1683
  356BOLB   GL2 8524  31.783  36.492  17.204  0.2087 -0.1914  0.0503
  356BOLB   C1A 8525  32.285  36.387  17.079 -0.0890 -0.0433 -0.3792
  356BOLB   C2A 8526  32.578  36.133  16.727 -0.0547  0.2961 -0.1270
  356BOLB   C3A 8527  32.877  36.319  16.488  0.1886  0.0671 -0.1266
  356BOLB   C4A 8528  33.291  36.294  16.270 -0.0170 -0.2094  0.1852
  356BOLB   C1B 8529  31.923  36.846  17.303  0.3209 -0.0911 -0.0436
  356BOLB   C2B 8530  32.044  37.275  17.183 -0.0228  0.2417 -0.2525
  356BOLB   C3B 8531  32.305  37.570  17.112 -0.1648  0.0638  0.2266
  356BOLB   C4B 8532  32.526  37.726  16.859  0.0713  0.0394 -0.0612
  356BOLB   NC2 8533  35.402  38.116  15.328  0.0629  0.0260  0.2555
  356BOLB   PO2 8534  35.184  37.749  15.460  0.0764 -0.0647  0.2840
  356BOLB   GL3 8535  34.871  37.639  15.675 -0.1494 -0.1782  0.0287
  356BOLB   GL4 8536  34.688  37.785  15.792 -0.2423  0.1146 -0.3595
  356BOLB   C1C 8537  34.550  37.274  15.813 -0.0092  0.2211  0.1786
  356BOLB   C2C 8538  34.182  37.061  15.843 -0.0503  0.2895  0.1264
  356BOLB   C3C 8539  33.983  36.696  15.992 -0.0552  0.0754 -0.2960
  356BOLB   C4C 8540  33.603  36.500  16.263 -0.0269  0.0316  0.0366
  356BOLB   C1D 8541  34.781  37.626  16.196  0.0083  0.2693 -0.1101
  356BOLB   C2D 8542  34.726  37.441  16.511  0.0651  0.1826 -0.0542
  356BOLB   C3D 8543  34.367  37.419  16.761  0.0406 -0.0887 -0.0115
  356BOLB   C4D 8544  34.431  37.255  17.167  0.0575  0.1111 -0.1233
  357BOLB   NC1 8545  24.000  28.972  13.834 -0.0478 -0.0174 -0.3659
  357BOLB   PO1 8546  24.267  28.858  13.570  0.1315  0.0539 -0.0038
  357BOLB   GL1 8547  23.854  28.813  13.402 -0.1478  0.0514  0.1674
  357BOLB   GL2 8548  23.877  29.282  13.296 -0.2105  0.1290  0.1863
  357BOLB   C1A 8549  23.573  28.945  13.019 -0.1306  0.2287  0.1759
  357BOLB   C2A 8550  23.588  29.106  12.583 -0.4277  0.2526 -0.1859
  357BOLB   C3A 8551  23.466  29.047  12.268  0.2616 -0.2528  0.2728
  357BOLB   C4A 8552  23.503  29.057  11.826  0.1113 -0.0326  0.1144
  357BOLB   C1B 8553  24.047  28.889  12.916 -0.2442 -0.0803 -0.1122
  357BOLB   C2B 8554  24.030  28.779  12.564  0.1588  0.1044 -0.0690
  357BOLB   C3B 8555  23.952  28.874  12.182  0.0029  0.2265  0.0136
  357BOLB   C4B 8556  24.126  29.033  11.776  0.3209 -0.2123 -0.1486
  357BOLB   NC2 8557  24.379  29.249   9.337  0.0470 -0.1172  0.1990
  357BOLB   PO2 8558  24.412  28.973   9.681  0.1420  0.0454 -0.0776
  357BOLB   GL3 8559  24.403  28.837  10.050  0.0261 -0.0895 -0.5212
  357BOLB   GL4 8560  24.567  29.115  10.208 -0.0393  0.1093 -0.1805
  357BOLB   C1C 8561  24.337  28.696  10.505 -0.1930  0.1600 -0.2221
  357BOLB   C2C 8562  23.971  28.686  10.852  0.0732  0.1448  0.1284
  357BOLB   C3C 8563  23.828  29.050  11.109 -0.0072 -0.0710 -0.0539
  357BOLB   C4C 8564  23.632  28.973  11.429  0.1986  0.1171  0.0186
  357BOLB   C1D 8565  24.707  28.989  10.680  0.0020  0.1122  0.1896
  357BOLB   C2D 8566  24.565  28.637  10.967 -0.0175 -0.2030  0.0664
  357BOLB   C3D 8567  24.828  28.579  11.344 -0.0409 -0.0978 -0.0308
  357BOLB   C4D 8568  25.005  28.595  11.799 -0.0341  0.1505 -0.3380
  358BOLB   NC1 8569  21.694  26.704  16.053 -0.1293  0.3124  0.0273
  358BOLB   PO1 8570  21.657  26.562  16.535 -0.2590 -0.2544  0.1219
  358BOLB   GL1 8571  21.447  26.322  16.181  0.1609  0.2883  0.0153
  358BOLB   GL2 8572  21.657  26.089  15.982 -0.2143 -0.0368  0.1675
  358BOLB   C1A 8573  21.102  25.986  16.270 -0.2281 -0.2013  0.0539
  358BOLB   C2A 8574  20.729  25.710  16.450  0.2389 -0.0583 -0.1146
  358BOLB   C3A 8575  20.700  25.340  16.712 -0.2497  0.1043 -0.1951
  358BOLB   C4A 8576  20.307  25.069  16.817  0.1874 -0.0533  0.2997
  358BOLB   C1B 8577  21.492  26.123  15.623  0.1250  0.1042  0.2934
  358BOLB   C2B 8578  21.612  26.009  15.166  0.1212  0.1347 -0.0409
  358BOLB   C3B 8579  21.507  25.659  14.978  0.1701  0.0159  0.2648
  358BOLB   C4B 8580  21.430  25.448  14.667 -0.1374 -0.1197 -0.0839
  358BOLB   NC2 8581  18.554  24.374  14.739 -0.2250  0.0352  0.2663
  358BOLB   PO2 8582  18.462  24.305  15.149  0.1161  0.1997  0.0205
  358BOLB   GL3 8583  18.640  24.596  15.430 -0.0239 -0.0856 -0.1875
  358BOLB   GL4 8584  18.684  24.788  15.292 -0.0708 -0.1431 -0.1645
  358BOLB   C1C 8585  18.890  24.624  15.803 -0.0091  0.0444 -0.0191
  358BOLB   C2C 8586  19.238  24.707  16.144  0.0835  0.0944  0.0556
  358BOLB   C3C 8587  19.604  24.675  16.444  0.1246  0.3503  0.1076
  358BOLB   C4C 8588  20.083  24.767  16.651 -0.0055  0.1107  0.0182
  358BOLB   C1D 8589  18.805  25.053  15.620 -0.4106 -0.0913  0.1505
  358BOLB   C2D 8590  18.902  25.124  16.032  0.2227 -0.3408  0.0265
  358BOLB   C3D 8591  18.965  25.308  16.418 -0.0477  0.1096  0.0798
  358BOLB   C4D 8592  18.879  25.530  16.825 -0.1498 -0.0235  0.0797
  359BOLB   NC1 8593  35.165  33.432  23.016 -0.0440 -0.0308 -0.0980
  359BOLB   PO1 8594  35.233  32.979  23.047 -0.1054  0.0874 -0.0424
  359BOLB   GL1 8595  35.579  33.123  22.913 -0.2976  0.2707  0.0415
  359BOLB   GL2 8596  35.682  33.360  22.682 -0.0382 -0.1873  0.4202
  359BOLB   C1A 8597  36.017  33.037  22.977  0.0466 -0.0725  0.0812
  359BOLB   C2A 8598  36.452  33.258  22.949  0.0479  0.0114  0.0964
  359BOLB   C3A 8599  36.948  33.209  22.875 -0.2083  0.1987  0.0756
  359BOLB   C4A 8600  37.366  33.261  22.713 -0.0581 -0.0697  0.3750
  359BOLB   C1B 8601  35.995  33.572  22.863  0.1713  0.0418 -0.2818
  359BOLB   C2B 8602  36.301  33.804  23.001  0.1551  0.0388 -0.1064
  359BOLB   C3B 8603  36.302  33.805  23.401  0.1507 -0.2461  0.1991
  359BOLB   C4B 8604  36.369  34.087  23.746  0.0868 -0.0943 -0.0176
  359BOLB   NC2 8605  38.924  34.944  23.730 -0.0012 -0.0421 -0.0378
  359BOLB   PO2 8606  38.952  34.715  23.381  0.1777  0.0788 -0.0499
  359BOLB   GL3 8607  38.688  34.448  23.445 -0.2567  0.0678  0.1689
  359BOLB   GL4 8608  38.524  34.601  23.718  0.0986  0.0299  0.0510
  359BOLB   C1C 8609  38.500  34.146  23.271 -0.3436  0.3682  0.1710
  359BOLB   C2C 8610  38.200  33.761  23.109 -0.2346  0.0498 -0.0743
  359BOLB   C3C 8611  37.851  33.630  22.927 -0.0191 -0.1949  0.1018
  359BOLB   C4C 8612  37.700  33.301  22.775 -0.3654 -0.0760  0.1815
  359BOLB   C1D 8613  38.230  34.200  23.669 -0.1434 -0.2258 -0.1130
  359BOLB   C2D 8614  37.950  33.864  23.522 -0.3608 -0.0618 -0.2527
  359BOLB   C3D 8615  37.536  33.755  23.381  0.0071  0.1790 -0.1761
  359BOLB   C4D 8616  37.273  33.487  23.241 -0.1409 -0.3676  0.2210
  360BOLB   NC1 8617  25.169  37.701  21.697  0.2176 -0.0083  0.2457
  360BOLB   PO1 8618  25.521  37.856  21.476 -0.3294 -0.1904 -0.0535
  360BOLB   GL1 8619  25.372  38.232  21.325 -0.3284 -0.4294  0.1003
  360BOLB   GL2 8620  25.294  38.271  20.987  0.1774  0.1699 -0.0984
  360BOLB   C1A 8621  25.146  38.542  21.486  0.1119  0.0595 -0.0404
  360BOLB   C2A 8622  25.198  39.066  21.459  0.1471 -0.0821  0.0632
  360BOLB   C3A 8623  25.185  39.389  21.627  0.2790 -0.0844 -0.1217
  360BOLB   C4A 8624  24.852  39.669  21.923  0.2254  0.2344 -0.0217
  360BOLB   C1B 8625  25.224  38.599  20.996 -0.2099  0.3155 -0.1312
  360BOLB   C2B 8626  25.388  39.071  20.987  0.2975 -0.1443 -0.1601
  360BOLB   C3B 8627  25.242  39.456  21.074  0.1117  0.2797 -0.2272
  360BOLB   C4B 8628  25.356  39.845  21.063 -0.1224 -0.3092  0.0803
  360BOLB   NC2 8629  25.138  41.940  22.545 -0.1277  0.0738  0.0557
  360BOLB   PO2 8630  24.712  41.987  22.453 -0.0971  0.0193 -0.1270
  360BOLB   GL3 8631  24.660  41.527  22.630 -0.1986  0.2301  0.1460
  360BOLB   GL4 8632  24.475  41.460  22.413  0.2635 -0.1745 -0.2214
  360BOLB   C1C 8633  24.780  41.089  22.584  0.0967  0.2111  0.0889
  360BOLB   C2C 8634  24.586  40.747  22.431  0.2626  0.1616 -0.1241
  360BOLB   C3C 8635  24.698  40.322  22.358 -0.0164  0.0519 -0.1204
  360BOLB   C4C 8636  24.665  40.017  22.059 -0.0558 -0.2709  0.1757
  360BOLB   C1D 8637  24.664  41.254  22.045  0.1355  0.0550 -0.0337
  360BOLB   C2D 8638  24.839  41.115  21.738 -0.1123  0.1099  0.2738
  360BOLB   C3D 8639  24.913  40.708  21.425 -0.2238  0.1305  0.2483
  360BOLB   C4D 8640  25.055  40.313  21.223  0.1229 -0.0231  0.0616
  361BOLB   NC1 8641  30.099  37.927  23.642  0.2480  0.0566  0.0830
  361BOLB   PO1 8642  30.459  37.626  23.847 -0.1203 -0.1055 -0.2456
  361BOLB   GL1 8643  30.659  37.999  23.728 -0.3090  0.0466  0.1055
  361BOLB   GL2 8644  30.850  38.126  23.479 -0.3597  0.0518  0.2676
  361BOLB   C1A 8645  30.940  38.266  23.934  0.0834 -0.0451 -0.2037
  361BOLB   C2A 8646  31.259  38.553  23.782 -0.1158  0.4007  0.2075
  361BOLB   C3A 8647  31.535  38.909  23.691 -0.1216  0.0752 -0.0327
  361BOLB   C4A 8648  31.528  39.317  23.719 -0.0279  0.1569  0.3095
  361BOLB   C1B 8649  30.818  38.596  23.572 -0.3476 -0.0919  0.1064
  361BOLB   C2B 8650  31.026  38.986  23.861 -0.1327 -0.0474 -0.0205
  361BOLB   C3B 8651  31.256  39.254  24.196 -0.2461  0.3930  0.0429
  361BOLB   C4B 8652  31.374  39.731  24.342  0.2053  0.3450 -0.0289
  361BOLB   NC2 8653  33.022  41.341  23.643 -0.1280  0.2073  0.2816
  361BOLB   PO2 8654  32.733  41.083  23.588  0.7202  0.4341  0.0096
  361BOLB   GL3 8655  32.584  40.797  23.755  0.2244 -0.2603  0.0084
  361BOLB   GL4 8656  32.750  40.545  23.853 -0.0429 -0.0447 -0.0193
  361BOLB   C1C 8657  32.256  40.523  23.881 -0.0097 -0.0050  0.1828
  361BOLB   C2C 8658  32.124  40.158  23.988 -0.0334 -0.2286 -0.0187
  361BOLB   C3C 8659  31.765  39.972  24.009 -0.2256 -0.1389  0.1995
  361BOLB   C4C 8660  31.649  39.575  23.972 -0.0103 -0.2770  0.1938
  361BOLB   C1D 8661  32.639  40.042  23.745  0.2866  0.2192  0.3015
  361BOLB   C2D 8662  32.694  39.552  23.745 -0.3882  0.0125  0.1072
  361BOLB   C3D 8663  32.742  39.144  23.729 -0.0423  0.1681  0.0079
  361BOLB   C4D 8664  32.437  38.917  23.729  0.1099  0.1006  0.0045
  362BOLB   NC1 8665  25.317  28.830  13.857  0.0030 -0.1505 -0.0774
  362BOLB   PO1 8666  25.065  28.745  13.583  0.0834 -0.0717 -0.1557
  362BOLB   GL1 8667  25.033  28.820  13.156  0.2114  0.1868 -0.1755
  362BOLB   GL2 8668  24.971  29.219  13.055 -0.0450  0.1942  0.0103
  362BOLB   C1A 8669  25.318  28.952  12.763 -0.1062  0.3900 -0.0355
  362BOLB   C2A 8670  25.556  29.032  12.421 -0.0539 -0.1131 -0.3158
  362BOLB   C3A 8671  25.924  28.801  12.273  0.1383  0.0256 -0.1878
  362BOLB   C4A 8672  26.174  28.697  11.897  0.1917  0.0319  0.0479
  362BOLB   C1B 8673  24.959  29.357  12.689  0.0313 -0.0910  0.1606
  362BOLB   C2B 8674  25.059  29.746  12.444 -0.0482 -0.1857  0.1284
  362BOLB   C3B 8675  25.008  29.691  12.008  0.1303 -0.1554 -0.0319
  362BOLB   C4B 8676  25.097  29.425  11.598  0.2869  0.1254 -0.0793
  362BOLB   NC2 8677  25.622  28.290   9.632  0.0707 -0.4433  0.0838
  362BOLB   PO2 8678  25.132  28.209   9.668 -0.2523 -0.0810 -0.1851
  362BOLB   GL3 8679  25.181  28.377  10.081 -0.1695 -0.2690  0.0495
  362BOLB   GL4 8680  24.912  28.662  10.270  0.0440  0.2500 -0.0045
  362BOLB   C1C 8681  25.421  28.391  10.416  0.0952  0.1316  0.2196
  362BOLB   C2C 8682  25.583  28.337  10.919 -0.1091  0.0450  0.3765
  362BOLB   C3C 8683  25.875  28.386  11.198  0.0682 -0.2012  0.2062
  362BOLB   C4C 8684  26.174  28.526  11.480 -0.0893  0.0150  0.1591
  362BOLB   C1D 8685  25.073  28.633  10.726  0.1042  0.0844  0.1532
  362BOLB   C2D 8686  25.092  28.863  11.043 -0.3097 -0.3960 -0.0625
  362BOLB   C3D 8687  25.314  29.172  11.233 -0.1002 -0.3417 -0.2239
  362BOLB   C4D 8688  25.590  29.315  11.446  0.0832 -0.2407 -0.1846
  363BOLB   NC1 8689  25.592  28.480   8.252  0.3761 -0.0389  0.0183
  363BOLB   PO1 8690  25.583  28.106   8.214  0.0611 -0.0764  0.1297
  363BOLB   GL1 8691  25.520  28.087   7.687  0.0911 -0.0257  0.2509
  363BOLB   GL2 8692  25.429  28.304   7.385  0.1051 -0.2494 -0.1889
  363BOLB   C1A 8693  25.797  27.802   7.303  0.2099 -0.1408 -0.1194
  363BOLB   C2A 8694  26.001  27.723   6.860  0.2173 -0.0588  0.2896
  363BOLB   C3A 8695  25.879  27.523   6.578  0.0236  0.0010  0.0244
  363BOLB   C4A 8696  26.004  27.126   6.589 -0.1290 -0.0311 -0.1901
  363BOLB   C1B 8697  25.280  27.879   7.147 -0.0188  0.1127  0.0342
  363BOLB   C2B 8698  25.065  27.769   6.772  0.1450 -0.0569 -0.1482
  363BOLB   C3B 8699  24.930  27.914   6.402  0.0881 -0.0287 -0.0465
  363BOLB   C4B 8700  25.123  28.049   6.001 -0.2516 -0.0067 -0.0902
  363BOLB   NC2 8701  25.000  26.548   8.895  0.0325  0.3802  0.0622
  363BOLB   PO2 8702  24.589  26.627   8.645  0.0640  0.0731  0.0294
  363BOLB   GL3 8703  24.778  26.497   8.260  0.0099 -0.0037  0.3576
  363BOLB   GL4 8704  25.048  26.365   8.337  0.1597  0.1141  0.0391
  363BOLB   C1C 8705  25.003  26.843   7.998 -0.0767 -0.2490 -0.0376
  363BOLB   C2C 8706  25.408  26.777   7.684  0.1678 -0.3027  0.2917
  363BOLB   C3C 8707  25.820  26.820   7.377  0.0878 -0.0803 -0.0471
  363BOLB   C4C 8708  25.989  26.857   6.940  0.0051 -0.0527  0.2532
  363BOLB   C1D 8709  25.076  26.349   7.828 -0.0716 -0.2792  0.0488
  363BOLB   C2D 8710  24.905  26.266   7.526  0.2976 -0.2856 -0.3086
  363BOLB   C3D 8711  24.483  26.375   7.321  0.1700 -0.1402  0.2549
  363BOLB   C4D 8712  24.046  26.542   7.179 -0.0403  0.0544 -0.1912
  364BOLB   NC1 8713  30.605  35.431  17.151  0.5088 -0.0933 -0.4460
  364BOLB   PO1 8714  30.754  35.707  16.958 -0.2040 -0.1663 -0.2182
  364BOLB   GL1 8715  31.020  35.835  16.607 -0.1366 -0.2474  0.3814
  364BOLB   GL2 8716  30.912  36.118  16.492 -0.1812 -0.1781 -0.1397
  364BOLB   C1A 8717  30.976  35.672  16.179  0.0006  0.0658 -0.0413
  364BOLB   C2A 8718  31.038  35.691  15.710  0.0842 -0.3476  0.2256
  364BOLB   C3A 8719  31.075  36.008  15.381  0.3566 -0.2696 -0.3236
  364BOLB   C4A 8720  30.875  36.221  14.930  0.1140 -0.0186 -0.2089
  364BOLB   C1B 8721  31.188  36.264  16.201  0.0012  0.0747  0.0925
  364BOLB   C2B 8722  31.422  36.499  15.991  0.1348 -0.1345 -0.0706
  364BOLB   C3B 8723  31.691  36.841  15.927 -0.3160  0.1444 -0.0493
  364BOLB   C4B 8724  31.684  37.162  15.923  0.0434 -0.0969  0.2853
  364BOLB   NC2 8725  31.732  36.973  12.664 -0.0722 -0.2775 -0.0629
  364BOLB   PO2 8726  31.846  36.623  12.663 -0.0273  0.1807  0.2559
  364BOLB   GL3 8727  31.493  36.423  12.945 -0.2131  0.4326 -0.0651
  364BOLB   GL4 8728  31.406  36.661  12.989  0.1600  0.0388  0.0249
  364BOLB   C1C 8729  31.386  36.411  13.473  0.0657  0.0165 -0.0239
  364BOLB   C2C 8730  31.162  36.417  13.834 -0.3000 -0.0099  0.1575
  364BOLB   C3C 8731  30.963  36.433  14.225  0.2072 -0.0350 -0.0403
  364BOLB   C4C 8732  30.983  36.379  14.662  0.2728 -0.1792 -0.2865
  364BOLB   C1D 8733  31.004  36.560  13.189  0.0185 -0.1465  0.5916
  364BOLB   C2D 8734  30.611  36.852  13.183  0.0228  0.1952 -0.1225
  364BOLB   C3D 8735  30.418  37.073  13.498 -0.0191  0.0372  0.0356
  364BOLB   C4D 8736  30.181  37.219  13.693  0.1320  0.1309  0.0001
  365BOLB   NC1 8737  35.011  27.533  24.448  0.1043  0.0007  0.2106
  365BOLB   PO1 8738  35.221  27.857  24.246  0.2875 -0.1054 -0.2522
  365BOLB   GL1 8739  35.464  27.604  24.614  0.1234  0.1419  0.2086
  365BOLB   GL2 8740  35.563  27.754  24.845 -0.0739 -0.3255  0.0493
  365BOLB   C1A 8741  35.590  27.281  24.606  0.1937  0.1704  0.1671
  365BOLB   C2A 8742  35.950  27.128  24.658  0.1325  0.0010  0.0458
  365BOLB   C3A 8743  36.305  26.919  24.917 -0.3713 -0.0848 -0.1570
  365BOLB   C4A 8744  36.686  26.762  24.936  0.2613 -0.0099  0.3411
  365BOLB   C1B 8745  35.876  27.612  24.986  0.0998 -0.1951  0.0564
  365BOLB   C2B 8746  36.217  27.548  25.262 -0.1969 -0.1423  0.0053
  365BOLB   C3B 8747  36.284  27.426  25.689  0.5249  0.0952  0.1538
  365BOLB   C4B 8748  36.564  27.127  25.999  0.0657 -0.1625 -0.1886
  365BOLB   NC2 8749  38.801  25.336  24.855 -0.2943  0.2614  0.0288
  365BOLB   PO2 8750  38.557  25.610  25.237  0.1714  0.1587 -0.0647
  365BOLB   GL3 8751  38.216  25.888  25.599 -0.0286 -0.0755  0.0020
  365BOLB   GL4 8752  38.029  25.736  25.747 -0.0566 -0.0146 -0.3356
  365BOLB   C1C 8753  38.073  26.258  25.761  0.1472 -0.5534  0.2566
  365BOLB   C2C 8754  37.707  26.573  25.634 -0.1422  0.1819  0.4401
  365BOLB   C3C 8755  37.417  26.838  25.464 -0.3587 -0.1338 -0.2612
  365BOLB   C4C 8756  36.956  26.762  25.220 -0.5079 -0.1695  0.0487
  365BOLB   C1D 8757  37.705  25.653  26.058 -0.1992  0.0663 -0.2109
  365BOLB   C2D 8758  37.313  25.736  26.033 -0.2756 -0.3703  0.0969
  365BOLB   C3D 8759  37.095  25.995  25.835 -0.0696 -0.4716  0.0057
  365BOLB   C4D 8760  36.767  26.199  25.880 -0.0871 -0.1741 -0.0598
  366BOLB   NC1 8761  26.876  26.368  15.086  0.2345 -0.0409  0.0539
  366BOLB   PO1 8762  26.587  26.046  14.909  0.0176 -0.0645 -0.1084
  366BOLB   GL1 8763  26.403  25.788  14.567  0.0308  0.0906  0.1844
  366BOLB   GL2 8764  26.493  25.502  14.581 -0.0101 -0.1048 -0.2335
  366BOLB   C1A 8765  26.307  25.767  14.096 -0.3566  0.1713  0.0979
  366BOLB   C2A 8766  26.635  25.908  13.731  0.4199  0.0854 -0.0661
  366BOLB   C3A 8767  26.897  26.037  13.361 -0.1092  0.0177 -0.3893
  366BOLB   C4A 8768  26.752  25.960  12.974  0.1247 -0.2386 -0.1062
  366BOLB   C1B 8769  26.381  25.229  14.294  0.3008  0.2485 -0.1811
  366BOLB   C2B 8770  26.134  24.991  14.021  0.2600 -0.0531 -0.2733
  366BOLB   C3B 8771  25.992  24.568  13.876 -0.1705 -0.2326  0.2469
  366BOLB   C4B 8772  25.613  24.477  13.616 -0.0790  0.2427 -0.1244
  366BOLB   NC2 8773  26.499  25.053  10.720  0.1009 -0.2451 -0.1279
  366BOLB   PO2 8774  26.897  25.117  10.655  0.0850 -0.2282  0.1010
  366BOLB   GL3 8775  26.886  25.266  11.079  0.0712  0.0485 -0.2023
  366BOLB   GL4 8776  26.719  25.002  11.190  0.2257  0.1552 -0.4122
  366BOLB   C1C 8777  26.734  25.398  11.469 -0.2152 -0.1430 -0.0600
  366BOLB   C2C 8778  26.931  25.518  11.807 -0.0750  0.1476 -0.1935
  366BOLB   C3C 8779  26.938  25.623  12.304  0.1141  0.1478 -0.0406
  366BOLB   C4C 8780  26.764  25.793  12.566 -0.0678 -0.0060  0.1164
  366BOLB   C1D 8781  26.649  24.937  11.671  0.0176  0.0222 -0.0113
  366BOLB   C2D 8782  26.679  25.164  12.071 -0.2044 -0.1800 -0.2727
  366BOLB   C3D 8783  26.500  25.407  12.373 -0.0464  0.0155 -0.1101
  366BOLB   C4D 8784  26.106  25.706  12.396  0.1206  0.1297 -0.4936
  367BOLB   NC1 8785  28.998  26.492  14.126  0.1018  0.0751  0.2329
  367BOLB   PO1 8786  29.023  26.911  14.025  0.4311  0.2247  0.2328
  367BOLB   GL1 8787  28.907  26.746  13.716 -0.1222  0.0317  0.2643
  367BOLB   GL2 8788  28.686  26.871  13.563  0.0756 -0.0286 -0.0016
  367BOLB   C1A 8789  29.081  26.434  13.462 -0.0016 -0.5167  0.0244
  367BOLB   C2A 8790  29.299  26.259  13.151  0.0495  0.2428 -0.0341
  367BOLB   C3A 8791  29.413  26.230  12.771 -0.1547  0.0769 -0.1356
  367BOLB   C4A 8792  29.479  25.949  12.418 -0.3650  0.1371  0.0534
  367BOLB   C1B 8793  28.674  26.685  13.176  0.2957 -0.3727  0.0308
  367BOLB   C2B 8794  28.825  26.437  12.874 -0.3117  0.2573 -0.4258
  367BOLB   C3B 8795  28.588  26.037  12.854 -0.3765  0.1038  0.0374
  367BOLB   C4B 8796  28.448  25.810  12.494 -0.0854  0.0459  0.2681
  367BOLB   NC2 8797  28.285  26.515  10.250 -0.1625 -0.1690 -0.0868
  367BOLB   PO2 8798  28.498  26.111  10.410 -0.0755  0.1234 -0.5578
  367BOLB   GL3 8799  28.842  26.410  10.731 -0.0893 -0.1084  0.0397
  367BOLB   GL4 8800  28.985  26.175  10.754  0.1665 -0.1241 -0.3115
  367BOLB   C1C 8801  29.084  26.412  11.203  0.1860 -0.1445  0.0601
  367BOLB   C2C 8802  29.457  26.573  11.406 -0.0545  0.2047  0.2065
  367BOLB   C3C 8803  29.668  26.410  11.725 -0.1248  0.0173  0.2415
  367BOLB   C4C 8804  29.599  25.992  12.031  0.1140  0.1939  0.2510
  367BOLB   C1D 8805  28.845  25.946  11.105 -0.0432 -0.0192  0.1392
  367BOLB   C2D 8806  28.403  25.956  11.174  0.1594 -0.3130  0.0677
  367BOLB   C3D 8807  28.186  26.349  11.225  0.2705  0.0230  0.2481
  367BOLB   C4D 8808  27.811  26.610  11.253 -0.1617 -0.2179 -0.1095
  368BOLB   NC1 8809  33.354  33.048  25.497  0.0078 -0.0396 -0.3703
  368BOLB   PO1 8810  33.830  33.065  25.595  0.1366  0.2120  0.3421
  368BOLB   GL1 8811  34.117  33.215  25.782  0.2511 -0.3408  0.1430
  368BOLB   GL2 8812  34.431  33.166  25.701 -0.0248 -0.0154 -0.1588
  368BOLB   C1A 8813  34.219  33.520  26.072  0.0428 -0.2344  0.0651
  368BOLB   C2A 8814  34.534  33.775  26.239 -0.0150 -0.1941  0.0162
  368BOLB   C3A 8815  34.834  34.101  26.398 -0.2386 -0.2634 -0.4541
  368BOLB   C4A 8816  35.132  34.471  26.467  0.0098  0.3004 -0.0431
  368BOLB   C1B 8817  34.755  33.403  25.931 -0.1067 -0.0301 -0.1406
  368BOLB   C2B 8818  35.009  33.541  26.146  0.0127  0.0154  0.2188
  368BOLB   C3B 8819  35.160  33.888  26.083 -0.0290  0.0211 -0.3138
  368BOLB   C4B 8820  35.422  34.236  25.811  0.1085 -0.1943 -0.2373
  368BOLB   NC2 8821  37.220  34.546   0.342 -0.2783 -0.1554 -0.0741
  368BOLB   PO2 8822  37.198  34.823   0.734  0.1544  0.1954  0.1234
  368BOLB   GL3 8823  36.849  35.098   0.729 -0.1139 -0.1563 -0.1165
  368BOLB   GL4 8824  36.540  34.951   0.872  0.0023 -0.3621  0.0045
  368BOLB   C1C 8825  36.542  35.155   0.353 -0.3326  0.0735 -0.4704
  368BOLB   C2C 8826  36.268  35.029   0.019  0.2364 -0.0316 -0.2097
  368BOLB   C3C 8827  35.758  34.947  26.818 -0.1579  0.0574 -0.1515
  368BOLB   C4C 8828  35.363  34.738  26.615  0.1888  0.0044  0.1629
  368BOLB   C1D 8829  36.321  34.791   0.505  0.1642  0.1130 -0.0019
  368BOLB   C2D 8830  35.887  34.711   0.324 -0.2868 -0.1785 -0.2135
  368BOLB   C3D 8831  35.463  34.617   0.218  0.0354 -0.0830  0.1290
  368BOLB   C4D 8832  35.141  34.681   0.495  0.1278  0.0107 -0.3154
  369BOLB   NC1 8833  24.638  25.922  15.408  0.0580  0.4667  0.0468
  369BOLB   PO1 8834  24.846  25.614  15.262  0.3342 -0.1365 -0.0191
  369BOLB   GL1 8835  24.998  25.359  15.021  0.1683  0.0529 -0.2469
  369BOLB   GL2 8836  24.709  25.120  15.169 -0.1270  0.0192  0.1257
  369BOLB   C1A 8837  24.932  25.232  14.647 -0.1257  0.2392  0.0833
  369BOLB   C2A 8838  24.806  24.947  14.357  0.4223  0.1553  0.0117
  369BOLB   C3A 8839  24.395  24.703  14.225  0.1412  0.0178 -0.3243
  369BOLB   C4A 8840  24.502  24.286  14.039  0.0863 -0.0471 -0.2187
  369BOLB   C1B 8841  24.616  24.853  14.811  0.5957  0.0219  0.0748
  369BOLB   C2B 8842  24.672  24.427  14.593  0.0162 -0.2244  0.0682
  369BOLB   C3B 8843  24.765  24.031  14.439 -0.2294 -0.2252 -0.0443
  369BOLB   C4B 8844  24.468  23.716  14.432  0.0058  0.2116  0.0496
  369BOLB   NC2 8845  23.415  22.527  12.437  0.2522  0.1621  0.2992
  369BOLB   PO2 8846  23.505  22.773  12.652 -0.0746  0.0616 -0.2380
  369BOLB   GL3 8847  23.715  22.760  13.050  0.0270 -0.0972 -0.0679
  369BOLB   GL4 8848  23.512  22.779  13.243 -0.2981  0.2272 -0.2442
  369BOLB   C1C 8849  23.921  23.134  13.207 -0.0561  0.0275  0.0569
  369BOLB   C2C 8850  24.021  23.388  13.568  0.2106  0.0086  0.1456
  369BOLB   C3C 8851  24.318  23.441  13.878  0.0798 -0.3205  0.0788
  369BOLB   C4C 8852  24.443  23.849  13.937 -0.1293 -0.2521 -0.1845
  369BOLB   C1D 8853  23.728  22.920  13.577  0.1853 -0.0514 -0.0604
  369BOLB   C2D 8854  23.841  22.936  14.084 -0.1144 -0.2689 -0.0161
  369BOLB   C3D 8855  23.823  22.940  14.604  0.2884  0.2201  0.1788
  369BOLB   C4D 8856  23.985  23.160  14.991  0.0978  0.0020 -0.1631
  370BOLB   NC1 8857  32.574  30.385   1.019 -0.1195  0.1696 -0.2673
  370BOLB   PO1 8858  32.627  30.413   1.526 -0.0504 -0.0637  0.3444
  370BOLB   GL1 8859  33.038  30.338   1.634 -0.0379  0.2115  0.0350
  370BOLB   GL2 8860  33.301  30.045   1.498 -0.2478 -0.1276 -0.0817
  370BOLB   C1A 8861  33.179  30.265   1.962  0.1088 -0.0552  0.0980
  370BOLB   C2A 8862  33.231  30.362   2.329 -0.1682 -0.0582 -0.1128
  370BOLB   C3A 8863  33.232  30.561   2.711 -0.0147 -0.1860 -0.1551
  370BOLB   C4A 8864  33.011  30.684   3.021  0.1509  0.0721  0.1966
  370BOLB   C1B 8865  33.763  29.959   1.721  0.2879  0.0736  0.1468
  370BOLB   C2B 8866  34.056  29.679   1.717  0.1330  0.2050 -0.0762
  370BOLB   C3B 8867  34.249  29.396   2.037  0.0142 -0.1311 -0.0316
  370BOLB   C4B 8868  34.354  29.168   2.450  0.0756  0.0857  0.0613
  370BOLB   NC2 8869  33.888  31.705   4.983 -0.2707 -0.0018 -0.1413
  370BOLB   PO2 8870  34.228  31.340   4.894  0.0712 -0.1692 -0.0180
  370BOLB   GL3 8871  34.358  31.172   4.577 -0.2741  0.1302  0.0555
  370BOLB   GL4 8872  34.302  30.809   4.690  0.0626 -0.2347  0.0338
  370BOLB   C1C 8873  34.206  31.214   4.066 -0.0836  0.0182  0.1989
  370BOLB   C2C 8874  33.841  31.039   3.818  0.1213 -0.3154 -0.1360
  370BOLB   C3C 8875  33.486  30.825   3.837 -0.1103 -0.1447  0.1540
  370BOLB   C4C 8876  33.179  30.792   3.467 -0.2140 -0.0069 -0.2243
  370BOLB   C1D 8877  34.233  30.713   4.293 -0.0777  0.1213 -0.2018
  370BOLB   C2D 8878  34.230  30.512   3.928  0.3938  0.0653  0.2269
  370BOLB   C3D 8879  33.860  30.579   3.600 -0.0499  0.0173 -0.0885
  370BOLB   C4D 8880  33.803  30.859   3.255  0.0271  0.0594  0.3045
  371BOLB   NC1 8881  24.807  33.851  15.805  0.1117 -0.2746 -0.1896
  371BOLB   PO1 8882  25.136  33.843  15.435  0.0060  0.2117  0.1156
  371BOLB   GL1 8883  25.102  33.955  15.040 -0.0590 -0.1128 -0.0139
  371BOLB   GL2 8884  25.052  33.903  14.741  0.0382 -0.1385  0.0502
  371BOLB   C1A 8885  25.002  34.370  14.872 -0.0887 -0.2115 -0.1700
  371BOLB   C2A 8886  24.704  34.552  14.413 -0.1527  0.0297  0.0124
  371BOLB   C3A 8887  24.418  34.530  14.005  0.0937 -0.2300 -0.0575
  371BOLB   C4A 8888  24.263  34.719  13.656  0.2549 -0.1285  0.2275
  371BOLB   C1B 8889  25.082  34.239  14.354 -0.0503 -0.0978 -0.0279
  371BOLB   C2B 8890  24.929  34.501  13.954 -0.0569  0.4309 -0.0055
  371BOLB   C3B 8891  24.705  34.616  13.501 -0.0343 -0.0019  0.0256
  371BOLB   C4B 8892  24.666  34.940  13.239  0.4951  0.2934  0.4464
  371BOLB   NC2 8893  24.066  36.147  11.594  0.1178  0.2753 -0.1949
  371BOLB   PO2 8894  24.322  36.347  11.886 -0.0635 -0.4756 -0.1275
  371BOLB   GL3 8895  24.547  35.966  11.870  0.4737 -0.1831 -0.0803
  371BOLB   GL4 8896  24.645  35.895  11.713 -0.1485  0.0419  0.1964
  371BOLB   C1C 8897  24.585  35.551  12.097  0.2091 -0.2713 -0.1639
  371BOLB   C2C 8898  24.499  35.390  12.501  0.1572 -0.2446  0.1275
  371BOLB   C3C 8899  24.341  35.353  12.938 -0.2090  0.1194 -0.1847
  371BOLB   C4C 8900  24.151  34.946  13.197 -0.0144 -0.0805 -0.2837
  371BOLB   C1D 8901  24.843  35.454  11.723  0.2584  0.2910 -0.1335
  371BOLB   C2D 8902  25.148  35.149  11.831 -0.0448  0.0393 -0.2184
  371BOLB   C3D 8903  25.406  34.932  12.120  0.2602 -0.0697 -0.0853
  371BOLB   C4D 8904  25.661  34.663  12.372 -0.1687  0.0220 -0.0166
  372BOLB   NC1 8905  33.890  24.322  22.319  0.2809 -0.2048  0.0034
  372BOLB   PO1 8906  34.204  24.408  22.719 -0.1653 -0.0252  0.0601
  372BOLB   GL1 8907  34.278  23.926  22.632  0.1606  0.0793  0.2456
  372BOLB   GL2 8908  34.304  23.622  22.356 -0.1425 -0.0890 -0.1082
  372BOLB   C1A 8909  34.541  23.707  22.818  0.1619  0.0197  0.3302
  372BOLB   C2A 8910  34.909  23.530  23.074  0.0096 -0.1618 -0.2255
  372BOLB   C3A 8911  35.406  23.267  23.150  0.4418  0.0411 -0.0621
  372BOLB   C4A 8912  35.696  23.331  23.347  0.0714  0.1608 -0.3381
  372BOLB   C1B 8913  34.619  23.313  22.562  0.0153 -0.1108 -0.2247
  372BOLB   C2B 8914  34.861  23.057  22.919 -0.1993 -0.0248  0.0041
  372BOLB   C3B 8915  35.009  23.088  23.321  0.2346 -0.0813 -0.1192
  372BOLB   C4B 8916  35.425  22.900  23.535 -0.0272  0.3446 -0.0927
  372BOLB   NC2 8917  37.495  22.916  24.543  0.0349  0.2208  0.2370
  372BOLB   PO2 8918  37.552  23.356  24.516 -0.0303  0.1061  0.1188
  372BOLB   GL3 8919  37.110  23.366  24.381  0.4370  0.1456  0.0622
  372BOLB   GL4 8920  36.938  23.628  24.404 -0.1354 -0.1343  0.0801
  372BOLB   C1C 8921  36.616  23.177  24.474 -0.2829 -0.0697 -0.0631
  372BOLB   C2C 8922  36.279  23.180  24.373  0.2771  0.0698  0.3026
  372BOLB   C3C 8923  36.042  23.257  23.975 -0.1831  0.0089  0.0958
  372BOLB   C4C 8924  35.950  23.209  23.575  0.1445  0.0262 -0.1082
  372BOLB   C1D 8925  36.951  23.995  24.093 -0.1180 -0.1438  0.2469
  372BOLB   C2D 8926  36.702  24.403  23.945 -0.1436 -0.1006 -0.1210
  372BOLB   C3D 8927  36.238  24.568  23.786  0.1342  0.0564 -0.1104
  372BOLB   C4D 8928  36.026  24.888  23.581  0.1714  0.2401  0.2475
  373BOLB   NC1 8929  27.762  29.574   2.747  0.1860  0.2317 -0.0572
  373BOLB   PO1 8930  27.836  29.188   2.832 -0.0462 -0.0272 -0.1254
  373BOLB   GL1 8931  27.703  29.113   3.200 -0.3399 -0.1344 -0.2929
  373BOLB   GL2 8932  27.324  29.284   3.228  0.0949 -0.4449 -0.2608
  373BOLB   C1A 8933  27.603  29.089   3.685 -0.2341  0.0390 -0.3451
  373BOLB   C2A 8934  27.678  28.823   4.058  0.3706 -0.1319  0.0803
  373BOLB   C3A 8935  27.860  28.773   4.507 -0.1263  0.2972  0.3902
  373BOLB   C4A 8936  28.110  28.603   4.857  0.0682  0.1462 -0.1288
  373BOLB   C1B 8937  27.279  29.496   3.623 -0.0575 -0.1950  0.2344
  373BOLB   C2B 8938  27.274  29.378   4.024  0.4160 -0.1513 -0.1223
  373BOLB   C3B 8939  27.007  29.467   4.403  0.0410  0.1163  0.0058
  373BOLB   C4B 8940  27.087  29.252   4.815  0.2718  0.0477 -0.0646
  373BOLB   NC2 8941  28.075  28.107   7.017  0.1067  0.0801 -0.2618
  373BOLB   PO2 8942  28.502  28.011   6.822 -0.0872  0.1161 -0.2262
  373BOLB   GL3 8943  28.397  28.063   6.468 -0.4079  0.0189  0.0650
  373BOLB   GL4 8944  27.987  27.949   6.535  0.0668  0.0773  0.0173
  373BOLB   C1C 8945  28.477  28.267   6.138 -0.2970 -0.3186 -0.0331
  373BOLB   C2C 8946  28.371  28.456   5.832 -0.4515  0.1531  0.3451
  373BOLB   C3C 8947  28.312  28.349   5.393  0.0507  0.2145 -0.1052
  373BOLB   C4C 8948  28.278  28.331   5.054  0.0725  0.2740 -0.0828
  373BOLB   C1D 8949  28.105  27.509   6.421  0.1564 -0.1512  0.3667
  373BOLB   C2D 8950  27.962  27.156   6.179 -0.1492 -0.0451  0.0431
  373BOLB   C3D 8951  27.992  26.940   5.740  0.2419 -0.4178  0.0698
  373BOLB   C4D 8952  28.046  26.573   5.446  0.0303 -0.1656 -0.1154
  374BOLB   NC1 8953  32.972  36.038  23.039 -0.2374  0.0995 -0.0170
  374BOLB   PO1 8954  32.622  36.343  22.876 -0.0010 -0.1989 -0.0568
  374BOLB   GL1 8955  32.607  36.720  22.934  0.0299  0.0292 -0.0928
  374BOLB   GL2 8956  32.506  36.933  23.103  0.0527 -0.1654  0.0963
  374BOLB   C1A 8957  32.979  37.176  23.091 -0.1507  0.1050 -0.1986
  374BOLB   C2A 8958  33.308  37.363  23.413  0.0196 -0.2872 -0.2278
  374BOLB   C3A 8959  33.697  37.645  23.412  0.2124  0.3306 -0.0290
  374BOLB   C4A 8960  34.042  37.701  23.222 -0.0076  0.1098  0.1851
  374BOLB   C1B 8961  32.595  37.200  23.434 -0.3295  0.0020 -0.2741
  374BOLB   C2B 8962  32.836  37.551  23.428 -0.1935  0.4054 -0.0186
  374BOLB   C3B 8963  33.124  37.806  23.596 -0.2589  0.0603 -0.2286
  374BOLB   C4B 8964  33.223  38.256  23.525 -0.2749 -0.1350 -0.1571
  374BOLB   NC2 8965  36.624  38.878  23.371 -0.1387 -0.0419  0.1497
  374BOLB   PO2 8966  36.222  38.696  23.782  0.0990 -0.3747 -0.0266
  374BOLB   GL3 8967  35.912  38.545  23.675  0.0025 -0.0293  0.2516
  374BOLB   GL4 8968  35.915  38.437  23.305  0.0614 -0.1090 -0.1840
  374BOLB   C1C 8969  35.411  38.608  23.633 -0.0885  0.3082  0.1692
  374BOLB   C2C 8970  35.000  38.322  23.615 -0.0739 -0.1680 -0.1136
  374BOLB   C3C 8971  34.743  38.086  23.442  0.0944  0.0362 -0.3476
  374BOLB   C4C 8972  34.441  37.860  23.254  0.0553  0.4994  0.0229
  374BOLB   C1D 8973  35.828  38.151  22.994 -0.1158 -0.1994  0.0259
  374BOLB   C2D 8974  35.470  38.084  22.752  0.4198 -0.1857  0.0735
  374BOLB   C3D 8975  35.132  38.230  22.554  0.0223  0.0541  0.1978
  374BOLB   C4D 8976  34.822  38.450  22.179  0.1065 -0.1860 -0.0993
  375BOLB   NC1 8977  31.218  36.600  23.971  0.2863  0.1021 -0.1593
  375BOLB   PO1 8978  31.532  36.576  24.309 -0.0478 -0.2097 -0.0139
  375BOLB   GL1 8979  31.936  36.627  24.503 -0.1090  0.0316  0.0408
  375BOLB   GL2 8980  32.014  36.909  24.251 -0.2430  0.0503 -0.1316
  375BOLB   C1A 8981  32.321  36.846  24.693 -0.0094  0.0893 -0.0468
  375BOLB   C2A 8982  32.552  37.284  24.998  0.1243  0.4911  0.0957
  375BOLB   C3A 8983  32.779  37.652  24.938 -0.2152  0.0718 -0.1404
  375BOLB   C4A 8984  32.942  38.085  25.113 -0.1170 -0.2375  0.1603
  375BOLB   C1B 8985  32.329  37.203  24.053 -0.0262  0.0213  0.0377
  375BOLB   C2B 8986  32.552  37.482  23.890 -0.0416  0.1911  0.3190
  375BOLB   C3B 8987  32.615  37.964  23.837 -0.2326 -0.1060 -0.3093
  375BOLB   C4B 8988  32.849  38.341  23.883 -0.0087  0.2120 -0.0984
  375BOLB   NC2 8989  34.535  39.788  25.721 -0.0205 -0.2011  0.0939
  375BOLB   PO2 8990  34.650  39.437  25.819  0.0753 -0.0659 -0.0813
  375BOLB   GL3 8991  34.528  39.086  25.569  0.3033  0.0947 -0.1926
  375BOLB   GL4 8992  34.568  38.729  25.506  0.3762  0.0439 -0.3832
  375BOLB   C1C 8993  34.153  38.940  25.239  0.1892  0.2633 -0.5187
  375BOLB   C2C 8994  33.822  38.747  25.223  0.1205 -0.0919  0.0471
  375BOLB   C3C 8995  33.557  38.354  25.205  0.3513 -0.1433  0.2026
  375BOLB   C4C 8996  33.132  38.412  25.155 -0.1286  0.2166  0.0217
  375BOLB   C1D 8997  34.285  38.467  25.453 -0.1229  0.1729  0.0366
  375BOLB   C2D 8998  33.969  38.243  25.451 -0.0005 -0.3124  0.0708
  375BOLB   C3D 8999  33.962  38.073  25.124  0.1687 -0.1085 -0.2829
  375BOLB   C4D 9000  33.907  38.354  24.733  0.3737 -0.0400 -0.0333
  376BOLB   NC1 9001  20.733  32.444  19.102  0.0732  0.0310  0.3320
  376BOLB   PO1 9002  20.442  32.181  18.909 -0.1335 -0.1836  0.4705
  376BOLB   GL1 9003  20.003  32.276  18.737 -0.1616 -0.4217  0.0093
  376BOLB   GL2 9004  19.906  31.948  18.494  0.2928  0.2210 -0.0915
  376BOLB   C1A 9005  19.638  32.447  18.846  0.1555  0.1900 -0.0224
  376BOLB   C2A 9006  19.196  32.285  18.587 -0.1067  0.0477 -0.0893
  376BOLB   C3A 9007  18.974  32.017  18.294 -0.1499 -0.1375 -0.0794
  376BOLB   C4A 9008  18.690  31.816  17.993 -0.2243  0.0931  0.1290
  376BOLB   C1B 9009  19.542  31.896  18.342 -0.0648 -0.1984  0.1630
  376BOLB   C2B 9010  19.390  32.162  18.091  0.0120 -0.0256  0.1498
  376BOLB   C3B 9011  19.391  32.500  17.914 -0.0955 -0.0260 -0.0435
  376BOLB   C4B 9012  19.101  32.815  17.814 -0.0074 -0.3253  0.1901
  376BOLB   NC2 9013  16.006  31.603  18.306 -0.2658 -0.0268  0.2010
  376BOLB   PO2 9014  16.275  31.583  18.002 -0.0190 -0.1921  0.1430
  376BOLB   GL3 9015  16.614  31.722  17.682 -0.3360 -0.1120 -0.0387
  376BOLB   GL4 9016  16.850  31.495  17.890  0.3508  0.1120  0.0087
  376BOLB   C1C 9017  17.044  31.830  17.493  0.0133 -0.5057  0.1580
  376BOLB   C2C 9018  17.329  31.642  17.771 -0.1688 -0.1048  0.0388
  376BOLB   C3C 9019  17.840  31.770  17.819 -0.1238  0.0881  0.1608
  376BOLB   C4C 9020  18.294  31.792  17.894  0.0524  0.0028 -0.1327
  376BOLB   C1D 9021  16.919  31.851  18.101 -0.1250  0.0945 -0.0374
  376BOLB   C2D 9022  16.991  32.181  18.347  0.3763 -0.2990 -0.2820
  376BOLB   C3D 9023  17.029  32.572  18.592 -0.0475  0.1536 -0.1496
  376BOLB   C4D 9024  17.347  32.758  18.906 -0.0913 -0.2655 -0.0140
  377BOLB   NC1 9025  32.776  35.378  18.081  0.2499 -0.2563 -0.3948
  377BOLB   PO1 9026  32.886  35.643  17.738 -0.0567 -0.2865 -0.1303
  377BOLB   GL1 9027  32.813  35.757  17.398 -0.2430  0.1447  0.0236
  377BOLB   GL2 9028  33.066  35.554  17.233 -0.0157  0.0668  0.0833
  377BOLB   C1A 9029  32.821  36.136  17.250  0.0524  0.0047  0.1728
  377BOLB   C2A 9030  32.848  36.605  16.977  0.1768  0.0225  0.1392
  377BOLB   C3A 9031  33.096  36.801  16.607  0.0229 -0.0867  0.0928
  377BOLB   C4A 9032  33.429  36.960  16.465 -0.1166 -0.2883 -0.1138
  377BOLB   C1B 9033  33.318  35.888  17.200  0.1411 -0.1835 -0.0236
  377BOLB   C2B 9034  33.805  35.909  17.296 -0.1388 -0.0098  0.3043
  377BOLB   C3B 9035  34.192  36.177  17.491 -0.1698  0.4116 -0.0419
  377BOLB   C4B 9036  34.630  36.288  17.385  0.0370 -0.0418 -0.0215
  377BOLB   NC2 9037  34.943  37.636  14.577 -0.0005  0.2097  0.1805
  377BOLB   PO2 9038  35.158  37.832  14.951  0.2364 -0.4345  0.1371
  377BOLB   GL3 9039  34.786  37.653  15.149 -0.0599 -0.1308 -0.1602
  377BOLB   GL4 9040  34.844  37.426  15.209  0.0403 -0.1811 -0.3325
  377BOLB   C1C 9041  34.293  37.658  15.307 -0.2762  0.0533 -0.3161
  377BOLB   C2C 9042  33.884  37.562  15.549  0.3957 -0.0559  0.1956
  377BOLB   C3C 9043  33.657  37.471  15.875  0.2802  0.0272 -0.0775
  377BOLB   C4C 9044  33.733  37.143  16.226  0.1167 -0.0728 -0.0489
  377BOLB   C1D 9045  34.593  37.045  15.374 -0.1530 -0.1796  0.2390
  377BOLB   C2D 9046  34.484  36.638  15.534 -0.2272 -0.1666  0.2938
  377BOLB   C3D 9047  34.364  36.329  15.710  0.1586 -0.1002  0.0164
  377BOLB   C4D 9048  34.261  35.877  15.567  0.0958 -0.1518  0.0270
  378BOLB   NC1 9049  25.538  35.075   0.841  0.0025 -0.1873  0.1842
  378BOLB   PO1 9050  25.435  35.212   1.178 -0.1766  0.0921 -0.1036
  378BOLB   GL1 9051  25.179  35.396   1.378 -0.1724 -0.2333  0.0171
  378BOLB   GL2 9052  24.895  35.558   1.249 -0.3452 -0.1606  0.0742
  378BOLB   C1A 9053  25.105  35.842   1.690 -0.0635  0.0923 -0.0394
  378BOLB   C2A 9054  25.329  36.255   1.873 -0.0981 -0.0886  0.0583
  378BOLB   C3A 9055  25.476  36.575   2.058 -0.2710  0.0253 -0.1026
  378BOLB   C4A 9056  25.611  36.459   2.526  0.1337  0.0822  0.0239
  378BOLB   C1B 9057  24.755  36.010   1.184 -0.0631 -0.0821 -0.1359
  378BOLB   C2B 9058  24.448  36.261   1.130  0.2723  0.2169 -0.0878
  378BOLB   C3B 9059  24.172  36.247   1.422  0.1199 -0.0422 -0.0624
  378BOLB   C4B 9060  23.875  36.519   1.596  0.1355  0.1630  0.2360
  378BOLB   NC2 9061  24.659  36.983   4.544  0.0818 -0.0658  0.0803
  378BOLB   PO2 9062  25.228  37.011   4.563 -0.2682  0.0799  0.1258
  378BOLB   GL3 9063  25.290  36.818   4.171  0.0250  0.0212 -0.0501
  378BOLB   GL4 9064  25.479  37.062   4.002  0.0643  0.3073 -0.1839
  378BOLB   C1C 9065  25.260  36.683   3.815  0.1896 -0.1564 -0.1886
  378BOLB   C2C 9066  25.437  36.851   3.457  0.3451  0.0288 -0.0298
  378BOLB   C3C 9067  25.850  36.666   3.208  0.0949  0.0541  0.3610
  378BOLB   C4C 9068  25.777  36.482   2.908  0.2348  0.1703 -0.3429
  378BOLB   C1D 9069  25.776  36.796   3.836  0.0931 -0.0636 -0.2230
  378BOLB   C2D 9070  25.780  36.452   3.629 -0.0637 -0.2406  0.1269
  378BOLB   C3D 9071  25.814  36.003   3.737 -0.3506  0.0288  0.0578
  378BOLB   C4D 9072  25.814  35.641   3.554  0.1383 -0.1332 -0.2267
  379BOLB   NC1 9073  24.803  37.668  20.921  0.3054  0.0924 -0.2561
  379BOLB   PO1 9074  25.079  37.855  21.188 -0.0084 -0.0781 -0.0585
  379BOLB   GL1 9075  24.825  38.235  21.071  0.0835 -0.2269  0.1274
  379BOLB   GL2 9076  24.590  38.114  20.839 -0.0529  0.0544  0.1489
  379BOLB   C1A 9077  24.732  38.615  21.123  0.0249 -0.2782  0.1213
  379BOLB   C2A 9078  24.846  39.056  21.019  0.0735  0.1838 -0.0374
  379BOLB   C3A 9079  24.829  39.415  20.840 -0.0322 -0.0811  0.3031
  379BOLB   C4A 9080  24.946  39.833  20.722  0.1950  0.1805 -0.0554
  379BOLB   C1B 9081  24.409  38.478  20.655  0.2687 -0.1766 -0.2709
  379BOLB   C2B 9082  24.465  38.817  20.325 -0.3202  0.0219 -0.0921
  379BOLB   C3B 9083  24.358  39.165  20.580  0.1143 -0.0395 -0.0023
  379BOLB   C4B 9084  24.023  39.476  20.726  0.3174 -0.2601 -0.0108
  379BOLB   NC2 9085  24.900  41.830  20.136 -0.0590 -0.1220 -0.2443
  379BOLB   PO2 9086  24.703  41.695  19.798  0.0125  0.1484 -0.0211
  379BOLB   GL3 9087  25.039  41.417  19.900  0.1300 -0.0394  0.0077
  379BOLB   GL4 9088  25.421  41.396  19.785 -0.0262 -0.1563 -0.2310
  379BOLB   C1C 9089  25.082  41.272  20.241  0.0087  0.0618 -0.1840
  379BOLB   C2C 9090  25.036  41.004  20.579  0.1702 -0.0805 -0.0102
  379BOLB   C3C 9091  25.127  40.612  20.823 -0.4110  0.0628 -0.1778
  379BOLB   C4C 9092  25.112  40.141  20.761  0.0022 -0.2099  0.1393
  379BOLB   C1D 9093  25.406  41.034  19.889 -0.1842 -0.0280  0.0210
  379BOLB   C2D 9094  25.441  40.605  19.868 -0.2150  0.3191  0.1571
  379BOLB   C3D 9095  25.360  40.098  19.911  0.2249  0.2623  0.0893
  379BOLB   C4D 9096  25.614  39.676  20.032 -0.1189 -0.1552  0.0339
  380BOLB   NC1 9097  31.411  31.795   1.960 -0.0753  0.1543 -0.0140
  380BOLB   PO1 9098  31.211  32.177   2.023  0.1636  0.3100  0.3308
  380BOLB   GL1 9099  31.155  32.405   2.366  0.1105 -0.1714  0.1432
  380BOLB   GL2 9100  30.989  32.280   2.655  0.1935 -0.0526  0.6034
  380BOLB   C1A 9101  31.298  32.737   2.653 -0.1502 -0.1445 -0.3560
  380BOLB   C2A 9102  31.718  32.903   2.819 -0.1532 -0.0045 -0.0599
  380BOLB   C3A 9103  31.931  33.038   3.203 -0.0665  0.3280  0.0939
  380BOLB   C4A 9104  31.923  33.240   3.529 -0.0360 -0.4772  0.2903
  380BOLB   C1B 9105  31.059  32.386   2.977  0.0900 -0.1229  0.2406
  380BOLB   C2B 9106  31.135  32.645   3.378  0.0714 -0.0713 -0.0658
  380BOLB   C3B 9107  31.175  32.531   3.863 -0.2719 -0.3056  0.3571
  380BOLB   C4B 9108  30.913  32.495   4.282  0.0946 -0.0695  0.2337
  380BOLB   NC2 9109  31.981  34.366   5.977  0.3250  0.1087  0.2018
  380BOLB   PO2 9110  32.479  34.365   5.814  0.2136 -0.0080  0.1890
  380BOLB   GL3 9111  32.237  34.161   5.407 -0.0112  0.2125 -0.0086
  380BOLB   GL4 9112  31.987  34.062   5.584 -0.0252 -0.1215  0.2004
  380BOLB   C1C 9113  32.243  34.036   4.904  0.0078  0.0886  0.2210
  380BOLB   C2C 9114  32.048  33.715   4.598 -0.1719 -0.1400 -0.1941
  380BOLB   C3C 9115  32.088  33.525   4.200 -0.0328 -0.2237 -0.2110
  380BOLB   C4C 9116  32.121  33.227   3.812  0.1899 -0.0309 -0.2848
  380BOLB   C1D 9117  32.000  33.758   5.223 -0.1580  0.1553  0.0863
  380BOLB   C2D 9118  32.095  33.382   5.091  0.2153  0.0284 -0.1094
  380BOLB   C3D 9119  31.855  33.187   4.696  0.0639  0.1838  0.0771
  380BOLB   C4D 9120  31.550  33.035   4.401  0.0290  0.2745  0.0419
  381BOLB   NC1 9121  34.687  28.103  19.691  0.1826  0.2381  0.0482
  381BOLB   PO1 9122  35.085  28.029  19.732 -0.0950 -0.2017  0.0281
  381BOLB   GL1 9123  35.528  27.991  19.586  0.4477  0.0054  0.1483
  381BOLB   GL2 9124  35.814  28.068  19.804  0.2740 -0.2147 -0.0534
  381BOLB   C1A 9125  35.931  27.727  19.499  0.0551 -0.2074  0.0839
  381BOLB   C2A 9126  36.235  27.599  19.397  0.0372 -0.0360 -0.4379
  381BOLB   C3A 9127  36.610  27.386  19.177 -0.0319  0.0050  0.3247
  381BOLB   C4A 9128  36.969  27.481  18.939 -0.0032  0.0630 -0.2970
  381BOLB   C1B 9129  36.142  28.246  19.533 -0.1385  0.2312 -0.3811
  381BOLB   C2B 9130  36.656  28.147  19.426 -0.1444 -0.3460  0.2702
  381BOLB   C3B 9131  36.942  28.237  19.320 -0.1574 -0.2999 -0.1335
  381BOLB   C4B 9132  37.208  28.493  18.948 -0.1443 -0.1994  0.1585
  381BOLB   NC2 9133  39.118  27.806  17.741  0.1144 -0.0932 -0.1253
  381BOLB   PO2 9134  38.951  27.324  17.804  0.0881 -0.2229 -0.2540
  381BOLB   GL3 9135  38.576  27.249  18.064 -0.2599 -0.1322  0.0111
  381BOLB   GL4 9136  38.338  27.530  18.032  0.1525 -0.2326  0.1490
  381BOLB   C1C 9137  38.178  27.219  18.317 -0.1931 -0.2162 -0.1889
  381BOLB   C2C 9138  37.930  27.576  18.424  0.2116 -0.0488 -0.0003
  381BOLB   C3C 9139  37.595  27.541  18.632 -0.1560 -0.1658 -0.0344
  381BOLB   C4C 9140  37.349  27.443  18.796  0.2850  0.0240 -0.2164
  381BOLB   C1D 9141  38.415  27.634  18.504 -0.0395 -0.1650  0.1842
  381BOLB   C2D 9142  38.207  27.929  18.852 -0.0977  0.0534 -0.2427
  381BOLB   C3D 9143  38.229  27.912  19.249  0.1261 -0.0940 -0.2461
  381BOLB   C4D 9144  37.903  28.112  19.543 -0.0744 -0.3134 -0.1158
  382BOLB   NC1 9145  28.992  22.295  17.165  0.1046  0.0823 -0.0289
  382BOLB   PO1 9146  28.683  22.442  16.854 -0.4837  0.1457 -0.2117
  382BOLB   GL1 9147  28.902  22.161  16.654 -0.2013 -0.0898  0.1642
  382BOLB   GL2 9148  29.180  22.001  16.721 -0.1041 -0.3224  0.0027
  382BOLB   C1A 9149  28.814  22.009  16.225 -0.2528 -0.1877 -0.0504
  382BOLB   C2A 9150  28.842  22.000  15.816 -0.1359 -0.0818 -0.1684
  382BOLB   C3A 9151  28.912  21.806  15.421  0.2064 -0.0268  0.0240
  382BOLB   C4A 9152  29.193  21.650  15.056  0.3530 -0.0126 -0.0244
  382BOLB   C1B 9153  29.168  21.595  16.467 -0.0464  0.0366 -0.0265
  382BOLB   C2B 9154  29.077  21.513  16.151  0.0807  0.1009 -0.0171
  382BOLB   C3B 9155  29.492  21.532  15.941  0.3658  0.1681  0.0019
  382BOLB   C4B 9156  29.806  21.346  15.870  0.1411 -0.1347 -0.1187
  382BOLB   NC2 9157  29.133  19.643  14.018 -0.1922  0.0976 -0.1133
  382BOLB   PO2 9158  29.422  20.023  13.930 -0.1552  0.1378 -0.3001
  382BOLB   GL3 9159  29.445  20.278  14.127 -0.0390 -0.0271  0.1000
  382BOLB   GL4 9160  29.566  20.513  13.926  0.4045  0.1233  0.0003
  382BOLB   C1C 9161  29.477  20.457  14.485  0.1326 -0.1272 -0.2549
  382BOLB   C2C 9162  29.411  20.766  14.589  0.3862 -0.1672  0.1152
  382BOLB   C3C 9163  29.482  21.066  14.798 -0.1051 -0.0457 -0.0776
  382BOLB   C4C 9164  29.437  21.477  14.911  0.1685 -0.3212  0.2672
  382BOLB   C1D 9165  29.199  20.696  13.982  0.0748  0.1919  0.0948
  382BOLB   C2D 9166  29.055  20.982  14.346 -0.2923 -0.1313 -0.0310
  382BOLB   C3D 9167  29.070  21.257  14.511 -0.0297 -0.1044 -0.1091
  382BOLB   C4D 9168  28.727  21.418  14.508  0.0298  0.1551 -0.4201
  383BOLB   NC1 9169  15.999  22.853   2.071 -0.0120 -0.0396 -0.0452
  383BOLB   PO1 9170  16.288  23.279   2.240  0.0639 -0.2484  0.2859
  383BOLB   GL1 9171  16.728  23.464   2.050 -0.1832  0.1470  0.0963
  383BOLB   GL2 9172  16.595  23.412   1.690 -0.1275 -0.0170  0.1445
  383BOLB   C1A 9173  16.999  23.856   2.208 -0.1785 -0.0391 -0.0318
  383BOLB   C2A 9174  17.391  23.758   2.295 -0.0546 -0.1247 -0.2214
  383BOLB   C3A 9175  17.689  23.375   2.145  0.2035 -0.1811 -0.1537
  383BOLB   C4A 9176  18.015  23.235   1.884 -0.2335 -0.0702  0.1036
  383BOLB   C1B 9177  16.634  23.737   1.331 -0.2612  0.0571  0.1523
  383BOLB   C2B 9178  16.879  24.102   1.048  0.0395 -0.2300  0.1023
  383BOLB   C3B 9179  16.943  24.448   0.918  0.1199  0.2483 -0.3065
  383BOLB   C4B 9180  17.013  24.790   0.766  0.1257 -0.0201  0.1467
  383BOLB   NC2 9181  17.658  21.413   1.916 -0.1544  0.0281 -0.0592
  383BOLB   PO2 9182  17.760  21.755   2.113  0.1845  0.2870 -0.0216
  383BOLB   GL3 9183  17.882  21.935   1.708  0.1791 -0.0276  0.2481
  383BOLB   GL4 9184  17.698  22.298   1.712 -0.2027  0.1925  0.0239
  383BOLB   C1C 9185  18.296  22.202   1.779 -0.1267 -0.0242 -0.0027
  383BOLB   C2C 9186  18.444  22.593   1.640 -0.2721 -0.2079 -0.1753
  383BOLB   C3C 9187  18.620  22.857   1.697 -0.1916  0.1792 -0.2608
  383BOLB   C4C 9188  18.392  23.175   1.761 -0.0897  0.2741 -0.2674
  383BOLB   C1D 9189  17.531  22.519   1.322 -0.2330 -0.2807 -0.3179
  383BOLB   C2D 9190  17.818  22.661   1.062 -0.3443 -0.2579 -0.1390
  383BOLB   C3D 9191  17.943  22.878   0.628  0.0210 -0.1131 -0.0991
  383BOLB   C4D 9192  17.884  22.926   0.251  0.1837 -0.1219  0.0710
  384BOLB   NC1 9193  31.299  36.860  17.970 -0.0047 -0.3943  0.2163
  384BOLB   PO1 9194  31.032  36.958  18.332  0.0170  0.0816 -0.1786
  384BOLB   GL1 9195  31.097  37.290  18.070 -0.2339  0.0654  0.2343
  384BOLB   GL2 9196  30.920  37.405  17.907  0.2676 -0.2176  0.2794
  384BOLB   C1A 9197  31.433  37.493  17.875  0.1033 -0.1045  0.0487
  384BOLB   C2A 9198  31.682  37.867  17.790 -0.1439 -0.4758 -0.0325
  384BOLB   C3A 9199  31.922  38.314  17.920  0.1983  0.0682 -0.0364
  384BOLB   C4A 9200  32.030  38.701  17.916  0.0326 -0.0015 -0.3147
  384BOLB   C1B 9201  30.662  37.689  17.510 -0.1202 -0.0976 -0.0073
  384BOLB   C2B 9202  30.819  37.814  17.196 -0.3049 -0.1521 -0.0396
  384BOLB   C3B 9203  30.952  37.966  16.770 -0.1321 -0.3172 -0.1098
  384BOLB   C4B 9204  31.066  38.194  16.310 -0.0103 -0.2706 -0.2927
  384BOLB   NC2 9205  32.453  41.578  17.919  0.0976  0.1091  0.0047
  384BOLB   PO2 9206  32.414  41.280  18.331 -0.0484 -0.1940 -0.0497
  384BOLB   GL3 9207  32.215  40.795  18.294 -0.1904  0.0147  0.1653
  384BOLB   GL4 9208  31.824  40.804  18.244  0.0994  0.0040  0.1722
  384BOLB   C1C 9209  32.123  40.336  18.109 -0.2321  0.0796 -0.0306
  384BOLB   C2C 9210  32.156  39.892  18.174  0.1238  0.2543 -0.3875
  384BOLB   C3C 9211  32.080  39.389  18.259  0.0852  0.0319  0.0363
  384BOLB   C4C 9212  32.095  39.029  18.200  0.0879  0.3731 -0.1343
  384BOLB   C1D 9213  31.713  40.348  18.366  0.3671  0.1884 -0.0413
  384BOLB   C2D 9214  31.646  39.945  18.266 -0.1772  0.0271  0.1350
  384BOLB   C3D 9215  31.711  39.744  17.981  0.2403  0.0686 -0.1047
  384BOLB   C4D 9216  31.438  39.619  17.554  0.3371 -0.0698  0.0181
  385BOLB   NC1 9217  29.118  31.671  13.849  0.3119  0.1300 -0.0775
  385BOLB   PO1 9218  29.519  31.877  13.967 -0.2143 -0.1421  0.2756
  385BOLB   GL1 9219  29.828  32.131  13.662 -0.2711  0.1872  0.3010
  385BOLB   GL2 9220  29.792  32.460  13.771 -0.1479 -0.1996  0.0725
  385BOLB   C1A 9221  30.084  31.838  13.328 -0.1456 -0.3056 -0.3056
  385BOLB   C2A 9222  30.076  31.757  12.930 -0.0687 -0.3254 -0.0716
  385BOLB   C3A 9223  30.305  32.034  12.615 -0.1839  0.1662 -0.0554
  385BOLB   C4A 9224  30.215  32.461  12.624  0.0238  0.0755 -0.0153
  385BOLB   C1B 9225  29.759  32.681  13.392 -0.0933 -0.1805  0.3302
  385BOLB   C2B 9226  29.706  32.912  13.031  0.0316 -0.3002  0.3178
  385BOLB   C3B 9227  29.653  32.842  12.592  0.1514 -0.1562 -0.2177
  385BOLB   C4B 9228  29.372  32.581  12.306  0.4130 -0.0004  0.2460
  385BOLB   NC2 9229  30.166  33.489  10.794 -0.1373  0.0216 -0.1140
  385BOLB   PO2 9230  30.505  33.848  10.810 -0.0456 -0.1628 -0.0559
  385BOLB   GL3 9231  30.554  33.691  11.147  0.0241 -0.0869  0.0462
  385BOLB   GL4 9232  30.478  33.863  11.461 -0.1233  0.1937 -0.0060
  385BOLB   C1C 9233  30.381  33.371  11.432 -0.0871 -0.2717  0.2868
  385BOLB   C2C 9234  30.470  33.316  11.792  0.0630 -0.0692  0.1573
  385BOLB   C3C 9235  30.379  33.208  12.207  0.0779  0.1139 -0.2278
  385BOLB   C4C 9236  30.281  32.921  12.591  0.4567 -0.0146 -0.2753
  385BOLB   C1D 9237  30.304  33.825  11.799  0.0156  0.0358 -0.0845
  385BOLB   C2D 9238  30.156  33.753  12.211  0.2211  0.0031  0.1771
  385BOLB   C3D 9239  30.091  33.911  12.614  0.0897  0.3353 -0.2123
  385BOLB   C4D 9240  30.140  34.221  12.893  0.1749  0.1193 -0.0832
  386BOLB   NC1 9241  22.753  32.515   1.560 -0.1146  0.2471 -0.1804
  386BOLB   PO1 9242  22.641  32.070   1.857 -0.1788  0.1845  0.2720
  386BOLB   GL1 9243  22.428  32.126   2.100 -0.0298 -0.0416  0.0892
  386BOLB   GL2 9244  22.522  31.916   2.381 -0.0220  0.2159 -0.2378
  386BOLB   C1A 9245  22.028  32.144   2.389  0.2172  0.1035 -0.3514
  386BOLB   C2A 9246  21.944  32.095   2.819  0.1433 -0.0586 -0.5402
  386BOLB   C3A 9247  21.738  31.876   3.249 -0.1148  0.2926 -0.4317
  386BOLB   C4A 9248  21.586  31.629   3.582 -0.0257 -0.0324 -0.0398
  386BOLB   C1B 9249  22.183  31.716   2.616 -0.0152  0.0789 -0.0689
  386BOLB   C2B 9250  21.968  31.547   2.933  0.1430  0.2825  0.2252
  386BOLB   C3B 9251  21.816  31.246   3.215  0.1633 -0.0280 -0.1039
  386BOLB   C4B 9252  21.723  31.119   3.618 -0.1293 -0.2760 -0.0501
  386BOLB   NC2 9253  21.567  31.481   6.141  0.0171  0.1967 -0.3401
  386BOLB   PO2 9254  21.137  31.555   6.089  0.1948  0.1141 -0.2137
  386BOLB   GL3 9255  21.421  31.547   5.641  0.1376 -0.0840  0.0223
  386BOLB   GL4 9256  21.221  31.643   5.408 -0.1986 -0.1866  0.2029
  386BOLB   C1C 9257  21.733  31.598   5.382 -0.1072 -0.1593  0.1477
  386BOLB   C2C 9258  21.809  31.579   4.887  0.0345  0.1532 -0.2326
  386BOLB   C3C 9259  21.943  31.443   4.419  0.0527 -0.0448  0.3524
  386BOLB   C4C 9260  21.825  31.473   3.959  0.1869 -0.2426  0.1730
  386BOLB   C1D 9261  21.364  31.226   5.292 -0.3537 -0.3561 -0.0385
  386BOLB   C2D 9262  21.310  30.854   5.395 -0.0530  0.1926 -0.2702
  386BOLB   C3D 9263  21.231  30.350   5.138 -0.2540 -0.0842 -0.0649
  386BOLB   C4D 9264  21.461  30.360   4.659 -0.1349 -0.1255 -0.0624
  387BOLB   NC1 9265  26.853  34.702   2.028 -0.1786  0.0030 -0.1150
  387BOLB   PO1 9266  26.416  34.594   1.876 -0.0758  0.1731 -0.4858
  387BOLB   GL1 9267  26.427  34.519   2.370 -0.2225  0.0111 -0.1276
  387BOLB   GL2 9268  26.676  34.557   2.567 -0.2790  0.0465 -0.1612
  387BOLB   C1A 9269  26.147  34.559   2.819  0.2654  0.1720  0.0140
  387BOLB   C2A 9270  26.227  34.781   3.193 -0.0108  0.2483 -0.3136
  387BOLB   C3A 9271  26.381  34.765   3.631 -0.0715  0.1501  0.2655
  387BOLB   C4A 9272  26.869  34.734   3.978  0.0958 -0.1506  0.0641
  387BOLB   C1B 9273  26.427  34.944   2.704 -0.2405  0.0214  0.0783
  387BOLB   C2B 9274  26.448  35.219   2.924 -0.2491  0.0212  0.1948
  387BOLB   C3B 9275  26.601  35.491   3.109 -0.3510  0.0094 -0.1527
  387BOLB   C4B 9276  26.695  35.717   3.345  0.2532  0.0890 -0.1614
  387BOLB   NC2 9277  26.772  35.208   5.766 -0.1304 -0.1051 -0.4879
  387BOLB   PO2 9278  27.060  34.953   5.784 -0.0336  0.0701  0.0838
  387BOLB   GL3 9279  26.953  34.529   5.629  0.2445  0.1703  0.2134
  387BOLB   GL4 9280  26.613  34.390   5.720 -0.0987  0.1490  0.0054
  387BOLB   C1C 9281  26.928  34.228   5.259 -0.2216 -0.0336 -0.0186
  387BOLB   C2C 9282  27.130  34.338   4.853  0.0746 -0.0335  0.0285
  387BOLB   C3C 9283  27.211  34.644   4.531  0.1308 -0.2290  0.1921
  387BOLB   C4C 9284  26.912  34.895   4.379 -0.1396 -0.1754  0.1327
  387BOLB   C1D 9285  26.600  34.072   5.686 -0.0463  0.0464 -0.2496
  387BOLB   C2D 9286  26.918  33.836   5.563  0.2672 -0.0312 -0.0273
  387BOLB   C3D 9287  27.073  33.488   5.420  0.0810  0.1928  0.2173
  387BOLB   C4D 9288  27.330  33.415   5.056  0.1683 -0.1006  0.2500
  388BOLB   NC1 9289  33.461  26.308  18.508  0.0376 -0.1351 -0.1325
  388BOLB   PO1 9290  33.732  26.071  18.287  0.1279 -0.0198  0.1735
  388BOLB   GL1 9291  34.118  25.931  18.252 -0.3690 -0.0475  0.0177
  388BOLB   GL2 9292  34.207  25.974  17.943  0.2652  0.0377  0.0190
  388BOLB   C1A 9293  34.512  25.665  18.157  0.1071  0.2395  0.0437
  388BOLB   C2A 9294  34.775  25.401  17.943 -0.1305  0.0060  0.1338
  388BOLB   C3A 9295  35.058  25.155  17.694  0.0134  0.0945  0.2998
  388BOLB   C4A 9296  35.168  24.752  17.655 -0.3664 -0.1231 -0.0224
  388BOLB   C1B 9297  34.293  25.667  17.594 -0.2924 -0.1987  0.1530
  388BOLB   C2B 9298  34.421  25.322  17.409  0.2042  0.5157  0.0212
  388BOLB   C3B 9299  34.867  25.271  17.269  0.1727  0.2946  0.2328
  388BOLB   C4B 9300  35.312  25.210  17.254  0.2946 -0.1725 -0.1739
  388BOLB   NC2 9301  37.569  23.395  17.053  0.1651 -0.0050  0.1585
  388BOLB   PO2 9302  37.245  23.649  17.309  0.2535 -0.2566  0.2629
  388BOLB   GL3 9303  36.896  23.977  17.406  0.3619  0.0938 -0.3495
  388BOLB   GL4 9304  36.540  23.986  17.337  0.0500  0.2621 -0.0787
  388BOLB   C1C 9305  36.736  24.456  17.477 -0.0728  0.1429 -0.0745
  388BOLB   C2C 9306  36.354  24.506  17.467  0.0981 -0.3280  0.0113
  388BOLB   C3C 9307  35.966  24.482  17.656  0.3171  0.0550  0.4551
  388BOLB   C4C 9308  35.561  24.486  17.761 -0.1313  0.0769 -0.0350
  388BOLB   C1D 9309  36.097  24.078  17.435  0.1567  0.1459  0.0106
  388BOLB   C2D 9310  35.733  24.052  17.590  0.1174 -0.0012  0.1906
  388BOLB   C3D 9311  35.287  23.905  17.609  0.0616 -0.1843 -0.2282
  388BOLB   C4D 9312  34.848  23.916  17.672  0.1885 -0.1209 -0.2742
  389BOLB   NC1 9313  18.011  17.558  21.299  0.5269 -0.2073 -0.2617
  389BOLB   PO1 9314  18.103  17.759  21.697  0.1066 -0.1136 -0.0542
  389BOLB   GL1 9315  18.526  17.632  21.526  0.0111 -0.1698  0.1643
  389BOLB   GL2 9316  18.425  17.844  21.319 -0.0994  0.2592  0.3655
  389BOLB   C1A 9317  18.892  17.692  21.860  0.0778  0.0398 -0.1693
  389BOLB   C2A 9318  19.374  17.799  21.911 -0.2744  0.4661 -0.1197
  389BOLB   C3A 9319  19.762  17.760  21.628  0.3062 -0.1142  0.0446
  389BOLB   C4A 9320  19.962  17.596  21.321  0.1643 -0.0350 -0.1545
  389BOLB   C1B 9321  18.906  17.858  21.375  0.1425  0.1156  0.1091
  389BOLB   C2B 9322  19.193  18.099  21.545  0.0501 -0.0927 -0.0851
  389BOLB   C3B 9323  19.570  18.317  21.439 -0.1341 -0.0121  0.2026
  389BOLB   C4B 9324  20.079  18.393  21.328  0.2609 -0.1251  0.1617
  389BOLB   NC2 9325  19.604  16.782  18.802  0.0131  0.1069  0.3973
  389BOLB   PO2 9326  19.454  16.859  19.128 -0.1392 -0.3424  0.2277
  389BOLB   GL3 9327  19.465  17.068  19.567  0.2120  0.0762 -0.1032
  389BOLB   GL4 9328  19.198  17.123  19.772 -0.3859  0.1646  0.2065
  389BOLB   C1C 9329  19.802  17.097  19.925  0.2206 -0.0802  0.1189
  389BOLB   C2C 9330  19.910  17.412  20.228  0.2001 -0.1174  0.0420
  389BOLB   C3C 9331  20.162  17.249  20.622 -0.0470  0.0055 -0.0340
  389BOLB   C4C 9332  20.171  17.395  21.027 -0.1175 -0.1691 -0.0058
  389BOLB   C1D 9333  19.308  17.552  19.560 -0.0769  0.1358  0.1073
  389BOLB   C2D 9334  19.247  17.961  19.692  0.0120  0.1851 -0.0708
  389BOLB   C3D 9335  19.085  18.423  19.540 -0.2586 -0.1090 -0.1464
  389BOLB   C4D 9336  19.131  18.865  19.683 -0.3066 -0.0405  0.0747
  390BOLB   NC1 9337  29.402  37.371  25.512 -0.1865  0.1864 -0.0850
  390BOLB   PO1 9338  29.708  37.616  25.199 -0.3743  0.1787  0.0185
  390BOLB   GL1 9339  29.613  37.994  25.305  0.2133  0.0611  0.0571
  390BOLB   GL2 9340  29.708  37.862  25.576  0.2255  0.2091 -0.0085
  390BOLB   C1A 9341  29.672  38.406  25.401  0.1722  0.1749  0.0263
  390BOLB   C2A 9342  29.431  38.818  25.368  0.0401 -0.1070  0.5269
  390BOLB   C3A 9343  29.380  39.185  25.254  0.0839 -0.0466  0.1361
  390BOLB   C4A 9344  29.243  39.542  25.398 -0.0276 -0.0696 -0.0025
  390BOLB   C1B 9345  29.909  38.257  25.866  0.1416 -0.0187 -0.1959
  390BOLB   C2B 9346  29.814  38.513  26.169  0.1611 -0.1032 -0.4139
  390BOLB   C3B 9347  29.550  38.661  26.474  0.1395 -0.1652 -0.1279
  390BOLB   C4B 9348  29.384  38.798  26.867  0.2072  0.2519 -0.1255
  390BOLB   NC2 9349  30.741  40.824  26.763  0.0020  0.1705 -0.3086
  390BOLB   PO2 9350  30.875  40.717  26.452  0.0810  0.1232  0.0649
  390BOLB   GL3 9351  30.544  40.671  26.258  0.1469  0.3224 -0.1901
  390BOLB   GL4 9352  30.213  40.861  26.179 -0.2078  0.2823 -0.0195
  390BOLB   C1C 9353  30.264  40.254  26.277  0.1134  0.1334  0.0307
  390BOLB   C2C 9354  29.984  40.112  26.039  0.0308 -0.0150 -0.1070
  390BOLB   C3C 9355  29.553  40.233  25.873  0.1155 -0.1181 -0.0996
  390BOLB   C4C 9356  29.345  39.883  25.719 -0.1558  0.0636  0.1750
  390BOLB   C1D 9357  30.287  40.498  25.882  0.1098  0.0260 -0.1541
  390BOLB   C2D 9358  30.437  40.468  25.616  0.3218  0.0239 -0.1577
  390BOLB   C3D 9359  30.936  40.510  25.434 -0.4074 -0.2327  0.2591
  390BOLB   C4D 9360  31.351  40.496  25.735  0.2324 -0.0340 -0.1492
  391BOLB   NC1 9361  31.864  31.850  14.913 -0.1760  0.1298 -0.0720
  391BOLB   PO1 9362  31.920  32.262  15.064 -0.1801 -0.0494 -0.1615
  391BOLB   GL1 9363  32.272  32.242  14.811 -0.2856  0.0392  0.2984
  391BOLB   GL2 9364  32.481  32.350  14.975  0.1753  0.1946  0.0505
  391BOLB   C1A 9365  32.568  32.439  14.465  0.2522  0.1332 -0.0415
  391BOLB   C2A 9366  32.821  32.430  14.043 -0.0656  0.5169 -0.1379
  391BOLB   C3A 9367  33.042  32.262  13.759 -0.0822  0.0745 -0.4460
  391BOLB   C4A 9368  33.299  32.105  13.518 -0.0930 -0.1307 -0.0759
  391BOLB   C1B 9369  32.998  32.511  15.139 -0.1652 -0.3055 -0.0197
  391BOLB   C2B 9370  33.466  32.689  15.055  0.1828 -0.1368  0.2204
  391BOLB   C3B 9371  33.565  33.083  15.044  0.0695  0.1692  0.1458
  391BOLB   C4B 9372  33.756  33.374  14.914 -0.2929 -0.1121 -0.1073
  391BOLB   NC2 9373  34.669  32.067  11.600  0.0608  0.0665  0.0257
  391BOLB   PO2 9374  34.744  31.714  11.871 -0.2568  0.0697 -0.2529
  391BOLB   GL3 9375  34.731  31.480  12.337  0.2379  0.1070 -0.0107
  391BOLB   GL4 9376  34.530  31.205  12.122  0.0416  0.3258 -0.3867
  391BOLB   C1C 9377  34.841  31.564  12.730 -0.2494 -0.0369 -0.0806
  391BOLB   C2C 9378  34.603  31.596  13.084 -0.1874  0.0822 -0.0424
  391BOLB   C3C 9379  34.112  31.767  13.286  0.1883 -0.0780  0.4099
  391BOLB   C4C 9380  33.685  31.853  13.524 -0.2381 -0.1059  0.0553
  391BOLB   C1D 9381  34.159  31.253  12.350 -0.0756  0.1221 -0.1185
  391BOLB   C2D 9382  33.785  31.517  12.431 -0.2065 -0.1598  0.0632
  391BOLB   C3D 9383  33.673  31.853  12.177 -0.4720 -0.3291 -0.1121
  391BOLB   C4D 9384  33.848  31.948  11.724 -0.5054  0.2841 -0.0026
  392BOLB   NC1 9385  21.374  28.469  16.193 -0.0880 -0.1789  0.0056
  392BOLB   PO1 9386  21.656  28.701  15.946 -0.0244  0.2765  0.0730
  392BOLB   GL1 9387  21.311  28.842  15.862  0.0553 -0.2102 -0.0806
  392BOLB   GL2 9388  21.462  29.048  15.543  0.0497 -0.1270 -0.2178
  392BOLB   C1A 9389  21.024  28.842  15.512 -0.0279 -0.0959  0.0770
  392BOLB   C2A 9390  20.877  28.766  15.115  0.0901 -0.0639 -0.1275
  392BOLB   C3A 9391  20.546  28.633  14.946 -0.3692 -0.2901  0.0137
  392BOLB   C4A 9392  20.161  28.705  14.839 -0.1473 -0.0488 -0.1097
  392BOLB   C1B 9393  21.390  29.208  15.166 -0.5033  0.0132  0.3067
  392BOLB   C2B 9394  21.244  28.996  14.856 -0.1977 -0.4206  0.0998
  392BOLB   C3B 9395  20.884  28.920  14.638 -0.1498 -0.0925 -0.0757
  392BOLB   C4B 9396  20.519  29.097  14.520 -0.0383 -0.1494  0.1618
  392BOLB   NC2 9397  17.390  28.377  14.713 -0.2071  0.0314  0.3265
  392BOLB   PO2 9398  17.649  28.289  14.316  0.1530 -0.0050 -0.3065
  392BOLB   GL3 9399  18.034  28.475  14.618  0.2224  0.0788 -0.1210
  392BOLB   GL4 9400  17.876  28.347  14.909  0.2867 -0.0931 -0.3467
  392BOLB   C1C 9401  18.496  28.622  14.721  0.0282  0.3275  0.1103
  392BOLB   C2C 9402  18.993  28.483  14.842 -0.5238  0.3247 -0.2745
  392BOLB   C3C 9403  19.333  28.495  15.002  0.0427 -0.0157  0.2876
  392BOLB   C4C 9404  19.775  28.617  15.018 -0.0107 -0.1529  0.0204
  392BOLB   C1D 9405  18.307  28.238  14.949  0.3481 -0.1589  0.1824
  392BOLB   C2D 9406  18.418  28.074  15.336 -0.0053 -0.0364 -0.0323
  392BOLB   C3D 9407  18.664  28.093  15.658 -0.1926  0.1789 -0.1233
  392BOLB   C4D 9408  19.077  27.865  15.646  0.2433  0.3392  0.0148
  393BOLB   NC1 9409  31.167  31.327   2.134  0.0173 -0.2555 -0.0524
  393BOLB   PO1 9410  31.525  31.343   2.077 -0.3225 -0.2784  0.0247
  393BOLB   GL1 9411  31.715  31.686   2.347  0.3972  0.1960 -0.0085
  393BOLB   GL2 9412  31.659  31.938   2.384 -0.2631  0.1300  0.1063
  393BOLB   C1A 9413  31.838  31.459   2.770 -0.4682  0.0512  0.0222
  393BOLB   C2A 9414  32.039  31.510   3.176 -0.0165  0.2833 -0.0156
  393BOLB   C3A 9415  32.083  31.452   3.579 -0.2278  0.1343  0.1444
  393BOLB   C4A 9416  32.192  31.674   3.957 -0.1403  0.2252 -0.0705
  393BOLB   C1B 9417  32.009  31.969   2.761 -0.1250  0.1000  0.2370
  393BOLB   C2B 9418  31.941  31.990   3.248  0.3724  0.2094 -0.2375
  393BOLB   C3B 9419  32.259  31.960   3.541 -0.0347  0.2981  0.2366
  393BOLB   C4B 9420  32.357  32.316   3.793 -0.1624  0.2227 -0.1284
  393BOLB   NC2 9421  32.750  32.153   6.076 -0.0535 -0.0252 -0.1769
  393BOLB   PO2 9422  32.649  32.690   5.962  0.3379  0.2251  0.2357
  393BOLB   GL3 9423  32.533  32.531   5.543 -0.0152  0.3868  0.2973
  393BOLB   GL4 9424  32.695  32.814   5.401 -0.0925  0.0093  0.1371
  393BOLB   C1C 9425  32.576  32.393   5.119 -0.0652  0.0114 -0.1338
  393BOLB   C2C 9426  32.477  32.382   4.705  0.1212 -0.0492  0.1437
  393BOLB   C3C 9427  32.295  32.219   4.356  0.1350  0.0360 -0.1643
  393BOLB   C4C 9428  32.443  31.853   4.198 -0.0641  0.0518 -0.0977
  393BOLB   C1D 9429  32.807  32.799   4.899  0.2916 -0.2766 -0.0187
  393BOLB   C2D 9430  33.200  33.053   4.810  0.1898 -0.0254 -0.0931
  393BOLB   C3D 9431  33.434  33.396   4.565  0.1821 -0.3485  0.4406
  393BOLB   C4D 9432  33.596  33.371   4.242  0.1915  0.1419  0.0670
  394BOLB   NC1 9433  22.212  35.584  21.781 -0.0495  0.2616 -0.1761
  394BOLB   PO1 9434  22.083  35.714  21.325 -0.0405 -0.1290 -0.1311
  394BOLB   GL1 9435  21.850  35.978  21.266 -0.2247  0.0680 -0.3255
  394BOLB   GL2 9436  21.940  36.322  21.123 -0.1145  0.1089 -0.1847
  394BOLB   C1A 9437  21.708  36.394  21.558 -0.0530  0.1237  0.3717
  394BOLB   C2A 9438  21.388  36.622  21.511 -0.0679 -0.1535 -0.0455
  394BOLB   C3A 9439  21.061  36.891  21.310 -0.0721  0.3383  0.1522
  394BOLB   C4A 9440  20.692  37.090  21.206  0.1304 -0.1661 -0.1550
  394BOLB   C1B 9441  22.082  36.537  20.741  0.1265 -0.0853 -0.3075
  394BOLB   C2B 9442  22.010  36.866  20.622 -0.1215 -0.0992  0.3104
  394BOLB   C3B 9443  21.740  37.155  20.377 -0.4401 -0.0594 -0.2949
  394BOLB   C4B 9444  21.979  37.371  20.099 -0.1104  0.2865  0.1359
  394BOLB   NC2 9445  19.855  39.778  20.265  0.0796 -0.2229 -0.2449
  394BOLB   PO2 9446  19.775  39.357  20.448 -0.2293  0.2314  0.2935
  394BOLB   GL3 9447  19.815  38.948  20.611  0.2180 -0.3234  0.1081
  394BOLB   GL4 9448  19.771  38.744  20.473 -0.1424 -0.0674 -0.0118
  394BOLB   C1C 9449  20.207  38.688  20.778 -0.0206 -0.0177  0.1571
  394BOLB   C2C 9450  20.276  38.249  20.701 -0.3059 -0.0623  0.1020
  394BOLB   C3C 9451  20.461  37.828  20.870  0.2782 -0.3118 -0.2542
  394BOLB   C4C 9452  20.671  37.441  20.861 -0.0988  0.1484  0.0690
  394BOLB   C1D 9453  19.931  38.283  20.382  0.2810 -0.0353 -0.0885
  394BOLB   C2D 9454  20.133  37.914  20.386  0.0670 -0.1564 -0.2352
  394BOLB   C3D 9455  20.282  37.674  20.149  0.1897  0.2143 -0.0619
  394BOLB   C4D 9456  20.446  37.420  19.861 -0.1435  0.4237  0.3468
  395BOLB   NC1 9457  30.292  18.994   1.125 -0.0044 -0.0224  0.0920
  395BOLB   PO1 9458  29.807  19.088   1.213 -0.2329 -0.0188 -0.1913
  395BOLB   GL1 9459  29.598  19.448   0.968  0.2719 -0.2910  0.0112
  395BOLB   GL2 9460  29.645  19.770   1.172 -0.1144 -0.2288 -0.2481
  395BOLB   C1A 9461  29.419  19.614   0.592  0.1443 -0.0144 -0.0327
  395BOLB   C2A 9462  29.230  19.999   0.543 -0.0249  0.1463 -0.0039
  395BOLB   C3A 9463  29.307  20.366   0.311  0.0686  0.0034 -0.0851
  395BOLB   C4A 9464  29.425  20.773   0.150 -0.2632 -0.0361 -0.3478
  395BOLB   C1B 9465  29.911  20.169   1.079 -0.1579  0.0874  0.3448
  395BOLB   C2B 9466  29.945  20.684   1.000 -0.1970  0.0143  0.3551
  395BOLB   C3B 9467  29.985  21.070   0.764 -0.1661  0.2416 -0.0492
  395BOLB   C4B 9468  30.082  21.398   0.463  0.0820 -0.1486  0.2388
  395BOLB   NC2 9469  29.163  22.484  25.900  0.0438 -0.0816 -0.1935
  395BOLB   PO2 9470  29.299  22.095  25.510  0.0476  0.0814  0.1154
  395BOLB   GL3 9471  29.006  21.997  25.776  0.0305 -0.3568 -0.0946
  395BOLB   GL4 9472  29.173  22.025  26.028  0.0096  0.1087 -0.0967
  395BOLB   C1C 9473  28.732  21.797  25.998  0.1644  0.0686  0.1746
  395BOLB   C2C 9474  28.683  21.329  26.186  0.1926  0.2017 -0.0600
  395BOLB   C3C 9475  28.714  21.196  26.575 -0.3924 -0.0440 -0.0370
  395BOLB   C4C 9476  29.100  21.151  26.910  0.0289 -0.2926 -0.0130
  395BOLB   C1D 9477  29.060  21.664  26.385  0.0597 -0.0607  0.0031
  395BOLB   C2D 9478  28.870  21.588  26.810 -0.0481  0.4620  0.0847
  395BOLB   C3D 9479  28.737  21.554   0.288  0.0416 -0.2929  0.1439
  395BOLB   C4D 9480  28.394  21.741   0.207  0.2628 -0.0574  0.1864
  396BOLB   NC1 9481  30.478  21.610  21.873 -0.3279 -0.3139 -0.4398
  396BOLB   PO1 9482  30.630  21.675  21.533 -0.4341 -0.2187 -0.1703
  396BOLB   GL1 9483  30.879  21.290  21.641  0.1301  0.1148  0.2020
  396BOLB   GL2 9484  31.060  21.403  21.827  0.2023  0.0244 -0.1047
  396BOLB   C1A 9485  30.904  20.843  21.732 -0.2359  0.2565 -0.2113
  396BOLB   C2A 9486  31.306  20.541  21.829 -0.0811  0.0204 -0.1501
  396BOLB   C3A 9487  31.392  20.096  21.782 -0.2187  0.1711  0.0669
  396BOLB   C4A 9488  31.397  19.602  21.601 -0.2343  0.2172 -0.0429
  396BOLB   C1B 9489  31.390  21.054  21.816 -0.1724  0.1547  0.0028
  396BOLB   C2B 9490  31.745  20.661  21.697  0.0670 -0.0761  0.0057
  396BOLB   C3B 9491  32.029  20.496  21.390  0.0745  0.5998 -0.0099
  396BOLB   C4B 9492  32.381  20.409  21.033  0.1771  0.0124 -0.0763
  396BOLB   NC2 9493  32.026  17.932  19.518  0.2186 -0.0152 -0.2135
  396BOLB   PO2 9494  32.052  17.881  20.080  0.1469  0.2640  0.0415
  396BOLB   GL3 9495  31.749  18.186  20.084 -0.1517  0.0149  0.0663
  396BOLB   GL4 9496  31.743  18.409  19.837 -0.0771 -0.3998  0.3988
  396BOLB   C1C 9497  31.634  18.595  20.302  0.0845 -0.0080  0.1799
  396BOLB   C2C 9498  31.392  18.942  20.498 -0.2333  0.2561 -0.3551
  396BOLB   C3C 9499  31.179  19.107  20.852 -0.1392 -0.4740 -0.1716
  396BOLB   C4C 9500  31.279  19.406  21.227 -0.0600 -0.1228  0.0554
  396BOLB   C1D 9501  31.859  18.837  19.979 -0.0660 -0.4303  0.4323
  396BOLB   C2D 9502  31.613  19.154  20.049 -0.1615  0.1758  0.2124
  396BOLB   C3D 9503  31.296  19.345  20.243  0.1493 -0.2324  0.0957
  396BOLB   C4D 9504  31.313  19.815  20.272  0.2027 -0.0371 -0.1385
  397BOLB   NC1 9505  29.736  37.781  22.738  0.0585 -0.0992  0.2356
  397BOLB   PO1 9506  30.065  37.766  22.533 -0.0202 -0.0168 -0.1017
  397BOLB   GL1 9507  30.194  38.159  22.782 -0.2848 -0.0645  0.0534
  397BOLB   GL2 9508  29.899  38.261  22.671  0.1475 -0.2172 -0.0810
  397BOLB   C1A 9509  30.332  38.634  22.978 -0.0779 -0.2627  0.2111
  397BOLB   C2A 9510  30.193  39.057  23.037 -0.0885 -0.2677 -0.0923
  397BOLB   C3A 9511  30.395  39.421  23.238  0.1801  0.4882 -0.4306
  397BOLB   C4A 9512  30.696  39.721  23.279 -0.0233  0.1437 -0.0889
  397BOLB   C1B 9513  29.927  38.683  22.702  0.1799 -0.0503  0.0471
  397BOLB   C2B 9514  30.179  38.978  22.536  0.1495 -0.0349  0.1934
  397BOLB   C3B 9515  30.483  39.335  22.703  0.2225  0.1564 -0.0655
  397BOLB   C4B 9516  30.864  39.426  22.915 -0.4631  0.0058  0.3044
  397BOLB   NC2 9517  31.069  41.718  21.863 -0.0231  0.0412  0.0903
  397BOLB   PO2 9518  31.557  41.521  21.878 -0.0978 -0.5169 -0.0318
  397BOLB   GL3 9519  31.427  41.200  21.981 -0.1364 -0.0936 -0.0119
  397BOLB   GL4 9520  31.113  41.215  21.861  0.0937 -0.1684  0.1251
  397BOLB   C1C 9521  31.290  40.904  22.211  0.0879  0.2139 -0.3990
  397BOLB   C2C 9522  31.319  40.651  22.587  0.0202 -0.3121 -0.3141
  397BOLB   C3C 9523  31.121  40.380  22.934 -0.0694 -0.0782  0.0993
  397BOLB   C4C 9524  30.785  40.112  23.211  0.2620  0.0645  0.1168
  397BOLB   C1D 9525  30.852  41.017  21.924 -0.1202  0.1312 -0.0071
  397BOLB   C2D 9526  30.681  40.741  21.657  0.0417 -0.0866 -0.4050
  397BOLB   C3D 9527  30.519  40.582  21.244 -0.2056  0.1604 -0.2111
  397BOLB   C4D 9528  30.436  40.284  21.008 -0.0247  0.0462 -0.1222
  398BOLB   NC1 9529  34.800  26.648  21.102  0.0018  0.2402 -0.2279
  398BOLB   PO1 9530  35.146  26.310  20.876 -0.0894 -0.2555 -0.0286
  398BOLB   GL1 9531  35.453  26.091  20.751 -0.4617  0.3022  0.0407
  398BOLB   GL2 9532  35.404  25.854  20.536 -0.1555 -0.0210  0.2060
  398BOLB   C1A 9533  35.883  25.923  20.804  0.1140 -0.1296  0.1945
  398BOLB   C2A 9534  36.228  25.688  20.847  0.3110 -0.2436 -0.0456
  398BOLB   C3A 9535  36.607  25.538  20.681 -0.0568 -0.0853 -0.1510
  398BOLB   C4A 9536  36.709  25.214  20.419  0.1466 -0.0478 -0.1533
  398BOLB   C1B 9537  35.531  25.602  20.744  0.2602 -0.0805 -0.3375
  398BOLB   C2B 9538  35.892  25.343  20.891  0.3066 -0.0284 -0.1907
  398BOLB   C3B 9539  36.318  25.102  20.894 -0.1364  0.1425  0.1182
  398BOLB   C4B 9540  36.650  24.821  20.953  0.2554  0.0112 -0.1714
  398BOLB   NC2 9541  38.279  24.213  19.474  0.1626  0.0351 -0.0219
  398BOLB   PO2 9542  38.405  23.790  19.557  0.0531 -0.0470  0.1609
  398BOLB   GL3 9543  37.944  23.787  19.764  0.0185  0.3267 -0.1147
  398BOLB   GL4 9544  37.661  23.702  19.938  0.2207  0.1446  0.0732
  398BOLB   C1C 9545  37.772  24.200  19.939 -0.0829  0.0868  0.0785
  398BOLB   C2C 9546  37.598  24.455  20.028  0.2199  0.1093  0.2217
  398BOLB   C3C 9547  37.181  24.528  20.231  0.2626  0.2217 -0.0045
  398BOLB   C4C 9548  37.001  24.891  20.441  0.2476 -0.1473 -0.0431
  398BOLB   C1D 9549  37.371  23.620  20.241 -0.1759  0.0178 -0.0294
  398BOLB   C2D 9550  37.138  23.626  20.543 -0.2416 -0.0844  0.3295
  398BOLB   C3D 9551  37.098  23.592  21.041 -0.1630 -0.0581 -0.0717
  398BOLB   C4D 9552  37.168  23.878  21.480  0.1386 -0.3748  0.1210
  399BOLB   NC1 9553  21.616  31.386   0.449 -0.1525 -0.0080  0.1863
  399BOLB   PO1 9554  21.711  31.752   0.534 -0.2166 -0.1664  0.1525
  399BOLB   GL1 9555  21.453  31.661   0.801  0.0348 -0.0479 -0.2159
  399BOLB   GL2 9556  21.275  31.334   0.841 -0.1017 -0.0706 -0.2430
  399BOLB   C1A 9557  21.253  31.934   1.136  0.1969 -0.0328 -0.0024
  399BOLB   C2A 9558  21.141  32.198   1.359 -0.2187  0.1732  0.1657
  399BOLB   C3A 9559  20.878  32.382   1.728  0.3670 -0.3206 -0.2071
  399BOLB   C4A 9560  20.563  32.244   2.013  0.0358  0.3472  0.1353
  399BOLB   C1B 9561  20.887  31.698   0.834  0.0796 -0.1848  0.0985
  399BOLB   C2B 9562  20.574  31.906   1.190 -0.2053 -0.0378 -0.0861
  399BOLB   C3B 9563  20.316  32.030   1.538  0.2962  0.1903  0.0121
  399BOLB   C4B 9564  19.939  31.898   1.754 -0.1488  0.1032 -0.0311
  399BOLB   NC2 9565  18.276  33.526   2.933 -0.2570  0.2251  0.2234
  399BOLB   PO2 9566  18.403  33.100   2.616 -0.0191  0.0903  0.0920
  399BOLB   GL3 9567  18.883  33.009   2.610 -0.0928  0.4565 -0.3028
  399BOLB   GL4 9568  18.978  32.793   2.548  0.0996  0.0983  0.1728
  399BOLB   C1C 9569  19.407  32.879   2.776  0.3290 -0.2184 -0.2188
  399BOLB   C2C 9570  19.667  32.725   2.639  0.0016  0.4119  0.0760
  399BOLB   C3C 9571  20.016  32.749   2.352  0.0592  0.0346  0.0741
  399BOLB   C4C 9572  20.264  32.409   2.316  0.4034  0.1122 -0.1990
  399BOLB   C1D 9573  19.331  32.585   2.272  0.3039 -0.2156 -0.0244
  399BOLB   C2D 9574  19.771  32.327   2.311  0.1353  0.3511 -0.0629
  399BOLB   C3D 9575  20.003  31.959   2.261 -0.2348  0.0885 -0.3029
  399BOLB   C4D 9576  20.127  31.598   2.537  0.3373 -0.2349 -0.0933
  400BOLB   NC1 9577  21.496  31.530  16.282  0.0098  0.1275  0.2797
  400BOLB   PO1 9578  21.392  31.271  16.595  0.2121 -0.0047  0.1863
  400BOLB   GL1 9579  21.098  31.111  16.223  0.1182  0.2547 -0.1278
  400BOLB   GL2 9580  20.754  31.066  16.437  0.0761  0.0438 -0.0421
  400BOLB   C1A 9581  20.892  30.879  15.976 -0.2635  0.0717  0.1248
  400BOLB   C2A 9582  20.842  30.807  15.498  0.4339  0.1879  0.1220
  400BOLB   C3A 9583  20.750  30.877  15.109  0.3474 -0.0891 -0.0626
  400BOLB   C4A 9584  20.339  30.797  14.905 -0.2488 -0.1981  0.1624
  400BOLB   C1B 9585  20.518  31.212  16.157  0.0804  0.0049  0.0387
  400BOLB   C2B 9586  20.492  31.024  15.780 -0.1358  0.1448 -0.1797
  400BOLB   C3B 9587  20.259  30.878  15.425 -0.1702  0.1234  0.0323
  400BOLB   C4B 9588  19.907  30.882  15.104 -0.3167  0.0182  0.1644
  400BOLB   NC2 9589  18.684  31.371  13.314 -0.0360 -0.1202  0.1844
  400BOLB   PO2 9590  18.426  31.123  13.558  0.0485  0.1420 -0.0707
  400BOLB   GL3 9591  18.568  30.732  13.776 -0.1921  0.3363  0.1253
  400BOLB   GL4 9592  18.802  30.933  13.937 -0.0336  0.0483  0.0250
  400BOLB   C1C 9593  18.964  30.451  13.962  0.1177  0.0851 -0.0334
  400BOLB   C2C 9594  19.384  30.369  14.157  0.0665  0.2175  0.0046
  400BOLB   C3C 9595  19.630  30.646  14.223  0.0595 -0.0462 -0.0395
  400BOLB   C4C 9596  20.012  30.817  14.527  0.0579 -0.2423  0.1849
  400BOLB   C1D 9597  19.083  30.789  14.321 -0.0818 -0.0418 -0.1468
  400BOLB   C2D 9598  19.301  30.558  14.621  0.2614  0.0243 -0.2731
  400BOLB   C3D 9599  19.699  30.477  14.798  0.2174  0.0640 -0.2185
  400BOLB   C4D 9600  20.036  30.286  15.030 -0.2304  0.0048 -0.2891
  401BOLB   NC1 9601  26.029  31.028   2.877  0.3064  0.1136  0.1807
  401BOLB   PO1 9602  25.633  31.218   2.754 -0.0240 -0.4064  0.0228
  401BOLB   GL1 9603  25.465  31.069   3.143  0.0529 -0.0727 -0.2346
  401BOLB   GL2 9604  25.687  30.820   3.335  0.4108  0.1517  0.0110
  401BOLB   C1A 9605  25.332  31.123   3.548  0.2197 -0.1735 -0.2023
  401BOLB   C2A 9606  25.210  31.335   3.880  0.1154 -0.0596  0.3785
  401BOLB   C3A 9607  25.321  31.450   4.250  0.3723  0.0429 -0.1708
  401BOLB   C4A 9608  25.567  31.129   4.533  0.0571  0.1506 -0.0839
  401BOLB   C1B 9609  25.564  30.763   3.772 -0.1755 -0.2531 -0.2160
  401BOLB   C2B 9610  25.337  30.854   4.106  0.0334 -0.0773 -0.0218
  401BOLB   C3B 9611  25.158  30.857   4.519  0.3067  0.1236 -0.2009
  401BOLB   C4B 9612  25.017  30.813   4.913 -0.1018 -0.3522 -0.0562
  401BOLB   NC2 9613  25.304  31.385   7.077  0.0107  0.0401  0.4585
  401BOLB   PO2 9614  25.773  31.308   7.003  0.2658 -0.2628 -0.0323
  401BOLB   GL3 9615  25.400  31.143   6.663  0.0736  0.1059 -0.5485
  401BOLB   GL4 9616  25.239  31.361   6.512  0.0045  0.0012 -0.0333
  401BOLB   C1C 9617  25.301  30.995   6.109 -0.3029 -0.0902 -0.2082
  401BOLB   C2C 9618  25.287  30.784   5.732 -0.1129  0.0850  0.2022
  401BOLB   C3C 9619  25.482  30.710   5.289 -0.1807  0.0588  0.0192
  401BOLB   C4C 9620  25.492  30.965   4.933 -0.0193 -0.0140 -0.3949
  401BOLB   C1D 9621  25.692  31.287   6.337  0.0789  0.0882  0.1527
  401BOLB   C2D 9622  25.859  31.312   5.917 -0.0716 -0.0071 -0.0018
  401BOLB   C3D 9623  26.141  31.475   5.529 -0.0834 -0.2022  0.3075
  401BOLB   C4D 9624  26.125  31.647   5.118 -0.1238 -0.0790  0.1494
  402BOLB   NC1 9625  22.395  29.034  15.061  0.0696  0.1698  0.2813
  402BOLB   PO1 9626  22.609  28.658  15.195 -0.0467 -0.1693 -0.0506
  402BOLB   GL1 9627  22.478  28.539  14.827 -0.0760 -0.0644 -0.3322
  402BOLB   GL2 9628  22.157  28.597  14.902 -0.0008  0.0707  0.0858
  402BOLB   C1A 9629  22.289  28.191  14.613 -0.3828 -0.1233 -0.0958
  402BOLB   C2A 9630  22.043  28.074  14.185  0.0348 -0.2774 -0.1089
  402BOLB   C3A 9631  21.807  28.251  13.820  0.1616  0.1329  0.3740
  402BOLB   C4A 9632  21.874  28.423  13.369  0.0961  0.1128 -0.1117
  402BOLB   C1B 9633  22.097  28.558  14.475  0.0848  0.0934  0.0989
  402BOLB   C2B 9634  22.001  28.689  14.001 -0.2171 -0.1518 -0.2699
  402BOLB   C3B 9635  21.872  28.854  13.661  0.1404 -0.2653 -0.4667
  402BOLB   C4B 9636  21.568  28.891  13.351  0.0463  0.0335  0.3395
  402BOLB   NC2 9637  20.710  28.393  11.057  0.0972 -0.0902  0.1766
  402BOLB   PO2 9638  21.033  28.272  11.030 -0.0764  0.2620  0.1350
  402BOLB   GL3 9639  21.391  28.249  11.388 -0.3446 -0.1930  0.3123
  402BOLB   GL4 9640  21.572  28.025  11.483  0.1696 -0.4343 -0.0018
  402BOLB   C1C 9641  21.668  28.391  11.750  0.0974  0.1129 -0.2442
  402BOLB   C2C 9642  21.745  28.474  12.195 -0.0422  0.3534  0.1338
  402BOLB   C3C 9643  21.708  28.710  12.536  0.5101 -0.0172  0.1809
  402BOLB   C4C 9644  21.706  28.608  12.928 -0.1852  0.0322  0.0960
  402BOLB   C1D 9645  21.955  27.833  11.594 -0.0743  0.0919  0.4661
  402BOLB   C2D 9646  22.228  27.687  11.957  0.1065  0.2118 -0.0303
  402BOLB   C3D 9647  22.154  27.649  12.320  0.1075  0.3001 -0.1013
  402BOLB   C4D 9648  22.294  27.665  12.868  0.0489 -0.3488 -0.0188
  403BOLB   NC1 9649  20.538  31.885  18.341  0.0013 -0.2627 -0.0066
  403BOLB   PO1 9650  20.632  32.336  18.377 -0.2866  0.1791 -0.3003
  403BOLB   GL1 9651  20.256  32.572  18.348  0.1666  0.3213  0.1952
  403BOLB   GL2 9652  20.112  32.891  18.358  0.0512  0.1660  0.1661
  403BOLB   C1A 9653  19.775  32.461  18.310  0.2081  0.1868  0.1508
  403BOLB   C2A 9654  19.433  32.708  18.390  0.0288 -0.1117 -0.0516
  403BOLB   C3A 9655  19.088  32.801  18.333  0.0086 -0.0367  0.2870
  403BOLB   C4A 9656  18.734  32.978  18.069 -0.0157 -0.1072 -0.0901
  403BOLB   C1B 9657  19.863  33.271  18.293  0.6566  0.0030 -0.3530
  403BOLB   C2B 9658  19.394  33.222  18.390 -0.2450 -0.0242  0.1013
  403BOLB   C3B 9659  19.006  33.270  18.590 -0.1140 -0.0651  0.0007
  403BOLB   C4B 9660  18.684  33.558  18.779  0.2339 -0.0052  0.0030
  403BOLB   NC2 9661  16.521  33.804  17.919  0.1747  0.1875 -0.1362
  403BOLB   PO2 9662  16.823  34.085  17.881  0.2977  0.0326  0.1703
  403BOLB   GL3 9663  17.109  33.767  18.035  0.0246 -0.1325 -0.1795
  403BOLB   GL4 9664  17.029  33.576  17.741 -0.0617  0.2781  0.0219
  403BOLB   C1C 9665  17.245  33.370  18.093 -0.0571 -0.0872 -0.1232
  403BOLB   C2C 9666  17.634  33.131  18.053  0.3995 -0.1564 -0.1524
  403BOLB   C3C 9667  17.961  33.150  18.013  0.0823 -0.0841 -0.0926
  403BOLB   C4C 9668  18.412  33.200  18.013 -0.1743  0.2775  0.0462
  403BOLB   C1D 9669  17.394  33.448  17.620 -0.0501 -0.0409  0.1376
  403BOLB   C2D 9670  17.711  33.625  17.363  0.2084 -0.3118 -0.2851
  403BOLB   C3D 9671  18.027  33.782  17.382 -0.1786 -0.2358  0.2508
  403BOLB   C4D 9672  18.399  33.719  17.786  0.1540 -0.0624  0.0343
  404BOLB   NC1 9673  31.732  32.992  15.041  0.1883  0.1846  0.0518
  404BOLB   PO1 9674  32.106  32.767  15.165 -0.0271  0.2099  0.2053
  404BOLB   GL1 9675  32.064  32.842  14.718  0.1400 -0.1284 -0.1383
  404BOLB   GL2 9676  31.854  32.677  14.664  0.0980  0.0048 -0.0276
  404BOLB   C1A 9677  32.109  33.090  14.408  0.1554  0.2703  0.1531
  404BOLB   C2A 9678  32.296  33.080  14.021  0.3854  0.0593 -0.0654
  404BOLB   C3A 9679  32.587  33.143  13.689 -0.3010 -0.3284 -0.0730
  404BOLB   C4A 9680  32.404  33.135  13.240  0.1509 -0.3177 -0.1206
  404BOLB   C1B 9681  31.926  32.630  14.155  0.0779 -0.0229  0.2038
  404BOLB   C2B 9682  32.329  32.415  14.013 -0.1899 -0.3339  0.0222
  404BOLB   C3B 9683  32.537  32.363  13.597  0.0506  0.0834  0.1265
  404BOLB   C4B 9684  32.861  32.284  13.295  0.0812  0.1636  0.1909
  404BOLB   NC2 9685  32.807  33.880  10.706  0.1979 -0.2898 -0.1763
  404BOLB   PO2 9686  32.657  33.849  11.104  0.0542 -0.0694 -0.1776
  404BOLB   GL3 9687  32.883  33.765  11.481  0.2481  0.1152  0.0129
  404BOLB   GL4 9688  32.735  33.860  11.721  0.4105  0.0679  0.0492
  404BOLB   C1C 9689  33.027  33.487  11.805  0.0174 -0.0535 -0.0518
  404BOLB   C2C 9690  32.828  33.400  12.201  0.1946  0.0789 -0.1096
  404BOLB   C3C 9691  32.520  33.303  12.499  0.2631 -0.3506 -0.1159
  404BOLB   C4C 9692  32.425  33.007  12.841  0.0364  0.1554 -0.3858
  404BOLB   C1D 9693  32.688  33.922  12.091  0.0377  0.2744 -0.0273
  404BOLB   C2D 9694  32.532  33.854  12.464 -0.1610  0.1373 -0.2007
  404BOLB   C3D 9695  32.328  33.625  12.825  0.1689 -0.1481 -0.1559
  404BOLB   C4D 9696  32.020  33.653  13.045 -0.0000  0.0440 -0.3023
  405BOLB   NC1 9697  22.074  34.550  17.781 -0.2997  0.1211  0.0530
  405BOLB   PO1 9698  22.157  34.203  18.067  0.1682 -0.4558  0.1117
  405BOLB   GL1 9699  21.750  34.492  18.162  0.1902 -0.2470  0.0296
  405BOLB   GL2 9700  21.792  34.865  18.262  0.4386 -0.1408 -0.1928
  405BOLB   C1A 9701  21.275  34.423  17.923  0.0335  0.3104 -0.0910
  405BOLB   C2A 9702  20.990  34.422  17.556  0.2778 -0.5584 -0.3733
  405BOLB   C3A 9703  20.819  34.702  17.395 -0.0379  0.1125 -0.0368
  405BOLB   C4A 9704  20.506  34.950  17.103 -0.1793 -0.1241 -0.3790
  405BOLB   C1B 9705  21.671  35.276  17.994 -0.3583  0.1222 -0.2696
  405BOLB   C2B 9706  21.450  35.627  17.907 -0.1316  0.0208 -0.0414
  405BOLB   C3B 9707  21.365  36.039  17.634  0.0479  0.2873 -0.1828
  405BOLB   C4B 9708  21.187  36.089  17.172  0.1959  0.2155  0.0242
  405BOLB   NC2 9709  19.111  36.759  16.847  0.0569  0.1622 -0.0236
  405BOLB   PO2 9710  18.814  36.541  16.473  0.2149  0.1612 -0.3487
  405BOLB   GL3 9711  19.060  36.259  16.607 -0.4753  0.2834  0.0138
  405BOLB   GL4 9712  18.799  36.033  16.661 -0.2248  0.2248 -0.3537
  405BOLB   C1C 9713  19.445  36.074  16.759  0.2619 -0.1824 -0.4239
  405BOLB   C2C 9714  19.879  35.891  16.806 -0.3050  0.0248  0.2612
  405BOLB   C3C 9715  20.084  35.536  16.753  0.2127  0.0680 -0.0780
  405BOLB   C4C 9716  20.198  35.116  16.856  0.1117  0.1087  0.2436
  405BOLB   C1D 9717  19.059  35.821  16.937  0.1569  0.0999  0.0683
  405BOLB   C2D 9718  19.490  35.683  17.046  0.0736  0.1264 -0.1780
  405BOLB   C3D 9719  19.514  35.523  17.373  0.0604  0.2478 -0.2891
  405BOLB   C4D 9720  19.596  35.275  17.642 -0.1052  0.2176 -0.3216
  406BOLB   NC1 9721  35.294  27.806  12.107  0.3814  0.0999 -0.1251
  406BOLB   PO1 9722  34.873  27.609  12.110  0.0645  0.0713 -0.2701
  406BOLB   GL1 9723  34.489  27.453  12.350  0.0429 -0.0124  0.2382
  406BOLB   GL2 9724  34.376  27.729  12.539  0.1570 -0.2436 -0.0624
  406BOLB   C1A 9725  34.118  27.313  12.646  0.0303 -0.1510 -0.0402
  406BOLB   C2A 9726  34.145  27.145  13.056 -0.2094  0.0653 -0.1543
  406BOLB   C3A 9727  33.955  26.942  13.459  0.3904 -0.0183 -0.0662
  406BOLB   C4A 9728  33.602  27.188  13.723  0.0810  0.0336 -0.0924
  406BOLB   C1B 9729  34.229  27.706  12.972  0.1633 -0.0672 -0.0264
  406BOLB   C2B 9730  34.166  27.764  13.367  0.1177 -0.3479  0.2461
  406BOLB   C3B 9731  34.387  27.961  13.731  0.1436 -0.1598 -0.0501
  406BOLB   C4B 9732  34.330  28.000  14.113 -0.0841 -0.3227  0.3123
  406BOLB   NC2 9733  34.456  27.861  12.064 -0.0083 -0.2918 -0.3043
  406BOLB   PO2 9734  34.327  28.141  11.893 -0.0375  0.1766 -0.1809
  406BOLB   GL3 9735  34.241  28.230  12.302  0.2809  0.5521 -0.1818
  406BOLB   GL4 9736  34.466  28.279  12.538 -0.0963  0.0888  0.0460
  406BOLB   C1C 9737  34.025  28.135  12.650 -0.0882  0.1349 -0.0760
  406BOLB   C2C 9738  33.768  28.150  13.004  0.2500  0.2521 -0.2552
  406BOLB   C3C 9739  33.572  28.009  13.439  0.1057  0.0294 -0.2005
  406BOLB   C4C 9740  33.543  27.675  13.716 -0.2491 -0.1644  0.0570
  406BOLB   C1D 9741  34.461  28.177  12.884 -0.1547 -0.1354  0.1141
  406BOLB   C2D 9742  34.193  28.261  13.311  0.0703 -0.1557  0.4540
  406BOLB   C3D 9743  34.222  28.667  13.496 -0.0797 -0.1484  0.2151
  406BOLB   C4D 9744  33.955  29.053  13.676  0.0407  0.0984  0.1281
  407BOLB   NC1 9745  23.855  31.923   2.614  0.0203 -0.2899 -0.5619
  407BOLB   PO1 9746  23.872  31.473   2.504 -0.2245  0.1088 -0.0032
  407BOLB   GL1 9747  23.459  31.319   2.733 -0.0680 -0.0308 -0.2042
  407BOLB   GL2 9748  23.120  31.329   2.623  0.0742 -0.1441 -0.1224
  407BOLB   C1A 9749  23.291  31.046   3.076 -0.0088  0.0642 -0.0082
  407BOLB   C2A 9750  23.008  31.065   3.502  0.1388 -0.1116  0.3203
  407BOLB   C3A 9751  22.815  30.989   3.890  0.2202 -0.1874 -0.1117
  407BOLB   C4A 9752  22.707  31.019   4.311  0.0514 -0.2459  0.1131
  407BOLB   C1B 9753  23.005  31.453   3.023  0.0827  0.1846 -0.0579
  407BOLB   C2B 9754  22.937  31.648   3.396  0.0084 -0.0241 -0.1452
  407BOLB   C3B 9755  23.037  31.504   3.766 -0.1397 -0.1678  0.3363
  407BOLB   C4B 9756  22.837  31.419   4.097 -0.0281 -0.1972 -0.1308
  407BOLB   NC2 9757  21.110  31.043   6.416  0.1653  0.1592  0.0306
  407BOLB   PO2 9758  21.564  30.950   6.307  0.3777  0.0893  0.2365
  407BOLB   GL3 9759  21.464  30.914   5.929  0.2180  0.0461 -0.1045
  407BOLB   GL4 9760  21.218  30.683   6.033  0.0513 -0.0375 -0.1971
  407BOLB   C1C 9761  21.744  30.954   5.568 -0.0975  0.0384 -0.0770
  407BOLB   C2C 9762  21.841  31.090   5.162  0.1344 -0.0816  0.3764
  407BOLB   C3C 9763  22.044  30.992   4.772  0.0390 -0.0779 -0.1706
  407BOLB   C4C 9764  22.496  30.979   4.732  0.0132 -0.3133  0.1543
  407BOLB   C1D 9765  21.388  30.334   6.201  0.6159 -0.3326  0.0648
  407BOLB   C2D 9766  21.348  29.957   6.426  0.1426  0.0016  0.3240
  407BOLB   C3D 9767  21.651  29.598   6.300 -0.1507 -0.0504  0.1422
  407BOLB   C4D 9768  21.997  29.272   6.226 -0.0626 -0.0640 -0.0525
  408BOLB   NC1 9769  29.587  33.263   2.083  0.0016 -0.1092  0.0583
  408BOLB   PO1 9770  29.790  32.938   2.289  0.0197 -0.0638  0.2287
  408BOLB   GL1 9771  29.995  32.795   2.634  0.0750  0.0756  0.0681
  408BOLB   GL2 9772  29.840  33.074   2.756  0.0119 -0.1535  0.1839
  408BOLB   C1A 9773  30.138  32.757   3.043 -0.0732 -0.1053  0.0110
  408BOLB   C2A 9774  29.991  32.480   3.422  0.4344 -0.3395  0.0783
  408BOLB   C3A 9775  29.666  32.455   3.663 -0.1150  0.1035  0.2800
  408BOLB   C4A 9776  29.446  32.432   4.116  0.0940  0.1899 -0.1288
  408BOLB   C1B 9777  30.128  33.342   2.991 -0.2623  0.1633 -0.6126
  408BOLB   C2B 9778  30.468  33.533   3.334  0.0243  0.1434 -0.2632
  408BOLB   C3B 9779  30.563  33.581   3.773 -0.0902  0.0784  0.0655
  408BOLB   C4B 9780  30.632  33.535   4.152  0.3274 -0.0187 -0.1762
  408BOLB   NC2 9781  29.706  32.968   6.447  0.2004 -0.0642 -0.1748
  408BOLB   PO2 9782  29.601  32.516   6.389  0.0133  0.0979 -0.2244
  408BOLB   GL3 9783  29.450  32.167   6.178 -0.0359  0.0403 -0.1191
  408BOLB   GL4 9784  29.067  32.028   6.258 -0.5378 -0.1058 -0.1500
  408BOLB   C1C 9785  29.491  31.927   5.863  0.2593 -0.4398 -0.0348
  408BOLB   C2C 9786  29.374  31.998   5.426  0.0676 -0.1523  0.0184
  408BOLB   C3C 9787  29.231  32.095   4.996 -0.0205 -0.2763 -0.0203
  408BOLB   C4C 9788  29.273  32.181   4.562  0.1138  0.0442  0.1897
  408BOLB   C1D 9789  28.936  31.905   5.835  0.0806 -0.2473  0.2548
  408BOLB   C2D 9790  28.935  31.736   5.486 -0.0873 -0.1336 -0.0935
  408BOLB   C3D 9791  28.773  31.889   5.098  0.3499  0.0272 -0.0393
  408BOLB   C4D 9792  28.702  32.108   4.809  0.1801 -0.0751 -0.0684
  409BOLB   NC1 9793  33.086  31.698  15.720 -0.3378  0.0284 -0.2121
  409BOLB   PO1 9794  33.437  31.466  15.659  0.1997 -0.1184 -0.3291
  409BOLB   GL1 9795  33.841  31.313  15.387  0.2340 -0.2858  0.1271
  409BOLB   GL2 9796  33.969  31.011  15.501  0.1392 -0.0882 -0.3139
  409BOLB   C1A 9797  34.205  31.338  15.076  0.3061 -0.1181 -0.0477
  409BOLB   C2A 9798  34.223  31.427  14.698  0.1236 -0.0419 -0.2889
  409BOLB   C3A 9799  33.922  31.211  14.377 -0.1791  0.0836 -0.0386
  409BOLB   C4A 9800  33.863  31.392  13.972  0.1654 -0.1629  0.0402
  409BOLB   C1B 9801  34.269  30.857  15.263  0.0307 -0.2309 -0.1730
  409BOLB   C2B 9802  34.555  30.901  15.044  0.3777 -0.1691 -0.0808
  409BOLB   C3B 9803  34.897  31.104  14.839  0.1417 -0.2279 -0.1277
  409BOLB   C4B 9804  34.783  31.479  14.627  0.0448  0.1008  0.1342
  409BOLB   NC2 9805  35.911  31.966  12.537 -0.1157 -0.0564 -0.1559
  409BOLB   PO2 9806  35.788  31.655  12.822 -0.1551 -0.2078  0.1408
  409BOLB   GL3 9807  35.418  31.518  12.981  0.1512  0.0298  0.2443
  409BOLB   GL4 9808  35.270  31.351  12.751  0.1543  0.1204  0.3279
  409BOLB   C1C 9809  35.221  31.643  13.437  0.1177  0.0845 -0.1862
  409BOLB   C2C 9810  34.898  31.581  13.678  0.1067  0.1714 -0.3233
  409BOLB   C3C 9811  34.493  31.677  13.562 -0.3278  0.1871 -0.2507
  409BOLB   C4C 9812  34.150  31.733  13.794  0.0526  0.1576  0.2166
  409BOLB   C1D 9813  35.068  31.096  13.082 -0.5002 -0.1659 -0.1352
  409BOLB   C2D 9814  34.831  31.084  13.546  0.1212 -0.0715  0.2499
  409BOLB   C3D 9815  34.497  31.176  13.760 -0.1278 -0.1962  0.2547
  409BOLB   C4D 9816  34.380  31.359  14.108 -0.2302  0.4476  0.1585
  410BOLB   NC1 9817  22.171  30.989  15.940 -0.1270  0.1409  0.0192
  410BOLB   PO1 9818  22.202  30.925  15.526 -0.2276 -0.0054  0.6389
  410BOLB   GL1 9819  21.893  30.944  15.096  0.0539 -0.0560  0.1265
  410BOLB   GL2 9820  21.680  31.166  15.134 -0.1865 -0.1906 -0.1918
  410BOLB   C1A 9821  21.940  31.251  14.682  0.1408 -0.0990  0.3247
  410BOLB   C2A 9822  21.707  31.361  14.388  0.0728  0.1817 -0.0720
  410BOLB   C3A 9823  21.585  31.600  14.002 -0.1898  0.1199 -0.1435
  410BOLB   C4A 9824  21.322  31.860  13.777  0.0122  0.0972  0.1347
  410BOLB   C1B 9825  21.455  31.107  14.750  0.1096  0.0260  0.0939
  410BOLB   C2B 9826  21.240  31.163  14.410 -0.1877  0.0021 -0.0086
  410BOLB   C3B 9827  21.047  30.902  14.076 -0.2958  0.2250 -0.2564
  410BOLB   C4B 9828  20.623  30.844  13.859 -0.0483  0.2642 -0.1587
  410BOLB   NC2 9829  21.338  32.638  11.089 -0.1346 -0.0359 -0.1295
  410BOLB   PO2 9830  21.288  32.421  11.524  0.0543 -0.0087  0.0840
  410BOLB   GL3 9831  21.514  32.527  11.875  0.0417  0.2310  0.0297
  410BOLB   GL4 9832  21.717  32.405  11.943 -0.0660  0.4054 -0.3485
  410BOLB   C1C 9833  21.440  32.536  12.294  0.2388 -0.0884  0.1891
  410BOLB   C2C 9834  21.152  32.349  12.613  0.0157  0.0485  0.1719
  410BOLB   C3C 9835  21.013  32.205  13.000 -0.2748 -0.0216  0.2264
  410BOLB   C4C 9836  21.121  32.222  13.404  0.0866 -0.0623 -0.0973
  410BOLB   C1D 9837  21.913  32.220  12.315  0.2236  0.0435 -0.1322
  410BOLB   C2D 9838  21.870  32.268  12.778  0.0696  0.1381 -0.1161
  410BOLB   C3D 9839  21.519  32.154  12.953  0.0546  0.1955 -0.0689
  410BOLB   C4D 9840  21.303  31.808  13.256  0.0797  0.2433 -0.0356
  411BOLB   NC1 9841  18.098  31.668   4.382  0.1061 -0.3034 -0.0039
  411BOLB   PO1 9842  18.077  31.967   3.954 -0.3269  0.1820 -0.0810
  411BOLB   GL1 9843  18.349  31.637   3.686 -0.3754  0.0957 -0.2139
  411BOLB   GL2 9844  18.622  31.755   3.543 -0.2296  0.3246  0.2535
  411BOLB   C1A 9845  18.199  31.200   3.618 -0.1640 -0.0174  0.0962
  411BOLB   C2A 9846  18.482  30.844   3.562 -0.3592 -0.1450 -0.1938
  411BOLB   C3A 9847  18.873  30.687   3.338  0.3465  0.0877 -0.2953
  411BOLB   C4A 9848  19.323  30.839   3.307  0.0446  0.0248 -0.0596
  411BOLB   C1B 9849  19.019  31.678   3.634  0.1194  0.1097 -0.0474
  411BOLB   C2B 9850  19.355  31.330   3.529 -0.0964 -0.0460  0.1506
  411BOLB   C3B 9851  19.776  31.198   3.317  0.0713 -0.2927 -0.0870
  411BOLB   C4B 9852  20.074  30.845   3.125 -0.1274  0.0135 -0.0530
  411BOLB   NC2 9853  18.372  30.714   5.252 -0.0808  0.2075 -0.2295
  411BOLB   PO2 9854  17.994  30.637   4.974  0.1423 -0.3602 -0.1479
  411BOLB   GL3 9855  18.371  30.674   4.729  0.1876 -0.3912  0.1855
  411BOLB   GL4 9856  18.211  30.901   4.488  0.0044  0.1156 -0.0532
  411BOLB   C1C 9857  18.657  30.485   4.597 -0.2602  0.2059 -0.0980
  411BOLB   C2C 9858  19.070  30.618   4.299 -0.1787 -0.0755 -0.0218
  411BOLB   C3C 9859  19.512  30.706   4.072 -0.1284  0.1473  0.1439
  411BOLB   C4C 9860  19.680  30.795   3.629 -0.0448  0.3250 -0.2210
  411BOLB   C1D 9861  18.195  30.743   3.931  0.1637 -0.3103  0.0014
  411BOLB   C2D 9862  18.106  30.357   3.696 -0.1890  0.1063  0.2499
  411BOLB   C3D 9863  18.560  30.197   3.565 -0.2568 -0.2462 -0.1788
  411BOLB   C4D 9864  18.916  30.160   3.404 -0.2301 -0.1787  0.0922
  412BOLB   NC1 9865  30.685  34.595   1.063  0.1755  0.1705 -0.0590
  412BOLB   PO1 9866  30.664  34.289   1.241  0.0361 -0.4478  0.2102
  412BOLB   GL1 9867  30.570  34.450   1.606  0.0154 -0.2050  0.4023
  412BOLB   GL2 9868  30.894  34.655   1.585  0.1982 -0.3931  0.0619
  412BOLB   C1A 9869  30.481  34.839   1.904 -0.3339  0.1031  0.0392
  412BOLB   C2A 9870  30.489  35.162   2.180  0.1984 -0.0091  0.0325
  412BOLB   C3A 9871  30.489  35.519   2.409 -0.2374  0.0707  0.0809
  412BOLB   C4A 9872  30.829  35.713   2.649  0.2158  0.0224 -0.0110
  412BOLB   C1B 9873  31.404  34.756   1.585  0.2714 -0.2506 -0.2271
  412BOLB   C2B 9874  31.530  35.071   1.987  0.0260  0.0545  0.0785
  412BOLB   C3B 9875  31.400  35.481   2.076 -0.1201 -0.0062  0.1160
  412BOLB   C4B 9876  31.073  35.807   2.274 -0.1017 -0.2015  0.0554
  412BOLB   NC2 9877  32.258  37.845   3.972 -0.1634  0.1418  0.0375
  412BOLB   PO2 9878  31.972  37.721   3.548 -0.1949  0.2482  0.1812
  412BOLB   GL3 9879  32.032  37.333   3.444 -0.1574 -0.0731 -0.0895
  412BOLB   GL4 9880  32.266  37.441   3.141 -0.1347 -0.1111 -0.0453
  412BOLB   C1C 9881  31.875  37.006   3.123 -0.2060  0.0278 -0.0636
  412BOLB   C2C 9882  31.719  36.767   2.763 -0.2158 -0.1897 -0.0809
  412BOLB   C3C 9883  31.433  36.387   2.636  0.0244  0.1455  0.2487
  412BOLB   C4C 9884  31.068  36.085   2.707  0.2485 -0.0554  0.3757
  412BOLB   C1D 9885  32.037  37.368   2.764 -0.1388  0.1715  0.1076
  412BOLB   C2D 9886  31.943  37.056   2.491  0.3919  0.1337  0.2215
  412BOLB   C3D 9887  31.809  36.719   2.237  0.0527 -0.0081 -0.1085
  412BOLB   C4D 9888  31.807  36.389   2.067  0.0199 -0.0210  0.2170
  413BOLB   NC1 9889  28.799  27.344  14.098  0.1021  0.1273 -0.0158
  413BOLB   PO1 9890  28.438  27.306  13.756  0.0227  0.0334 -0.0338
  413BOLB   GL1 9891  28.464  27.323  13.397  0.1023 -0.0313  0.0792
  413BOLB   GL2 9892  28.149  27.442  13.213 -0.1925  0.2538  0.4637
  413BOLB   C1A 9893  28.626  27.238  13.020  0.3361  0.2601  0.0278
  413BOLB   C2A 9894  28.820  26.997  12.764 -0.1381 -0.0245 -0.0379
  413BOLB   C3A 9895  28.505  26.698  12.541 -0.1671  0.1731 -0.4357
  413BOLB   C4A 9896  28.355  26.426  12.185  0.0249 -0.1131 -0.3187
  413BOLB   C1B 9897  28.192  27.196  12.802 -0.2791  0.0292  0.2268
  413BOLB   C2B 9898  28.328  27.129  12.399  0.0321 -0.0668  0.0204
  413BOLB   C3B 9899  28.044  26.932  12.077 -0.3765 -0.0395 -0.0503
  413BOLB   C4B 9900  27.776  26.719  11.746  0.0098 -0.1554  0.0679
  413BOLB   NC2 9901  28.993  24.860  10.107 -0.1877  0.0852 -0.0827
  413BOLB   PO2 9902  28.811  24.923  10.478 -0.0889 -0.0774 -0.4619
  413BOLB   GL3 9903  28.827  25.264  10.811  0.0365 -0.2393  0.0884
  413BOLB   GL4 9904  29.070  25.435  10.773 -0.1356  0.3214 -0.0871
  413BOLB   C1C 9905  28.625  25.506  11.230 -0.5412  0.1887  0.3234
  413BOLB   C2C 9906  28.305  25.648  11.572  0.3469  0.0037 -0.0438
  413BOLB   C3C 9907  28.103  25.996  11.615  0.3641 -0.4782  0.0820
  413BOLB   C4C 9908  28.119  26.383  11.796  0.1238  0.2741  0.1257
  413BOLB   C1D 9909  29.170  25.597  11.273  0.1304 -0.0306 -0.0411
  413BOLB   C2D 9910  29.318  25.768  11.637  0.2247  0.0990  0.1236
  413BOLB   C3D 9911  29.080  25.901  12.057  0.1072 -0.4651 -0.4071
  413BOLB   C4D 9912  28.932  26.200  12.429  0.0846  0.1800  0.0368
  414BOLB   NC1 9913  23.600  28.912  14.257 -0.0429  0.1322 -0.0351
  414BOLB   PO1 9914  23.331  28.792  14.638 -0.1635 -0.3477 -0.1179
  414BOLB   GL1 9915  23.236  28.576  14.215  0.3203  0.1935 -0.0325
  414BOLB   GL2 9916  23.344  28.273  14.162 -0.0775  0.0658  0.0100
  414BOLB   C1A 9917  23.183  28.700  13.752 -0.0615  0.1003  0.1838
  414BOLB   C2A 9918  23.012  28.635  13.327  0.1587  0.3700  0.0053
  414BOLB   C3A 9919  22.875  28.619  12.948  0.1543  0.3170 -0.0702
  414BOLB   C4A 9920  22.651  28.914  12.817  0.0302  0.2217  0.0069
  414BOLB   C1B 9921  23.298  28.165  13.806 -0.0127 -0.0452  0.1269
  414BOLB   C2B 9922  23.141  28.182  13.457  0.4568  0.1761  0.1240
  414BOLB   C3B 9923  22.986  28.100  13.080  0.0564  0.1738 -0.0300
  414BOLB   C4B 9924  22.896  28.138  12.670 -0.0451  0.1006 -0.0504
  414BOLB   NC2 9925  20.440  29.152  11.414 -0.0054 -0.3113  0.2011
  414BOLB   PO2 9926  20.743  28.872  11.331 -0.0165 -0.1095  0.0068
  414BOLB   GL3 9927  21.063  29.014  11.690 -0.0426 -0.0543  0.1454
  414BOLB   GL4 9928  21.084  29.367  11.632  0.0644 -0.2800  0.1240
  414BOLB   C1C 9929  21.410  28.806  11.838  0.1563 -0.1415 -0.2819
  414BOLB   C2C 9930  21.647  29.116  12.156  0.3604  0.0593  0.0257
  414BOLB   C3C 9931  21.875  29.236  12.523 -0.0935  0.0359 -0.1556
  414BOLB   C4C 9932  22.292  29.115  12.789  0.1868  0.1027  0.1676
  414BOLB   C1D 9933  21.289  29.456  11.997  0.0520  0.0145  0.0268
  414BOLB   C2D 9934  21.500  29.526  12.348 -0.1478  0.0138  0.3617
  414BOLB   C3D 9935  21.682  29.669  12.715 -0.2938  0.0789 -0.0774
  414BOLB   C4D 9936  21.793  29.540  13.123  0.3710 -0.0373 -0.2125
  415BOLB   NC1 9937  21.173  34.184  19.740 -0.2690 -0.3153  0.3199
  415BOLB   PO1 9938  20.879  33.996  19.388  0.1353 -0.1674  0.0389
  415BOLB   GL1 9939  20.663  34.339  19.367 -0.0261 -0.3926  0.0340
  415BOLB   GL2 9940  20.755  34.459  19.570  0.0294  0.0198 -0.1273
  415BOLB   C1A 9941  20.281  34.602  19.419 -0.0213  0.1608  0.3288
  415BOLB   C2A 9942  20.006  34.858  19.162 -0.3466  0.0525  0.5008
  415BOLB   C3A 9943  19.909  34.872  18.744  0.0941 -0.1041  0.0430
  415BOLB   C4A 9944  19.771  35.119  18.424 -0.0724  0.5222  0.1037
  415BOLB   C1B 9945  20.822  34.789  19.198 -0.0436 -0.2936  0.0249
  415BOLB   C2B 9946  20.827  35.204  19.178 -0.0718  0.2608 -0.3341
  415BOLB   C3B 9947  20.603  35.485  19.373  0.0089 -0.1220 -0.0917
  415BOLB   C4B 9948  20.225  35.656  19.492  0.3072  0.1153  0.0975
  415BOLB   NC2 9949  18.350  36.224  16.374  0.2706 -0.1761 -0.0692
  415BOLB   PO2 9950  18.264  36.083  16.774  0.1891  0.1140  0.0173
  415BOLB   GL3 9951  18.602  35.987  17.112  0.1553  0.1659  0.1046
  415BOLB   GL4 9952  18.626  35.578  16.924 -0.3725  0.2507 -0.3711
  415BOLB   C1C 9953  18.844  35.936  17.454  0.0261  0.1764 -0.2841
  415BOLB   C2C 9954  19.029  35.759  17.772 -0.0952 -0.2151  0.1082
  415BOLB   C3C 9955  19.397  35.563  17.950  0.2285 -0.1813  0.0360
  415BOLB   C4C 9956  19.733  35.393  18.207 -0.2318 -0.2499 -0.2416
  415BOLB   C1D 9957  18.469  35.109  17.113  0.2705 -0.0603  0.0948
  415BOLB   C2D 9958  18.526  34.668  17.419 -0.0101 -0.0629  0.1471
  415BOLB   C3D 9959  18.672  34.379  17.649 -0.0513 -0.0333 -0.2803
  415BOLB   C4D 9960  18.748  34.070  17.851 -0.0829  0.0469 -0.1604
  416BOLB   NC1 9961  33.436  34.978  18.033  0.0520 -0.1007 -0.1601
  416BOLB   PO1 9962  33.404  34.867  17.644  0.1277  0.2652  0.1475
  416BOLB   GL1 9963  33.678  35.068  17.525  0.3863 -0.0547 -0.1116
  416BOLB   GL2 9964  33.929  34.866  17.472  0.2759 -0.0563  0.0123
  416BOLB   C1A 9965  33.946  35.464  17.504  0.1513 -0.0011  0.0512
  416BOLB   C2A 9966  34.325  35.622  17.425  0.0679 -0.0129  0.2262
  416BOLB   C3A 9967  34.591  35.809  17.242  0.1741 -0.3794 -0.0121
  416BOLB   C4A 9968  34.872  35.886  16.955 -0.0983 -0.1497  0.1442
  416BOLB   C1B 9969  33.969  35.177  17.116  0.0814 -0.1159 -0.0798
  416BOLB   C2B 9970  34.149  35.365  17.022  0.0630 -0.2159 -0.0383
  416BOLB   C3B 9971  34.214  35.821  16.894 -0.1411 -0.1610 -0.2457
  416BOLB   C4B 9972  34.185  36.189  16.968  0.2985 -0.2150  0.2563
  416BOLB   NC2 9973  36.083  36.828  14.958  0.0213 -0.1684  0.2592
  416BOLB   PO2 9974  35.746  36.680  14.740 -0.1624  0.1401 -0.3822
  416BOLB   GL3 9975  35.679  36.440  15.073 -0.0163 -0.0135  0.1231
  416BOLB   GL4 9976  35.589  36.115  15.030 -0.1443  0.0423  0.0215
  416BOLB   C1C 9977  35.425  36.380  15.346 -0.3460  0.0130 -0.3108
  416BOLB   C2C 9978  35.344  36.438  15.800 -0.3559  0.1330  0.1838
  416BOLB   C3C 9979  35.199  36.105  16.209  0.0112  0.0053  0.2353
  416BOLB   C4C 9980  34.963  35.872  16.520  0.0373  0.0510 -0.2805
  416BOLB   C1D 9981  35.189  35.851  15.091  0.1895 -0.0796  0.2217
  416BOLB   C2D 9982  34.788  35.646  15.044 -0.2961 -0.1518  0.0613
  416BOLB   C3D 9983  34.411  35.749  15.086 -0.0371 -0.3300 -0.2645
  416BOLB   C4D 9984  33.934  35.723  14.887 -0.1132 -0.0461 -0.1881
  417BOLB   NC1 9985  21.924  34.927  24.853  0.1576  0.3503  0.1693
  417BOLB   PO1 9986  22.387  35.094  24.939 -0.1407  0.2498  0.2582
  417BOLB   GL1 9987  22.160  35.464  24.867 -0.0987 -0.2088  0.0499
  417BOLB   GL2 9988  22.005  35.440  25.055  0.0264  0.0295 -0.4196
  417BOLB   C1A 9989  21.952  35.926  24.916 -0.0380 -0.0799 -0.0605
  417BOLB   C2A 9990  21.925  36.220  25.161  0.2798  0.1640  0.0213
  417BOLB   C3A 9991  21.911  36.376  25.593  0.0600 -0.1867  0.0856
  417BOLB   C4A 9992  21.720  36.753  25.746 -0.1275  0.0679 -0.4530
  417BOLB   C1B 9993  21.963  35.664  25.309 -0.0456  0.1791  0.0161
  417BOLB   C2B 9994  22.153  35.919  25.480 -0.2156  0.0832  0.4216
  417BOLB   C3B 9995  22.198  36.051  25.914 -0.3478 -0.0875 -0.1179
  417BOLB   C4B 9996  22.249  36.382  26.107 -0.0481 -0.2637  0.0531
  417BOLB   NC2 9997  21.212  38.909  26.663  0.0090 -0.1202  0.2193
  417BOLB   PO2 9998  21.387  39.158  26.285 -0.1241  0.2825 -0.2383
  417BOLB   GL3 9999  21.673  38.726  26.336  0.1363 -0.0046 -0.0033
  417BOLB   GL410000  21.794  38.790  26.661  0.0086 -0.0557  0.1664
  417BOLB   C1C10001  21.923  38.391  26.279 -0.1609  0.1316  0.2705
  417BOLB   C2C10002  21.872  37.905  26.337  0.4228 -0.1082  0.1063
  417BOLB   C3C10003  21.865  37.526  26.074 -0.1443  0.0993  0.1602
  417BOLB   C4C10004  21.653  37.189  25.907  0.0165  0.3121 -0.1469
  417BOLB   C1D10005  22.017  38.366  26.770 -0.3700  0.0390 -0.0284
  417BOLB   C2D10006  22.260  38.028  26.596  0.0119  0.2717 -0.1927
  417BOLB   C3D10007  22.559  37.986  26.299 -0.5207  0.2969  0.1709
  417BOLB   C4D10008  22.684  37.675  25.991 -0.0385 -0.0500  0.3258
  418BOLB   NC110009  28.924  22.990  17.788 -0.0018  0.2937  0.1179
  418BOLB   PO110010  28.968  22.531  17.719 -0.2882  0.0875 -0.0721
  418BOLB   GL110011  29.057  22.109  17.669  0.1789  0.3340  0.2866
  418BOLB   GL210012  28.825  21.843  17.573 -0.2957 -0.1070  0.1099
  418BOLB   C1A10013  29.213  21.704  17.354 -0.0196 -0.2474  0.2746
  418BOLB   C2A10014  29.237  21.602  16.982  0.0346 -0.0637 -0.0678
  418BOLB   C3A10015  29.409  21.307  16.841 -0.3199  0.0548  0.0802
  418BOLB   C4A10016  29.575  20.963  16.861 -0.1849 -0.0640  0.1760
  418BOLB   C1B10017  28.832  21.407  17.304  0.2227  0.0012 -0.1668
  418BOLB   C2B10018  28.897  21.162  16.982  0.2409 -0.1211 -0.0415
  418BOLB   C3B10019  29.116  21.030  16.584 -0.0061 -0.0263 -0.0807
  418BOLB   C4B10020  28.895  20.818  16.334 -0.0408  0.1364  0.0470
  418BOLB   NC210021  30.036  18.844  15.674  0.1907 -0.0924  0.2211
  418BOLB   PO210022  30.345  19.138  15.507 -0.2764 -0.0241  0.1422
  418BOLB   GL310023  30.343  19.582  15.693 -0.0209 -0.0200  0.3800
  418BOLB   GL410024  30.054  19.705  15.409 -0.1373  0.4222 -0.0522
  418BOLB   C1C10025  30.270  19.950  15.909 -0.1377  0.1024  0.2444
  418BOLB   C2C10026  30.278  20.308  16.119 -0.0457  0.1081 -0.3351
  418BOLB   C3C10027  30.138  20.524  16.469  0.1414 -0.2666 -0.1946
  418BOLB   C4C10028  29.947  20.829  16.625 -0.2574 -0.3468  0.1534
  418BOLB   C1D10029  29.821  19.983  15.771 -0.0389  0.3022 -0.3516
  418BOLB   C2D10030  29.474  20.177  15.969  0.1710  0.1438  0.2296
  418BOLB   C3D10031  29.080  20.208  16.118 -0.0846  0.0635 -0.0842
  418BOLB   C4D10032  28.754  20.338  16.312  0.0513  0.3827  0.3221
  419BOLB   NC110033  25.381  30.484  13.798  0.0745 -0.2268 -0.0820
  419BOLB   PO110034  25.744  30.788  13.794  0.2578  0.1107  0.0822
  419BOLB   GL110035  25.604  30.689  13.338 -0.1357 -0.1412 -0.0987
  419BOLB   GL210036  25.573  30.954  13.181 -0.0664 -0.0118 -0.2345
  419BOLB   C1A10037  25.641  30.387  12.954 -0.1843  0.0281 -0.2350
  419BOLB   C2A10038  25.705  30.402  12.533 -0.0424 -0.3357  0.2469
  419BOLB   C3A10039  25.774  30.475  12.118 -0.0222 -0.2235  0.2395
  419BOLB   C4A10040  25.675  30.386  11.671 -0.1325  0.3457  0.0150
  419BOLB   C1B10041  25.662  30.941  12.769 -0.1574 -0.1264 -0.6068
  419BOLB   C2B10042  25.812  30.922  12.329  0.1824  0.2708 -0.2677
  419BOLB   C3B10043  25.533  31.256  12.239  0.0191  0.0111  0.0230
  419BOLB   C4B10044  25.223  31.498  12.111 -0.0586 -0.1464  0.3536
  419BOLB   NC210045  24.176  29.314   9.917 -0.0234  0.0757  0.0715
  419BOLB   PO210046  24.544  29.490   9.786 -0.1267 -0.1960 -0.0477
  419BOLB   GL310047  24.904  29.595  10.185 -0.3607 -0.0903  0.0991
  419BOLB   GL410048  25.214  29.416  10.128 -0.2622 -0.1452 -0.1289
  419BOLB   C1C10049  24.982  29.728  10.572  0.0769  0.0795  0.2430
  419BOLB   C2C10050  25.126  29.959  10.792  0.0555 -0.0788  0.2303
  419BOLB   C3C10051  25.469  30.232  10.968  0.2081 -0.0690  0.0489
  419BOLB   C4C10052  25.466  30.216  11.381 -0.0339 -0.0128 -0.0410
  419BOLB   C1D10053  25.092  29.219  10.452 -0.0806  0.1883 -0.0649
  419BOLB   C2D10054  24.921  29.352  10.925 -0.0138 -0.1010 -0.1388
  419BOLB   C3D10055  24.783  29.310  11.275  0.3876 -0.0891  0.1056
  419BOLB   C4D10056  24.723  29.143  11.795 -0.0565  0.0577  0.2841
  420BOLB   NC110057  33.271  29.499  15.937 -0.1676  0.0362  0.1896
  420BOLB   PO110058  33.101  29.390  15.529  0.1339  0.0062 -0.2363
  420BOLB   GL110059  33.018  29.463  15.096  0.0735 -0.2911 -0.3164
  420BOLB   GL210060  33.024  29.737  14.874 -0.0829 -0.1435 -0.2452
  420BOLB   C1A10061  33.278  29.284  14.606  0.3907  0.2464  0.0210
  420BOLB   C2A10062  33.459  29.312  14.265  0.2022 -0.0414  0.0221
  420BOLB   C3A10063  33.826  29.351  14.067 -0.1237  0.2552 -0.3986
  420BOLB   C4A10064  34.207  29.413  13.934  0.1081  0.1054 -0.0115
  420BOLB   C1B10065  33.098  29.868  14.406 -0.0450 -0.0634  0.0457
  420BOLB   C2B10066  33.419  29.949  14.195  0.1185  0.2693  0.0131
  420BOLB   C3B10067  33.512  29.774  13.801  0.1735  0.0364  0.2325
  420BOLB   C4B10068  33.519  29.357  13.722 -0.1742  0.3683 -0.1952
  420BOLB   NC210069  34.931  28.852  12.093 -0.0272 -0.0739 -0.1293
  420BOLB   PO210070  35.375  28.923  12.079 -0.0018  0.0930  0.0011
  420BOLB   GL310071  35.190  29.199  12.354 -0.3528 -0.0434  0.2670
  420BOLB   GL410072  34.949  29.359  12.281  0.1899 -0.1138  0.1709
  420BOLB   C1C10073  35.203  29.146  12.737  0.2091  0.0069 -0.2581
  420BOLB   C2C10074  35.175  29.089  13.230  0.3366  0.1600 -0.0146
  420BOLB   C3C10075  34.882  29.270  13.634 -0.4381 -0.2133  0.0724
  420BOLB   C4C10076  34.588  29.423  13.956 -0.3427  0.0372 -0.1785
  420BOLB   C1D10077  34.566  29.532  12.326 -0.1953 -0.2353 -0.2566
  420BOLB   C2D10078  34.222  29.180  12.492  0.0433 -0.1791  0.2032
  420BOLB   C3D10079  34.038  29.145  12.927 -0.0049 -0.2386  0.2092
  420BOLB   C4D10080  33.802  29.365  13.188  0.1702 -0.1631  0.1624
  421BOLB   NC110081  35.765  30.557  19.444 -0.0958  0.3339  0.1684
  421BOLB   PO110082  35.985  30.917  19.448 -0.1321  0.0250 -0.0220
  421BOLB   GL110083  36.336  31.126  19.333  0.1870 -0.0484  0.3281
  421BOLB   GL210084  36.274  31.286  19.075 -0.1059 -0.3428  0.0726
  421BOLB   C1A10085  36.750  31.023  18.965 -0.0151  0.0438  0.0941
  421BOLB   C2A10086  37.168  31.297  18.818 -0.1652  0.0229 -0.0134
  421BOLB   C3A10087  37.397  31.599  18.557  0.0879 -0.1375  0.2157
  421BOLB   C4A10088  37.494  32.049  18.523 -0.1799  0.1893 -0.2779
  421BOLB   C1B10089  36.514  31.446  18.866 -0.1648 -0.4432  0.2123
  421BOLB   C2B10090  36.846  31.732  18.743 -0.1445  0.2181 -0.0949
  421BOLB   C3B10091  36.986  31.972  18.405 -0.0921  0.2254 -0.1248
  421BOLB   C4B10092  36.956  32.235  17.962  0.0804  0.2905 -0.0979
  421BOLB   NC210093  39.753  33.422  19.193 -0.1346  0.2594  0.1516
  421BOLB   PO210094  39.564  32.975  19.215 -0.0165  0.1723 -0.2545
  421BOLB   GL310095  39.158  33.007  19.127  0.2368 -0.0196  0.1684
  421BOLB   GL410096  38.923  32.853  19.296  0.0681  0.1196  0.2190
  421BOLB   C1C10097  38.659  33.115  18.972 -0.0140  0.0385 -0.2878
  421BOLB   C2C10098  38.276  32.878  18.916  0.1570  0.1046  0.0402
  421BOLB   C3C10099  37.834  32.768  18.678  0.2267  0.5488  0.0658
  421BOLB   C4C10100  37.713  32.320  18.462 -0.0555  0.3332  0.1103
  421BOLB   C1D10101  38.494  32.863  19.350  0.0406 -0.1517  0.0477
  421BOLB   C2D10102  38.195  32.803  19.675  0.0603  0.1354 -0.1140
  421BOLB   C3D10103  37.854  32.973  19.759  0.1938  0.1620 -0.0445
  421BOLB   C4D10104  37.561  33.189  19.496  0.0399 -0.1579 -0.0698
  422BOLB   NC110105  26.438  23.503  16.533  0.0543  0.1462  0.1681
  422BOLB   PO110106  26.638  23.291  16.897 -0.1220 -0.2018  0.0341
  422BOLB   GL110107  26.674  23.037  16.478 -0.3116 -0.1531 -0.1831
  422BOLB   GL210108  27.037  22.996  16.297 -0.1682 -0.1899  0.0176
  422BOLB   C1A10109  26.486  22.897  16.111  0.0186 -0.2677 -0.1582
  422BOLB   C2A10110  26.502  22.677  15.752 -0.1516  0.1849 -0.0978
  422BOLB   C3A10111  26.457  22.309  15.433 -0.2764 -0.2623  0.2760
  422BOLB   C4A10112  26.552  21.974  15.111  0.2026  0.1292 -0.5653
  422BOLB   C1B10113  26.931  22.562  16.039 -0.0447  0.2190 -0.0694
  422BOLB   C2B10114  26.845  22.190  15.827 -0.0258 -0.2246  0.2953
  422BOLB   C3B10115  26.864  21.806  15.525  0.0397  0.3381  0.1353
  422BOLB   C4B10116  26.986  21.629  15.049  0.0759  0.0093  0.1481
  422BOLB   NC210117  27.691  21.036  12.737 -0.1957  0.2268  0.2347
  422BOLB   PO210118  27.297  21.334  12.735 -0.2551 -0.1748  0.2683
  422BOLB   GL310119  27.133  21.417  13.173  0.0996  0.1214  0.0821
  422BOLB   GL410120  26.720  21.437  13.247  0.0663  0.1977  0.2238
  422BOLB   C1C10121  27.021  21.440  13.627 -0.0163 -0.0684  0.1175
  422BOLB   C2C10122  26.863  21.507  14.013  0.2177  0.4089 -0.2215
  422BOLB   C3C10123  26.628  21.750  14.308  0.0878  0.0704 -0.2484
  422BOLB   C4C10124  26.623  21.818  14.747  0.1937 -0.0331  0.2811
  422BOLB   C1D10125  26.560  21.297  13.605 -0.3721 -0.1267 -0.1801
  422BOLB   C2D10126  26.387  21.469  13.971 -0.1301  0.1565  0.1911
  422BOLB   C3D10127  26.141  21.807  14.180 -0.0198  0.1341  0.0380
  422BOLB   C4D10128  26.069  22.143  14.068  0.1024 -0.0386 -0.1282
  423BOLB   NC110129  29.413  25.647  14.691 -0.2154 -0.1516  0.0792
  423BOLB   PO110130  29.793  25.720  14.665 -0.1592 -0.1810  0.1907
  423BOLB   GL110131  29.961  25.450  14.449 -0.0029  0.1565  0.1041
  423BOLB   GL210132  30.304  25.443  14.424  0.1876 -0.2043  0.2652
  423BOLB   C1A10133  29.969  25.071  14.246  0.1517  0.2549  0.0978
  423BOLB   C2A10134  30.177  24.840  13.991  0.3985 -0.0865  0.3192
  423BOLB   C3A10135  30.247  24.494  13.649  0.0903 -0.0529  0.1831
  423BOLB   C4A10136  30.037  24.379  13.307  0.0533  0.1582 -0.0657
  423BOLB   C1B10137  30.550  25.240  13.980 -0.1939 -0.2475 -0.0176
  423BOLB   C2B10138  30.732  25.000  13.618  0.0930 -0.1842 -0.1688
  423BOLB   C3B10139  30.770  24.592  13.368 -0.1904  0.1753 -0.0679
  423BOLB   C4B10140  30.733  24.194  13.073  0.1099  0.0574  0.0468
  423BOLB   NC210141  31.905  23.165  12.010  0.0033 -0.0042 -0.0658
  423BOLB   PO210142  31.512  22.979  12.348  0.1941 -0.0740  0.3247
  423BOLB   GL310143  31.287  23.199  12.483 -0.1832  0.2034 -0.2001
  423BOLB   GL410144  30.921  23.150  12.356  0.0629  0.0993 -0.0853
  423BOLB   C1C10145  31.092  23.504  12.712  0.0057  0.0047 -0.0227
  423BOLB   C2C10146  30.673  23.831  12.684 -0.2492  0.4482 -0.1829
  423BOLB   C3C10147  30.309  23.888  12.752  0.3043  0.2879 -0.1452
  423BOLB   C4C10148  30.119  24.096  13.113 -0.1519 -0.0820  0.1833
  423BOLB   C1D10149  30.821  23.536  12.263  0.0429 -0.2817  0.3733
  423BOLB   C2D10150  31.049  23.946  12.403 -0.1640  0.0232  0.0148
  423BOLB   C3D10151  31.074  24.165  12.700 -0.2736 -0.0824  0.0723
  423BOLB   C4D10152  31.134  24.514  13.056  0.2399  0.0801 -0.2377
  424BOLB   NC110153  31.042  22.014  24.070 -0.1084 -0.2700  0.1210
  424BOLB   PO110154  30.961  22.431  24.219  0.0090 -0.0300 -0.0047
  424BOLB   GL110155  31.168  22.153  24.532 -0.1403  0.0296  0.0555
  424BOLB   GL210156  31.340  21.915  24.491  0.1753  0.0893  0.0367
  424BOLB   C1A10157  31.027  21.789  24.879  0.0451 -0.1306  0.3491
  424BOLB   C2A10158  31.011  21.438  25.059 -0.1067 -0.1187 -0.3112
  424BOLB   C3A10159  31.205  21.154  25.403 -0.0169  0.1193  0.1872
  424BOLB   C4A10160  31.486  20.890  25.519 -0.1644  0.2427 -0.0241
  424BOLB   C1B10161  31.347  21.469  24.641 -0.0471 -0.0120  0.1084
  424BOLB   C2B10162  31.390  21.029  24.492 -0.1427  0.0190  0.1679
  424BOLB   C3B10163  31.341  20.562  24.632  0.3519 -0.1689  0.2251
  424BOLB   C4B10164  30.981  20.379  24.957  0.0558 -0.1009 -0.0138
  424BOLB   NC210165  31.754  18.967  26.661  0.0651  0.1625 -0.1245
  424BOLB   PO210166  31.481  18.844  26.290  0.0977  0.2694 -0.0594
  424BOLB   GL310167  31.375  19.316  26.212  0.2370  0.3395 -0.2284
  424BOLB   GL410168  31.095  19.330  26.368  0.3398 -0.0814  0.1655
  424BOLB   C1C10169  31.313  19.758  25.965 -0.0369  0.2209  0.2315
  424BOLB   C2C10170  31.069  20.073  25.920  0.2808  0.0787 -0.2850
  424BOLB   C3C10171  31.045  20.516  25.955 -0.2111 -0.0913  0.1325
  424BOLB   C4C10172  31.313  20.769  25.850 -0.0271  0.0457  0.1846
  424BOLB   C1D10173  31.024  19.773  26.453 -0.0403  0.3846  0.1187
  424BOLB   C2D10174  31.026  20.131  26.475 -0.1076 -0.3409 -0.0102
  424BOLB   C3D10175  31.409  20.258  26.714 -0.3675  0.1212 -0.0445
  424BOLB   C4D10176  31.876  20.462   0.003 -0.4000 -0.0601 -0.0146
  425BOLB   NC110177  30.446  34.172  14.943  0.3021  0.0891 -0.2754
  425BOLB   PO110178  30.416  34.392  15.294  0.2693  0.0254 -0.1924
  425BOLB   GL110179  30.462  34.723  14.914 -0.1442 -0.2552  0.1646
  425BOLB   GL210180  30.222  34.996  15.005 -0.1007  0.0494 -0.0219
  425BOLB   C1A10181  30.493  34.915  14.462 -0.0984  0.2803 -0.2125
  425BOLB   C2A10182  30.573  35.312  14.258 -0.0319  0.0264 -0.3293
  425BOLB   C3A10183  30.721  35.690  14.195  0.0469  0.0618  0.2148
  425BOLB   C4A10184  30.986  35.944  13.925 -0.4156  0.0847  0.0340
  425BOLB   C1B10185  30.302  35.371  14.785  0.1276  0.1095 -0.0986
  425BOLB   C2B10186  30.156  35.559  14.363 -0.0153 -0.0104 -0.0342
  425BOLB   C3B10187  30.008  35.919  14.188 -0.0417 -0.3465  0.0773
  425BOLB   C4B10188  30.022  36.218  13.945 -0.0612  0.0541  0.0021
  425BOLB   NC210189  32.683  36.755  12.918 -0.3288  0.2249 -0.0849
  425BOLB   PO210190  32.646  37.201  12.934 -0.0075 -0.2424 -0.1730
  425BOLB   GL310191  32.618  36.929  13.348 -0.0344 -0.0487 -0.3852
  425BOLB   GL410192  32.760  36.963  13.615 -0.3803 -0.0362 -0.2194
  425BOLB   C1C10193  32.359  36.561  13.545  0.1738 -0.4566  0.0892
  425BOLB   C2C10194  32.020  36.290  13.656  0.2392  0.2515 -0.0490
  425BOLB   C3C10195  31.647  36.162  13.804  0.0683 -0.0483  0.1100
  425BOLB   C4C10196  31.337  35.996  13.765 -0.1763  0.1097  0.1058
  425BOLB   C1D10197  32.708  36.826  13.950 -0.0035 -0.1521  0.1998
  425BOLB   C2D10198  32.534  36.676  14.283  0.0238  0.1714  0.0789
  425BOLB   C3D10199  32.650  36.383  14.576  0.0520  0.0324 -0.0674
  425BOLB   C4D10200  32.484  36.279  15.062  0.1249  0.0474 -0.3301
  426BOLB   NC110201  26.731  21.996  19.256 -0.1690  0.0420  0.0477
  426BOLB   PO110202  26.887  21.610  19.268  0.2842  0.2224 -0.0820
  426BOLB   GL110203  27.199  21.166  19.313 -0.2586  0.0072 -0.1298
  426BOLB   GL210204  27.265  20.981  19.085  0.1379  0.2066 -0.2499
  426BOLB   C1A10205  27.538  20.868  19.457 -0.0445 -0.0528  0.1243
  426BOLB   C2A10206  27.783  20.450  19.413  0.1042 -0.3518  0.2451
  426BOLB   C3A10207  27.965  20.010  19.338  0.0342 -0.1791  0.1345
  426BOLB   C4A10208  28.101  19.748  18.997 -0.0082  0.0900  0.1151
  426BOLB   C1B10209  27.212  20.526  19.208 -0.1908 -0.2558  0.1069
  426BOLB   C2B10210  26.975  20.161  19.150 -0.2120  0.3163  0.2461
  426BOLB   C3B10211  27.176  19.751  19.137  0.0537  0.3022  0.1030
  426BOLB   C4B10212  27.560  19.706  19.006 -0.1711  0.1511 -0.2081
  426BOLB   NC210213  28.421  17.590  19.235  0.0185  0.0129 -0.1605
  426BOLB   PO210214  28.390  17.569  18.757  0.0365  0.1216  0.0249
  426BOLB   GL310215  28.123  17.892  18.904 -0.0353 -0.2753 -0.0056
  426BOLB   GL410216  28.048  17.941  19.258 -0.0349 -0.1083  0.2386
  426BOLB   C1C10217  28.123  18.350  18.855  0.2675 -0.1633  0.2938
  426BOLB   C2C10218  27.958  18.703  19.037 -0.4623 -0.1702  0.0120
  426BOLB   C3C10219  27.944  19.074  18.882 -0.0007  0.1081  0.2138
  426BOLB   C4C10220  27.947  19.425  18.797 -0.0255  0.0802 -0.0960
  426BOLB   C1D10221  27.843  18.300  19.352  0.0734 -0.0036 -0.0511
  426BOLB   C2D10222  27.678  18.649  19.558  0.1555 -0.1583  0.4205
  426BOLB   C3D10223  27.648  18.991  19.487 -0.2880  0.0638  0.2884
  426BOLB   C4D10224  27.426  19.266  19.176  0.0697 -0.2000  0.0685
  427BOLB   NC110225  32.086  35.842  23.838 -0.0916 -0.2343 -0.1369
  427BOLB   PO110226  32.180  35.940  24.224  0.0243  0.4035 -0.2628
  427BOLB   GL110227  32.428  36.372  24.292 -0.3339 -0.0738 -0.0008
  427BOLB   GL210228  32.616  36.405  24.542  0.1744  0.4116 -0.0150
  427BOLB   C1A10229  32.483  36.764  24.169  0.0416 -0.1334  0.1993
  427BOLB   C2A10230  32.728  37.122  24.335  0.1025 -0.0801  0.0322
  427BOLB   C3A10231  32.613  37.539  24.403 -0.0346 -0.3271 -0.0345
  427BOLB   C4A10232  32.491  37.935  24.323 -0.1114  0.3415 -0.0554
  427BOLB   C1B10233  32.816  36.682  24.699  0.0105 -0.0057  0.0919
  427BOLB   C2B10234  33.093  36.960  24.732  0.0903 -0.1238  0.0205
  427BOLB   C3B10235  33.054  37.398  24.663  0.2968  0.3144  0.1973
  427BOLB   C4B10236  33.207  37.742  24.683 -0.0979 -0.0648  0.0546
  427BOLB   NC210237  34.415  40.262  24.690 -0.2797  0.0110 -0.2866
  427BOLB   PO210238  34.150  40.024  24.369  0.0484 -0.1983  0.0191
  427BOLB   GL310239  33.690  39.730  24.360 -0.1068 -0.0725 -0.2012
  427BOLB   GL410240  33.682  39.512  24.046 -0.2632 -0.1730 -0.1816
  427BOLB   C1C10241  33.460  39.299  24.472 -0.4137 -0.1171  0.0760
  427BOLB   C2C10242  33.298  38.983  24.478  0.1621  0.2564  0.1875
  427BOLB   C3C10243  33.068  38.611  24.394 -0.1489  0.0858 -0.0161
  427BOLB   C4C10244  32.637  38.442  24.422 -0.4067  0.1025 -0.1381
  427BOLB   C1D10245  33.877  39.129  24.199 -0.3046  0.3232 -0.0779
  427BOLB   C2D10246  33.866  38.872  24.616  0.0587  0.3122 -0.0475
  427BOLB   C3D10247  33.510  38.640  24.805  0.1146  0.3260 -0.1661
  427BOLB   C4D10248  33.390  38.181  24.769 -0.1365 -0.1462  0.0320
  428BOLB   NC110249  18.578  23.097  15.217 -0.0970 -0.1304 -0.0619
  428BOLB   PO110250  18.798  23.597  15.338 -0.0500  0.0251 -0.2232
  428BOLB   GL110251  18.953  23.622  15.686  0.2078 -0.0702  0.1022
  428BOLB   GL210252  18.712  23.777  15.884 -0.0755 -0.2313  0.0356
  428BOLB   C1A10253  19.277  23.449  15.958 -0.2228  0.0359 -0.1766
  428BOLB   C2A10254  19.322  23.381  16.380 -0.0198  0.1424 -0.1075
  428BOLB   C3A10255  18.974  23.444  16.687 -0.0246  0.2156  0.3219
  428BOLB   C4A10256  18.578  23.452  16.633  0.1284  0.2896  0.0802
  428BOLB   C1B10257  19.046  24.059  15.921 -0.0403  0.3114  0.0936
  428BOLB   C2B10258  19.362  24.302  15.890  0.0854 -0.0383  0.2437
  428BOLB   C3B10259  19.757  24.285  16.129  0.4080  0.0024  0.0607
  428BOLB   C4B10260  20.122  24.333  16.071  0.0717  0.0942  0.0068
  428BOLB   NC210261  16.711  24.988  16.125 -0.1649  0.0006 -0.2001
  428BOLB   PO210262  16.814  25.015  15.697  0.0427 -0.0223  0.4895
  428BOLB   GL310263  17.198  24.833  16.091 -0.1125  0.4527 -0.0499
  428BOLB   GL410264  17.052  24.908  16.506 -0.0023  0.2997  0.0344
  428BOLB   C1C10265  17.544  24.793  16.333 -0.1324  0.1209 -0.0254
  428BOLB   C2C10266  17.739  24.424  16.525  0.0832 -0.2179  0.1567
  428BOLB   C3C10267  17.848  23.949  16.605  0.2617 -0.0808  0.2361
  428BOLB   C4C10268  18.148  23.648  16.824 -0.4880 -0.0661 -0.1743
  428BOLB   C1D10269  17.337  25.256  16.837 -0.0991 -0.1510  0.0547
  428BOLB   C2D10270  17.683  25.305  17.183 -0.1870 -0.1437  0.2261
  428BOLB   C3D10271  18.063  25.093  17.263 -0.0530  0.2612 -0.0101
  428BOLB   C4D10272  18.418  24.987  17.527  0.1467 -0.0101  0.1573
  429BOLB   NC110273  26.118  24.288  16.705  0.1464 -0.1179  0.0561
  429BOLB   PO110274  26.326  24.057  16.421  0.4367  0.3397  0.2620
  429BOLB   GL110275  26.428  23.806  16.028 -0.2712  0.3329  0.0544
  429BOLB   GL210276  26.407  23.410  16.061  0.2411  0.0434 -0.1610
  429BOLB   C1A10277  26.232  23.777  15.636  0.1721  0.1100 -0.0216
  429BOLB   C2A10278  26.186  23.483  15.287 -0.2134 -0.0404  0.0372
  429BOLB   C3A10279  26.208  23.227  14.935  0.0999 -0.4294  0.3676
  429BOLB   C4A10280  26.336  22.897  14.707  0.0901  0.0789  0.0435
  429BOLB   C1B10281  26.275  23.073  15.665 -0.0335 -0.0976 -0.1849
  429BOLB   C2B10282  26.248  22.864  15.297  0.1529  0.3665 -0.4526
  429BOLB   C3B10283  26.175  22.412  15.013 -0.3856  0.0516 -0.2397
  429BOLB   C4B10284  26.186  22.137  14.649 -0.0292 -0.0337  0.1634
  429BOLB   NC210285  25.214  21.533  13.038 -0.0499  0.1600  0.0154
  429BOLB   PO210286  25.535  21.215  13.209 -0.1844  0.0764 -0.0827
  429BOLB   GL310287  25.751  21.548  13.330 -0.1361 -0.0432  0.1063
  429BOLB   GL410288  25.469  21.626  13.490  0.0188 -0.1540  0.1810
  429BOLB   C1C10289  25.794  21.975  13.243  0.2616  0.0647 -0.0806
  429BOLB   C2C10290  26.086  22.203  13.497  0.0937 -0.3042  0.4040
  429BOLB   C3C10291  26.342  22.449  13.827  0.2022 -0.0531  0.1127
  429BOLB   C4C10292  26.316  22.580  14.278  0.1452 -0.0177 -0.1442
  429BOLB   C1D10293  25.221  21.997  13.807  0.0932 -0.0572  0.1579
  429BOLB   C2D10294  24.929  22.259  14.128 -0.1832 -0.1062 -0.2650
  429BOLB   C3D10295  24.634  22.483  14.254  0.3205  0.0655  0.1992
  429BOLB   C4D10296  24.248  22.620  14.341 -0.0062  0.1920 -0.1558
  430BOLB   NC110297  21.604  27.695  16.213  0.1348 -0.3577  0.1439
  430BOLB   PO110298  21.852  27.679  15.879 -0.1367  0.0268 -0.2129
  430BOLB   GL110299  21.446  27.667  15.726  0.0546 -0.1587 -0.1245
  430BOLB   GL210300  21.224  27.399  15.634  0.1197  0.4193 -0.2042
  430BOLB   C1A10301  21.208  27.870  15.367  0.1988 -0.0223 -0.0908
  430BOLB   C2A10302  20.951  27.762  14.938 -0.3360 -0.0332  0.1842
  430BOLB   C3A10303  20.803  27.510  14.668  0.0546  0.1858 -0.1490
  430BOLB   C4A10304  20.599  27.490  14.282 -0.0577  0.2651  0.3392
  430BOLB   C1B10305  20.861  27.190  15.748 -0.2073  0.0081 -0.0530
  430BOLB   C2B10306  20.447  27.224  15.653 -0.0011 -0.4598 -0.1549
  430BOLB   C3B10307  20.052  27.386  15.465 -0.4626 -0.2321 -0.0604
  430BOLB   C4B10308  19.634  27.406  15.265  0.1671 -0.1850  0.0958
  430BOLB   NC210309  19.937  28.977  12.198  0.3067 -0.1522 -0.1626
  430BOLB   PO210310  19.594  28.695  12.350  0.2902  0.4776 -0.0022
  430BOLB   GL310311  19.665  28.590  12.753 -0.0496 -0.1833  0.0903
  430BOLB   GL410312  20.017  28.680  12.678 -0.0018  0.1716  0.1911
  430BOLB   C1C10313  19.761  28.340  13.084 -0.1207 -0.1315  0.3714
  430BOLB   C2C10314  20.097  28.229  13.339  0.0763 -0.3802 -0.2314
  430BOLB   C3C10315  20.119  28.015  13.735 -0.1562  0.3547 -0.0670
  430BOLB   C4C10316  20.270  27.680  14.050  0.0911 -0.2823 -0.1204
  430BOLB   C1D10317  20.444  28.652  12.693 -0.0013  0.1595 -0.3566
  430BOLB   C2D10318  20.766  28.836  12.882 -0.2600 -0.0846  0.2807
  430BOLB   C3D10319  21.220  28.896  12.968  0.0678 -0.0917 -0.1912
  430BOLB   C4D10320  21.606  29.074  12.865 -0.1981  0.0189  0.1980
  431BOLB   NC110321  26.472  31.340   3.199  0.2582 -0.1351 -0.0143
  431BOLB   PO110322  26.189  31.028   3.319 -0.0432  0.1714  0.0090
  431BOLB   GL110323  26.044  31.011   3.701 -0.1483 -0.2658  0.0841
  431BOLB   GL210324  26.169  31.226   3.802 -0.1137 -0.0390 -0.0348
  431BOLB   C1A10325  25.883  30.854   4.109 -0.2133  0.3411 -0.0623
  431BOLB   C2A10326  26.010  30.897   4.508  0.1271  0.2490 -0.1057
  431BOLB   C3A10327  25.981  31.166   4.800  0.3186 -0.0439  0.1464
  431BOLB   C4A10328  25.887  31.165   5.181  0.2165 -0.2547 -0.0984
  431BOLB   C1B10329  26.250  31.260   4.194 -0.2434  0.2651 -0.1121
  431BOLB   C2B10330  26.436  31.399   4.543 -0.0978 -0.4147  0.3524
  431BOLB   C3B10331  26.629  31.615   4.909 -0.2212  0.2468  0.2040
  431BOLB   C4B10332  26.981  31.734   5.031  0.1583  0.0867 -0.3208
  431BOLB   NC210333  24.618  30.848   7.351 -0.3612  0.0047  0.2042
  431BOLB   PO210334  24.808  31.261   7.181 -0.0028  0.1077  0.1108
  431BOLB   GL310335  24.787  31.289   6.747 -0.0821  0.1170  0.1177
  431BOLB   GL410336  24.821  31.005   6.756  0.1110  0.2745  0.2715
  431BOLB   C1C10337  24.724  31.402   6.348  0.4252  0.2662  0.0318
  431BOLB   C2C10338  25.010  31.422   5.966  0.0716  0.1344 -0.2396
  431BOLB   C3C10339  25.323  31.297   5.753 -0.2877  0.0688  0.3220
  431BOLB   C4C10340  25.569  31.173   5.409  0.2411 -0.1866  0.1029
  431BOLB   C1D10341  24.791  30.914   6.213  0.3563  0.1403 -0.2337
  431BOLB   C2D10342  24.728  31.043   5.757  0.1011  0.3636 -0.0443
  431BOLB   C3D10343  24.423  31.274   5.505 -0.0335  0.1698  0.1893
  431BOLB   C4D10344  24.018  31.448   5.587 -0.1293 -0.1033 -0.0431
  432BOLB   NC110345  21.186  34.094  20.783  0.0640 -0.0436 -0.1269
  432BOLB   PO110346  21.307  34.465  20.496 -0.2809  0.2142 -0.0748
  432BOLB   GL110347  21.021  34.806  20.308 -0.2231 -0.0794 -0.0694
  432BOLB   GL210348  20.832  34.617  20.083 -0.2322  0.0057  0.1898
  432BOLB   C1A10349  20.790  35.184  20.137  0.1507  0.0476  0.1296
  432BOLB   C2A10350  20.553  35.431  19.941  0.0867  0.0286 -0.0394
  432BOLB   C3A10351  20.279  35.862  19.967  0.0659 -0.0825  0.2381
  432BOLB   C4A10352  20.435  36.281  19.936  0.0968  0.2775 -0.0086
  432BOLB   C1B10353  20.320  34.566  19.906  0.0653  0.0020 -0.2108
  432BOLB   C2B10354  20.022  34.806  19.755  0.1395 -0.0330  0.3533
  432BOLB   C3B10355  19.578  34.885  19.700  0.0776  0.3100  0.1991
  432BOLB   C4B10356  19.197  35.057  19.791 -0.2435  0.3142 -0.2056
  432BOLB   NC210357  19.312  38.911  20.554  0.3069  0.0848 -0.2515
  432BOLB   PO210358  19.306  38.594  20.232 -0.1098 -0.0779  0.0582
  432BOLB   GL310359  19.415  38.184  20.226 -0.0589 -0.0995 -0.1472
  432BOLB   GL410360  19.380  38.085  19.917 -0.1603 -0.1861 -0.0799
  432BOLB   C1C10361  19.690  37.799  20.201  0.0539  0.1150 -0.1271
  432BOLB   C2C10362  19.866  37.358  20.222 -0.0983 -0.0848 -0.0829
  432BOLB   C3C10363  20.119  37.049  20.026  0.1431 -0.0110  0.0887
  432BOLB   C4C10364  20.382  36.765  20.006 -0.0274  0.1143 -0.2981
  432BOLB   C1D10365  19.663  37.790  19.655 -0.1694 -0.1028  0.1385
  432BOLB   C2D10366  20.052  37.478  19.637  0.2324 -0.3615  0.3599
  432BOLB   C3D10367  20.340  37.096  19.531 -0.2740 -0.0560  0.0135
  432BOLB   C4D10368  20.589  36.893  19.217 -0.1563  0.0137 -0.3707
  433BOLB   NC110369  23.295  23.952  17.232  0.3336 -0.1952  0.1084
  433BOLB   PO110370  23.783  23.854  17.207  0.0511 -0.0350  0.1564
  433BOLB   GL110371  23.600  23.501  17.058 -0.3342 -0.0841  0.0043
  433BOLB   GL210372  23.632  23.213  17.242 -0.3339  0.4293 -0.1478
  433BOLB   C1A10373  23.267  23.457  16.766  0.1552 -0.0560  0.0541
  433BOLB   C2A10374  23.100  23.521  16.339  0.0079  0.2794 -0.3579
  433BOLB   C3A10375  22.750  23.476  16.115 -0.3370 -0.0730  0.2809
  433BOLB   C4A10376  22.374  23.355  15.991  0.1364  0.0770  0.1316
  433BOLB   C1B10377  23.190  22.936  17.170 -0.0272  0.2508 -0.1417
  433BOLB   C2B10378  22.810  22.809  17.049  0.0246 -0.1637 -0.1479
  433BOLB   C3B10379  22.718  22.623  16.614 -0.1310 -0.0423  0.0613
  433BOLB   C4B10380  22.715  22.522  16.169 -0.1104  0.0372  0.2683
  433BOLB   NC210381  21.162  21.772  14.716 -0.0022  0.2683  0.1917
  433BOLB   PO210382  21.276  22.023  14.502  0.2218 -0.1403  0.3331
  433BOLB   GL310383  21.550  22.261  14.803 -0.2403  0.1912  0.2955
  433BOLB   GL410384  21.578  22.181  15.160 -0.0972  0.0532 -0.0391
  433BOLB   C1C10385  21.817  22.526  14.922  0.1694  0.2347  0.2468
  433BOLB   C2C10386  22.092  22.624  15.172  0.1562 -0.0645 -0.0864
  433BOLB   C3C10387  22.294  22.750  15.480 -0.0777  0.1461  0.0186
  433BOLB   C4C10388  22.278  23.119  15.735  0.3072 -0.1036  0.1883
  433BOLB   C1D10389  21.365  22.548  15.408  0.1697 -0.1108  0.0160
  433BOLB   C2D10390  21.636  22.881  15.457  0.1033  0.1666  0.2162
  433BOLB   C3D10391  21.763  23.371  15.323  0.0740 -0.2364 -0.1905
  433BOLB   C4D10392  21.615  23.775  15.423 -0.2911  0.1971  0.0428
  434BOLB   NC110393  28.571  21.639  19.429 -0.1997  0.1737  0.1552
  434BOLB   PO110394  28.254  21.495  19.770  0.2082 -0.1882 -0.1142
  434BOLB   GL110395  28.372  21.182  19.550 -0.1317  0.1492 -0.0788
  434BOLB   GL210396  28.455  21.084  19.229  0.3340  0.1124  0.5260
  434BOLB   C1A10397  28.648  20.787  19.562  0.1650  0.0169 -0.0484
  434BOLB   C2A10398  29.018  20.592  19.516  0.1437  0.3328  0.2610
  434BOLB   C3A10399  29.003  20.326  19.259  0.0757  0.0681  0.0368
  434BOLB   C4A10400  28.875  20.296  18.850 -0.0921  0.2166 -0.0159
  434BOLB   C1B10401  28.653  20.837  18.931 -0.2740  0.1829  0.2489
  434BOLB   C2B10402  28.537  20.484  18.585  0.1474 -0.0650 -0.0418
  434BOLB   C3B10403  28.248  20.152  18.394  0.4030 -0.1638  0.0631
  434BOLB   C4B10404  28.053  19.634  18.283  0.0233 -0.0320 -0.0682
  434BOLB   NC210405  29.074  17.888  18.027 -0.1642  0.1121 -0.1778
  434BOLB   PO210406  28.684  18.101  18.038 -0.2014  0.5140  0.2382
  434BOLB   GL310407  28.820  18.431  18.184 -0.0895  0.3686  0.0293
  434BOLB   GL410408  28.818  18.711  17.937  0.2044  0.1472  0.1355
  434BOLB   C1C10409  28.848  18.608  18.560 -0.1289 -0.0839 -0.4117
  434BOLB   C2C10410  28.884  19.118  18.697 -0.1678  0.1295  0.0855
  434BOLB   C3C10411  29.106  19.530  18.938 -0.0820 -0.3921  0.2256
  434BOLB   C4C10412  28.938  19.920  18.848 -0.1435  0.5029 -0.0141
  434BOLB   C1D10413  28.661  18.997  18.242  0.0308 -0.3451 -0.1531
  434BOLB   C2D10414  28.174  19.133  18.302 -0.3965  0.0258  0.1947
  434BOLB   C3D10415  27.864  18.807  18.506  0.0680 -0.0097  0.0992
  434BOLB   C4D10416  27.551  18.429  18.536 -0.1445 -0.1098  0.4020
  435BOLB   NC110417  20.275  31.868  25.299  0.1407 -0.2663  0.0589
  435BOLB   PO110418  20.502  31.672  25.637  0.0521 -0.2781 -0.4481
  435BOLB   GL110419  20.298  31.905  25.944  0.0648 -0.0058 -0.3405
  435BOLB   GL210420  20.509  32.212  26.077  0.0558 -0.1591 -0.0114
  435BOLB   C1A10421  19.966  32.183  26.093  0.2613 -0.3429 -0.2262
  435BOLB   C2A10422  19.455  32.294  26.132  0.1804 -0.1687 -0.2840
  435BOLB   C3A10423  19.143  32.581  25.876 -0.1995  0.0734  0.3925
  435BOLB   C4A10424  18.810  32.760  26.003 -0.1837 -0.1564  0.1222
  435BOLB   C1B10425  20.346  32.490  26.440 -0.3066  0.1567  0.1813
  435BOLB   C2B10426  20.278  32.378  26.923 -0.3103  0.0234 -0.0835
  435BOLB   C3B10427  20.192  32.459   0.424 -0.0876 -0.0176 -0.0972
  435BOLB   C4B10428  19.823  32.720   0.614 -0.2537  0.3565 -0.3091
  435BOLB   NC210429  16.549  34.025  26.005 -0.0024 -0.3166 -0.1262
  435BOLB   PO210430  16.890  34.172  25.946  0.0070  0.0100  0.0157
  435BOLB   GL310431  17.177  33.883  25.961  0.0609 -0.1871  0.0953
  435BOLB   GL410432  17.477  34.020  25.653  0.4441 -0.0709 -0.0122
  435BOLB   C1C10433  17.493  33.559  26.096 -0.2992 -0.0035 -0.1110
  435BOLB   C2C10434  17.786  33.352  26.405 -0.0158 -0.1835 -0.0366
  435BOLB   C3C10435  18.169  33.186  26.318 -0.1991  0.0363  0.1016
  435BOLB   C4C10436  18.526  33.114  25.973 -0.0332 -0.1969  0.1599
  435BOLB   C1D10437  17.415  33.567  25.524  0.3276 -0.0387 -0.3539
  435BOLB   C2D10438  17.246  33.413  25.190  0.0658  0.0828 -0.0466
  435BOLB   C3D10439  16.981  33.141  25.415 -0.0662 -0.3678 -0.1485
  435BOLB   C4D10440  17.092  33.343  25.845 -0.2670 -0.0203 -0.0035
  436BOLB   NC110441  29.222  21.761  20.130  0.1922  0.3367  0.0383
  436BOLB   PO110442  29.549  21.648  20.331 -0.1876 -0.2470 -0.2496
  436BOLB   GL110443  29.587  21.306  20.076 -0.1900  0.1042 -0.2989
  436BOLB   GL210444  29.295  21.210  20.182 -0.1021 -0.1741 -0.4357
  436BOLB   C1A10445  29.994  21.039  19.882  0.1636 -0.0418  0.2431
  436BOLB   C2A10446  29.993  20.668  19.545 -0.3714  0.0437  0.1227
  436BOLB   C3A10447  29.960  20.419  19.168 -0.0427 -0.1524  0.0909
  436BOLB   C4A10448  29.743  20.021  18.957  0.0105 -0.4597  0.0102
  436BOLB   C1B10449  29.187  20.850  19.971 -0.0251  0.0407 -0.1967
  436BOLB   C2B10450  29.425  20.495  19.869  0.2375 -0.0820  0.0682
  436BOLB   C3B10451  29.384  20.135  19.551  0.0106 -0.0717  0.0322
  436BOLB   C4B10452  29.245  19.845  19.253  0.1898  0.1448 -0.0768
  436BOLB   NC210453  29.271  17.694  19.138  0.0662 -0.2727  0.0389
  436BOLB   PO210454  29.366  17.637  18.737 -0.0689  0.0617 -0.0448
  436BOLB   GL310455  29.507  18.056  18.881  0.1738  0.2198  0.1419
  436BOLB   GL410456  29.203  18.192  18.985 -0.2420  0.0005 -0.2255
  436BOLB   C1C10457  29.624  18.507  18.970  0.0767  0.2059  0.2848
  436BOLB   C2C10458  29.457  18.898  19.183 -0.0184 -0.2116 -0.1286
  436BOLB   C3C10459  29.485  19.257  19.152  0.1882  0.0061  0.0140
  436BOLB   C4C10460  29.677  19.602  18.944  0.0523 -0.0072  0.0758
  436BOLB   C1D10461  29.039  18.619  19.029  0.2502  0.1696  0.2741
  436BOLB   C2D10462  28.996  19.129  19.181 -0.0931  0.1159 -0.0144
  436BOLB   C3D10463  28.956  19.476  19.447  0.0290 -0.0157 -0.3635
  436BOLB   C4D10464  28.978  19.398  19.935  0.0971  0.2209  0.0440
  437BOLB   NC110465  26.796  37.842  20.999 -0.2534 -0.1315 -0.1796
  437BOLB   PO110466  26.953  38.045  20.586  0.0009 -0.1777  0.3012
  437BOLB   GL110467  27.102  38.445  20.704  0.3160 -0.0307  0.1888
  437BOLB   GL210468  27.361  38.431  20.667 -0.1328  0.0211 -0.0809
  437BOLB   C1A10469  27.009  38.901  20.837  0.0970  0.0984  0.0266
  437BOLB   C2A10470  26.782  39.285  20.860  0.2496 -0.1873  0.1249
  437BOLB   C3A10471  26.542  39.332  20.574 -0.2434 -0.1178  0.3275
  437BOLB   C4A10472  26.302  39.612  20.732  0.2016  0.0002 -0.2995
  437BOLB   C1B10473  27.396  38.695  20.381 -0.2274  0.0936 -0.1582
  437BOLB   C2B10474  27.459  38.898  19.974  0.0377  0.1609 -0.1053
  437BOLB   C3B10475  27.868  39.145  19.879  0.2859 -0.3254  0.2241
  437BOLB   C4B10476  27.917  39.358  19.443  0.3989 -0.1847 -0.0982
  437BOLB   NC210477  26.109  41.903  21.454 -0.0981  0.0289  0.1712
  437BOLB   PO210478  26.054  41.891  20.972 -0.3383 -0.0157 -0.0599
  437BOLB   GL310479  26.144  41.507  20.796 -0.2706 -0.1227 -0.2516
  437BOLB   GL410480  26.381  41.420  20.823 -0.0437 -0.0091 -0.0441
  437BOLB   C1C10481  25.907  41.102  20.809 -0.0924  0.1680  0.1772
  437BOLB   C2C10482  25.593  40.736  20.923 -0.0241  0.0308 -0.1983
  437BOLB   C3C10483  25.597  40.282  20.924 -0.0570 -0.2427 -0.3745
  437BOLB   C4C10484  25.952  39.920  20.795  0.1123 -0.3447  0.1134
  437BOLB   C1D10485  26.488  40.989  20.963  0.1738 -0.0439  0.2187
  437BOLB   C2D10486  26.432  40.513  21.167 -0.1859 -0.2865  0.1177
  437BOLB   C3D10487  26.346  40.176  20.974 -0.2481 -0.3428 -0.0297
  437BOLB   C4D10488  26.427  40.066  20.557 -0.1922 -0.0884  0.2280
  438BOLB   NC110489  29.187  25.533  15.267  0.1267 -0.2141 -0.1400
  438BOLB   PO110490  29.247  25.123  15.070 -0.0467 -0.0375  0.2700
  438BOLB   GL110491  29.269  24.916  14.754 -0.0858 -0.0866  0.0155
  438BOLB   GL210492  28.968  24.954  14.659  0.1098 -0.2792  0.0419
  438BOLB   C1A10493  29.565  24.738  14.360 -0.0503 -0.2234 -0.2463
  438BOLB   C2A10494  29.742  24.547  13.947  0.1319  0.0648  0.0496
  438BOLB   C3A10495  29.870  24.104  13.770  0.0414  0.1331  0.0039
  438BOLB   C4A10496  29.949  23.798  13.433  0.1108  0.2612 -0.0093
  438BOLB   C1B10497  29.098  24.687  14.315 -0.2895 -0.0253  0.0316
  438BOLB   C2B10498  29.284  24.401  14.064  0.0767  0.0974 -0.2542
  438BOLB   C3B10499  29.364  24.000  13.737 -0.3130  0.2879  0.2696
  438BOLB   C4B10500  29.464  23.795  13.337  0.0641  0.1895 -0.0931
  438BOLB   NC210501  31.274  23.151  11.483  0.1931  0.0025  0.2940
  438BOLB   PO210502  30.958  22.924  11.564  0.0332 -0.0236  0.1259
  438BOLB   GL310503  30.616  23.306  11.541 -0.3169  0.0902 -0.0274
  438BOLB   GL410504  30.798  23.551  11.479  0.3239 -0.2011  0.1117
  438BOLB   C1C10505  30.313  23.405  11.850 -0.1266 -0.1859 -0.0497
  438BOLB   C2C10506  30.205  23.408  12.255 -0.1879  0.0370  0.1852
  438BOLB   C3C10507  30.225  23.311  12.722  0.0280 -0.2143  0.0242
  438BOLB   C4C10508  29.953  23.571  13.097  0.1626 -0.1797  0.2545
  438BOLB   C1D10509  30.595  23.839  11.788 -0.0837 -0.1606 -0.1847
  438BOLB   C2D10510  30.612  24.045  12.211  0.1635 -0.1041  0.0119
  438BOLB   C3D10511  30.439  24.267  12.502  0.1684 -0.0902  0.1061
  438BOLB   C4D10512  30.302  24.464  12.851 -0.0897 -0.1313 -0.0134
  439BOLB   NC110513  28.305  23.768  16.529  0.3450 -0.0497 -0.1176
  439BOLB   PO110514  28.195  23.685  16.080 -0.0693  0.0997 -0.0837
  439BOLB   GL110515  28.019  23.396  15.813  0.3244  0.1008  0.0014
  439BOLB   GL210516  27.679  23.350  15.959  0.2267  0.1802  0.0403
  439BOLB   C1A10517  28.056  23.313  15.318  0.1894  0.0862 -0.2337
  439BOLB   C2A10518  28.071  23.041  14.935  0.4693  0.1827 -0.0005
  439BOLB   C3A10519  28.202  22.900  14.550 -0.0494  0.2356 -0.0680
  439BOLB   C4A10520  28.439  22.789  14.213  0.1460 -0.0347  0.1742
  439BOLB   C1B10521  27.452  23.100  15.519  0.0644  0.3210 -0.2274
  439BOLB   C2B10522  27.680  22.825  15.195 -0.0314  0.0275 -0.1412
  439BOLB   C3B10523  27.948  22.582  14.896  0.4056  0.2328  0.0266
  439BOLB   C4B10524  28.381  22.568  14.929 -0.0690  0.1855  0.0312
  439BOLB   NC210525  28.375  22.376  11.782 -0.0530  0.2924  0.0135
  439BOLB   PO210526  28.839  22.332  11.839 -0.1557  0.1181  0.2029
  439BOLB   GL310527  28.714  22.426  12.209  0.4932 -0.1097 -0.1586
  439BOLB   GL410528  28.907  22.629  12.326  0.3456 -0.0467  0.0506
  439BOLB   C1C10529  28.626  22.318  12.620  0.4847 -0.2095  0.0655
  439BOLB   C2C10530  28.579  22.158  13.069  0.0291 -0.3200 -0.0849
  439BOLB   C3C10531  28.483  22.416  13.429 -0.1550 -0.2245 -0.2867
  439BOLB   C4C10532  28.532  22.690  13.798  0.1049  0.0388 -0.0929
  439BOLB   C1D10533  28.744  22.815  12.662 -0.3057 -0.2195 -0.4026
  439BOLB   C2D10534  28.823  22.574  13.081  0.0872  0.0318  0.2162
  439BOLB   C3D10535  28.931  22.609  13.512  0.2935 -0.1699 -0.1890
  439BOLB   C4D10536  28.944  22.949  13.802 -0.0049 -0.0587  0.0960
  440BOLB   NC110537  31.578  30.526  15.302 -0.0445  0.0118  0.2783
  440BOLB   PO110538  31.646  30.268  14.920  0.0798 -0.2414  0.0919
  440BOLB   GL110539  31.885  30.410  14.546  0.0620  0.1430  0.0796
  440BOLB   GL210540  32.159  30.201  14.527 -0.3260  0.1266 -0.2328
  440BOLB   C1A10541  32.132  30.518  14.119  0.1106 -0.0845 -0.0360
  440BOLB   C2A10542  32.303  30.619  13.705 -0.1506  0.0823  0.0576
  440BOLB   C3A10543  32.404  30.907  13.414  0.3615  0.1262 -0.1504
  440BOLB   C4A10544  32.605  31.060  13.071 -0.3071 -0.1080  0.0833
  440BOLB   C1B10545  32.300  29.998  14.191 -0.4211  0.1881 -0.2090
  440BOLB   C2B10546  32.529  30.054  13.753 -0.1343  0.2137  0.1369
  440BOLB   C3B10547  32.622  30.198  13.302  0.3453 -0.0275  0.1588
  440BOLB   C4B10548  32.426  30.548  13.096  0.0869 -0.1111  0.0348
  440BOLB   NC210549  34.023  31.174  11.335  0.1696 -0.1560 -0.1550
  440BOLB   PO210550  34.146  31.587  11.029 -0.3082 -0.0865  0.1693
  440BOLB   GL310551  33.762  31.571  11.426 -0.2060 -0.1755  0.0842
  440BOLB   GL410552  33.454  31.792  11.425 -0.1576 -0.0095 -0.0993
  440BOLB   C1C10553  33.645  31.491  11.812 -0.2550  0.2661  0.3479
  440BOLB   C2C10554  33.305  31.468  12.137  0.4057 -0.2709 -0.1139
  440BOLB   C3C10555  33.060  31.151  12.404 -0.3345  0.0708  0.0357
  440BOLB   C4C10556  32.716  30.954  12.661 -0.2573  0.2267 -0.1829
  440BOLB   C1D10557  33.309  31.857  11.792 -0.2948  0.1780  0.3202
  440BOLB   C2D10558  33.141  31.986  12.217 -0.1556 -0.0828 -0.0770
  440BOLB   C3D10559  33.092  31.647  12.582 -0.1226 -0.2403  0.1535
  440BOLB   C4D10560  32.901  31.436  12.874 -0.0427  0.4712  0.0008
  441BOLB   NC110561  26.126  30.825  13.508  0.0524 -0.2377  0.0336
  441BOLB   PO110562  26.223  31.181  13.583  0.0355 -0.0210  0.0540
  441BOLB   GL110563  26.030  31.159  13.141  0.0280  0.3937 -0.0800
  441BOLB   GL210564  26.272  31.038  12.978 -0.2350 -0.0508  0.3098
  441BOLB   C1A10565  25.773  31.445  12.811  0.0771 -0.1178 -0.0130
  441BOLB   C2A10566  25.689  31.737  12.470  0.2719 -0.1664 -0.3364
  441BOLB   C3A10567  25.710  31.694  11.977  0.1993  0.2620  0.2681
  441BOLB   C4A10568  25.326  31.789  11.739  0.0639  0.0880 -0.1294
  441BOLB   C1B10569  26.149  31.155  12.603 -0.3270 -0.1261 -0.1929
  441BOLB   C2B10570  26.031  31.347  12.280  0.3971 -0.2085  0.0101
  441BOLB   C3B10571  26.150  31.532  11.811  0.3944 -0.0858  0.2221
  441BOLB   C4B10572  26.274  31.548  11.405 -0.3629 -0.1038 -0.0991
  441BOLB   NC210573  23.777  31.447   9.820 -0.1097  0.1398 -0.1354
  441BOLB   PO210574  24.126  31.046   9.794 -0.0652  0.0337 -0.6132
  441BOLB   GL310575  24.224  30.956  10.287 -0.0437  0.3898  0.0728
  441BOLB   GL410576  24.004  30.638  10.197 -0.0941 -0.1185  0.1232
  441BOLB   C1C10577  24.326  31.052  10.630 -0.1218 -0.1218 -0.1898
  441BOLB   C2C10578  24.487  31.077  11.110  0.1697 -0.1087 -0.0295
  441BOLB   C3C10579  24.694  31.528  11.222 -0.0321  0.0902  0.0024
  441BOLB   C4C10580  25.112  31.685  11.373  0.1399 -0.2900  0.1377
  441BOLB   C1D10581  23.810  30.737  10.580 -0.1829  0.3888  0.0699
  441BOLB   C2D10582  23.961  30.898  11.038 -0.0023 -0.0968  0.2164
  441BOLB   C3D10583  24.131  30.979  11.444  0.2395  0.0775 -0.0297
  441BOLB   C4D10584  24.493  31.013  11.662  0.0329 -0.0803  0.1150
  442BOLB   NC110585  23.793  15.381  22.565  0.2532 -0.2073  0.1913
  442BOLB   PO110586  23.392  15.450  22.754 -0.0147  0.1524 -0.0413
  442BOLB   GL110587  23.400  15.966  22.623 -0.0466  0.0216  0.2792
  442BOLB   GL210588  23.197  16.224  22.830  0.1873 -0.0796  0.0912
  442BOLB   C1A10589  23.493  16.372  22.445 -0.2024  0.0579  0.2977
  442BOLB   C2A10590  23.726  16.696  22.433  0.3899  0.2480  0.1808
  442BOLB   C3A10591  23.955  17.119  22.374 -0.0454 -0.0352 -0.1471
  442BOLB   C4A10592  24.172  17.382  22.158  0.0343  0.2276  0.3712
  442BOLB   C1B10593  22.843  16.101  22.787 -0.3382  0.0489 -0.1984
  442BOLB   C2B10594  22.517  16.429  22.720 -0.0235 -0.2119 -0.1454
  442BOLB   C3B10595  22.139  16.409  22.929 -0.2273 -0.1484 -0.0340
  442BOLB   C4B10596  21.848  16.632  23.235  0.2265 -0.1034 -0.0890
  442BOLB   NC210597  24.839  15.352  23.352 -0.1253 -0.0354  0.0773
  442BOLB   PO210598  24.720  15.658  23.202  0.1469 -0.1640  0.0811
  442BOLB   GL310599  24.963  16.101  23.131 -0.2038 -0.1844  0.1335
  442BOLB   GL410600  25.114  16.172  23.457  0.4999 -0.0339  0.2530
  442BOLB   C1C10601  25.081  16.282  22.784 -0.0173  0.2147 -0.0091
  442BOLB   C2C10602  25.070  16.598  22.390 -0.1775 -0.2108 -0.0436
  442BOLB   C3C10603  24.866  17.000  22.210  0.2595  0.2798  0.0698
  442BOLB   C4C10604  24.651  17.350  22.011  0.1760  0.1560  0.0289
  442BOLB   C1D10605  24.729  16.442  23.567  0.0929 -0.1163 -0.1570
  442BOLB   C2D10606  24.387  16.687  23.399  0.0066  0.0305  0.0612
  442BOLB   C3D10607  24.213  17.100  23.503  0.1639  0.4431 -0.0936
  442BOLB   C4D10608  23.987  17.309  23.895  0.1675 -0.2911  0.0256
  443BOLB   NC110609  30.644  29.724   2.780  0.0093  0.0803 -0.0195
  443BOLB   PO110610  30.208  29.555   2.877 -0.1168  0.0979 -0.1041
  443BOLB   GL110611  30.235  29.580   3.288  0.0025  0.1500 -0.3344
  443BOLB   GL210612  30.487  29.892   3.320 -0.0807  0.1163 -0.0270
  443BOLB   C1A10613  30.220  29.688   3.796 -0.0410 -0.1352  0.0573
  443BOLB   C2A10614  30.340  29.667   4.270  0.0895  0.1205  0.0013
  443BOLB   C3A10615  30.120  29.966   4.490  0.0923  0.2331 -0.2287
  443BOLB   C4A10616  29.956  30.113   4.828 -0.1245 -0.0971 -0.0238
  443BOLB   C1B10617  30.754  29.493   3.460  0.2324 -0.0122 -0.1023
  443BOLB   C2B10618  31.015  29.241   3.696  0.2118 -0.3181  0.1499
  443BOLB   C3B10619  31.304  29.111   4.025  0.0157  0.1191  0.1121
  443BOLB   C4B10620  31.693  29.033   3.980 -0.0246  0.0863 -0.1684
  443BOLB   NC210621  29.270  29.006   6.930 -0.0431 -0.2155  0.1158
  443BOLB   PO210622  29.365  29.518   6.925  0.0098  0.0336  0.0909
  443BOLB   GL310623  29.424  29.841   6.623  0.0357 -0.0139  0.1393
  443BOLB   GL410624  29.777  29.823   6.685  0.2846  0.2044  0.3134
  443BOLB   C1C10625  29.525  30.113   6.316 -0.0246  0.2542  0.1917
  443BOLB   C2C10626  29.731  30.175   5.930 -0.0029  0.1488 -0.1961
  443BOLB   C3C10627  29.649  30.062   5.550  0.3619 -0.0429  0.2563
  443BOLB   C4C10628  29.817  30.020   5.189  0.3612  0.0902 -0.1006
  443BOLB   C1D10629  29.565  29.583   6.266 -0.0639  0.1071 -0.1029
  443BOLB   C2D10630  29.308  29.619   5.999  0.0698 -0.0849 -0.0968
  443BOLB   C3D10631  29.197  29.786   5.559 -0.1203  0.0825  0.3902
  443BOLB   C4D10632  29.288  30.061   5.151 -0.0619  0.1713 -0.1629
  444BOLB   NC110633  34.790  33.022  17.755 -0.0225 -0.0353 -0.0145
  444BOLB   PO110634  34.997  33.149  18.239 -0.3157 -0.0536  0.0753
  444BOLB   GL110635  35.267  33.367  17.959  0.1426  0.2195  0.3362
  444BOLB   GL210636  35.395  33.145  17.805  0.3144 -0.0008 -0.4647
  444BOLB   C1A10637  35.726  33.544  17.763 -0.2008 -0.1275 -0.0533
  444BOLB   C2A10638  36.021  33.562  17.407 -0.1672  0.1070  0.3066
  444BOLB   C3A10639  36.087  33.897  17.073 -0.0880 -0.0060  0.1243
  444BOLB   C4A10640  36.238  34.205  16.774 -0.2584 -0.0785  0.1792
  444BOLB   C1B10641  35.611  33.218  17.445 -0.4130  0.0279  0.1866
  444BOLB   C2B10642  35.659  33.306  17.067 -0.1958  0.2188  0.1770
  444BOLB   C3B10643  35.710  33.681  16.822 -0.2128  0.3255  0.1647
  444BOLB   C4B10644  35.796  34.035  16.686 -0.0643  0.0451  0.3433
  444BOLB   NC210645  37.553  34.264  14.777 -0.2149 -0.1764  0.0298
  444BOLB   PO210646  37.262  34.726  14.822  0.1067  0.1595  0.0601
  444BOLB   GL310647  36.888  34.729  15.205  0.0676 -0.1090  0.1735
  444BOLB   GL410648  36.770  34.555  15.007  0.2284 -0.0576 -0.0923
  444BOLB   C1C10649  36.806  34.746  15.555 -0.0201 -0.1289  0.3827
  444BOLB   C2C10650  36.585  34.963  15.882  0.0082  0.5821 -0.1070
  444BOLB   C3C10651  36.309  34.986  16.230 -0.0544  0.1129  0.2899
  444BOLB   C4C10652  36.293  34.618  16.580 -0.3371  0.1755 -0.3586
  444BOLB   C1D10653  36.653  34.234  15.288 -0.0540  0.1838  0.0291
  444BOLB   C2D10654  36.640  33.911  15.483 -0.0644  0.2993  0.1227
  444BOLB   C3D10655  36.313  33.787  15.665  0.2187 -0.0008 -0.5265
  444BOLB   C4D10656  36.171  33.861  16.042 -0.1916  0.2342  0.1227
  445BOLB   NC110657  21.672  34.130  25.125  0.2414  0.3008 -0.1699
  445BOLB   PO110658  21.449  33.744  25.151  0.0396  0.1697  0.1012
  445BOLB   GL110659  21.012  33.759  25.258 -0.1908  0.2148 -0.1392
  445BOLB   GL210660  20.975  34.095  25.154 -0.0518  0.0078 -0.1299
  445BOLB   C1A10661  20.575  33.780  25.315 -0.3403  0.4664 -0.1148
  445BOLB   C2A10662  20.228  33.665  25.319  0.2448 -0.5033  0.0799
  445BOLB   C3A10663  19.870  33.872  25.396 -0.0204 -0.3120  0.0637
  445BOLB   C4A10664  19.692  34.195  25.319 -0.0149 -0.0963  0.0210
  445BOLB   C1B10665  20.648  34.413  25.275 -0.1190 -0.0385  0.0509
  445BOLB   C2B10666  20.299  34.630  25.411 -0.2331 -0.2826 -0.1702
  445BOLB   C3B10667  20.200  34.753  25.704  0.2219  0.0059  0.3771
  445BOLB   C4B10668  20.315  34.794  26.114 -0.1172  0.1551 -0.0334
  445BOLB   NC210669  17.436  35.387  25.558  0.0683 -0.0088  0.3112
  445BOLB   PO210670  17.317  35.069  25.388 -0.0685  0.0131  0.2932
  445BOLB   GL310671  17.625  34.737  25.294  0.0735  0.0716 -0.1398
  445BOLB   GL410672  17.632  34.430  25.231  0.1533 -0.0820 -0.1852
  445BOLB   C1C10673  18.137  34.706  25.306 -0.0861 -0.1823  0.0447
  445BOLB   C2C10674  18.631  34.693  25.088 -0.2026  0.3118  0.1610
  445BOLB   C3C10675  19.056  34.798  25.267  0.2058 -0.3446 -0.0156
  445BOLB   C4C10676  19.515  34.542  25.242  0.0126 -0.3698  0.1590
  445BOLB   C1D10677  17.744  33.955  25.241  0.2061 -0.0498 -0.1417
  445BOLB   C2D10678  17.917  33.525  25.341 -0.2857  0.2765  0.1479
  445BOLB   C3D10679  18.242  33.220  25.435 -0.1636 -0.0461 -0.2054
  445BOLB   C4D10680  18.712  33.283  25.523 -0.1839  0.1280 -0.3739
  446BOLB   NC110681  33.363  35.526  18.992  0.0812 -0.0810  0.2019
  446BOLB   PO110682  33.627  35.134  19.015  0.2235  0.0401 -0.3516
  446BOLB   GL110683  33.914  35.275  18.745  0.1147 -0.0121  0.0717
  446BOLB   GL210684  34.110  35.484  18.885  0.1483 -0.3629 -0.1806
  446BOLB   C1A10685  34.255  35.251  18.414 -0.1843  0.0409 -0.3187
  446BOLB   C2A10686  34.649  35.462  18.315  0.0300  0.1848 -0.0316
  446BOLB   C3A10687  35.053  35.576  18.018 -0.1286  0.0204 -0.1881
  446BOLB   C4A10688  35.502  35.789  17.901  0.0059 -0.2189  0.1471
  446BOLB   C1B10689  34.293  35.892  18.687 -0.2961  0.1953  0.1615
  446BOLB   C2B10690  34.552  36.250  18.785 -0.2253  0.0061 -0.0995
  446BOLB   C3B10691  34.789  36.626  18.961 -0.0360  0.3166  0.1167
  446BOLB   C4B10692  34.979  37.110  19.010  0.0252  0.2262 -0.2330
  446BOLB   NC210693  37.036  37.988  17.057 -0.0818  0.1461  0.0668
  446BOLB   PO210694  36.706  37.692  16.862  0.0790 -0.2768  0.1434
  446BOLB   GL310695  36.321  37.370  16.884  0.0205  0.0685  0.1576
  446BOLB   GL410696  35.976  37.534  16.918 -0.3299 -0.0976  0.2688
  446BOLB   C1C10697  36.011  37.003  17.073  0.3074  0.2651  0.2254
  446BOLB   C2C10698  35.701  36.670  17.118 -0.0757 -0.1967  0.2544
  446BOLB   C3C10699  35.775  36.330  17.367  0.0458  0.1321  0.0586
  446BOLB   C4C10700  35.504  36.166  17.704  0.1767 -0.4954 -0.0438
  446BOLB   C1D10701  35.859  37.421  17.302  0.0850 -0.3589 -0.0916
  446BOLB   C2D10702  35.715  37.335  17.678  0.2880  0.1714  0.1053
  446BOLB   C3D10703  35.445  37.207  17.845 -0.2279  0.0313 -0.0403
  446BOLB   C4D10704  34.988  37.008  18.012 -0.0102 -0.0522 -0.1782
  447BOLB   NC110705  33.806  27.346  16.574 -0.1915  0.0140  0.3504
  447BOLB   PO110706  33.875  27.036  16.881 -0.0693 -0.4246 -0.0620
  447BOLB   GL110707  33.949  26.852  16.555  0.1507  0.0553 -0.0209
  447BOLB   GL210708  33.871  26.545  16.500  0.0733  0.0564  0.0823
  447BOLB   C1A10709  34.245  26.888  16.282 -0.1149  0.1420 -0.1063
  447BOLB   C2A10710  34.504  26.604  16.063  0.2986 -0.1391 -0.0588
  447BOLB   C3A10711  34.728  26.333  15.877  0.1921  0.4502 -0.0424
  447BOLB   C4A10712  34.925  26.056  15.631  0.0060  0.1117 -0.1673
  447BOLB   C1B10713  34.253  26.222  16.466  0.1699  0.4518  0.2093
  447BOLB   C2B10714  34.609  25.963  16.248 -0.0670 -0.3008 -0.1384
  447BOLB   C3B10715  34.859  25.709  16.060  0.5712 -0.0066 -0.1318
  447BOLB   C4B10716  35.125  25.521  15.714 -0.0658  0.0897  0.1090
  447BOLB   NC210717  37.187  25.885  14.214  0.0757  0.0746 -0.0464
  447BOLB   PO210718  36.704  25.801  14.530  0.0496 -0.1399  0.0140
  447BOLB   GL310719  36.552  25.906  14.794 -0.0198  0.2825  0.2358
  447BOLB   GL410720  36.679  26.215  14.968  0.1040 -0.0113  0.0523
  447BOLB   C1C10721  36.243  26.045  15.114  0.3401 -0.0724 -0.0268
  447BOLB   C2C10722  35.781  25.939  15.180  0.4301 -0.0283 -0.0123
  447BOLB   C3C10723  35.361  25.830  15.179  0.1075  0.0546 -0.1176
  447BOLB   C4C10724  34.985  25.827  15.327 -0.3187 -0.2441  0.0119
  447BOLB   C1D10725  36.798  26.034  15.411  0.2751 -0.0111  0.2144
  447BOLB   C2D10726  36.632  25.768  15.751 -0.1445  0.2853 -0.1262
  447BOLB   C3D10727  36.325  25.651  16.125 -0.3630  0.0097 -0.3189
  447BOLB   C4D10728  35.904  25.723  16.112 -0.2216  0.0440 -0.2673
  448BOLB   NC110729  28.354  21.249  21.567  0.0392 -0.2074 -0.2705
  448BOLB   PO110730  28.708  21.566  21.664 -0.0061  0.0957 -0.0976
  448BOLB   GL110731  28.872  21.137  21.440 -0.2380 -0.2533  0.3562
  448BOLB   GL210732  29.182  21.128  21.236  0.3189  0.0819  0.4599
  448BOLB   C1A10733  28.949  20.683  21.379  0.3394 -0.4221 -0.2201
  448BOLB   C2A10734  29.275  20.346  21.395 -0.2116  0.1296 -0.1605
  448BOLB   C3A10735  29.449  20.076  21.198  0.1120 -0.2167 -0.1040
  448BOLB   C4A10736  29.615  19.762  21.270  0.0473  0.2323 -0.0874
  448BOLB   C1B10737  29.403  20.719  21.124 -0.3744  0.4525 -0.0431
  448BOLB   C2B10738  29.546  20.452  20.788 -0.0704 -0.2950  0.1063
  448BOLB   C3B10739  29.909  20.212  20.522 -0.1280 -0.1013  0.0226
  448BOLB   C4B10740  30.112  20.115  20.048  0.0587  0.1868  0.1769
  448BOLB   NC210741  31.175  17.862  20.961 -0.0997 -0.0621 -0.1312
  448BOLB   PO210742  30.774  17.741  20.856 -0.1225  0.1284 -0.2055
  448BOLB   GL310743  30.656  18.113  21.244 -0.3289 -0.0936  0.1070
  448BOLB   GL410744  30.795  17.891  21.573  0.2914  0.0068  0.1344
  448BOLB   C1C10745  30.517  18.473  21.438 -0.1514 -0.0660  0.1017
  448BOLB   C2C10746  30.109  18.711  21.547 -0.1274 -0.2246 -0.2338
  448BOLB   C3C10747  29.848  19.093  21.566 -0.0147 -0.5479 -0.2551
  448BOLB   C4C10748  29.587  19.314  21.337 -0.3231  0.1575 -0.0656
  448BOLB   C1D10749  30.871  18.233  21.708  0.1022  0.1148 -0.1109
  448BOLB   C2D10750  30.881  18.605  21.759  0.0747 -0.0464 -0.1588
  448BOLB   C3D10751  30.616  19.096  21.783  0.4371 -0.1453 -0.1141
  448BOLB   C4D10752  30.576  19.535  21.964  0.1385 -0.2467 -0.0046
  449BOLB   NC110753  33.465  29.028  15.538  0.0127  0.2223  0.0147
  449BOLB   PO110754  33.621  29.154  15.924  0.1879  0.2309 -0.0795
  449BOLB   GL110755  33.834  29.479  15.583 -0.0738  0.1224  0.2190
  449BOLB   GL210756  33.589  29.567  15.349  0.0543  0.1629  0.0504
  449BOLB   C1A10757  34.232  29.560  15.361  0.1004 -0.0794  0.0669
  449BOLB   C2A10758  34.428  29.902  15.311 -0.1127  0.0035 -0.0066
  449BOLB   C3A10759  34.683  30.124  15.009  0.1257 -0.0414 -0.0443
  449BOLB   C4A10760  35.039  30.206  14.676 -0.0102 -0.2551 -0.3913
  449BOLB   C1B10761  33.851  29.461  15.048  0.4023  0.2181  0.0948
  449BOLB   C2B10762  33.925  29.313  14.660 -0.0098  0.1444 -0.1685
  449BOLB   C3B10763  34.192  28.999  14.362  0.0852  0.2034  0.0463
  449BOLB   C4B10764  34.499  28.842  14.274  0.0429  0.0161  0.0707
  449BOLB   NC210765  37.525  29.462  14.109 -0.4875 -0.1154 -0.2086
  449BOLB   PO210766  37.467  29.814  13.726 -0.0756  0.0506 -0.1167
  449BOLB   GL310767  37.066  29.631  13.887  0.1486  0.0887  0.1239
  449BOLB   GL410768  37.105  29.253  13.997 -0.0934  0.2395 -0.0219
  449BOLB   C1C10769  36.612  29.558  13.962 -0.3209 -0.3633  0.2446
  449BOLB   C2C10770  36.277  29.708  14.129  0.1449  0.0383  0.1707
  449BOLB   C3C10771  35.928  29.970  14.396  0.0340  0.0405  0.0287
  449BOLB   C4C10772  35.456  30.162  14.465 -0.2642 -0.0790 -0.2322
  449BOLB   C1D10773  36.733  29.094  14.204 -0.1946  0.1351 -0.1634
  449BOLB   C2D10774  36.273  29.217  14.223  0.0308  0.1368  0.0712
  449BOLB   C3D10775  35.910  29.447  14.380  0.0780  0.1782  0.0404
  449BOLB   C4D10776  35.779  29.554  14.737  0.2429 -0.1768 -0.5119
  450BOLB   NC110777  29.979  29.232  14.685  0.4922 -0.2463  0.1800
  450BOLB   PO110778  30.318  29.251  14.448 -0.1587  0.2317 -0.0252
  450BOLB   GL110779  30.623  29.177  14.121  0.0437  0.1179  0.1483
  450BOLB   GL210780  30.716  29.549  13.955 -0.1924  0.1160  0.2293
  450BOLB   C1A10781  30.847  29.093  13.803 -0.1093  0.1042 -0.2745
  450BOLB   C2A10782  30.940  28.998  13.394  0.2068 -0.1397  0.1889
  450BOLB   C3A10783  31.103  29.002  12.952  0.0677  0.2605 -0.1126
  450BOLB   C4A10784  30.910  28.854  12.608  0.0439  0.2887 -0.1251
  450BOLB   C1B10785  30.711  29.515  13.531 -0.0325 -0.2049  0.3066
  450BOLB   C2B10786  31.034  29.721  13.336  0.3123  0.2102 -0.2484
  450BOLB   C3B10787  31.375  29.789  13.035 -0.0426  0.0167  0.0801
  450BOLB   C4B10788  31.305  29.981  12.602 -0.0586 -0.3410 -0.6289
  450BOLB   NC210789  31.279  29.002  10.058 -0.0316  0.2552  0.1054
  450BOLB   PO210790  31.575  28.715  10.390  0.1388  0.1196  0.3743
  450BOLB   GL310791  31.490  28.656  10.827  0.3094  0.1178  0.4338
  450BOLB   GL410792  31.719  28.535  11.102 -0.1835  0.1998 -0.0706
  450BOLB   C1C10793  31.264  28.521  11.254  0.0906  0.3516  0.1602
  450BOLB   C2C10794  31.070  28.777  11.559  0.2409 -0.1058 -0.2265
  450BOLB   C3C10795  30.834  28.871  11.909  0.4078  0.0866 -0.3521
  450BOLB   C4C10796  30.628  28.664  12.262 -0.0769  0.3293 -0.0288
  450BOLB   C1D10797  31.599  28.646  11.523 -0.2957 -0.1598 -0.3286
  450BOLB   C2D10798  31.426  28.753  11.933  0.0307  0.1974  0.1039
  450BOLB   C3D10799  31.135  28.548  12.263  0.1103 -0.1030  0.0963
  450BOLB   C4D10800  30.978  28.047  12.343 -0.1723 -0.0942  0.4379
  451BOLB   NC110801  24.178  36.348  24.191  0.3179  0.0543  0.0470
  451BOLB   PO110802  24.301  36.637  23.819 -0.2414 -0.0071 -0.0397
  451BOLB   GL110803  24.019  37.001  23.934 -0.0198  0.1146  0.0333
  451BOLB   GL210804  23.741  36.963  24.012 -0.0718  0.1157 -0.1717
  451BOLB   C1A10805  23.774  37.447  23.888  0.1873 -0.0210 -0.2059
  451BOLB   C2A10806  23.622  37.814  24.213  0.1133 -0.3357  0.0399
  451BOLB   C3A10807  23.243  38.007  24.444  0.1834  0.0270 -0.0385
  451BOLB   C4A10808  22.784  38.274  24.583  0.0940 -0.0836  0.1773
  451BOLB   C1B10809  23.300  37.199  23.814 -0.1321  0.1084 -0.0371
  451BOLB   C2B10810  23.205  37.671  23.876  0.3140  0.4275 -0.0213
  451BOLB   C3B10811  23.207  38.056  23.897  0.0977 -0.0935  0.0588
  451BOLB   C4B10812  22.805  38.349  23.943  0.1099  0.1021 -0.2684
  451BOLB   NC210813  21.401  39.707  25.909  0.2575 -0.2685  0.3309
  451BOLB   PO210814  21.815  39.819  25.717 -0.0781  0.0012 -0.2787
  451BOLB   GL310815  21.943  39.636  25.400 -0.0199 -0.1480  0.1847
  451BOLB   GL410816  22.403  39.683  25.378 -0.0207  0.0495 -0.0014
  451BOLB   C1C10817  22.088  39.310  25.114  0.1621 -0.1798  0.4284
  451BOLB   C2C10818  22.130  38.928  24.843 -0.2190 -0.1369 -0.1036
  451BOLB   C3C10819  22.227  38.955  24.458  0.1309 -0.3701 -0.3032
  451BOLB   C4C10820  22.545  38.593  24.368 -0.1337 -0.1848  0.0778
  451BOLB   C1D10821  22.581  39.249  25.154 -0.0005 -0.0901  0.1267
  451BOLB   C2D10822  22.651  39.054  24.759  0.1079 -0.0091  0.5135
  451BOLB   C3D10823  22.960  38.784  24.601  0.1844  0.2459 -0.0041
  451BOLB   C4D10824  23.160  38.543  24.269  0.0024 -0.0608 -0.1709
  452BOLB   NC110825  21.117  29.089  16.577  0.1008  0.0967 -0.2252
  452BOLB   PO110826  21.013  28.791  16.264 -0.2088 -0.2054  0.2262
  452BOLB   GL110827  20.766  29.082  16.113 -0.0971  0.2643  0.1680
  452BOLB   GL210828  20.540  28.894  16.124 -0.1390  0.2128 -0.1423
  452BOLB   C1A10829  20.574  29.096  15.644  0.2309 -0.0772 -0.0453
  452BOLB   C2A10830  20.365  28.899  15.343 -0.3322  0.1106 -0.1342
  452BOLB   C3A10831  20.223  28.464  15.379 -0.1883  0.0351  0.0557
  452BOLB   C4A10832  20.032  28.097  15.315  0.1933  0.0952  0.1498
  452BOLB   C1B10833  20.598  28.627  15.761  0.1518  0.1432 -0.1463
  452BOLB   C2B10834  20.773  28.328  15.469  0.1770 -0.2276  0.2176
  452BOLB   C3B10835  20.973  28.282  15.058  0.0163  0.2471  0.0281
  452BOLB   C4B10836  21.276  28.513  15.143 -0.3534 -0.2736  0.0464
  452BOLB   NC210837  18.950  26.321  13.324  0.0646 -0.0473  0.0032
  452BOLB   PO210838  18.890  26.450  13.738  0.2699  0.2110  0.0751
  452BOLB   GL310839  19.170  26.795  13.899  0.4468 -0.2763  0.0789
  452BOLB   GL410840  19.516  26.795  13.831 -0.1037 -0.1600 -0.0192
  452BOLB   C1C10841  19.139  27.118  14.265  0.1918 -0.1603 -0.1816
  452BOLB   C2C10842  19.408  27.456  14.489  0.0583 -0.0680  0.0487
  452BOLB   C3C10843  19.678  27.556  14.739 -0.1358  0.0775  0.1273
  452BOLB   C4C10844  19.963  27.743  15.064  0.0039 -0.0539  0.0413
  452BOLB   C1D10845  19.609  26.896  14.238 -0.1797  0.0461  0.0757
  452BOLB   C2D10846  19.644  27.000  14.708 -0.1287  0.3606 -0.3622
  452BOLB   C3D10847  20.081  27.108  14.868  0.1212 -0.1675  0.2250
  452BOLB   C4D10848  20.448  27.463  14.973 -0.2365  0.1389 -0.2111
  453BOLB   NC110849  35.531  28.585  20.878 -0.0557  0.1300  0.2221
  453BOLB   PO110850  35.314  28.923  20.599 -0.4642  0.1470 -0.1963
  453BOLB   GL110851  35.814  28.953  20.685  0.1519  0.1525  0.1275
  453BOLB   GL210852  36.033  29.196  20.701 -0.0346 -0.1791  0.4636
  453BOLB   C1A10853  36.151  28.691  20.506 -0.1089 -0.2063 -0.2764
  453BOLB   C2A10854  36.552  28.391  20.379  0.0612  0.0691 -0.6545
  453BOLB   C3A10855  36.910  28.295  20.158 -0.0107 -0.1877  0.0257
  453BOLB   C4A10856  37.012  28.095  19.767  0.2090 -0.1845 -0.0574
  453BOLB   C1B10857  36.388  29.456  20.516  0.2949 -0.1424 -0.2918
  453BOLB   C2B10858  36.797  29.507  20.287 -0.1407  0.3381  0.0305
  453BOLB   C3B10859  37.248  29.690  20.153 -0.3306 -0.0064  0.2878
  453BOLB   C4B10860  37.664  29.594  20.332 -0.1512  0.1050 -0.4570
  453BOLB   NC210861  39.194  26.922  19.439 -0.0069 -0.2037 -0.0592
  453BOLB   PO210862  39.324  27.339  19.794  0.0475  0.2041 -0.1649
  453BOLB   GL310863  38.915  27.323  19.689  0.0445 -0.0771 -0.2269
  453BOLB   GL410864  38.804  27.237  19.896 -0.1194 -0.0653  0.3717
  453BOLB   C1C10865  38.520  27.245  19.487 -0.0482  0.0602  0.0547
  453BOLB   C2C10866  38.104  27.469  19.366  0.3301  0.0768  0.1603
  453BOLB   C3C10867  37.756  27.608  19.579 -0.0010  0.0858  0.1792
  453BOLB   C4C10868  37.401  27.821  19.719 -0.1700 -0.0466  0.2226
  453BOLB   C1D10869  38.406  27.058  19.940 -0.3134  0.2643  0.2013
  453BOLB   C2D10870  38.035  27.207  20.262  0.3092 -0.1778 -0.2737
  453BOLB   C3D10871  37.728  27.170  20.518  0.0311 -0.2702 -0.0233
  453BOLB   C4D10872  37.330  27.255  20.420  0.2247 -0.2314 -0.2063
  454BOLB   NC110873  31.658  36.469  21.436 -0.1769  0.1919  0.1991
  454BOLB   PO110874  32.015  36.581  21.708  0.1853 -0.2768  0.1624
  454BOLB   GL110875  32.113  36.916  21.701 -0.3217 -0.2860 -0.1225
  454BOLB   GL210876  32.383  37.004  21.864  0.0164  0.1949  0.0171
  454BOLB   C1A10877  32.234  37.389  21.654 -0.1427  0.1868  0.0115
  454BOLB   C2A10878  32.091  37.731  21.441  0.1192  0.0383  0.0504
  454BOLB   C3A10879  32.030  38.254  21.532  0.3052 -0.2396  0.0330
  454BOLB   C4A10880  32.228  38.699  21.468 -0.1896  0.0047 -0.2632
  454BOLB   C1B10881  32.668  37.414  22.048 -0.0502 -0.0279 -0.1784
  454BOLB   C2B10882  32.727  37.815  22.249  0.1613  0.1763 -0.1116
  454BOLB   C3B10883  32.917  38.174  22.222  0.1319  0.0077  0.1040
  454BOLB   C4B10884  33.075  38.402  22.521 -0.0093 -0.1079  0.2900
  454BOLB   NC210885  32.802  40.966  22.697  0.3014  0.1643 -0.0172
  454BOLB   PO210886  33.105  40.826  22.529 -0.3025  0.0873  0.1999
  454BOLB   GL310887  32.850  40.469  22.399  0.2099 -0.0835 -0.1695
  454BOLB   GL410888  32.819  40.327  22.088  0.1959 -0.2404 -0.1623
  454BOLB   C1C10889  33.036  40.034  22.429  0.0498 -0.0129  0.1657
  454BOLB   C2C10890  32.891  39.718  22.190 -0.2519 -0.0940  0.2273
  454BOLB   C3C10891  32.509  39.583  21.976 -0.1601  0.4400 -0.0239
  454BOLB   C4C10892  32.404  39.121  21.620 -0.1603 -0.2246 -0.0442
  454BOLB   C1D10893  32.578  40.076  22.367  0.1667  0.1210  0.0433
  454BOLB   C2D10894  32.365  40.122  22.657 -0.1064 -0.0743  0.0941
  454BOLB   C3D10895  32.285  40.478  22.844  0.3577 -0.0198 -0.2255
  454BOLB   C4D10896  31.935  40.719  22.576 -0.1001 -0.3885  0.0246
  455BOLB   NC110897  31.282  29.996   2.564  0.3602  0.2967 -0.3534
  455BOLB   PO110898  30.917  30.078   2.605 -0.2314 -0.2615  0.0335
  455BOLB   GL110899  30.967  30.108   3.034 -0.2008  0.1525 -0.2722
  455BOLB   GL210900  31.003  29.793   3.086 -0.2243  0.0166 -0.4070
  455BOLB   C1A10901  30.818  30.372   3.302  0.2168  0.2264  0.1278
  455BOLB   C2A10902  30.701  30.210   3.610  0.0730  0.0882  0.0031
  455BOLB   C3A10903  30.722  29.861   3.918 -0.4024  0.1068 -0.1662
  455BOLB   C4A10904  30.839  29.832   4.356 -0.1269  0.0431 -0.0404
  455BOLB   C1B10905  31.212  29.393   3.298  0.2101 -0.0875 -0.1679
  455BOLB   C2B10906  31.525  29.414   3.655  0.3076  0.1460 -0.0082
  455BOLB   C3B10907  31.706  29.504   3.977  0.0170 -0.2029 -0.0324
  455BOLB   C4B10908  31.913  29.599   4.372  0.1619  0.2722  0.1566
  455BOLB   NC210909  32.266  30.019   6.501 -0.0491  0.0768 -0.0406
  455BOLB   PO210910  32.114  30.474   6.313  0.0730  0.0429  0.1752
  455BOLB   GL310911  32.161  30.196   6.034 -0.0404 -0.4289 -0.1429
  455BOLB   GL410912  32.164  29.863   6.038  0.1791  0.0261  0.0405
  455BOLB   C1C10913  31.857  30.099   5.681 -0.0947 -0.0267 -0.1562
  455BOLB   C2C10914  31.572  29.985   5.342  0.3496 -0.0283  0.2408
  455BOLB   C3C10915  31.404  29.888   5.001  0.1293  0.1549 -0.1464
  455BOLB   C4C10916  31.081  29.993   4.682  0.0510 -0.0657 -0.2507
  455BOLB   C1D10917  31.767  29.717   5.994 -0.1013 -0.0598  0.1777
  455BOLB   C2D10918  31.629  29.491   5.697  0.4955 -0.0278 -0.2487
  455BOLB   C3D10919  31.248  29.522   5.353  0.0120  0.3273 -0.3114
  455BOLB   C4D10920  30.860  29.703   5.103 -0.0939  0.1800 -0.2849
  456BOLB   NC110921  30.387  22.988  17.439 -0.1678  0.1216  0.0036
  456BOLB   PO110922  30.444  22.746  17.779  0.0038 -0.0157 -0.0593
  456BOLB   GL110923  30.847  22.800  17.522 -0.0525 -0.1850 -0.2197
  456BOLB   GL210924  31.022  22.852  17.761  0.1164  0.3162 -0.0497
  456BOLB   C1A10925  31.173  22.659  17.264 -0.3945 -0.1785  0.1373
  456BOLB   C2A10926  31.368  22.338  17.067  0.0567  0.0627 -0.0620
  456BOLB   C3A10927  31.578  22.195  16.723 -0.0870  0.0727 -0.0279
  456BOLB   C4A10928  31.866  21.846  16.524 -0.0875 -0.1181 -0.1770
  456BOLB   C1B10929  31.260  22.497  17.719  0.0232  0.0320  0.3626
  456BOLB   C2B10930  31.438  22.093  17.551 -0.2145 -0.2409 -0.3388
  456BOLB   C3B10931  31.644  21.948  17.247 -0.1078 -0.1250  0.1279
  456BOLB   C4B10932  31.907  21.769  17.060  0.2281  0.0597  0.1804
  456BOLB   NC210933  32.519  19.918  15.144  0.1108 -0.1491 -0.1766
  456BOLB   PO210934  32.525  20.103  15.578 -0.0973 -0.1305 -0.1347
  456BOLB   GL310935  32.140  20.270  15.776 -0.0652 -0.0149 -0.0877
  456BOLB   GL410936  31.739  20.132  15.784 -0.2696  0.0142 -0.0267
  456BOLB   C1C10937  32.143  20.687  16.025  0.4557  0.2183 -0.2403
  456BOLB   C2C10938  32.227  20.942  16.400  0.0022 -0.3420  0.2327
  456BOLB   C3C10939  32.217  21.266  16.615 -0.0548  0.2583 -0.0663
  456BOLB   C4C10940  32.107  21.699  16.629  0.1014  0.0518  0.0348
  456BOLB   C1D10941  31.427  20.466  15.869  0.1119 -0.1151 -0.1820
  456BOLB   C2D10942  31.206  20.685  16.148 -0.0921  0.0802  0.2401
  456BOLB   C3D10943  31.175  20.958  16.358  0.4139 -0.0529  0.2606
  456BOLB   C4D10944  30.990  21.369  16.495 -0.2475 -0.1766  0.3124
  457BOLB   NC110945  21.916  30.509  16.271 -0.2116 -0.0380 -0.0631
  457BOLB   PO110946  21.497  30.246  16.167  0.2003  0.0210  0.5006
  457BOLB   GL110947  21.508  30.225  15.610  0.3663 -0.0642 -0.2165
  457BOLB   GL210948  21.191  30.366  15.432 -0.0907  0.0707  0.0683
  457BOLB   C1A10949  21.593  30.093  15.233 -0.3594 -0.2258  0.1948
  457BOLB   C2A10950  21.299  30.164  14.868  0.3352 -0.4113  0.4031
  457BOLB   C3A10951  20.866  30.007  14.682  0.0155  0.2818 -0.1385
  457BOLB   C4A10952  20.709  29.958  14.288  0.1369 -0.5043 -0.0005
  457BOLB   C1B10953  20.938  30.435  15.120  0.1237 -0.1965 -0.0127
  457BOLB   C2B10954  20.532  30.260  14.957  0.0783  0.0082 -0.1688
  457BOLB   C3B10955  20.331  30.167  14.638  0.0432  0.1672  0.1769
  457BOLB   C4B10956  19.857  30.110  14.480  0.3363  0.2409  0.4768
  457BOLB   NC210957  18.685  30.230  12.164 -0.0637 -0.2005  0.1543
  457BOLB   PO210958  19.164  30.226  12.343 -0.0633 -0.1500  0.3691
  457BOLB   GL310959  19.359  30.350  12.754 -0.3755 -0.1297  0.2533
  457BOLB   GL410960  19.114  30.468  13.041 -0.2727  0.0234 -0.1067
  457BOLB   C1C10961  19.629  30.169  13.082 -0.1637 -0.1048 -0.0925
  457BOLB   C2C10962  19.921  29.983  13.369  0.2141 -0.2022 -0.0132
  457BOLB   C3C10963  20.192  29.836  13.760  0.2105 -0.2069  0.0878
  457BOLB   C4C10964  20.511  29.937  13.973 -0.2707  0.0064  0.3441
  457BOLB   C1D10965  19.455  30.681  13.155 -0.0607 -0.2191 -0.3215
  457BOLB   C2D10966  19.903  30.550  13.391  0.0878 -0.0193 -0.1559
  457BOLB   C3D10967  20.211  30.347  13.607  0.1101 -0.0797 -0.0682
  457BOLB   C4D10968  20.661  30.353  13.518 -0.0368  0.1010  0.1374
  458BOLB   NC110969  17.533  21.149   1.058 -0.1893 -0.1744 -0.2804
  458BOLB   PO110970  17.730  20.859   0.861  0.1264  0.3172  0.0733
  458BOLB   GL110971  18.268  20.895   0.768  0.0552 -0.3704 -0.0765
  458BOLB   GL210972  18.107  20.961   0.504  0.2218 -0.0075  0.0194
  458BOLB   C1A10973  18.552  21.274   0.602 -0.0703 -0.2585 -0.1805
  458BOLB   C2A10974  18.525  21.685   0.453  0.0146  0.1020 -0.2115
  458BOLB   C3A10975  18.589  22.072   0.388 -0.1357 -0.2105  0.2082
  458BOLB   C4A10976  18.205  22.229   0.332  0.0759 -0.2523  0.2667
  458BOLB   C1B10977  18.054  21.342   0.310  0.1208  0.3784 -0.2029
  458BOLB   C2B10978  18.090  21.739   0.641  0.3530  0.0839 -0.0052
  458BOLB   C3B10979  18.328  21.992   0.915 -0.1465  0.1872  0.0247
  458BOLB   C4B10980  18.401  22.118   1.318 -0.0059  0.1095  0.2430
  458BOLB   NC210981  16.094  22.189   1.249  0.0245  0.1556 -0.2691
  458BOLB   PO210982  16.165  22.525   1.104 -0.4170  0.3189 -0.0370
  458BOLB   GL310983  16.354  22.577   0.722  0.1322  0.0196  0.0954
  458BOLB   GL410984  16.306  22.973   0.702 -0.2071  0.0362 -0.2105
  458BOLB   C1C10985  16.832  22.503   0.692  0.2338  0.1588 -0.0497
  458BOLB   C2C10986  17.121  22.411   0.361  0.3444 -0.1315  0.1450
  458BOLB   C3C10987  17.455  22.294   0.215 -0.0747  0.6414  0.2388
  458BOLB   C4C10988  17.866  22.362   0.304  0.2065  0.1887  0.3097
  458BOLB   C1D10989  16.147  23.402   0.794 -0.1671 -0.0256 -0.0482
  458BOLB   C2D10990  16.302  23.847   0.700 -0.2183 -0.1529  0.0319
  458BOLB   C3D10991  16.716  24.105   0.492 -0.4489  0.0246 -0.1238
  458BOLB   C4D10992  17.184  24.019   0.491 -0.1986  0.2416 -0.0920
  459BOLB   NC110993  25.928  26.647  14.461  0.1650  0.2025  0.0178
  459BOLB   PO110994  26.035  26.307  14.657 -0.0468  0.2149  0.1330
  459BOLB   GL110995  25.961  26.014  14.306 -0.1909  0.0538  0.0744
  459BOLB   GL210996  25.613  25.907  14.204 -0.0403  0.0425  0.1511
  459BOLB   C1A10997  25.948  25.546  14.282 -0.0045  0.2713 -0.0398
  459BOLB   C2A10998  25.673  25.460  13.895  0.0687 -0.1208  0.1033
  459BOLB   C3A10999  25.330  25.398  13.687 -0.2521 -0.1522 -0.0699
  459BOLB   C4A11000  24.992  25.180  13.522  0.0849 -0.3503 -0.0319
  459BOLB   C1B11001  25.614  26.012  13.741 -0.3215 -0.1764  0.1121
  459BOLB   C2B11002  25.584  25.699  13.427 -0.0137  0.1895  0.1284
  459BOLB   C3B11003  25.361  25.400  13.195 -0.1736 -0.0310  0.2349
  459BOLB   C4B11004  25.375  25.058  12.842 -0.1603  0.1416  0.2808
  459BOLB   NC211005  24.242  22.850  12.244  0.1026  0.3101  0.1310
  459BOLB   PO211006  24.220  23.256  12.133 -0.5354  0.0400  0.0960
  459BOLB   GL311007  24.634  23.507  12.309 -0.0659  0.0427  0.2784
  459BOLB   GL411008  24.447  23.789  12.430  0.0190 -0.0590  0.0263
  459BOLB   C1C11009  24.986  23.769  12.550 -0.1156 -0.0797 -0.2372
  459BOLB   C2C11010  24.962  24.102  12.835  0.0785  0.0425 -0.4917
  459BOLB   C3C11011  24.834  24.517  13.066 -0.1162  0.0919  0.2309
  459BOLB   C4C11012  24.911  24.964  13.111 -0.2406 -0.0762 -0.1178
  459BOLB   C1D11013  24.445  23.815  12.947 -0.0110 -0.1802  0.2015
  459BOLB   C2D11014  24.565  24.129  13.144 -0.0501  0.0454  0.0266
  459BOLB   C3D11015  24.441  24.196  13.529  0.1939 -0.1816 -0.0171
  459BOLB   C4D11016  24.112  24.208  13.817 -0.0944  0.1208 -0.1359
  460BOLB   NC111017  30.419  33.893  15.434 -0.1602 -0.1001 -0.0067
  460BOLB   PO111018  29.996  34.071  15.113  0.1084  0.2545  0.1435
  460BOLB   GL111019  30.006  34.316  14.725  0.0826 -0.3884 -0.1226
  460BOLB   GL211020  30.220  34.254  14.475 -0.0488  0.0571  0.2432
  460BOLB   C1A11021  29.888  34.621  14.360  0.1198  0.0197 -0.1507
  460BOLB   C2A11022  29.601  34.748  14.089  0.1845  0.1526 -0.0113
  460BOLB   C3A11023  29.253  34.916  13.712  0.0020 -0.0228 -0.0685
  460BOLB   C4A11024  29.171  35.015  13.285 -0.0785 -0.1463  0.0463
  460BOLB   C1B11025  30.441  34.505  14.143  0.2387 -0.0993 -0.2197
  460BOLB   C2B11026  30.635  34.856  13.910  0.1004 -0.0088  0.1590
  460BOLB   C3B11027  30.991  34.871  13.726  0.1859  0.0793  0.1866
  460BOLB   C4B11028  31.390  35.135  13.516  0.0880  0.0176  0.1159
  460BOLB   NC211029  28.170  35.199  10.637  0.1977 -0.0576 -0.0156
  460BOLB   PO211030  28.559  35.162  10.779 -0.3022  0.3708 -0.0871
  460BOLB   GL311031  28.423  35.129  11.240 -0.1897 -0.1880 -0.0673
  460BOLB   GL411032  28.543  34.835  11.206 -0.0071 -0.3403 -0.2980
  460BOLB   C1C11033  28.461  35.274  11.652 -0.1161 -0.1762  0.1992
  460BOLB   C2C11034  28.631  35.271  12.123  0.1225 -0.1943  0.0650
  460BOLB   C3C11035  28.739  34.915  12.491  0.2317 -0.2003  0.1694
  460BOLB   C4C11036  28.933  35.135  12.866  0.2059  0.1216  0.2857
  460BOLB   C1D11037  28.869  34.678  11.473 -0.1504  0.0793 -0.1729
  460BOLB   C2D11038  28.847  34.524  11.864 -0.1291  0.2658  0.1515
  460BOLB   C3D11039  28.811  34.350  12.380 -0.0481  0.0158  0.0674
  460BOLB   C4D11040  28.581  34.512  12.770 -0.2508  0.0068 -0.0563
  461BOLB   NC111041  30.851  22.752  20.119  0.1807  0.0361 -0.1389
  461BOLB   PO111042  30.693  22.390  19.968 -0.1434  0.1602  0.2804
  461BOLB   GL111043  31.079  22.124  19.794 -0.0919  0.1841  0.2152
  461BOLB   GL211044  30.930  22.021  19.569 -0.2329  0.3434  0.1658
  461BOLB   C1A11045  31.407  21.853  19.611  0.1083 -0.3059 -0.0638
  461BOLB   C2A11046  31.685  21.606  19.432  0.1718 -0.1678 -0.0109
  461BOLB   C3A11047  31.995  21.342  19.560 -0.1165 -0.0227  0.4243
  461BOLB   C4A11048  32.349  21.129  19.415  0.3165  0.3578  0.1111
  461BOLB   C1B11049  31.003  21.568  19.402  0.2549  0.0569 -0.0421
  461BOLB   C2B11050  31.294  21.256  19.499  0.2547  0.0343 -0.1283
  461BOLB   C3B11051  31.146  20.814  19.514 -0.1827 -0.1913 -0.0321
  461BOLB   C4B11052  30.992  20.392  19.414 -0.2626  0.0360  0.0148
  461BOLB   NC211053  33.011  19.131  18.663  0.0445  0.0207 -0.1951
  461BOLB   PO211054  33.497  19.160  18.443 -0.1680 -0.3062 -0.0204
  461BOLB   GL311055  33.282  19.500  18.438 -0.1737  0.3182  0.1346
  461BOLB   GL411056  32.889  19.546  18.432 -0.0037  0.2612  0.1922
  461BOLB   C1C11057  33.123  19.924  18.438  0.2028 -0.1274  0.1505
  461BOLB   C2C11058  33.010  20.370  18.575  0.1530 -0.1255 -0.1125
  461BOLB   C3C11059  32.801  20.589  18.864  0.0661 -0.3281  0.1680
  461BOLB   C4C11060  32.650  20.895  19.186  0.0408  0.0180  0.1049
  461BOLB   C1D11061  32.698  19.877  18.210  0.0798  0.2970  0.3322
  461BOLB   C2D11062  32.412  20.215  18.102 -0.1964  0.1836  0.3335
  461BOLB   C3D11063  32.348  20.655  17.955 -0.0195 -0.1295 -0.0686
  461BOLB   C4D11064  32.088  20.967  18.069  0.3034 -0.0587  0.4359
  462BOLB   NC111065  24.392  35.608  26.022  0.3015 -0.1301 -0.1714
  462BOLB   PO111066  24.264  35.819  26.435  0.0559  0.3106 -0.0602
  462BOLB   GL111067  24.302  35.907  26.886  0.2926 -0.1928  0.0692
  462BOLB   GL211068  24.319  36.260  26.787 -0.2409  0.1738 -0.2444
  462BOLB   C1A11069  24.217  35.997   0.382  0.1266 -0.2135  0.4488
  462BOLB   C2A11070  24.278  36.323   0.682  0.1072  0.1629 -0.0183
  462BOLB   C3A11071  24.363  36.733   0.818  0.1354 -0.1053  0.0244
  462BOLB   C4A11072  24.336  37.111   0.870 -0.0024 -0.1232  0.0341
  462BOLB   C1B11073  24.014  36.468   0.081  0.2849 -0.1896  0.1944
  462BOLB   C2B11074  23.603  36.722   0.129  0.0980  0.0517 -0.0313
  462BOLB   C3B11075  23.219  36.979   0.132  0.1771  0.0689 -0.0930
  462BOLB   C4B11076  23.217  37.500  26.826  0.0034  0.2447 -0.1950
  462BOLB   NC211077  23.763  39.703   0.761  0.5314  0.1246  0.1416
  462BOLB   PO211078  23.388  39.454   0.693 -0.1215  0.1872 -0.1053
  462BOLB   GL311079  23.340  38.971   0.638 -0.0688  0.2753 -0.0590
  462BOLB   GL411080  23.638  38.858   0.479  0.2755 -0.2825 -0.1861
  462BOLB   C1C11081  23.294  38.453   0.711  0.1597  0.0105  0.0871
  462BOLB   C2C11082  23.468  38.000   0.778 -0.3564  0.1362  0.0331
  462BOLB   C3C11083  23.744  37.660   0.863  0.1189 -0.1748  0.0430
  462BOLB   C4C11084  24.215  37.569   0.809 -0.2694 -0.2264 -0.0496
  462BOLB   C1D11085  23.382  38.671   0.157  0.0567  0.1134  0.2731
  462BOLB   C2D11086  23.441  38.357  26.672  0.0612 -0.0589 -0.2392
  462BOLB   C3D11087  23.454  38.329  26.330 -0.0453 -0.1070  0.0892
  462BOLB   C4D11088  23.606  38.070  26.046  0.0705  0.1408 -0.0318
  463BOLB   NC111089  27.729  29.266  13.566  0.2293  0.2626  0.1462
  463BOLB   PO111090  27.848  29.664  13.577 -0.1656  0.0855 -0.1680
  463BOLB   GL111091  27.751  29.495  13.115 -0.0848 -0.1439  0.1851
  463BOLB   GL211092  27.554  29.707  13.028 -0.1658 -0.1259  0.1499
  463BOLB   C1A11093  27.896  29.299  12.683  0.0545  0.2206 -0.2370
  463BOLB   C2A11094  27.725  29.195  12.319 -0.1334 -0.2918  0.0001
  463BOLB   C3A11095  27.836  29.015  12.064 -0.0679  0.0463  0.0540
  463BOLB   C4A11096  27.983  29.032  11.625 -0.0665 -0.1130 -0.0746
  463BOLB   C1B11097  27.669  29.722  12.644 -0.0819 -0.2784 -0.1527
  463BOLB   C2B11098  27.590  29.678  12.252  0.3116  0.2078  0.0181
  463BOLB   C3B11099  27.333  29.796  11.780  0.1595  0.1230 -0.0196
  463BOLB   C4B11100  27.158  29.695  11.371 -0.0173  0.1774  0.3796
  463BOLB   NC211101  27.843  28.696   9.338 -0.0106  0.4653  0.0763
  463BOLB   PO211102  28.248  28.613   9.339 -0.0167 -0.0316  0.0395
  463BOLB   GL311103  28.204  28.664   9.762 -0.0481 -0.3461 -0.1278
  463BOLB   GL411104  28.466  28.582   9.970  0.0592 -0.0091 -0.1193
  463BOLB   C1C11105  28.126  28.995  10.077 -0.1361  0.1189 -0.1638
  463BOLB   C2C11106  28.084  29.119  10.354 -0.1741  0.1106  0.0642
  463BOLB   C3C11107  27.969  29.204  10.746 -0.1298  0.1596  0.0315
  463BOLB   C4C11108  27.998  29.166  11.209  0.1609 -0.0974 -0.1775
  463BOLB   C1D11109  28.307  28.603  10.426  0.1461  0.2139  0.1721
  463BOLB   C2D11110  27.975  28.703  10.665 -0.0496 -0.3478 -0.3770
  463BOLB   C3D11111  27.990  28.662  11.104 -0.1985 -0.0622 -0.1406
  463BOLB   C4D11112  27.911  28.574  11.475 -0.2089  0.2434  0.0189
  464BOLB   NC111113  31.443  37.408  20.715 -0.2184 -0.0547 -0.3666
  464BOLB   PO111114  31.877  37.349  20.576 -0.1656  0.1196 -0.2037
  464BOLB   GL111115  32.280  37.667  20.476  0.1829 -0.2866  0.1336
  464BOLB   GL211116  32.149  38.007  20.300  0.0283  0.1674 -0.0192
  464BOLB   C1A11117  32.650  37.709  20.695  0.0758 -0.2227 -0.2728
  464BOLB   C2A11118  32.968  37.640  20.856  0.1288  0.2514  0.2805
  464BOLB   C3A11119  33.493  37.736  20.759  0.2288 -0.2253 -0.3100
  464BOLB   C4A11120  33.970  37.954  20.816 -0.0460 -0.0337 -0.0455
  464BOLB   C1B11121  31.862  38.387  20.223 -0.3073  0.2160 -0.2139
  464BOLB   C2B11122  31.776  38.878  20.169  0.0553 -0.3735 -0.1146
  464BOLB   C3B11123  31.560  39.156  20.086  0.4314 -0.1914 -0.2893
  464BOLB   C4B11124  31.069  39.222  19.985  0.2486 -0.1337 -0.6313
  464BOLB   NC211125  36.587  39.513  21.256 -0.0905 -0.0396 -0.0930
  464BOLB   PO211126  36.306  39.129  21.109  0.3641 -0.0058  0.1345
  464BOLB   GL311127  35.903  38.852  21.109  0.1516 -0.1248 -0.0560
  464BOLB   GL411128  35.659  38.966  21.317 -0.0109 -0.4503 -0.0692
  464BOLB   C1C11129  35.461  38.605  21.123  0.1585 -0.1224  0.1125
  464BOLB   C2C11130  35.184  38.414  20.745  0.1293 -0.0991 -0.0604
  464BOLB   C3C11131  34.883  38.171  20.540  0.0097 -0.3444 -0.1187
  464BOLB   C4C11132  34.399  38.053  20.670 -0.0660  0.1328 -0.1030
  464BOLB   C1D11133  35.396  38.692  21.605  0.0431 -0.4840 -0.0964
  464BOLB   C2D11134  35.083  38.348  21.718  0.2672 -0.3445  0.0835
  464BOLB   C3D11135  35.023  38.015  21.972  0.0841  0.0290 -0.0258
  464BOLB   C4D11136  34.898  37.795  22.298 -0.2668  0.2464 -0.0129
  465BOLB   NC111137  23.233  31.469  14.548 -0.0404  0.0092  0.3977
  465BOLB   PO111138  22.899  31.257  14.514  0.3234 -0.2193 -0.2037
  465BOLB   GL111139  22.812  31.524  14.273 -0.0711  0.1959  0.2266
  465BOLB   GL211140  22.923  31.801  14.415 -0.2556  0.3675  0.1932
  465BOLB   C1A11141  22.664  31.824  13.972  0.0591  0.2712  0.0886
  465BOLB   C2A11142  22.702  31.850  13.530  0.0438  0.0530  0.2619
  465BOLB   C3A11143  22.706  31.788  13.004 -0.2573 -0.1772 -0.1959
  465BOLB   C4A11144  22.759  31.540  12.613  0.2582 -0.1083  0.0835
  465BOLB   C1B11145  22.987  32.102  14.174  0.1414 -0.3912  0.2944
  465BOLB   C2B11146  22.872  32.245  13.770  0.5592  0.2051 -0.1542
  465BOLB   C3B11147  22.838  32.402  13.367 -0.1345 -0.3994 -0.0821
  465BOLB   C4B11148  22.719  32.881  13.250 -0.2366 -0.0417  0.1378
  465BOLB   NC211149  22.435  32.094  10.260  0.2498  0.4015  0.0254
  465BOLB   PO211150  22.519  32.516  10.270  0.0627 -0.1770  0.2455
  465BOLB   GL311151  22.487  32.297  10.778  0.0013  0.1960 -0.0711
  465BOLB   GL411152  22.304  32.442  10.921 -0.0798 -0.0516 -0.0166
  465BOLB   C1C11153  22.617  32.204  11.199  0.1415  0.0438 -0.0619
  465BOLB   C2C11154  22.600  31.780  11.379  0.1148 -0.0607  0.0282
  465BOLB   C3C11155  22.644  31.573  11.700  0.0038  0.0212  0.0996
  465BOLB   C4C11156  22.581  31.450  12.163  0.2874  0.0894 -0.2637
  465BOLB   C1D11157  22.243  32.491  11.306  0.1257 -0.2869  0.0411
  465BOLB   C2D11158  22.505  32.648  11.610 -0.0880  0.2689 -0.0920
  465BOLB   C3D11159  22.761  32.627  11.885 -0.1000  0.0847  0.1296
  465BOLB   C4D11160  22.872  32.487  12.279  0.0095 -0.0922 -0.1409
  466BOLB   NC111161  21.572  33.162  18.500 -0.0415 -0.1167  0.0863
  466BOLB   PO111162  21.170  32.972  18.231  0.3377  0.2790  0.1305
  466BOLB   GL111163  20.961  33.248  17.892  0.0061  0.1808  0.1105
  466BOLB   GL211164  21.141  33.554  17.844 -0.1206  0.0115 -0.1450
  466BOLB   C1A11165  20.622  33.441  17.652  0.1024 -0.0719 -0.1217
  466BOLB   C2A11166  20.260  33.705  17.446  0.3379 -0.0569 -0.1032
  466BOLB   C3A11167  20.074  34.140  17.430 -0.0516 -0.2706  0.3470
  466BOLB   C4A11168  19.793  34.527  17.374 -0.0265 -0.2193  0.2092
  466BOLB   C1B11169  20.794  33.899  17.627  0.1029  0.2148 -0.0485
  466BOLB   C2B11170  20.513  34.215  17.631  0.0830 -0.0603 -0.0132
  466BOLB   C3B11171  20.313  34.658  17.617 -0.0292 -0.3986  0.0810
  466BOLB   C4B11172  20.557  35.107  17.595  0.3869 -0.0415 -0.1211
  466BOLB   NC211173  18.719  35.854  15.053  0.1226 -0.3804  0.0565
  466BOLB   PO211174  18.861  35.858  15.531 -0.0142  0.1011 -0.0458
  466BOLB   GL311175  19.062  35.537  15.847 -0.1613 -0.1661  0.1016
  466BOLB   GL411176  18.990  35.704  16.157  0.3521  0.1333 -0.0188
  466BOLB   C1C11177  19.443  35.475  16.072  0.0261 -0.2929 -0.1404
  466BOLB   C2C11178  19.578  35.448  16.494 -0.0410  0.2901 -0.1753
  466BOLB   C3C11179  19.662  35.238  16.927 -0.3922  0.2967  0.0931
  466BOLB   C4C11180  19.889  35.000  17.259 -0.3467  0.0310  0.0075
  466BOLB   C1D11181  18.961  35.418  16.542 -0.5444 -0.2325 -0.4631
  466BOLB   C2D11182  18.807  35.068  16.751 -0.3808  0.2138  0.1110
  466BOLB   C3D11183  18.935  34.846  17.108  0.4294 -0.2110  0.2505
  466BOLB   C4D11184  19.024  34.569  17.360  0.3161 -0.2896  0.0761
  467BOLB   NC111185  28.180  32.341  14.391 -0.2544 -0.1589  0.2989
  467BOLB   PO111186  28.391  32.475  14.008 -0.0552  0.0272 -0.0255
  467BOLB   GL111187  28.417  32.461  13.600 -0.1728  0.3878 -0.0449
  467BOLB   GL211188  28.766  32.459  13.545  0.2881 -0.3447 -0.0166
  467BOLB   C1A11189  28.252  32.419  13.085  0.2824 -0.2986 -0.0722
  467BOLB   C2A11190  28.057  32.313  12.783 -0.0600 -0.2945  0.1161
  467BOLB   C3A11191  28.065  31.891  12.518 -0.0241 -0.0186  0.1603
  467BOLB   C4A11192  28.082  31.900  12.136 -0.0538 -0.0471 -0.0771
  467BOLB   C1B11193  28.741  32.630  13.152 -0.2225  0.1538  0.3798
  467BOLB   C2B11194  28.525  32.725  12.759  0.0054 -0.2394 -0.0689
  467BOLB   C3B11195  28.194  32.783  12.394 -0.4130 -0.1926 -0.1010
  467BOLB   C4B11196  28.399  33.047  12.078  0.1437  0.1727  0.1458
  467BOLB   NC211197  28.265  33.403  10.326  0.2272 -0.1169  0.0444
  467BOLB   PO211198  28.604  33.117  10.076  0.0496  0.1117 -0.3652
  467BOLB   GL311199  28.443  32.918  10.350  0.2907  0.2141  0.0700
  467BOLB   GL411200  28.350  32.728  10.177  0.2521 -0.0031 -0.0887
  467BOLB   C1C11201  28.282  32.924  10.826 -0.0008 -0.1663  0.0519
  467BOLB   C2C11202  28.319  32.601  11.097  0.2322 -0.0909  0.0054
  467BOLB   C3C11203  28.131  32.246  11.268 -0.0872  0.0975  0.3197
  467BOLB   C4C11204  28.074  32.008  11.707 -0.0630 -0.1982 -0.0255
  467BOLB   C1D11205  28.206  32.483  10.609  0.1245  0.1492  0.0043
  467BOLB   C2D11206  27.795  32.333  10.786 -0.0673 -0.0382  0.0500
  467BOLB   C3D11207  27.482  32.412  10.994 -0.2892  0.0388 -0.1356
  467BOLB   C4D11208  27.672  32.172  11.357 -0.0079  0.0948  0.0998
  468BOLB   NC111209  35.393  28.485  23.911 -0.1402 -0.0535 -0.2400
  468BOLB   PO111210  35.243  28.346  24.395 -0.3084  0.0569 -0.2669
  468BOLB   GL111211  35.432  28.553  24.731  0.0610 -0.3485 -0.2474
  468BOLB   GL211212  35.322  28.502  25.046  0.3822  0.0279  0.0885
  468BOLB   C1A11213  35.888  28.337  24.787 -0.3200  0.0347  0.0564
  468BOLB   C2A11214  36.247  28.016  24.833  0.3225  0.0114  0.0612
  468BOLB   C3A11215  36.566  27.856  25.051  0.1327  0.0566 -0.0976
  468BOLB   C4A11216  36.844  27.670  25.191 -0.2047  0.1188  0.2595
  468BOLB   C1B11217  35.744  28.494  25.306 -0.0817 -0.1826  0.2608
  468BOLB   C2B11218  36.137  28.621  25.469 -0.1317 -0.1953  0.0665
  468BOLB   C3B11219  36.501  28.741  25.510  0.3204  0.3755 -0.1676
  468BOLB   C4B11220  36.961  28.803  25.646  0.1920 -0.0633 -0.1852
  468BOLB   NC211221  39.565  27.212  24.836 -0.0109  0.1809  0.1380
  468BOLB   PO211222  39.600  27.378  25.217  0.2512 -0.3056 -0.0537
  468BOLB   GL311223  39.207  27.493  25.095 -0.3142 -0.1193  0.2690
  468BOLB   GL411224  39.046  27.263  24.805  0.1338 -0.2401 -0.0713
  468BOLB   C1C11225  38.728  27.656  25.028 -0.2800 -0.5404 -0.1579
  468BOLB   C2C11226  38.269  27.766  25.035  0.1020 -0.3010 -0.0553
  468BOLB   C3C11227  37.779  27.640  25.186 -0.2954  0.1788  0.1182
  468BOLB   C4C11228  37.295  27.621  25.207 -0.2414  0.1350 -0.0951
  468BOLB   C1D11229  38.512  27.271  24.842 -0.1699 -0.1858 -0.0274
  468BOLB   C2D11230  38.088  27.297  24.807 -0.0558 -0.0904 -0.1941
  468BOLB   C3D11231  37.665  27.471  24.726 -0.0440 -0.0437 -0.1298
  468BOLB   C4D11232  37.298  27.480  24.715 -0.0373  0.2272 -0.0971
  469BOLB   NC111233  30.893  37.409  19.308  0.0028 -0.0993  0.1367
  469BOLB   PO111234  31.116  37.479  19.780  0.2693  0.3855  0.2487
  469BOLB   GL111235  31.269  37.831  19.973  0.1927 -0.0990  0.1301
  469BOLB   GL211236  31.148  37.895  20.258  0.1110  0.2293 -0.2302
  469BOLB   C1A11237  31.196  38.299  19.884  0.3127 -0.1093  0.4581
  469BOLB   C2A11238  30.886  38.690  19.816 -0.0252 -0.2109  0.3280
  469BOLB   C3A11239  30.606  39.041  19.834  0.0847 -0.0354  0.1478
  469BOLB   C4A11240  30.400  39.397  19.813 -0.0151  0.1776 -0.2163
  469BOLB   C1B11241  31.410  38.215  20.400 -0.1280  0.0223 -0.0555
  469BOLB   C2B11242  31.675  38.626  20.616 -0.4050  0.0866 -0.1895
  469BOLB   C3B11243  32.006  38.938  20.604 -0.2348 -0.0157  0.2289
  469BOLB   C4B11244  32.138  39.373  20.715 -0.0338  0.1206  0.0489
  469BOLB   NC211245  31.630  41.078  19.709  0.3070  0.3231  0.2122
  469BOLB   PO211246  31.384  41.368  19.796 -0.2319  0.0361  0.5052
  469BOLB   GL311247  31.184  41.023  19.989 -0.0991  0.1823 -0.0092
  469BOLB   GL411248  31.225  40.729  19.868 -0.2280  0.0218 -0.2470
  469BOLB   C1C11249  30.758  40.809  20.076  0.0372  0.1815 -0.3165
  469BOLB   C2C11250  30.659  40.419  20.043  0.1072 -0.1264  0.1878
  469BOLB   C3C11251  30.609  40.095  19.864 -0.2406  0.1263  0.0855
  469BOLB   C4C11252  30.465  39.711  19.820  0.0963  0.1636  0.2848
  469BOLB   C1D11253  30.964  40.363  19.551  0.1358 -0.1286 -0.1958
  469BOLB   C2D11254  30.676  40.242  19.386  0.1810  0.1920  0.0743
  469BOLB   C3D11255  30.618  39.826  19.253 -0.2033 -0.3362  0.3262
  469BOLB   C4D11256  30.675  39.391  19.313  0.0202  0.3859 -0.1969
  470BOLB   NC111257  34.491  26.627  23.610 -0.1048 -0.1323  0.2759
  470BOLB   PO111258  34.659  26.439  24.001  0.0949 -0.2917 -0.0283
  470BOLB   GL111259  35.073  26.233  24.096 -0.0256 -0.0257  0.3015
  470BOLB   GL211260  35.136  25.860  24.136 -0.1113 -0.2172  0.1646
  470BOLB   C1A11261  35.502  26.224  24.321 -0.2913 -0.2365 -0.2548
  470BOLB   C2A11262  35.933  26.216  24.368  0.0759 -0.1384 -0.5094
  470BOLB   C3A11263  36.346  26.228  24.353 -0.0493  0.5681 -0.0792
  470BOLB   C4A11264  36.737  26.407  24.538  0.1342  0.2392  0.0561
  470BOLB   C1B11265  35.565  25.706  24.248  0.0432 -0.1087 -0.0424
  470BOLB   C2B11266  35.814  25.302  24.374 -0.0866  0.1376  0.2927
  470BOLB   C3B11267  36.202  25.018  24.349 -0.2029 -0.0166  0.1298
  470BOLB   C4B11268  36.674  24.787  24.309  0.3839 -0.0201 -0.0537
  470BOLB   NC211269  39.335  26.731  24.776  0.1081 -0.1988 -0.2316
  470BOLB   PO211270  39.257  26.243  24.823  0.0659 -0.4859  0.0989
  470BOLB   GL311271  38.936  26.392  24.623  0.2560  0.0014  0.1315
  470BOLB   GL411272  38.937  26.831  24.558  0.3714 -0.2264 -0.1986
  470BOLB   C1C11273  38.452  26.348  24.710 -0.0796  0.2292  0.0170
  470BOLB   C2C11274  38.000  26.338  24.683  0.1049  0.0738  0.1604
  470BOLB   C3C11275  37.621  26.456  24.529  0.2137  0.2179  0.1146
  470BOLB   C4C11276  37.182  26.474  24.548  0.0641 -0.3605 -0.0443
  470BOLB   C1D11277  38.536  26.733  24.350  0.0314 -0.1273  0.4216
  470BOLB   C2D11278  38.198  26.765  24.133 -0.0941  0.1156 -0.0360
  470BOLB   C3D11279  37.844  26.437  24.091  0.1443 -0.1355 -0.0120
  470BOLB   C4D11280  37.444  26.218  24.135 -0.2455 -0.1561  0.1992
  471BOLB   NC111281  32.441  32.091   1.256 -0.0051  0.2509 -0.1426
  471BOLB   PO111282  32.324  32.221   1.692  0.1553 -0.0112 -0.1228
  471BOLB   GL111283  32.615  32.214   1.997  0.1821  0.0259  0.1699
  471BOLB   GL211284  32.579  31.835   2.145 -0.0427 -0.0818 -0.0915
  471BOLB   C1A11285  32.994  32.279   2.235  0.0500 -0.2771 -0.2284
  471BOLB   C2A11286  33.358  32.219   2.480 -0.0739 -0.4471 -0.2547
  471BOLB   C3A11287  33.669  32.266   2.825 -0.1698  0.0851  0.4070
  471BOLB   C4A11288  34.165  32.174   2.814  0.0236  0.0187  0.0532
  471BOLB   C1B11289  32.547  32.096   2.503 -0.0766  0.1206  0.0035
  471BOLB   C2B11290  32.483  32.164   2.985  0.1826  0.3241 -0.2430
  471BOLB   C3B11291  32.364  32.514   3.273 -0.2378  0.2040  0.0217
  471BOLB   C4B11292  32.311  32.904   3.479 -0.0494 -0.1030 -0.0238
  471BOLB   NC211293  36.150  32.318   4.090 -0.0050  0.1239  0.0177
  471BOLB   PO211294  35.705  32.194   4.047  0.0715 -0.0060  0.1869
  471BOLB   GL311295  35.550  32.116   3.765  0.0321 -0.0943  0.1093
  471BOLB   GL411296  35.393  31.807   3.810 -0.0330  0.1712  0.0319
  471BOLB   C1C11297  35.653  31.998   3.349  0.4778 -0.1010  0.1788
  471BOLB   C2C11298  35.408  32.054   3.015  0.1607 -0.2945 -0.0407
  471BOLB   C3C11299  34.975  32.250   2.969  0.0531 -0.1163  0.1822
  471BOLB   C4C11300  34.602  32.177   2.852  0.1093  0.3513 -0.2399
  471BOLB   C1D11301  35.086  31.932   3.407 -0.1882  0.1032 -0.2262
  471BOLB   C2D11302  34.998  31.760   2.995  0.0291 -0.2657 -0.2156
  471BOLB   C3D11303  34.922  31.873   2.585  0.0048  0.2976  0.0721
  471BOLB   C4D11304  34.767  32.073   2.340 -0.1269 -0.0234  0.3466
  472BOLB   NC111305  22.373  30.763  15.058 -0.0904  0.3144 -0.2164
  472BOLB   PO111306  22.736  30.941  14.987  0.0949  0.0980 -0.0780
  472BOLB   GL111307  22.429  30.974  14.626 -0.2769  0.1395 -0.1420
  472BOLB   GL211308  22.206  30.670  14.627  0.0618  0.0281  0.4160
  472BOLB   C1A11309  22.106  31.005  14.272 -0.1486  0.1325 -0.0640
  472BOLB   C2A11310  21.981  31.092  13.936  0.0166 -0.3514 -0.0071
  472BOLB   C3A11311  21.861  31.319  13.539 -0.1480 -0.0391  0.0863
  472BOLB   C4A11312  21.702  31.394  13.079 -0.1037 -0.1829 -0.1297
  472BOLB   C1B11313  21.771  30.783  14.618  0.2156 -0.0419 -0.4125
  472BOLB   C2B11314  21.586  30.867  14.286  0.1893 -0.1423  0.1338
  472BOLB   C3B11315  21.479  31.085  13.872 -0.0146  0.2865 -0.1313
  472BOLB   C4B11316  21.353  31.421  13.550 -0.3308 -0.0727 -0.2483
  472BOLB   NC211317  20.195  33.215  12.629  0.2913  0.0564 -0.2180
  472BOLB   PO211318  20.104  32.798  12.701 -0.3385 -0.0522 -0.2081
  472BOLB   GL311319  20.253  32.417  12.829 -0.0938  0.0320  0.3314
  472BOLB   GL411320  20.347  32.106  12.649  0.1082 -0.3618 -0.0389
  472BOLB   C1C11321  20.501  32.274  13.112 -0.1284  0.0705 -0.0303
  472BOLB   C2C11322  20.745  31.862  13.248 -0.0312  0.3450 -0.1289
  472BOLB   C3C11323  20.999  31.489  13.127  0.2095 -0.0511  0.1160
  472BOLB   C4C11324  21.378  31.467  12.945  0.3493  0.2883 -0.1442
  472BOLB   C1D11325  20.680  31.898  12.785  0.0216 -0.0348 -0.2777
  472BOLB   C2D11326  21.006  31.802  12.610 -0.3138  0.0314 -0.2053
  472BOLB   C3D11327  21.416  31.794  12.576 -0.0819 -0.0165  0.1178
  472BOLB   C4D11328  21.743  31.713  12.648  0.1871  0.1290 -0.0120
  473BOLB   NC111329  30.918  36.172  25.883 -0.1560  0.1507 -0.0001
  473BOLB   PO111330  31.134  35.971  26.176 -0.0200 -0.2252  0.3849
  473BOLB   GL111331  30.929  36.318  26.384  0.0619  0.0877  0.0418
  473BOLB   GL211332  30.671  36.285  26.484  0.0318  0.0119 -0.0701
  473BOLB   C1A11333  31.233  36.553  26.510 -0.4574 -0.2050  0.1545
  473BOLB   C2A11334  31.376  36.839  26.708  0.0086 -0.1328 -0.2736
  473BOLB   C3A11335  31.710  37.141  26.743  0.0285  0.0002  0.0945
  473BOLB   C4A11336  31.832  37.465  26.569  0.0460  0.0363  0.1130
  473BOLB   C1B11337  30.555  36.773  26.680 -0.0263 -0.4915 -0.1526
  473BOLB   C2B11338  30.278  37.017   0.010 -0.0591  0.0413 -0.3143
  473BOLB   C3B11339  30.467  37.166   0.363 -0.1098 -0.0725 -0.1159
  473BOLB   C4B11340  30.414  37.506   0.624 -0.0430 -0.0035 -0.1797
  473BOLB   NC211341  32.685  39.664   1.027 -0.0367 -0.2300 -0.1123
  473BOLB   PO211342  32.855  39.231   0.898  0.0941 -0.1805 -0.2585
  473BOLB   GL311343  32.458  38.991   0.718 -0.0539  0.1279 -0.0192
  473BOLB   GL411344  32.390  38.641   0.756 -0.1251 -0.0864  0.1647
  473BOLB   C1C11345  32.039  38.900   0.529 -0.1927  0.0631 -0.1490
  473BOLB   C2C11346  31.817  38.720   0.201  0.1699  0.0816  0.2405
  473BOLB   C3C11347  31.673  38.382  26.773 -0.1377  0.2462  0.0548
  473BOLB   C4C11348  31.784  37.975  26.563  0.0017  0.0010 -0.1549
  473BOLB   C1D11349  32.125  38.373   0.527  0.0720  0.2479 -0.0879
  473BOLB   C2D11350  31.926  38.225   0.247 -0.1086 -0.1735  0.2849
  473BOLB   C3D11351  31.815  37.794   0.111  0.0492  0.2453  0.1545
  473BOLB   C4D11352  32.040  37.452   0.113  0.2081  0.1898 -0.0401
  474BOLB   NC111353  29.962  29.170  14.089 -0.0442 -0.1880 -0.0566
  474BOLB   PO111354  29.893  28.778  14.275 -0.0810  0.1504  0.3570
  474BOLB   GL111355  30.184  28.762  13.887 -0.3058  0.1740  0.0089
  474BOLB   GL211356  29.955  28.921  13.641  0.0838 -0.0583  0.2420
  474BOLB   C1A11357  30.446  28.760  13.630 -0.2653  0.0353  0.3503
  474BOLB   C2A11358  30.572  28.732  13.188 -0.1652 -0.0020 -0.1211
  474BOLB   C3A11359  30.481  28.616  12.791 -0.1468  0.1430  0.2381
  474BOLB   C4A11360  30.204  28.540  12.481  0.0418 -0.5639  0.0467
  474BOLB   C1B11361  30.045  28.792  13.345  0.0040 -0.1075 -0.0123
  474BOLB   C2B11362  30.133  28.870  12.974 -0.0492 -0.3776 -0.1382
  474BOLB   C3B11363  30.432  29.078  12.721  0.0276 -0.0787 -0.0550
  474BOLB   C4B11364  30.420  29.135  12.194 -0.1076  0.1353  0.0617
  474BOLB   NC211365  31.494  28.220  10.311  0.2992 -0.0077  0.1920
  474BOLB   PO211366  31.133  28.440  10.153  0.3113  0.0576  0.0847
  474BOLB   GL311367  31.034  28.446  10.519  0.3602 -0.0647 -0.0837
  474BOLB   GL411368  30.979  28.706  10.659 -0.0222 -0.1659 -0.0785
  474BOLB   C1C11369  30.914  28.286  11.011  0.2552  0.0264 -0.2039
  474BOLB   C2C11370  30.582  28.080  11.337 -0.1942  0.0537  0.1553
  474BOLB   C3C11371  30.420  28.081  11.740 -0.2064  0.0831  0.0100
  474BOLB   C4C11372  30.163  28.277  12.091  0.0046 -0.2439 -0.1272
  474BOLB   C1D11373  30.982  28.990  11.032 -0.0295 -0.0338  0.1238
  474BOLB   C2D11374  31.141  29.497  11.220 -0.1653 -0.0541 -0.0353
  474BOLB   C3D11375  31.144  29.697  11.684 -0.1104 -0.1334  0.1877
  474BOLB   C4D11376  30.804  29.491  12.068  0.1034 -0.2690 -0.0453
  475BOLB   NC111377  18.346  20.946   2.359 -0.0288  0.1187 -0.0503
  475BOLB   PO111378  18.061  21.147   2.086  0.1548 -0.0850 -0.2057
  475BOLB   GL111379  18.328  21.017   1.747  0.2293  0.0560  0.1332
  475BOLB   GL211380  18.593  21.202   2.024  0.0237  0.5233  0.0707
  475BOLB   C1A11381  18.829  20.968   1.624 -0.0466 -0.0785 -0.1437
  475BOLB   C2A11382  19.187  20.917   1.355 -0.2449  0.1294  0.0885
  475BOLB   C3A11383  19.350  21.371   1.286 -0.4142 -0.1771  0.0180
  475BOLB   C4A11384  19.668  21.636   1.545 -0.2575  0.0627  0.0894
  475BOLB   C1B11385  18.943  21.004   2.196 -0.2401 -0.2079  0.0634
  475BOLB   C2B11386  19.303  21.139   1.838  0.3135  0.0752  0.1704
  475BOLB   C3B11387  19.807  21.231   1.857  0.0704 -0.0072 -0.0405
  475BOLB   C4B11388  20.210  21.201   1.684 -0.3784  0.2313 -0.0003
  475BOLB   NC211389  19.313  19.809   2.606 -0.1676  0.0008  0.0247
  475BOLB   PO211390  19.011  20.058   2.196  0.0553  0.0542  0.0353
  475BOLB   GL311391  19.114  20.433   2.060 -0.3111  0.1045  0.3094
  475BOLB   GL411392  19.225  20.529   1.806 -0.3585  0.2166  0.1111
  475BOLB   C1C11393  19.407  20.810   2.216  0.1011 -0.3983 -0.1629
  475BOLB   C2C11394  19.756  21.020   2.381 -0.0025 -0.1280  0.1421
  475BOLB   C3C11395  19.866  21.391   2.436  0.1495 -0.1633 -0.2424
  475BOLB   C4C11396  19.934  21.684   2.030  0.0635 -0.0232 -0.3894
  475BOLB   C1D11397  19.613  20.804   1.534  0.0117 -0.2319 -0.2267
  475BOLB   C2D11398  19.820  21.081   1.283  0.1123  0.1381  0.2211
  475BOLB   C3D11399  20.164  21.069   0.995  0.1795  0.0174 -0.3324
  475BOLB   C4D11400  20.536  20.942   0.785  0.1062 -0.2564 -0.1080
  476BOLB   NC111401  34.297  25.511  22.083 -0.1379 -0.1286 -0.1545
  476BOLB   PO111402  34.600  25.523  21.715  0.1936 -0.2605  0.0935
  476BOLB   GL111403  34.978  25.471  21.512 -0.3086  0.2991 -0.0843
  476BOLB   GL211404  35.093  25.162  21.422  0.3864  0.1851  0.0356
  476BOLB   C1A11405  35.459  25.494  21.542 -0.1810 -0.1457  0.1366
  476BOLB   C2A11406  35.863  25.310  21.573  0.2454 -0.4489  0.1223
  476BOLB   C3A11407  36.251  25.358  21.311  0.1700 -0.3927 -0.1680
  476BOLB   C4A11408  36.672  25.493  21.241  0.1465  0.1098  0.0237
  476BOLB   C1B11409  35.485  24.979  21.624 -0.2396  0.1975 -0.0018
  476BOLB   C2B11410  35.862  24.658  21.844 -0.5259  0.4450  0.2360
  476BOLB   C3B11411  36.158  24.396  21.693  0.0768 -0.2293 -0.0563
  476BOLB   C4B11412  36.359  24.113  21.556  0.2614  0.0591  0.1140
  476BOLB   NC211413  38.731  25.073  20.575 -0.2076  0.2978  0.3213
  476BOLB   PO211414  38.762  24.905  20.115 -0.3680 -0.2572 -0.0454
  476BOLB   GL311415  38.260  24.931  20.162  0.0445 -0.1427  0.3422
  476BOLB   GL411416  38.076  24.554  20.088  0.0258  0.0489 -0.0375
  476BOLB   C1C11417  38.020  25.039  20.492  0.1728  0.3199  0.2291
  476BOLB   C2C11418  37.809  25.326  20.806 -0.2121  0.1179  0.0612
  476BOLB   C3C11419  37.478  25.501  20.981 -0.3022 -0.0364 -0.0844
  476BOLB   C4C11420  37.105  25.655  21.051  0.1673 -0.0326 -0.0486
  476BOLB   C1D11421  37.783  24.967  20.063 -0.2055  0.0341 -0.1546
  476BOLB   C2D11422  37.552  25.278  20.245  0.3587  0.2060  0.1364
  476BOLB   C3D11423  37.435  25.120  20.558 -0.2119  0.1740 -0.2662
  476BOLB   C4D11424  37.061  25.222  20.785 -0.3197 -0.0104  0.1376
  477BOLB   NC111425  36.502  38.775  22.081  0.0006 -0.1315  0.2609
  477BOLB   PO111426  36.650  38.437  21.798 -0.1101  0.0820  0.3054
  477BOLB   GL111427  36.451  38.155  21.689 -0.0935 -0.1108  0.1934
  477BOLB   GL211428  36.400  38.297  21.327 -0.3740  0.0628 -0.1559
  477BOLB   C1A11429  36.381  37.690  21.718  0.0097 -0.1498 -0.1195
  477BOLB   C2A11430  36.136  37.430  21.655  0.3435 -0.1127  0.0927
  477BOLB   C3A11431  35.836  37.259  21.347 -0.0514 -0.0754 -0.1169
  477BOLB   C4A11432  35.608  37.113  21.107 -0.3464  0.1737  0.1334
  477BOLB   C1B11433  36.150  37.933  21.292  0.1222 -0.4055 -0.2860
  477BOLB   C2B11434  35.812  37.746  21.168 -0.0900 -0.0211 -0.3986
  477BOLB   C3B11435  35.510  37.657  21.156  0.3897 -0.1603  0.0148
  477BOLB   C4B11436  35.040  37.626  21.236  0.3506  0.4647  0.2465
  477BOLB   NC211437  36.841  38.117  20.432 -0.1812 -0.0641  0.2769
  477BOLB   PO211438  36.547  38.374  20.129 -0.1816 -0.0962 -0.0132
  477BOLB   GL311439  36.172  38.239  20.025 -0.1337 -0.0468 -0.1054
  477BOLB   GL411440  35.968  38.463  20.011  0.0996  0.0517  0.1499
  477BOLB   C1C11441  35.790  37.962  19.976 -0.0288 -0.3872 -0.2830
  477BOLB   C2C11442  35.769  37.518  19.927 -0.3164 -0.0304 -0.0173
  477BOLB   C3C11443  35.736  37.125  20.281  0.1263  0.2024  0.2560
  477BOLB   C4C11444  35.697  36.912  20.692  0.0432 -0.0006  0.0459
  477BOLB   C1D11445  35.641  38.402  19.812  0.2872 -0.0824  0.2246
  477BOLB   C2D11446  35.432  38.061  19.708  0.0355 -0.1725 -0.3974
  477BOLB   C3D11447  35.183  37.894  19.522 -0.0275 -0.2274  0.0878
  477BOLB   C4D11448  35.102  37.604  19.726 -0.2213  0.0498  0.2211
  478BOLB   NC111449  23.000  30.481  15.186 -0.2675 -0.3539  0.2624
  478BOLB   PO111450  22.721  30.418  14.837  0.3411  0.1060 -0.0667
  478BOLB   GL111451  22.680  30.486  14.354 -0.0225 -0.2116 -0.2362
  478BOLB   GL211452  22.668  30.282  14.166 -0.0304  0.0303 -0.1262
  478BOLB   C1A11453  22.375  30.666  14.117 -0.0010  0.1610 -0.2283
  478BOLB   C2A11454  21.887  30.503  14.107 -0.2630 -0.0677  0.4044
  478BOLB   C3A11455  21.564  30.313  13.964 -0.0917  0.0970  0.1796
  478BOLB   C4A11456  21.321  30.493  13.987  0.0435  0.0947 -0.2349
  478BOLB   C1B11457  22.555  30.353  13.727 -0.2520 -0.0925 -0.2710
  478BOLB   C2B11458  22.085  30.471  13.633 -0.0996  0.2467 -0.0042
  478BOLB   C3B11459  21.765  30.715  13.650  0.0326 -0.1284  0.0490
  478BOLB   C4B11460  21.578  30.953  13.349  0.0996  0.0747  0.0318
  478BOLB   NC211461  20.048  30.883  11.846 -0.0348  0.4984 -0.1366
  478BOLB   PO211462  19.998  31.359  11.868  0.0172 -0.1552  0.4614
  478BOLB   GL311463  20.112  31.202  12.246 -0.0992  0.2467 -0.0571
  478BOLB   GL411464  20.034  30.858  12.346 -0.0298 -0.0883  0.0472
  478BOLB   C1C11465  20.241  31.163  12.617 -0.4002  0.0331 -0.0624
  478BOLB   C2C11466  20.579  30.933  12.899 -0.1525 -0.2938 -0.1804
  478BOLB   C3C11467  20.782  30.769  13.260 -0.1372  0.2076  0.0556
  478BOLB   C4C11468  21.126  30.677  13.563 -0.0153 -0.0309 -0.1061
  478BOLB   C1D11469  20.291  30.576  12.552 -0.1645  0.0703  0.0137
  478BOLB   C2D11470  20.609  30.392  12.811 -0.2510 -0.1555  0.0349
  478BOLB   C3D11471  20.991  30.220  13.074 -0.2028  0.0041  0.0468
  478BOLB   C4D11472  21.464  30.373  13.383  0.1749  0.1563  0.1687
  479BOLB   NC111473  25.909  37.412  23.943  0.2074 -0.0957  0.0571
  479BOLB   PO111474  25.678  37.118  24.283 -0.0039 -0.3093 -0.3419
  479BOLB   GL111475  25.408  37.235  24.489  0.2613 -0.1651  0.1410
  479BOLB   GL211476  25.096  37.059  24.605 -0.1653 -0.0734 -0.0198
  479BOLB   C1A11477  25.164  37.559  24.590 -0.0301  0.1477 -0.0054
  479BOLB   C2A11478  24.777  37.725  24.593 -0.1787 -0.2768  0.2324
  479BOLB   C3A11479  24.423  38.037  24.688  0.1403  0.2167  0.1004
  479BOLB   C4A11480  24.067  38.263  24.995 -0.0708  0.2267  0.2953
  479BOLB   C1B11481  24.638  37.190  24.557  0.2231 -0.1327 -0.0140
  479BOLB   C2B11482  24.266  37.440  24.775  0.1457  0.1323  0.1637
  479BOLB   C3B11483  23.853  37.583  24.977  0.0258 -0.0025 -0.0420
  479BOLB   C4B11484  23.644  37.997  25.128  0.0347 -0.0246  0.0711
  479BOLB   NC211485  23.536  40.413  26.588  0.2024 -0.1285  0.0840
  479BOLB   PO211486  23.312  39.984  26.498 -0.1819  0.0043  0.0930
  479BOLB   GL311487  23.475  39.691  26.202 -0.1861  0.4001 -0.1039
  479BOLB   GL411488  23.218  39.489  26.038 -0.2362 -0.0473  0.1284
  479BOLB   C1C11489  23.680  39.328  26.113 -0.2292  0.0672  0.1968
  479BOLB   C2C11490  23.763  39.039  25.710  0.0499  0.1502 -0.2632
  479BOLB   C3C11491  23.984  38.847  25.386  0.1400 -0.0288 -0.1593
  479BOLB   C4C11492  24.113  38.584  25.268  0.3056  0.2530 -0.0639
  479BOLB   C1D11493  23.053  39.229  25.947 -0.1930  0.0351  0.2140
  479BOLB   C2D11494  23.233  38.817  25.875  0.1271 -0.0699 -0.0514
  479BOLB   C3D11495  23.487  38.541  25.812  0.2597  0.0142 -0.3171
  479BOLB   C4D11496  23.840  38.347  25.654  0.0830  0.1462 -0.0150
  480BOLB   NC111497  30.302  21.187  21.943 -0.0304 -0.1371  0.1563
  480BOLB   PO111498  29.980  21.389  21.911  0.0233  0.0542  0.1870
  480BOLB   GL111499  29.612  21.106  22.040 -0.2108 -0.1322 -0.1211
  480BOLB   GL211500  29.766  20.842  22.034 -0.2330  0.2251 -0.0744
  480BOLB   C1A11501  29.342  20.747  22.238  0.0229 -0.0316 -0.0684
  480BOLB   C2A11502  29.391  20.352  22.321  0.0205 -0.0661  0.0079
  480BOLB   C3A11503  29.358  19.969  22.215  0.0707 -0.2878 -0.3151
  480BOLB   C4A11504  29.571  19.646  22.207 -0.1653 -0.2223 -0.0430
  480BOLB   C1B11505  29.672  20.462  21.854  0.5141 -0.0493 -0.0085
  480BOLB   C2B11506  29.496  20.018  21.734 -0.1333  0.1589 -0.0717
  480BOLB   C3B11507  29.307  19.571  21.672  0.1648  0.0855  0.4115
  480BOLB   C4B11508  29.098  19.242  21.405  0.1797 -0.1472 -0.0419
  480BOLB   NC211509  31.202  18.131  23.373  0.1883 -0.0371  0.2806
  480BOLB   PO211510  31.036  17.908  22.946  0.0124 -0.3739  0.0697
  480BOLB   GL311511  30.610  17.995  23.073  0.3825 -0.1447 -0.3195
  480BOLB   GL411512  30.625  18.065  23.354 -0.1228  0.0881 -0.0358
  480BOLB   C1C11513  30.243  18.242  22.935 -0.1323 -0.2901  0.0461
  480BOLB   C2C11514  30.074  18.582  22.758  0.1426 -0.0122 -0.0030
  480BOLB   C3C11515  30.019  18.907  22.523  0.1492 -0.0552  0.1793
  480BOLB   C4C11516  29.769  19.311  22.420 -0.0600  0.1035  0.0552
  480BOLB   C1D11517  30.575  18.476  23.242  0.1455  0.0383 -0.2786
  480BOLB   C2D11518  30.601  18.744  23.479 -0.1274 -0.0706 -0.0371
  480BOLB   C3D11519  30.389  18.679  23.919 -0.0843 -0.1649  0.3884
  480BOLB   C4D11520  30.391  18.542  24.292 -0.0047 -0.0444  0.1885
  481BOLB   NC111521  26.339  30.586   3.123  0.1025 -0.2172 -0.3008
  481BOLB   PO111522  25.959  30.538   3.019 -0.3473 -0.0159  0.0263
  481BOLB   GL111523  25.995  30.483   3.525  0.1223 -0.2797 -0.2386
  481BOLB   GL211524  26.107  30.486   3.858 -0.2293 -0.1447  0.1854
  481BOLB   C1A11525  25.749  30.231   3.763  0.3326 -0.0871 -0.0302
  481BOLB   C2A11526  25.517  30.384   4.095 -0.1032  0.0371  0.0009
  481BOLB   C3A11527  25.578  30.589   4.520  0.2135 -0.1501  0.0532
  481BOLB   C4A11528  25.442  30.452   4.807 -0.3608  0.0356 -0.1513
  481BOLB   C1B11529  26.251  30.461   4.263 -0.0905 -0.1357  0.0257
  481BOLB   C2B11530  26.441  30.250   4.592 -0.3965  0.0101 -0.0993
  481BOLB   C3B11531  26.735  30.195   4.866  0.0032 -0.3053 -0.0087
  481BOLB   C4B11532  26.799  29.882   5.230  0.1965 -0.1172 -0.0799
  481BOLB   NC211533  24.462  30.143   7.102  0.0728  0.1245 -0.2316
  481BOLB   PO211534  24.416  30.603   7.005  0.1400 -0.0423 -0.0151
  481BOLB   GL311535  24.558  30.452   6.686  0.0861  0.0363  0.2838
  481BOLB   GL411536  24.572  30.120   6.612  0.2473 -0.0814 -0.0837
  481BOLB   C1C11537  24.695  30.394   6.206 -0.1192  0.4570 -0.2838
  481BOLB   C2C11538  24.923  30.139   5.856  0.1721  0.4868  0.0935
  481BOLB   C3C11539  25.198  30.275   5.536 -0.2409  0.3174 -0.1002
  481BOLB   C4C11540  25.140  30.326   5.130  0.1904 -0.1153 -0.0185
  481BOLB   C1D11541  24.264  29.861   6.537 -0.1386 -0.1002  0.0233
  481BOLB   C2D11542  23.957  29.531   6.560 -0.1565  0.0594 -0.0240
  481BOLB   C3D11543  23.549  29.393   6.426  0.1303 -0.1048  0.2457
  481BOLB   C4D11544  22.987  29.347   6.226 -0.3022  0.1181 -0.1052
  482BOLB   NC111545  33.113  25.873  26.406 -0.0922 -0.1433  0.0756
  482BOLB   PO111546  33.035  25.638  26.876  0.0988  0.0236  0.2130
  482BOLB   GL111547  33.282  25.266   0.032 -0.3089  0.2001  0.0855
  482BOLB   GL211548  33.219  25.311   0.324  0.0888  0.0183  0.0952
  482BOLB   C1A11549  33.744  25.129   0.069 -0.0296  0.1299  0.1060
  482BOLB   C2A11550  34.041  25.174   0.388  0.0989 -0.0870  0.0005
  482BOLB   C3A11551  34.258  25.313   0.738 -0.0560  0.0846 -0.0367
  482BOLB   C4A11552  34.330  25.371   1.148  0.1117 -0.1875  0.0303
  482BOLB   C1B11553  33.469  24.951   0.397 -0.0678 -0.1093 -0.0636
  482BOLB   C2B11554  33.509  24.561   0.451 -0.1085  0.2636  0.0585
  482BOLB   C3B11555  33.582  24.160   0.556 -0.0409 -0.0801 -0.2347
  482BOLB   C4B11556  33.804  23.743   0.704 -0.1540 -0.0202  0.1538
  482BOLB   NC211557  35.506  24.614   3.116 -0.4393  0.0298  0.0254
  482BOLB   PO211558  35.385  24.997   3.308  0.2265 -0.0503  0.0492
  482BOLB   GL311559  35.197  24.932   2.903 -0.0571  0.0113 -0.1041
  482BOLB   GL411560  34.892  25.140   2.829  0.2129 -0.1467 -0.1222
  482BOLB   C1C11561  35.218  24.828   2.448  0.0299 -0.3848  0.1905
  482BOLB   C2C11562  34.983  24.689   2.073 -0.0410 -0.1216  0.0772
  482BOLB   C3C11563  34.768  25.036   1.866  0.0357 -0.1289  0.0923
  482BOLB   C4C11564  34.497  25.229   1.583  0.3809 -0.0728  0.1872
  482BOLB   C1D11565  34.804  25.058   2.403  0.0186 -0.0991 -0.2837
  482BOLB   C2D11566  34.535  25.345   2.150  0.0126 -0.2682 -0.2719
  482BOLB   C3D11567  34.292  25.651   1.918 -0.1468 -0.0028  0.2029
  482BOLB   C4D11568  34.222  25.787   1.444 -0.2176 -0.2320 -0.2105
  483BOLB   NC111569  27.460  37.197  25.513  0.1738  0.3963  0.1680
  483BOLB   PO111570  27.850  37.358  25.483  0.1275 -0.1112 -0.0779
  483BOLB   GL111571  28.134  37.773  25.556  0.4271  0.1417 -0.0696
  483BOLB   GL211572  28.232  37.815  25.817  0.0199  0.1085  0.0959
  483BOLB   C1A11573  28.230  38.205  25.563  0.1595 -0.2532  0.2148
  483BOLB   C2A11574  28.138  38.665  25.709 -0.0745  0.0901  0.1768
  483BOLB   C3A11575  28.038  38.898  25.962 -0.1393 -0.3253  0.1321
  483BOLB   C4A11576  27.628  39.101  26.149 -0.1245 -0.1919  0.0589
  483BOLB   C1B11577  27.955  37.934  26.117  0.2289  0.2971 -0.1572
  483BOLB   C2B11578  27.513  38.183  26.157  0.1427 -0.2949  0.0629
  483BOLB   C3B11579  27.421  38.639  26.126  0.0045  0.2776  0.0505
  483BOLB   C4B11580  27.078  39.038  26.084 -0.3430 -0.0501  0.0006
  483BOLB   NC211581  27.428  40.970   1.233 -0.0126 -0.2232 -0.2267
  483BOLB   PO211582  27.294  40.813   0.849  0.2935  0.0707  0.1436
  483BOLB   GL311583  27.261  40.377   0.585  0.0615  0.1081  0.0392
  483BOLB   GL411584  27.597  40.080   0.632 -0.4246 -0.0880 -0.0758
  483BOLB   C1C11585  27.026  40.154   0.317  0.0660 -0.0709 -0.0971
  483BOLB   C2C11586  26.920  39.853   0.009 -0.1662 -0.0397  0.1221
  483BOLB   C3C11587  27.019  39.663  26.533 -0.1732 -0.0313 -0.0362
  483BOLB   C4C11588  27.471  39.553  26.405 -0.0700 -0.0699  0.0154
  483BOLB   C1D11589  27.417  39.786   0.284  0.0703  0.1207  0.0342
  483BOLB   C2D11590  27.306  39.487  26.855 -0.1524  0.0020 -0.1302
  483BOLB   C3D11591  26.836  39.327  26.881  0.2365  0.1121 -0.0421
  483BOLB   C4D11592  26.813  38.891  26.825  0.0911  0.0991 -0.2216
  484BOLB   NC111593  25.177  29.283  13.531  0.0718 -0.3404  0.3079
  484BOLB   PO111594  25.158  29.595  13.497  0.3759  0.1309  0.0498
  484BOLB   GL111595  25.038  29.798  13.153  0.3250  0.0375 -0.0523
  484BOLB   GL211596  24.743  29.774  12.900  0.3452 -0.3641  0.1858
  484BOLB   C1A11597  24.863  30.303  13.011  0.1238  0.0962 -0.1167
  484BOLB   C2A11598  24.560  30.644  12.741 -0.0685  0.2014  0.1353
  484BOLB   C3A11599  24.336  30.710  12.378 -0.0629  0.1445  0.2919
  484BOLB   C4A11600  24.193  30.600  11.987  0.3233 -0.1150  0.0181
  484BOLB   C1B11601  24.691  30.078  12.593 -0.0069  0.1589 -0.0148
  484BOLB   C2B11602  24.607  30.130  12.091 -0.2355  0.2598 -0.0835
  484BOLB   C3B11603  24.646  29.959  11.694  0.4037 -0.0613  0.2377
  484BOLB   C4B11604  24.864  29.854  11.327 -0.0752  0.2637  0.0434
  484BOLB   NC211605  22.836  31.361   9.835 -0.2898 -0.1404 -0.0808
  484BOLB   PO211606  22.850  31.106  10.161 -0.0744  0.1737  0.3279
  484BOLB   GL311607  23.224  30.793  10.306  0.1555  0.4471 -0.1698
  484BOLB   GL411608  23.464  30.521  10.155  0.0674 -0.0239 -0.1504
  484BOLB   C1C11609  23.379  30.488  10.687 -0.0580 -0.1968  0.1649
  484BOLB   C2C11610  23.646  30.475  10.993  0.2376  0.0467  0.1665
  484BOLB   C3C11611  23.546  30.589  11.375  0.1320 -0.1108 -0.1424
  484BOLB   C4C11612  23.890  30.665  11.700  0.0542  0.0980 -0.2226
  484BOLB   C1D11613  23.661  30.199  10.396  0.1493  0.2123 -0.1928
  484BOLB   C2D11614  23.957  30.214  10.793  0.1840  0.0566 -0.0506
  484BOLB   C3D11615  24.108  30.395  11.153  0.1414  0.0375 -0.2992
  484BOLB   C4D11616  24.259  30.333  11.526 -0.0188 -0.0299 -0.1919
  485BOLB   NC111617  21.802  35.278  21.750  0.0703  0.4139 -0.1443
  485BOLB   PO111618  21.727  35.595  21.760  0.0350  0.0908  0.0762
  485BOLB   GL111619  21.491  35.881  21.548  0.4087  0.0223  0.0580
  485BOLB   GL211620  21.219  35.975  21.721 -0.0143  0.1710 -0.1085
  485BOLB   C1A11621  21.394  36.127  21.227  0.2120  0.0171 -0.4190
  485BOLB   C2A11622  21.094  36.443  21.122  0.4012  0.2566 -0.2096
  485BOLB   C3A11623  20.758  36.682  20.878 -0.1148  0.1883  0.3389
  485BOLB   C4A11624  20.649  37.070  20.592 -0.2371  0.1241 -0.0997
  485BOLB   C1B11625  20.765  35.945  21.749 -0.1190 -0.2174  0.1482
  485BOLB   C2B11626  20.317  36.187  21.732 -0.0564 -0.0975 -0.0957
  485BOLB   C3B11627  20.027  36.116  21.552 -0.2138 -0.2174  0.0101
  485BOLB   C4B11628  19.688  36.225  21.504  0.1629  0.3383 -0.0407
  485BOLB   NC211629  18.866  38.943  21.104  0.1560 -0.1314  0.1221
  485BOLB   PO211630  18.820  38.708  20.714  0.0402 -0.2052 -0.2486
  485BOLB   GL311631  19.255  38.457  20.689 -0.0193 -0.3857  0.1558
  485BOLB   GL411632  19.145  38.212  20.751 -0.1295  0.1649  0.5557
  485BOLB   C1C11633  19.635  38.400  20.793  0.2647  0.0468 -0.0017
  485BOLB   C2C11634  19.916  37.976  20.856  0.0609  0.1034 -0.5244
  485BOLB   C3C11635  20.029  37.580  20.680  0.1940  0.0424  0.0892
  485BOLB   C4C11636  20.323  37.309  20.447  0.1070 -0.0078 -0.2255
  485BOLB   C1D11637  19.477  37.887  20.671  0.0563 -0.1042  0.0217
  485BOLB   C2D11638  19.557  37.400  20.667  0.1796  0.2060 -0.0858
  485BOLB   C3D11639  19.842  37.161  20.970  0.0843  0.0162  0.2049
  485BOLB   C4D11640  20.326  37.052  20.912  0.0014 -0.0185  0.0453
  486BOLB   NC111641  27.495  34.997  15.563  0.0924 -0.0303 -0.1574
  486BOLB   PO111642  27.213  35.331  15.526  0.1456 -0.0428  0.0841
  486BOLB   GL111643  27.133  35.763  15.361 -0.2972 -0.1844  0.2922
  486BOLB   GL211644  26.808  35.847  15.411 -0.2086  0.2827  0.2068
  486BOLB   C1A11645  27.168  36.060  15.021 -0.0628 -0.1941 -0.2395
  486BOLB   C2A11646  27.163  36.417  14.779 -0.0679  0.6332  0.0702
  486BOLB   C3A11647  27.155  36.769  14.473  0.1314 -0.0847  0.0901
  486BOLB   C4A11648  27.238  37.143  14.239 -0.0501  0.0972 -0.1033
  486BOLB   C1B11649  26.607  36.086  15.181  0.0510  0.0220  0.2278
  486BOLB   C2B11650  26.304  36.296  14.882 -0.4678 -0.0930  0.0463
  486BOLB   C3B11651  26.316  36.370  14.409 -0.1694  0.0336  0.2251
  486BOLB   C4B11652  26.155  36.688  14.079 -0.0095 -0.2685  0.0390
  486BOLB   NC211653  28.391  37.392  11.552  0.0735 -0.1053 -0.0219
  486BOLB   PO211654  28.072  37.322  11.889  0.0572 -0.0910  0.0632
  486BOLB   GL311655  27.874  37.279  12.372 -0.2113 -0.2628  0.2405
  486BOLB   GL411656  27.929  37.492  12.570 -0.2534 -0.0177 -0.1514
  486BOLB   C1C11657  27.610  36.962  12.733 -0.3691 -0.0864  0.1141
  486BOLB   C2C11658  27.563  36.780  13.198 -0.1803  0.1444 -0.0255
  486BOLB   C3C11659  27.737  37.064  13.601  0.0055  0.1981  0.0789
  486BOLB   C4C11660  27.562  37.074  13.960  0.2253 -0.1728 -0.2546
  486BOLB   C1D11661  28.225  37.290  12.816  0.3926  0.2514 -0.3904
  486BOLB   C2D11662  28.560  37.129  12.896 -0.2769 -0.0741  0.1532
  486BOLB   C3D11663  28.734  36.683  12.974 -0.1772  0.0152  0.1387
  486BOLB   C4D11664  29.128  36.581  12.872 -0.2293  0.1591  0.1831
  487BOLB   NC111665  30.108  26.168   1.800 -0.0812  0.1254 -0.0669
  487BOLB   PO111666  30.313  26.249   1.337  0.0613  0.0045 -0.5089
  487BOLB   GL111667  30.595  26.040   1.666  0.0173 -0.2432 -0.3070
  487BOLB   GL211668  30.727  25.702   1.763 -0.1463  0.1409  0.0996
  487BOLB   C1A11669  30.790  25.995   2.203 -0.2357  0.0957  0.2196
  487BOLB   C2A11670  31.041  25.785   2.434 -0.1741 -0.0930  0.2199
  487BOLB   C3A11671  31.113  25.543   2.834 -0.4088  0.0456  0.2810
  487BOLB   C4A11672  31.219  25.300   3.237 -0.0268 -0.0285  0.0866
  487BOLB   C1B11673  30.746  25.447   2.146  0.3382  0.2233 -0.0339
  487BOLB   C2B11674  30.622  25.140   2.524 -0.0270 -0.0717  0.1845
  487BOLB   C3B11675  30.524  24.687   2.600 -0.0344 -0.1033 -0.0510
  487BOLB   C4B11676  30.630  24.308   2.596  0.0763 -0.0145 -0.0521
  487BOLB   NC211677  31.957  22.700   4.288 -0.2680  0.0655  0.0059
  487BOLB   PO211678  31.680  22.986   4.264  0.2003  0.1091 -0.2278
  487BOLB   GL311679  31.630  23.126   3.803 -0.1919 -0.1926  0.1087
  487BOLB   GL411680  31.869  23.388   3.973  0.1554 -0.0870 -0.4133
  487BOLB   C1C11681  31.491  23.537   3.555 -0.1247 -0.1888 -0.0624
  487BOLB   C2C11682  31.355  23.954   3.367  0.0089  0.0489 -0.0937
  487BOLB   C3C11683  31.324  24.461   3.263  0.1314  0.3235 -0.2750
  487BOLB   C4C11684  31.356  24.872   3.261 -0.2382 -0.5632  0.2235
  487BOLB   C1D11685  31.600  23.834   3.992 -0.0080 -0.2624  0.0951
  487BOLB   C2D11686  31.402  24.243   3.875 -0.0509 -0.0904  0.0339
  487BOLB   C3D11687  31.159  24.647   3.707  0.0658  0.0887  0.2342
  487BOLB   C4D11688  30.919  24.770   3.943  0.3491  0.1836  0.0439
  488BOLB   NC111689  32.453  31.725   1.680 -0.2149 -0.4212 -0.1425
  488BOLB   PO111690  32.654  31.592   1.294  0.1031  0.1607 -0.1648
  488BOLB   GL111691  33.058  31.551   1.367  0.0792  0.3160 -0.0154
  488BOLB   GL211692  33.191  31.242   1.518  0.2109 -0.1958  0.1328
  488BOLB   C1A11693  33.435  31.575   1.784 -0.2955  0.0425  0.0299
  488BOLB   C2A11694  33.598  31.894   2.115 -0.0442 -0.3376  0.1121
  488BOLB   C3A11695  33.696  31.916   2.449  0.3828 -0.1888  0.0107
  488BOLB   C4A11696  33.880  31.736   2.752 -0.1413 -0.1746  0.0225
  488BOLB   C1B11697  33.608  31.112   1.602 -0.1935  0.2494 -0.1527
  488BOLB   C2B11698  33.912  30.911   1.890 -0.3884 -0.3602 -0.0075
  488BOLB   C3B11699  33.947  30.889   2.356 -0.0498  0.0777  0.0346
  488BOLB   C4B11700  33.689  30.901   2.772 -0.1662 -0.3444  0.2666
  488BOLB   NC211701  35.275  32.084   4.264 -0.0214  0.5964  0.1185
  488BOLB   PO211702  35.442  31.628   4.376  0.2657  0.2385  0.0130
  488BOLB   GL311703  35.120  31.508   4.143 -0.1845 -0.1567 -0.0707
  488BOLB   GL411704  35.277  31.318   3.910 -0.0883 -0.1626 -0.1232
  488BOLB   C1C11705  34.880  31.586   3.794  0.0134  0.2460 -0.0684
  488BOLB   C2C11706  34.463  31.534   3.669  0.2003 -0.2237  0.3312
  488BOLB   C3C11707  34.100  31.387   3.485  0.2236 -0.2383 -0.0725
  488BOLB   C4C11708  33.927  31.488   3.058  0.2407  0.2916  0.2378
  488BOLB   C1D11709  35.056  31.063   3.723  0.1788  0.2626  0.1810
  488BOLB   C2D11710  35.092  30.840   3.362  0.0135 -0.1624 -0.1202
  488BOLB   C3D11711  34.835  30.867   3.087 -0.3623 -0.0626  0.2111
  488BOLB   C4D11712  34.623  30.653   2.777 -0.2015  0.2072  0.0673
  489BOLB   NC111713  22.831  36.349  23.539  0.2475 -0.1408  0.0218
  489BOLB   PO111714  22.698  36.128  23.753  0.2037 -0.1198 -0.0618
  489BOLB   GL111715  22.441  36.446  23.906  0.1325 -0.0948 -0.1113
  489BOLB   GL211716  22.545  36.758  23.774 -0.0180 -0.0481 -0.1653
  489BOLB   C1A11717  22.066  36.692  23.890  0.5470 -0.2198  0.0668
  489BOLB   C2A11718  21.702  36.687  23.628  0.0536  0.0924  0.3213
  489BOLB   C3A11719  21.256  36.546  23.784  0.0548  0.0340  0.1398
  489BOLB   C4A11720  20.897  36.628  23.919 -0.0775  0.5496  0.0064
  489BOLB   C1B11721  22.345  37.088  23.834 -0.1966 -0.1470  0.2447
  489BOLB   C2B11722  21.837  37.127  23.737  0.2734  0.1553 -0.0812
  489BOLB   C3B11723  21.872  37.484  23.869 -0.0299 -0.0108 -0.2043
  489BOLB   C4B11724  21.985  37.909  24.038 -0.0224  0.0107  0.2277
  489BOLB   NC211725  18.853  37.272  25.930 -0.2441 -0.1567  0.1625
  489BOLB   PO211726  19.025  37.357  25.611 -0.0911 -0.1511  0.2362
  489BOLB   GL311727  19.398  37.290  25.445 -0.0350  0.0896  0.2070
  489BOLB   GL411728  19.340  37.167  25.133  0.1751  0.0890 -0.1206
  489BOLB   C1C11729  19.808  37.163  25.364 -0.1691  0.1479 -0.1046
  489BOLB   C2C11730  20.226  36.932  25.105 -0.1124  0.3093 -0.0374
  489BOLB   C3C11731  20.467  36.692  24.830 -0.1304  0.0338 -0.1696
  489BOLB   C4C11732  20.698  36.682  24.350 -0.0928  0.0287  0.1058
  489BOLB   C1D11733  19.133  36.800  25.316 -0.2894 -0.0884  0.2283
  489BOLB   C2D11734  18.841  36.430  25.257 -0.0218 -0.1500 -0.1405
  489BOLB   C3D11735  18.772  36.130  25.114 -0.2389  0.1433  0.3467
  489BOLB   C4D11736  18.901  35.607  25.287  0.0399 -0.1421  0.1095
  490BOLB   NC111737  32.865  33.624  26.602  0.1304 -0.0245 -0.1255
  490BOLB   PO111738  32.600  33.926  26.916 -0.5336 -0.0274  0.0648
  490BOLB   GL111739  33.023  34.006  26.917 -0.2995  0.0423  0.2202
  490BOLB   GL211740  32.978  34.328  26.789  0.2596  0.3170  0.0997
  490BOLB   C1A11741  33.380  34.161   0.112  0.2750 -0.1164 -0.1353
  490BOLB   C2A11742  33.759  34.208   0.324 -0.1348  0.2797  0.2376
  490BOLB   C3A11743  34.271  34.276   0.333  0.0805 -0.0645 -0.1832
  490BOLB   C4A11744  34.653  34.472   0.366 -0.0147 -0.1366  0.0478
  490BOLB   C1B11745  33.302  34.647  26.849 -0.2581  0.0961  0.2178
  490BOLB   C2B11746  33.654  34.837   0.254 -0.0299 -0.1059 -0.1176
  490BOLB   C3B11747  33.989  35.126   0.557  0.2672 -0.2125  0.1172
  490BOLB   C4B11748  34.312  35.232   0.431 -0.2672  0.0059  0.3223
  490BOLB   NC211749  36.194  34.578   2.213  0.1021 -0.1843  0.1439
  490BOLB   PO211750  36.223  34.133   2.234 -0.1132 -0.0452  0.0662
  490BOLB   GL311751  35.918  34.130   2.134  0.1138  0.0496  0.4544
  490BOLB   GL411752  35.903  33.918   1.921 -0.1350  0.0539  0.3290
  490BOLB   C1C11753  35.626  34.322   1.729  0.1318  0.0952  0.0318
  490BOLB   C2C11754  35.119  34.434   1.498 -0.0194 -0.0345  0.2605
  490BOLB   C3C11755  34.809  34.317   1.189  0.4116  0.1159 -0.0233
  490BOLB   C4C11756  34.770  34.414   0.769  0.0755 -0.2022  0.0411
  490BOLB   C1D11757  35.544  33.814   1.646  0.2230 -0.1197  0.2284
  490BOLB   C2D11758  35.356  33.454   1.455  0.3145 -0.2092  0.0648
  490BOLB   C3D11759  35.470  33.002   1.524 -0.1734 -0.1566  0.1368
  490BOLB   C4D11760  35.626  32.606   1.628 -0.3360  0.1460  0.0453
  491BOLB   NC111761  35.007  30.301  18.000  0.0390 -0.0629 -0.2510
  491BOLB   PO111762  35.403  30.122  17.748  0.2059 -0.3169  0.3209
  491BOLB   GL111763  35.846  30.121  17.583 -0.2875  0.1314 -0.1704
  491BOLB   GL211764  35.977  30.394  17.802 -0.0182 -0.1723 -0.1451
  491BOLB   C1A11765  36.173  30.341  17.272  0.0563 -0.0983 -0.3674
  491BOLB   C2A11766  36.565  30.577  17.089 -0.1476 -0.1392 -0.0737
  491BOLB   C3A11767  36.814  30.867  16.926  0.2535  0.2328  0.0605
  491BOLB   C4A11768  36.780  31.022  16.563 -0.1362  0.2609 -0.1224
  491BOLB   C1B11769  36.141  30.705  17.616  0.4563 -0.0799 -0.1375
  491BOLB   C2B11770  36.548  30.899  17.502 -0.4423 -0.1045 -0.0569
  491BOLB   C3B11771  36.762  31.266  17.545  0.0303  0.2592  0.0205
  491BOLB   C4B11772  36.476  31.712  17.376 -0.0385 -0.0835  0.0387
  491BOLB   NC211773  39.114  31.833  16.415  0.2239 -0.0368  0.0697
  491BOLB   PO211774  38.931  31.780  16.162  0.2726  0.1106  0.2464
  491BOLB   GL311775  38.486  31.805  16.152 -0.1045 -0.1966  0.2526
  491BOLB   GL411776  38.218  32.039  16.237 -0.2418  0.0758 -0.4888
  491BOLB   C1C11777  38.050  31.527  16.323  0.2170  0.1451  0.1235
  491BOLB   C2C11778  37.872  31.125  16.584  0.0121 -0.3642 -0.2492
  491BOLB   C3C11779  37.528  30.919  16.508 -0.2565  0.2106 -0.1021
  491BOLB   C4C11780  37.078  31.024  16.256  0.1011  0.0570 -0.1588
  491BOLB   C1D11781  38.103  31.933  16.659  0.1254  0.1555  0.0022
  491BOLB   C2D11782  37.785  31.777  16.785 -0.0665 -0.0834 -0.1171
  491BOLB   C3D11783  37.507  31.504  16.652  0.0275  0.0828 -0.1619
  491BOLB   C4D11784  37.217  31.187  16.838  0.2199  0.1973  0.0077
  492BOLB   NC111785  29.951  21.376  22.900 -0.1056 -0.1141 -0.2199
  492BOLB   PO111786  29.546  21.427  22.537 -0.0081  0.0142  0.0995
  492BOLB   GL111787  29.423  21.163  22.568 -0.2063  0.0873 -0.0127
  492BOLB   GL211788  29.711  20.926  22.580  0.5059  0.0227 -0.2072
  492BOLB   C1A11789  29.187  20.836  22.877  0.0275 -0.0430  0.0680
  492BOLB   C2A11790  29.062  20.448  23.110  0.0068  0.1300 -0.3927
  492BOLB   C3A11791  29.045  19.955  23.158 -0.1274 -0.0219 -0.1959
  492BOLB   C4A11792  28.935  19.457  23.137 -0.1854 -0.0330  0.0247
  492BOLB   C1B11793  29.829  20.491  22.482 -0.3561 -0.0166  0.0591
  492BOLB   C2B11794  29.890  20.161  22.193 -0.2904 -0.1073  0.3378
  492BOLB   C3B11795  30.135  19.863  21.942 -0.1418  0.0589  0.1541
  492BOLB   C4B11796  30.520  19.969  21.683  0.2321 -0.0945 -0.1895
  492BOLB   NC211797  29.652  17.290  24.050 -0.0342 -0.0038 -0.0168
  492BOLB   PO211798  29.313  17.345  24.146  0.0100 -0.4647 -0.0217
  492BOLB   GL311799  29.259  17.709  23.930  0.1714 -0.1872 -0.1326
  492BOLB   GL411800  29.056  17.818  23.596  0.2168  0.0050  0.2494
  492BOLB   C1C11801  29.351  18.110  23.809 -0.1450 -0.3598  0.0975
  492BOLB   C2C11802  29.024  18.476  23.771 -0.1352  0.0626 -0.0673
  492BOLB   C3C11803  29.023  18.853  23.832 -0.3862  0.0986 -0.0869
  492BOLB   C4C11804  28.895  19.203  23.564 -0.1159  0.4156  0.1323
  492BOLB   C1D11805  28.830  18.108  23.372 -0.2609  0.0221 -0.4280
  492BOLB   C2D11806  28.623  18.371  23.074  0.2414  0.2292  0.2029
  492BOLB   C3D11807  28.376  18.190  22.740  0.3180  0.1305  0.0252
  492BOLB   C4D11808  28.219  17.748  22.581  0.3095 -0.0761 -0.0884
  493BOLB   NC111809  32.844  32.557  16.110 -0.1991 -0.1648  0.0729
  493BOLB   PO111810  33.221  32.305  15.967  0.0969 -0.1715 -0.2268
  493BOLB   GL111811  33.511  31.975  15.782  0.0949  0.3198 -0.0148
  493BOLB   GL211812  33.909  31.944  15.688  0.0674 -0.1305 -0.1448
  493BOLB   C1A11813  33.596  32.291  15.420  0.1687 -0.1361  0.0023
  493BOLB   C2A11814  33.897  32.324  15.146 -0.0563 -0.0731  0.0449
  493BOLB   C3A11815  33.980  32.645  14.915 -0.0165  0.0788  0.1772
  493BOLB   C4A11816  33.958  32.934  14.748  0.3656 -0.2013  0.3491
  493BOLB   C1B11817  34.126  31.763  15.345 -0.2923 -0.1975 -0.0217
  493BOLB   C2B11818  34.455  31.819  14.944 -0.1420 -0.0828  0.0175
  493BOLB   C3B11819  34.490  31.799  14.429  0.1249 -0.2914 -0.2761
  493BOLB   C4B11820  34.530  32.021  13.977  0.1516  0.0452 -0.3006
  493BOLB   NC211821  35.672  33.237  12.942 -0.0826 -0.2170  0.2775
  493BOLB   PO211822  35.736  33.388  13.357 -0.0093 -0.0431 -0.1661
  493BOLB   GL311823  35.440  33.228  13.699 -0.0330 -0.1639  0.4104
  493BOLB   GL411824  35.166  33.504  13.707  0.1827  0.0306 -0.1659
  493BOLB   C1C11825  35.286  32.954  13.987 -0.0605 -0.1366  0.1972
  493BOLB   C2C11826  34.897  32.920  14.213 -0.0443 -0.0171  0.1476
  493BOLB   C3C11827  34.450  33.016  14.217  0.1720  0.1774  0.1728
  493BOLB   C4C11828  34.120  33.052  14.473  0.0119  0.0082  0.1699
  493BOLB   C1D11829  34.920  33.200  13.814  0.2114 -0.0198 -0.2953
  493BOLB   C2D11830  34.648  33.532  13.983  0.1596 -0.2280 -0.1473
  493BOLB   C3D11831  34.295  33.827  13.924  0.1990  0.3261 -0.0060
  493BOLB   C4D11832  34.131  33.985  14.267  0.2169 -0.0067  0.0167
  494BOLB   NC111833  28.910  28.253   2.777  0.1768 -0.2281 -0.0899
  494BOLB   PO111834  29.091  27.900   3.036  0.4234 -0.1341  0.0238
  494BOLB   GL111835  29.157  28.085   3.446  0.2095 -0.0100  0.0864
  494BOLB   GL211836  28.974  28.391   3.601 -0.1145 -0.2050  0.1136
  494BOLB   C1A11837  29.284  28.028   3.797  0.3820  0.2739  0.3253
  494BOLB   C2A11838  29.509  28.102   4.159  0.0294  0.1919 -0.2467
  494BOLB   C3A11839  29.598  28.115   4.608 -0.0054  0.3825 -0.0665
  494BOLB   C4A11840  30.051  28.034   4.758  0.0917 -0.3391 -0.2538
  494BOLB   C1B11841  29.003  28.525   3.972 -0.0989  0.2090  0.1278
  494BOLB   C2B11842  29.244  28.750   4.285  0.2504 -0.0530  0.0806
  494BOLB   C3B11843  29.418  28.636   4.763 -0.1815 -0.2936 -0.2778
  494BOLB   C4B11844  29.584  28.576   5.255  0.3533  0.1242  0.0197
  494BOLB   NC211845  31.149  27.693   6.658 -0.2290  0.0081 -0.0630
  494BOLB   PO211846  31.517  27.778   6.355  0.0967 -0.0845 -0.2382
  494BOLB   GL311847  31.159  27.753   6.099 -0.0390 -0.0554 -0.1687
  494BOLB   GL411848  30.837  27.832   6.186 -0.4906 -0.1910  0.0519
  494BOLB   C1C11849  31.081  27.684   5.691  0.0227 -0.1611 -0.1087
  494BOLB   C2C11850  30.977  27.429   5.382 -0.2731 -0.0521 -0.0002
  494BOLB   C3C11851  30.702  27.644   5.021 -0.0013 -0.0010 -0.1061
  494BOLB   C4C11852  30.403  27.881   4.699  0.3125  0.0413 -0.0958
  494BOLB   C1D11853  30.485  27.789   5.933 -0.1578  0.0581  0.0480
  494BOLB   C2D11854  30.297  28.139   5.633  0.0933  0.0289  0.0664
  494BOLB   C3D11855  30.497  28.430   5.312  0.0747  0.0846  0.4589
  494BOLB   C4D11856  30.709  28.247   4.933 -0.1981  0.1198 -0.1528
  495BOLB   NC111857  33.569  27.571  17.336 -0.0324  0.0461 -0.0243
  495BOLB   PO111858  33.864  27.554  17.004  0.1960  0.1609 -0.0483
  495BOLB   GL111859  34.269  27.470  16.717  0.3105 -0.0491 -0.0212
  495BOLB   GL211860  34.446  27.736  16.613 -0.1273  0.2065 -0.0447
  495BOLB   C1A11861  34.553  27.192  16.525 -0.3407 -0.1158  0.0777
  495BOLB   C2A11862  34.755  26.850  16.346  0.3053 -0.0345  0.0784
  495BOLB   C3A11863  35.042  27.040  16.060 -0.2566 -0.1018 -0.0353
  495BOLB   C4A11864  35.301  26.909  15.676  0.2390 -0.2600 -0.3599
  495BOLB   C1B11865  34.766  27.617  16.386  0.2266 -0.1679 -0.2660
  495BOLB   C2B11866  35.127  27.693  16.086 -0.1719 -0.1502  0.0405
  495BOLB   C3B11867  35.517  27.572  16.072 -0.3071  0.4313  0.4391
  495BOLB   C4B11868  35.980  27.754  15.946 -0.4709  0.0634  0.1673
  495BOLB   NC211869  36.445  26.197  13.598  0.3575 -0.0726 -0.0997
  495BOLB   PO211870  36.267  26.572  13.469 -0.2875 -0.0446  0.3259
  495BOLB   GL311871  36.207  26.774  13.909 -0.0778 -0.2116 -0.2071
  495BOLB   GL411872  36.098  26.487  13.963 -0.2617  0.1987 -0.0492
  495BOLB   C1C11873  36.154  26.765  14.350  0.1644  0.0148 -0.1039
  495BOLB   C2C11874  35.983  26.915  14.683  0.1693  0.1591  0.0975
  495BOLB   C3C11875  35.671  26.772  14.948  0.0951 -0.0256 -0.3463
  495BOLB   C4C11876  35.420  26.840  15.282  0.3061 -0.0801  0.1495
  495BOLB   C1D11877  35.742  26.772  14.082  0.3368 -0.2018 -0.0771
  495BOLB   C2D11878  35.589  26.870  14.437 -0.1854 -0.4829  0.1598
  495BOLB   C3D11879  35.441  27.127  14.766 -0.1628 -0.1391  0.0370
  495BOLB   C4D11880  35.415  27.436  15.069 -0.2552  0.0528  0.1114
  496BOLB   NC111881  19.812  31.808  23.269 -0.2725  0.0657 -0.2625
  496BOLB   PO111882  19.773  32.281  23.146 -0.0036 -0.0526 -0.3158
  496BOLB   GL111883  19.407  32.416  23.167  0.3250  0.1545 -0.2367
  496BOLB   GL211884  19.405  32.802  23.254  0.1319 -0.1150 -0.0790
  496BOLB   C1A11885  19.012  32.478  23.105 -0.3174  0.1043  0.0628
  496BOLB   C2A11886  18.796  32.769  22.702  0.5151  0.1399  0.1257
  496BOLB   C3A11887  18.648  33.102  22.421  0.0371  0.1533 -0.1873
  496BOLB   C4A11888  18.380  33.347  22.485  0.2875  0.3616  0.2549
  496BOLB   C1B11889  19.033  32.854  23.576 -0.1206  0.0130  0.0860
  496BOLB   C2B11890  18.666  33.222  23.639 -0.2698 -0.1441  0.0259
  496BOLB   C3B11891  18.505  33.496  23.249  0.1615  0.0282 -0.2284
  496BOLB   C4B11892  18.329  33.948  23.248 -0.0351 -0.1107  0.0467
  496BOLB   NC211893  17.045  34.826  23.187 -0.1582  0.3200  0.0876
  496BOLB   PO211894  16.736  34.747  22.907 -0.2273 -0.1451  0.0239
  496BOLB   GL311895  17.016  34.413  22.890 -0.1644 -0.0477 -0.0078
  496BOLB   GL411896  16.868  34.146  22.779 -0.2714 -0.3682  0.0161
  496BOLB   C1C11897  17.305  34.392  22.524 -0.0933 -0.0054 -0.0675
  496BOLB   C2C11898  17.607  34.148  22.525  0.3684  0.1510  0.3019
  496BOLB   C3C11899  18.041  33.947  22.784 -0.1370 -0.5116  0.0890
  496BOLB   C4C11900  18.390  33.683  22.692 -0.3999  0.0407 -0.0327
  496BOLB   C1D11901  17.235  33.943  22.837  0.3711  0.0205  0.0784
  496BOLB   C2D11902  17.616  33.893  23.094  0.0568  0.0069 -0.0703
  496BOLB   C3D11903  17.907  33.553  23.161 -0.1298  0.0988 -0.0623
  496BOLB   C4D11904  18.010  33.382  22.852  0.1853 -0.1877  0.0247
  497BOLB   NC111905  29.622  31.857   2.237 -0.1166 -0.0761  0.1029
  497BOLB   PO111906  29.820  31.525   2.499 -0.0442 -0.5689  0.0181
  497BOLB   GL111907  29.921  31.572   2.953  0.0414 -0.0549  0.1501
  497BOLB   GL211908  29.680  31.758   3.099  0.2453  0.3933  0.1268
  497BOLB   C1A11909  30.042  31.594   3.474  0.0251 -0.1599 -0.1031
  497BOLB   C2A11910  29.951  31.507   4.005  0.1683 -0.0946 -0.0165
  497BOLB   C3A11911  29.941  31.426   4.427 -0.2158  0.4155 -0.1576
  497BOLB   C4A11912  30.006  31.594   4.785 -0.1925 -0.0546 -0.2832
  497BOLB   C1B11913  29.690  32.020   3.437  0.1345  0.0223  0.0404
  497BOLB   C2B11914  29.641  31.881   3.778  0.2513 -0.3683  0.1805
  497BOLB   C3B11915  29.350  31.938   4.142  0.0002 -0.1279  0.1245
  497BOLB   C4B11916  28.931  32.059   4.261 -0.0157 -0.1031  0.2177
  497BOLB   NC211917  31.267  32.602   6.989  0.5302  0.4442 -0.1992
  497BOLB   PO211918  31.012  32.939   6.683 -0.2128 -0.1622 -0.1249
  497BOLB   GL311919  30.786  32.844   6.271  0.1039 -0.2073 -0.1083
  497BOLB   GL411920  30.667  33.051   6.064  0.0663 -0.1999  0.1087
  497BOLB   C1C11921  30.691  32.538   5.930 -0.2612  0.1675 -0.0457
  497BOLB   C2C11922  30.468  32.545   5.595 -0.3044  0.1861  0.0499
  497BOLB   C3C11923  30.368  32.189   5.292  0.2049  0.1020 -0.2219
  497BOLB   C4C11924  30.128  31.952   5.023  0.1395  0.1902  0.0532
  497BOLB   C1D11925  30.272  33.015   5.833 -0.1359 -0.0162  0.0606
  497BOLB   C2D11926  30.090  32.786   5.503 -0.2589  0.0776  0.1974
  497BOLB   C3D11927  29.728  32.701   5.544 -0.0360 -0.2127  0.2308
  497BOLB   C4D11928  29.523  32.403   5.612  0.1680  0.0282  0.0193
  498BOLB   NC111929  27.905  25.305  15.520  0.1499  0.2839  0.0592
  498BOLB   PO111930  27.609  24.983  15.339 -0.2815 -0.0521  0.1510
  498BOLB   GL111931  27.558  24.902  14.958  0.1469  0.1083 -0.0368
  498BOLB   GL211932  27.782  24.709  14.815 -0.4504 -0.1483  0.3735
  498BOLB   C1A11933  27.338  24.540  14.719  0.0239  0.2416  0.0750
  498BOLB   C2A11934  27.397  24.264  14.357 -0.5372 -0.2001  0.0122
  498BOLB   C3A11935  27.408  24.049  13.967 -0.3767 -0.2579  0.0572
  498BOLB   C4A11936  27.578  23.818  13.577 -0.0333 -0.0740  0.3155
  498BOLB   C1B11937  27.756  24.669  14.344  0.1215 -0.3378  0.1638
  498BOLB   C2B11938  27.812  24.353  14.016 -0.0967  0.0209 -0.2505
  498BOLB   C3B11939  27.842  24.054  14.148 -0.1758  0.1497 -0.2810
  498BOLB   C4B11940  28.069  23.911  14.499 -0.1931 -0.3335  0.0284
  498BOLB   NC211941  26.963  21.360  12.384  0.0290  0.1942 -0.1744
  498BOLB   PO211942  27.142  21.774  12.163 -0.3483 -0.1230  0.0694
  498BOLB   GL311943  27.226  21.985  12.519  0.1200 -0.2203  0.1850
  498BOLB   GL411944  27.508  21.898  12.758 -0.2181  0.0049  0.2500
  498BOLB   C1C11945  27.316  22.369  12.760 -0.0960 -0.1694  0.1328
  498BOLB   C2C11946  27.358  22.846  12.717  0.0076 -0.0841  0.1903
  498BOLB   C3C11947  27.296  23.181  13.042 -0.0686 -0.0969  0.0209
  498BOLB   C4C11948  27.332  23.459  13.300  0.1310 -0.2475 -0.0160
  498BOLB   C1D11949  27.168  21.977  13.034  0.0226 -0.2518 -0.0373
  498BOLB   C2D11950  26.987  21.912  13.455 -0.2491  0.1482  0.0400
  498BOLB   C3D11951  26.978  21.941  13.886  0.1036  0.3282  0.0490
  498BOLB   C4D11952  27.178  22.113  14.136  0.4064 -0.0399  0.2411
  499BOLB   NC111953  23.400  35.362  17.473 -0.0467 -0.1476  0.0265
  499BOLB   PO111954  23.465  35.299  17.131  0.2488  0.0851  0.1215
  499BOLB   GL111955  23.142  35.637  17.065 -0.1664  0.1979 -0.1914
  499BOLB   GL211956  22.994  35.841  17.364  0.0375 -0.1769  0.2043
  499BOLB   C1A11957  22.877  35.856  16.672 -0.1848  0.1192  0.2522
  499BOLB   C2A11958  22.392  35.989  16.536 -0.0222 -0.1191 -0.4162
  499BOLB   C3A11959  22.110  36.137  16.209 -0.1507  0.1822  0.2057
  499BOLB   C4A11960  21.894  35.965  15.771  0.1887 -0.1086 -0.1635
  499BOLB   C1B11961  22.890  36.218  17.412  0.2287  0.0050  0.1913
  499BOLB   C2B11962  22.724  36.540  17.614  0.0618  0.0511 -0.0718
  499BOLB   C3B11963  22.585  36.973  17.488  0.0559  0.1112  0.2219
  499BOLB   C4B11964  22.311  37.300  17.321  0.1469  0.1099 -0.0704
  499BOLB   NC211965  19.994  36.451  15.103  0.0300  0.1092 -0.0644
  499BOLB   PO211966  20.053  36.920  15.244  0.1115  0.3034  0.1380
  499BOLB   GL311967  20.392  36.793  15.424  0.2879  0.3486 -0.2166
  499BOLB   GL411968  20.519  36.721  15.785  0.1176  0.0544 -0.2155
  499BOLB   C1C11969  20.727  36.427  15.427 -0.2193  0.1775 -0.1147
  499BOLB   C2C11970  20.963  36.075  15.279  0.0588  0.0580 -0.1400
  499BOLB   C3C11971  21.205  35.721  15.431 -0.2567  0.1625  0.1114
  499BOLB   C4C11972  21.544  35.823  15.650  0.0159  0.0681 -0.1152
  499BOLB   C1D11973  20.672  36.335  15.895 -0.2191  0.0719 -0.1058
  499BOLB   C2D11974  20.724  35.938  15.709  0.0921 -0.1091  0.2275
  499BOLB   C3D11975  20.956  35.550  15.845 -0.0968  0.0224 -0.1346
  499BOLB   C4D11976  21.323  35.447  16.071  0.0728  0.2025  0.0806
  500BOLB   NC111977  34.351  33.010  24.475  0.3018  0.1090  0.1376
  500BOLB   PO111978  34.873  33.304  24.611 -0.0382 -0.2165 -0.0106
  500BOLB   GL111979  34.961  33.729  24.739  0.0865  0.1055  0.1921
  500BOLB   GL211980  34.871  33.870  24.428  0.1128 -0.1470 -0.1905
  500BOLB   C1A11981  35.394  33.965  24.811  0.1109  0.1404 -0.4845
  500BOLB   C2A11982  35.756  34.240  25.022  0.1692  0.1444 -0.1945
  500BOLB   C3A11983  35.857  34.577  25.305 -0.1545  0.3484 -0.0718
  500BOLB   C4A11984  36.015  35.034  25.211  0.0264  0.0719 -0.3616
  500BOLB   C1B11985  34.937  34.290  24.667 -0.1438  0.1364  0.0106
  500BOLB   C2B11986  35.270  34.577  24.816 -0.3092  0.0105  0.2132
  500BOLB   C3B11987  35.585  34.800  24.823  0.1081  0.1501 -0.0855
  500BOLB   C4B11988  35.910  35.153  24.768 -0.0468 -0.1864 -0.0728
  500BOLB   NC211989  38.214  36.791  24.735 -0.0686  0.1282 -0.0193
  500BOLB   PO211990  37.941  36.366  24.895  0.3824 -0.0748 -0.0043
  500BOLB   GL311991  37.559  36.060  24.812 -0.1003  0.1197 -0.0502
  500BOLB   GL411992  37.246  36.189  24.778  0.0310  0.3816  0.0344
  500BOLB   C1C11993  37.275  35.707  24.867  0.2270 -0.1186 -0.2694
  500BOLB   C2C11994  36.787  35.784  25.026 -0.0261  0.0893 -0.0587
  500BOLB   C3C11995  36.320  35.770  25.068  0.2048  0.0301 -0.1433
  500BOLB   C4C11996  36.053  35.426  25.172 -0.3517 -0.3150 -0.1195
  500BOLB   C1D11997  37.050  35.993  24.513 -0.1071  0.3554 -0.0294
  500BOLB   C2D11998  36.651  35.713  24.391  0.0287  0.1231  0.0093
  500BOLB   C3D11999  36.309  35.336  24.228 -0.2621 -0.2568  0.2075
  500BOLB   C4D12000  36.127  35.001  24.354 -0.2029  0.2669  0.0525
  501BOLB   NC112001  20.076  33.482  22.438 -0.2719  0.3417  0.0186
  501BOLB   PO112002  20.241  33.595  22.671  0.2777 -0.4559 -0.0924
  501BOLB   GL112003  19.770  33.686  22.857 -0.0380  0.1120  0.2250
  501BOLB   GL212004  19.655  34.029  22.830 -0.1667  0.3369  0.1792
  501BOLB   C1A12005  19.203  33.590  22.815  0.1824  0.0774 -0.0757
  501BOLB   C2A12006  18.782  33.419  22.808 -0.0292 -0.1470 -0.2857
  501BOLB   C3A12007  18.440  33.107  22.938  0.2988  0.2440 -0.2069
  501BOLB   C4A12008  18.212  33.124  23.273 -0.0676 -0.0518 -0.0536
  501BOLB   C1B12009  19.565  34.285  23.067 -0.0972  0.3055  0.1121
  501BOLB   C2B12010  19.293  34.584  23.338 -0.0692 -0.1421  0.0089
  501BOLB   C3B12011  18.953  34.771  23.572 -0.1594 -0.2836 -0.0923
  501BOLB   C4B12012  18.549  35.033  23.540  0.1706  0.1286 -0.0719
  501BOLB   NC212013  16.952  34.541  24.519  0.0561  0.0845  0.0296
  501BOLB   PO212014  16.674  34.180  24.593 -0.0566  0.6362  0.1098
  501BOLB   GL312015  17.019  34.031  24.506  0.2115 -0.1949  0.0879
  501BOLB   GL412016  17.161  33.992  24.179  0.1470  0.1660  0.1663
  501BOLB   C1C12017  17.513  33.989  24.450  0.0402 -0.2297 -0.0916
  501BOLB   C2C12018  17.812  33.712  24.261  0.1374 -0.2145 -0.1017
  501BOLB   C3C12019  18.097  33.444  23.950  0.0305 -0.0097 -0.2736
  501BOLB   C4C12020  18.110  33.099  23.671 -0.2695  0.2626 -0.0739
  501BOLB   C1D12021  17.180  33.885  23.678 -0.4179 -0.0879 -0.0946
  501BOLB   C2D12022  17.342  33.538  23.402  0.0700  0.2652 -0.0243
  501BOLB   C3D12023  17.703  33.179  23.452  0.0368 -0.2054  0.2658
  501BOLB   C4D12024  17.709  32.794  23.335  0.0368  0.1268  0.0049
  502BOLB   NC112025  32.402  36.414  21.929 -0.3138  0.3982  0.1449
  502BOLB   PO112026  32.156  36.680  22.196  0.2741 -0.0971 -0.0311
  502BOLB   GL112027  32.352  36.960  22.374 -0.3740  0.0467  0.1687
  502BOLB   GL212028  32.208  37.295  22.477  0.3227 -0.1134 -0.0491
  502BOLB   C1A12029  32.659  37.124  22.577  0.0121  0.0337 -0.0662
  502BOLB   C2A12030  32.916  37.417  22.469  0.1865 -0.2845 -0.1892
  502BOLB   C3A12031  33.233  37.526  22.278  0.0107 -0.0736 -0.3457
  502BOLB   C4A12032  33.585  37.632  22.041 -0.1850 -0.2559 -0.1738
  502BOLB   C1B12033  32.147  37.687  22.382  0.0730  0.0513 -0.1011
  502BOLB   C2B12034  32.336  38.122  22.245 -0.1481 -0.0215 -0.3964
  502BOLB   C3B12035  32.579  38.536  22.418  0.2704  0.2617 -0.0514
  502BOLB   C4B12036  32.621  38.889  22.619  0.2792 -0.0702  0.2011
  502BOLB   NC212037  34.781  39.780  22.737 -0.0455  0.1500  0.0404
  502BOLB   PO212038  35.065  39.564  22.461  0.1610  0.4190  0.1769
  502BOLB   GL312039  34.782  39.243  22.145  0.2058 -0.0106 -0.0455
  502BOLB   GL412040  34.517  39.346  22.074 -0.0488  0.0661 -0.0628
  502BOLB   C1C12041  34.479  38.871  22.378 -0.0045  0.1604  0.1567
  502BOLB   C2C12042  34.329  38.453  22.295  0.0026  0.1889  0.1264
  502BOLB   C3C12043  34.287  38.132  22.161  0.2082 -0.4439  0.1898
  502BOLB   C4C12044  34.002  37.856  21.999 -0.1134  0.2486 -0.1134
  502BOLB   C1D12045  34.109  39.208  22.266 -0.1034 -0.0297 -0.0740
  502BOLB   C2D12046  33.925  38.778  22.296 -0.5359 -0.2260  0.0074
  502BOLB   C3D12047  33.830  38.257  22.411 -0.3677 -0.1861 -0.0042
  502BOLB   C4D12048  33.824  37.797  22.603 -0.2328  0.1079 -0.4475
  503BOLB   NC112049  26.543  34.230  14.882  0.1144  0.0958 -0.0013
  503BOLB   PO112050  26.335  34.557  15.013  0.0057  0.1472  0.0170
  503BOLB   GL112051  26.319  34.807  14.589  0.1327  0.0557  0.4446
  503BOLB   GL212052  26.592  34.889  14.564  0.4877  0.4688  0.0756
  503BOLB   C1A12053  26.207  35.059  14.133  0.0951 -0.1414 -0.1013
  503BOLB   C2A12054  26.558  35.048  13.817  0.4195  0.0211  0.0732
  503BOLB   C3A12055  26.635  34.954  13.390  0.0618 -0.0425  0.0040
  503BOLB   C4A12056  26.637  34.869  12.839 -0.3818  0.0037  0.1950
  503BOLB   C1B12057  26.889  34.954  14.234  0.0895  0.4183 -0.6367
  503BOLB   C2B12058  26.980  35.307  13.956  0.0958  0.1896  0.2349
  503BOLB   C3B12059  27.147  35.667  13.811 -0.2194 -0.1359  0.0245
  503BOLB   C4B12060  27.301  35.768  13.410  0.0464  0.2714 -0.3557
  503BOLB   NC212061  27.245  36.377  10.967 -0.1102 -0.3948  0.1545
  503BOLB   PO212062  27.047  36.010  10.715 -0.3787  0.1135 -0.0041
  503BOLB   GL312063  27.013  35.689  11.037  0.3152  0.0225  0.0750
  503BOLB   GL412064  27.022  35.447  10.870 -0.1904 -0.0692  0.2935
  503BOLB   C1C12065  27.111  35.509  11.406 -0.1426  0.1477 -0.3785
  503BOLB   C2C12066  26.938  35.458  11.906 -0.1406 -0.1253  0.3029
  503BOLB   C3C12067  26.941  35.327  12.285  0.0095 -0.3876 -0.1642
  503BOLB   C4C12068  26.729  35.187  12.562  0.1220 -0.0425 -0.1970
  503BOLB   C1D12069  26.963  35.071  11.061 -0.3139 -0.1359  0.0065
  503BOLB   C2D12070  26.652  34.843  11.151 -0.1399 -0.1404  0.0261
  503BOLB   C3D12071  26.486  34.505  11.323 -0.1937 -0.1775  0.2242
  503BOLB   C4D12072  26.571  34.176  11.578  0.1232 -0.0404 -0.0106
  504BOLB   NC112073  32.370  26.252  16.040 -0.2355  0.0395  0.3845
  504BOLB   PO112074  32.354  26.014  16.366  0.0410 -0.0219 -0.2451
  504BOLB   GL112075  32.760  25.755  16.222  0.1122 -0.3002  0.1546
  504BOLB   GL212076  32.734  25.536  16.042 -0.0556  0.2594  0.2356
  504BOLB   C1A12077  33.136  25.607  15.856  0.2020  0.0214  0.0608
  504BOLB   C2A12078  33.487  25.371  15.677  0.2727 -0.0368  0.1351
  504BOLB   C3A12079  33.835  25.075  15.551 -0.1325  0.0163  0.3231
  504BOLB   C4A12080  34.176  24.938  15.372 -0.0084 -0.1164 -0.2781
  504BOLB   C1B12081  32.727  25.554  15.557  0.0536 -0.1671  0.0689
  504BOLB   C2B12082  32.520  25.649  15.306 -0.0343 -0.1145 -0.1132
  504BOLB   C3B12083  32.796  25.481  14.913 -0.1021  0.0629 -0.1337
  504BOLB   C4B12084  33.162  25.289  14.734  0.0597 -0.0751 -0.0905
  504BOLB   NC212085  35.361  25.092  13.418  0.1901  0.0431  0.3002
  504BOLB   PO212086  35.291  24.788  13.760  0.4231 -0.2099 -0.1629
  504BOLB   GL312087  35.248  25.207  14.000 -0.0115  0.2241 -0.2537
  504BOLB   GL412088  35.054  25.411  13.775 -0.1753  0.0184  0.1450
  504BOLB   C1C12089  35.200  25.429  14.319 -0.1078  0.2222 -0.0669
  504BOLB   C2C12090  34.870  25.315  14.422 -0.0590  0.0101 -0.0383
  504BOLB   C3C12091  34.673  24.968  14.711  0.2450 -0.1615 -0.2806
  504BOLB   C4C12092  34.424  25.076  15.156  0.3441  0.3644 -0.0933
  504BOLB   C1D12093  34.922  25.886  13.655 -0.0447  0.1046  0.2574
  504BOLB   C2D12094  34.795  26.164  14.016  0.0899  0.5030  0.3425
  504BOLB   C3D12095  34.444  26.131  14.254 -0.2933  0.1683 -0.1400
  504BOLB   C4D12096  34.284  26.175  14.776 -0.0193  0.0735  0.2921
  505BOLB   NC112097  22.842  35.329  25.815 -0.2583  0.1446  0.0823
  505BOLB   PO112098  22.695  34.961  25.961 -0.0351  0.0143 -0.3105
  505BOLB   GL112099  22.247  34.966  26.007  0.1665  0.0257 -0.0589
  505BOLB   GL212100  22.260  34.729  26.169 -0.2085 -0.3047 -0.1524
  505BOLB   C1A12101  22.009  35.361  26.218 -0.3709  0.1408 -0.1038
  505BOLB   C2A12102  21.969  35.761  26.200  0.1952  0.3509  0.1805
  505BOLB   C3A12103  21.931  36.113  26.376 -0.0212 -0.2402 -0.0985
  505BOLB   C4A12104  21.802  36.557  26.255  0.2091  0.0316 -0.0422
  505BOLB   C1B12105  22.061  34.958  26.494 -0.2797 -0.1054 -0.0654
  505BOLB   C2B12106  21.778  35.228  26.701  0.0262 -0.0046 -0.1738
  505BOLB   C3B12107  21.809  35.539   0.108 -0.1197  0.1007  0.0474
  505BOLB   C4B12108  21.797  35.801   0.527  0.0779 -0.4468 -0.1743
  505BOLB   NC212109  19.981  38.457  26.883 -0.4644 -0.1478  0.0766
  505BOLB   PO212110  20.083  38.525   0.276  0.1491 -0.1475  0.0935
  505BOLB   GL312111  20.425  38.255  26.871 -0.0257 -0.0095 -0.0551
  505BOLB   GL412112  20.433  38.161  26.544 -0.0757 -0.0391  0.0467
  505BOLB   C1C12113  20.515  37.797  26.854 -0.0074 -0.0339  0.1509
  505BOLB   C2C12114  20.811  37.400  26.867 -0.0975 -0.2500  0.0017
  505BOLB   C3C12115  21.244  37.263  26.641 -0.1240 -0.2281  0.0023
  505BOLB   C4C12116  21.436  36.943  26.351  0.0270 -0.1022 -0.1391
  505BOLB   C1D12117  20.350  37.775  26.313  0.0561  0.1272  0.0360
  505BOLB   C2D12118  20.283  37.348  26.095 -0.1214 -0.0152  0.0221
  505BOLB   C3D12119  20.492  36.817  26.120 -0.1573 -0.3184 -0.0674
  505BOLB   C4D12120  20.804  36.559  25.860 -0.1800  0.0309  0.0147
  506BOLB   NC112121  36.184  33.959   2.727  0.0687 -0.1957 -0.1067
  506BOLB   PO112122  36.517  33.711   2.896  0.2550 -0.1706 -0.2035
  506BOLB   GL112123  36.352  33.402   2.703  0.0721  0.1016 -0.0079
  506BOLB   GL212124  36.273  33.569   2.464  0.0457 -0.3621 -0.2666
  506BOLB   C1A12125  36.063  33.037   2.456 -0.0147 -0.2630  0.0645
  506BOLB   C2A12126  35.763  32.843   2.094 -0.0235  0.3324  0.0477
  506BOLB   C3A12127  35.437  32.599   2.095 -0.1077  0.2702 -0.4993
  506BOLB   C4A12128  34.978  32.609   2.269 -0.2510 -0.3846  0.0199
  506BOLB   C1B12129  36.098  33.379   2.103  0.1360 -0.1519  0.0101
  506BOLB   C2B12130  35.704  33.299   1.896 -0.2782 -0.0482  0.0328
  506BOLB   C3B12131  35.316  33.546   2.001 -0.5193  0.0664 -0.3777
  506BOLB   C4B12132  35.375  33.935   2.203 -0.0396  0.0337 -0.0994
  506BOLB   NC212133  35.085  33.470   4.135  0.0869 -0.2058 -0.0002
  506BOLB   PO212134  34.906  33.867   3.956 -0.0099 -0.2499 -0.0132
  506BOLB   GL312135  34.593  33.582   3.934  0.1683 -0.2396  0.1407
  506BOLB   GL412136  34.310  33.612   4.079  0.1035 -0.0327  0.1956
  506BOLB   C1C12137  34.479  33.156   3.764  0.3921 -0.3113 -0.0023
  506BOLB   C2C12138  34.435  32.933   3.371  0.1305 -0.0010  0.3489
  506BOLB   C3C12139  34.670  32.639   3.105 -0.0741  0.1750 -0.1254
  506BOLB   C4C12140  34.962  32.689   2.701  0.0757  0.1613  0.1969
  506BOLB   C1D12141  34.038  33.447   3.698 -0.1058  0.1036 -0.0616
  506BOLB   C2D12142  33.599  33.144   3.792 -0.0296  0.3277  0.0267
  506BOLB   C3D12143  33.539  32.853   4.103  0.1908  0.1746  0.1699
  506BOLB   C4D12144  33.158  32.763   4.348 -0.1224  0.0323 -0.2587
  507BOLB   NC112145  30.550  36.216  16.858  0.0383  0.0684  0.0127
  507BOLB   PO112146  30.306  36.483  17.067  0.2790  0.0890  0.1514
  507BOLB   GL112147  30.564  36.770  16.895  0.2948  0.2730 -0.0947
  507BOLB   GL212148  30.687  36.593  16.563 -0.0686  0.2230  0.1520
  507BOLB   C1A12149  31.013  36.929  16.726 -0.0569  0.0347  0.0086
  507BOLB   C2A12150  31.346  37.223  16.530 -0.2962 -0.2467  0.1403
  507BOLB   C3A12151  31.388  37.671  16.581  0.4358 -0.3658  0.1409
  507BOLB   C4A12152  31.442  38.083  16.645  0.0344 -0.0236  0.4087
  507BOLB   C1B12153  30.943  36.737  16.270 -0.1984  0.1116 -0.3056
  507BOLB   C2B12154  31.232  37.021  16.094  0.2240 -0.0370  0.3233
  507BOLB   C3B12155  31.365  37.475  16.108  0.3252  0.2936 -0.0188
  507BOLB   C4B12156  31.327  37.774  15.969  0.1462 -0.0643 -0.3069
  507BOLB   NC212157  32.963  39.873  16.676  0.0826 -0.0276  0.3642
  507BOLB   PO212158  32.540  39.914  16.374  0.1538  0.1518 -0.0311
  507BOLB   GL312159  32.614  39.469  16.441 -0.0630 -0.1837  0.3281
  507BOLB   GL412160  32.709  39.379  16.812  0.1717 -0.1277  0.0660
  507BOLB   C1C12161  32.441  39.080  16.254 -0.1515  0.0864  0.1290
  507BOLB   C2C12162  32.387  38.726  16.435 -0.2080 -0.1910  0.0281
  507BOLB   C3C12163  32.004  38.501  16.444  0.1082 -0.1397  0.0941
  507BOLB   C4C12164  31.677  38.434  16.607 -0.0095 -0.4655 -0.4228
  507BOLB   C1D12165  32.528  38.893  16.928 -0.0656  0.1508  0.4657
  507BOLB   C2D12166  32.492  38.657  17.335 -0.1150 -0.1819  0.0552
  507BOLB   C3D12167  32.426  38.501  17.732 -0.3332 -0.4909 -0.1932
  507BOLB   C4D12168  32.451  38.074  17.938  0.1584 -0.0498 -0.0775
  508BOLB   NC112169  34.272  30.570  16.764 -0.1933 -0.2680 -0.1257
  508BOLB   PO112170  34.162  30.879  16.435  0.3180  0.1975  0.0947
  508BOLB   GL112171  34.595  30.962  16.283  0.0256 -0.2048 -0.3079
  508BOLB   GL212172  34.417  31.082  16.054 -0.0744 -0.0166  0.0358
  508BOLB   C1A12173  34.960  30.961  16.051 -0.4748 -0.4035  0.1965
  508BOLB   C2A12174  35.325  30.896  15.966 -0.0618 -0.1528 -0.0514
  508BOLB   C3A12175  35.585  30.932  16.233 -0.0228  0.0895 -0.2201
  508BOLB   C4A12176  35.954  31.051  16.204 -0.2020  0.0139  0.0579
  508BOLB   C1B12177  34.668  31.001  15.660  0.4062 -0.0183  0.0272
  508BOLB   C2B12178  35.098  31.141  15.489  0.0719 -0.0266 -0.1181
  508BOLB   C3B12179  35.326  31.009  15.125 -0.0166 -0.0816  0.1920
  508BOLB   C4B12180  35.213  30.762  14.716  0.2157 -0.0791  0.1049
  508BOLB   NC212181  37.761  31.574  14.638 -0.0322  0.0767 -0.0124
  508BOLB   PO212182  37.730  31.153  14.722  0.1745  0.3623  0.3075
  508BOLB   GL312183  37.360  31.165  14.860 -0.1673  0.2319  0.1862
  508BOLB   GL412184  37.324  30.879  15.014  0.0604 -0.0535  0.0453
  508BOLB   C1C12185  37.113  31.280  15.244 -0.4730 -0.1028 -0.1595
  508BOLB   C2C12186  36.974  31.217  15.757 -0.2384 -0.0726 -0.2751
  508BOLB   C3C12187  36.671  31.380  15.967 -0.1176  0.2126 -0.4366
  508BOLB   C4C12188  36.372  31.075  16.233  0.2104 -0.0203  0.0155
  508BOLB   C1D12189  37.426  30.887  15.460  0.3214  0.0016 -0.2571
  508BOLB   C2D12190  37.425  31.019  15.889 -0.2893 -0.3586  0.0726
  508BOLB   C3D12191  37.651  31.266  16.149  0.0089  0.0167  0.0489
  508BOLB   C4D12192  37.760  31.842  16.194  0.0494 -0.0227 -0.0072
  509BOLB   NC112193  34.895  33.914  23.212 -0.1049  0.0109 -0.0757
  509BOLB   PO112194  34.854  34.075  22.861 -0.1986  0.0972  0.3945
  509BOLB   GL112195  35.348  34.098  23.061  0.2209 -0.1192  0.1121
  509BOLB   GL212196  35.356  34.422  22.855 -0.2550  0.2007 -0.0419
  509BOLB   C1A12197  35.741  34.262  23.203  0.1069 -0.2974 -0.0141
  509BOLB   C2A12198  36.179  34.264  23.237  0.2708 -0.2157  0.0017
  509BOLB   C3A12199  36.674  34.153  23.206  0.0671  0.0141  0.1189
  509BOLB   C4A12200  36.930  34.459  23.281  0.0926 -0.1257 -0.2087
  509BOLB   C1B12201  35.664  34.651  22.873  0.1596  0.1976 -0.2494
  509BOLB   C2B12202  35.968  34.935  23.051  0.3687  0.1612 -0.0162
  509BOLB   C3B12203  36.375  34.908  23.324 -0.2666 -0.5875  0.2846
  509BOLB   C4B12204  36.757  34.904  23.575 -0.1001  0.1491 -0.0187
  509BOLB   NC212205  38.342  36.153  24.152  0.0516 -0.2307 -0.0506
  509BOLB   PO212206  38.105  36.295  23.895 -0.0445 -0.1767  0.0141
  509BOLB   GL312207  37.848  35.939  24.026  0.2250 -0.2807 -0.3667
  509BOLB   GL412208  37.888  35.865  24.455 -0.1821 -0.0288  0.2560
  509BOLB   C1C12209  37.819  35.477  24.010  0.2315 -0.0133 -0.0332
  509BOLB   C2C12210  37.663  35.064  24.090  0.0636 -0.0067 -0.2207
  509BOLB   C3C12211  37.519  34.734  23.898 -0.1503 -0.4460 -0.1255
  509BOLB   C4C12212  37.282  34.780  23.547 -0.1922  0.2111 -0.2231
  509BOLB   C1D12213  37.512  35.673  24.355  0.2431 -0.0464 -0.2494
  509BOLB   C2D12214  37.116  35.550  24.214  0.2472  0.0077 -0.0352
  509BOLB   C3D12215  36.792  35.241  23.980  0.1118  0.3760  0.3043
  509BOLB   C4D12216  36.407  35.089  23.794 -0.0725 -0.0970  0.1241
  510BOLB   NC112217  20.014  31.089  18.488 -0.1073 -0.0483  0.2203
  510BOLB   PO112218  20.223  31.483  18.498 -0.2062  0.0418  0.0156
  510BOLB   GL112219  19.840  31.558  18.229  0.2067  0.1758  0.1661
  510BOLB   GL212220  19.765  31.220  17.997 -0.0523 -0.1366 -0.0323
  510BOLB   C1A12221  19.670  31.833  17.815 -0.0345 -0.2540  0.0559
  510BOLB   C2A12222  19.341  31.975  17.583  0.2491 -0.0013 -0.1898
  510BOLB   C3A12223  18.930  32.065  17.573 -0.1715 -0.1614 -0.3337
  510BOLB   C4A12224  18.772  32.300  18.006 -0.0255 -0.1329  0.4543
  510BOLB   C1B12225  19.354  31.460  18.067  0.2219 -0.2726 -0.1844
  510BOLB   C2B12226  18.913  31.347  17.864 -0.3446 -0.0372  0.0728
  510BOLB   C3B12227  18.592  31.473  17.538 -0.0965 -0.1357  0.4593
  510BOLB   C4B12228  18.115  31.658  17.422 -0.1269  0.3359 -0.2652
  510BOLB   NC212229  16.095  33.234  17.632  0.0283 -0.0890 -0.3505
  510BOLB   PO212230  16.535  33.328  17.677  0.0487  0.0429  0.1497
  510BOLB   GL312231  16.947  33.114  17.765  0.0965  0.3492 -0.3231
  510BOLB   GL412232  16.942  32.824  17.518 -0.1273  0.1198 -0.3718
  510BOLB   C1C12233  17.272  32.883  17.860  0.0159  0.1126  0.1377
  510BOLB   C2C12234  17.638  32.524  17.824  0.2727  0.1465 -0.2058
  510BOLB   C3C12235  17.897  32.280  17.975 -0.0064  0.0446  0.0302
  510BOLB   C4C12236  18.299  32.208  18.181 -0.1479  0.0570 -0.3378
  510BOLB   C1D12237  17.365  32.633  17.404 -0.5375  0.1034  0.0205
  510BOLB   C2D12238  17.892  32.562  17.366 -0.0864  0.4010 -0.0691
  510BOLB   C3D12239  18.278  32.874  17.358  0.1648 -0.0854 -0.2736
  510BOLB   C4D12240  18.583  33.189  17.547 -0.1925 -0.0765  0.2184
  511BOLB   NC112241  31.608  35.279  17.456  0.0239 -0.2023  0.2678
  511BOLB   PO112242  31.598  35.397  17.030 -0.2187  0.3131 -0.0236
  511BOLB   GL112243  31.798  35.739  16.673 -0.0873  0.0742  0.3417
  511BOLB   GL212244  31.464  35.957  16.488 -0.7760  0.0044  0.0777
  511BOLB   C1A12245  32.132  36.128  16.577 -0.0357 -0.1726 -0.3161
  511BOLB   C2A12246  32.398  36.513  16.427 -0.0027 -0.1298  0.0084
  511BOLB   C3A12247  32.643  36.799  16.383  0.1243  0.4027  0.4276
  511BOLB   C4A12248  32.817  37.221  16.286  0.3071 -0.0114  0.0661
  511BOLB   C1B12249  31.679  36.222  16.328 -0.0851  0.2703  0.0229
  511BOLB   C2B12250  31.994  36.495  16.160  0.1143  0.1988  0.3025
  511BOLB   C3B12251  32.141  36.938  16.058  0.1308 -0.0428 -0.1693
  511BOLB   C4B12252  32.180  37.322  15.989  0.0270  0.1186  0.1945
  511BOLB   NC212253  33.053  39.258  15.081 -0.1033 -0.0802 -0.2999
  511BOLB   PO212254  33.206  38.956  15.141 -0.2704 -0.0026  0.0246
  511BOLB   GL312255  33.166  38.558  15.279 -0.2110 -0.0054 -0.2865
  511BOLB   GL412256  32.961  38.709  15.489 -0.1113 -0.2281 -0.0083
  511BOLB   C1C12257  33.396  38.277  15.395  0.0164 -0.0314  0.0995
  511BOLB   C2C12258  33.343  37.862  15.498  0.3407  0.1547  0.2056
  511BOLB   C3C12259  32.980  37.622  15.613 -0.0450 -0.0127  0.2013
  511BOLB   C4C12260  32.739  37.395  15.905  0.2953  0.0049  0.1248
  511BOLB   C1D12261  32.549  38.435  15.368  0.1322  0.1439 -0.0643
  511BOLB   C2D12262  32.246  38.212  15.466 -0.3545  0.0656 -0.1288
  511BOLB   C3D12263  32.115  37.846  15.589 -0.0103  0.0161 -0.0408
  511BOLB   C4D12264  31.774  37.597  15.775 -0.0272 -0.2340  0.0552
  512BOLB   NC112265  20.335  32.850  23.897  0.0840 -0.2897 -0.0031
  512BOLB   PO112266  20.275  32.547  24.153  0.3255 -0.1314 -0.0335
  512BOLB   GL112267  19.856  32.709  24.232  0.1371 -0.0335  0.3155
  512BOLB   GL212268  19.805  32.774  24.469  0.0882 -0.0337  0.1191
  512BOLB   C1A12269  19.365  32.939  24.442  0.1055 -0.0163 -0.1695
  512BOLB   C2A12270  18.927  33.173  24.545  0.1173 -0.0522  0.3045
  512BOLB   C3A12271  18.796  33.635  24.612  0.2066 -0.1242  0.0140
  512BOLB   C4A12272  18.595  33.901  24.972 -0.3474 -0.1363  0.1430
  512BOLB   C1B12273  19.580  32.511  24.714  0.0061  0.2031  0.1617
  512BOLB   C2B12274  19.152  32.385  24.976 -0.1856 -0.1240 -0.2231
  512BOLB   C3B12275  18.754  32.673  25.067 -0.0410  0.0853 -0.3219
  512BOLB   C4B12276  18.385  32.896  25.057  0.0664 -0.0996  0.2237
  512BOLB   NC212277  17.175  34.157  26.390 -0.0824  0.2058 -0.0715
  512BOLB   PO212278  17.191  33.937  26.730  0.0594  0.0636 -0.0843
  512BOLB   GL312279  17.590  33.914  26.439 -0.3371  0.0316  0.1453
  512BOLB   GL412280  17.653  34.063  26.138 -0.2447  0.0874 -0.1036
  512BOLB   C1C12281  17.957  33.840  26.423 -0.0506  0.1421  0.5308
  512BOLB   C2C12282  18.238  33.659  26.177 -0.1924  0.1809 -0.1283
  512BOLB   C3C12283  18.432  33.586  25.820 -0.2779 -0.0803  0.0504
  512BOLB   C4C12284  18.371  33.778  25.360  0.2699 -0.0900  0.1633
  512BOLB   C1D12285  17.884  33.799  25.865 -0.2184  0.1556 -0.0629
  512BOLB   C2D12286  17.960  33.364  25.853  0.0122  0.0135  0.0890
  512BOLB   C3D12287  18.072  32.929  25.844 -0.1736  0.0388  0.2143
  512BOLB   C4D12288  18.178  32.444  25.836 -0.4324  0.0174 -0.5926
  513BOLB   NC112289  30.341  33.891   1.373  0.0581 -0.0497 -0.0628
  513BOLB   PO112290  30.555  33.644   1.662  0.3356  0.2527 -0.1038
  513BOLB   GL112291  30.656  33.707   2.092 -0.0239 -0.1652  0.0619
  513BOLB   GL212292  30.344  33.719   2.268  0.3927 -0.0342  0.2261
  513BOLB   C1A12293  30.974  33.761   2.497 -0.1740 -0.1979 -0.0753
  513BOLB   C2A12294  31.292  34.001   2.477  0.2053  0.1418  0.0151
  513BOLB   C3A12295  31.612  34.284   2.667  0.1880  0.2351 -0.3335
  513BOLB   C4A12296  31.564  34.468   3.180 -0.0809 -0.0788  0.4302
  513BOLB   C1B12297  30.498  34.098   2.526 -0.0006 -0.1623  0.3898
  513BOLB   C2B12298  30.864  34.386   2.634  0.1105  0.2198  0.0635
  513BOLB   C3B12299  31.019  34.226   2.948  0.3673  0.0088  0.1101
  513BOLB   C4B12300  31.292  33.875   3.083  0.2487  0.2024 -0.1646
  513BOLB   NC212301  31.515  34.080   5.790  0.1372  0.0378  0.0050
  513BOLB   PO212302  31.262  34.339   5.603 -0.1111  0.0957 -0.0471
  513BOLB   GL312303  31.204  34.386   5.268 -0.0305  0.2379 -0.4630
  513BOLB   GL412304  31.091  34.684   5.098 -0.3746  0.1483  0.4179
  513BOLB   C1C12305  31.105  34.271   4.894 -0.4522 -0.3343  0.2731
  513BOLB   C2C12306  31.027  34.286   4.450 -0.2016 -0.1705  0.0627
  513BOLB   C3C12307  31.156  34.220   3.962  0.3246 -0.1714  0.0914
  513BOLB   C4C12308  31.285  34.204   3.492  0.2335  0.1539  0.1154
  513BOLB   C1D12309  30.927  34.754   4.782  0.1713 -0.0390 -0.0040
  513BOLB   C2D12310  30.646  34.786   4.435  0.4735 -0.1220 -0.1605
  513BOLB   C3D12311  30.301  34.849   4.165 -0.0444 -0.1025  0.1773
  513BOLB   C4D12312  30.069  34.543   3.875  0.1050  0.1298 -0.2486
  514BOLB   NC112313  32.190  28.360  15.211 -0.0920 -0.2805 -0.0062
  514BOLB   PO112314  31.784  28.177  15.066  0.0987 -0.3429 -0.1416
  514BOLB   GL112315  31.989  28.304  14.761 -0.1053  0.1233  0.2487
  514BOLB   GL212316  32.397  28.318  14.785  0.0379  0.3449  0.2626
  514BOLB   C1A12317  31.885  28.357  14.253 -0.1623  0.1943 -0.1772
  514BOLB   C2A12318  31.976  28.267  13.797  0.1883  0.0028  0.0125
  514BOLB   C3A12319  32.176  27.989  13.502 -0.3089  0.0050  0.1328
  514BOLB   C4A12320  32.108  28.088  13.067  0.0240 -0.3290  0.0647
  514BOLB   C1B12321  32.794  28.442  14.590 -0.0935 -0.1103  0.0389
  514BOLB   C2B12322  33.204  28.367  14.339  0.0618 -0.2476  0.2007
  514BOLB   C3B12323  33.368  28.436  14.001 -0.0010 -0.1155 -0.0702
  514BOLB   C4B12324  33.688  28.493  13.654 -0.0388 -0.1050 -0.0022
  514BOLB   NC212325  33.114  27.452  10.926 -0.2245  0.0657 -0.0423
  514BOLB   PO212326  33.016  27.883  11.061 -0.1322  0.1859  0.0057
  514BOLB   GL312327  32.700  27.734  11.251 -0.1757  0.3047  0.1466
  514BOLB   GL412328  32.674  27.509  11.210 -0.0630 -0.1508  0.3784
  514BOLB   C1C12329  32.388  27.988  11.542 -0.1454  0.3904  0.0855
  514BOLB   C2C12330  32.228  28.101  11.911  0.1925  0.0225  0.1982
  514BOLB   C3C12331  32.293  28.383  12.361  0.0456  0.2465  0.1698
  514BOLB   C4C12332  32.286  28.212  12.727 -0.1610  0.1877 -0.0509
  514BOLB   C1D12333  32.346  27.495  11.623  0.0217  0.1677 -0.1446
  514BOLB   C2D12334  32.315  27.637  11.959 -0.0494  0.2454  0.0381
  514BOLB   C3D12335  32.189  27.461  12.415 -0.0030  0.5006  0.0383
  514BOLB   C4D12336  32.135  27.219  12.854 -0.2292  0.0776  0.0336
  515BOLB   NC112337  30.975  36.301  22.942 -0.1543 -0.2712 -0.3566
  515BOLB   PO112338  31.366  36.587  22.976 -0.2553  0.1517  0.0931
  515BOLB   GL112339  31.491  37.015  22.904  0.2653  0.2413 -0.0241
  515BOLB   GL212340  31.712  37.150  22.732 -0.0375 -0.2097 -0.2750
  515BOLB   C1A12341  31.595  37.364  23.190  0.0684  0.4045 -0.2866
  515BOLB   C2A12342  31.694  37.875  23.226  0.0364 -0.1392  0.1303
  515BOLB   C3A12343  31.886  38.238  23.241  0.4042  0.1066 -0.3428
  515BOLB   C4A12344  32.245  38.385  23.064 -0.0027 -0.2245  0.1367
  515BOLB   C1B12345  31.895  37.599  22.778 -0.1343 -0.2201 -0.2577
  515BOLB   C2B12346  32.238  37.890  22.814  0.0050 -0.0880  0.0986
  515BOLB   C3B12347  32.696  38.162  22.767  0.3394  0.0266  0.1099
  515BOLB   C4B12348  33.058  38.134  23.011 -0.3157 -0.2096 -0.1005
  515BOLB   NC212349  33.717  40.178  23.983 -0.0320 -0.1810 -0.1663
  515BOLB   PO212350  33.279  40.393  23.796 -0.0962  0.4468 -0.0958
  515BOLB   GL312351  33.072  40.195  23.527 -0.0789  0.2549  0.1962
  515BOLB   GL412352  32.822  40.348  23.390  0.0564 -0.1430  0.0255
  515BOLB   C1C12353  32.955  39.817  23.328 -0.3806 -0.1369 -0.1229
  515BOLB   C2C12354  32.789  39.447  23.282  0.1641  0.2331  0.1613
  515BOLB   C3C12355  32.683  39.063  23.213  0.2437 -0.2110  0.1563
  515BOLB   C4C12356  32.603  38.599  23.038 -0.0197  0.0450  0.0043
  515BOLB   C1D12357  32.334  40.334  23.407  0.1357  0.1979 -0.0035
  515BOLB   C2D12358  32.032  40.118  23.086 -0.0970 -0.1535 -0.1077
  515BOLB   C3D12359  32.027  39.766  22.778  0.2597 -0.0249  0.1148
  515BOLB   C4D12360  32.125  39.806  22.343  0.3874 -0.2258 -0.0368
  516BOLB   NC112361  24.692  34.040  15.332 -0.2719 -0.0100 -0.1650
  516BOLB   PO112362  24.453  34.179  15.523  0.2085  0.1031  0.0759
  516BOLB   GL112363  24.378  34.459  15.183 -0.0684  0.2795 -0.1776
  516BOLB   GL212364  24.246  34.689  15.167  0.0522  0.0274  0.3908
  516BOLB   C1A12365  24.332  34.534  14.731 -0.0854  0.0179  0.1447
  516BOLB   C2A12366  24.083  34.531  14.318  0.1773 -0.0005 -0.3532
  516BOLB   C3A12367  23.884  34.441  13.870  0.0089 -0.2846  0.0845
  516BOLB   C4A12368  23.850  34.458  13.440 -0.3128  0.2042 -0.0449
  516BOLB   C1B12369  24.162  35.006  14.845  0.2303 -0.1939  0.1629
  516BOLB   C2B12370  24.194  35.301  14.586 -0.3200  0.2514 -0.2376
  516BOLB   C3B12371  24.394  35.462  14.156  0.0504 -0.0618 -0.6346
  516BOLB   C4B12372  24.641  35.599  13.843 -0.1937  0.2594  0.4132
  516BOLB   NC212373  23.605  36.171  11.281  0.2764 -0.0831 -0.1000
  516BOLB   PO212374  23.652  36.287  11.729 -0.0702  0.1045 -0.0232
  516BOLB   GL312375  23.443  36.090  12.187  0.0776 -0.2388  0.1030
  516BOLB   GL412376  23.412  35.687  12.156 -0.0273 -0.2621 -0.1438
  516BOLB   C1C12377  23.543  35.944  12.645  0.1276  0.3192 -0.0812
  516BOLB   C2C12378  23.348  35.527  12.648  0.1949 -0.3844  0.0728
  516BOLB   C3C12379  23.401  35.187  12.896  0.0581 -0.1250  0.3198
  516BOLB   C4C12380  23.613  34.826  13.189 -0.0847 -0.0276  0.2483
  516BOLB   C1D12381  23.689  35.633  12.298  0.0520  0.2078 -0.1100
  516BOLB   C2D12382  24.082  35.707  12.280 -0.2228 -0.0737 -0.1712
  516BOLB   C3D12383  24.465  35.952  12.431 -0.2123  0.2002 -0.2582
  516BOLB   C4D12384  24.850  35.705  12.595 -0.1735 -0.0546  0.2489
  517BOLB   NC112385  23.698  25.396  16.119  0.0892 -0.0698 -0.0749
  517BOLB   PO112386  23.984  25.381  15.831 -0.2809  0.0200  0.1970
  517BOLB   GL112387  24.019  25.509  15.332  0.0545 -0.0468 -0.2996
  517BOLB   GL212388  24.303  25.567  15.179  0.2763 -0.1411 -0.2613
  517BOLB   C1A12389  23.769  25.247  15.181  0.3541 -0.0337 -0.0167
  517BOLB   C2A12390  23.381  25.010  14.973  0.1706  0.1097  0.2054
  517BOLB   C3A12391  23.230  24.615  14.953 -0.0782 -0.0837  0.1156
  517BOLB   C4A12392  22.999  24.467  14.730  0.1924 -0.1844 -0.0007
  517BOLB   C1B12393  24.250  25.150  14.988 -0.3488  0.0803 -0.5326
  517BOLB   C2B12394  24.152  24.952  14.648  0.1406  0.0876  0.4211
  517BOLB   C3B12395  24.098  24.488  14.563 -0.1558 -0.0439 -0.2494
  517BOLB   C4B12396  24.098  24.126  14.314 -0.1081 -0.0432  0.1187
  517BOLB   NC212397  21.574  23.885  12.590  0.0116 -0.2846  0.3531
  517BOLB   PO212398  21.835  23.782  13.067 -0.1858 -0.0764 -0.0328
  517BOLB   GL312399  21.832  23.785  13.432 -0.2917 -0.0545 -0.0287
  517BOLB   GL412400  21.896  24.182  13.369  0.1573  0.0493  0.3549
  517BOLB   C1C12401  21.886  23.961  13.822 -0.1208 -0.1020 -0.3912
  517BOLB   C2C12402  22.095  24.014  14.153  0.2606 -0.1245 -0.0625
  517BOLB   C3C12403  22.400  24.183  14.191 -0.1945  0.0105 -0.3866
  517BOLB   C4C12404  22.637  24.396  14.472 -0.0740  0.0931 -0.2513
  517BOLB   C1D12405  22.142  24.343  13.103  0.0034 -0.3838 -0.0325
  517BOLB   C2D12406  22.519  24.473  13.181  0.0064  0.0402  0.2296
  517BOLB   C3D12407  22.887  24.483  13.384 -0.2661  0.0161 -0.2346
  517BOLB   C4D12408  23.271  24.721  13.577 -0.2728 -0.1665 -0.1865
  518BOLB   NC112409  34.118  24.651  23.501 -0.3418 -0.5560  0.1716
  518BOLB   PO112410  34.406  24.837  23.830 -0.1611  0.0945  0.0894
  518BOLB   GL112411  34.687  24.734  23.979  0.2674  0.1280  0.4444
  518BOLB   GL212412  34.537  24.773  24.343  0.4842  0.0374 -0.1351
  518BOLB   C1A12413  34.949  25.040  24.327  0.0855 -0.0370 -0.1690
  518BOLB   C2A12414  35.269  25.235  24.494  0.5434  0.1547  0.2222
  518BOLB   C3A12415  35.514  25.263  24.810  0.2730 -0.0211 -0.0879
  518BOLB   C4A12416  35.737  25.201  24.949 -0.3554 -0.1346  0.0556
  518BOLB   C1B12417  34.849  24.650  24.594 -0.1123  0.2826  0.0030
  518BOLB   C2B12418  35.058  24.391  24.918  0.0376  0.2224  0.0479
  518BOLB   C3B12419  35.299  24.436  25.324 -0.2091  0.2684 -0.2585
  518BOLB   C4B12420  35.390  24.659  25.679 -0.4899  0.0347  0.1006
  518BOLB   NC212421  38.441  24.343  25.006 -0.1339 -0.0761  0.0147
  518BOLB   PO212422  37.999  24.404  25.142 -0.3480  0.2380  0.1853
  518BOLB   GL312423  37.841  24.639  24.831 -0.1447  0.0851  0.0759
  518BOLB   GL412424  37.903  24.958  24.706  0.0335 -0.1329  0.2313
  518BOLB   C1C12425  37.355  24.840  24.673 -0.0308 -0.1822 -0.4519
  518BOLB   C2C12426  36.927  24.888  24.713  0.0462 -0.1386 -0.2297
  518BOLB   C3C12427  36.620  25.195  24.668 -0.3146 -0.2085  0.2214
  518BOLB   C4C12428  36.222  25.083  24.806  0.2293  0.1598 -0.0854
  518BOLB   C1D12429  37.640  25.087  24.344  0.1235  0.1351 -0.1297
  518BOLB   C2D12430  37.599  25.385  24.118  0.2607 -0.0396 -0.2172
  518BOLB   C3D12431  37.438  25.766  24.235  0.0620  0.0255 -0.0763
  518BOLB   C4D12432  37.153  25.977  24.437  0.0673 -0.4728  0.0769
  519BOLB   NC112433  35.664  29.257  24.168  0.1112 -0.0769  0.4220
  519BOLB   PO112434  35.504  28.815  24.325 -0.1155 -0.0450  0.0589
  519BOLB   GL112435  35.893  28.643  24.309 -0.1637  0.1353  0.2121
  519BOLB   GL212436  35.885  28.437  24.125 -0.2566 -0.0568 -0.2046
  519BOLB   C1A12437  36.349  28.698  24.244  0.1415  0.0712 -0.1545
  519BOLB   C2A12438  36.742  28.772  24.362  0.0908  0.0880 -0.1182
  519BOLB   C3A12439  37.066  29.031  24.519  0.3496 -0.1409 -0.0313
  519BOLB   C4A12440  37.313  29.238  24.680 -0.0573 -0.2986 -0.1443
  519BOLB   C1B12441  36.124  28.127  24.303 -0.3189  0.2696  0.0993
  519BOLB   C2B12442  36.544  28.240  24.325 -0.1657  0.3134  0.1392
  519BOLB   C3B12443  37.001  28.280  24.271  0.1790 -0.1381  0.3132
  519BOLB   C4B12444  37.280  28.658  24.268  0.1146  0.0922  0.3707
  519BOLB   NC212445  39.884  29.331  25.188 -0.0491 -0.0318 -0.0121
  519BOLB   PO212446  39.640  29.668  25.164  0.1272  0.2733  0.2038
  519BOLB   GL312447  39.148  29.671  25.059 -0.2079  0.0719  0.2062
  519BOLB   GL412448  39.073  29.574  24.730 -0.2586  0.0610 -0.0850
  519BOLB   C1C12449  38.630  29.573  25.295 -0.0862 -0.1932  0.0259
  519BOLB   C2C12450  38.154  29.614  25.136 -0.2763  0.0002  0.0459
  519BOLB   C3C12451  37.936  29.762  24.805  0.1082 -0.2523 -0.1173
  519BOLB   C4C12452  37.588  29.596  24.613 -0.1864 -0.1101  0.0129
  519BOLB   C1D12453  38.646  29.525  24.734 -0.0244 -0.1818 -0.2333
  519BOLB   C2D12454  38.242  29.401  24.652 -0.2677  0.1284  0.0643
  519BOLB   C3D12455  37.922  29.104  24.539 -0.0692  0.0116  0.0054
  519BOLB   C4D12456  37.733  28.796  24.194  0.1287 -0.1008  0.2068
  520BOLB   NC112457  32.925  29.962  15.458 -0.3741  0.1005 -0.0241
  520BOLB   PO112458  32.523  30.156  15.273 -0.3200  0.2195  0.1822
  520BOLB   GL112459  32.703  30.179  14.934  0.1949  0.3117 -0.0648
  520BOLB   GL212460  32.568  30.464  14.886 -0.2466  0.0091  0.0425
  520BOLB   C1A12461  32.677  30.168  14.501  0.1598 -0.3385  0.2033
  520BOLB   C2A12462  32.804  30.131  14.141 -0.5103 -0.3372  0.1490
  520BOLB   C3A12463  33.076  30.102  13.849 -0.0540 -0.2643 -0.0956
  520BOLB   C4A12464  33.241  30.151  13.408  0.0140  0.0974  0.1638
  520BOLB   C1B12465  32.961  30.576  14.576 -0.1958 -0.2364  0.1348
  520BOLB   C2B12466  33.245  30.433  14.212 -0.0004  0.0068  0.3529
  520BOLB   C3B12467  33.594  30.334  13.824 -0.2425 -0.0345  0.2360
  520BOLB   C4B12468  33.733  30.161  13.461 -0.1881  0.0921  0.1456
  520BOLB   NC212469  34.761  30.698  11.133  0.1619 -0.0501  0.0492
  520BOLB   PO212470  34.432  30.820  11.353  0.1602 -0.3148  0.1643
  520BOLB   GL312471  34.089  30.757  11.678 -0.0594 -0.2104 -0.0031
  520BOLB   GL412472  34.397  30.747  11.930 -0.1576 -0.1675 -0.1502
  520BOLB   C1C12473  33.874  30.733  11.973  0.0555 -0.1817 -0.0153
  520BOLB   C2C12474  33.790  30.555  12.428  0.1991 -0.1521  0.1166
  520BOLB   C3C12475  33.573  30.332  12.704 -0.1955 -0.0596  0.1707
  520BOLB   C4C12476  33.365  30.195  13.021  0.1827 -0.1876 -0.0422
  520BOLB   C1D12477  34.235  30.707  12.329 -0.2265 -0.0017  0.1922
  520BOLB   C2D12478  34.118  30.814  12.705 -0.3806  0.1550  0.2985
  520BOLB   C3D12479  34.065  30.844  13.146 -0.0136  0.2519 -0.2747
  520BOLB   C4D12480  33.669  30.546  13.155 -0.2025 -0.3577 -0.2409
  521BOLB   NC112481  31.182  27.309   2.031 -0.1664  0.4210 -0.1602
  521BOLB   PO112482  31.386  27.080   1.758  0.2683 -0.0493  0.2333
  521BOLB   GL112483  31.735  27.083   1.907 -0.1624  0.1977  0.2069
  521BOLB   GL212484  31.769  27.152   2.276  0.1862  0.0666  0.1470
  521BOLB   C1A12485  32.044  26.760   2.018 -0.0626 -0.1272  0.1854
  521BOLB   C2A12486  32.307  26.666   2.359 -0.3368  0.0157  0.2407
  521BOLB   C3A12487  32.666  26.793   2.497  0.0334 -0.1995 -0.1305
  521BOLB   C4A12488  33.049  26.855   2.744 -0.0303  0.2736  0.0714
  521BOLB   C1B12489  31.948  26.911   2.575 -0.1888  0.3774  0.2157
  521BOLB   C2B12490  32.126  26.597   2.859 -0.0506  0.0469 -0.1722
  521BOLB   C3B12491  32.321  26.215   2.899 -0.2390 -0.0601  0.0540
  521BOLB   C4B12492  32.579  25.810   2.712 -0.1045  0.3233  0.2075
  521BOLB   NC212493  34.155  27.228   4.674 -0.0861 -0.0764  0.0483
  521BOLB   PO212494  34.004  26.835   4.780  0.0772  0.2048 -0.0712
  521BOLB   GL312495  33.772  26.957   4.442  0.4559  0.3391 -0.0452
  521BOLB   GL412496  33.759  27.246   4.450  0.1890 -0.2625 -0.0821
  521BOLB   C1C12497  33.555  27.017   4.086  0.0232  0.3275 -0.0899
  521BOLB   C2C12498  33.719  26.741   3.747  0.0156  0.0862  0.0801
  521BOLB   C3C12499  33.612  26.582   3.354  0.0542  0.1558 -0.0349
  521BOLB   C4C12500  33.367  26.758   3.020 -0.0517 -0.2530 -0.0723
  521BOLB   C1D12501  33.501  27.484   4.191 -0.0402 -0.0693  0.0231
  521BOLB   C2D12502  33.516  28.020   4.313  0.1125  0.1904 -0.0859
  521BOLB   C3D12503  33.238  28.127   3.941 -0.3185  0.1826  0.1442
  521BOLB   C4D12504  32.996  28.467   3.811 -0.0831  0.3882 -0.0336
  522BOLB   NC112505  31.833  24.229  17.636 -0.1114 -0.2502 -0.1454
  522BOLB   PO112506  32.176  24.438  17.584 -0.0565  0.0952  0.1013
  522BOLB   GL112507  32.417  24.245  17.288  0.1187  0.1356  0.0508
  522BOLB   GL212508  32.572  24.299  17.055 -0.0446 -0.0116 -0.0212
  522BOLB   C1A12509  32.469  23.762  17.373 -0.0336 -0.2047  0.1888
  522BOLB   C2A12510  32.803  23.460  17.254  0.0732 -0.1799 -0.0649
  522BOLB   C3A12511  33.033  23.201  17.171  0.0026 -0.0780  0.0511
  522BOLB   C4A12512  33.309  23.020  16.822  0.0393 -0.1569 -0.4154
  522BOLB   C1B12513  32.649  23.890  16.848  0.0586 -0.2131  0.2387
  522BOLB   C2B12514  32.752  23.905  16.432  0.1354 -0.1005 -0.3419
  522BOLB   C3B12515  32.916  23.651  16.129 -0.0914 -0.0151 -0.1983
  522BOLB   C4B12516  32.991  23.347  15.908 -0.0647 -0.0680  0.1352
  522BOLB   NC212517  34.773  21.040  16.179 -0.2676  0.3596  0.1923
  522BOLB   PO212518  34.417  20.840  16.320 -0.0848  0.0049 -0.2545
  522BOLB   GL312519  34.140  21.026  16.641  0.0087  0.0778  0.0432
  522BOLB   GL412520  33.881  20.903  16.771  0.3612  0.0368 -0.3872
  522BOLB   C1C12521  34.020  21.459  16.781 -0.2175 -0.1634  0.4632
  522BOLB   C2C12522  33.770  21.795  16.953 -0.2690  0.1451 -0.0186
  522BOLB   C3C12523  33.586  22.124  16.916  0.0804 -0.0271 -0.0494
  522BOLB   C4C12524  33.504  22.539  16.864 -0.2383 -0.1934 -0.3782
  522BOLB   C1D12525  33.936  21.119  17.201 -0.1182  0.2040 -0.1357
  522BOLB   C2D12526  33.594  21.491  17.371 -0.1527  0.1534 -0.3032
  522BOLB   C3D12527  33.259  21.704  17.411  0.1445 -0.0693 -0.2032
  522BOLB   C4D12528  33.269  22.212  17.349 -0.1362 -0.0671  0.1120
  523BOLB   NC112529  24.815  37.222  21.286  0.1119  0.2485  0.1433
  523BOLB   PO112530  24.426  37.051  21.387  0.0313 -0.0385  0.0307
  523BOLB   GL112531  24.323  37.306  21.023  0.3442 -0.0070  0.0275
  523BOLB   GL212532  24.344  37.636  20.956  0.0734 -0.0879 -0.1137
  523BOLB   C1A12533  23.925  37.512  20.743  0.2594 -0.4671  0.1895
  523BOLB   C2A12534  23.653  37.833  20.624  0.1924 -0.1059 -0.3557
  523BOLB   C3A12535  23.427  38.129  20.646 -0.1286 -0.0111  0.1053
  523BOLB   C4A12536  23.602  38.656  20.644  0.3551 -0.1354 -0.0078
  523BOLB   C1B12537  24.088  37.952  20.914  0.0879  0.0149 -0.0499
  523BOLB   C2B12538  23.977  38.426  20.929 -0.3718  0.0052 -0.1168
  523BOLB   C3B12539  23.771  38.827  21.063 -0.0087  0.1537 -0.0171
  523BOLB   C4B12540  23.808  39.240  21.176  0.0130  0.0248  0.0864
  523BOLB   NC212541  23.696  41.383  20.769  0.1339 -0.0163 -0.0348
  523BOLB   PO212542  23.260  41.290  20.731  0.1456 -0.0404  0.2820
  523BOLB   GL312543  23.187  40.880  20.970  0.2190 -0.2837  0.2579
  523BOLB   GL412544  23.428  40.841  21.046  0.0818  0.2396 -0.1097
  523BOLB   C1C12545  23.299  40.346  20.993 -0.2030 -0.2655 -0.0769
  523BOLB   C2C12546  23.328  39.965  20.854 -0.0139 -0.0184  0.1576
  523BOLB   C3C12547  23.534  39.613  20.646 -0.3224 -0.3846  0.3651
  523BOLB   C4C12548  23.582  39.188  20.691  0.0304  0.2452  0.0476
  523BOLB   C1D12549  23.766  40.759  21.366  0.4143  0.0890  0.0653
  523BOLB   C2D12550  23.951  40.433  21.717  0.1432  0.0373 -0.2057
  523BOLB   C3D12551  24.258  40.174  21.736  0.0045 -0.1764  0.1752
  523BOLB   C4D12552  24.481  39.851  21.593 -0.0799 -0.1339  0.1204
  524BOLB   NC112553  26.497  37.595  23.315  0.2029 -0.1931 -0.0688
  524BOLB   PO112554  26.295  37.553  23.652 -0.2040 -0.1071 -0.1795
  524BOLB   GL112555  26.483  37.968  23.662  0.0489  0.0508  0.0497
  524BOLB   GL212556  26.250  38.215  23.602 -0.4433  0.2600  0.3521
  524BOLB   C1A12557  26.673  38.243  23.970  0.2354 -0.1651  0.0549
  524BOLB   C2A12558  26.423  38.526  24.305  0.0505 -0.0272 -0.3835
  524BOLB   C3A12559  26.060  38.793  24.378 -0.0905 -0.1800 -0.1076
  524BOLB   C4A12560  25.864  39.172  24.505 -0.2168  0.0785  0.1616
  524BOLB   C1B12561  26.069  38.294  24.025 -0.0113  0.0499 -0.2953
  524BOLB   C2B12562  25.820  38.357  24.261  0.0543 -0.0032  0.1114
  524BOLB   C3B12563  25.531  38.373  24.661 -0.0525 -0.0610  0.0038
  524BOLB   C4B12564  25.224  38.540  24.959  0.3259  0.0691  0.1589
  524BOLB   NC212565  25.374  40.892  25.944 -0.3490  0.0277 -0.0048
  524BOLB   PO212566  25.057  40.659  26.105 -0.0078 -0.1222 -0.5296
  524BOLB   GL312567  25.177  40.372  25.873 -0.0050 -0.4099  0.0132
  524BOLB   GL412568  25.559  40.409  25.851  0.2580  0.0560  0.0285
  524BOLB   C1C12569  25.168  39.998  25.653  0.2774 -0.1808 -0.0264
  524BOLB   C2C12570  25.156  39.594  25.667  0.3429 -0.3410 -0.1401
  524BOLB   C3C12571  25.492  39.345  25.347  0.0810  0.0655  0.1159
  524BOLB   C4C12572  25.547  39.408  24.908  0.1729 -0.1127  0.0295
  524BOLB   C1D12573  25.947  40.151  25.843 -0.2494  0.1585  0.3401
  524BOLB   C2D12574  26.085  39.886  25.608  0.3259  0.0999 -0.1744
  524BOLB   C3D12575  26.210  39.596  25.459 -0.1292 -0.4134  0.0246
  524BOLB   C4D12576  26.548  39.218  25.354 -0.1724  0.1096 -0.2215
  525BOLB   NC112577  27.405  29.816  13.449  0.1626 -0.0026  0.1998
  525BOLB   PO112578  27.075  29.570  13.589  0.0337 -0.0489 -0.1059
  525BOLB   GL112579  27.216  29.393  13.208 -0.0881 -0.1683 -0.1399
  525BOLB   GL212580  27.049  29.058  13.215 -0.2022 -0.0743  0.0501
  525BOLB   C1A12581  27.422  29.293  12.782  0.2764 -0.2718  0.1815
  525BOLB   C2A12582  27.261  29.261  12.277 -0.0190  0.1407  0.0506
  525BOLB   C3A12583  27.310  29.252  11.840 -0.3652 -0.0429  0.0119
  525BOLB   C4A12584  27.086  29.189  11.365  0.1931 -0.2775 -0.1181
  525BOLB   C1B12585  27.046  28.872  12.826 -0.4316  0.2123 -0.1775
  525BOLB   C2B12586  27.077  28.759  12.435 -0.2300  0.2560  0.3706
  525BOLB   C3B12587  26.981  28.966  12.060 -0.2690  0.2215 -0.1596
  525BOLB   C4B12588  26.846  29.448  11.837 -0.1835 -0.2969 -0.0647
  525BOLB   NC212589  27.210  28.140   8.712  0.1987  0.1843  0.1966
  525BOLB   PO212590  27.078  28.362   9.138 -0.4027  0.2278 -0.3633
  525BOLB   GL312591  26.998  28.615   9.651  0.2965  0.3207 -0.1006
  525BOLB   GL412592  26.614  28.558   9.670  0.1863 -0.1843  0.1963
  525BOLB   C1C12593  26.933  28.803   9.997  0.2237 -0.1086  0.0309
  525BOLB   C2C12594  26.935  28.967  10.371 -0.3771  0.2202  0.3430
  525BOLB   C3C12595  27.025  29.321  10.574 -0.2048  0.0633  0.0359
  525BOLB   C4C12596  27.015  29.397  10.942 -0.0128 -0.0420 -0.1816
  525BOLB   C1D12597  26.436  28.539  10.126 -0.0196 -0.0644  0.1226
  525BOLB   C2D12598  26.518  28.749  10.450 -0.2590 -0.0413  0.0243
  525BOLB   C3D12599  26.694  28.856  10.783  0.2585 -0.0407  0.0525
  525BOLB   C4D12600  26.996  28.740  11.152 -0.0077  0.3053  0.1427
  526BOLB   NC112601  30.233  24.173  16.023  0.1143  0.4227  0.0315
  526BOLB   PO112602  30.620  24.311  16.150  0.2582 -0.2150  0.1056
  526BOLB   GL112603  30.834  23.964  16.021 -0.1245  0.1190 -0.0298
  526BOLB   GL212604  30.983  24.008  15.687  0.1419 -0.0461  0.1915
  526BOLB   C1A12605  30.597  23.625  15.862  0.1263  0.0647  0.0860
  526BOLB   C2A12606  30.547  23.259  15.766  0.2159  0.0645  0.1170
  526BOLB   C3A12607  30.559  22.890  15.569  0.2282  0.2170 -0.1289
  526BOLB   C4A12608  30.392  22.498  15.544 -0.2993  0.2687 -0.1057
  526BOLB   C1B12609  31.242  23.634  15.578  0.0812  0.0571 -0.2180
  526BOLB   C2B12610  31.393  23.330  15.422 -0.0612  0.4365 -0.3156
  526BOLB   C3B12611  31.820  23.111  15.324  0.0119  0.2018 -0.2030
  526BOLB   C4B12612  32.027  22.788  15.034  0.0946  0.1234  0.0777
  526BOLB   NC212613  30.973  20.652  13.916  0.0224  0.0755 -0.0567
  526BOLB   PO212614  31.275  20.607  14.256 -0.0277 -0.0518  0.2971
  526BOLB   GL312615  30.906  20.849  14.408  0.0208  0.3448  0.1453
  526BOLB   GL412616  31.026  20.989  14.653 -0.0843 -0.3319  0.3317
  526BOLB   C1C12617  30.797  21.256  14.296 -0.0200 -0.1141  0.0216
  526BOLB   C2C12618  30.688  21.638  14.610  0.0693  0.0486 -0.0256
  526BOLB   C3C12619  30.714  21.905  14.955 -0.2533 -0.0158 -0.0420
  526BOLB   C4C12620  30.608  22.130  15.338  0.0279  0.1849  0.1332
  526BOLB   C1D12621  31.068  21.364  14.977 -0.0586  0.1794  0.0493
  526BOLB   C2D12622  30.963  21.620  15.258  0.0683 -0.1585  0.2082
  526BOLB   C3D12623  30.810  21.630  15.632 -0.0900 -0.0810 -0.0656
  526BOLB   C4D12624  30.573  22.047  15.879  0.1077  0.0380 -0.3376
  527BOLB   NC112625  35.146  27.167  22.940  0.0033  0.3221  0.0485
  527BOLB   PO112626  35.137  27.297  22.555 -0.1717  0.1849 -0.2581
  527BOLB   GL112627  35.651  27.372  22.400 -0.0622  0.0042  0.0296
  527BOLB   GL212628  35.726  27.640  22.098 -0.0251 -0.3153 -0.1800
  527BOLB   C1A12629  36.059  27.152  22.396  0.1904  0.2747  0.1759
  527BOLB   C2A12630  36.465  27.299  22.259 -0.0147  0.2299  0.0322
  527BOLB   C3A12631  36.859  27.175  22.076 -0.2448 -0.0122  0.0806
  527BOLB   C4A12632  37.349  27.067  21.982 -0.3109  0.1381 -0.1337
  527BOLB   C1B12633  36.122  27.742  22.132  0.0975 -0.0356  0.0471
  527BOLB   C2B12634  36.471  27.893  21.939 -0.1833 -0.0554  0.0386
  527BOLB   C3B12635  36.857  27.705  21.895 -0.2411 -0.0623 -0.0106
  527BOLB   C4B12636  37.184  27.469  21.701 -0.1680 -0.1036 -0.0848
  527BOLB   NC212637  39.730  27.557  22.445 -0.3418  0.5248 -0.2798
  527BOLB   PO212638  39.791  27.574  21.955  0.1172 -0.0187 -0.0616
  527BOLB   GL312639  39.362  27.445  21.952  0.1390 -0.0907 -0.1731
  527BOLB   GL412640  39.222  27.786  22.066 -0.2365  0.4500 -0.2040
  527BOLB   C1C12641  38.973  27.344  21.916  0.1661  0.2542  0.1479
  527BOLB   C2C12642  38.555  27.492  22.071  0.1048  0.1243  0.0633
  527BOLB   C3C12643  38.116  27.398  21.824  0.0485  0.0405 -0.0362
  527BOLB   C4C12644  37.819  27.216  21.958  0.1742 -0.0423 -0.3407
  527BOLB   C1D12645  38.773  27.904  21.998 -0.1044  0.1955 -0.0764
  527BOLB   C2D12646  38.301  27.913  22.089  0.1081  0.1227 -0.0861
  527BOLB   C3D12647  37.940  27.786  22.055  0.0668 -0.3135  0.2126
  527BOLB   C4D12648  37.631  27.641  21.725  0.2207 -0.1259  0.2150
  528BOLB   NC112649  20.833  20.977   4.926  0.1213 -0.0971  0.2541
  528BOLB   PO112650  20.594  21.385   4.738  0.2003  0.1731  0.0628
  528BOLB   GL112651  20.987  21.572   4.688 -0.1183 -0.0116  0.1458
  528BOLB   GL212652  20.966  21.906   4.815 -0.0627  0.1999  0.2133
  528BOLB   C1A12653  21.474  21.638   4.866 -0.1024 -0.3898 -0.3723
  528BOLB   C2A12654  21.920  21.425   4.781 -0.1157 -0.2806 -0.1433
  528BOLB   C3A12655  22.187  21.152   4.711 -0.1606 -0.1934 -0.2937
  528BOLB   C4A12656  22.364  20.805   4.592 -0.0318 -0.0955 -0.3384
  528BOLB   C1B12657  21.175  22.285   5.002 -0.0587 -0.3170 -0.4163
  528BOLB   C2B12658  21.479  22.655   5.090 -0.1530 -0.2198 -0.2710
  528BOLB   C3B12659  21.299  22.954   4.968 -0.1694  0.1898 -0.3832
  528BOLB   C4B12660  21.123  23.125   4.716  0.2862 -0.0112 -0.1786
  528BOLB   NC212661  21.304  18.928   3.087  0.0170 -0.2363 -0.1074
  528BOLB   PO212662  21.324  19.047   3.512 -0.2715  0.1478 -0.0307
  528BOLB   GL312663  21.662  19.393   3.481  0.2246 -0.0068  0.0088
  528BOLB   GL412664  21.968  19.297   3.297 -0.1665  0.2531 -0.0365
  528BOLB   C1C12665  21.970  19.660   3.632 -0.2533 -0.0851 -0.0608
  528BOLB   C2C12666  22.202  20.064   3.688  0.1340  0.3190 -0.0357
  528BOLB   C3C12667  22.322  20.456   3.872 -0.3470  0.1408 -0.3152
  528BOLB   C4C12668  22.356  20.548   4.347 -0.1008  0.3983 -0.2987
  528BOLB   C1D12669  21.925  19.599   2.941 -0.0955 -0.1473 -0.0224
  528BOLB   C2D12670  21.975  20.037   2.851 -0.2286  0.2372  0.4335
  528BOLB   C3D12671  22.157  20.074   2.471  0.0354 -0.4058 -0.1913
  528BOLB   C4D12672  22.559  20.071   2.321  0.0073 -0.2851  0.0383
  529BOLB   NC112673  23.202  35.031  18.545 -0.1543  0.1060  0.3666
  529BOLB   PO112674  22.972  35.251  18.275  0.0040  0.1594 -0.1802
  529BOLB   GL112675  22.881  35.511  17.856 -0.0482  0.0378  0.0922
  529BOLB   GL212676  22.870  35.950  17.910  0.1581 -0.0419 -0.2915
  529BOLB   C1A12677  22.529  35.768  17.614 -0.3676  0.0396 -0.5845
  529BOLB   C2A12678  22.329  36.151  17.532  0.1755 -0.0900  0.0469
  529BOLB   C3A12679  22.327  36.600  17.280  0.1298 -0.0618 -0.0300
  529BOLB   C4A12680  22.412  36.869  16.951  0.0596 -0.0369  0.2574
  529BOLB   C1B12681  22.871  36.336  18.118 -0.1866 -0.2914 -0.0780
  529BOLB   C2B12682  22.732  36.756  18.082  0.1626 -0.4431 -0.3219
  529BOLB   C3B12683  22.703  37.148  18.032 -0.0534  0.2774  0.1365
  529BOLB   C4B12684  22.655  37.454  17.645  0.3740 -0.0993 -0.1000
  529BOLB   NC212685  22.122  38.924  15.465 -0.0121 -0.1947  0.0070
  529BOLB   PO212686  22.170  38.455  15.363 -0.3542  0.3795 -0.1685
  529BOLB   GL312687  22.536  38.128  15.433  0.1637  0.0738 -0.1096
  529BOLB   GL412688  22.844  38.095  15.117  0.2805 -0.1927 -0.0093
  529BOLB   C1C12689  22.739  37.785  15.584 -0.0161 -0.0596  0.1534
  529BOLB   C2C12690  22.655  37.673  15.975 -0.2973 -0.2139 -0.1429
  529BOLB   C3C12691  22.605  37.599  16.370 -0.0519  0.0851 -0.1945
  529BOLB   C4C12692  22.448  37.269  16.705 -0.2083  0.2371  0.2398
  529BOLB   C1D12693  23.138  37.728  15.038  0.0760  0.0267  0.0316
  529BOLB   C2D12694  23.480  37.367  15.185 -0.1277 -0.0828  0.0358
  529BOLB   C3D12695  23.894  37.222  15.327 -0.1271  0.1400  0.3768
  529BOLB   C4D12696  24.296  36.931  15.331 -0.4045  0.0385 -0.2694
  530BOLB   NC112697  33.068  26.690  16.253 -0.3301 -0.0720  0.2431
  530BOLB   PO112698  32.962  26.571  16.661  0.0587 -0.0582 -0.1140
  530BOLB   GL112699  33.323  26.373  16.589 -0.1287  0.1488 -0.0764
  530BOLB   GL212700  33.401  26.355  16.439 -0.1093 -0.2617  0.4882
  530BOLB   C1A12701  33.769  26.051  16.542 -0.2160  0.1931  0.1045
  530BOLB   C2A12702  33.996  25.806  16.370 -0.1447  0.1865 -0.0147
  530BOLB   C3A12703  34.293  25.591  16.181 -0.0836  0.1871 -0.3167
  530BOLB   C4A12704  34.454  25.216  16.174  0.0853  0.2384 -0.0217
  530BOLB   C1B12705  33.718  26.234  16.057 -0.0504 -0.1753 -0.1379
  530BOLB   C2B12706  34.219  26.262  15.896  0.5058  0.1068  0.0851
  530BOLB   C3B12707  34.465  25.842  15.723 -0.1795 -0.1568  0.1429
  530BOLB   C4B12708  34.613  25.544  15.515 -0.0305 -0.2423  0.1385
  530BOLB   NC212709  36.470  23.783  15.398 -0.4404  0.0570  0.0492
  530BOLB   PO212710  36.367  24.066  14.982  0.2464 -0.1134 -0.0677
  530BOLB   GL312711  36.021  24.121  15.290  0.0925  0.0567 -0.0981
  530BOLB   GL412712  36.099  24.119  15.635 -0.2631 -0.1922 -0.2796
  530BOLB   C1C12713  35.831  24.517  15.478 -0.3141 -0.0909  0.2804
  530BOLB   C2C12714  35.394  24.669  15.556 -0.0757  0.0924 -0.0081
  530BOLB   C3C12715  34.934  24.775  15.809  0.1555 -0.0704  0.3002
  530BOLB   C4C12716  34.685  24.858  16.137  0.1154  0.2076 -0.0210
  530BOLB   C1D12717  36.019  24.176  15.998 -0.1384 -0.2136 -0.0453
  530BOLB   C2D12718  35.740  24.353  16.313 -0.1727 -0.0428  0.0068
  530BOLB   C3D12719  35.426  24.458  16.592  0.0539  0.2019 -0.1258
  530BOLB   C4D12720  35.073  24.349  16.778  0.1158  0.0294 -0.0755
  531BOLB   NC112721  31.811  37.122  22.237  0.0673 -0.1275  0.0007
  531BOLB   PO112722  31.627  36.999  21.745  0.1328 -0.0395  0.1117
  531BOLB   GL112723  31.669  37.392  21.842  0.1430 -0.0097 -0.2479
  531BOLB   GL212724  31.598  37.618  21.670  0.0206 -0.2547 -0.0973
  531BOLB   C1A12725  32.014  37.717  21.948 -0.2418  0.1341 -0.0259
  531BOLB   C2A12726  32.461  37.848  21.836 -0.1537 -0.4073  0.0089
  531BOLB   C3A12727  32.684  38.196  21.654  0.3713  0.1579 -0.1440
  531BOLB   C4A12728  32.641  38.568  21.864  0.0256  0.4334  0.1129
  531BOLB   C1B12729  31.590  37.985  21.815  0.1490  0.3371 -0.1549
  531BOLB   C2B12730  31.765  38.326  21.950 -0.1402 -0.0998  0.6391
  531BOLB   C3B12731  31.988  38.711  22.012  0.2519 -0.0963  0.0209
  531BOLB   C4B12732  32.312  38.831  22.079  0.0779  0.2746  0.2727
  531BOLB   NC212733  33.650  40.776  22.614  0.1116 -0.1838  0.1823
  531BOLB   PO212734  33.915  40.439  22.584  0.0513 -0.1829  0.1015
  531BOLB   GL312735  33.755  40.156  22.780  0.1059 -0.1155 -0.1812
  531BOLB   GL412736  33.794  40.031  23.017  0.3124  0.0665  0.4143
  531BOLB   C1C12737  33.468  39.886  22.609 -0.0838  0.2483  0.0681
  531BOLB   C2C12738  33.235  39.407  22.456  0.0928  0.0242 -0.5303
  531BOLB   C3C12739  33.140  38.937  22.422 -0.0720  0.1652 -0.1388
  531BOLB   C4C12740  32.916  38.664  22.113 -0.3586 -0.2565 -0.1404
  531BOLB   C1D12741  33.515  39.827  23.179  0.0500 -0.0762 -0.0677
  531BOLB   C2D12742  33.283  39.495  23.105  0.2973 -0.1825 -0.1567
  531BOLB   C3D12743  33.049  39.226  22.940  0.3002  0.0120 -0.1020
  531BOLB   C4D12744  33.041  38.786  22.952  0.1297  0.1323 -0.1223
  532BOLB   NC112745  23.757  31.352  14.254  0.1349  0.3799  0.1004
  532BOLB   PO112746  23.724  31.652  14.571  0.0608 -0.0577 -0.0051
  532BOLB   GL112747  23.628  31.875  14.258 -0.0154  0.1649  0.1343
  532BOLB   GL212748  23.353  31.701  14.098  0.1941  0.0748  0.0929
  532BOLB   C1A12749  23.552  32.119  13.948 -0.1324  0.3321 -0.0230
  532BOLB   C2A12750  23.332  32.384  13.792  0.0611 -0.1111 -0.2102
  532BOLB   C3A12751  23.235  32.770  13.703  0.4465 -0.0384 -0.0961
  532BOLB   C4A12752  23.218  33.148  13.450 -0.0571 -0.1440  0.1733
  532BOLB   C1B12753  23.170  31.893  13.676 -0.1703 -0.1114  0.1903
  532BOLB   C2B12754  23.229  31.608  13.319  0.0802  0.2195  0.1043
  532BOLB   C3B12755  23.138  31.568  12.954  0.0508  0.0499 -0.0999
  532BOLB   C4B12756  23.191  31.642  12.529 -0.1059 -0.0691  0.0889
  532BOLB   NC212757  21.884  33.885  11.346 -0.2677 -0.1730 -0.2640
  532BOLB   PO212758  22.118  34.365  11.416  0.1411 -0.2118 -0.4138
  532BOLB   GL312759  22.279  34.044  11.694 -0.0303 -0.2786 -0.0128
  532BOLB   GL412760  21.990  34.043  11.950 -0.1499  0.2449 -0.1096
  532BOLB   C1C12761  22.394  33.748  12.034 -0.0960  0.2236 -0.0798
  532BOLB   C2C12762  22.502  33.580  12.479  0.1973  0.1841  0.0172
  532BOLB   C3C12763  22.702  33.367  12.794  0.0095 -0.2399 -0.2922
  532BOLB   C4C12764  23.014  33.403  13.137 -0.0281  0.1592 -0.1302
  532BOLB   C1D12765  21.993  33.751  12.312 -0.0211  0.0637  0.0372
  532BOLB   C2D12766  22.153  33.759  12.838  0.2269 -0.5548  0.0691
  532BOLB   C3D12767  22.257  33.765  13.207  0.0266 -0.3181  0.0353
  532BOLB   C4D12768  22.369  34.108  13.549 -0.2542 -0.0876  0.2557
  533BOLB   NC112769  28.163  29.416   3.182 -0.2233 -0.0235 -0.0010
  533BOLB   PO112770  28.640  29.393   3.169 -0.1243  0.0388  0.2730
  533BOLB   GL112771  28.460  29.304   3.595 -0.0961  0.2932  0.0991
  533BOLB   GL212772  28.704  28.981   3.699  0.0303  0.1180  0.1031
  533BOLB   C1A12773  28.249  29.494   3.814  0.0836  0.2425  0.0434
  533BOLB   C2A12774  28.222  29.530   4.182 -0.0030 -0.0481  0.1393
  533BOLB   C3A12775  28.104  29.346   4.568 -0.0711  0.2598 -0.1005
  533BOLB   C4A12776  28.158  29.149   4.953 -0.0530  0.1436 -0.0444
  533BOLB   C1B12777  28.722  29.146   4.148 -0.0986 -0.0566  0.0633
  533BOLB   C2B12778  28.663  29.435   4.489  0.1339  0.5108 -0.0907
  533BOLB   C3B12779  28.426  29.716   4.689 -0.0321  0.2313  0.0704
  533BOLB   C4B12780  28.275  30.025   4.849 -0.1245  0.1117  0.0172
  533BOLB   NC212781  27.819  29.238   7.786 -0.2625 -0.1275 -0.2215
  533BOLB   PO212782  28.153  29.098   7.461 -0.2412  0.3848 -0.3124
  533BOLB   GL312783  28.064  29.136   7.111  0.0728  0.2788  0.4966
  533BOLB   GL412784  27.924  29.382   7.134 -0.3667  0.0030  0.2613
  533BOLB   C1C12785  28.306  29.183   6.719 -0.1085 -0.0892 -0.1626
  533BOLB   C2C12786  28.498  29.248   6.333 -0.1080 -0.0541  0.1892
  533BOLB   C3C12787  28.443  29.301   5.812 -0.0809  0.0554  0.1114
  533BOLB   C4C12788  28.261  29.268   5.361  0.1972  0.1480  0.0562
  533BOLB   C1D12789  27.861  29.340   6.645  0.1490 -0.2645 -0.5925
  533BOLB   C2D12790  27.968  29.281   6.164  0.0332 -0.0608 -0.0436
  533BOLB   C3D12791  27.896  29.205   5.777  0.1711  0.2286  0.2449
  533BOLB   C4D12792  27.794  29.217   5.343 -0.1064 -0.0714 -0.2160
  534BOLB   NC112793  24.280  31.183  14.538  0.3529  0.1577  0.3646
  534BOLB   PO112794  24.110  31.016  14.158  0.0726  0.2607 -0.3484
  534BOLB   GL112795  24.297  31.047  13.701 -0.3670 -0.1883  0.2600
  534BOLB   GL212796  24.026  30.860  13.535  0.1465  0.0592 -0.1572
  534BOLB   C1A12797  24.229  31.504  13.410  0.1463 -0.0005  0.0274
  534BOLB   C2A12798  24.080  31.694  13.034  0.2958 -0.1197  0.3816
  534BOLB   C3A12799  23.824  31.970  12.715  0.0468 -0.1805  0.0229
  534BOLB   C4A12800  23.784  31.991  12.240 -0.1330 -0.0492  0.2841
  534BOLB   C1B12801  23.708  30.826  13.190  0.0395 -0.0769 -0.0339
  534BOLB   C2B12802  23.407  31.081  13.012  0.1049 -0.2706  0.0750
  534BOLB   C3B12803  23.056  31.160  12.749  0.0130 -0.2494  0.4925
  534BOLB   C4B12804  22.675  31.004  12.501  0.2910  0.0469 -0.0258
  534BOLB   NC212805  22.102  31.313  10.179  0.2011 -0.1626  0.2666
  534BOLB   PO212806  22.502  31.546  10.177 -0.1064  0.1882  0.0201
  534BOLB   GL312807  22.281  31.717  10.545 -0.3160 -0.2679  0.0289
  534BOLB   GL412808  22.132  32.015  10.627 -0.0063 -0.0415 -0.3809
  534BOLB   C1C12809  22.576  31.768  10.873 -0.0926 -0.0504  0.0335
  534BOLB   C2C12810  22.980  31.754  11.066  0.2164 -0.0942 -0.1051
  534BOLB   C3C12811  23.385  31.693  11.315  0.0188 -0.1890 -0.1858
  534BOLB   C4C12812  23.660  31.795  11.776 -0.1395  0.0559  0.2215
  534BOLB   C1D12813  22.127  31.935  11.140 -0.2292  0.0218 -0.4870
  534BOLB   C2D12814  22.309  32.153  11.602  0.3096 -0.0267  0.0255
  534BOLB   C3D12815  22.229  32.283  11.918 -0.1590 -0.1214  0.0848
  534BOLB   C4D12816  22.390  32.479  12.266 -0.0140 -0.0744  0.2401
  535BOLB   NC112817  34.434  34.069  23.199  0.2532  0.0087  0.0454
  535BOLB   PO112818  34.587  34.178  23.480  0.0328 -0.0249 -0.2712
  535BOLB   GL112819  35.021  34.132  23.656 -0.0519 -0.2253 -0.0729
  535BOLB   GL212820  35.252  34.251  23.557  0.3348 -0.0811  0.0087
  535BOLB   C1A12821  35.143  34.232  24.084  0.0492 -0.3652 -0.4173
  535BOLB   C2A12822  35.361  34.250  24.390 -0.2824  0.1599  0.0515
  535BOLB   C3A12823  35.788  34.448  24.537 -0.1375 -0.0216 -0.1700
  535BOLB   C4A12824  36.091  34.667  24.754  0.1790 -0.0137 -0.1754
  535BOLB   C1B12825  35.653  34.388  23.778 -0.1617  0.2773  0.0056
  535BOLB   C2B12826  35.799  34.602  24.083 -0.0173  0.0881  0.0802
  535BOLB   C3B12827  36.257  34.624  24.115  0.0424  0.3108 -0.0712
  535BOLB   C4B12828  36.654  34.306  24.166  0.0182 -0.0903  0.0103
  535BOLB   NC212829  37.848  36.120  25.315  0.0013 -0.1529 -0.1413
  535BOLB   PO212830  38.002  35.703  25.419 -0.0987  0.0974 -0.1872
  535BOLB   GL312831  37.648  35.604  25.173 -0.4645  0.1059  0.1187
  535BOLB   GL412832  37.721  35.566  24.897  0.0219 -0.0216  0.0625
  535BOLB   C1C12833  37.335  35.245  25.050 -0.2454 -0.1155  0.0049
  535BOLB   C2C12834  37.013  35.369  24.661 -0.1082 -0.0904  0.0874
  535BOLB   C3C12835  36.735  35.087  24.451 -0.1087 -0.2287 -0.1706
  535BOLB   C4C12836  36.452  34.755  24.640 -0.1224 -0.0970 -0.0099
  535BOLB   C1D12837  37.624  35.277  24.582  0.6088 -0.0386  0.2412
  535BOLB   C2D12838  37.276  34.954  24.485  0.0371 -0.1181  0.2289
  535BOLB   C3D12839  36.954  34.579  24.499  0.1593 -0.0313 -0.2355
  535BOLB   C4D12840  36.744  34.379  24.795  0.2504  0.0933 -0.0099
  536BOLB   NC112841  32.623  30.460   1.997 -0.2581 -0.1600 -0.3048
  536BOLB   PO112842  32.244  30.242   2.257  0.2375  0.0227  0.3323
  536BOLB   GL112843  32.470  30.408   2.608  0.1729 -0.0767 -0.0371
  536BOLB   GL212844  32.238  30.542   2.859 -0.4012 -0.1156  0.0493
  536BOLB   C1A12845  32.623  30.296   2.982 -0.0886 -0.2850 -0.1771
  536BOLB   C2A12846  32.802  29.943   3.194  0.2540 -0.1767  0.1501
  536BOLB   C3A12847  32.748  29.655   3.602  0.2935 -0.3872 -0.4636
  536BOLB   C4A12848  32.665  29.341   3.923 -0.1740  0.1232  0.2721
  536BOLB   C1B12849  32.502  30.795   3.093 -0.2326 -0.1784  0.0159
  536BOLB   C2B12850  32.636  30.827   3.514 -0.0393 -0.1895  0.2080
  536BOLB   C3B12851  32.888  31.144   3.745 -0.4350  0.5320  0.3133
  536BOLB   C4B12852  33.244  31.361   4.025  0.2584  0.1751 -0.0295
  536BOLB   NC212853  33.160  29.782   6.418 -0.2492 -0.0380  0.1125
  536BOLB   PO212854  33.605  29.882   6.158 -0.0198 -0.0118 -0.0284
  536BOLB   GL312855  33.279  29.830   5.866 -0.0005 -0.0775 -0.0550
  536BOLB   GL412856  32.971  29.639   5.882 -0.2472 -0.0888 -0.0895
  536BOLB   C1C12857  33.219  29.820   5.463  0.3314 -0.0128 -0.0647
  536BOLB   C2C12858  33.080  29.440   5.153  0.2097  0.0063  0.1377
  536BOLB   C3C12859  32.784  29.197   4.864  0.0739 -0.0392  0.1561
  536BOLB   C4C12860  32.715  29.133   4.400  0.0483 -0.1850 -0.0951
  536BOLB   C1D12861  32.711  29.798   5.666  0.2571  0.2097  0.0462
  536BOLB   C2D12862  32.375  30.110   5.563  0.2628 -0.2835  0.0962
  536BOLB   C3D12863  31.991  30.216   5.215 -0.1936  0.0786  0.1030
  536BOLB   C4D12864  31.892  30.466   4.868  0.3505 -0.3358  0.2118
  537BOLB   NC112865  23.923  35.328  16.767  0.1201 -0.1809 -0.2405
  537BOLB   PO112866  24.193  35.570  16.906 -0.7293 -0.1477  0.1356
  537BOLB   GL112867  24.160  35.878  16.587  0.2711  0.1774  0.1791
  537BOLB   GL212868  24.095  36.106  16.853  0.0189  0.1054 -0.2931
  537BOLB   C1A12869  24.135  35.898  16.112  0.0246 -0.2009 -0.0086
  537BOLB   C2A12870  23.965  36.097  15.757 -0.3391 -0.3439  0.1029
  537BOLB   C3A12871  23.856  36.501  15.498  0.0583  0.1765 -0.2023
  537BOLB   C4A12872  23.672  36.770  15.151  0.0771 -0.3339  0.1289
  537BOLB   C1B12873  23.908  36.524  16.931  0.0373  0.0460  0.4477
  537BOLB   C2B12874  23.452  36.759  16.823  0.0127 -0.2511 -0.1785
  537BOLB   C3B12875  23.628  37.122  16.646  0.3421 -0.0715 -0.2958
  537BOLB   C4B12876  23.943  37.326  16.573  0.0546 -0.3113  0.0214
  537BOLB   NC212877  22.305  38.216  14.941  0.0062 -0.0900 -0.0393
  537BOLB   PO212878  22.244  38.133  14.537  0.1040 -0.0506 -0.1849
  537BOLB   GL312879  22.447  37.819  14.674  0.0026  0.2131 -0.4189
  537BOLB   GL412880  22.537  37.687  15.007  0.1150  0.2351 -0.2715
  537BOLB   C1C12881  22.905  37.677  14.585  0.2177  0.1106  0.1818
  537BOLB   C2C12882  23.269  37.423  14.652 -0.1828  0.1288 -0.1406
  537BOLB   C3C12883  23.728  37.445  14.676 -0.1610  0.5215  0.2896
  537BOLB   C4C12884  23.800  37.025  14.868  0.3238  0.2014  0.1015
  537BOLB   C1D12885  22.720  37.202  15.239  0.0883 -0.0629 -0.0195
  537BOLB   C2D12886  22.651  36.818  15.210 -0.3584  0.1175  0.0255
  537BOLB   C3D12887  22.815  36.524  14.948 -0.1341  0.0907  0.0453
  537BOLB   C4D12888  23.294  36.383  14.881 -0.1050 -0.0447  0.3810
  538BOLB   NC112889  33.429  29.894   0.899 -0.0810 -0.0915  0.1276
  538BOLB   PO112890  33.182  29.741   1.127 -0.1862  0.2994 -0.0111
  538BOLB   GL112891  33.547  29.627   1.384 -0.0247  0.2082  0.0650
  538BOLB   GL212892  33.664  29.748   1.299 -0.0852 -0.1157  0.4326
  538BOLB   C1A12893  33.623  29.373   1.690 -0.2732  0.0933 -0.1206
  538BOLB   C2A12894  33.769  29.414   2.107 -0.1110  0.3279  0.0926
  538BOLB   C3A12895  33.805  29.425   2.569 -0.0086 -0.1495 -0.0725
  538BOLB   C4A12896  34.069  29.780   2.788  0.2486  0.2396 -0.1885
  538BOLB   C1B12897  33.758  30.253   1.322  0.1885 -0.1741 -0.0319
  538BOLB   C2B12898  34.066  30.391   1.568  0.2253  0.0491  0.4011
  538BOLB   C3B12899  34.004  30.350   1.964  0.4878  0.0716 -0.3313
  538BOLB   C4B12900  34.138  30.388   2.399  0.0630  0.2208 -0.0644
  538BOLB   NC212901  35.391  31.078   4.360  0.2139 -0.0063  0.0455
  538BOLB   PO212902  34.980  30.958   4.478 -0.0289  0.1295  0.0163
  538BOLB   GL312903  34.809  30.933   4.137  0.0741  0.0017 -0.0410
  538BOLB   GL412904  34.670  31.269   4.151 -0.1120  0.0408  0.0458
  538BOLB   C1C12905  34.770  30.589   3.864 -0.1019 -0.2929  0.0733
  538BOLB   C2C12906  34.607  30.537   3.463  0.0570  0.0710 -0.1853
  538BOLB   C3C12907  34.549  30.177   3.094  0.3216  0.1338 -0.3076
  538BOLB   C4C12908  34.337  30.101   2.790  0.0541 -0.1161  0.2550
  538BOLB   C1D12909  34.567  31.034   3.735 -0.0599 -0.4075  0.0024
  538BOLB   C2D12910  34.266  30.918   3.523 -0.1020  0.1373  0.0971
  538BOLB   C3D12911  34.292  30.902   3.063  0.0593  0.0805  0.1361
  538BOLB   C4D12912  34.126  30.704   2.823  0.1071  0.1786  0.3361
  539BOLB   NC112913  22.948  35.952  22.812 -0.0250  0.0448  0.0540
  539BOLB   PO112914  23.180  36.359  22.584 -0.3614 -0.5235  0.1086
  539BOLB   GL112915  23.001  36.711  22.581  0.1269  0.1449  0.2833
  539BOLB   GL212916  23.292  36.910  22.609  0.1692 -0.2484  0.0974
  539BOLB   C1A12917  22.648  36.955  22.611  0.2900 -0.1535 -0.1942
  539BOLB   C2A12918  22.365  37.194  22.795  0.1838  0.0298  0.0880
  539BOLB   C3A12919  21.966  37.454  22.802  0.1255  0.2078 -0.0907
  539BOLB   C4A12920  21.636  37.840  22.969  0.3251  0.1742  0.2543
  539BOLB   C1B12921  23.084  37.247  22.579 -0.0023 -0.0888 -0.0727
  539BOLB   C2B12922  22.824  37.607  22.709  0.0083  0.3228 -0.1640
  539BOLB   C3B12923  22.428  37.692  22.637 -0.5774  0.2406  0.0740
  539BOLB   C4B12924  22.166  37.846  22.957  0.1691 -0.3919 -0.1296
  539BOLB   NC212925  20.874  39.939  23.632  0.0356  0.1444  0.1938
  539BOLB   PO212926  21.303  39.898  23.646  0.0589 -0.0395 -0.0361
  539BOLB   GL312927  21.150  39.418  23.588  0.0249 -0.0389  0.1152
  539BOLB   GL412928  20.821  39.409  23.608 -0.0343 -0.0689 -0.3306
  539BOLB   C1C12929  21.125  39.027  23.824 -0.0143  0.1950 -0.0233
  539BOLB   C2C12930  21.226  38.557  23.716  0.2723  0.0420 -0.2597
  539BOLB   C3C12931  21.517  38.354  23.487  0.2080  0.2831 -0.1174
  539BOLB   C4C12932  21.460  38.108  23.145  0.1140 -0.1629  0.0565
  539BOLB   C1D12933  20.828  39.044  23.411  0.2192 -0.0531  0.3159
  539BOLB   C2D12934  21.018  38.625  23.253  0.0387  0.0896  0.3263
  539BOLB   C3D12935  21.032  38.336  22.990  0.0073  0.3482  0.1965
  539BOLB   C4D12936  21.178  38.008  22.710  0.0203 -0.1586  0.3703
  540BOLB   NC112937  20.693  26.913  18.237  0.1378  0.1131 -0.2143
  540BOLB   PO112938  20.586  26.972  17.706 -0.0383  0.0997  0.1705
  540BOLB   GL112939  20.230  26.639  17.511  0.0423 -0.0531  0.2244
  540BOLB   GL212940  20.332  26.345  17.520  0.0200 -0.2196  0.1782
  540BOLB   C1A12941  19.965  26.701  17.258 -0.0740 -0.5675 -0.1146
  540BOLB   C2A12942  19.541  26.794  17.151  0.3370  0.0544  0.1344
  540BOLB   C3A12943  19.210  26.798  16.875 -0.2075  0.3210  0.1674
  540BOLB   C4A12944  18.965  26.650  16.612 -0.2259 -0.1203 -0.3550
  540BOLB   C1B12945  20.037  26.102  17.649 -0.1008  0.0208  0.0070
  540BOLB   C2B12946  19.875  26.086  17.300 -0.1039  0.3731  0.2696
  540BOLB   C3B12947  19.836  25.957  17.001 -0.0110 -0.2969  0.1734
  540BOLB   C4B12948  19.400  25.921  16.876  0.3150  0.0815  0.1326
  540BOLB   NC212949  18.008  26.136  14.500 -0.2011  0.2251  0.0908
  540BOLB   PO212950  17.719  25.863  14.688 -0.2023 -0.0569  0.0760
  540BOLB   GL312951  18.122  25.920  14.934  0.5491  0.1094 -0.2921
  540BOLB   GL412952  18.343  25.661  15.085 -0.2535 -0.2639  0.0557
  540BOLB   C1C12953  18.229  26.102  15.331 -0.1004 -0.0068  0.0839
  540BOLB   C2C12954  18.556  26.130  15.592 -0.0533  0.1617 -0.1101
  540BOLB   C3C12955  18.795  26.498  15.754 -0.3267  0.0662 -0.0031
  540BOLB   C4C12956  18.868  26.567  16.185  0.1150  0.2153 -0.1754
  540BOLB   C1D12957  18.511  25.377  15.217  0.2248  0.0130 -0.3354
  540BOLB   C2D12958  18.681  25.511  15.647  0.3707  0.3132  0.1529
  540BOLB   C3D12959  18.879  25.619  15.943  0.1328  0.1682  0.0245
  540BOLB   C4D12960  18.933  25.858  16.396 -0.3246  0.0637  0.0902
  541BOLB   NC112961  28.127  35.658  16.316  0.0407 -0.1961  0.2599
  541BOLB   PO112962  27.927  35.888  15.991  0.0455 -0.1707 -0.0273
  541BOLB   GL112963  27.923  35.907  15.514  0.2452  0.3045 -0.3548
  541BOLB   GL212964  27.551  36.039  15.406  0.1201 -0.0997 -0.1195
  541BOLB   C1A12965  28.077  36.234  15.202  0.1140  0.1302 -0.2573
  541BOLB   C2A12966  28.013  36.579  14.860  0.1353 -0.0574  0.1071
  541BOLB   C3A12967  28.151  36.813  14.462  0.1796 -0.0708  0.2510
  541BOLB   C4A12968  28.371  36.890  14.162  0.0851 -0.0899  0.3360
  541BOLB   C1B12969  27.506  36.450  15.172  0.0444  0.3224  0.1871
  541BOLB   C2B12970  27.510  36.793  14.863  0.2608 -0.1206  0.0356
  541BOLB   C3B12971  27.637  36.921  14.483 -0.1529 -0.1985  0.1519
  541BOLB   C4B12972  27.843  37.271  14.301  0.2550  0.0430 -0.2097
  541BOLB   NC212973  29.200  37.971  12.197  0.0162  0.3953  0.0182
  541BOLB   PO212974  29.299  37.552  12.027  0.0296 -0.3097 -0.0186
  541BOLB   GL312975  29.372  37.325  12.389  0.1049 -0.0492  0.0155
  541BOLB   GL412976  29.546  37.147  12.452  0.1156 -0.3999 -0.2922
  541BOLB   C1C12977  29.194  37.175  12.786  0.0855 -0.3589 -0.4306
  541BOLB   C2C12978  29.056  37.148  13.221 -0.0330  0.0377 -0.0452
  541BOLB   C3C12979  28.656  37.010  13.378  0.0665  0.0965 -0.1707
  541BOLB   C4C12980  28.713  36.742  13.808  0.2292 -0.0264 -0.1338
  541BOLB   C1D12981  29.587  36.973  12.957 -0.5818 -0.0730 -0.0786
  541BOLB   C2D12982  29.378  36.733  13.341 -0.3169 -0.0697  0.0237
  541BOLB   C3D12983  29.094  36.412  13.419 -0.0471  0.1057 -0.0712
  541BOLB   C4D12984  28.556  36.381  13.486 -0.3812 -0.1797  0.0107
  542BOLB   NC112985  20.277  30.893  20.332  0.1977  0.1113 -0.2107
  542BOLB   PO112986  19.875  30.662  20.209 -0.2305  0.0444  0.0116
  542BOLB   GL112987  19.415  30.502  20.039  0.0395  0.1783  0.0532
  542BOLB   GL212988  19.189  30.273  19.854  0.0092 -0.0593  0.1875
  542BOLB   C1A12989  18.936  30.644  20.069 -0.0179 -0.2123 -0.1190
  542BOLB   C2A12990  18.568  30.875  20.207  0.0773 -0.0829 -0.0961
  542BOLB   C3A12991  18.127  30.812  20.257  0.0659 -0.0952  0.1967
  542BOLB   C4A12992  17.756  30.634  20.172  0.1656 -0.2915 -0.4062
  542BOLB   C1B12993  18.815  30.190  19.666  0.1800 -0.0416 -0.0010
  542BOLB   C2B12994  18.432  30.183  19.424  0.0852 -0.0438  0.0529
  542BOLB   C3B12995  18.020  30.146  19.159 -0.1548 -0.2711 -0.1328
  542BOLB   C4B12996  17.755  30.480  19.230  0.1972  0.0589  0.2868
  542BOLB   NC212997  15.603  32.400  20.276 -0.0328 -0.1271  0.0501
  542BOLB   PO212998  16.019  32.504  20.204 -0.0646 -0.3737 -0.2027
  542BOLB   GL312999  16.182  32.148  20.220  0.0364  0.0965  0.1336
  542BOLB   GL413000  15.845  31.994  20.336  0.0367  0.1358  0.3064
  542BOLB   C1C13001  16.496  31.848  20.171 -0.3617 -0.2341 -0.0550
  542BOLB   C2C13002  16.774  31.526  20.321  0.2065 -0.1158 -0.1882
  542BOLB   C3C13003  17.074  31.218  20.082 -0.1587 -0.0663 -0.2413
  542BOLB   C4C13004  17.385  30.846  20.058  0.2720  0.0738 -0.0011
  542BOLB   C1D13005  15.890  31.663  20.123  0.0399  0.1539  0.0924
  542BOLB   C2D13006  16.176  31.595  19.805 -0.3054  0.3101 -0.1166
  542BOLB   C3D13007  16.626  31.478  19.873 -0.0793  0.0257  0.2295
  542BOLB   C4D13008  17.019  31.792  19.857  0.1182 -0.1161 -0.4380
  543BOLB   NC113009  28.960  18.249   1.196  0.0397  0.0868  0.3463
  543BOLB   PO113010  28.676  18.152   1.576 -0.1583 -0.0513 -0.0550
  543BOLB   GL113011  28.222  18.229   1.533 -0.0543  0.1385  0.0027
  543BOLB   GL213012  28.177  18.335   1.760 -0.0906  0.0087 -0.0104
  543BOLB   C1A13013  27.971  18.522   1.217 -0.0317 -0.0971 -0.0935
  543BOLB   C2A13014  27.659  18.903   0.946 -0.2440  0.0320 -0.1677
  543BOLB   C3A13015  27.216  18.865   0.905 -0.1857 -0.1048  0.1729
  543BOLB   C4A13016  26.997  18.791   1.233  0.1511 -0.2837 -0.0707
  543BOLB   C1B13017  28.358  18.712   1.603 -0.2371 -0.0760  0.3464
  543BOLB   C2B13018  28.208  19.174   1.611 -0.4303  0.1609  0.0736
  543BOLB   C3B13019  28.200  19.464   1.224 -0.2442  0.0357  0.0754
  543BOLB   C4B13020  28.352  19.750   0.814  0.0309 -0.1662 -0.1392
  543BOLB   NC213021  28.255  18.292   2.831 -0.2946  0.0652  0.2099
  543BOLB   PO213022  28.121  17.951   3.076  0.0966 -0.0682  0.1935
  543BOLB   GL313023  27.743  18.105   2.832  0.0471 -0.0259  0.0834
  543BOLB   GL413024  27.418  17.994   2.984  0.0719 -0.1787  0.0738
  543BOLB   C1C13025  27.531  18.185   2.441  0.0109  0.3508  0.3144
  543BOLB   C2C13026  27.215  18.388   2.160  0.2049  0.3951 -0.3562
  543BOLB   C3C13027  26.852  18.700   1.986  0.0228  0.2926 -0.2947
  543BOLB   C4C13028  26.742  18.773   1.609 -0.0498 -0.0847  0.1684
  543BOLB   C1D13029  27.498  18.316   3.212  0.1648 -0.0381  0.1810
  543BOLB   C2D13030  27.644  18.676   3.237 -0.1191  0.1276 -0.1042
  543BOLB   C3D13031  27.536  19.001   3.412  0.0910  0.0735 -0.0544
  543BOLB   C4D13032  27.133  19.179   3.524 -0.0638  0.0869  0.2919
  544BOLB   NC113033  29.460  26.630   1.866  0.2680  0.1855  0.0447
  544BOLB   PO113034  29.493  26.847   2.263  0.2644 -0.1887 -0.3557
  544BOLB   GL113035  29.436  26.454   2.561 -0.3690  0.3653  0.1646
  544BOLB   GL213036  29.138  26.377   2.647 -0.1507 -0.1032 -0.0801
  544BOLB   C1A13037  29.488  26.054   2.769 -0.0613  0.0277 -0.2346
  544BOLB   C2A13038  29.382  25.933   3.173  0.2312  0.1841 -0.1511
  544BOLB   C3A13039  29.421  25.843   3.678 -0.1250 -0.1686  0.3072
  544BOLB   C4A13040  29.205  25.688   4.108  0.4020 -0.3750  0.2480
  544BOLB   C1B13041  28.929  26.085   2.847 -0.1140 -0.0064  0.0377
  544BOLB   C2B13042  28.856  25.820   3.100  0.0988 -0.1260  0.0038
  544BOLB   C3B13043  29.071  25.611   3.416 -0.0230  0.0811  0.1677
  544BOLB   C4B13044  29.277  25.283   3.559  0.0156  0.2893  0.0361
  544BOLB   NC213045  29.455  24.559   6.425 -0.0799 -0.2420 -0.3943
  544BOLB   PO213046  29.670  24.965   6.466 -0.0449  0.1235  0.1801
  544BOLB   GL313047  29.666  25.139   5.950 -0.2347 -0.0567 -0.1567
  544BOLB   GL413048  29.279  24.969   6.017  0.1306 -0.2373  0.0322
  544BOLB   C1C13049  29.579  25.461   5.707 -0.0075 -0.0222  0.0980
  544BOLB   C2C13050  29.462  25.581   5.369 -0.0533  0.0295  0.0153
  544BOLB   C3C13051  29.304  25.496   4.929  0.0666  0.0938 -0.0366
  544BOLB   C4C13052  29.282  25.426   4.428  0.2025  0.2949 -0.1421
  544BOLB   C1D13053  28.919  24.886   5.914 -0.1642 -0.0422 -0.0848
  544BOLB   C2D13054  28.561  24.649   5.965  0.1322  0.1741  0.1799
  544BOLB   C3D13055  28.495  24.132   6.020 -0.4614  0.1936 -0.1703
  544BOLB   C4D13056  28.493  23.729   6.294  0.0337 -0.0347 -0.1565
  545BOLB   NC113057  23.104  30.167  14.336  0.2109 -0.3030 -0.1307
  545BOLB   PO113058  23.568  30.246  14.050 -0.1283 -0.1525 -0.2472
  545BOLB   GL113059  23.214  30.175  13.790  0.0612 -0.1345 -0.4315
  545BOLB   GL213060  23.168  29.919  13.923 -0.3213  0.2173 -0.4996
  545BOLB   C1A13061  22.874  29.950  13.578  0.1245  0.1792 -0.0434
  545BOLB   C2A13062  22.506  30.001  13.318  0.0827 -0.1919 -0.1300
  545BOLB   C3A13063  22.120  30.035  13.213  0.0713  0.3339  0.1457
  545BOLB   C4A13064  21.703  30.019  13.059  0.4233  0.0711  0.1016
  545BOLB   C1B13065  22.799  29.604  13.975 -0.0239  0.4343 -0.6786
  545BOLB   C2B13066  22.548  29.549  13.697  0.1645 -0.1416  0.0335
  545BOLB   C3B13067  22.378  29.472  13.229 -0.1309  0.1756 -0.2880
  545BOLB   C4B13068  22.200  29.641  12.819  0.2967  0.2033  0.3386
  545BOLB   NC213069  19.815  29.412  11.890  0.1160 -0.1953  0.0615
  545BOLB   PO213070  20.155  29.205  11.824  0.2725  0.0164 -0.1130
  545BOLB   GL313071  20.639  29.229  11.848  0.1098  0.1024  0.4872
  545BOLB   GL413072  20.683  29.561  11.929 -0.0757  0.0331  0.1553
  545BOLB   C1C13073  20.941  29.147  12.179 -0.2191 -0.2803  0.5812
  545BOLB   C2C13074  21.232  29.149  12.498  0.2075 -0.1040 -0.0294
  545BOLB   C3C13075  21.310  29.409  12.857  0.1081 -0.0855  0.1404
  545BOLB   C4C13076  21.347  29.847  13.091 -0.3281  0.1406  0.0138
  545BOLB   C1D13077  20.984  29.615  12.345 -0.0768 -0.0990  0.2424
  545BOLB   C2D13078  20.952  29.751  12.802  0.1217 -0.0807  0.6741
  545BOLB   C3D13079  20.639  29.749  12.994  0.0073  0.0597  0.0241
  545BOLB   C4D13080  20.405  30.073  13.255 -0.1333 -0.2898  0.2075
  546BOLB   NC113081  27.188  28.646   2.595 -0.0158 -0.1238  0.0571
  546BOLB   PO113082  27.068  28.871   3.072 -0.3587 -0.0162  0.0927
  546BOLB   GL113083  27.262  28.685   3.448  0.0805  0.1594  0.1673
  546BOLB   GL213084  27.554  28.572   3.445  0.3108  0.2462  0.3412
  546BOLB   C1A13085  27.178  28.830   3.824  0.0479  0.0426  0.1704
  546BOLB   C2A13086  27.162  28.888   4.282 -0.3293  0.0671 -0.1014
  546BOLB   C3A13087  27.382  28.796   4.585  0.2296  0.0095 -0.4080
  546BOLB   C4A13088  27.699  28.770   4.967  0.1316 -0.0909  0.0912
  546BOLB   C1B13089  27.480  28.353   3.829 -0.4136 -0.1514 -0.1166
  546BOLB   C2B13090  27.636  28.320   4.251  0.0558  0.0260 -0.2994
  546BOLB   C3B13091  27.622  28.343   4.732 -0.0101  0.1907 -0.2046
  546BOLB   C4B13092  27.819  28.222   5.134 -0.2757  0.1391 -0.1562
  546BOLB   NC213093  27.921  28.616   7.574 -0.1971  0.1901 -0.3371
  546BOLB   PO213094  28.150  28.524   7.219  0.0802  0.0222  0.5320
  546BOLB   GL313095  28.164  28.696   6.921 -0.1159  0.2167 -0.1081
  546BOLB   GL413096  28.453  28.574   6.798 -0.0044  0.2273  0.2709
  546BOLB   C1C13097  27.894  28.889   6.658  0.0655  0.0450  0.2549
  546BOLB   C2C13098  27.841  28.756   6.207  0.1474 -0.0279 -0.3916
  546BOLB   C3C13099  27.787  28.596   5.787 -0.0905  0.1137 -0.0963
  546BOLB   C4C13100  27.595  28.625   5.356 -0.2430 -0.2210 -0.1935
  546BOLB   C1D13101  28.261  28.640   6.419 -0.4434  0.4192  0.2456
  546BOLB   C2D13102  28.316  28.892   6.057 -0.0443 -0.0077 -0.0898
  546BOLB   C3D13103  28.234  28.871   5.655 -0.1293  0.2157 -0.3244
  546BOLB   C4D13104  28.082  28.778   5.289  0.0387 -0.1584  0.2496
  547BOLB   NC113105  34.342  24.963  19.567  0.2526  0.2087 -0.0869
  547BOLB   PO113106  34.507  25.228  19.903  0.2624 -0.1547 -0.0854
  547BOLB   GL113107  34.827  25.561  20.179 -0.2836 -0.3687  0.1365
  547BOLB   GL213108  34.994  25.822  20.239 -0.1090 -0.1362 -0.1228
  547BOLB   C1A13109  35.304  25.453  20.309  0.0458 -0.1987 -0.3453
  547BOLB   C2A13110  35.695  25.284  20.094  0.0737 -0.0919 -0.1634
  547BOLB   C3A13111  36.090  25.373  19.805 -0.0582 -0.0973  0.1488
  547BOLB   C4A13112  36.337  25.081  19.500 -0.0012 -0.1735  0.0561
  547BOLB   C1B13113  35.421  25.970  20.064  0.0325  0.3343  0.1770
  547BOLB   C2B13114  35.764  25.840  19.854  0.0792 -0.3312  0.0395
  547BOLB   C3B13115  36.228  25.877  19.661 -0.0623 -0.1407  0.0184
  547BOLB   C4B13116  36.783  25.913  19.644 -0.2149  0.0478 -0.1129
  547BOLB   NC213117  37.786  23.360  18.901 -0.3084 -0.0548 -0.2488
  547BOLB   PO213118  37.985  23.615  18.529  0.0241  0.0682 -0.0672
  547BOLB   GL313119  37.612  23.831  18.753 -0.0373  0.2307  0.2138
  547BOLB   GL413120  37.729  24.107  18.536 -0.1041  0.0838  0.4043
  547BOLB   C1C13121  37.399  23.908  19.140 -0.2075 -0.1392 -0.3051
  547BOLB   C2C13122  37.454  24.220  19.441 -0.0785  0.1010  0.1334
  547BOLB   C3C13123  37.175  24.473  19.665 -0.0439  0.1267  0.2555
  547BOLB   C4C13124  36.669  24.755  19.664  0.0519  0.1781  0.0650
  547BOLB   C1D13125  37.492  24.273  18.800  0.1320  0.0457  0.0520
  547BOLB   C2D13126  37.070  24.252  19.099  0.2005  0.0123  0.3092
  547BOLB   C3D13127  36.814  24.167  19.579 -0.0777  0.0070  0.1357
  547BOLB   C4D13128  36.478  23.967  19.739  0.0879 -0.4075  0.1861
  548BOLB   NC113129  27.267  21.650  20.203  0.1891 -0.1291 -0.2326
  548BOLB   PO113130  27.285  21.405  20.594 -0.2613 -0.0988 -0.1138
  548BOLB   GL113131  27.388  20.969  20.338 -0.0848 -0.3836 -0.3340
  548BOLB   GL213132  27.337  20.863  20.027 -0.0586 -0.1666 -0.2386
  548BOLB   C1A13133  27.789  20.746  20.312  0.3158  0.1424 -0.0239
  548BOLB   C2A13134  27.896  20.384  20.423  0.1464  0.0113  0.1058
  548BOLB   C3A13135  28.088  19.967  20.577  0.2674 -0.0017  0.0051
  548BOLB   C4A13136  28.434  19.640  20.451 -0.2335 -0.3160 -0.1172
  548BOLB   C1B13137  27.555  20.571  19.935  0.0268  0.1255 -0.1417
  548BOLB   C2B13138  27.833  20.184  19.842 -0.0645  0.2021  0.0999
  548BOLB   C3B13139  27.765  19.828  19.738  0.0286 -0.0728 -0.1997
  548BOLB   C4B13140  27.441  19.648  19.530 -0.1581  0.1323 -0.1558
  548BOLB   NC213141  28.116  17.083  19.891  0.1033 -0.0231 -0.1123
  548BOLB   PO213142  28.173  17.467  19.648 -0.0710 -0.0517 -0.1420
  548BOLB   GL313143  28.049  17.877  19.750  0.3044 -0.0369  0.4049
  548BOLB   GL413144  27.736  17.889  19.794 -0.0672  0.1066 -0.1543
  548BOLB   C1C13145  28.385  18.200  19.936 -0.0272 -0.0069 -0.0342
  548BOLB   C2C13146  28.649  18.589  19.913 -0.0671  0.0957  0.4531
  548BOLB   C3C13147  28.521  19.059  20.061  0.2602  0.0373 -0.4245
  548BOLB   C4C13148  28.630  19.359  20.305 -0.0699  0.0728  0.0878
  548BOLB   C1D13149  27.820  18.280  20.004  0.0483 -0.0228 -0.2285
  548BOLB   C2D13150  27.892  18.653  20.124  0.0967  0.3238  0.1260
  548BOLB   C3D13151  27.954  19.064  20.172  0.0692 -0.0870  0.0437
  548BOLB   C4D13152  28.279  19.131  20.544  0.0149 -0.1877 -0.0608
  549BOLB   NC113153  19.868  16.333  24.489 -0.0956  0.0701  0.1502
  549BOLB   PO113154  20.097  16.643  24.207  0.0049 -0.3174  0.3847
  549BOLB   GL113155  19.810  17.011  24.017  0.2042 -0.1761  0.0183
  549BOLB   GL213156  19.544  16.870  23.779 -0.0361 -0.0701 -0.0917
  549BOLB   C1A13157  19.962  17.327  23.839  0.2031 -0.0693  0.1913
  549BOLB   C2A13158  20.240  17.509  23.651 -0.0929 -0.3286  0.2724
  549BOLB   C3A13159  20.437  17.780  23.305  0.1972 -0.1891 -0.1338
  549BOLB   C4A13160  20.622  17.653  22.910 -0.0454  0.0456 -0.0538
  549BOLB   C1B13161  19.852  17.076  23.438 -0.0843 -0.2213  0.1267
  549BOLB   C2B13162  20.280  17.026  23.581  0.1384  0.3493 -0.5060
  549BOLB   C3B13163  20.557  17.105  23.963  0.0423 -0.3351 -0.2189
  549BOLB   C4B13164  20.868  16.934  24.110 -0.2703 -0.3719  0.0946
  549BOLB   NC213165  21.177  15.523  23.054  0.1007  0.1280 -0.0369
  549BOLB   PO213166  20.791  15.783  22.888 -0.1338 -0.4362 -0.0187
  549BOLB   GL313167  21.033  16.104  22.667  0.1521 -0.2807  0.0961
  549BOLB   GL413168  20.984  16.313  22.399 -0.1600  0.1462 -0.1235
  549BOLB   C1C13169  21.291  16.430  22.806 -0.3700 -0.2888 -0.3073
  549BOLB   C2C13170  21.336  16.932  22.575  0.0058  0.0661  0.0275
  549BOLB   C3C13171  21.287  17.350  22.530  0.4532 -0.0421  0.1356
  549BOLB   C4C13172  21.059  17.735  22.726  0.2666  0.2896  0.1833
  549BOLB   C1D13173  20.773  16.646  22.266  0.0781 -0.0026 -0.1511
  549BOLB   C2D13174  20.887  17.111  22.304 -0.2888 -0.1106 -0.3856
  549BOLB   C3D13175  21.074  17.348  21.987 -0.3551  0.2747  0.0131
  549BOLB   C4D13176  20.938  17.788  21.956  0.3753 -0.3287 -0.0070
  550BOLB   NC113177  28.888  21.403  24.433  0.0529  0.3389  0.1168
  550BOLB   PO113178  29.205  21.629  24.212  0.1411 -0.0201  0.4173
  550BOLB   GL113179  29.347  21.234  24.166  0.1987  0.1503 -0.3184
  550BOLB   GL213180  29.364  21.155  23.902  0.1048 -0.3512 -0.0906
  550BOLB   C1A13181  29.106  20.790  24.318  0.1653  0.1323 -0.2304
  550BOLB   C2A13182  28.915  20.619  24.648 -0.1648 -0.0924  0.3389
  550BOLB   C3A13183  28.661  20.334  24.864 -0.0109  0.0274 -0.0059
  550BOLB   C4A13184  28.674  19.928  24.748  0.1006  0.1352  0.2053
  550BOLB   C1B13185  29.487  20.684  23.978  0.0417  0.2299 -0.1368
  550BOLB   C2B13186  29.731  20.372  23.865 -0.2526  0.1291  0.1231
  550BOLB   C3B13187  30.107  20.006  23.931 -0.0923  0.1383 -0.1295
  550BOLB   C4B13188  30.133  19.541  23.877  0.2062 -0.0753  0.2658
  550BOLB   NC213189  30.402  17.872  24.858 -0.0205 -0.1900  0.0232
  550BOLB   PO213190  29.875  17.925  24.809 -0.2522  0.0089  0.2547
  550BOLB   GL313191  29.691  18.274  25.011 -0.2385 -0.0018  0.0580
  550BOLB   GL413192  29.456  18.205  24.739 -0.0706 -0.0765 -0.0283
  550BOLB   C1C13193  29.592  18.562  25.133  0.1533  0.0212 -0.0010
  550BOLB   C2C13194  29.350  18.912  24.941  0.1618 -0.1290 -0.1984
  550BOLB   C3C13195  29.114  19.130  24.696 -0.0064 -0.1412 -0.2613
  550BOLB   C4C13196  28.921  19.585  24.607  0.0861  0.3210  0.1389
  550BOLB   C1D13197  29.200  18.458  24.876  0.2184  0.4460 -0.0519
  550BOLB   C2D13198  28.819  18.661  24.757  0.0666  0.0672  0.1518
  550BOLB   C3D13199  28.527  18.971  24.902  0.1134  0.2339 -0.1883
  550BOLB   C4D13200  28.226  19.222  24.945  0.0839 -0.0515 -0.3044
  551BOLB   NC113201  20.645  28.741  17.964 -0.3239 -0.0572 -0.3545
  551BOLB   PO113202  20.255  28.499  18.214 -0.2296 -0.1005  0.2179
  551BOLB   GL113203  19.909  28.341  18.017 -0.2306  0.4304 -0.0143
  551BOLB   GL213204  19.958  27.952  18.019 -0.0634 -0.0453  0.2547
  551BOLB   C1A13205  19.584  28.211  17.767  0.0110 -0.1534  0.1018
  551BOLB   C2A13206  19.231  28.366  17.609  0.0135 -0.1150  0.0785
  551BOLB   C3A13207  18.986  28.358  17.286  0.2461  0.0827  0.1196
  551BOLB   C4A13208  18.819  28.499  16.928 -0.2162 -0.0250 -0.0278
  551BOLB   C1B13209  19.582  27.751  18.153  0.0317  0.0337  0.0827
  551BOLB   C2B13210  19.218  27.912  17.938 -0.0313 -0.0366 -0.1221
  551BOLB   C3B13211  18.780  28.073  17.739  0.1472 -0.0750  0.2019
  551BOLB   C4B13212  18.459  28.281  17.908  0.0156  0.0883 -0.0806
  551BOLB   NC213213  17.871  27.946  14.622  0.1071  0.1395  0.3658
  551BOLB   PO213214  17.522  27.967  14.984  0.0042 -0.1291  0.2333
  551BOLB   GL313215  17.667  27.753  15.391 -0.0090  0.0970  0.1391
  551BOLB   GL413216  17.583  27.862  15.757  0.2551 -0.1863 -0.2244
  551BOLB   C1C13217  18.086  27.640  15.549 -0.0864 -0.2873 -0.1602
  551BOLB   C2C13218  18.331  27.748  15.984  0.1238  0.0485  0.2220
  551BOLB   C3C13219  18.685  28.020  16.194  0.1380  0.1753 -0.2990
  551BOLB   C4C13220  18.742  28.177  16.608  0.0691  0.1364 -0.0665
  551BOLB   C1D13221  17.908  28.049  16.079  0.0627  0.0172  0.0234
  551BOLB   C2D13222  17.804  28.301  16.450 -0.0747 -0.0409 -0.0746
  551BOLB   C3D13223  17.986  28.797  16.534  0.1651  0.1069  0.0586
  551BOLB   C4D13224  18.309  28.993  16.782 -0.1424 -0.1167 -0.3851
  552BOLB   NC113225  32.143  36.683  20.469  0.6138  0.2308  0.1281
  552BOLB   PO113226  32.291  36.440  20.790 -0.0209  0.1019 -0.0914
  552BOLB   GL113227  32.542  36.887  20.916  0.2735 -0.1643  0.1206
  552BOLB   GL213228  32.807  36.701  21.055  0.1257 -0.2596 -0.1223
  552BOLB   C1A13229  32.503  37.289  20.995  0.0450  0.2005  0.0507
  552BOLB   C2A13230  32.577  37.724  21.149 -0.1270  0.2404 -0.1450
  552BOLB   C3A13231  32.535  38.266  21.177  0.3994 -0.0270 -0.0809
  552BOLB   C4A13232  32.343  38.591  20.825 -0.4345  0.1196  0.1618
  552BOLB   C1B13233  32.976  37.075  21.059 -0.3505 -0.0268 -0.0679
  552BOLB   C2B13234  33.094  37.296  21.287  0.0862  0.1598 -0.0892
  552BOLB   C3B13235  33.468  37.609  21.234  0.1581 -0.1293 -0.1598
  552BOLB   C4B13236  33.522  37.814  21.542  0.3705 -0.2896  0.3739
  552BOLB   NC213237  34.188  40.414  21.062 -0.1172  0.0189 -0.2110
  552BOLB   PO213238  34.197  40.208  21.385  0.0786  0.1276  0.2219
  552BOLB   GL313239  33.871  39.827  21.372  0.0833  0.0846 -0.1963
  552BOLB   GL413240  33.569  39.862  21.513  0.4128  0.0298 -0.0045
  552BOLB   C1C13241  33.654  39.423  21.317  0.1744 -0.3139  0.1419
  552BOLB   C2C13242  33.326  39.157  21.205 -0.0292 -0.0849 -0.0831
  552BOLB   C3C13243  32.904  39.161  20.950 -0.0255  0.1572  0.0978
  552BOLB   C4C13244  32.532  39.035  20.778  0.1154  0.0518 -0.0896
  552BOLB   C1D13245  33.286  39.722  21.248 -0.3156  0.2886 -0.0350
  552BOLB   C2D13246  32.912  39.564  21.265 -0.1495 -0.4360  0.0266
  552BOLB   C3D13247  32.864  39.469  21.718  0.0893  0.3912 -0.4920
  552BOLB   C4D13248  32.766  39.176  22.028  0.0232  0.1447 -0.2298
  553BOLB   NC113249  26.187  37.120  24.941 -0.2724 -0.0941 -0.5018
  553BOLB   PO113250  25.913  36.860  25.191  0.3268  0.0563  0.0425
  553BOLB   GL113251  25.747  37.137  25.419  0.1753  0.2079 -0.2728
  553BOLB   GL213252  25.868  37.383  25.234  0.2787 -0.4080  0.0404
  553BOLB   C1A13253  25.568  37.512  25.682  0.0329  0.0634 -0.2165
  553BOLB   C2A13254  25.393  37.935  25.713  0.3350 -0.0473  0.0176
  553BOLB   C3A13255  25.270  38.337  25.778  0.0736  0.0086 -0.0301
  553BOLB   C4A13256  25.323  38.567  26.183  0.0082 -0.0300  0.1726
  553BOLB   C1B13257  25.608  37.783  25.275 -0.2673  0.0745 -0.2758
  553BOLB   C2B13258  25.342  38.075  25.204  0.2497 -0.0330 -0.0682
  553BOLB   C3B13259  25.034  38.236  25.356  0.0331 -0.0021 -0.1248
  553BOLB   C4B13260  24.832  38.541  25.689  0.1023 -0.2364 -0.0907
  553BOLB   NC213261  25.217  40.224   1.015 -0.0587  0.3400  0.0922
  553BOLB   PO213262  24.849  40.042   1.011  0.1219 -0.1986 -0.0100
  553BOLB   GL313263  24.741  39.824   0.668 -0.0881  0.1204 -0.3322
  553BOLB   GL413264  24.935  39.936   0.437 -0.4263 -0.0890 -0.2067
  553BOLB   C1C13265  24.768  39.464   0.441 -0.2129 -0.1319 -0.1283
  553BOLB   C2C13266  25.047  39.372   0.017  0.2325  0.0096 -0.3707
  553BOLB   C3C13267  25.054  39.075  26.663 -0.1747  0.2876  0.1814
  553BOLB   C4C13268  25.185  38.744  26.579  0.3182 -0.3440 -0.1724
  553BOLB   C1D13269  25.076  39.855   0.050  0.0453 -0.0951  0.1485
  553BOLB   C2D13270  25.310  39.661  26.642  0.1104 -0.0566  0.2678
  553BOLB   C3D13271  25.606  39.448  26.303  0.1641 -0.1257  0.1592
  553BOLB   C4D13272  25.482  39.255  25.966 -0.1499  0.3143 -0.2187
  554BOLB   NC113273  20.114  31.378  19.503 -0.2884  0.0078  0.1509
  554BOLB   PO113274  20.091  31.765  19.753  0.0725 -0.0057 -0.0284
  554BOLB   GL113275  19.713  31.495  19.758  0.1188  0.2532 -0.1341
  554BOLB   GL213276  19.564  31.816  19.841  0.1625  0.1026  0.0437
  554BOLB   C1A13277  19.231  31.496  20.023 -0.1410 -0.1996 -0.0456
  554BOLB   C2A13278  18.908  31.647  19.784  0.0301 -0.1769 -0.0143
  554BOLB   C3A13279  18.464  31.595  19.491 -0.4060  0.1890 -0.4262
  554BOLB   C4A13280  17.980  31.468  19.631 -0.1222 -0.2280 -0.0401
  554BOLB   C1B13281  19.200  32.063  19.871 -0.3873 -0.1242 -0.2051
  554BOLB   C2B13282  18.845  32.154  19.677 -0.1674 -0.2118  0.0104
  554BOLB   C3B13283  18.376  32.009  19.712 -0.0153  0.2075 -0.3938
  554BOLB   C4B13284  17.968  32.010  19.589 -0.1791  0.2315 -0.1365
  554BOLB   NC213285  15.440  30.990  18.436 -0.0145 -0.1617  0.2646
  554BOLB   PO213286  15.848  31.004  18.361  0.1076 -0.3551  0.0535
  554BOLB   GL313287  16.201  31.248  18.602  0.2283  0.0500  0.4775
  554BOLB   GL413288  16.503  31.390  18.382  0.3932 -0.2699  0.1573
  554BOLB   C1C13289  16.496  31.385  19.061  0.0076  0.0454 -0.2050
  554BOLB   C2C13290  16.718  31.499  19.399 -0.0568  0.2280 -0.2640
  554BOLB   C3C13291  17.081  31.391  19.616  0.0241 -0.1166 -0.2501
  554BOLB   C4C13292  17.547  31.430  19.619 -0.1447 -0.1463 -0.0326
  554BOLB   C1D13293  16.710  31.608  18.562 -0.1214 -0.0176 -0.0858
  554BOLB   C2D13294  16.993  31.508  18.854  0.2374  0.1133 -0.2036
  554BOLB   C3D13295  17.406  31.367  18.731 -0.0982  0.1214  0.0235
  554BOLB   C4D13296  17.709  31.090  18.725  0.1376  0.0593  0.0155
  555BOLB   NC113297  29.966  27.877  14.112 -0.0515  0.0331 -0.1103
  555BOLB   PO113298  30.042  28.293  14.113  0.0407  0.2148 -0.0135
  555BOLB   GL113299  30.085  28.258  13.710  0.0469 -0.0509  0.2515
  555BOLB   GL213300  30.003  27.947  13.620  0.3669 -0.3390  0.2881
  555BOLB   C1A13301  30.215  28.364  13.332  0.1907  0.1240  0.0324
  555BOLB   C2A13302  30.004  28.394  12.955 -0.1000 -0.1276  0.0732
  555BOLB   C3A13303  29.835  28.167  12.671 -0.2996 -0.0712  0.2982
  555BOLB   C4A13304  29.583  28.334  12.220  0.2458  0.1457 -0.1592
  555BOLB   C1B13305  30.042  27.923  13.112  0.1309  0.1501  0.2155
  555BOLB   C2B13306  30.015  27.706  12.690 -0.2384 -0.1492 -0.3012
  555BOLB   C3B13307  29.601  27.469  12.417 -0.1191  0.0864  0.1020
  555BOLB   C4B13308  29.191  27.669  12.194  0.1641 -0.1121 -0.3118
  555BOLB   NC213309  29.986  27.608   9.512  0.2254 -0.1213  0.3033
  555BOLB   PO213310  30.051  27.684   9.971 -0.0268  0.0152  0.2189
  555BOLB   GL313311  29.795  27.792  10.307  0.1254  0.0955  0.1094
  555BOLB   GL413312  29.559  27.642  10.361 -0.0961 -0.0554 -0.2405
  555BOLB   C1C13313  29.665  28.060  10.690  0.1569  0.0179  0.2775
  555BOLB   C2C13314  29.661  28.111  11.138  0.2523 -0.4306 -0.0813
  555BOLB   C3C13315  29.752  28.198  11.453  0.3661 -0.0849 -0.2011
  555BOLB   C4C13316  29.642  28.424  11.759 -0.0990 -0.3407 -0.0067
  555BOLB   C1D13317  29.712  27.527  10.765 -0.1053  0.1497  0.5176
  555BOLB   C2D13318  29.779  27.582  11.125  0.2644  0.2829 -0.0281
  555BOLB   C3D13319  29.638  27.677  11.481 -0.0356 -0.5968  0.1157
  555BOLB   C4D13320  29.482  27.990  11.881 -0.0426  0.4185 -0.0419
  556BOLB   NC113321  33.360  28.617  26.450  0.3174  0.0316 -0.1648
  556BOLB   PO113322  33.546  28.477  26.860 -0.0428  0.0631 -0.0836
  556BOLB   GL113323  33.851  28.547   0.100  0.0219  0.1431  0.0210
  556BOLB   GL213324  33.912  28.334   0.344  0.2067 -0.1745 -0.2882
  556BOLB   C1A13325  34.226  28.708   0.208 -0.0391  0.0346 -0.2462
  556BOLB   C2A13326  34.571  28.819   0.600  0.0907  0.3591  0.1924
  556BOLB   C3A13327  34.962  28.791   0.888  0.0301  0.1125  0.2453
  556BOLB   C4A13328  35.280  28.992   1.201 -0.4072  0.2463  0.0081
  556BOLB   C1B13329  34.193  28.508   0.674 -0.1428 -0.1520 -0.2516
  556BOLB   C2B13330  34.580  28.325   0.797  0.0764  0.0797 -0.2731
  556BOLB   C3B13331  34.893  28.350   1.123  0.2444 -0.0163  0.0585
  556BOLB   C4B13332  35.090  27.918   1.334  0.0652 -0.2367  0.1005
  556BOLB   NC213333  36.533  29.407   3.546  0.2665  0.0685 -0.4246
  556BOLB   PO213334  36.512  28.980   3.498 -0.1371 -0.1955 -0.2117
  556BOLB   GL313335  36.148  28.993   3.242  0.0268  0.1135 -0.0117
  556BOLB   GL413336  36.089  28.688   3.146  0.1172 -0.2911 -0.1442
  556BOLB   C1C13337  35.879  29.076   2.894 -0.0126 -0.1953  0.1567
  556BOLB   C2C13338  35.765  29.053   2.427  0.4159  0.1664  0.1765
  556BOLB   C3C13339  35.679  28.890   2.033 -0.0543  0.0509 -0.1626
  556BOLB   C4C13340  35.596  28.900   1.606 -0.1316  0.0218  0.0806
  556BOLB   C1D13341  35.728  28.693   3.235 -0.1944  0.1082 -0.0447
  556BOLB   C2D13342  35.323  28.939   3.464  0.0209  0.0535 -0.0229
  556BOLB   C3D13343  35.102  29.224   3.333  0.1101  0.0187 -0.1216
  556BOLB   C4D13344  35.088  29.604   3.304  0.2462  0.3481  0.0079
  557BOLB   NC113345  20.669  32.395  17.859 -0.0489  0.2555  0.3241
  557BOLB   PO113346  20.594  31.942  17.797 -0.1770 -0.0624 -0.4611
  557BOLB   GL113347  20.164  31.948  17.731  0.1050 -0.2557  0.2694
  557BOLB   GL213348  20.116  32.040  18.026 -0.2750 -0.2188 -0.2152
  557BOLB   C1A13349  19.938  31.920  17.358  0.1756 -0.0039 -0.1636
  557BOLB   C2A13350  19.590  32.284  17.289  0.2536  0.3301 -0.1159
  557BOLB   C3A13351  19.211  32.485  17.400  0.0283 -0.1716 -0.3552
  557BOLB   C4A13352  18.837  32.624  17.143 -0.0824 -0.2297  0.1624
  557BOLB   C1B13353  19.829  32.325  17.743 -0.3661  0.2035 -0.1171
  557BOLB   C2B13354  19.659  32.730  17.488  0.1223 -0.0418 -0.0686
  557BOLB   C3B13355  19.381  33.014  17.410 -0.0017  0.1245  0.2196
  557BOLB   C4B13356  19.071  33.066  17.435  0.0272  0.1799  0.2052
  557BOLB   NC213357  16.970  32.596  15.207 -0.1762 -0.3472  0.1163
  557BOLB   PO213358  17.310  32.270  15.235 -0.3263 -0.0212  0.1817
  557BOLB   GL313359  17.589  32.202  15.562  0.2684 -0.0989  0.0022
  557BOLB   GL413360  17.461  31.901  15.660 -0.0238  0.0868  0.1122
  557BOLB   C1C13361  18.039  32.366  15.694  0.0483 -0.0801  0.1654
  557BOLB   C2C13362  18.362  32.473  15.946 -0.1995 -0.0383 -0.0472
  557BOLB   C3C13363  18.499  32.741  16.353 -0.0099  0.0802 -0.1461
  557BOLB   C4C13364  18.756  32.755  16.668 -0.0490 -0.0059 -0.2683
  557BOLB   C1D13365  17.766  31.697  15.888  0.1685 -0.0044  0.1274
  557BOLB   C2D13366  18.206  31.470  15.958 -0.2359 -0.2778  0.1142
  557BOLB   C3D13367  18.589  31.426  16.238  0.2661 -0.1854  0.0268
  557BOLB   C4D13368  18.926  31.449  16.436 -0.0442  0.2948 -0.3139
  558BOLB   NC113369  25.333  23.202  16.918  0.1870  0.1990 -0.3094
  558BOLB   PO113370  25.025  22.995  17.168 -0.0201  0.0999  0.0897
  558BOLB   GL113371  24.766  22.729  16.947 -0.1647 -0.3957 -0.0194
  558BOLB   GL213372  24.631  22.599  17.139 -0.1336  0.0150  0.0153
  558BOLB   C1A13373  24.845  22.345  16.734 -0.0709  0.1978 -0.0137
  558BOLB   C2A13374  24.772  22.213  16.388 -0.1128  0.3661 -0.0167
  558BOLB   C3A13375  24.745  21.897  16.059  0.1747 -0.0817 -0.1018
  558BOLB   C4A13376  24.761  21.459  15.915 -0.0968  0.0293 -0.1657
  558BOLB   C1B13377  24.459  22.285  17.109 -0.1805  0.1455 -0.1487
  558BOLB   C2B13378  24.233  22.001  16.780  0.1174  0.1883  0.0883
  558BOLB   C3B13379  23.802  22.118  16.614  0.1195  0.0393  0.0015
  558BOLB   C4B13380  23.858  22.576  16.627 -0.1028 -0.0528  0.1754
  558BOLB   NC213381  23.991  19.823  15.203  0.0431 -0.0968 -0.2255
  558BOLB   PO213382  23.735  19.877  15.626 -0.4433 -0.4198 -0.0404
  558BOLB   GL313383  23.902  20.005  15.940 -0.3817  0.0468 -0.4316
  558BOLB   GL413384  23.987  20.403  15.924  0.1004 -0.2964  0.1871
  558BOLB   C1C13385  24.378  20.078  16.056 -0.2531  0.4556 -0.0198
  558BOLB   C2C13386  24.723  20.223  16.283 -0.0294  0.1338  0.0075
  558BOLB   C3C13387  24.917  20.665  16.154 -0.2220 -0.0564  0.1958
  558BOLB   C4C13388  24.859  21.052  15.944  0.1678  0.0243 -0.0518
  558BOLB   C1D13389  23.935  20.652  16.282 -0.1020 -0.2827 -0.2925
  558BOLB   C2D13390  23.803  20.709  16.688 -0.1857  0.0757  0.1314
  558BOLB   C3D13391  23.763  20.988  17.085 -0.1070 -0.0922  0.2085
  558BOLB   C4D13392  23.746  21.269  17.459 -0.0016  0.0580  0.0405
  559BOLB   NC113393  22.422  33.588  16.536  0.0762  0.3222  0.2427
  559BOLB   PO113394  22.128  33.635  16.855  0.2084 -0.0283  0.0677
  559BOLB   GL113395  21.775  33.772  16.893  0.6730  0.0019  0.2039
  559BOLB   GL213396  21.563  33.716  17.197 -0.2033  0.0112  0.1756
  559BOLB   C1A13397  21.522  33.883  16.548  0.2360  0.1739  0.0275
  559BOLB   C2A13398  21.158  33.999  16.254  0.0716 -0.3091  0.1736
  559BOLB   C3A13399  20.759  34.037  16.049 -0.1834  0.1012 -0.3375
  559BOLB   C4A13400  20.480  34.087  15.853 -0.0274  0.0009  0.1111
  559BOLB   C1B13401  21.239  33.695  16.970 -0.1069 -0.1866 -0.1313
  559BOLB   C2B13402  20.871  33.839  16.630 -0.2058  0.0016 -0.0949
  559BOLB   C3B13403  20.656  34.272  16.589  0.1248  0.1849  0.0283
  559BOLB   C4B13404  20.409  34.545  16.326  0.0197  0.4140 -0.2672
  559BOLB   NC213405  18.515  34.237  14.713  0.1689  0.1752  0.2709
  559BOLB   PO213406  18.272  33.822  14.735 -0.1948  0.0850  0.0777
  559BOLB   GL313407  18.633  33.592  14.945 -0.0820 -0.1606 -0.0264
  559BOLB   GL413408  18.374  33.504  15.206  0.2307 -0.0887  0.0618
  559BOLB   C1C13409  19.064  33.791  15.140 -0.0039  0.3373 -0.0720
  559BOLB   C2C13410  19.289  34.127  15.341 -0.0013 -0.1314 -0.0802
  559BOLB   C3C13411  19.709  34.127  15.554 -0.1044 -0.2540  0.3048
  559BOLB   C4C13412  20.144  34.159  15.630  0.3298 -0.0024  0.1854
  559BOLB   C1D13413  18.770  33.374  15.429  0.1593 -0.1491  0.0422
  559BOLB   C2D13414  18.977  32.902  15.392  0.1353 -0.1426 -0.0031
  559BOLB   C3D13415  19.170  32.603  15.797  0.1895 -0.3501  0.2167
  559BOLB   C4D13416  19.489  32.479  16.118  0.0065 -0.0535  0.0897
  560BOLB   NC113417  29.177  17.622  25.286  0.2334 -0.1741 -0.2552
  560BOLB   PO113418  29.530  17.882  25.321 -0.1732 -0.1563 -0.3934
  560BOLB   GL113419  29.248  18.135  25.255 -0.2370 -0.2440  0.0884
  560BOLB   GL213420  29.130  18.294  25.463 -0.0563  0.3161  0.0940
  560BOLB   C1A13421  28.809  18.265  25.039  0.0848 -0.0686 -0.0305
  560BOLB   C2A13422  28.621  18.624  25.225  0.1771  0.1323 -0.2504
  560BOLB   C3A13423  28.171  18.807  25.238  0.4836  0.2351 -0.2633
  560BOLB   C4A13424  27.759  18.951  25.344 -0.0925  0.2761 -0.4410
  560BOLB   C1B13425  28.812  18.422  25.723  0.2406  0.0650 -0.0961
  560BOLB   C2B13426  28.377  18.483  25.617 -0.0172  0.2528 -0.1969
  560BOLB   C3B13427  27.997  18.517  25.653 -0.1129 -0.2163 -0.1926
  560BOLB   C4B13428  27.817  18.400  25.209 -0.0225  0.0805  0.2992
  560BOLB   NC213429  27.208  16.500  25.393  0.1570 -0.0761 -0.1153
  560BOLB   PO213430  27.395  16.690  25.018 -0.0824  0.1711 -0.0307
  560BOLB   GL313431  27.396  17.011  25.080 -0.0601  0.3544 -0.3104
  560BOLB   GL413432  27.737  17.126  25.220 -0.0781  0.2465 -0.0106
  560BOLB   C1C13433  27.394  17.435  25.268  0.1847 -0.0250  0.1235
  560BOLB   C2C13434  27.315  17.824  25.523  0.1801  0.1320  0.1925
  560BOLB   C3C13435  27.448  18.278  25.582  0.2167 -0.0024  0.0704
  560BOLB   C4C13436  27.501  18.691  25.600 -0.0143  0.2305  0.2319
  560BOLB   C1D13437  27.761  17.464  25.609 -0.1903  0.1094  0.2470
  560BOLB   C2D13438  27.728  17.910  25.813 -0.0628 -0.0517 -0.0496
  560BOLB   C3D13439  27.376  18.008  25.972 -0.0341  0.3022  0.1434
  560BOLB   C4D13440  27.016  18.071  26.181 -0.2477 -0.0511 -0.1926
  561BOLB   NC113441  30.480  28.747  15.349 -0.1434  0.1312 -0.0375
  561BOLB   PO113442  30.676  28.558  14.927 -0.2161 -0.1212 -0.2178
  561BOLB   GL113443  30.830  28.447  14.546  0.3121 -0.0627 -0.1830
  561BOLB   GL213444  30.911  28.170  14.333 -0.1487  0.0020  0.1192
  561BOLB   C1A13445  30.844  28.671  14.126 -0.1426  0.2850  0.1588
  561BOLB   C2A13446  31.055  28.580  13.728  0.2270 -0.1166  0.4241
  561BOLB   C3A13447  31.135  28.571  13.275  0.1226  0.1384  0.0754
  561BOLB   C4A13448  31.419  28.519  12.946 -0.1653 -0.2691 -0.2201
  561BOLB   C1B13449  31.062  28.005  13.898  0.3165  0.2624 -0.1131
  561BOLB   C2B13450  31.229  28.053  13.456 -0.1130  0.0170 -0.0478
  561BOLB   C3B13451  31.093  28.083  13.110 -0.1433  0.2553  0.0710
  561BOLB   C4B13452  30.957  28.359  12.777 -0.4406 -0.0619 -0.3151
  561BOLB   NC213453  31.509  27.669  10.284  0.0409  0.3330 -0.3081
  561BOLB   PO213454  31.721  27.841  10.583  0.0926  0.0102 -0.0436
  561BOLB   GL313455  31.658  27.902  10.962  0.0857  0.2795 -0.1898
  561BOLB   GL413456  31.384  28.096  10.884 -0.1114  0.1603  0.0559
  561BOLB   C1C13457  31.620  28.002  11.412  0.2378  0.0833 -0.2155
  561BOLB   C2C13458  31.420  28.133  11.797 -0.1005 -0.2446  0.1925
  561BOLB   C3C13459  31.429  28.134  12.196 -0.3562 -0.2815  0.3704
  561BOLB   C4C13460  31.392  28.231  12.614  0.2474 -0.0508  0.3134
  561BOLB   C1D13461  31.097  27.826  11.126 -0.1456  0.1068  0.0066
  561BOLB   C2D13462  31.038  27.878  11.556 -0.2257  0.0185  0.1268
  561BOLB   C3D13463  30.954  27.697  11.859 -0.0005  0.0620 -0.0037
  561BOLB   C4D13464  30.867  27.603  12.188 -0.0664  0.2231 -0.2920
  562BOLB   NC113465  26.045  27.909   8.224  0.0203  0.1203  0.3601
  562BOLB   PO113466  25.980  28.167   7.867  0.1353 -0.1160  0.0296
  562BOLB   GL113467  26.268  28.157   7.502 -0.0342  0.2409  0.2985
  562BOLB   GL213468  26.014  28.460   7.382  0.0198 -0.0545 -0.1189
  562BOLB   C1A13469  26.321  27.981   7.094 -0.4293 -0.1672  0.0445
  562BOLB   C2A13470  26.400  28.032   6.642 -0.0096 -0.1738 -0.2374
  562BOLB   C3A13471  26.292  28.379   6.254 -0.0631 -0.0342 -0.3249
  562BOLB   C4A13472  25.896  28.634   6.059 -0.3633  0.3617  0.1174
  562BOLB   C1B13473  25.874  28.304   7.123 -0.2680  0.3572  0.0708
  562BOLB   C2B13474  26.033  28.430   6.776 -0.1074 -0.4746 -0.0117
  562BOLB   C3B13475  26.142  28.728   6.562  0.2882 -0.1177 -0.0215
  562BOLB   C4B13476  26.404  28.871   6.309  0.2289  0.2781 -0.3301
  562BOLB   NC213477  24.659  29.911   7.604  0.1562 -0.3260  0.3344
  562BOLB   PO213478  24.211  29.889   7.516 -0.2411 -0.1198  0.1120
  562BOLB   GL313479  24.477  29.529   7.298  0.0344  0.4481  0.2622
  562BOLB   GL413480  24.567  29.683   7.086  0.0356  0.2980  0.0282
  562BOLB   C1C13481  24.805  29.272   7.133 -0.1152  0.1665 -0.1976
  562BOLB   C2C13482  24.885  29.147   6.687 -0.1534  0.3014  0.0462
  562BOLB   C3C13483  25.246  28.975   6.354 -0.0333 -0.3127 -0.0722
  562BOLB   C4C13484  25.539  28.810   6.018  0.3466  0.0386 -0.0353
  562BOLB   C1D13485  24.391  29.423   6.750  0.2675 -0.2153 -0.0793
  562BOLB   C2D13486  24.457  29.174   6.393  0.1926  0.0175 -0.1696
  562BOLB   C3D13487  24.767  28.868   6.199  0.2255  0.0228 -0.0747
  562BOLB   C4D13488  25.104  28.628   5.992  0.3928  0.6376  0.2120
  563BOLB   NC113489  19.217  16.617  22.232  0.1594  0.2328  0.2734
  563BOLB   PO113490  19.437  16.361  22.045  0.1145 -0.2736  0.2355
  563BOLB   GL113491  19.591  16.786  21.827  0.2408 -0.2186  0.3496
  563BOLB   GL213492  19.862  16.854  21.981 -0.0788 -0.0067  0.0257
  563BOLB   C1A13493  19.404  17.231  21.826 -0.0633  0.0012  0.0639
  563BOLB   C2A13494  19.305  17.540  21.476 -0.0733 -0.2792 -0.1575
  563BOLB   C3A13495  19.471  17.808  21.224  0.2167 -0.1262 -0.1336
  563BOLB   C4A13496  19.768  18.023  21.115 -0.2369  0.2995 -0.2441
  563BOLB   C1B13497  19.876  17.298  21.979  0.3821 -0.0483 -0.1594
  563BOLB   C2B13498  20.079  17.551  22.265 -0.0124  0.0788  0.3349
  563BOLB   C3B13499  20.061  17.862  22.603 -0.3250  0.1824 -0.0741
  563BOLB   C4B13500  20.040  18.102  22.914 -0.5244  0.0431 -0.5211
  563BOLB   NC213501  19.923  16.325  19.541 -0.2660  0.2303  0.1997
  563BOLB   PO213502  20.105  16.152  20.006 -0.1462  0.1236  0.0197
  563BOLB   GL313503  20.308  16.612  19.944  0.0331  0.1650  0.2552
  563BOLB   GL413504  20.772  16.605  19.811 -0.1138  0.3146  0.1368
  563BOLB   C1C13505  20.436  17.094  20.138  0.0892  0.1118 -0.1173
  563BOLB   C2C13506  20.397  17.553  20.274  0.0493  0.1441  0.1028
  563BOLB   C3C13507  20.416  17.682  20.644 -0.0924 -0.0118  0.0863
  563BOLB   C4C13508  20.129  17.902  20.940 -0.4172 -0.0246  0.0767
  563BOLB   C1D13509  20.828  17.092  19.899 -0.1593 -0.2447 -0.0880
  563BOLB   C2D13510  20.918  17.519  19.980 -0.1204  0.0902 -0.0474
  563BOLB   C3D13511  21.136  17.942  19.898 -0.1316  0.0508  0.0040
  563BOLB   C4D13512  21.329  18.316  19.750 -0.1381 -0.1619  0.1756
  564BOLB   NC113513  28.822  24.304  15.466  0.0702 -0.0868 -0.1364
  564BOLB   PO113514  29.230  24.263  15.630  0.1809 -0.0149  0.1180
  564BOLB   GL113515  29.272  24.236  15.234  0.0662 -0.1727 -0.0748
  564BOLB   GL213516  29.131  24.659  15.171 -0.1265 -0.2087  0.0229
  564BOLB   C1A13517  29.341  23.908  14.891 -0.0941  0.0188 -0.4321
  564BOLB   C2A13518  29.578  23.614  14.623  0.0480  0.0360  0.3069
  564BOLB   C3A13519  29.658  23.251  14.387  0.0376 -0.1031 -0.0304
  564BOLB   C4A13520  30.100  22.869  14.340  0.3267  0.1003  0.2190
  564BOLB   C1B13521  29.217  24.444  14.769  0.0610 -0.1492 -0.2041
  564BOLB   C2B13522  29.057  24.183  14.495 -0.1647  0.3286 -0.2872
  564BOLB   C3B13523  29.003  23.865  14.194  0.0158 -0.2465  0.0480
  564BOLB   C4B13524  28.795  23.461  14.042 -0.2624 -0.0521 -0.1522
  564BOLB   NC213525  30.234  20.303  13.372 -0.1796  0.1831  0.1496
  564BOLB   PO213526  30.179  20.563  13.734  0.3674 -0.0350 -0.0144
  564BOLB   GL313527  29.989  20.753  14.008 -0.3451  0.1688  0.1177
  564BOLB   GL413528  29.986  20.558  14.309  0.0179 -0.1898 -0.2123
  564BOLB   C1C13529  29.981  21.112  14.324  0.0219 -0.3641 -0.2163
  564BOLB   C2C13530  30.133  21.588  14.515 -0.2513 -0.2971 -0.0071
  564BOLB   C3C13531  30.303  21.995  14.509  0.0354  0.1445  0.0458
  564BOLB   C4C13532  30.145  22.411  14.404  0.1626 -0.2593 -0.1709
  564BOLB   C1D13533  29.918  20.784  14.680 -0.0985  0.0177 -0.1054
  564BOLB   C2D13534  29.919  21.285  14.873 -0.1060  0.1631  0.1005
  564BOLB   C3D13535  29.837  21.713  15.029  0.3224  0.1610  0.2134
  564BOLB   C4D13536  29.620  22.073  15.176 -0.1453  0.0376  0.1019
  565BOLB   NC113537  24.058  32.683   1.968  0.0997 -0.2853  0.1370
  565BOLB   PO113538  23.923  32.383   2.417 -0.2582 -0.0468  0.2436
  565BOLB   GL113539  23.747  32.404   2.731  0.1461  0.0407 -0.1256
  565BOLB   GL213540  23.631  32.307   2.984  0.0386 -0.1528  0.3778
  565BOLB   C1A13541  23.823  32.821   2.934  0.1775  0.1437 -0.0864
  565BOLB   C2A13542  23.585  33.203   3.192  0.0028  0.0359 -0.4623
  565BOLB   C3A13543  23.568  33.262   3.621  0.0157  0.0855 -0.0160
  565BOLB   C4A13544  23.817  33.236   4.004 -0.1032 -0.2206  0.2311
  565BOLB   C1B13545  23.260  32.359   3.017 -0.4213 -0.1048 -0.0703
  565BOLB   C2B13546  22.858  32.456   3.125  0.3035  0.0619  0.1431
  565BOLB   C3B13547  22.708  32.610   3.477  0.0817 -0.1926  0.1461
  565BOLB   C4B13548  22.460  32.346   3.870 -0.0230 -0.1000 -0.2588
  565BOLB   NC213549  23.031  33.466   6.194 -0.3238 -0.0607 -0.0447
  565BOLB   PO213550  23.393  33.649   6.099  0.0184 -0.0926 -0.1927
  565BOLB   GL313551  23.470  33.578   5.771 -0.0900  0.2190 -0.1024
  565BOLB   GL413552  23.297  33.217   5.835  0.1515 -0.0605  0.1788
  565BOLB   C1C13553  23.707  33.549   5.428 -0.1624  0.1045  0.0129
  565BOLB   C2C13554  23.954  33.475   5.110 -0.1665 -0.3054 -0.1244
  565BOLB   C3C13555  23.959  33.309   4.746 -0.0296  0.1186 -0.3169
  565BOLB   C4C13556  24.053  33.375   4.305  0.0392 -0.0481 -0.2716
  565BOLB   C1D13557  23.087  33.187   5.385 -0.1603  0.1148  0.0850
  565BOLB   C2D13558  23.186  32.962   4.943  0.3109 -0.0911 -0.1870
  565BOLB   C3D13559  23.414  32.914   4.645  0.0565 -0.2268 -0.1493
  565BOLB   C4D13560  23.779  32.856   4.356 -0.3908 -0.1153 -0.0143
  566BOLB   NC113561  24.099  35.976  25.969 -0.1562  0.2354  0.0410
  566BOLB   PO113562  23.943  35.591  26.129  0.3200 -0.1988  0.1239
  566BOLB   GL113563  23.748  35.776  26.461 -0.3743 -0.3823  0.2132
  566BOLB   GL213564  23.804  35.673  26.715 -0.0302 -0.0893 -0.0292
  566BOLB   C1A13565  23.366  36.058  26.486 -0.0744 -0.0696 -0.0038
  566BOLB   C2A13566  22.984  36.288  26.554  0.0366  0.0643  0.0344
  566BOLB   C3A13567  22.701  36.476  26.816 -0.0766  0.1243 -0.1562
  566BOLB   C4A13568  22.418  36.803   0.092 -0.0852 -0.1685  0.0288
  566BOLB   C1B13569  23.780  36.061   0.010 -0.1092 -0.4814  0.0025
  566BOLB   C2B13570  23.801  36.237   0.452 -0.4462  0.3737 -0.2909
  566BOLB   C3B13571  23.994  36.733   0.476  0.0488 -0.0181 -0.1017
  566BOLB   C4B13572  23.883  37.151   0.743 -0.0175  0.1742 -0.0692
  566BOLB   NC213573  20.100  37.480   1.090 -0.0813 -0.1293 -0.1633
  566BOLB   PO213574  19.863  37.355   0.828 -0.1506 -0.0074  0.3086
  566BOLB   GL313575  20.260  37.094   0.767 -0.0049 -0.0417  0.2080
  566BOLB   GL413576  20.429  37.052   1.025  0.3318  0.0874 -0.2765
  566BOLB   C1C13577  20.627  37.086   0.550  0.3647  0.2294  0.0134
  566BOLB   C2C13578  21.007  36.836   0.460  0.0467 -0.0728  0.3282
  566BOLB   C3C13579  21.436  36.633   0.283  0.0778  0.0765 -0.2387
  566BOLB   C4C13580  21.922  36.759   0.232  0.1107 -0.3298 -0.3455
  566BOLB   C1D13581  20.851  37.011   0.978 -0.0450 -0.0529 -0.3983
  566BOLB   C2D13582  21.236  36.917   0.883 -0.1938 -0.3734 -0.3763
  566BOLB   C3D13583  21.542  36.998   0.601  0.2687 -0.0344 -0.3992
  566BOLB   C4D13584  21.771  37.327   0.395 -0.1336 -0.0093 -0.2731
  567BOLB   NC113585  32.412  36.245  20.329 -0.3262 -0.1889  0.0773
  567BOLB   PO113586  32.652  36.558  20.147  0.0806 -0.1655  0.1332
  567BOLB   GL113587  32.843  37.039  20.042  0.1727 -0.1543 -0.1114
  567BOLB   GL213588  33.150  37.053  20.113 -0.1488  0.1038 -0.0613
  567BOLB   C1A13589  33.095  37.461  19.898  0.1773  0.0968 -0.1468
  567BOLB   C2A13590  33.103  37.886  19.752 -0.1736  0.2249  0.2938
  567BOLB   C3A13591  33.064  38.203  19.964  0.1194  0.0333 -0.1603
  567BOLB   C4A13592  33.361  38.392  20.115 -0.0260 -0.2669 -0.3694
  567BOLB   C1B13593  33.575  37.211  20.046  0.2500  0.1840 -0.0671
  567BOLB   C2B13594  33.991  37.333  19.995 -0.0124  0.1293 -0.2903
  567BOLB   C3B13595  34.114  37.000  20.238 -0.1630  0.1953 -0.1928
  567BOLB   C4B13596  34.213  36.808  20.687  0.0365 -0.3292 -0.2174
  567BOLB   NC213597  34.068  40.277  19.181  0.4221  0.1783 -0.2284
  567BOLB   PO213598  34.240  40.367  19.587  0.1203 -0.2646 -0.0049
  567BOLB   GL313599  34.156  39.948  19.613  0.0039  0.0562 -0.2570
  567BOLB   GL413600  34.165  39.769  19.372  0.1359  0.2407 -0.1799
  567BOLB   C1C13601  34.342  39.576  19.768 -0.0257 -0.1510 -0.0454
  567BOLB   C2C13602  34.291  39.209  19.985 -0.0045 -0.2010 -0.0607
  567BOLB   C3C13603  34.149  38.829  20.237 -0.0072  0.0234  0.4081
  567BOLB   C4C13604  33.777  38.486  20.207  0.0038  0.1015  0.0603
  567BOLB   C1D13605  33.994  39.361  19.448 -0.0094 -0.0799  0.0745
  567BOLB   C2D13606  33.878  39.005  19.289  0.2654 -0.1489  0.3078
  567BOLB   C3D13607  33.430  38.828  19.353 -0.0510 -0.2754  0.1282
  567BOLB   C4D13608  33.321  38.373  19.539  0.1968 -0.0347  0.0220
  568BOLB   NC113609  22.522  31.848   0.890  0.1455 -0.0260 -0.0072
  568BOLB   PO113610  22.227  31.663   1.185 -0.1996  0.1362  0.1599
  568BOLB   GL113611  21.995  31.513   1.538 -0.0356  0.1441  0.0792
  568BOLB   GL213612  22.195  31.639   1.880 -0.0884  0.2888  0.3130
  568BOLB   C1A13613  21.654  31.457   1.826  0.3398  0.2312 -0.0710
  568BOLB   C2A13614  21.427  31.388   2.179 -0.0916 -0.0350  0.0213
  568BOLB   C3A13615  21.085  31.538   2.303 -0.3103  0.3501 -0.2145
  568BOLB   C4A13616  20.688  31.452   2.478  0.4693  0.2126  0.0688
  568BOLB   C1B13617  21.831  31.742   2.166  0.0294 -0.1850 -0.1264
  568BOLB   C2B13618  21.653  31.767   2.497  0.1058 -0.3112 -0.1267
  568BOLB   C3B13619  21.359  31.977   2.494  0.3613  0.0365 -0.1280
  568BOLB   C4B13620  21.122  32.456   2.630  0.0431 -0.1278 -0.1657
  568BOLB   NC213621  18.885  33.031   3.523  0.1845  0.1456 -0.0483
  568BOLB   PO213622  18.907  32.791   3.173  0.1630  0.0203  0.0160
  568BOLB   GL313623  19.180  32.519   2.980  0.0289 -0.0071  0.2289
  568BOLB   GL413624  19.031  32.364   2.787  0.0367  0.0264  0.2415
  568BOLB   C1C13625  19.574  32.303   2.872  0.1985  0.1870 -0.3562
  568BOLB   C2C13626  19.774  31.949   3.141 -0.0328 -0.0773  0.1004
  568BOLB   C3C13627  20.236  31.879   3.049 -0.0708  0.1823 -0.0719
  568BOLB   C4C13628  20.642  31.650   2.897 -0.0175  0.1611 -0.4647
  568BOLB   C1D13629  19.107  31.982   2.822 -0.2392 -0.2531  0.4487
  568BOLB   C2D13630  19.492  31.765   2.650  0.0833 -0.0421 -0.0593
  568BOLB   C3D13631  19.629  31.351   2.538  0.1424  0.0270 -0.0395
  568BOLB   C4D13632  19.994  31.047   2.552 -0.1909  0.0796  0.2163
  569BOLB   NC113633  29.175  35.397   0.132 -0.0930  0.0497 -0.1413
  569BOLB   PO113634  29.477  35.811   0.209 -0.3416  0.1693 -0.4026
  569BOLB   GL113635  29.805  36.082   0.476  0.0691 -0.0712  0.2102
  569BOLB   GL213636  29.977  36.114   0.169  0.0515  0.1295  0.0978
  569BOLB   C1A13637  30.134  36.137   0.892  0.0742 -0.0173 -0.0759
  569BOLB   C2A13638  30.068  36.430   1.244  0.1617  0.1958  0.1394
  569BOLB   C3A13639  30.203  36.853   1.376 -0.3835  0.4460  0.0923
  569BOLB   C4A13640  30.359  37.128   1.761  0.3749 -0.2724 -0.0868
  569BOLB   C1B13641  30.165  36.496   0.428 -0.1726  0.1011 -0.0721
  569BOLB   C2B13642  30.353  36.586   0.773 -0.0006 -0.2661  0.3227
  569BOLB   C3B13643  30.802  36.771   0.902  0.1172 -0.0461 -0.0233
  569BOLB   C4B13644  30.839  37.266   1.029  0.2496  0.2733  0.2672
  569BOLB   NC213645  31.033  39.173   2.646 -0.3711 -0.0653  0.1786
  569BOLB   PO213646  30.847  39.275   2.205  0.1190 -0.0053  0.1922
  569BOLB   GL313647  30.751  38.898   2.045 -0.2103  0.4070 -0.5725
  569BOLB   GL413648  30.350  38.855   1.942 -0.3060  0.2829 -0.3496
  569BOLB   C1C13649  30.800  38.469   1.911 -0.0269  0.0221  0.1404
  569BOLB   C2C13650  30.961  38.119   1.837 -0.1918 -0.3829  0.3210
  569BOLB   C3C13651  30.937  37.784   1.992  0.1166  0.1141  0.1200
  569BOLB   C4C13652  30.626  37.501   1.962 -0.5676  0.1233  0.2160
  569BOLB   C1D13653  30.440  38.494   2.281 -0.1304 -0.1909 -0.1146
  569BOLB   C2D13654  30.657  38.119   2.216 -0.0560 -0.1267 -0.1902
  569BOLB   C3D13655  31.061  38.208   2.317 -0.2599  0.0566  0.1221
  569BOLB   C4D13656  31.516  38.174   2.280 -0.1126 -0.1279  0.1639
  570BOLB   NC113657  29.312  32.725   2.263  0.0481 -0.2767 -0.2564
  570BOLB   PO113658  29.093  33.156   2.157 -0.0243 -0.2942 -0.1967
  570BOLB   GL113659  29.304  33.051   2.620  0.1768 -0.0507 -0.0542
  570BOLB   GL213660  29.422  33.318   2.581  0.0701  0.4310 -0.0271
  570BOLB   C1A13661  29.357  33.177   3.046 -0.0194  0.0523 -0.1312
  570BOLB   C2A13662  29.393  33.358   3.518 -0.3001  0.1258 -0.0459
  570BOLB   C3A13663  29.572  33.337   3.848  0.0723  0.2029 -0.2445
  570BOLB   C4A13664  29.809  33.293   4.192  0.2133  0.1050 -0.1956
  570BOLB   C1B13665  29.638  33.569   2.956 -0.0188  0.0465  0.0107
  570BOLB   C2B13666  29.863  33.691   3.331  0.2365 -0.1345  0.0451
  570BOLB   C3B13667  29.999  33.736   3.771  0.1750 -0.0781 -0.0192
  570BOLB   C4B13668  29.948  34.081   3.782 -0.1624  0.1774  0.0051
  570BOLB   NC213669  31.070  33.250   6.291 -0.0469 -0.2094  0.2857
  570BOLB   PO213670  31.146  33.563   5.853 -0.0117  0.2192  0.1018
  570BOLB   GL313671  31.099  33.855   5.517  0.2688  0.0779 -0.0875
  570BOLB   GL413672  31.372  33.736   5.237 -0.2432  0.1583  0.1445
  570BOLB   C1C13673  30.837  33.951   5.269  0.0675  0.0081  0.2439
  570BOLB   C2C13674  30.356  33.784   5.056 -0.3710  0.1340  0.1454
  570BOLB   C3C13675  30.300  33.750   4.660  0.0429 -0.1977 -0.0197
  570BOLB   C4C13676  30.150  33.354   4.349 -0.0100 -0.1067 -0.2452
  570BOLB   C1D13677  31.119  33.714   4.880  0.3456  0.0694  0.3270
  570BOLB   C2D13678  30.805  33.914   4.674  0.0365 -0.2508 -0.2068
  570BOLB   C3D13679  30.555  34.358   4.613  0.1691  0.0689  0.0191
  570BOLB   C4D13680  30.078  34.333   4.347 -0.0308  0.2390  0.2032
  571BOLB   NC113681  26.348  37.787  19.379 -0.4836 -0.1610 -0.1309
  571BOLB   PO113682  26.195  37.508  19.071  0.3983  0.1670  0.3207
  571BOLB   GL113683  26.126  37.816  18.803  0.1717  0.5861 -0.1320
  571BOLB   GL213684  25.874  37.901  19.054  0.0280 -0.2085 -0.4007
  571BOLB   C1A13685  25.948  38.117  18.610  0.0510  0.3466 -0.3615
  571BOLB   C2A13686  25.781  38.594  18.760 -0.0841  0.2179  0.2986
  571BOLB   C3A13687  25.386  38.780  18.585  0.0626  0.1305 -0.2417
  571BOLB   C4A13688  25.114  39.026  18.435  0.1646  0.1215  0.1363
  571BOLB   C1B13689  26.071  38.360  19.065  0.0195  0.2678 -0.1488
  571BOLB   C2B13690  26.087  38.782  19.254 -0.3584 -0.0351  0.1301
  571BOLB   C3B13691  26.089  39.194  19.191 -0.0370  0.0025  0.2177
  571BOLB   C4B13692  25.821  39.483  19.104 -0.0068  0.2460 -0.0265
  571BOLB   NC213693  25.283  41.739  17.513  0.1030 -0.1173  0.0198
  571BOLB   PO213694  25.016  41.492  17.667  0.1097 -0.2579 -0.0579
  571BOLB   GL313695  25.032  40.996  17.796 -0.3042  0.1393  0.0710
  571BOLB   GL413696  25.170  40.859  17.531 -0.1085  0.2233 -0.4011
  571BOLB   C1C13697  25.098  40.595  18.037  0.1010 -0.0144  0.3600
  571BOLB   C2C13698  25.052  40.208  18.294  0.0269  0.0611  0.1930
  571BOLB   C3C13699  24.989  39.816  18.420 -0.0468 -0.0761  0.0821
  571BOLB   C4C13700  24.926  39.361  18.562  0.1090  0.0958 -0.0437
  571BOLB   C1D13701  25.261  40.449  17.581 -0.2524 -0.2071  0.1611
  571BOLB   C2D13702  25.436  40.005  17.436 -0.2505 -0.1985 -0.1434
  571BOLB   C3D13703  25.456  39.562  17.459 -0.1867 -0.1855  0.0883
  571BOLB   C4D13704  25.627  39.338  17.759 -0.0958  0.0951 -0.0473
  572BOLB   NC113705  35.563  32.934  21.353 -0.0062 -0.2894 -0.1897
  572BOLB   PO113706  35.595  33.010  21.792 -0.0997 -0.2303  0.3115
  572BOLB   GL113707  35.923  33.306  21.872  0.2084 -0.3017 -0.0712
  572BOLB   GL213708  35.921  33.387  21.531  0.0301  0.2086  0.1744
  572BOLB   C1A13709  36.274  33.741  21.982 -0.2074  0.5028 -0.0775
  572BOLB   C2A13710  36.548  34.131  21.912 -0.0999  0.1602 -0.0940
  572BOLB   C3A13711  36.822  34.481  21.985  0.0568  0.0652 -0.0112
  572BOLB   C4A13712  37.086  34.788  21.880 -0.0274 -0.0989 -0.0483
  572BOLB   C1B13713  36.349  33.401  21.548 -0.1590  0.1489  0.1332
  572BOLB   C2B13714  36.678  33.686  21.575 -0.0107  0.0519 -0.0966
  572BOLB   C3B13715  37.002  33.859  21.764 -0.0789 -0.1151  0.0478
  572BOLB   C4B13716  37.284  34.133  21.912 -0.0585 -0.2211  0.0628
  572BOLB   NC213717  39.121  34.821  21.921  0.0753  0.0601 -0.1020
  572BOLB   PO213718  39.112  35.297  21.979 -0.3302 -0.2459 -0.1166
  572BOLB   GL313719  38.872  35.153  22.281  0.6759 -0.0695  0.2676
  572BOLB   GL413720  38.780  35.198  22.616  0.1946  0.2292  0.1105
  572BOLB   C1C13721  38.505  34.797  22.283 -0.0841  0.1169  0.0575
  572BOLB   C2C13722  38.076  34.909  22.345 -0.1569 -0.0079 -0.0856
  572BOLB   C3C13723  37.666  34.955  22.158 -0.4335 -0.1000 -0.0042
  572BOLB   C4C13724  37.341  35.001  21.914 -0.1225 -0.0293 -0.1595
  572BOLB   C1D13725  38.504  35.182  22.705 -0.1149 -0.0518 -0.0795
  572BOLB   C2D13726  38.089  35.124  22.976 -0.1317  0.0148 -0.2105
  572BOLB   C3D13727  37.719  34.855  23.144  0.0893  0.0516 -0.1461
  572BOLB   C4D13728  37.395  34.597  23.114  0.0101  0.2459  0.1620
  573BOLB   NC113729  24.491  30.782   2.705  0.1822  0.0257  0.4640
  573BOLB   PO113730  24.218  30.581   2.304  0.1008 -0.0966  0.1467
  573BOLB   GL113731  24.217  30.404   2.824 -0.2597  0.0911 -0.0063
  573BOLB   GL213732  24.402  30.627   3.153 -0.1336 -0.2118 -0.0025
  573BOLB   C1A13733  24.207  30.161   3.195  0.1780 -0.1820  0.1554
  573BOLB   C2A13734  24.151  30.167   3.689  0.2018  0.0630  0.0714
  573BOLB   C3A13735  24.136  30.200   4.132  0.0833  0.2111  0.1221
  573BOLB   C4A13736  24.326  30.290   4.574  0.1469  0.4972  0.2495
  573BOLB   C1B13737  24.341  30.577   3.558 -0.3138  0.2406  0.0778
  573BOLB   C2B13738  24.415  30.590   3.911 -0.0327  0.0907 -0.3080
  573BOLB   C3B13739  24.602  30.595   4.334 -0.2073 -0.1284  0.3552
  573BOLB   C4B13740  24.591  30.965   4.571  0.1605 -0.0511  0.0919
  573BOLB   NC213741  23.330  31.017   6.607 -0.0775  0.3700  0.0823
  573BOLB   PO213742  23.404  31.348   6.465  0.2616  0.2447 -0.1604
  573BOLB   GL313743  23.568  31.139   6.199 -0.2018 -0.2728 -0.2518
  573BOLB   GL413744  23.216  31.024   6.109  0.1096 -0.0223  0.2191
  573BOLB   C1C13745  23.792  30.978   5.857 -0.0529  0.0426  0.0229
  573BOLB   C2C13746  24.013  30.853   5.469  0.1338  0.2323 -0.1230
  573BOLB   C3C13747  24.193  30.673   5.115  0.3186  0.1364  0.0038
  573BOLB   C4C13748  24.554  30.514   4.862  0.0512 -0.0512  0.3404
  573BOLB   C1D13749  23.229  30.781   5.784  0.0644 -0.2568 -0.0420
  573BOLB   C2D13750  23.122  30.411   5.421 -0.2535 -0.2604  0.1121
  573BOLB   C3D13751  22.980  30.209   5.033 -0.0635  0.0971 -0.0317
  573BOLB   C4D13752  22.996  30.172   4.530  0.0103  0.2724  0.0018
  574BOLB   NC113753  33.417  32.781  16.127 -0.0441 -0.0273  0.0175
  574BOLB   PO113754  33.677  32.438  16.282  0.1961 -0.0290 -0.3468
  574BOLB   GL113755  33.765  32.485  15.931 -0.0099  0.0628  0.2321
  574BOLB   GL213756  34.143  32.328  15.940  0.1010 -0.1527 -0.0353
  574BOLB   C1A13757  33.975  32.629  15.599  0.0866  0.0144 -0.0006
  574BOLB   C2A13758  33.977  33.100  15.405  0.0514 -0.0922 -0.0439
  574BOLB   C3A13759  34.268  33.139  15.199 -0.0754 -0.0563 -0.1051
  574BOLB   C4A13760  34.456  33.306  14.848  0.1682 -0.0242  0.0768
  574BOLB   C1B13761  34.241  32.213  15.513 -0.2469  0.1927 -0.1275
  574BOLB   C2B13762  34.465  32.353  15.186  0.1828  0.0473 -0.0839
  574BOLB   C3B13763  34.439  32.282  14.796 -0.0716 -0.2224 -0.0556
  574BOLB   C4B13764  34.245  32.570  14.534 -0.0776 -0.0593  0.0966
  574BOLB   NC213765  36.308  34.202  13.853 -0.2503  0.1438  0.2053
  574BOLB   PO213766  35.984  34.267  13.592 -0.2305  0.2949  0.5845
  574BOLB   GL313767  35.871  33.992  13.930  0.2469  0.1816 -0.0523
  574BOLB   GL413768  35.537  33.895  13.660  0.3782  0.0260  0.0864
  574BOLB   C1C13769  35.722  33.675  14.121  0.0506  0.1032  0.0651
  574BOLB   C2C13770  35.420  33.507  14.160 -0.0767  0.0174  0.1928
  574BOLB   C3C13771  35.045  33.621  14.278 -0.1879  0.2850  0.3380
  574BOLB   C4C13772  34.733  33.360  14.448 -0.0610  0.0056  0.0127
  574BOLB   C1D13773  35.403  34.022  13.936  0.2005  0.0308  0.1154
  574BOLB   C2D13774  35.401  34.107  14.268  0.1819 -0.0516 -0.1256
  574BOLB   C3D13775  35.141  34.166  14.528 -0.0447  0.1815 -0.1878
  574BOLB   C4D13776  34.979  34.227  14.846 -0.2199 -0.1427 -0.0018
  575BOLB   NC113777  28.448  36.311  17.505 -0.2779 -0.2880  0.0176
  575BOLB   PO113778  28.815  36.686  17.618  0.1479  0.3535 -0.0579
  575BOLB   GL113779  28.907  37.090  17.437 -0.2121  0.0606  0.1339
  575BOLB   GL213780  28.797  37.144  17.067  0.1282  0.0749  0.2242
  575BOLB   C1A13781  28.937  37.561  17.364 -0.2536  0.4541  0.3525
  575BOLB   C2A13782  28.990  37.887  17.068  0.1422 -0.0125  0.0722
  575BOLB   C3A13783  28.844  38.267  17.147  0.0898  0.0800 -0.1960
  575BOLB   C4A13784  28.890  38.701  17.126  0.1560  0.2492 -0.1366
  575BOLB   C1B13785  29.175  37.429  16.899  0.0224 -0.0165  0.1745
  575BOLB   C2B13786  29.511  37.645  17.094  0.0815  0.0509 -0.0067
  575BOLB   C3B13787  29.855  38.036  17.110 -0.1627 -0.1455  0.0068
  575BOLB   C4B13788  30.136  38.460  17.078 -0.2283  0.1215 -0.1464
  575BOLB   NC213789  28.671  40.741  15.742  0.2283  0.0089  0.2160
  575BOLB   PO213790  28.535  40.383  15.968  0.4703  0.1651 -0.2641
  575BOLB   GL313791  28.211  40.071  16.038  0.0555  0.0237  0.0105
  575BOLB   GL413792  27.897  40.020  15.809  0.0686  0.4949  0.0567
  575BOLB   C1C13793  28.173  39.780  16.335  0.2303 -0.4159 -0.1412
  575BOLB   C2C13794  28.293  39.462  16.601  0.3033  0.1175  0.3523
  575BOLB   C3C13795  28.472  39.233  17.016  0.0725  0.0383  0.3183
  575BOLB   C4C13796  28.576  39.019  17.299 -0.1632  0.1175  0.1504
  575BOLB   C1D13797  28.001  39.544  15.845 -0.2086  0.0870 -0.1997
  575BOLB   C2D13798  27.856  39.352  16.082  0.0703  0.3368 -0.0283
  575BOLB   C3D13799  27.519  39.180  16.461  0.3087  0.0950 -0.3746
  575BOLB   C4D13800  27.228  38.802  16.361 -0.2137 -0.1135  0.4199
  576BOLB   NC113801  20.398  24.232   7.503  0.0759  0.0653  0.0673
  576BOLB   PO113802  20.772  24.474   7.478  0.3106 -0.0066  0.0709
  576BOLB   GL113803  21.009  24.326   7.114 -0.0533  0.0798 -0.0543
  576BOLB   GL213804  21.301  24.023   7.065 -0.2183 -0.2159  0.0073
  576BOLB   C1A13805  21.067  24.728   6.831  0.0396  0.1231 -0.0431
  576BOLB   C2A13806  21.073  25.227   6.690 -0.3231 -0.0875  0.2504
  576BOLB   C3A13807  21.236  25.631   6.654 -0.1866  0.0096 -0.1723
  576BOLB   C4A13808  21.631  25.690   6.844  0.3541  0.0675  0.1341
  576BOLB   C1B13809  21.269  24.064   6.615  0.0459  0.1067 -0.1739
  576BOLB   C2B13810  21.492  24.081   6.187  0.0491 -0.1403 -0.3698
  576BOLB   C3B13811  21.451  24.121   5.709 -0.0642  0.2624 -0.4261
  576BOLB   C4B13812  21.259  24.149   5.380 -0.0279 -0.3769 -0.3529
  576BOLB   NC213813  22.812  27.427   8.549 -0.1067  0.3675 -0.1934
  576BOLB   PO213814  22.373  27.158   8.701  0.3344  0.1911 -0.0339
  576BOLB   GL313815  22.455  27.234   8.173  0.4771  0.1252 -0.0006
  576BOLB   GL413816  22.734  27.181   8.045 -0.0139  0.3687 -0.0073
  576BOLB   C1C13817  22.238  26.981   7.733 -0.2289  0.3415 -0.0776
  576BOLB   C2C13818  22.025  26.623   7.435  0.2669  0.1141 -0.0759
  576BOLB   C3C13819  22.039  26.481   7.076 -0.2223 -0.0949 -0.1050
  576BOLB   C4C13820  21.780  26.051   6.984 -0.1134  0.1290  0.0409
  576BOLB   C1D13821  22.375  27.551   7.861 -0.1936  0.1120 -0.3210
  576BOLB   C2D13822  22.253  27.529   7.496 -0.2284  0.0835  0.0632
  576BOLB   C3D13823  22.161  27.240   7.223  0.1497 -0.3632  0.0099
  576BOLB   C4D13824  22.413  26.883   7.142  0.4052 -0.1206 -0.0917
  577BOLB   NC113825  16.231  25.949   4.741  0.3014 -0.1500 -0.0780
  577BOLB   PO113826  16.625  25.736   4.500  0.0753  0.0140 -0.0656
  577BOLB   GL113827  16.912  25.906   4.043  0.1429  0.2421  0.1622
  577BOLB   GL213828  16.853  25.673   3.787  0.0160 -0.0331  0.0418
  577BOLB   C1A13829  17.223  26.089   3.838  0.4207  0.0068 -0.0872
  577BOLB   C2A13830  17.650  26.176   3.820  0.1120  0.2005 -0.1728
  577BOLB   C3A13831  17.877  25.741   3.942  0.2244  0.0252 -0.2170
  577BOLB   C4A13832  18.246  25.463   3.972 -0.1006 -0.2068  0.0193
  577BOLB   C1B13833  17.068  25.633   3.449  0.3815  0.0559  0.1807
  577BOLB   C2B13834  17.324  25.570   3.046  0.0689  0.0685 -0.0134
  577BOLB   C3B13835  17.464  25.431   2.697  0.2251 -0.1488  0.0710
  577BOLB   C4B13836  17.764  25.580   2.366  0.3910  0.2388 -0.2220
  577BOLB   NC213837  17.205  24.380   4.725 -0.0712  0.1573 -0.1087
  577BOLB   PO213838  17.149  23.984   4.654 -0.0925  0.0288 -0.5933
  577BOLB   GL313839  17.407  24.004   4.299  0.0246  0.2019  0.1925
  577BOLB   GL413840  17.561  23.711   4.311 -0.1061 -0.0477 -0.0333
  577BOLB   C1C13841  17.637  24.046   3.845 -0.0762  0.1645  0.1809
  577BOLB   C2C13842  18.018  24.234   3.832  0.2528 -0.3316 -0.3595
  577BOLB   C3C13843  18.270  24.558   3.794 -0.0591  0.1677  0.3929
  577BOLB   C4C13844  18.225  25.028   3.799  0.1491  0.2331  0.1645
  577BOLB   C1D13845  17.931  23.973   4.304  0.0767  0.2676 -0.0040
  577BOLB   C2D13846  18.295  24.053   4.166 -0.0654 -0.3060 -0.0808
  577BOLB   C3D13847  18.596  24.159   3.971  0.0142  0.0212  0.2605
  577BOLB   C4D13848  18.662  24.347   3.585 -0.1212  0.3679  0.1038
  578BOLB   NC113849  24.995  36.771  20.682  0.2396 -0.0027 -0.1028
  578BOLB   PO113850  24.669  37.121  20.659  0.1138  0.0484  0.3899
  578BOLB   GL113851  24.410  37.377  20.467  0.3049  0.0232 -0.2579
  578BOLB   GL213852  24.658  37.759  20.449  0.1339  0.0562 -0.1346
  578BOLB   C1A13853  24.150  37.824  20.402 -0.1315  0.3060 -0.4340
  578BOLB   C2A13854  23.985  38.221  20.393 -0.1338  0.0666 -0.2439
  578BOLB   C3A13855  23.930  38.620  20.251  0.1117  0.4592  0.0529
  578BOLB   C4A13856  23.795  39.018  20.255 -0.0698 -0.2422 -0.1410
  578BOLB   C1B13857  24.510  38.154  20.250  0.0678 -0.1736  0.0870
  578BOLB   C2B13858  24.397  38.523  19.918  0.0892  0.1524  0.2231
  578BOLB   C3B13859  24.241  38.891  19.836  0.1010 -0.1691 -0.0008
  578BOLB   C4B13860  24.231  39.222  20.112 -0.2739 -0.0153  0.1767
  578BOLB   NC213861  23.625  40.971  19.428  0.0124  0.1543  0.0593
  578BOLB   PO213862  23.247  40.978  19.110  0.0584 -0.0496  0.1331
  578BOLB   GL313863  23.443  40.592  19.083  0.0558 -0.0582 -0.1630
  578BOLB   GL413864  23.636  40.453  19.303 -0.1611 -0.0819 -0.1731
  578BOLB   C1C13865  23.349  40.183  18.994  0.0283  0.0046 -0.2547
  578BOLB   C2C13866  23.538  39.753  19.032  0.2180 -0.0062 -0.0294
  578BOLB   C3C13867  23.703  39.405  19.393 -0.0163  0.3125 -0.2925
  578BOLB   C4C13868  23.706  39.210  19.817  0.2239  0.1443 -0.2125
  578BOLB   C1D13869  23.731  40.040  19.476 -0.0479  0.2588  0.1349
  578BOLB   C2D13870  24.024  39.804  19.410  0.0083  0.1836 -0.1616
  578BOLB   C3D13871  24.462  39.876  19.100 -0.0961  0.0586 -0.1244
  578BOLB   C4D13872  24.891  39.717  18.928 -0.0316  0.1635 -0.0446
  579BOLB   NC113873  31.868  30.295   2.593  0.3568 -0.0026  0.0510
  579BOLB   PO113874  32.084  30.005   2.666 -0.1012 -0.2090 -0.1145
  579BOLB   GL113875  32.121  30.052   3.050 -0.3417  0.2195  0.1868
  579BOLB   GL213876  32.327  29.938   3.129  0.1833  0.5683  0.0309
  579BOLB   C1A13877  31.885  30.063   3.479 -0.1164 -0.1320  0.2132
  579BOLB   C2A13878  31.724  30.044   3.940 -0.0829 -0.2151 -0.2896
  579BOLB   C3A13879  32.014  30.000   4.123 -0.1257 -0.0109  0.0415
  579BOLB   C4A13880  32.339  30.105   4.384 -0.2887 -0.0694 -0.2584
  579BOLB   C1B13881  32.231  29.645   3.471 -0.3381  0.1560  0.3708
  579BOLB   C2B13882  32.287  29.703   3.864  0.1000 -0.0545  0.0440
  579BOLB   C3B13883  32.438  29.558   4.285  0.1656  0.2378  0.1279
  579BOLB   C4B13884  32.415  29.485   4.711 -0.0007  0.0892 -0.0398
  579BOLB   NC213885  33.700  30.411   5.977 -0.2189 -0.0112 -0.2488
  579BOLB   PO213886  33.772  30.916   6.012  0.0461 -0.2508 -0.0393
  579BOLB   GL313887  33.476  30.827   5.771  0.1694 -0.0197 -0.1537
  579BOLB   GL413888  33.605  31.007   5.465  0.1384  0.1024 -0.0761
  579BOLB   C1C13889  33.266  30.533   5.517  0.2343  0.0239  0.2605
  579BOLB   C2C13890  32.809  30.663   5.291  0.0967  0.0893 -0.1266
  579BOLB   C3C13891  32.422  30.367   5.112 -0.0917 -0.1110 -0.1773
  579BOLB   C4C13892  32.365  30.079   4.820 -0.2615 -0.0469 -0.0984
  579BOLB   C1D13893  33.426  30.824   5.040  0.0825  0.1678  0.0310
  579BOLB   C2D13894  33.331  30.712   4.723 -0.0958 -0.1407 -0.0460
  579BOLB   C3D13895  33.192  30.560   4.396  0.1527 -0.2041  0.1593
  579BOLB   C4D13896  32.808  30.767   4.259 -0.0171 -0.0838 -0.0203
  580BOLB   NC113897  34.026  24.758  24.240 -0.1650 -0.0728 -0.0096
  580BOLB   PO113898  33.775  24.427  24.264  0.0189 -0.2195  0.0404
  580BOLB   GL113899  33.985  24.116  24.318 -0.2192 -0.2113 -0.2185
  580BOLB   GL213900  34.272  24.309  24.376  0.1232 -0.0932  0.0423
  580BOLB   C1A13901  34.324  23.800  24.494 -0.0153 -0.0598  0.0890
  580BOLB   C2A13902  34.689  23.460  24.426 -0.0273  0.0854 -0.0342
  580BOLB   C3A13903  34.826  23.093  24.661 -0.0933 -0.2231  0.0046
  580BOLB   C4A13904  35.140  22.790  24.653 -0.0959  0.1941  0.1920
  580BOLB   C1B13905  34.590  24.237  24.583  0.1132 -0.2801 -0.1379
  580BOLB   C2B13906  34.768  23.915  24.661 -0.2959  0.1232 -0.0084
  580BOLB   C3B13907  35.162  23.821  24.844  0.2019 -0.0995 -0.0445
  580BOLB   C4B13908  35.626  23.757  24.766 -0.1447  0.1134 -0.2631
  580BOLB   NC213909  34.871  20.830  26.349  0.1130  0.2972 -0.0664
  580BOLB   PO213910  35.158  21.202  26.298  0.1654 -0.1297 -0.0498
  580BOLB   GL313911  35.156  21.418  25.937 -0.2494 -0.0012 -0.0646
  580BOLB   GL413912  35.215  21.794  25.902 -0.3453 -0.0355  0.0637
  580BOLB   C1C13913  35.067  21.557  25.466  0.0147 -0.0971  0.0516
  580BOLB   C2C13914  34.962  21.701  25.098 -0.3814 -0.3087  0.0824
  580BOLB   C3C13915  35.107  21.957  24.781 -0.1067 -0.1732  0.0937
  580BOLB   C4C13916  35.107  22.342  24.638 -0.1035  0.0903  0.4505
  580BOLB   C1D13917  34.932  22.099  25.763  0.1808  0.0168  0.2772
  580BOLB   C2D13918  34.645  22.477  25.729 -0.1145 -0.3746 -0.4077
  580BOLB   C3D13919  34.292  22.721  25.645  0.1722  0.1021  0.0365
  580BOLB   C4D13920  33.995  22.966  25.404  0.0394  0.2490  0.1026
  581BOLB   NC113921  20.383  27.575  18.633  0.2554 -0.0155  0.1337
  581BOLB   PO113922  20.220  27.676  18.296 -0.3080  0.0413 -0.0294
  581BOLB   GL113923  20.191  27.208  18.327  0.0790  0.1362  0.3591
  581BOLB   GL213924  20.131  27.090  18.631  0.1158 -0.1859 -0.0388
  581BOLB   C1A13925  19.995  26.857  18.242  0.1141 -0.0953  0.1354
  581BOLB   C2A13926  19.925  26.561  17.864  0.0255  0.1136 -0.2905
  581BOLB   C3A13927  19.645  26.470  17.492 -0.2571  0.4732 -0.2898
  581BOLB   C4A13928  19.421  26.258  17.216 -0.3700  0.2845 -0.0847
  581BOLB   C1B13929  19.661  26.948  18.698 -0.2937 -0.2700 -0.0787
  581BOLB   C2B13930  19.142  27.014  18.645  0.1639  0.1255  0.2519
  581BOLB   C3B13931  18.767  27.135  18.331  0.2363 -0.0183  0.0594
  581BOLB   C4B13932  18.515  27.467  18.456  0.2315  0.0476 -0.1992
  581BOLB   NC213933  17.556  26.634  15.403 -0.3957  0.0806  0.0532
  581BOLB   PO213934  17.918  26.634  15.215  0.0599  0.1187 -0.0048
  581BOLB   GL313935  18.008  26.552  15.585  0.0559 -0.2636 -0.3244
  581BOLB   GL413936  17.900  26.831  15.732 -0.0954  0.0035 -0.1451
  581BOLB   C1C13937  18.160  26.290  15.906 -0.1162  0.0821 -0.0730
  581BOLB   C2C13938  18.372  26.260  16.298 -0.1072  0.2064 -0.3295
  581BOLB   C3C13939  18.688  26.284  16.687  0.1599 -0.1199 -0.1420
  581BOLB   C4C13940  19.054  26.227  16.924 -0.1169  0.2615  0.0870
  581BOLB   C1D13941  18.237  26.814  16.043  0.0948 -0.0256  0.3406
  581BOLB   C2D13942  18.434  26.727  16.490 -0.3028 -0.1956 -0.0075
  581BOLB   C3D13943  18.636  26.658  17.003  0.3549  0.1753 -0.1651
  581BOLB   C4D13944  19.028  26.584  17.258 -0.2032  0.2382  0.2943
  582BOLB   NC113945  19.632  32.127  22.703 -0.2030 -0.0499  0.1998
  582BOLB   PO113946  19.665  31.681  22.728  0.1792  0.3102 -0.0327
  582BOLB   GL113947  19.282  31.755  22.846 -0.1935  0.0137  0.0718
  582BOLB   GL213948  19.350  31.938  23.119  0.2898 -0.0003 -0.0662
  582BOLB   C1A13949  18.878  31.914  22.936 -0.2251  0.2939  0.0698
  582BOLB   C2A13950  18.536  32.150  22.860 -0.2809  0.1240 -0.0094
  582BOLB   C3A13951  18.153  32.362  23.147 -0.0921 -0.2160  0.0680
  582BOLB   C4A13952  17.878  32.285  23.406  0.1010 -0.1572 -0.0621
  582BOLB   C1B13953  19.032  31.946  23.381 -0.4326 -0.0077  0.1062
  582BOLB   C2B13954  18.686  32.204  23.392  0.0628 -0.1156 -0.0241
  582BOLB   C3B13955  18.371  32.044  23.432  0.0090 -0.0106 -0.1752
  582BOLB   C4B13956  17.984  31.852  23.235 -0.0987 -0.1480 -0.2464
  582BOLB   NC213957  15.909  33.055  23.846 -0.0276 -0.2584  0.0542
  582BOLB   PO213958  15.752  32.619  23.784  0.1626 -0.1496 -0.0302
  582BOLB   GL313959  16.236  32.646  23.655  0.1227  0.2883 -0.2062
  582BOLB   GL413960  16.444  32.813  23.952 -0.1132 -0.1921  0.0397
  582BOLB   C1C13961  16.626  32.336  23.738  0.1873  0.0422 -0.3279
  582BOLB   C2C13962  17.011  32.017  23.693 -0.1290 -0.0711 -0.0709
  582BOLB   C3C13963  17.351  31.779  23.785 -0.2267 -0.4635  0.4496
  582BOLB   C4C13964  17.512  32.025  23.465  0.1270  0.0496  0.0764
  582BOLB   C1D13965  16.807  33.069  23.854  0.1440 -0.0164  0.1808
  582BOLB   C2D13966  17.156  33.221  23.845 -0.4254  0.0955 -0.3922
  582BOLB   C3D13967  17.453  32.902  23.794 -0.5401 -0.0474  0.3560
  582BOLB   C4D13968  17.843  32.663  23.771  0.0925  0.0413 -0.1484
  583BOLB   NC113969  28.394  19.397   5.807 -0.1056  0.0239 -0.1474
  583BOLB   PO113970  27.953  19.692   5.791 -0.1996  0.1249  0.1142
  583BOLB   GL113971  27.718  19.719   5.464  0.0115  0.1054  0.1009
  583BOLB   GL213972  27.527  19.886   5.552 -0.2706 -0.0211  0.1922
  583BOLB   C1A13973  27.442  20.074   5.091  0.1389  0.0389  0.1226
  583BOLB   C2A13974  27.055  20.335   5.094  0.0498 -0.3919  0.2429
  583BOLB   C3A13975  26.716  20.321   4.773 -0.0836  0.0484 -0.1827
  583BOLB   C4A13976  26.428  20.275   4.351  0.0976  0.2492 -0.0066
  583BOLB   C1B13977  27.579  20.370   5.477 -0.0470  0.3219 -0.2627
  583BOLB   C2B13978  27.774  20.735   5.519 -0.0667  0.0229  0.2925
  583BOLB   C3B13979  28.008  20.990   5.573  0.1342 -0.0567  0.0352
  583BOLB   C4B13980  28.281  21.279   5.631  0.1291  0.1257  0.0328
  583BOLB   NC213981  25.501  19.159   5.596 -0.0402 -0.1217 -0.0093
  583BOLB   PO213982  25.788  18.786   5.413 -0.3025  0.2643  0.0698
  583BOLB   GL313983  25.755  18.941   5.053 -0.4049 -0.2343 -0.1328
  583BOLB   GL413984  25.652  19.261   5.092  0.3363  0.3245 -0.2126
  583BOLB   C1C13985  25.971  19.024   4.613  0.3837 -0.0595 -0.0346
  583BOLB   C2C13986  25.981  19.213   4.151  0.0239 -0.1002 -0.1597
  583BOLB   C3C13987  25.855  19.620   3.953  0.2002  0.0757 -0.1165
  583BOLB   C4C13988  26.251  19.950   4.010 -0.0483 -0.1252 -0.2268
  583BOLB   C1D13989  25.877  19.576   4.987 -0.2803 -0.0814 -0.3610
  583BOLB   C2D13990  25.993  20.076   4.787 -0.2283 -0.0222  0.1697
  583BOLB   C3D13991  26.201  20.400   4.807  0.2244 -0.0175 -0.0227
  583BOLB   C4D13992  26.323  20.658   5.067 -0.0712  0.0748 -0.0871
  584BOLB   NC113993  29.959  22.975  24.876  0.2770 -0.1692 -0.1158
  584BOLB   PO113994  30.104  22.598  25.030 -0.1711 -0.0215 -0.2033
  584BOLB   GL113995  30.313  22.203  25.272 -0.0320 -0.3674  0.2980
  584BOLB   GL213996  30.511  22.365  25.468 -0.3049 -0.3088  0.0157
  584BOLB   C1A13997  30.303  21.824  25.500 -0.2269 -0.0244  0.3020
  584BOLB   C2A13998  30.400  21.489  25.662 -0.2288  0.2600 -0.3010
  584BOLB   C3A13999  30.719  21.284  25.712 -0.1203  0.0886  0.1221
  584BOLB   C4A14000  30.900  20.877  25.672 -0.3729 -0.1798 -0.2483
  584BOLB   C1B14001  30.533  22.109  25.872  0.1547  0.0951 -0.1471
  584BOLB   C2B14002  30.705  21.729  25.973 -0.0326  0.2382 -0.4407
  584BOLB   C3B14003  30.841  21.414  26.242 -0.0356  0.2055 -0.0775
  584BOLB   C4B14004  30.955  21.214  26.681 -0.2480  0.7548 -0.0791
  584BOLB   NC214005  32.382  18.539  26.449 -0.0747  0.0841 -0.1404
  584BOLB   PO214006  32.108  18.882  26.340  0.3658 -0.0910 -0.0936
  584BOLB   GL314007  31.870  19.266  26.127 -0.2109 -0.2043  0.1389
  584BOLB   GL414008  31.821  19.587  26.368 -0.2590 -0.1442  0.0038
  584BOLB   C1C14009  31.587  19.429  25.779 -0.4002  0.0844 -0.0062
  584BOLB   C2C14010  31.552  19.828  25.529 -0.2932  0.1717  0.0720
  584BOLB   C3C14011  31.101  20.094  25.380  0.0393  0.0436 -0.2260
  584BOLB   C4C14012  31.150  20.533  25.407  0.0064 -0.2568  0.1222
  584BOLB   C1D14013  31.557  19.753  26.693 -0.1627 -0.0807  0.4369
  584BOLB   C2D14014  31.154  19.882   0.017  0.0440 -0.2818 -0.2172
  584BOLB   C3D14015  30.974  20.324   0.038  0.0647  0.1472 -0.0207
  584BOLB   C4D14016  31.043  20.626  26.693 -0.0177 -0.3140 -0.0257
  585BOLB   NC114017  21.856  25.795  17.374 -0.0589 -0.0776  0.0250
  585BOLB   PO114018  21.894  26.011  16.997  0.0990  0.1814 -0.0941
  585BOLB   GL114019  21.740  25.689  16.883  0.1757 -0.1621 -0.0169
  585BOLB   GL214020  21.761  25.593  16.615  0.1754  0.0224 -0.0580
  585BOLB   C1A14021  21.609  25.377  17.017 -0.0039  0.0261 -0.0632
  585BOLB   C2A14022  21.323  25.213  17.037  0.4850  0.3666 -0.1273
  585BOLB   C3A14023  21.096  25.046  16.828  0.0172  0.0642 -0.1059
  585BOLB   C4A14024  21.076  24.558  16.600 -0.1203 -0.2276 -0.0803
  585BOLB   C1B14025  21.593  25.602  16.190 -0.1693  0.1073 -0.0412
  585BOLB   C2B14026  21.396  25.666  15.744 -0.2696 -0.1204  0.2232
  585BOLB   C3B14027  21.134  25.735  15.320 -0.4322 -0.1896 -0.2180
  585BOLB   C4B14028  20.913  26.075  15.132 -0.1516 -0.1542 -0.0364
  585BOLB   NC214029  19.719  23.123  14.932  0.2677  0.3170 -0.0520
  585BOLB   PO214030  19.452  23.403  14.711  0.0066 -0.3057  0.2196
  585BOLB   GL314031  19.800  23.609  15.041 -0.1051  0.3017 -0.1667
  585BOLB   GL414032  19.906  23.873  14.999  0.0332  0.0489  0.1591
  585BOLB   C1C14033  19.918  23.711  15.432 -0.0243 -0.1152 -0.0824
  585BOLB   C2C14034  20.057  23.931  15.749  0.0309 -0.0798  0.0290
  585BOLB   C3C14035  20.543  24.132  15.961  0.0140 -0.0716 -0.2778
  585BOLB   C4C14036  20.773  24.420  16.312  0.0985 -0.0576  0.0913
  585BOLB   C1D14037  19.924  24.163  15.257 -0.0112  0.0581  0.2590
  585BOLB   C2D14038  20.238  24.394  15.593  0.2013 -0.0274  0.1854
  585BOLB   C3D14039  20.749  24.639  15.740  0.0859  0.0232  0.2808
  585BOLB   C4D14040  21.087  24.605  15.982 -0.2503 -0.3304 -0.1456
  586BOLB   NC114041  34.005  27.975  16.551  0.1502 -0.0063  0.1194
  586BOLB   PO114042  33.896  28.047  16.147  0.0091  0.0096  0.1567
  586BOLB   GL114043  34.030  27.933  15.711 -0.0797  0.0407 -0.4923
  586BOLB   GL214044  34.250  28.038  15.494  0.2131 -0.0979 -0.3003
  586BOLB   C1A14045  33.898  27.604  15.308 -0.2196 -0.1048 -0.1970
  586BOLB   C2A14046  34.164  27.426  14.983 -0.0991  0.1120 -0.1122
  586BOLB   C3A14047  34.394  27.617  14.690  0.0801  0.0732 -0.0038
  586BOLB   C4A14048  34.722  27.902  14.603 -0.1064 -0.0289 -0.0280
  586BOLB   C1B14049  34.649  28.036  15.206  0.1871  0.4314 -0.0534
  586BOLB   C2B14050  34.906  28.340  14.917 -0.5870  0.1586 -0.0424
  586BOLB   C3B14051  35.092  28.202  14.558 -0.3780 -0.0764 -0.0341
  586BOLB   C4B14052  35.565  28.230  14.409 -0.1085 -0.3814  0.3913
  586BOLB   NC214053  35.755  26.801  12.874  0.0631 -0.0267  0.4364
  586BOLB   PO214054  35.718  27.002  12.523  0.2007  0.0820  0.0062
  586BOLB   GL314055  35.381  27.181  12.803 -0.0531 -0.2179 -0.0205
  586BOLB   GL414056  35.059  27.056  12.955  0.1454  0.1081 -0.0637
  586BOLB   C1C14057  35.111  27.488  13.079 -0.0136  0.0481 -0.0373
  586BOLB   C2C14058  34.951  27.573  13.437  0.1414 -0.1177  0.0150
  586BOLB   C3C14059  34.803  27.802  13.776 -0.3631 -0.0427 -0.2239
  586BOLB   C4C14060  34.868  28.019  14.131 -0.0762 -0.2286  0.0534
  586BOLB   C1D14061  34.952  27.066  13.430 -0.2074 -0.3844  0.0730
  586BOLB   C2D14062  34.938  26.749  13.738 -0.0517  0.1210  0.0798
  586BOLB   C3D14063  34.836  26.649  14.111 -0.1470 -0.1950  0.1933
  586BOLB   C4D14064  34.757  26.509  14.585  0.1391  0.2488  0.2289
  587BOLB   NC114065  32.206  36.501  22.655  0.2856  0.3459 -0.2087
  587BOLB   PO114066  31.912  36.291  22.993 -0.1386 -0.0416  0.1052
  587BOLB   GL114067  32.002  36.707  23.045 -0.4013 -0.0036  0.1096
  587BOLB   GL214068  31.825  36.879  23.207  0.1878  0.1013 -0.3160
  587BOLB   C1A14069  32.152  37.162  23.012  0.2206 -0.0912 -0.1307
  587BOLB   C2A14070  32.501  37.470  22.952  0.1335  0.3302  0.1968
  587BOLB   C3A14071  32.903  37.628  22.945 -0.1894  0.1176  0.0118
  587BOLB   C4A14072  33.079  37.857  22.609 -0.0609 -0.0471 -0.1415
  587BOLB   C1B14073  32.053  37.237  23.458  0.4687 -0.1266 -0.0760
  587BOLB   C2B14074  32.139  37.723  23.339  0.1838  0.2491  0.2849
  587BOLB   C3B14075  32.294  38.051  23.459 -0.1420  0.0322  0.1930
  587BOLB   C4B14076  32.756  38.055  23.360 -0.0362  0.1113 -0.0717
  587BOLB   NC214077  34.372  40.550  22.840 -0.2986  0.1099 -0.0651
  587BOLB   PO214078  34.341  40.156  22.878  0.2064  0.2439  0.2044
  587BOLB   GL314079  34.159  39.762  22.782 -0.1972  0.1485  0.2163
  587BOLB   GL414080  34.295  39.625  22.551 -0.0758 -0.0399  0.2611
  587BOLB   C1C14081  33.816  39.532  22.698 -0.0350  0.4337 -0.3175
  587BOLB   C2C14082  33.665  39.101  22.668 -0.0839  0.1210 -0.0918
  587BOLB   C3C14083  33.622  38.647  22.651 -0.2144 -0.2390  0.0217
  587BOLB   C4C14084  33.446  38.235  22.737 -0.0284  0.2215 -0.0058
  587BOLB   C1D14085  34.262  39.245  22.728 -0.1597  0.2433  0.2095
  587BOLB   C2D14086  33.961  39.112  23.089 -0.1050  0.0485  0.5105
  587BOLB   C3D14087  33.549  38.964  23.145 -0.2873 -0.1974 -0.0624
  587BOLB   C4D14088  33.437  38.549  23.134  0.0164  0.0287 -0.3596
  588BOLB   NC114089  20.940  31.447  16.708 -0.0443  0.0110 -0.1135
  588BOLB   PO114090  21.246  31.768  16.620  0.1096 -0.2108  0.2023
  588BOLB   GL114091  21.115  31.822  16.256  0.1618 -0.1687 -0.1482
  588BOLB   GL214092  20.937  31.576  16.183  0.3237  0.0733  0.0692
  588BOLB   C1A14093  21.022  31.768  15.776 -0.2308 -0.1885 -0.1064
  588BOLB   C2A14094  20.659  31.838  15.414 -0.2820 -0.0545  0.0609
  588BOLB   C3A14095  20.383  31.888  15.085  0.1385 -0.3363  0.3034
  588BOLB   C4A14096  20.401  32.058  14.697 -0.0878 -0.0625 -0.0111
  588BOLB   C1B14097  20.548  31.627  15.869  0.1686 -0.3910  0.0253
  588BOLB   C2B14098  20.178  31.648  15.514 -0.0906 -0.3233 -0.2363
  588BOLB   C3B14099  19.829  31.733  15.234  0.3104  0.0006 -0.3512
  588BOLB   C4B14100  19.367  31.668  15.456 -0.1290  0.0110 -0.0390
  588BOLB   NC214101  18.827  32.956  13.662  0.2056  0.0980  0.1417
  588BOLB   PO214102  18.991  33.008  13.191 -0.2225  0.1007 -0.3026
  588BOLB   GL314103  19.376  32.836  13.366 -0.0113 -0.2841 -0.4795
  588BOLB   GL414104  19.206  32.645  13.592  0.0591 -0.1282  0.0613
  588BOLB   C1C14105  19.731  32.751  13.528 -0.0071 -0.0774 -0.1796
  588BOLB   C2C14106  20.115  32.670  13.792 -0.0727 -0.0208 -0.1710
  588BOLB   C3C14107  20.293  32.421  13.946 -0.1314 -0.0734  0.1872
  588BOLB   C4C14108  20.450  32.149  14.296  0.0920 -0.2245 -0.0167
  588BOLB   C1D14109  19.467  32.340  13.705  0.0652 -0.0087  0.2681
  588BOLB   C2D14110  19.814  32.348  13.931  0.1215 -0.0264  0.2835
  588BOLB   C3D14111  19.883  32.179  14.344  0.2010  0.1416  0.4017
  588BOLB   C4D14112  19.846  32.035  14.833 -0.1852  0.2555 -0.0653
  589BOLB   NC114113  27.493  22.587  18.243  0.1588 -0.1093  0.1337
  589BOLB   PO114114  27.423  22.249  18.161 -0.2061 -0.0722  0.0177
  589BOLB   GL114115  27.394  21.773  18.128  0.2053 -0.0842  0.0975
  589BOLB   GL214116  27.440  21.619  18.418 -0.1726 -0.0171 -0.0063
  589BOLB   C1A14117  27.438  21.295  17.962 -0.1580 -0.0366 -0.1720
  589BOLB   C2A14118  27.356  20.950  17.773  0.3078 -0.1362  0.0146
  589BOLB   C3A14119  27.339  20.612  17.383 -0.4696 -0.5884 -0.0769
  589BOLB   C4A14120  27.431  20.237  17.172 -0.2028 -0.0068  0.6024
  589BOLB   C1B14121  27.389  21.195  18.488  0.0970  0.1714 -0.0088
  589BOLB   C2B14122  27.419  20.819  18.337  0.3684  0.2445 -0.4402
  589BOLB   C3B14123  27.392  20.471  18.069 -0.1420  0.1568  0.1802
  589BOLB   C4B14124  27.198  20.123  18.129  0.1941  0.1530  0.2204
  589BOLB   NC214125  27.313  18.009  15.454 -0.2492 -0.1196 -0.0082
  589BOLB   PO214126  27.744  18.233  15.713 -0.5988  0.1700 -0.2639
  589BOLB   GL314127  27.655  18.515  16.024  0.3064  0.0108  0.0417
  589BOLB   GL414128  27.928  18.692  15.847  0.1454 -0.1028 -0.2717
  589BOLB   C1C14129  27.702  18.828  16.415  0.0824 -0.1110  0.1254
  589BOLB   C2C14130  27.776  19.004  16.792  0.1376 -0.2413 -0.1062
  589BOLB   C3C14131  27.789  19.522  17.066  0.3586  0.0173  0.3882
  589BOLB   C4C14132  27.757  19.896  17.011 -0.3874 -0.0520 -0.1330
  589BOLB   C1D14133  27.544  18.994  15.926  0.0551  0.2179  0.1224
  589BOLB   C2D14134  27.326  19.247  16.153 -0.2156 -0.3016  0.4226
  589BOLB   C3D14135  27.287  19.700  16.416  0.2136  0.1107  0.2540
  589BOLB   C4D14136  27.458  20.057  16.645  0.1305  0.0964 -0.0181
  590BOLB   NC114137  29.238  23.454  16.198 -0.2461  0.1467  0.0698
  590BOLB   PO114138  29.052  23.487  15.794  0.0742 -0.0360  0.0535
  590BOLB   GL114139  28.892  23.295  15.485  0.2882 -0.1755 -0.1631
  590BOLB   GL214140  28.538  23.374  15.387  0.1183  0.0709  0.2186
  590BOLB   C1A14141  29.196  22.902  15.329  0.0612  0.0766 -0.0460
  590BOLB   C2A14142  29.011  22.610  14.978 -0.0259 -0.3013  0.1030
  590BOLB   C3A14143  28.782  22.557  14.550 -0.1081  0.2403  0.2139
  590BOLB   C4A14144  28.726  22.391  14.147 -0.0935 -0.2869 -0.0788
  590BOLB   C1B14145  28.528  23.482  14.966  0.1469 -0.1139 -0.0651
  590BOLB   C2B14146  28.543  23.443  14.567 -0.0244 -0.0679 -0.0161
  590BOLB   C3B14147  28.243  23.499  14.227  0.1389  0.0575  0.1254
  590BOLB   C4B14148  28.008  23.621  13.923 -0.3257 -0.2403  0.1731
  590BOLB   NC214149  29.627  21.243  12.361 -0.1764  0.2342  0.0336
  590BOLB   PO214150  29.273  21.082  12.708 -0.1219 -0.1487  0.1309
  590BOLB   GL314151  28.956  21.507  12.784  0.0697  0.3879 -0.2447
  590BOLB   GL414152  28.799  21.689  13.102  0.1845  0.2083  0.2308
  590BOLB   C1C14153  28.912  21.854  12.656  0.1317  0.0459  0.3120
  590BOLB   C2C14154  29.047  22.123  12.938 -0.0580  0.1573 -0.0569
  590BOLB   C3C14155  28.943  22.065  13.435  0.1959  0.1233 -0.1253
  590BOLB   C4C14156  28.937  22.196  13.812  0.2365 -0.0826 -0.3692
  590BOLB   C1D14157  28.357  21.654  13.252 -0.1940  0.0759 -0.2516
  590BOLB   C2D14158  28.025  21.874  13.191  0.0470 -0.1347 -0.0816
  590BOLB   C3D14159  27.686  22.153  13.135 -0.3542 -0.0464  0.0973
  590BOLB   C4D14160  27.393  22.312  13.312 -0.6031  0.1590 -0.0220
  591BOLB   NC114161  22.016  31.947   0.837  0.3248 -0.2833 -0.1759
  591BOLB   PO114162  22.032  32.305   0.531 -0.1099  0.0388  0.0158
  591BOLB   GL114163  21.919  32.417   0.958  0.1987  0.1772  0.0012
  591BOLB   GL214164  21.646  32.256   0.947  0.4723  0.1088  0.0248
  591BOLB   C1A14165  21.700  32.405   1.454 -0.2292 -0.0223 -0.0858
  591BOLB   C2A14166  21.394  32.477   1.735  0.0906 -0.0259  0.3599
  591BOLB   C3A14167  21.323  32.789   2.039  0.0312 -0.0122 -0.2368
  591BOLB   C4A14168  21.390  32.956   2.426 -0.0647  0.2930  0.0080
  591BOLB   C1B14169  21.387  32.534   0.952 -0.1316 -0.0917 -0.1266
  591BOLB   C2B14170  21.092  32.689   1.294  0.0899  0.2174  0.1406
  591BOLB   C3B14171  20.873  32.884   1.665  0.0853  0.2133  0.1046
  591BOLB   C4B14172  20.497  33.133   1.747 -0.0429 -0.2250  0.1596
  591BOLB   NC214173  19.983  34.032   4.370  0.0552  0.0778  0.0775
  591BOLB   PO214174  19.903  33.781   4.041 -0.1956  0.2959 -0.0714
  591BOLB   GL314175  20.110  33.640   3.793  0.2443  0.2000 -0.1938
  591BOLB   GL414176  20.040  33.739   3.584 -0.0413 -0.0534  0.3680
  591BOLB   C1C14177  20.225  33.275   3.542 -0.1971  0.2577  0.1864
  591BOLB   C2C14178  20.677  32.979   3.587 -0.1858 -0.1963 -0.2679
  591BOLB   C3C14179  20.912  33.017   3.144 -0.3078  0.3859 -0.0623
  591BOLB   C4C14180  21.124  32.977   2.799  0.0595 -0.0047  0.0128
  591BOLB   C1D14181  20.123  33.772   3.133  0.0882 -0.3431  0.3229
  591BOLB   C2D14182  20.121  33.748   2.617  0.1660  0.3085 -0.2100
  591BOLB   C3D14183  20.354  33.455   2.335 -0.2218 -0.0431  0.2436
  591BOLB   C4D14184  20.412  33.064   2.287  0.0411  0.2499 -0.2858
  592BOLB   NC114185  28.546  37.866  19.585 -0.1073  0.2764  0.0575
  592BOLB   PO114186  28.077  37.832  19.650  0.0798  0.1405 -0.2235
  592BOLB   GL114187  28.374  38.317  19.691  0.1600 -0.3899  0.1666
  592BOLB   GL214188  28.511  38.306  19.415  0.3994  0.0724 -0.0055
  592BOLB   C1A14189  28.301  38.711  19.635 -0.0152  0.1054  0.0614
  592BOLB   C2A14190  28.321  39.073  19.477  0.0157 -0.0134  0.0116
  592BOLB   C3A14191  28.375  39.483  19.464 -0.0283  0.1032  0.0185
  592BOLB   C4A14192  28.314  39.880  19.289  0.1444  0.0212 -0.2312
  592BOLB   C1B14193  28.762  38.546  19.364  0.0669 -0.1939  0.0799
  592BOLB   C2B14194  28.790  38.969  19.372 -0.0077  0.1152  0.0003
  592BOLB   C3B14195  28.844  39.375  19.281 -0.0429  0.4005  0.0804
  592BOLB   C4B14196  28.849  39.829  19.235 -0.1741  0.5738  0.2479
  592BOLB   NC214197  26.817  42.020  18.505  0.0287 -0.3324 -0.2740
  592BOLB   PO214198  27.263  41.789  18.692  0.0103 -0.0551 -0.2374
  592BOLB   GL314199  27.433  41.381  18.943  0.0645 -0.2998  0.0066
  592BOLB   GL414200  27.186  41.247  19.035  0.1868 -0.0484  0.2373
  592BOLB   C1C14201  27.599  40.936  18.809  0.0619  0.1395  0.2017
  592BOLB   C2C14202  27.790  40.530  18.609  0.2918 -0.3009 -0.1365
  592BOLB   C3C14203  27.960  40.208  18.581 -0.2661 -0.1637  0.1139
  592BOLB   C4C14204  28.178  40.049  18.871 -0.1053  0.0551  0.3130
  592BOLB   C1D14205  27.592  41.022  19.265 -0.3645 -0.0712  0.2151
  592BOLB   C2D14206  27.664  40.534  19.093  0.1734 -0.0317  0.0954
  592BOLB   C3D14207  27.650  40.102  19.049  0.3729 -0.0025  0.0984
  592BOLB   C4D14208  27.688  39.673  18.957  0.0904 -0.0570 -0.0628
  593BOLB   NC114209  28.755  36.790  18.260 -0.0566  0.0465  0.1712
  593BOLB   PO114210  28.998  37.090  18.360  0.0788  0.0361 -0.0234
  593BOLB   GL114211  29.082  37.490  18.310  0.1780  0.0549 -0.2376
  593BOLB   GL214212  29.406  37.640  18.391  0.1798  0.2751  0.2807
  593BOLB   C1A14213  29.057  37.944  18.164 -0.1581 -0.1948 -0.1190
  593BOLB   C2A14214  28.820  38.213  18.009  0.4075 -0.0059 -0.2951
  593BOLB   C3A14215  28.808  38.662  18.015  0.1273 -0.0030  0.2835
  593BOLB   C4A14216  28.838  39.053  18.053 -0.1161 -0.1358 -0.2885
  593BOLB   C1B14217  29.439  38.075  18.426  0.0258  0.1066 -0.1772
  593BOLB   C2B14218  29.479  38.388  18.768  0.1283  0.0214  0.2086
  593BOLB   C3B14219  29.632  38.828  18.807  0.0661 -0.0802 -0.3408
  593BOLB   C4B14220  29.673  39.236  18.952  0.2785  0.1998 -0.1124
  593BOLB   NC214221  28.995  41.257  17.157 -0.1957 -0.3046  0.0867
  593BOLB   PO214222  29.252  41.290  17.539  0.3015 -0.2222 -0.0562
  593BOLB   GL314223  29.084  40.861  17.548 -0.0602 -0.0331 -0.0823
  593BOLB   GL414224  29.319  40.529  17.495 -0.2300  0.3041 -0.0010
  593BOLB   C1C14225  29.160  40.620  17.955 -0.0642  0.0844  0.1820
  593BOLB   C2C14226  29.286  40.176  18.092 -0.0391 -0.0515 -0.3454
  593BOLB   C3C14227  29.152  39.821  18.226  0.1487 -0.1093  0.1132
  593BOLB   C4C14228  28.974  39.480  18.135 -0.0268 -0.4983  0.2187
  593BOLB   C1D14229  29.652  40.450  17.853 -0.0276 -0.0606  0.0981
  593BOLB   C2D14230  29.790  40.024  18.008  0.2716 -0.0114  0.0448
  593BOLB   C3D14231  29.721  39.768  18.306 -0.1249 -0.0096  0.2909
  593BOLB   C4D14232  29.959  39.401  18.484 -0.0290  0.0049  0.3103
  594BOLB   NC114233  20.295  32.941  22.780 -0.0269 -0.2231  0.1620
  594BOLB   PO114234  19.949  33.156  22.852 -0.3963 -0.1817  0.0533
  594BOLB   GL114235  19.531  33.182  22.961  0.1330  0.1444 -0.0033
  594BOLB   GL214236  19.620  33.349  23.224 -0.2826  0.0582 -0.1955
  594BOLB   C1A14237  19.084  33.037  22.979  0.2885  0.0303  0.1070
  594BOLB   C2A14238  18.750  32.965  23.225  0.0916 -0.0154 -0.0885
  594BOLB   C3A14239  18.470  32.677  23.459 -0.4118  0.1634 -0.2366
  594BOLB   C4A14240  18.239  32.386  23.793 -0.0469  0.2137  0.0162
  594BOLB   C1B14241  19.519  33.709  23.271  0.0653 -0.2304  0.0092
  594BOLB   C2B14242  19.263  33.985  23.299 -0.5238  0.1972  0.2366
  594BOLB   C3B14243  18.847  34.252  23.489 -0.0879 -0.1504  0.0029
  594BOLB   C4B14244  18.421  34.402  23.488  0.2090 -0.2858 -0.1626
  594BOLB   NC214245  16.637  33.931  25.094 -0.0321 -0.0961  0.1729
  594BOLB   PO214246  16.445  33.536  25.230  0.2911  0.0231  0.2031
  594BOLB   GL314247  16.826  33.408  24.943 -0.0535 -0.0763 -0.0723
  594BOLB   GL414248  16.998  33.653  24.785  0.1478 -0.1371  0.1140
  594BOLB   C1C14249  17.126  33.169  24.751 -0.2971 -0.2899 -0.2943
  594BOLB   C2C14250  17.540  32.961  24.743  0.0355  0.2238  0.0294
  594BOLB   C3C14251  17.970  32.778  24.639 -0.3715 -0.3191  0.3104
  594BOLB   C4C14252  18.055  32.429  24.292 -0.2959  0.2966 -0.0965
  594BOLB   C1D14253  17.354  34.009  24.890  0.2407  0.0952 -0.1463
  594BOLB   C2D14254  17.848  34.220  24.740  0.3109  0.0142  0.1908
  594BOLB   C3D14255  18.022  34.315  24.442  0.4001 -0.0607  0.0418
  594BOLB   C4D14256  17.859  34.191  24.051  0.1830 -0.1327 -0.1457
  595BOLB   NC114257  35.253  30.969  18.268 -0.0542  0.1813 -0.0602
  595BOLB   PO114258  34.971  30.766  17.839 -0.0952 -0.3105  0.0782
  595BOLB   GL114259  35.265  30.946  17.666 -0.2377 -0.1395  0.0986
  595BOLB   GL214260  35.364  31.141  17.776 -0.1648  0.2268 -0.0045
  595BOLB   C1A14261  35.530  31.173  17.232 -0.2181 -0.0255 -0.3346
  595BOLB   C2A14262  35.584  31.442  16.871 -0.1942  0.0019  0.0779
  595BOLB   C3A14263  35.827  31.454  16.465 -0.0788  0.3316  0.0292
  595BOLB   C4A14264  36.163  31.509  16.199 -0.1761  0.3910 -0.1727
  595BOLB   C1B14265  35.799  31.125  17.813 -0.1619  0.0497 -0.0944
  595BOLB   C2B14266  36.314  31.288  17.683 -0.0067 -0.0307 -0.0393
  595BOLB   C3B14267  36.552  31.387  17.996  0.0030 -0.0264  0.3141
  595BOLB   C4B14268  36.886  31.712  17.893  0.3398  0.1732  0.3898
  595BOLB   NC214269  38.245  32.418  15.847 -0.1194  0.0175 -0.1343
  595BOLB   PO214270  38.099  32.636  15.479  0.1446 -0.1154 -0.1622
  595BOLB   GL314271  37.678  32.557  15.643 -0.0197  0.1086  0.0658
  595BOLB   GL414272  37.414  32.788  15.612  0.1568 -0.1948  0.1068
  595BOLB   C1C14273  37.602  32.295  15.934 -0.0889 -0.4125 -0.1513
  595BOLB   C2C14274  37.127  32.086  16.060  0.0093 -0.2163 -0.1570
  595BOLB   C3C14275  36.706  32.100  15.992  0.1349 -0.2184 -0.0981
  595BOLB   C4C14276  36.381  31.818  16.031  0.1550 -0.1439  0.0363
  595BOLB   C1D14277  37.018  33.028  15.592  0.3607 -0.2878 -0.0365
  595BOLB   C2D14278  36.796  33.012  16.000  0.2196  0.2351 -0.1122
  595BOLB   C3D14279  36.671  32.724  16.284  0.0602 -0.2473  0.2026
  595BOLB   C4D14280  36.311  32.406  16.325 -0.2452  0.0811  0.4084
  596BOLB   NC114281  28.041  31.537  14.023  0.1295  0.0520 -0.0008
  596BOLB   PO114282  27.955  31.498  13.634  0.1641  0.0045 -0.1430
  596BOLB   GL114283  28.011  31.468  13.161 -0.3962 -0.2502 -0.0088
  596BOLB   GL214284  27.828  31.660  12.962  0.0581  0.1604 -0.1550
  596BOLB   C1A14285  28.200  31.454  12.701  0.0352  0.1261 -0.1220
  596BOLB   C2A14286  28.261  31.433  12.231 -0.3163 -0.1972 -0.0061
  596BOLB   C3A14287  28.175  31.417  11.760 -0.0195 -0.0044 -0.4110
  596BOLB   C4A14288  28.156  31.129  11.433 -0.5735  0.2294 -0.1740
  596BOLB   C1B14289  27.507  31.756  12.694  0.4831 -0.1760 -0.0335
  596BOLB   C2B14290  27.435  31.905  12.232 -0.0205  0.0430  0.0232
  596BOLB   C3B14291  27.597  32.133  11.918  0.0895 -0.1014 -0.4719
  596BOLB   C4B14292  27.501  32.519  11.781  0.0004  0.0528 -0.0149
  596BOLB   NC214293  29.745  30.143   9.883 -0.1218  0.1660 -0.0899
  596BOLB   PO214294  29.276  30.236   9.675 -0.0614  0.1491 -0.0313
  596BOLB   GL314295  29.281  30.290  10.148 -0.0869  0.1764  0.0768
  596BOLB   GL414296  29.319  30.587  10.184  0.1109 -0.0223 -0.0375
  596BOLB   C1C14297  29.033  30.240  10.555  0.0677 -0.1979 -0.1566
  596BOLB   C2C14298  28.833  30.180  10.767  0.2172 -0.2601  0.0685
  596BOLB   C3C14299  28.420  30.363  11.056 -0.1063  0.3244 -0.0552
  596BOLB   C4C14300  28.253  30.682  11.211  0.1527  0.1315  0.2704
  596BOLB   C1D14301  29.397  30.961  10.457 -0.3739  0.2995  0.0890
  596BOLB   C2D14302  29.261  31.137  10.778  0.0658  0.0871  0.2011
  596BOLB   C3D14303  29.104  31.147  11.116 -0.1934  0.1951 -0.3695
  596BOLB   C4D14304  28.683  31.048  11.239  0.0612 -0.0363  0.0084
  597BOLB   NC114305  30.136  22.335  19.874 -0.1510  0.1987  0.3252
  597BOLB   PO114306  29.815  22.163  19.630 -0.1865  0.3352  0.1527
  597BOLB   GL114307  29.936  21.874  19.432  0.0288  0.3430 -0.3863
  597BOLB   GL214308  29.847  21.905  19.171  0.1449 -0.1061  0.0013
  597BOLB   C1A14309  30.418  21.692  19.258 -0.1407 -0.1673 -0.3270
  597BOLB   C2A14310  30.662  21.289  19.196  0.3844  0.1377  0.1111
  597BOLB   C3A14311  30.994  21.077  19.071  0.2542  0.1095  0.0406
  597BOLB   C4A14312  31.322  20.706  19.058  0.0036  0.0597 -0.1703
  597BOLB   C1B14313  29.952  21.500  18.974 -0.1557  0.0389  0.1884
  597BOLB   C2B14314  30.297  21.268  18.741  0.0124  0.1781  0.2338
  597BOLB   C3B14315  30.535  20.982  18.823 -0.2162  0.1035  0.2668
  597BOLB   C4B14316  30.836  20.615  18.801 -0.0040  0.2197 -0.0815
  597BOLB   NC214317  31.596  18.075  17.977 -0.1760 -0.0697  0.1308
  597BOLB   PO214318  31.421  18.453  18.121  0.0728  0.0206  0.0427
  597BOLB   GL314319  31.596  18.789  18.233 -0.0271  0.0603 -0.0955
  597BOLB   GL414320  31.691  18.950  18.012  0.0270  0.2636 -0.3237
  597BOLB   C1C14321  31.651  19.194  18.496  0.3802 -0.1428  0.2097
  597BOLB   C2C14322  31.628  19.690  18.617 -0.1821  0.3373 -0.1891
  597BOLB   C3C14323  31.618  19.992  18.901 -0.1159 -0.0332  0.0477
  597BOLB   C4C14324  31.350  20.255  19.098  0.3120 -0.0303 -0.3975
  597BOLB   C1D14325  31.763  19.418  18.043  0.3439  0.0927  0.2387
  597BOLB   C2D14326  31.701  19.771  18.179  0.0756 -0.2571 -0.1899
  597BOLB   C3D14327  31.600  20.155  18.336  0.0381  0.1008  0.0420
  597BOLB   C4D14328  31.436  20.486  18.602 -0.1736 -0.1239 -0.0337
  598BOLB   NC114329  27.196  28.451  14.115 -0.1222  0.3058 -0.2854
  598BOLB   PO114330  26.948  28.622  13.788  0.0076  0.1981 -0.2926
  598BOLB   GL114331  27.083  28.562  13.278 -0.1012  0.2034 -0.0592
  598BOLB   GL214332  27.221  28.316  13.260  0.3156 -0.1633 -0.1810
  598BOLB   C1A14333  26.806  28.464  13.012 -0.2566  0.3277 -0.1383
  598BOLB   C2A14334  26.655  28.328  12.609  0.2681 -0.0732 -0.0521
  598BOLB   C3A14335  26.570  28.122  12.184  0.0610  0.5060  0.2482
  598BOLB   C4A14336  26.974  28.109  11.896 -0.0648 -0.2115  0.0307
  598BOLB   C1B14337  27.331  28.362  12.875  0.0889 -0.1527 -0.1731
  598BOLB   C2B14338  27.316  28.316  12.484 -0.0968  0.0556  0.0883
  598BOLB   C3B14339  27.284  28.456  12.135  0.1102 -0.0088 -0.3875
  598BOLB   C4B14340  27.501  28.700  11.884  0.0556 -0.1640  0.1550
  598BOLB   NC214341  28.701  27.887   9.874 -0.0532  0.0237  0.0356
  598BOLB   PO214342  28.318  27.996   9.881 -0.0765  0.0210  0.1285
  598BOLB   GL314343  28.208  28.125  10.236  0.1268  0.0757  0.0817
  598BOLB   GL414344  27.977  28.370  10.162  0.1919  0.1936 -0.1753
  598BOLB   C1C14345  28.210  28.240  10.702 -0.1281 -0.2105 -0.0494
  598BOLB   C2C14346  27.856  28.150  11.016 -0.0010 -0.0625 -0.0521
  598BOLB   C3C14347  27.456  28.465  11.327 -0.2571 -0.1066  0.1808
  598BOLB   C4C14348  27.093  28.475  11.582  0.2799  0.3245 -0.1952
  598BOLB   C1D14349  27.672  28.639  10.187  0.0333 -0.1969  0.0649
  598BOLB   C2D14350  27.233  28.553  10.346  0.1849  0.1799  0.2862
  598BOLB   C3D14351  26.859  28.446  10.438 -0.1115 -0.5473 -0.4161
  598BOLB   C4D14352  26.471  28.313  10.667 -0.1977 -0.0090 -0.1883
  599BOLB   NC114353  25.031  32.380  14.269 -0.0930  0.1831 -0.0375
  599BOLB   PO114354  25.121  32.741  14.444 -0.0628 -0.3146 -0.1544
  599BOLB   GL114355  24.964  32.814  14.033  0.2263 -0.0326 -0.4464
  599BOLB   GL214356  25.171  32.942  13.764 -0.0397  0.1782 -0.0924
  599BOLB   C1A14357  24.678  32.978  13.648  0.0201  0.0369 -0.1835
  599BOLB   C2A14358  24.457  33.092  13.323 -0.0428 -0.2572 -0.0532
  599BOLB   C3A14359  24.149  33.198  13.014 -0.2292 -0.0352  0.1240
  599BOLB   C4A14360  24.039  33.455  12.771 -0.2417  0.2016 -0.4136
  599BOLB   C1B14361  25.116  33.170  13.491 -0.1186 -0.2404 -0.3185
  599BOLB   C2B14362  24.989  33.227  13.114 -0.2030  0.2091  0.0100
  599BOLB   C3B14363  24.982  33.495  12.720  0.0105  0.0370  0.0232
  599BOLB   C4B14364  25.044  33.951  12.615 -0.3470  0.0324 -0.1845
  599BOLB   NC214365  23.977  34.693  10.437 -0.0942  0.0327 -0.1189
  599BOLB   PO214366  23.887  34.409  10.788  0.0611  0.1472 -0.1796
  599BOLB   GL314367  24.020  34.051  11.015  0.1519 -0.2011  0.2437
  599BOLB   GL414368  24.235  33.859  10.934 -0.0601 -0.0353 -0.0891
  599BOLB   C1C14369  23.839  33.812  11.280 -0.2813 -0.1925 -0.1203
  599BOLB   C2C14370  23.843  33.869  11.676  0.1390  0.0996 -0.0521
  599BOLB   C3C14371  23.892  33.959  12.068 -0.0111 -0.0752 -0.2070
  599BOLB   C4C14372  23.966  33.673  12.375  0.2961  0.1788  0.1621
  599BOLB   C1D14373  24.566  33.959  11.264  0.3162 -0.0206 -0.2113
  599BOLB   C2D14374  24.796  34.100  11.689 -0.1087 -0.0270 -0.1848
  599BOLB   C3D14375  24.863  34.118  12.119  0.0910 -0.0739  0.0389
  599BOLB   C4D14376  24.704  34.342  12.386  0.0584  0.0547 -0.1198
  600BOLB   NC114377  29.056  26.442   2.192 -0.0644  0.2888  0.1014
  600BOLB   PO114378  29.106  26.104   1.942 -0.1750 -0.3254 -0.2522
  600BOLB   GL114379  29.207  25.977   2.378  0.0462  0.0016 -0.0600
  600BOLB   GL214380  29.429  25.738   2.287 -0.0000 -0.0168  0.1745
  600BOLB   C1A14381  29.309  25.612   2.748  0.1864 -0.1913 -0.2654
  600BOLB   C2A14382  29.477  25.404   3.021 -0.0777 -0.0075  0.0097
  600BOLB   C3A14383  29.742  25.056   3.236  0.0476  0.1201 -0.1077
  600BOLB   C4A14384  29.804  24.605   3.372  0.1268  0.0122 -0.0321
  600BOLB   C1B14385  29.707  25.442   2.497  0.1744 -0.1032 -0.0669
  600BOLB   C2B14386  29.745  24.982   2.668  0.1681 -0.0080  0.1928
  600BOLB   C3B14387  29.750  24.560   2.827 -0.0156 -0.1796  0.0081
  600BOLB   C4B14388  29.556  24.200   3.039 -0.0536  0.0072 -0.0262
  600BOLB   NC214389  30.713  22.835   4.987 -0.0317 -0.3912  0.1614
  600BOLB   PO214390  30.674  22.575   4.562  0.3683  0.0063 -0.2473
  600BOLB   GL314391  30.532  22.615   4.178 -0.2087  0.1274 -0.0669
  600BOLB   GL414392  30.227  22.471   4.229  0.0285 -0.1240  0.0643
  600BOLB   C1C14393  30.336  22.990   3.998  0.0010 -0.2717 -0.2022
  600BOLB   C2C14394  30.143  23.319   3.738 -0.3597  0.2950  0.1873
  600BOLB   C3C14395  30.021  23.743   3.587 -0.1431  0.1647  0.1591
  600BOLB   C4C14396  29.751  24.164   3.528 -0.3238  0.1297 -0.0921
  600BOLB   C1D14397  30.199  22.577   3.731  0.0490 -0.3349 -0.2450
  600BOLB   C2D14398  30.128  22.844   3.368  0.2050  0.0504 -0.1564
  600BOLB   C3D14399  29.866  22.863   3.104 -0.0664 -0.1808 -0.3020
  600BOLB   C4D14400  29.574  23.150   2.903  0.1831  0.4057  0.0847
  601BOLB   NC114401  15.167  29.721   3.224 -0.0717  0.2703  0.0160
  601BOLB   PO114402  15.136  29.666   2.747 -0.1343  0.2710  0.0678
  601BOLB   GL114403  15.438  29.402   2.811 -0.0182  0.0332 -0.1657
  601BOLB   GL214404  15.423  29.292   2.504  0.2109  0.2366 -0.2279
  601BOLB   C1A14405  15.738  29.107   2.866  0.2355 -0.0560  0.0406
  601BOLB   C2A14406  15.710  28.728   2.725 -0.0380  0.1253 -0.2439
  601BOLB   C3A14407  15.616  28.313   2.805  0.0954  0.0897  0.2894
  601BOLB   C4A14408  15.598  28.037   2.495 -0.0397  0.1226 -0.0077
  601BOLB   C1B14409  15.179  28.988   2.170  0.4693 -0.1906 -0.0802
  601BOLB   C2B14410  15.124  28.535   1.884  0.1396 -0.1085 -0.1149
  601BOLB   C3B14411  15.158  28.314   1.626 -0.0665 -0.1434 -0.2741
  601BOLB   C4B14412  15.351  28.313   1.140  0.2280 -0.1396  0.0782
  601BOLB   NC214413  15.660  27.615   4.132 -0.0125  0.4437 -0.0536
  601BOLB   PO214414  15.857  27.312   3.943  0.0852 -0.1240 -0.2690
  601BOLB   GL314415  16.149  27.427   3.586  0.0634 -0.1420  0.3398
  601BOLB   GL414416  16.364  27.159   3.542  0.0048 -0.2498 -0.0679
  601BOLB   C1C14417  16.279  27.712   3.294  0.0205 -0.3246 -0.0112
  601BOLB   C2C14418  16.472  27.730   2.898 -0.2537  0.0496  0.3090
  601BOLB   C3C14419  16.250  27.795   2.388 -0.1732  0.1772 -0.0864
  601BOLB   C4C14420  15.853  27.888   2.220 -0.1699  0.5301  0.1004
  601BOLB   C1D14421  16.653  27.204   3.302 -0.0021 -0.0483 -0.0827
  601BOLB   C2D14422  16.835  27.396   3.019  0.1126  0.2723  0.0352
  601BOLB   C3D14423  17.143  27.454   2.751  0.1076 -0.0157  0.0160
  601BOLB   C4D14424  17.643  27.489   2.637 -0.0707  0.1791 -0.3470
  602BOLB   NC114425  34.262  30.971  26.687 -0.1607 -0.1157 -0.2093
  602BOLB   PO114426  34.092  31.075   0.140 -0.4421  0.0550 -0.1076
  602BOLB   GL114427  34.362  31.263   0.409  0.1874 -0.2663 -0.0957
  602BOLB   GL214428  34.522  31.607   0.352 -0.2812  0.1080  0.0765
  602BOLB   C1A14429  34.671  31.256   0.709 -0.0283 -0.1771 -0.1652
  602BOLB   C2A14430  34.985  31.183   1.004 -0.0145  0.1656 -0.2119
  602BOLB   C3A14431  35.433  31.277   1.299 -0.0456 -0.0653  0.0253
  602BOLB   C4A14432  35.695  31.621   1.437  0.2896 -0.1023  0.2867
  602BOLB   C1B14433  34.485  31.710   0.773  0.2780 -0.2003 -0.0888
  602BOLB   C2B14434  34.685  31.627   1.190 -0.1711  0.0362  0.0845
  602BOLB   C3B14435  34.625  31.523   1.485  0.0243  0.1664  0.3774
  602BOLB   C4B14436  34.781  31.300   1.805 -0.2002 -0.0660  0.2243
  602BOLB   NC214437  37.441  32.683   2.252  0.2384  0.0194 -0.1919
  602BOLB   PO214438  37.177  32.429   2.495 -0.1548 -0.0187 -0.2614
  602BOLB   GL314439  36.746  32.598   2.335  0.0082  0.1285  0.1583
  602BOLB   GL414440  36.430  32.558   2.535 -0.1565 -0.1094  0.5274
  602BOLB   C1C14441  36.699  32.657   1.917 -0.1526 -0.2983  0.0891
  602BOLB   C2C14442  36.314  32.492   1.720  0.3053  0.1295 -0.2880
  602BOLB   C3C14443  35.964  32.282   1.513  0.2415  0.1287 -0.0123
  602BOLB   C4C14444  35.697  31.963   1.307 -0.0385 -0.2581 -0.0994
  602BOLB   C1D14445  36.186  32.482   2.286  0.1797  0.0777 -0.0890
  602BOLB   C2D14446  35.892  32.369   2.025  0.0372  0.3712  0.1348
  602BOLB   C3D14447  35.551  32.131   1.818 -0.4843 -0.2223 -0.2833
  602BOLB   C4D14448  35.215  32.013   1.564  0.0945 -0.1048 -0.1819
  603BOLB   NC114449  24.146  36.434  18.325  0.2267  0.5330  0.0644
  603BOLB   PO114450  24.431  36.751  18.505  0.1479  0.2699  0.0355
  603BOLB   GL114451  24.250  37.168  18.630  0.3130  0.1018  0.3199
  603BOLB   GL214452  24.377  37.294  18.831  0.3831 -0.0970  0.1873
  603BOLB   C1A14453  23.981  37.560  18.652 -0.0743  0.1086 -0.3042
  603BOLB   C2A14454  23.776  37.935  18.772  0.0331 -0.0618 -0.1697
  603BOLB   C3A14455  23.701  38.364  18.780 -0.0513 -0.1865  0.1972
  603BOLB   C4A14456  23.625  38.756  18.895 -0.1017  0.0023  0.1561
  603BOLB   C1B14457  24.488  37.571  18.580  0.2170 -0.0074 -0.3220
  603BOLB   C2B14458  24.684  37.714  18.200  0.0270  0.0462  0.0847
  603BOLB   C3B14459  24.691  38.224  18.156  0.1904  0.2719  0.3163
  603BOLB   C4B14460  24.874  38.574  17.811  0.0792 -0.0749  0.1378
  603BOLB   NC214461  24.027  41.489  17.478  0.0540  0.0115 -0.1483
  603BOLB   PO214462  24.171  41.022  17.551 -0.1453 -0.1691 -0.0108
  603BOLB   GL314463  23.880  40.554  17.736 -0.0052 -0.2510  0.1449
  603BOLB   GL414464  23.873  40.354  17.468  0.0355  0.3198 -0.3118
  603BOLB   C1C14465  23.625  40.303  18.167  0.1346  0.1655 -0.1046
  603BOLB   C2C14466  23.623  39.957  18.515 -0.4091 -0.1378  0.0920
  603BOLB   C3C14467  23.664  39.551  18.616  0.1238 -0.0602 -0.1741
  603BOLB   C4C14468  23.513  39.202  18.971  0.0013 -0.1563 -0.0572
  603BOLB   C1D14469  23.870  40.018  17.794  0.1797 -0.0779  0.0193
  603BOLB   C2D14470  24.125  39.708  17.797  0.3868 -0.1313  0.0701
  603BOLB   C3D14471  24.158  39.315  17.839 -0.0008  0.1343 -0.3848
  603BOLB   C4D14472  24.225  38.935  18.111  0.1760  0.1419 -0.0206
  604BOLB   NC114473  31.416  23.321  25.299 -0.0095  0.0173 -0.3596
  604BOLB   PO114474  31.470  23.395  25.727 -0.0297 -0.3508 -0.0788
  604BOLB   GL114475  31.625  23.063  26.009  0.1055  0.0606 -0.3448
  604BOLB   GL214476  31.688  23.220  26.333  0.0271  0.0398 -0.0917
  604BOLB   C1A14477  31.842  22.768  26.207  0.1077  0.0940  0.1900
  604BOLB   C2A14478  31.817  22.456  26.538  0.0797  0.2922  0.1296
  604BOLB   C3A14479  31.672  22.157  26.806  0.0097  0.1064 -0.4376
  604BOLB   C4A14480  31.787  21.731   0.075 -0.2159 -0.3457 -0.0691
  604BOLB   C1B14481  31.577  22.922  26.676 -0.0894 -0.2594  0.1387
  604BOLB   C2B14482  31.601  22.597   0.102  0.0052 -0.0065 -0.2495
  604BOLB   C3B14483  31.777  22.384   0.464 -0.4032 -0.1786 -0.4500
  604BOLB   C4B14484  31.727  22.124   0.792 -0.1850  0.1582 -0.1897
  604BOLB   NC214485  33.001  19.978   1.455  0.3872  0.4795  0.4670
  604BOLB   PO214486  32.684  19.935   1.147  0.2343  0.3259  0.0382
  604BOLB   GL314487  32.693  20.346   0.783  0.1922 -0.1612 -0.2870
  604BOLB   GL414488  32.812  20.388   0.448 -0.0155 -0.0683 -0.0057
  604BOLB   C1C14489  32.511  20.756   0.549 -0.1639 -0.0625  0.0551
  604BOLB   C2C14490  32.289  20.751   0.253  0.1472  0.0130  0.3983
  604BOLB   C3C14491  32.002  20.922  26.921  0.0638 -0.1655  0.3248
  604BOLB   C4C14492  31.844  21.322   0.145  0.1109  0.3190 -0.2684
  604BOLB   C1D14493  32.835  20.704   0.132  0.1706 -0.2088  0.0160
  604BOLB   C2D14494  32.686  20.986  26.843 -0.3012 -0.0914  0.0949
  604BOLB   C3D14495  32.778  21.280  26.486  0.1531  0.0221  0.1603
  604BOLB   C4D14496  32.341  21.467  26.385 -0.0857 -0.0236  0.1495
  605BOLB   NC114497  30.239  23.562  26.088  0.2058  0.3561  0.2473
  605BOLB   PO114498  30.306  23.050  26.030 -0.1990  0.2803 -0.0031
  605BOLB   GL114499  30.333  22.930  26.424  0.2610 -0.0751  0.0395
  605BOLB   GL214500  30.117  22.735  26.426  0.1254  0.3223  0.2157
  605BOLB   C1A14501  30.576  22.641  26.616 -0.1692  0.3029  0.0293
  605BOLB   C2A14502  30.689  22.230  26.796  0.0683  0.2583  0.2644
  605BOLB   C3A14503  30.761  21.857   0.212 -0.1827  0.0742  0.1557
  605BOLB   C4A14504  30.957  21.455   0.443  0.0012  0.1961  0.0393
  605BOLB   C1B14505  30.084  22.360  26.712 -0.2494  0.0022  0.2656
  605BOLB   C2B14506  30.240  22.022   0.003  0.0402  0.4531 -0.1607
  605BOLB   C3B14507  30.299  21.901   0.434  0.2629 -0.0295  0.4045
  605BOLB   C4B14508  30.542  21.623   0.610  0.3167  0.1163 -0.2501
  605BOLB   NC214509  32.280  19.766   1.416 -0.0743 -0.1014  0.0048
  605BOLB   PO214510  31.917  19.720   1.269 -0.0664  0.1044 -0.0671
  605BOLB   GL314511  31.632  20.023   1.283  0.1447  0.0346 -0.1845
  605BOLB   GL414512  31.723  20.231   1.433 -0.0673  0.0112  0.0725
  605BOLB   C1C14513  31.262  20.174   0.961 -0.2167 -0.0444  0.2514
  605BOLB   C2C14514  30.919  20.403   0.750 -0.2120 -0.3485  0.0403
  605BOLB   C3C14515  31.023  20.680   0.444 -0.1654  0.0581 -0.1810
  605BOLB   C4C14516  30.989  21.005   0.280  0.1538  0.2335 -0.2431
  605BOLB   C1D14517  31.705  20.429   1.017 -0.4882 -0.0287  0.0601
  605BOLB   C2D14518  31.357  20.624   0.819 -0.1652 -0.0976 -0.0791
  605BOLB   C3D14519  31.076  20.982   0.830 -0.0210  0.4480  0.4464
  605BOLB   C4D14520  30.703  21.304   1.017  0.0035  0.2277 -0.3330
  606BOLB   NC114521  27.710  37.473  19.430 -0.2387  0.1773 -0.3983
  606BOLB   PO114522  27.844  37.260  19.040 -0.0886 -0.1871  0.1977
  606BOLB   GL114523  27.861  37.658  18.941 -0.0376 -0.2317  0.0520
  606BOLB   GL214524  27.758  37.870  19.093 -0.3208 -0.0253 -0.1157
  606BOLB   C1A14525  28.132  37.942  18.695 -0.0225 -0.1306 -0.2559
  606BOLB   C2A14526  28.201  38.489  18.700  0.1164  0.0317  0.0644
  606BOLB   C3A14527  28.061  38.956  18.799  0.0472  0.0082 -0.1260
  606BOLB   C4A14528  28.026  39.365  18.490 -0.0197 -0.1430  0.0955
  606BOLB   C1B14529  27.605  38.030  18.623 -0.4302 -0.0098 -0.0066
  606BOLB   C2B14530  27.465  37.905  18.280 -0.2698 -0.0816  0.2312
  606BOLB   C3B14531  27.227  38.101  17.977 -0.4051 -0.0926  0.1326
  606BOLB   C4B14532  26.902  38.349  17.723 -0.0842  0.1073 -0.1312
  606BOLB   NC214533  28.022  41.809  17.311 -0.0351  0.0648 -0.0095
  606BOLB   PO214534  28.220  41.514  17.406  0.1848  0.2977  0.3933
  606BOLB   GL314535  28.176  41.092  17.541 -0.1153  0.2350  0.0655
  606BOLB   GL414536  27.873  40.981  17.572  0.1328  0.1343  0.0548
  606BOLB   C1C14537  28.216  40.603  17.455 -0.0087 -0.1578 -0.1774
  606BOLB   C2C14538  28.088  40.285  17.738  0.2516 -0.4211 -0.2262
  606BOLB   C3C14539  28.239  40.323  18.173 -0.0914 -0.1932 -0.0866
  606BOLB   C4C14540  28.211  39.829  18.327 -0.0447 -0.0969  0.0455
  606BOLB   C1D14541  27.432  40.552  17.579  0.1628  0.1305  0.0910
  606BOLB   C2D14542  27.192  40.165  17.561  0.0336 -0.0406  0.2290
  606BOLB   C3D14543  26.980  39.870  17.401  0.1709  0.0671 -0.1215
  606BOLB   C4D14544  26.954  39.674  16.964  0.0379 -0.2909 -0.1755
  607BOLB   NC114545  20.775  30.869  17.266 -0.1058 -0.1883 -0.2859
  607BOLB   PO114546  20.530  31.069  17.461  0.0350 -0.1743 -0.1692
  607BOLB   GL114547  20.273  30.961  17.152 -0.0735  0.0337  0.1548
  607BOLB   GL214548  20.481  31.108  16.919  0.3079 -0.0961 -0.0182
  607BOLB   C1A14549  19.954  31.192  16.925 -0.2692  0.0789  0.0533
  607BOLB   C2A14550  19.719  31.477  16.866  0.1773 -0.0383 -0.1456
  607BOLB   C3A14551  19.441  31.702  16.573 -0.0165  0.0040 -0.0032
  607BOLB   C4A14552  19.430  31.899  16.147 -0.1075  0.0752 -0.1166
  607BOLB   C1B14553  20.240  31.441  16.589 -0.0830  0.1916 -0.0904
  607BOLB   C2B14554  19.825  31.434  16.349 -0.1493 -0.0675  0.0719
  607BOLB   C3B14555  19.460  31.177  16.401  0.0718 -0.2225 -0.0913
  607BOLB   C4B14556  19.089  30.976  16.492 -0.0541 -0.1022  0.1010
  607BOLB   NC214557  17.912  30.986  14.431 -0.2908  0.0056  0.0967
  607BOLB   PO214558  17.976  31.372  14.546 -0.1324 -0.0087 -0.1028
  607BOLB   GL314559  18.275  31.212  14.860 -0.1275 -0.0428  0.0167
  607BOLB   GL414560  18.150  31.533  15.006  0.1204 -0.1093  0.2352
  607BOLB   C1C14561  18.709  31.399  14.920 -0.1191  0.0418 -0.1629
  607BOLB   C2C14562  18.785  31.556  15.294 -0.2397  0.0507  0.0262
  607BOLB   C3C14563  18.969  31.968  15.419 -0.1576  0.4123  0.0576
  607BOLB   C4C14564  19.202  32.085  15.832  0.2081 -0.2696  0.3165
  607BOLB   C1D14565  17.982  31.884  15.327 -0.0714  0.0079 -0.0209
  607BOLB   C2D14566  18.288  31.966  15.661 -0.0243 -0.1416  0.1943
  607BOLB   C3D14567  18.602  31.783  15.756 -0.0776  0.3892 -0.3251
  607BOLB   C4D14568  19.027  31.610  15.960 -0.2427 -0.2062  0.1782
  608BOLB   NC114569  24.528  36.736  18.990 -0.1982  0.3136 -0.1447
  608BOLB   PO114570  24.206  36.871  19.299 -0.2220  0.1490 -0.0648
  608BOLB   GL114571  24.029  37.215  19.197  0.0029 -0.0331  0.0396
  608BOLB   GL214572  23.870  37.192  18.988  0.1275 -0.1827 -0.0738
  608BOLB   C1A14573  23.793  37.638  19.218 -0.3056  0.0685 -0.0361
  608BOLB   C2A14574  23.561  38.068  19.187 -0.1525  0.0488 -0.0165
  608BOLB   C3A14575  23.259  38.193  18.984  0.4964 -0.0701  0.0159
  608BOLB   C4A14576  23.154  38.440  18.746 -0.0370 -0.4017  0.0425
  608BOLB   C1B14577  23.495  37.427  18.834  0.1170  0.2587  0.1259
  608BOLB   C2B14578  23.289  37.733  18.877  0.0357  0.0191  0.0066
  608BOLB   C3B14579  23.112  37.929  18.624  0.2516 -0.2724  0.1320
  608BOLB   C4B14580  22.979  38.117  18.320  0.0515 -0.2277 -0.0033
  608BOLB   NC214581  23.274  41.424  18.342  0.1051 -0.0027  0.3582
  608BOLB   PO214582  23.359  41.065  18.182 -0.2357 -0.4276  0.2454
  608BOLB   GL314583  23.374  40.787  18.471  0.3897  0.0278 -0.0700
  608BOLB   GL414584  23.612  40.646  18.562 -0.1006  0.0605 -0.0631
  608BOLB   C1C14585  23.215  40.329  18.477  0.0496  0.1155 -0.1660
  608BOLB   C2C14586  23.025  39.875  18.690 -0.3232 -0.1859  0.0736
  608BOLB   C3C14587  23.181  39.468  18.762  0.2519 -0.0866  0.1267
  608BOLB   C4C14588  23.096  38.929  18.759  0.0826  0.2606  0.2477
  608BOLB   C1D14589  23.840  40.340  18.745 -0.1811  0.1642  0.1098
  608BOLB   C2D14590  24.092  40.262  19.170 -0.5081 -0.0050 -0.2104
  608BOLB   C3D14591  24.306  40.129  19.599 -0.0011 -0.4817  0.1168
  608BOLB   C4D14592  24.406  40.100  20.052 -0.2318 -0.0997 -0.2096
  609BOLB   NC114593  14.477  30.780  24.897 -0.0165  0.2714 -0.2130
  609BOLB   PO114594  14.607  31.083  24.951  0.1438  0.0655 -0.1351
  609BOLB   GL114595  15.003  30.874  24.883  0.2096  0.0958 -0.2547
  609BOLB   GL214596  15.201  30.715  25.208  0.3562  0.0561 -0.0234
  609BOLB   C1A14597  15.050  30.527  24.605 -0.0499 -0.0626 -0.0391
  609BOLB   C2A14598  14.919  30.407  24.306 -0.1225 -0.2522  0.1323
  609BOLB   C3A14599  14.918  30.052  23.978  0.0180  0.0334 -0.0516
  609BOLB   C4A14600  15.097  29.830  23.565  0.0286 -0.2068 -0.0916
  609BOLB   C1B14601  15.587  30.637  25.054  0.1748 -0.0672 -0.0430
  609BOLB   C2B14602  16.020  30.780  25.002  0.1230  0.0001 -0.1236
  609BOLB   C3B14603  16.306  30.565  24.872 -0.1369  0.2198  0.1026
  609BOLB   C4B14604  16.656  30.550  25.067 -0.1137 -0.0363  0.1134
  609BOLB   NC214605  12.903  29.162  23.227 -0.1302  0.1309 -0.2174
  609BOLB   PO214606  13.143  28.905  23.341 -0.1817  0.0476  0.0472
  609BOLB   GL314607  13.522  28.784  23.398  0.0187  0.1225 -0.0785
  609BOLB   GL414608  13.621  28.429  23.527 -0.0612 -0.0645  0.2653
  609BOLB   C1C14609  13.907  29.035  23.437 -0.2146  0.2211  0.2611
  609BOLB   C2C14610  14.284  29.069  23.144  0.0629 -0.0613 -0.1099
  609BOLB   C3C14611  14.674  29.258  23.293 -0.2602  0.3196 -0.1372
  609BOLB   C4C14612  15.054  29.517  23.285 -0.1516 -0.3433 -0.1639
  609BOLB   C1D14613  13.912  28.594  23.159  0.0978 -0.3249  0.2252
  609BOLB   C2D14614  14.338  28.616  22.895 -0.0677 -0.3107  0.1193
  609BOLB   C3D14615  14.678  28.263  22.786  0.1912 -0.2735 -0.1247
  609BOLB   C4D14616  14.924  27.929  22.798 -0.1448 -0.2356  0.1988
  610BOLB   NC114617  34.623  26.833  20.194  0.3553  0.0154 -0.3996
  610BOLB   PO114618  34.760  27.081  19.812 -0.3657 -0.2235  0.1317
  610BOLB   GL114619  35.245  27.093  19.720  0.0110 -0.1293 -0.1279
  610BOLB   GL214620  35.514  27.152  19.945 -0.1385 -0.0096 -0.2598
  610BOLB   C1A14621  35.515  26.801  19.563  0.4409  0.1520  0.1634
  610BOLB   C2A14622  35.854  26.533  19.532  0.2168  0.0955  0.1294
  610BOLB   C3A14623  35.924  26.239  19.336 -0.0306  0.2806  0.2508
  610BOLB   C4A14624  36.255  25.980  19.181  0.0394 -0.1828  0.0712
  610BOLB   C1B14625  35.866  26.950  19.821  0.0345  0.0721  0.0745
  610BOLB   C2B14626  36.241  26.820  19.583 -0.0382  0.0483  0.0151
  610BOLB   C3B14627  36.489  26.786  19.173  0.1732 -0.0511 -0.0563
  610BOLB   C4B14628  36.754  26.529  18.970  0.0684 -0.0284 -0.0842
  610BOLB   NC214629  38.863  25.097  18.616 -0.3401  0.0502  0.0431
  610BOLB   PO214630  38.734  24.912  18.892 -0.1414  0.0510  0.2699
  610BOLB   GL314631  38.322  25.018  18.939 -0.0581  0.2444  0.2574
  610BOLB   GL414632  38.260  25.064  19.321 -0.0805 -0.1997 -0.1814
  610BOLB   C1C14633  37.805  25.086  19.038  0.3824 -0.1926 -0.2269
  610BOLB   C2C14634  37.374  25.127  19.365  0.2364 -0.0767 -0.1539
  610BOLB   C3C14635  36.878  25.308  19.373  0.0970  0.0739  0.3947
  610BOLB   C4C14636  36.540  25.601  19.377 -0.0401  0.0301 -0.0925
  610BOLB   C1D14637  37.900  25.196  19.620  0.1702  0.0485 -0.1014
  610BOLB   C2D14638  37.589  25.366  19.744 -0.5268  0.2679 -0.0265
  610BOLB   C3D14639  37.218  25.517  19.669  0.0403  0.1770 -0.0980
  610BOLB   C4D14640  37.135  25.745  19.334 -0.1302  0.1881  0.0222
  611BOLB   NC114641  32.363  33.450   0.997 -0.0193  0.0455  0.1152
  611BOLB   PO114642  32.188  33.587   1.234 -0.0432  0.1237 -0.0513
  611BOLB   GL114643  32.157  33.790   1.653  0.0615  0.2310 -0.3369
  611BOLB   GL214644  32.435  33.877   1.543  0.0080 -0.1662 -0.1602
  611BOLB   C1A14645  32.271  33.959   2.084 -0.1016 -0.2588 -0.1936
  611BOLB   C2A14646  32.133  34.044   2.497 -0.3098 -0.1229 -0.0075
  611BOLB   C3A14647  32.349  34.004   2.955  0.0459  0.0637  0.2170
  611BOLB   C4A14648  32.633  33.928   3.183  0.0780 -0.1407  0.1649
  611BOLB   C1B14649  32.705  34.275   1.449  0.2264 -0.1043  0.2072
  611BOLB   C2B14650  32.971  34.632   1.404  0.3623  0.2175  0.1491
  611BOLB   C3B14651  33.019  35.000   1.654  0.0131  0.0493  0.0640
  611BOLB   C4B14652  33.258  35.215   1.900 -0.0173  0.1205  0.1916
  611BOLB   NC214653  32.707  34.050   5.449  0.0287 -0.2471 -0.1805
  611BOLB   PO214654  33.075  34.323   5.475 -0.0775  0.0624 -0.0416
  611BOLB   GL314655  33.014  34.276   5.097 -0.0614 -0.3061 -0.1161
  611BOLB   GL414656  33.219  34.057   5.054 -0.2106 -0.1986 -0.1176
  611BOLB   C1C14657  32.807  34.160   4.713 -0.1313  0.1428  0.4627
  611BOLB   C2C14658  32.869  34.071   4.361 -0.0050  0.0859  0.1091
  611BOLB   C3C14659  32.773  33.959   3.906  0.0393  0.3225 -0.0547
  611BOLB   C4C14660  32.577  33.859   3.538  0.0158 -0.2153  0.1678
  611BOLB   C1D14661  33.074  33.750   4.746 -0.0182  0.1801 -0.0716
  611BOLB   C2D14662  32.888  33.350   4.561  0.0874 -0.0357  0.3475
  611BOLB   C3D14663  32.660  33.005   4.438  0.2754 -0.0941 -0.1469
  611BOLB   C4D14664  32.609  32.704   4.348 -0.1829 -0.3594 -0.0495
  612BOLB   NC114665  27.684  26.933  14.212  0.1119 -0.2484  0.1296
  612BOLB   PO114666  27.330  27.197  14.036  0.1061 -0.0492  0.0698
  612BOLB   GL114667  27.432  27.308  13.586 -0.2543  0.0949  0.0444
  612BOLB   GL214668  27.711  27.522  13.429  0.0337 -0.0343  0.0696
  612BOLB   C1A14669  27.215  27.095  13.178 -0.3435 -0.1071  0.0599
  612BOLB   C2A14670  26.882  27.053  13.092  0.0403  0.1269 -0.0141
  612BOLB   C3A14671  26.648  26.938  12.727  0.2615 -0.1918  0.1916
  612BOLB   C4A14672  26.377  26.795  12.614  0.1740 -0.2199  0.1256
  612BOLB   C1B14673  27.620  27.493  12.920 -0.2969  0.0077  0.1919
  612BOLB   C2B14674  27.581  27.270  12.473  0.0590  0.0654 -0.0455
  612BOLB   C3B14675  27.594  26.906  12.252  0.2341  0.1591  0.0453
  612BOLB   C4B14676  27.878  26.505  12.305 -0.0694 -0.0548  0.1089
  612BOLB   NC214677  26.055  25.689  10.466  0.1126  0.2112 -0.1251
  612BOLB   PO214678  26.159  25.409  10.791  0.0180  0.4038  0.1448
  612BOLB   GL314679  26.327  25.647  11.042  0.1063 -0.0862 -0.1790
  612BOLB   GL414680  26.285  25.932  10.829  0.2877  0.1793 -0.3122
  612BOLB   C1C14681  26.300  25.701  11.395 -0.1809 -0.0916  0.0979
  612BOLB   C2C14682  26.093  26.089  11.550 -0.0152  0.2576 -0.0786
  612BOLB   C3C14683  26.129  26.552  11.907 -0.2107 -0.2924  0.1581
  612BOLB   C4C14684  26.085  26.788  12.297  0.0251 -0.3508 -0.1567
  612BOLB   C1D14685  26.510  26.114  11.170  0.0351  0.1115 -0.0891
  612BOLB   C2D14686  26.510  26.396  11.624 -0.0058 -0.4372  0.2935
  612BOLB   C3D14687  26.624  26.549  11.940 -0.3085 -0.2639 -0.2820
  612BOLB   C4D14688  26.733  26.886  12.102 -0.1731 -0.3505  0.0219
  613BOLB   NC114689  27.740  23.822  15.983  0.1919 -0.1896  0.1169
  613BOLB   PO114690  27.371  24.022  15.873 -0.2182 -0.1750 -0.0182
  613BOLB   GL114691  27.014  23.811  15.735  0.4387 -0.0000 -0.0881
  613BOLB   GL214692  26.689  23.980  15.551  0.1106 -0.1035  0.1542
  613BOLB   C1A14693  26.629  23.461  15.642 -0.0916  0.0063  0.0690
  613BOLB   C2A14694  26.604  23.212  15.284  0.0445  0.2299  0.0740
  613BOLB   C3A14695  26.690  22.748  15.232  0.1284  0.0422 -0.4857
  613BOLB   C4A14696  26.643  22.418  15.000 -0.1746 -0.1904 -0.0586
  613BOLB   C1B14697  26.644  23.711  15.204 -0.0733  0.0134  0.2892
  613BOLB   C2B14698  26.634  23.490  14.860 -0.0206  0.1002  0.0014
  613BOLB   C3B14699  26.804  23.150  14.806  0.2250 -0.0439 -0.1101
  613BOLB   C4B14700  26.912  22.781  14.826 -0.0070 -0.0453  0.3191
  613BOLB   NC214701  26.026  20.728  13.183 -0.2333 -0.2978  0.2111
  613BOLB   PO214702  26.045  21.191  13.068 -0.0370  0.2521  0.0606
  613BOLB   GL314703  26.246  21.607  13.293  0.2280  0.3058 -0.1052
  613BOLB   GL414704  26.374  21.959  13.106 -0.2068 -0.2430 -0.1371
  613BOLB   C1C14705  26.512  21.778  13.598  0.1488 -0.2933  0.4409
  613BOLB   C2C14706  26.483  21.974  13.882 -0.0133  0.4214  0.0092
  613BOLB   C3C14707  26.621  22.187  14.201  0.0154 -0.0031 -0.1393
  613BOLB   C4C14708  26.672  22.305  14.528  0.1130 -0.0581  0.2008
  613BOLB   C1D14709  26.620  22.228  13.391  0.0685  0.1372  0.1021
  613BOLB   C2D14710  26.846  22.337  13.678 -0.0899 -0.0277  0.1081
  613BOLB   C3D14711  27.239  22.571  13.789  0.0047  0.1566 -0.0694
  613BOLB   C4D14712  27.567  22.752  14.039  0.0885 -0.1808 -0.0440
  614BOLB   NC114713  23.468  31.988  14.754  0.1876 -0.2340 -0.4538
  614BOLB   PO114714  23.694  32.322  14.909 -0.1272 -0.0849  0.0666
  614BOLB   GL114715  23.595  32.402  14.466 -0.0539 -0.3580  0.0193
  614BOLB   GL214716  23.376  32.344  14.355 -0.1734 -0.3917 -0.0626
  614BOLB   C1A14717  23.642  32.701  14.031 -0.0578 -0.2049  0.2654
  614BOLB   C2A14718  23.655  33.140  13.828  0.1177  0.0547  0.1047
  614BOLB   C3A14719  23.608  33.449  13.594 -0.0084  0.0452  0.1944
  614BOLB   C4A14720  23.492  33.736  13.291 -0.5037  0.1535  0.2448
  614BOLB   C1B14721  23.102  32.648  14.155 -0.0515 -0.2401 -0.1639
  614BOLB   C2B14722  22.793  32.727  13.903  0.2858 -0.1741 -0.1708
  614BOLB   C3B14723  22.480  32.966  13.674 -0.0461  0.1770 -0.1226
  614BOLB   C4B14724  22.487  33.331  13.357 -0.3454 -0.0789  0.3014
  614BOLB   NC214725  22.257  35.315  11.836 -0.0067 -0.0094 -0.1634
  614BOLB   PO214726  22.188  35.535  12.223 -0.0639  0.0950  0.1983
  614BOLB   GL314727  22.364  35.310  12.530 -0.2529  0.3172 -0.0344
  614BOLB   GL414728  22.344  35.344  12.823 -0.2328 -0.2012 -0.0839
  614BOLB   C1C14729  22.536  34.869  12.641 -0.2182 -0.0593 -0.4992
  614BOLB   C2C14730  22.646  34.526  12.723 -0.2616  0.2676 -0.0820
  614BOLB   C3C14731  23.067  34.291  12.824  0.2987 -0.0617 -0.2948
  614BOLB   C4C14732  23.215  33.938  13.031  0.1645 -0.2420 -0.0442
  614BOLB   C1D14733  22.519  35.167  13.099 -0.0837  0.2475  0.2674
  614BOLB   C2D14734  22.703  35.053  13.470  0.1098  0.0384 -0.0010
  614BOLB   C3D14735  22.906  34.688  13.616 -0.1602 -0.0562  0.0443
  614BOLB   C4D14736  22.777  34.406  13.731 -0.0575  0.1223 -0.0141
  615BOLB   NC114737  32.683  26.892  15.531  0.0764 -0.2116 -0.0675
  615BOLB   PO114738  32.500  26.540  15.555 -0.0577  0.1046  0.0596
  615BOLB   GL114739  32.678  26.242  15.247  0.1208 -0.0336  0.1992
  615BOLB   GL214740  32.852  26.371  14.995  0.1786 -0.2116 -0.2250
  615BOLB   C1A14741  32.933  25.860  15.211  0.2166 -0.3040  0.0352
  615BOLB   C2A14742  33.250  25.625  15.243  0.3766 -0.0489  0.0651
  615BOLB   C3A14743  33.630  25.630  15.135 -0.0232 -0.0324  0.3283
  615BOLB   C4A14744  34.019  25.348  15.028  0.1378 -0.2079  0.0026
  615BOLB   C1B14745  33.214  26.372  14.931  0.1358  0.0734 -0.0602
  615BOLB   C2B14746  33.552  26.151  15.107  0.0611 -0.3730 -0.1643
  615BOLB   C3B14747  33.941  25.975  15.055 -0.0187  0.3167  0.0088
  615BOLB   C4B14748  34.335  25.734  15.150 -0.1778  0.2343 -0.1213
  615BOLB   NC214749  34.768  24.521  12.508 -0.0347 -0.0201 -0.0899
  615BOLB   PO214750  34.402  24.815  12.544  0.0119  0.3558 -0.2242
  615BOLB   GL314751  34.533  24.963  12.918 -0.0568 -0.1024 -0.0325
  615BOLB   GL414752  34.203  24.844  13.085 -0.2523 -0.1329  0.3342
  615BOLB   C1C14753  34.518  24.942  13.388 -0.0947  0.4012  0.1129
  615BOLB   C2C14754  34.577  24.957  13.802  0.3742  0.3261 -0.0996
  615BOLB   C3C14755  34.483  25.070  14.196 -0.1416  0.1589 -0.0722
  615BOLB   C4C14756  34.234  25.215  14.603  0.3337  0.3498  0.0968
  615BOLB   C1D14757  34.185  25.260  13.154 -0.2735  0.1216 -0.0981
  615BOLB   C2D14758  33.955  25.594  13.491 -0.1958 -0.0664 -0.0776
  615BOLB   C3D14759  33.608  25.701  13.680 -0.1537 -0.2192  0.0318
  615BOLB   C4D14760  33.309  26.087  13.749 -0.2842  0.0505  0.1920
  616BOLB   NC114761  34.612  33.513  19.275 -0.2948 -0.1200 -0.2874
  616BOLB   PO114762  34.838  33.732  19.601 -0.0370  0.1366 -0.1641
  616BOLB   GL114763  35.275  33.947  19.438  0.0650  0.1498  0.0415
  616BOLB   GL214764  35.247  34.103  19.018 -0.3629 -0.1359 -0.3168
  616BOLB   C1A14765  35.700  34.028  19.203  0.1092 -0.0465 -0.0877
  616BOLB   C2A14766  36.032  34.261  19.087  0.3011 -0.0043 -0.1592
  616BOLB   C3A14767  36.211  34.483  19.126 -0.0480 -0.0444 -0.0127
  616BOLB   C4A14768  36.341  34.858  18.920  0.0310  0.2943 -0.0812
  616BOLB   C1B14769  35.558  34.514  19.229  0.1283  0.0330  0.3736
  616BOLB   C2B14770  35.899  34.700  19.396  0.0197  0.3801 -0.3232
  616BOLB   C3B14771  36.093  35.138  19.386  0.0116 -0.0517  0.0005
  616BOLB   C4B14772  36.266  35.384  19.695  0.2802 -0.0241 -0.1515
  616BOLB   NC214773  37.299  36.884  17.978  0.0689  0.0283 -0.1031
  616BOLB   PO214774  37.284  36.619  17.584  0.3460  0.2031 -0.1093
  616BOLB   GL314775  37.336  36.259  17.784  0.1098  0.1819 -0.0547
  616BOLB   GL414776  37.313  36.001  17.638  0.0470  0.1898  0.0614
  616BOLB   C1C14777  36.909  36.151  18.024  0.2900  0.1570 -0.1813
  616BOLB   C2C14778  36.726  35.874  18.347 -0.2474 -0.0455 -0.0459
  616BOLB   C3C14779  36.474  35.521  18.463 -0.0999  0.1836  0.2698
  616BOLB   C4C14780  36.330  35.146  18.567  0.0455 -0.0393  0.1462
  616BOLB   C1D14781  37.056  35.712  17.856 -0.1928 -0.2521 -0.0036
  616BOLB   C2D14782  36.672  35.410  17.933  0.2919 -0.3120 -0.4406
  616BOLB   C3D14783  36.385  35.043  18.037  0.1655 -0.2381  0.3533
  616BOLB   C4D14784  36.330  34.632  18.125 -0.1234 -0.0090 -0.2799
  617BOLB   NC114785  26.648  37.052  25.130 -0.0557 -0.0107  0.2334
  617BOLB   PO114786  26.845  36.699  25.413  0.1212 -0.0774 -0.2308
  617BOLB   GL114787  26.615  37.014  25.663 -0.0846 -0.0249  0.0629
  617BOLB   GL214788  26.258  37.149  25.510 -0.1266 -0.0332 -0.2016
  617BOLB   C1A14789  26.476  37.496  25.896  0.0914  0.2743 -0.2899
  617BOLB   C2A14790  26.327  37.927  25.935  0.1058 -0.1438 -0.0255
  617BOLB   C3A14791  26.480  38.345  26.083  0.0456  0.2553  0.0453
  617BOLB   C4A14792  26.431  38.559  26.430  0.1397  0.1484 -0.2855
  617BOLB   C1B14793  26.028  37.261  25.872  0.4083 -0.0458  0.1016
  617BOLB   C2B14794  25.949  37.600  26.078  0.0627 -0.1628  0.0904
  617BOLB   C3B14795  25.555  37.847  26.161  0.0112  0.2413 -0.1653
  617BOLB   C4B14796  25.216  38.032  26.259 -0.0374  0.3696  0.1015
  617BOLB   NC214797  25.970  40.620   0.528 -0.1984  0.2408 -0.0769
  617BOLB   PO214798  26.406  40.803   0.449 -0.0129  0.0116 -0.3010
  617BOLB   GL314799  26.402  40.303   0.493  0.3589 -0.1083  0.0989
  617BOLB   GL414800  26.558  40.227   0.621  0.0287 -0.1755  0.2138
  617BOLB   C1C14801  26.367  40.076   0.146 -0.2748 -0.2453  0.2195
  617BOLB   C2C14802  26.388  39.662   0.012  0.1042 -0.1405 -0.4165
  617BOLB   C3C14803  26.378  39.232  26.821 -0.0969  0.2236  0.0459
  617BOLB   C4C14804  26.169  38.910  26.482 -0.0135 -0.1616  0.1451
  617BOLB   C1D14805  26.528  39.799   0.507 -0.2278  0.3269 -0.0243
  617BOLB   C2D14806  26.974  39.579   0.420 -0.1033 -0.1265  0.0493
  617BOLB   C3D14807  27.100  39.053   0.346  0.2297  0.0156  0.0510
  617BOLB   C4D14808  27.240  38.639   0.189  0.1239 -0.0348 -0.1290
  618BOLB   NC114809  32.276  23.944  26.016 -0.0485  0.1768  0.1395
  618BOLB   PO114810  31.842  23.915  26.189  0.0923  0.0710 -0.0815
  618BOLB   GL114811  32.119  23.645  26.371 -0.1591 -0.0293 -0.1059
  618BOLB   GL214812  32.087  23.293  26.649  0.1746  0.2516 -0.1537
  618BOLB   C1A14813  32.566  23.292  26.545  0.0121 -0.0726  0.4348
  618BOLB   C2A14814  32.998  23.129  26.628 -0.2392  0.0014  0.2136
  618BOLB   C3A14815  33.386  22.961  26.811  0.4911 -0.1178 -0.0045
  618BOLB   C4A14816  33.413  22.816   0.275  0.0809 -0.1218  0.0151
  618BOLB   C1B14817  32.082  22.909  26.672 -0.3362 -0.0232 -0.0235
  618BOLB   C2B14818  32.312  22.548  26.620 -0.3651  0.0213 -0.2484
  618BOLB   C3B14819  32.625  22.228  26.392 -0.0163 -0.0267 -0.0304
  618BOLB   C4B14820  32.699  22.016  26.689  0.0370 -0.1139 -0.1140
  618BOLB   NC214821  33.694  20.845   1.918  0.0067  0.0383 -0.0157
  618BOLB   PO214822  33.724  20.910   1.476  0.1300  0.0707 -0.0329
  618BOLB   GL314823  33.755  21.310   1.250 -0.0354  0.0173  0.0645
  618BOLB   GL414824  33.490  21.298   1.037  0.0927  0.1481 -0.2145
  618BOLB   C1C14825  33.802  21.704   1.099 -0.2305 -0.0425  0.0593
  618BOLB   C2C14826  33.482  21.925   0.795 -0.1004  0.0461 -0.0666
  618BOLB   C3C14827  33.184  22.040   0.584 -0.2299 -0.2104  0.0517
  618BOLB   C4C14828  33.164  22.368   0.332 -0.0020 -0.1269 -0.0007
  618BOLB   C1D14829  33.696  21.422   0.665 -0.0936 -0.1476  0.2697
  618BOLB   C2D14830  33.497  21.630   0.359 -0.2477 -0.1137  0.2098
  618BOLB   C3D14831  33.172  21.695   0.177 -0.4057  0.0267  0.0212
  618BOLB   C4D14832  32.823  21.983   0.228  0.0753 -0.1716  0.2012
  619BOLB   NC114833  34.717  25.043  21.745 -0.1248 -0.1801 -0.2319
  619BOLB   PO114834  34.480  24.615  21.737  0.0325 -0.0210  0.2257
  619BOLB   GL114835  34.970  24.599  21.769  0.1034 -0.0520 -0.0499
  619BOLB   GL214836  34.812  24.315  21.875 -0.0131 -0.1596 -0.3419
  619BOLB   C1A14837  35.385  24.438  21.850 -0.3524 -0.0442 -0.0008
  619BOLB   C2A14838  35.719  24.199  21.859 -0.0955 -0.0588  0.4338
  619BOLB   C3A14839  35.883  23.870  21.951 -0.3682  0.0031 -0.0043
  619BOLB   C4A14840  36.231  23.617  21.856 -0.1285 -0.0842 -0.1538
  619BOLB   C1B14841  35.151  23.985  22.023  0.2556  0.2131 -0.3513
  619BOLB   C2B14842  35.447  23.940  22.417  0.0564  0.4128  0.3345
  619BOLB   C3B14843  35.778  24.125  22.688 -0.2979 -0.2778 -0.1759
  619BOLB   C4B14844  36.014  24.466  22.782 -0.0899  0.5542  0.0297
  619BOLB   NC214845  38.025  22.485  19.981  0.0272  0.1915  0.1140
  619BOLB   PO214846  37.720  22.654  20.389 -0.0044 -0.2283 -0.2831
  619BOLB   GL314847  37.296  22.740  20.614  0.1029 -0.2224 -0.1509
  619BOLB   GL414848  37.221  22.554  20.773 -0.4087 -0.1507 -0.0173
  619BOLB   C1C14849  37.102  23.055  20.786 -0.0432 -0.0212  0.2053
  619BOLB   C2C14850  36.876  23.060  21.251 -0.0267 -0.0487  0.0217
  619BOLB   C3C14851  36.840  23.455  21.520 -0.1202  0.1716 -0.0960
  619BOLB   C4C14852  36.589  23.550  21.845 -0.0900 -0.1384  0.0363
  619BOLB   C1D14853  36.891  22.619  21.031 -0.0483 -0.1236  0.1847
  619BOLB   C2D14854  36.567  22.548  21.423  0.4862  0.1266  0.0936
  619BOLB   C3D14855  36.464  22.515  21.865  0.2458  0.1481 -0.0989
  619BOLB   C4D14856  36.312  22.825  22.184  0.3060 -0.1210 -0.0918
  620BOLB   NC114857  13.346  23.094  21.452  0.0009  0.0784  0.0834
  620BOLB   PO114858  13.821  23.028  21.503 -0.1331  0.3885  0.0093
  620BOLB   GL114859  14.191  23.095  21.634 -0.0858 -0.2843  0.0646
  620BOLB   GL214860  14.402  22.846  21.475 -0.1360 -0.2267 -0.2472
  620BOLB   C1A14861  14.570  23.226  21.853  0.1853 -0.0531 -0.0222
  620BOLB   C2A14862  14.956  23.219  21.746 -0.0370 -0.0895  0.0865
  620BOLB   C3A14863  15.393  23.322  21.622 -0.1453 -0.0765  0.0895
  620BOLB   C4A14864  15.530  23.578  21.208 -0.1663  0.0037  0.0121
  620BOLB   C1B14865  14.805  22.738  21.438  0.3733  0.1457  0.1085
  620BOLB   C2B14866  15.223  22.864  21.494 -0.4750 -0.0891  0.2014
  620BOLB   C3B14867  15.686  22.974  21.384  0.3027  0.0097  0.1776
  620BOLB   C4B14868  15.976  23.223  21.446  0.1343  0.0900 -0.2256
  620BOLB   NC214869  13.865  23.843  19.406  0.1144  0.1251  0.0193
  620BOLB   PO214870  14.063  24.074  19.738  0.0842  0.0726 -0.2623
  620BOLB   GL314871  14.337  24.178  19.929  0.0031 -0.2307  0.1695
  620BOLB   GL414872  14.388  24.541  19.941 -0.0467  0.0384 -0.1248
  620BOLB   C1C14873  14.669  24.091  20.122  0.2518 -0.1576  0.2551
  620BOLB   C2C14874  15.015  24.166  20.402 -0.4075 -0.1600 -0.2309
  620BOLB   C3C14875  15.055  24.022  20.736  0.2686  0.0381  0.1030
  620BOLB   C4C14876  15.439  23.984  21.067  0.1715  0.1090  0.0846
  620BOLB   C1D14877  14.662  24.385  19.638  0.0009  0.0336 -0.1643
  620BOLB   C2D14878  15.053  24.353  19.820 -0.2009  0.1630  0.1517
  620BOLB   C3D14879  15.482  24.136  19.942 -0.3518 -0.1161 -0.0797
  620BOLB   C4D14880  15.934  23.842  19.938  0.1041 -0.1582 -0.0355
  621BOLB   NC114881  23.841  26.442  15.036  0.2967 -0.1630 -0.1626
  621BOLB   PO114882  23.763  26.821  14.811  0.0388  0.3758 -0.0025
  621BOLB   GL114883  23.648  26.557  14.586 -0.0709  0.4934 -0.0095
  621BOLB   GL214884  23.797  26.334  14.511  0.1801 -0.0081 -0.2280
  621BOLB   C1A14885  23.196  26.476  14.317 -0.2609 -0.2030  0.2329
  621BOLB   C2A14886  23.058  26.308  13.950  0.1156 -0.4138 -0.1608
  621BOLB   C3A14887  22.645  26.419  13.769 -0.2967  0.2575  0.1433
  621BOLB   C4A14888  22.307  26.308  13.683 -0.2712 -0.1892  0.1307
  621BOLB   C1B14889  23.946  25.997  14.502  0.0032 -0.0710 -0.2478
  621BOLB   C2B14890  24.193  25.714  14.103  0.0678  0.0389  0.0288
  621BOLB   C3B14891  24.151  25.470  13.624 -0.1884  0.2406 -0.0218
  621BOLB   C4B14892  24.068  25.236  13.275  0.0517 -0.0133  0.0923
  621BOLB   NC214893  21.083  26.125  11.786 -0.0679 -0.0093  0.3713
  621BOLB   PO214894  20.882  26.447  12.018 -0.2822  0.4461  0.0756
  621BOLB   GL314895  21.184  26.507  12.252 -0.2646 -0.2292 -0.1876
  621BOLB   GL414896  20.994  26.761  12.418 -0.2113  0.1722 -0.2553
  621BOLB   C1C14897  21.564  26.746  12.282 -0.3037  0.1169 -0.3390
  621BOLB   C2C14898  21.779  26.830  12.715 -0.0412 -0.3004 -0.1026
  621BOLB   C3C14899  21.791  26.543  13.159  0.0671  0.0693 -0.0709
  621BOLB   C4C14900  22.138  26.386  13.286 -0.1056 -0.0714 -0.1244
  621BOLB   C1D14901  21.231  27.153  12.371  0.1220 -0.1161 -0.0397
  621BOLB   C2D14902  21.211  27.629  12.516  0.1050 -0.1153 -0.0262
  621BOLB   C3D14903  21.364  27.830  12.839  0.2329  0.1420 -0.0593
  621BOLB   C4D14904  21.418  28.116  13.075 -0.2670 -0.0748  0.3160
  622BOLB   NC114905  23.004  34.563  26.212 -0.0438  0.3820 -0.0491
  622BOLB   PO114906  22.706  34.513  26.438  0.1759  0.1499  0.1153
  622BOLB   GL114907  22.370  34.492  26.848 -0.0866 -0.0350  0.0289
  622BOLB   GL214908  22.358  34.778  26.801  0.2259 -0.2239 -0.0735
  622BOLB   C1A14909  22.110  34.468   0.269  0.1541  0.1063  0.1064
  622BOLB   C2A14910  21.669  34.587   0.447  0.1221  0.1658 -0.0727
  622BOLB   C3A14911  21.381  34.858   0.644  0.4764  0.1464  0.1213
  622BOLB   C4A14912  21.335  34.957   1.048  0.1099  0.3395  0.1011
  622BOLB   C1B14913  22.233  35.154   0.105 -0.3937  0.1563  0.1127
  622BOLB   C2B14914  22.079  35.272   0.475 -0.0751 -0.0438  0.0151
  622BOLB   C3B14915  21.837  35.198   0.734  0.0061 -0.0160 -0.2148
  622BOLB   C4B14916  21.802  35.207   1.170 -0.1125  0.1264 -0.0489
  622BOLB   NC214917  20.538  36.327   2.841 -0.2258 -0.1219  0.1134
  622BOLB   PO214918  20.457  36.590   2.432 -0.0626 -0.3225  0.1708
  622BOLB   GL314919  20.804  36.343   2.221 -0.0955  0.2399 -0.1091
  622BOLB   GL414920  20.933  36.540   2.395  0.2161 -0.2927 -0.0275
  622BOLB   C1C14921  20.756  36.005   1.991 -0.0980  0.0732  0.1767
  622BOLB   C2C14922  20.880  35.903   1.579  0.0447 -0.2388 -0.0278
  622BOLB   C3C14923  21.170  35.645   1.379 -0.0604  0.2330 -0.0570
  622BOLB   C4C14924  21.328  35.308   1.297 -0.0986 -0.2010 -0.0641
  622BOLB   C1D14925  21.284  36.355   2.575  0.1925  0.0881 -0.0351
  622BOLB   C2D14926  21.683  36.318   2.864 -0.1945  0.2272 -0.1315
  622BOLB   C3D14927  22.031  36.155   3.141 -0.2902 -0.2151  0.0722
  622BOLB   C4D14928  22.005  35.883   3.459  0.2605  0.1411  0.1595
  623BOLB   NC114929  27.268  21.440  22.643 -0.1630 -0.2097 -0.2396
  623BOLB   PO114930  27.521  21.246  22.957 -0.2966 -0.2433 -0.1864
  623BOLB   GL114931  27.696  20.930  22.990 -0.0217  0.0684 -0.4159
  623BOLB   GL214932  27.982  20.968  22.780  0.2414 -0.1705 -0.1764
  623BOLB   C1A14933  27.902  20.565  23.291  0.3666 -0.2878  0.0419
  623BOLB   C2A14934  28.184  20.281  23.371  0.2019 -0.0003 -0.1383
  623BOLB   C3A14935  28.442  19.935  23.300  0.2871  0.0254 -0.0205
  623BOLB   C4A14936  28.442  19.529  23.432 -0.2967 -0.0552 -0.0062
  623BOLB   C1B14937  27.880  20.475  22.804  0.3219 -0.0348 -0.0330
  623BOLB   C2B14938  28.151  20.088  22.917  0.1883  0.2877  0.2882
  623BOLB   C3B14939  28.064  19.701  23.114 -0.0374 -0.1015 -0.1035
  623BOLB   C4B14940  27.835  19.477  23.446 -0.0022 -0.0392 -0.2595
  623BOLB   NC214941  28.876  17.395  23.393 -0.4484 -0.3998  0.1624
  623BOLB   PO214942  28.580  17.104  23.214  0.1386  0.2625  0.0379
  623BOLB   GL314943  28.357  17.425  23.523  0.2922  0.0576  0.1230
  623BOLB   GL414944  27.999  17.401  23.770  0.2215  0.0594  0.0580
  623BOLB   C1C14945  28.413  17.893  23.570 -0.0381  0.1922 -0.4786
  623BOLB   C2C14946  28.187  18.376  23.431  0.2957  0.0657  0.4347
  623BOLB   C3C14947  28.195  18.721  23.532  0.1015  0.2395 -0.0927
  623BOLB   C4C14948  28.196  19.137  23.390 -0.4670  0.0743 -0.1308
  623BOLB   C1D14949  27.957  17.901  23.717  0.0717 -0.0013  0.2313
  623BOLB   C2D14950  27.666  18.064  23.495  0.1310 -0.0238 -0.2584
  623BOLB   C3D14951  27.206  18.092  23.557  0.0492  0.0877 -0.0313
  623BOLB   C4D14952  26.946  18.472  23.652 -0.0152  0.0674 -0.2715
  624BOLB   NC114953  35.115  34.321  20.667  0.1456  0.0281  0.1613
  624BOLB   PO114954  35.012  34.427  20.208 -0.0650  0.4502 -0.2448
  624BOLB   GL114955  35.446  34.556  20.382  0.0650  0.0969 -0.0319
  624BOLB   GL214956  35.682  34.413  20.562 -0.1335 -0.0469  0.0273
  624BOLB   C1A14957  35.661  34.922  20.592 -0.1342  0.1181 -0.1568
  624BOLB   C2A14958  35.967  35.241  20.663  0.0704 -0.2015  0.2358
  624BOLB   C3A14959  36.014  35.660  20.771  0.0542  0.3030  0.1293
  624BOLB   C4A14960  36.122  36.030  20.487  0.4510 -0.0525  0.2351
  624BOLB   C1B14961  36.043  34.655  20.449 -0.0306  0.0247  0.3054
  624BOLB   C2B14962  36.503  34.886  20.273 -0.2793  0.1241  0.3161
  624BOLB   C3B14963  37.014  35.052  20.194 -0.0876  0.2379 -0.0334
  624BOLB   C4B14964  37.489  35.126  20.104 -0.0035 -0.4528  0.1201
  624BOLB   NC214965  38.327  37.065  20.057  0.2775 -0.1207  0.3061
  624BOLB   PO214966  38.221  36.749  20.294 -0.2834 -0.1029  0.1444
  624BOLB   GL314967  37.864  36.508  20.235 -0.3082 -0.1636 -0.1025
  624BOLB   GL414968  37.751  36.589  20.078 -0.1831 -0.1844  0.1681
  624BOLB   C1C14969  37.583  36.271  20.468  0.2474 -0.0094  0.1343
  624BOLB   C2C14970  37.124  36.327  20.548  0.2368  0.0862  0.2812
  624BOLB   C3C14971  36.796  36.313  20.544 -0.0385  0.2737  0.1046
  624BOLB   C4C14972  36.357  36.336  20.438 -0.0653  0.0503  0.0896
  624BOLB   C1D14973  37.492  36.772  19.851  0.7164 -0.0174  0.0496
  624BOLB   C2D14974  37.158  36.657  19.599 -0.0846  0.2545  0.0602
  624BOLB   C3D14975  36.774  36.556  19.746 -0.2073  0.1653 -0.1414
  624BOLB   C4D14976  36.398  36.705  19.987  0.1359  0.0940 -0.0304
  625BOLB   NC114977  23.633  26.784  15.816  0.1158 -0.0836  0.2186
  625BOLB   PO114978  23.530  26.475  15.435  0.1519  0.4656  0.0342
  625BOLB   GL114979  23.431  26.160  15.062 -0.1480  0.0459 -0.1902
  625BOLB   GL214980  23.031  26.095  14.983 -0.3901  0.1933  0.2962
  625BOLB   C1A14981  23.417  26.061  14.591 -0.3251  0.2779 -0.0570
  625BOLB   C2A14982  23.278  25.969  14.269  0.0676  0.0644 -0.1708
  625BOLB   C3A14983  23.366  25.981  13.759 -0.1532  0.1575  0.0496
  625BOLB   C4A14984  23.364  25.963  13.290  0.2490 -0.2117  0.2144
  625BOLB   C1B14985  22.857  26.051  14.489 -0.6451 -0.0154  0.0034
  625BOLB   C2B14986  22.907  25.832  14.052  0.4337 -0.1215  0.3172
  625BOLB   C3B14987  22.860  25.418  13.856  0.1113 -0.0975  0.1539
  625BOLB   C4B14988  23.157  25.066  13.951  0.1739 -0.3769 -0.3459
  625BOLB   NC214989  22.093  24.525  12.227 -0.0979  0.0063 -0.1899
  625BOLB   PO214990  22.517  24.581  12.023 -0.1691 -0.0501 -0.0219
  625BOLB   GL314991  22.499  24.786  12.380 -0.1401  0.1956 -0.0305
  625BOLB   GL414992  22.380  24.551  12.655 -0.0097  0.2686  0.0165
  625BOLB   C1C14993  22.716  25.197  12.530 -0.0005 -0.0010 -0.0625
  625BOLB   C2C14994  23.119  25.210  12.456  0.1197  0.3400  0.1156
  625BOLB   C3C14995  23.465  25.441  12.566  0.0119 -0.3921  0.0989
  625BOLB   C4C14996  23.496  25.869  12.845 -0.4057  0.1017 -0.0284
  625BOLB   C1D14997  22.139  24.788  12.997 -0.2964  0.0334 -0.2234
  625BOLB   C2D14998  22.154  25.063  13.362 -0.2090  0.1055  0.1296
  625BOLB   C3D14999  22.424  25.363  13.569  0.1901 -0.1966 -0.2518
  625BOLB   C4D15000  22.523  25.856  13.681  0.0723 -0.0933 -0.2510
  626BOLB   NC115001  28.172  35.167   1.167  0.2547  0.0881 -0.2728
  626BOLB   PO115002  28.628  35.224   1.224 -0.1246  0.0120  0.0365
  626BOLB   GL115003  28.791  35.225   1.676  0.2219  0.3334  0.1466
  626BOLB   GL215004  29.028  35.364   1.640  0.2005 -0.0185  0.0198
  626BOLB   C1A15005  29.002  35.164   2.101 -0.1011 -0.1373  0.2817
  626BOLB   C2A15006  29.079  35.380   2.560 -0.1970 -0.1906  0.2222
  626BOLB   C3A15007  29.288  35.370   2.965  0.0356 -0.3601  0.0810
  626BOLB   C4A15008  29.326  35.686   3.252 -0.0055  0.1663 -0.1062
  626BOLB   C1B15009  29.232  35.586   1.964 -0.0673 -0.0567  0.0580
  626BOLB   C2B15010  29.460  35.830   2.367 -0.2297  0.0396 -0.4512
  626BOLB   C3B15011  29.198  35.956   2.676 -0.3146  0.0122  0.1975
  626BOLB   C4B15012  28.721  36.110   2.618  0.0810  0.1124 -0.0658
  626BOLB   NC215013  30.333  36.249   4.857  0.1390 -0.0899 -0.1639
  626BOLB   PO215014  30.391  36.666   4.538  0.1164 -0.2323 -0.2780
  626BOLB   GL315015  30.375  36.327   4.316  0.0863 -0.1331  0.3417
  626BOLB   GL415016  29.981  36.250   4.354 -0.0159  0.2469 -0.0264
  626BOLB   C1C15017  30.356  35.885   4.307 -0.2961  0.0745 -0.0310
  626BOLB   C2C15018  30.028  35.667   4.411 -0.2079 -0.0967 -0.3795
  626BOLB   C3C15019  29.606  35.615   4.183  0.0928 -0.0249  0.0687
  626BOLB   C4C15020  29.415  35.645   3.696 -0.2722  0.0370  0.1678
  626BOLB   C1D15021  29.978  36.038   3.945  0.1370 -0.2559  0.1051
  626BOLB   C2D15022  29.886  35.716   3.815  0.3067  0.2257 -0.0704
  626BOLB   C3D15023  30.073  35.443   3.574  0.0173  0.3729  0.0772
  626BOLB   C4D15024  30.238  35.241   3.305 -0.0498 -0.1422 -0.0871
  627BOLB   NC115025  27.116  37.697  22.959 -0.2378 -0.0111  0.0553
  627BOLB   PO115026  26.572  37.835  22.874  0.0512 -0.1361 -0.2084
  627BOLB   GL115027  26.660  38.009  23.169 -0.2499  0.1590 -0.3075
  627BOLB   GL215028  26.330  38.174  23.148  0.2426 -0.2563  0.0670
  627BOLB   C1A15029  26.782  38.452  23.133  0.0340 -0.0056 -0.1477
  627BOLB   C2A15030  26.970  38.832  23.143 -0.1551  0.2709  0.3507
  627BOLB   C3A15031  26.927  39.143  22.858  0.3178  0.3707 -0.2039
  627BOLB   C4A15032  26.789  39.542  22.592 -0.1584  0.1092 -0.2930
  627BOLB   C1B15033  26.313  38.657  23.317  0.2248  0.2832 -0.0745
  627BOLB   C2B15034  26.595  39.077  23.325 -0.1125  0.0587 -0.1654
  627BOLB   C3B15035  26.534  39.481  23.177  0.1924  0.0532 -0.1223
  627BOLB   C4B15036  26.478  39.887  23.107 -0.0968  0.1511  0.1712
  627BOLB   NC215037  26.863  42.470  22.748  0.0735  0.1063 -0.4039
  627BOLB   PO215038  26.646  41.954  22.851 -0.4020 -0.2765 -0.0009
  627BOLB   GL315039  26.650  41.505  22.826 -0.2193 -0.4908 -0.0415
  627BOLB   GL415040  26.945  41.320  22.949 -0.0055  0.0734 -0.0086
  627BOLB   C1C15041  26.403  41.061  22.673 -0.2338  0.3479 -0.0332
  627BOLB   C2C15042  26.266  40.700  22.652 -0.0795 -0.0280 -0.1826
  627BOLB   C3C15043  26.432  40.309  22.808 -0.0757  0.2849 -0.0716
  627BOLB   C4C15044  26.643  39.927  22.564 -0.1420 -0.0090  0.0738
  627BOLB   C1D15045  27.257  41.014  22.938 -0.2595 -0.0074 -0.0168
  627BOLB   C2D15046  27.385  40.707  22.643 -0.1248  0.0205  0.2533
  627BOLB   C3D15047  27.502  40.391  22.485  0.3564  0.0413 -0.2364
  627BOLB   C4D15048  27.622  40.025  22.260  0.1499 -0.0158  0.1510
  628BOLB   NC115049  30.791  35.024  26.778  0.3733  0.0201  0.0700
  628BOLB   PO115050  30.870  35.462  26.909 -0.1765 -0.0629 -0.0556
  628BOLB   GL115051  30.836  35.711   0.263  0.2468  0.0027 -0.0773
  628BOLB   GL215052  30.952  36.067   0.244 -0.1174  0.3013  0.1527
  628BOLB   C1A15053  31.069  35.803   0.635  0.2407 -0.1578 -0.1498
  628BOLB   C2A15054  31.236  35.971   0.898  0.1973 -0.2203 -0.1142
  628BOLB   C3A15055  31.708  35.925   0.975 -0.2591 -0.3007  0.0629
  628BOLB   C4A15056  32.113  36.097   1.003 -0.2145 -0.1552  0.1110
  628BOLB   C1B15057  31.377  36.209   0.430 -0.1867 -0.0580 -0.1044
  628BOLB   C2B15058  31.842  36.251   0.512  0.0383 -0.1004 -0.0377
  628BOLB   C3B15059  31.989  36.697   0.586  0.2916 -0.2361  0.0030
  628BOLB   C4B15060  32.332  36.994   0.441 -0.2766  0.1071 -0.0930
  628BOLB   NC215061  33.298  38.143   2.195  0.2201  0.2404 -0.3782
  628BOLB   PO215062  33.250  38.031   2.583  0.0797  0.0688  0.0445
  628BOLB   GL315063  33.022  37.739   2.344 -0.2753 -0.2483  0.2292
  628BOLB   GL415064  32.919  37.873   1.909  0.0527  0.0307 -0.0492
  628BOLB   C1C15065  32.828  37.336   2.018  0.1483 -0.1632  0.3436
  628BOLB   C2C15066  32.642  36.977   1.687 -0.0319 -0.1331 -0.0168
  628BOLB   C3C15067  32.521  36.796   1.269 -0.0158  0.0833  0.0777
  628BOLB   C4C15068  32.329  36.395   1.077  0.0382  0.1172 -0.2513
  628BOLB   C1D15069  32.804  37.627   1.596  0.1053  0.0977 -0.0433
  628BOLB   C2D15070  32.749  37.310   1.344 -0.2295  0.0064  0.2455
  628BOLB   C3D15071  32.663  37.199   1.000 -0.2461 -0.4449 -0.0480
  628BOLB   C4D15072  32.861  37.073   0.572 -0.0949  0.0692  0.3314
  629BOLB   NC115073  21.538  34.900  20.497 -0.2338  0.0096  0.2682
  629BOLB   PO115074  21.724  35.162  20.752 -0.2159 -0.2510  0.0559
  629BOLB   GL115075  21.354  35.353  20.536  0.2672 -0.1576 -0.0337
  629BOLB   GL215076  21.165  35.501  20.777  0.1608 -0.0305  0.1080
  629BOLB   C1A15077  21.079  35.581  20.241  0.3218  0.0944  0.1252
  629BOLB   C2A15078  20.798  35.994  20.193  0.1992  0.1794  0.1933
  629BOLB   C3A15079  20.789  36.518  20.288 -0.0190 -0.1228 -0.2351
  629BOLB   C4A15080  20.886  36.907  20.229 -0.1843  0.5316  0.0531
  629BOLB   C1B15081  21.006  35.954  20.868 -0.1156 -0.2663  0.2456
  629BOLB   C2B15082  20.650  36.191  20.712  0.2332  0.0817 -0.0096
  629BOLB   C3B15083  20.321  36.375  20.792 -0.1337 -0.2176  0.1737
  629BOLB   C4B15084  19.909  36.621  20.866 -0.3739  0.2898  0.2910
  629BOLB   NC215085  20.632  39.538  20.007  0.0396 -0.4205 -0.2023
  629BOLB   PO215086  20.301  39.543  20.301  0.1025  0.2557  0.2955
  629BOLB   GL315087  20.543  39.129  20.266  0.0984  0.4048 -0.1978
  629BOLB   GL415088  20.733  39.164  20.545 -0.2559  0.1621 -0.1872
  629BOLB   C1C15089  20.795  38.616  20.336  0.2330 -0.0397 -0.2045
  629BOLB   C2C15090  20.651  38.102  20.398  0.1002  0.1984 -0.0979
  629BOLB   C3C15091  20.699  37.702  20.407  0.1792  0.2540 -0.0294
  629BOLB   C4C15092  20.795  37.371  20.200 -0.4486 -0.0891 -0.0429
  629BOLB   C1D15093  21.138  38.985  20.756 -0.2095  0.1990 -0.0035
  629BOLB   C2D15094  21.335  38.573  20.955  0.1909  0.2205  0.0608
  629BOLB   C3D15095  21.511  38.253  20.989  0.4704 -0.2347 -0.0817
  629BOLB   C4D15096  21.882  38.077  20.965 -0.4272  0.2912  0.1643
  630BOLB   NC115097  20.345  29.686  17.566 -0.0733 -0.3067 -0.0909
  630BOLB   PO115098  20.626  29.273  17.755 -0.0883  0.3307  0.2642
  630BOLB   GL115099  20.301  29.053  17.476  0.0871  0.1341 -0.0518
  630BOLB   GL215100  20.083  28.827  17.628  0.2139  0.2145  0.1057
  630BOLB   C1A15101  19.861  28.956  17.177  0.0676 -0.0267 -0.1663
  630BOLB   C2A15102  19.605  29.095  16.934  0.2726 -0.1281 -0.2319
  630BOLB   C3A15103  19.376  29.538  16.892  0.0383  0.3822  0.1151
  630BOLB   C4A15104  19.261  29.795  16.678 -0.0074  0.0728 -0.0534
  630BOLB   C1B15105  19.648  28.696  17.583  0.0243  0.3592 -0.1754
  630BOLB   C2B15106  19.356  28.726  17.304  0.0935  0.2358  0.1401
  630BOLB   C3B15107  19.305  28.575  16.883  0.0061 -0.4277 -0.2419
  630BOLB   C4B15108  19.126  28.417  16.506  0.1477 -0.0574  0.0839
  630BOLB   NC215109  16.472  29.956  16.415  0.0218  0.0543  0.2408
  630BOLB   PO215110  16.886  30.186  16.318 -0.3092  0.1240  0.2648
  630BOLB   GL315111  17.296  30.074  16.624 -0.2461 -0.1277 -0.3389
  630BOLB   GL415112  17.443  29.768  16.487  0.1627  0.0393 -0.1213
  630BOLB   C1C15113  17.599  30.340  16.653 -0.2001  0.2013 -0.1485
  630BOLB   C2C15114  17.969  30.275  16.726  0.0761 -0.1791 -0.0606
  630BOLB   C3C15115  18.370  30.311  16.635 -0.0254 -0.1800  0.0956
  630BOLB   C4C15116  18.752  30.034  16.671  0.0617  0.0454 -0.1699
  630BOLB   C1D15117  17.887  29.762  16.579 -0.0727  0.0523 -0.0618
  630BOLB   C2D15118  18.230  29.838  16.923  0.3369  0.0109  0.1167
  630BOLB   C3D15119  18.441  30.255  17.111  0.2180 -0.2215 -0.3577
  630BOLB   C4D15120  18.429  30.616  17.358 -0.0503  0.1659 -0.3150
  631BOLB   NC115121  32.952  35.622  24.328  0.1843  0.1296  0.0563
  631BOLB   PO115122  33.223  35.471  24.608 -0.2551 -0.1089 -0.3991
  631BOLB   GL115123  33.647  35.591  24.770  0.0916  0.0967 -0.3032
  631BOLB   GL215124  33.865  35.472  24.466  0.0213  0.1006 -0.0300
  631BOLB   C1A15125  33.971  35.681  24.947  0.2016 -0.0141 -0.1313
  631BOLB   C2A15126  34.252  35.888  24.645 -0.0230 -0.2737  0.3504
  631BOLB   C3A15127  34.540  36.169  24.586 -0.0948  0.4362 -0.0326
  631BOLB   C4A15128  34.870  36.347  24.767 -0.1064 -0.0621 -0.2358
  631BOLB   C1B15129  33.934  35.731  24.260 -0.0385 -0.1112  0.0545
  631BOLB   C2B15130  34.120  36.077  24.226 -0.0973  0.6603  0.4685
  631BOLB   C3B15131  34.345  36.469  24.111  0.1678 -0.0283  0.5064
  631BOLB   C4B15132  34.317  36.889  24.133  0.2973  0.0622 -0.1234
  631BOLB   NC215133  36.772  37.239  25.630  0.0046  0.1163  0.1914
  631BOLB   PO215134  36.928  36.977  25.330 -0.0340 -0.3436 -0.1876
  631BOLB   GL315135  36.571  36.786  25.343  0.1100  0.1427  0.0050
  631BOLB   GL415136  36.590  36.751  24.948  0.0219 -0.0545  0.0660
  631BOLB   C1C15137  36.340  36.473  25.256  0.3637 -0.0680 -0.0094
  631BOLB   C2C15138  36.088  36.221  25.051 -0.0664  0.1429 -0.0419
  631BOLB   C3C15139  35.653  36.111  24.969  0.2773  0.0764 -0.1260
  631BOLB   C4C15140  35.308  36.140  24.848 -0.2371  0.1015 -0.0832
  631BOLB   C1D15141  36.231  36.867  24.974 -0.0015  0.1067 -0.1594
  631BOLB   C2D15142  35.887  36.665  24.918 -0.1071  0.1555 -0.0333
  631BOLB   C3D15143  35.444  36.616  25.158 -0.1436  0.1014  0.3261
  631BOLB   C4D15144  35.043  36.359  25.305  0.1650  0.0532  0.0482
  632BOLB   NC115145  27.614  23.099  16.953  0.0997  0.1018 -0.0095
  632BOLB   PO115146  27.846  22.667  16.940  0.2400  0.0094 -0.1557
  632BOLB   GL115147  27.747  22.308  16.764  0.4094 -0.1598 -0.3392
  632BOLB   GL215148  27.946  22.044  16.890 -0.0788  0.4734 -0.1683
  632BOLB   C1A15149  27.498  21.967  16.602  0.0605 -0.1949 -0.0598
  632BOLB   C2A15150  27.427  21.493  16.545  0.1210  0.0075 -0.0246
  632BOLB   C3A15151  27.569  20.980  16.566 -0.2023  0.0044  0.2305
  632BOLB   C4A15152  27.567  20.541  16.464 -0.0243 -0.2882 -0.0241
  632BOLB   C1B15153  28.222  21.647  16.897  0.0346 -0.0040  0.4740
  632BOLB   C2B15154  28.356  21.237  16.892 -0.1004 -0.3361  0.2480
  632BOLB   C3B15155  28.500  20.863  16.702 -0.0363  0.0809 -0.3385
  632BOLB   C4B15156  28.815  20.568  16.762 -0.2084  0.2852  0.0269
  632BOLB   NC215157  26.287  18.163  16.033  0.0049  0.2737  0.1502
  632BOLB   PO215158  26.132  18.520  15.816 -0.0529  0.0527 -0.4219
  632BOLB   GL315159  26.502  18.869  16.056 -0.4443  0.0380  0.0295
  632BOLB   GL415160  26.715  18.756  16.216  0.0420 -0.2657 -0.0584
  632BOLB   C1C15161  26.843  19.230  16.024 -0.0596 -0.1212 -0.1861
  632BOLB   C2C15162  26.881  19.626  16.141 -0.0128  0.0292  0.0401
  632BOLB   C3C15163  27.027  20.031  16.152 -0.1632  0.0307  0.1314
  632BOLB   C4C15164  27.287  20.298  16.209  0.1537  0.3565  0.0018
  632BOLB   C1D15165  26.713  19.068  16.512  0.1994  0.1093 -0.1347
  632BOLB   C2D15166  26.806  19.451  16.700  0.0530  0.0757  0.4973
  632BOLB   C3D15167  26.825  19.854  16.736 -0.0567  0.0224  0.0267
  632BOLB   C4D15168  26.604  20.109  16.420  0.2064  0.2917  0.1636
  633BOLB   NC115169  20.720  33.122  24.131  0.0679  0.1668  0.0075
  633BOLB   PO115170  20.319  33.055  24.347  0.3349 -0.1161 -0.0213
  633BOLB   GL115171  19.981  33.121  24.723 -0.1030  0.0291  0.1369
  633BOLB   GL215172  19.706  33.384  24.539 -0.1602  0.1852  0.2526
  633BOLB   C1A15173  19.651  33.038  24.899 -0.4421 -0.0210  0.2197
  633BOLB   C2A15174  19.130  32.923  24.944  0.1985 -0.1134 -0.1168
  633BOLB   C3A15175  18.771  33.179  25.037 -0.3046 -0.3990 -0.2503
  633BOLB   C4A15176  18.471  33.404  25.041 -0.0671 -0.0102  0.0239
  633BOLB   C1B15177  19.445  33.628  24.362  0.0686  0.2025  0.1069
  633BOLB   C2B15178  19.231  33.813  24.262  0.0685 -0.1945  0.0699
  633BOLB   C3B15179  18.792  33.932  24.178 -0.1582 -0.3237 -0.2560
  633BOLB   C4B15180  18.377  33.943  24.489  0.0072 -0.2150  0.0198
  633BOLB   NC215181  16.441  32.969  26.563  0.0056 -0.0625 -0.0781
  633BOLB   PO215182  16.715  33.193  26.351 -0.1124 -0.1056 -0.0655
  633BOLB   GL315183  17.174  33.032  26.313 -0.0076  0.2597 -0.1821
  633BOLB   GL415184  17.339  32.901  26.617  0.0820 -0.1321 -0.0342
  633BOLB   C1C15185  17.544  33.075  26.060  0.4241  0.1530 -0.0312
  633BOLB   C2C15186  17.478  33.105  25.601 -0.0280 -0.0932 -0.0456
  633BOLB   C3C15187  17.650  33.086  25.196  0.0959 -0.0090 -0.2330
  633BOLB   C4C15188  17.999  33.174  25.003  0.1611 -0.1050  0.0194
  633BOLB   C1D15189  17.722  32.786  26.385 -0.1728  0.3207  0.1466
  633BOLB   C2D15190  18.111  32.555  26.407  0.0522  0.0248  0.5905
  633BOLB   C3D15191  18.225  32.146  26.568 -0.1060 -0.0798  0.4689
  633BOLB   C4D15192  18.417  31.669  26.477  0.0999 -0.0092 -0.0975
  634BOLB   NC115193  32.930  35.945  18.150  0.1138 -0.0866 -0.2945
  634BOLB   PO115194  32.875  36.060  18.544 -0.1735  0.2442  0.0935
  634BOLB   GL115195  32.732  36.440  18.474  0.0466 -0.1477 -0.1468
  634BOLB   GL215196  32.764  36.382  18.177 -0.0613 -0.3037  0.1358
  634BOLB   C1A15197  32.923  36.845  18.333 -0.1635  0.0213  0.4426
  634BOLB   C2A15198  32.868  37.174  18.195 -0.0485 -0.1240  0.1547
  634BOLB   C3A15199  33.016  37.578  18.242  0.2137 -0.2854 -0.0539
  634BOLB   C4A15200  33.202  37.990  18.417 -0.3216 -0.1069  0.1247
  634BOLB   C1B15201  33.162  36.583  17.918 -0.2142 -0.4041  0.0631
  634BOLB   C2B15202  33.241  36.869  17.638  0.0876 -0.4430  0.2043
  634BOLB   C3B15203  33.290  37.147  17.320 -0.3042 -0.0536 -0.1527
  634BOLB   C4B15204  33.540  37.530  17.324 -0.2442  0.1174 -0.0945
  634BOLB   NC215205  34.258  39.569  17.888  0.0335 -0.3042  0.2196
  634BOLB   PO215206  33.932  39.863  17.937  0.0392 -0.2793  0.2032
  634BOLB   GL315207  33.627  39.512  17.878  0.3507  0.0095  0.2364
  634BOLB   GL415208  33.396  39.403  17.766  0.0078 -0.1787 -0.0211
  634BOLB   C1C15209  33.345  39.440  18.261 -0.3689 -0.2379  0.1630
  634BOLB   C2C15210  33.388  39.179  18.535  0.2520 -0.2297 -0.1011
  634BOLB   C3C15211  33.378  38.741  18.682  0.1061 -0.2893 -0.1514
  634BOLB   C4C15212  33.208  38.316  18.725 -0.4105  0.1709  0.0422
  634BOLB   C1D15213  32.934  39.415  17.920  0.2674  0.5012 -0.0011
  634BOLB   C2D15214  32.600  39.139  17.891 -0.0319 -0.0715 -0.2325
  634BOLB   C3D15215  32.536  38.766  18.186 -0.0510  0.0353 -0.4413
  634BOLB   C4D15216  32.184  38.487  18.363 -0.1031 -0.3089  0.0349
  635BOLB   NC115217  30.286  27.387  14.406 -0.1547 -0.1215 -0.1060
  635BOLB   PO115218  30.358  27.446  14.007 -0.0735 -0.0963 -0.0420
  635BOLB   GL115219  30.378  27.133  13.727  0.0354  0.3088 -0.1309
  635BOLB   GL215220  30.658  27.300  13.627 -0.3802  0.0130  0.2053
  635BOLB   C1A15221  30.477  26.984  13.226  0.0132  0.1541  0.1994
  635BOLB   C2A15222  30.489  26.706  12.901  0.0405  0.2540 -0.2495
  635BOLB   C3A15223  30.418  26.615  12.412  0.0156  0.2270 -0.3645
  635BOLB   C4A15224  30.218  26.945  12.193 -0.1029 -0.0127  0.2987
  635BOLB   C1B15225  30.985  27.013  13.572  0.0139  0.0179 -0.0362
  635BOLB   C2B15226  31.246  26.681  13.359  0.1091  0.1717 -0.0335
  635BOLB   C3B15227  31.522  26.607  13.072  0.0819 -0.2581  0.2711
  635BOLB   C4B15228  31.689  26.803  12.737 -0.2597 -0.0896  0.2664
  635BOLB   NC215229  30.057  26.489  10.140  0.0276  0.2120 -0.1167
  635BOLB   PO215230  29.831  26.848  10.127 -0.0583  0.0201  0.0442
  635BOLB   GL315231  29.796  26.717  10.586  0.0886  0.0249 -0.0187
  635BOLB   GL415232  29.631  26.984  10.777  0.1302 -0.0728  0.1430
  635BOLB   C1C15233  30.138  26.968  10.739  0.3489  0.0538  0.0061
  635BOLB   C2C15234  30.136  27.179  11.128 -0.1483 -0.0512 -0.0324
  635BOLB   C3C15235  30.093  27.411  11.509 -0.2029 -0.0176 -0.1365
  635BOLB   C4C15236  30.182  27.198  11.843 -0.1864 -0.1560  0.2741
  635BOLB   C1D15237  29.316  26.812  10.967 -0.0379  0.1911  0.2472
  635BOLB   C2D15238  29.074  26.932  11.386  0.2792 -0.0447  0.0459
  635BOLB   C3D15239  29.092  26.891  11.791 -0.2281  0.0058  0.3971
  635BOLB   C4D15240  28.922  26.780  12.220  0.0409 -0.0353 -0.0668
  636BOLB   NC115241  24.534  24.285  16.908 -0.0223 -0.0849 -0.0655
  636BOLB   PO115242  24.439  23.892  16.736  0.0660 -0.1836 -0.0513
  636BOLB   GL115243  24.187  23.598  16.337 -0.0143  0.0729  0.0266
  636BOLB   GL215244  24.163  23.816  16.066 -0.0696  0.3319 -0.2206
  636BOLB   C1A15245  24.072  23.322  15.939  0.6885 -0.0973  0.0985
  636BOLB   C2A15246  23.675  23.355  15.619  0.0674 -0.3117 -0.1539
  636BOLB   C3A15247  23.368  23.275  15.303 -0.1096 -0.1506 -0.0251
  636BOLB   C4A15248  23.529  22.963  15.002  0.1907 -0.3120 -0.0614
  636BOLB   C1B15249  24.182  23.762  15.725  0.0045 -0.1465  0.0565
  636BOLB   C2B15250  24.061  23.572  15.411 -0.0861 -0.0721  0.1798
  636BOLB   C3B15251  23.697  23.567  15.080  0.3248  0.2648  0.2668
  636BOLB   C4B15252  23.491  23.456  14.817 -0.1583 -0.2852  0.1636
  636BOLB   NC215253  22.649  21.442  13.872  0.1220 -0.1306  0.1825
  636BOLB   PO215254  22.364  21.366  14.100 -0.0112 -0.0156  0.0282
  636BOLB   GL315255  22.743  21.540  14.446  0.1054  0.1586 -0.1759
  636BOLB   GL415256  22.601  21.573  14.664 -0.2071 -0.1411 -0.0357
  636BOLB   C1C15257  23.028  21.758  14.437 -0.2508 -0.2836 -0.0456
  636BOLB   C2C15258  23.204  22.069  14.437 -0.0202  0.1706  0.0006
  636BOLB   C3C15259  23.504  22.384  14.772 -0.3112 -0.1849  0.3063
  636BOLB   C4C15260  23.722  22.587  14.968  0.0222 -0.2123  0.1379
  636BOLB   C1D15261  22.844  21.667  14.999 -0.2222 -0.3611 -0.1030
  636BOLB   C2D15262  22.925  21.491  15.444 -0.0582  0.1441  0.0489
  636BOLB   C3D15263  23.205  21.265  15.793 -0.0149 -0.2081  0.0882
  636BOLB   C4D15264  23.140  21.297  16.154 -0.1025 -0.5103  0.0717
  637BOLB   NC115265  35.313  29.087  18.407 -0.0785  0.0442 -0.2040
  637BOLB   PO115266  35.037  29.276  18.152  0.1971 -0.1455 -0.0039
  637BOLB   GL115267  35.501  29.467  18.075  0.0285 -0.0595  0.0173
  637BOLB   GL215268  35.731  29.755  18.070 -0.0179  0.1761 -0.0109
  637BOLB   C1A15269  35.891  29.277  17.959  0.1739 -0.1182  0.0134
  637BOLB   C2A15270  36.319  29.201  17.991 -0.0232  0.0869  0.1819
  637BOLB   C3A15271  36.657  28.849  17.837 -0.0279  0.0773  0.0726
  637BOLB   C4A15272  36.741  28.707  17.578 -0.1186 -0.2619 -0.1346
  637BOLB   C1B15273  36.079  29.689  17.684 -0.1771  0.1143 -0.2338
  637BOLB   C2B15274  36.465  29.495  17.599  0.0650  0.0305  0.1771
  637BOLB   C3B15275  36.984  29.501  17.601  0.2411 -0.0465 -0.1349
  637BOLB   C4B15276  37.389  29.783  17.523  0.0312  0.2851  0.2311
  637BOLB   NC215277  38.831  27.291  16.638 -0.3203 -0.1077 -0.0926
  637BOLB   PO215278  38.563  27.493  16.528  0.3623 -0.2073 -0.1221
  637BOLB   GL315279  38.234  27.637  16.737 -0.0410  0.3058 -0.1588
  637BOLB   GL415280  38.246  27.945  16.553 -0.0388  0.1129  0.1517
  637BOLB   C1C15281  37.807  27.690  16.643 -0.2426 -0.0030  0.1164
  637BOLB   C2C15282  37.629  27.970  16.983 -0.2345 -0.2103  0.0837
  637BOLB   C3C15283  37.401  28.206  17.380  0.0121 -0.4146  0.0123
  637BOLB   C4C15284  37.110  28.482  17.499 -0.0832 -0.3054  0.0242
  637BOLB   C1D15285  38.100  28.179  16.946 -0.2403 -0.1324  0.0780
  637BOLB   C2D15286  37.921  28.548  17.079  0.0444  0.1423 -0.0600
  637BOLB   C3D15287  37.669  28.684  17.347 -0.1910 -0.0343 -0.3085
  637BOLB   C4D15288  37.305  28.962  17.599 -0.2959  0.3428 -0.0419
  638BOLB   NC115289  28.333  37.318  18.970  0.1478  0.2451 -0.3246
  638BOLB   PO115290  28.710  37.509  19.318 -0.1154 -0.1193  0.2629
  638BOLB   GL115291  28.791  37.832  19.090  0.1533  0.3070  0.0218
  638BOLB   GL215292  28.606  38.083  18.953  0.1359 -0.0982 -0.0422
  638BOLB   C1A15293  29.070  38.235  19.012 -0.0806 -0.1942 -0.0540
  638BOLB   C2A15294  29.116  38.720  18.996 -0.0980  0.2670  0.0290
  638BOLB   C3A15295  29.011  39.124  18.814 -0.3727  0.2194  0.1655
  638BOLB   C4A15296  28.791  39.494  18.626 -0.1863  0.1605 -0.3991
  638BOLB   C1B15297  28.694  38.533  18.817  0.3437  0.1404  0.4287
  638BOLB   C2B15298  28.553  38.787  18.511 -0.1001  0.1235  0.1409
  638BOLB   C3B15299  28.467  39.156  18.427  0.1814  0.3789  0.1986
  638BOLB   C4B15300  28.487  39.435  18.024  0.3451  0.0927 -0.2151
  638BOLB   NC215301  27.675  42.065  18.507  0.2303 -0.3188  0.2768
  638BOLB   PO215302  27.841  41.777  18.774  0.1201  0.0490  0.3167
  638BOLB   GL315303  27.985  41.367  18.831  0.1243 -0.1023  0.2239
  638BOLB   GL415304  28.009  41.216  18.547  0.1163 -0.2555  0.0828
  638BOLB   C1C15305  28.202  40.994  18.988  0.0968  0.0040  0.0839
  638BOLB   C2C15306  28.218  40.567  18.832 -0.2861  0.0567 -0.0656
  638BOLB   C3C15307  28.524  40.301  18.627 -0.0771 -0.2678  0.0949
  638BOLB   C4C15308  28.588  39.876  18.683 -0.1633  0.1260 -0.1664
  638BOLB   C1D15309  28.274  40.932  18.459 -0.2505  0.1998  0.2470
  638BOLB   C2D15310  28.651  40.751  18.171 -0.0051 -0.1645 -0.0891
  638BOLB   C3D15311  28.794  40.349  18.176  0.0535 -0.0693  0.1554
  638BOLB   C4D15312  28.679  39.983  18.160 -0.0161 -0.0253 -0.1357
  639BOLB   NC115313  21.267  31.424  17.540 -0.1029  0.0363 -0.1887
  639BOLB   PO115314  20.879  31.466  17.811  0.1837  0.0040 -0.3299
  639BOLB   GL115315  20.469  31.546  17.520  0.3562  0.1165  0.3210
  639BOLB   GL215316  20.273  31.500  17.178  0.0809 -0.0669  0.3509
  639BOLB   C1A15317  20.002  31.462  17.623 -0.1014 -0.0640 -0.3586
  639BOLB   C2A15318  19.615  31.518  17.427 -0.1968 -0.2146  0.2261
  639BOLB   C3A15319  19.507  31.862  17.068  0.3481  0.1369 -0.0347
  639BOLB   C4A15320  19.499  32.185  16.720  0.0195 -0.0202 -0.2874
  639BOLB   C1B15321  20.038  31.847  16.880  0.1356  0.0281  0.0721
  639BOLB   C2B15322  19.909  31.996  16.470  0.0540  0.0382  0.1597
  639BOLB   C3B15323  19.914  32.286  16.227 -0.1077 -0.4708 -0.3996
  639BOLB   C4B15324  19.810  32.503  15.770  0.1824 -0.0578  0.2174
  639BOLB   NC215325  17.913  33.493  14.948  0.0235  0.0658  0.1259
  639BOLB   PO215326  17.790  33.525  15.432  0.3978  0.3248  0.4122
  639BOLB   GL315327  18.032  33.239  15.608 -0.2893  0.1435  0.2405
  639BOLB   GL415328  17.956  32.827  15.600  0.0038  0.0175  0.4627
  639BOLB   C1C15329  18.407  33.142  15.714 -0.3627  0.0257 -0.0772
  639BOLB   C2C15330  18.677  32.883  15.960 -0.2020 -0.0442  0.1470
  639BOLB   C3C15331  19.048  32.796  16.251 -0.0509  0.2193  0.1233
  639BOLB   C4C15332  19.163  32.386  16.497  0.1421 -0.0869 -0.0923
  639BOLB   C1D15333  17.933  32.812  16.032  0.3239  0.2088  0.0320
  639BOLB   C2D15334  17.883  33.073  16.600 -0.2466  0.2091  0.0663
  639BOLB   C3D15335  17.905  33.178  17.099 -0.2292  0.0918  0.2594
  639BOLB   C4D15336  18.090  33.310  17.511  0.2175 -0.1596  0.1386
  640BOLB   NC115337  26.722  31.888  14.051 -0.0353  0.2862  0.1553
  640BOLB   PO115338  26.541  31.590  13.699 -0.0757  0.1369 -0.0308
  640BOLB   GL115339  26.413  31.568  13.248 -0.1085  0.1863  0.0047
  640BOLB   GL215340  26.118  31.848  13.095 -0.2294  0.0600  0.0819
  640BOLB   C1A15341  26.450  31.577  12.863  0.1182 -0.2517 -0.3115
  640BOLB   C2A15342  26.235  31.725  12.583 -0.2709  0.1530 -0.1839
  640BOLB   C3A15343  26.104  31.909  12.214  0.3663 -0.0267  0.0466
  640BOLB   C4A15344  26.007  32.203  11.888  0.0506 -0.3467  0.1199
  640BOLB   C1B15345  26.038  32.095  12.812 -0.2466  0.1315 -0.1553
  640BOLB   C2B15346  25.866  32.311  12.424 -0.2858  0.2035 -0.1950
  640BOLB   C3B15347  25.688  32.740  12.205  0.4032 -0.3270  0.1893
  640BOLB   C4B15348  25.569  33.113  12.253 -0.3725 -0.3601  0.0417
  640BOLB   NC215349  24.982  31.968   9.629  0.3697  0.2976 -0.2186
  640BOLB   PO215350  24.710  31.677   9.708 -0.2568 -0.0718 -0.0001
  640BOLB   GL315351  24.703  31.683  10.074  0.2199  0.0370 -0.1845
  640BOLB   GL415352  24.761  31.376  10.285 -0.1338 -0.1718 -0.2237
  640BOLB   C1C15353  24.832  31.922  10.379 -0.1114  0.2904  0.3691
  640BOLB   C2C15354  25.237  31.938  10.705 -0.0262 -0.2290 -0.0339
  640BOLB   C3C15355  25.371  32.048  11.111  0.1481 -0.1788  0.0026
  640BOLB   C4C15356  25.722  32.086  11.531 -0.1800  0.0766  0.0296
  640BOLB   C1D15357  24.794  31.503  10.719 -0.2617  0.0970 -0.2169
  640BOLB   C2D15358  25.235  31.430  10.996 -0.0013  0.0055  0.0552
  640BOLB   C3D15359  25.380  31.095  11.301  0.2934 -0.0510  0.0182
  640BOLB   C4D15360  25.283  30.672  11.486  0.1922 -0.0825 -0.0671
  641BOLB   NC115361  19.457  30.961  21.403 -0.3402  0.2941 -0.2598
  641BOLB   PO115362  19.869  31.183  21.151  0.0817 -0.4827 -0.1539
  641BOLB   GL115363  19.531  31.194  20.928  0.0549  0.2163 -0.1217
  641BOLB   GL215364  19.226  31.533  20.981  0.1155 -0.0066 -0.0267
  641BOLB   C1A15365  19.133  31.052  20.863  0.0965  0.2572  0.0016
  641BOLB   C2A15366  18.749  31.275  20.914  0.1890 -0.1257 -0.1271
  641BOLB   C3A15367  18.416  31.549  20.877  0.0093  0.3053 -0.0451
  641BOLB   C4A15368  18.000  31.587  21.051 -0.1375  0.2409 -0.3132
  641BOLB   C1B15369  18.840  31.766  21.021 -0.1584  0.1880  0.1526
  641BOLB   C2B15370  18.619  31.926  21.145 -0.0562 -0.0566  0.3596
  641BOLB   C3B15371  18.400  31.792  21.340  0.0358 -0.0642 -0.2231
  641BOLB   C4B15372  18.130  31.463  21.658 -0.2669  0.2678 -0.3034
  641BOLB   NC215373  15.242  31.789  20.765  0.0178  0.1005 -0.0181
  641BOLB   PO215374  15.448  32.052  20.680  0.1171  0.4783 -0.0362
  641BOLB   GL315375  15.775  31.805  20.761  0.1239  0.1344 -0.6016
  641BOLB   GL415376  15.945  31.864  21.018 -0.2338  0.3593  0.0201
  641BOLB   C1C15377  16.254  31.754  20.658  0.2153 -0.0092 -0.0166
  641BOLB   C2C15378  16.720  31.650  20.874 -0.1585  0.1657  0.1081
  641BOLB   C3C15379  17.096  31.580  20.698  0.2490 -0.0110 -0.2338
  641BOLB   C4C15380  17.602  31.409  20.933  0.0076 -0.0595 -0.1916
  641BOLB   C1D15381  16.404  31.684  21.286 -0.1594 -0.0338 -0.0641
  641BOLB   C2D15382  16.675  31.359  21.258 -0.4655  0.0752  0.0740
  641BOLB   C3D15383  17.131  31.282  21.153  0.0825  0.0536 -0.0006
  641BOLB   C4D15384  17.505  30.951  21.083 -0.0949 -0.0927 -0.0662
  642BOLB   NC115385  24.097  36.190  25.505 -0.2046  0.3167 -0.0699
  642BOLB   PO115386  24.477  36.021  25.642  0.1306  0.0356  0.2551
  642BOLB   GL115387  24.342  36.529  25.877  0.1321  0.4545  0.0486
  642BOLB   GL215388  24.620  36.811  25.925  0.3266  0.0510  0.0626
  642BOLB   C1A15389  24.025  36.836  25.725  0.1508  0.1453 -0.0649
  642BOLB   C2A15390  23.693  36.846  26.046 -0.0032 -0.0722  0.0559
  642BOLB   C3A15391  23.371  36.967  26.085 -0.0446  0.0615  0.1397
  642BOLB   C4A15392  23.018  37.271  26.071  0.1804 -0.0390 -0.0024
  642BOLB   C1B15393  24.200  36.993  26.189 -0.1350  0.0690  0.2136
  642BOLB   C2B15394  23.912  37.179  26.402  0.1020  0.0659  0.0586
  642BOLB   C3B15395  23.437  37.083  26.606  0.4658  0.1094 -0.0164
  642BOLB   C4B15396  22.983  36.981  26.578  0.0808  0.0780  0.1636
  642BOLB   NC215397  21.851  38.703   1.214 -0.2382 -0.0596 -0.2297
  642BOLB   PO215398  22.066  38.403   1.503 -0.0475 -0.1262  0.0108
  642BOLB   GL315399  22.225  38.278   1.068 -0.1660 -0.2257  0.1344
  642BOLB   GL415400  22.054  38.459   0.874  0.1192  0.0169  0.0414
  642BOLB   C1C15401  22.409  38.036   0.662 -0.2499  0.0225 -0.3749
  642BOLB   C2C15402  22.722  37.843   0.425 -0.0097 -0.3390 -0.1016
  642BOLB   C3C15403  22.819  37.747   0.019  0.2451 -0.0775 -0.3220
  642BOLB   C4C15404  22.834  37.515  26.466 -0.0646  0.1006 -0.0373
  642BOLB   C1D15405  21.867  38.342   0.407  0.2448  0.0558  0.3250
  642BOLB   C2D15406  21.653  38.093   0.164  0.0697 -0.3130  0.0899
  642BOLB   C3D15407  21.881  37.680   0.023  0.3134 -0.0862 -0.0407
  642BOLB   C4D15408  21.890  37.373  26.528  0.3637  0.2944 -0.0718
  643BOLB   NC115409  25.912  35.249   1.332  0.2800 -0.0139  0.1040
  643BOLB   PO115410  26.066  34.815   1.373  0.1498  0.0966  0.1623
  643BOLB   GL115411  25.992  34.947   1.809 -0.0591  0.0853  0.1786
  643BOLB   GL215412  26.130  34.963   2.103  0.2323 -0.0864 -0.1526
  643BOLB   C1A15413  25.742  35.281   2.170 -0.2517  0.3184 -0.0582
  643BOLB   C2A15414  25.511  35.171   2.514 -0.0556 -0.1532  0.0045
  643BOLB   C3A15415  25.416  35.181   2.930  0.3024 -0.0781 -0.0527
  643BOLB   C4A15416  25.443  35.157   3.334  0.3882 -0.1648  0.1159
  643BOLB   C1B15417  25.920  34.857   2.467  0.0376  0.0491  0.1282
  643BOLB   C2B15418  25.884  35.033   2.839 -0.2268 -0.2334 -0.0622
  643BOLB   C3B15419  26.032  35.279   3.261 -0.0756 -0.0692  0.0964
  643BOLB   C4B15420  26.298  35.422   3.576  0.1287 -0.1248 -0.1794
  643BOLB   NC215421  25.502  35.398   5.936 -0.0123  0.0667  0.1984
  643BOLB   PO215422  25.491  35.175   5.546 -0.0858 -0.0937  0.0269
  643BOLB   GL315423  25.496  34.804   5.316  0.1462  0.0693 -0.0173
  643BOLB   GL415424  25.190  34.951   5.165 -0.0580 -0.0555  0.0049
  643BOLB   C1C15425  25.401  34.720   4.767  0.0786  0.0543 -0.2381
  643BOLB   C2C15426  25.226  34.626   4.430 -0.0067  0.0388 -0.0187
  643BOLB   C3C15427  25.235  34.575   3.967  0.1933 -0.1058 -0.0756
  643BOLB   C4C15428  25.392  34.759   3.644 -0.0761 -0.1791 -0.0527
  643BOLB   C1D15429  25.058  35.065   4.617 -0.0927  0.1778 -0.0792
  643BOLB   C2D15430  25.168  35.389   4.354 -0.2214 -0.0461 -0.0755
  643BOLB   C3D15431  25.067  35.716   4.106 -0.0931  0.2553  0.2997
  643BOLB   C4D15432  25.312  35.707   3.737  0.1362  0.3009 -0.0914
  644BOLB   NC115433  33.896  35.480  22.016  0.0804  0.1207  0.3764
  644BOLB   PO115434  33.578  35.687  22.206  0.2025 -0.4445  0.1086
  644BOLB   GL115435  33.828  36.031  22.320 -0.0602  0.2394  0.1874
  644BOLB   GL215436  33.602  36.200  22.455 -0.1767  0.0704 -0.0711
  644BOLB   C1A15437  34.191  36.159  22.478 -0.0268  0.0957  0.4880
  644BOLB   C2A15438  34.559  36.094  22.528  0.1669 -0.0689  0.1384
  644BOLB   C3A15439  34.945  36.327  22.671  0.1770 -0.1509  0.0890
  644BOLB   C4A15440  35.130  36.550  23.058  0.0586 -0.0189  0.4465
  644BOLB   C1B15441  33.656  36.723  22.371 -0.2026  0.3520 -0.0176
  644BOLB   C2B15442  33.522  37.118  22.389  0.4135 -0.0102 -0.0075
  644BOLB   C3B15443  33.290  37.378  22.769 -0.0947 -0.0005 -0.1387
  644BOLB   C4B15444  33.400  37.767  23.062 -0.1393  0.1770  0.1033
  644BOLB   NC215445  36.949  38.142  24.795  0.1266 -0.0409  0.2049
  644BOLB   PO215446  36.625  38.209  24.498  0.0496  0.0057 -0.1952
  644BOLB   GL315447  36.347  37.847  24.450 -0.2002  0.0867 -0.2398
  644BOLB   GL415448  36.074  38.044  24.474 -0.0020  0.0789  0.0832
  644BOLB   C1C15449  36.024  37.539  24.337 -0.0651 -0.1515  0.1261
  644BOLB   C2C15450  35.767  37.200  24.158  0.3247 -0.1502  0.2383
  644BOLB   C3C15451  35.603  36.893  23.814 -0.0476 -0.3292 -0.1885
  644BOLB   C4C15452  35.449  36.680  23.436 -0.0621  0.0891  0.0144
  644BOLB   C1D15453  35.784  37.812  24.712  0.0664 -0.3451  0.0604
  644BOLB   C2D15454  35.390  37.825  25.059 -0.1187  0.0231 -0.1409
  644BOLB   C3D15455  35.055  37.519  25.045  0.0432 -0.2340 -0.2059
  644BOLB   C4D15456  34.857  37.220  25.020 -0.0459  0.0764 -0.0087
  645BOLB   NC115457  33.774  31.399   0.390  0.2865  0.1921  0.1746
  645BOLB   PO115458  33.525  31.633   0.615  0.0092  0.2661  0.1396
  645BOLB   GL115459  33.927  31.593   0.819 -0.2697  0.2270  0.1602
  645BOLB   GL215460  34.023  31.304   0.821 -0.0938 -0.3111  0.0074
  645BOLB   C1A15461  34.112  31.843   1.136  0.2042 -0.0242  0.2623
  645BOLB   C2A15462  34.187  31.955   1.427 -0.0276  0.2439 -0.0151
  645BOLB   C3A15463  34.658  32.070   1.513 -0.0493 -0.0381  0.0571
  645BOLB   C4A15464  34.820  32.216   1.815 -0.0923  0.2469 -0.0603
  645BOLB   C1B15465  34.263  31.318   1.132  0.1015 -0.0237  0.0645
  645BOLB   C2B15466  34.617  31.024   1.358 -0.1080 -0.0107  0.0735
  645BOLB   C3B15467  34.997  30.878   1.422 -0.0762 -0.3053 -0.1490
  645BOLB   C4B15468  35.413  30.871   1.588 -0.2280 -0.2235 -0.0283
  645BOLB   NC215469  36.284  31.880   3.196 -0.0156 -0.2144  0.1465
  645BOLB   PO215470  36.697  31.711   3.016  0.0855  0.0533  0.1277
  645BOLB   GL315471  36.338  31.775   2.727  0.1442  0.0645 -0.0472
  645BOLB   GL415472  36.062  31.486   2.643 -0.1935 -0.2282 -0.1218
  645BOLB   C1C15473  36.012  32.036   2.453 -0.1689 -0.0189 -0.3158
  645BOLB   C2C15474  35.615  32.192   2.491  0.1049  0.1905 -0.0365
  645BOLB   C3C15475  35.286  32.236   2.489 -0.1991 -0.4476  0.0395
  645BOLB   C4C15476  35.150  32.191   2.046 -0.0237  0.0665 -0.0260
  645BOLB   C1D15477  36.121  31.144   2.373  0.1763  0.0851 -0.0826
  645BOLB   C2D15478  36.074  31.130   2.018 -0.0665 -0.2475 -0.0188
  645BOLB   C3D15479  35.840  31.112   1.671  0.2955 -0.2206 -0.1664
  645BOLB   C4D15480  35.801  30.895   1.258 -0.2415 -0.2623 -0.4238
  646BOLB   NC115481  32.980  25.566  18.189  0.0450  0.0555 -0.0460
  646BOLB   PO115482  33.329  25.369  18.231  0.0757  0.2684 -0.0347
  646BOLB   GL115483  33.768  25.115  18.200 -0.1656 -0.0027 -0.2177
  646BOLB   GL215484  34.000  25.377  18.394 -0.1846 -0.2590 -0.1547
  646BOLB   C1A15485  33.999  24.838  18.103 -0.2445 -0.4864  0.0869
  646BOLB   C2A15486  34.303  24.567  18.035  0.0491 -0.3749 -0.0646
  646BOLB   C3A15487  34.430  24.243  17.787  0.0751 -0.0226 -0.1884
  646BOLB   C4A15488  34.334  23.788  17.647  0.1412  0.0442 -0.0656
  646BOLB   C1B15489  34.419  25.176  18.263  0.2855  0.0066  0.1140
  646BOLB   C2B15490  34.683  24.911  18.131  0.0641  0.2639 -0.0136
  646BOLB   C3B15491  34.922  24.494  18.019  0.0766 -0.2194 -0.0306
  646BOLB   C4B15492  34.732  24.130  18.181 -0.0306  0.2016 -0.0582
  646BOLB   NC215493  35.437  22.075  16.205  0.1042  0.0287 -0.0104
  646BOLB   PO215494  35.498  22.473  15.955 -0.0299  0.1005 -0.3316
  646BOLB   GL315495  35.337  22.678  16.273  0.4344  0.2737 -0.1374
  646BOLB   GL415496  34.959  22.662  16.240  0.1161 -0.3506  0.0066
  646BOLB   C1C15497  35.171  22.664  16.684 -0.1061 -0.1685 -0.0979
  646BOLB   C2C15498  34.842  22.859  16.994  0.1228  0.1060 -0.1121
  646BOLB   C3C15499  34.720  23.099  17.263  0.0947 -0.2886  0.1182
  646BOLB   C4C15500  34.596  23.462  17.507 -0.0232  0.2718  0.1017
  646BOLB   C1D15501  34.736  22.991  16.438 -0.0538 -0.4236 -0.1921
  646BOLB   C2D15502  34.358  23.027  16.695  0.1063  0.2600  0.1946
  646BOLB   C3D15503  33.937  22.887  16.854 -0.1864  0.0647  0.3117
  646BOLB   C4D15504  33.671  22.952  17.176  0.0490 -0.2211  0.0982
  647BOLB   NC115505  34.725  27.985  16.949  0.0866  0.1689 -0.0254
  647BOLB   PO115506  34.406  28.242  16.699  0.0119  0.4829  0.1619
  647BOLB   GL115507  34.392  28.193  16.310 -0.2970  0.1816  0.0565
  647BOLB   GL215508  34.736  28.069  16.337  0.1890 -0.0789 -0.1360
  647BOLB   C1A15509  34.452  27.806  15.972 -0.4260  0.1594  0.1293
  647BOLB   C2A15510  34.700  27.518  15.778  0.1856  0.1122  0.0973
  647BOLB   C3A15511  34.888  27.195  15.475 -0.1217 -0.4782 -0.0923
  647BOLB   C4A15512  34.975  26.968  15.052 -0.2907 -0.2738 -0.2116
  647BOLB   C1B15513  35.082  28.096  16.404  0.3993  0.2534  0.2023
  647BOLB   C2B15514  35.479  28.145  16.461  0.1550 -0.2887 -0.2849
  647BOLB   C3B15515  35.834  28.440  16.418  0.1275 -0.1052  0.0068
  647BOLB   C4B15516  35.870  28.939  16.363  0.2213  0.0371  0.2256
  647BOLB   NC215517  35.592  26.052  13.200 -0.1229 -0.1004  0.2760
  647BOLB   PO215518  35.943  26.124  13.520  0.0615  0.1585  0.1978
  647BOLB   GL315519  35.578  25.983  13.711 -0.0008  0.0931  0.3772
  647BOLB   GL415520  35.836  25.897  13.951  0.0888 -0.0315  0.5077
  647BOLB   C1C15521  35.356  25.837  13.947 -0.1371 -0.0535  0.0735
  647BOLB   C2C15522  35.263  25.983  14.250  0.3872 -0.2023  0.0523
  647BOLB   C3C15523  35.347  26.448  14.460 -0.2446  0.3263 -0.0332
  647BOLB   C4C15524  35.128  26.653  14.889  0.1309  0.1674  0.0215
  647BOLB   C1D15525  35.695  25.661  14.303 -0.0585 -0.1479  0.0680
  647BOLB   C2D15526  35.478  25.834  14.669  0.1986 -0.1891  0.2953
  647BOLB   C3D15527  35.080  25.586  14.838 -0.0604 -0.1974 -0.1866
  647BOLB   C4D15528  34.676  25.459  14.934 -0.2020 -0.0928  0.1751
  648BOLB   NC115529  30.721  26.596  14.793  0.2321 -0.2233 -0.2360
  648BOLB   PO115530  31.228  26.375  14.915  0.1702  0.3193  0.2419
  648BOLB   GL115531  31.668  26.402  14.685  0.0057  0.0084  0.1715
  648BOLB   GL215532  31.625  26.758  14.421  0.1137  0.1269 -0.0292
  648BOLB   C1A15533  32.029  26.066  14.573  0.2663 -0.0441  0.3120
  648BOLB   C2A15534  32.214  25.640  14.348 -0.0609  0.2805  0.3111
  648BOLB   C3A15535  32.181  25.208  14.155 -0.0583 -0.0206  0.1784
  648BOLB   C4A15536  32.256  25.128  13.731  0.0689  0.0315 -0.0620
  648BOLB   C1B15537  31.819  26.468  14.180  0.0143  0.0537  0.1736
  648BOLB   C2B15538  31.902  26.217  13.723 -0.0075  0.0701 -0.1753
  648BOLB   C3B15539  32.050  26.328  13.311 -0.0604 -0.0923 -0.0070
  648BOLB   C4B15540  32.521  26.366  13.211  0.0096 -0.0076 -0.0784
  648BOLB   NC215541  32.348  23.645  11.994  0.1351 -0.4107 -0.0166
  648BOLB   PO215542  32.351  23.908  12.321 -0.0506  0.1978 -0.4357
  648BOLB   GL315543  32.435  24.271  12.278 -0.0726 -0.1279 -0.3592
  648BOLB   GL415544  32.775  24.389  12.497 -0.3355  0.0557 -0.0409
  648BOLB   C1C15545  32.347  24.702  12.301 -0.3616 -0.0891  0.2843
  648BOLB   C2C15546  32.302  24.860  12.559 -0.1162  0.0871  0.1363
  648BOLB   C3C15547  32.440  25.035  12.940  0.3080 -0.0761 -0.0379
  648BOLB   C4C15548  32.522  24.981  13.424 -0.1501 -0.1475  0.1453
  648BOLB   C1D15549  32.484  24.409  12.748 -0.0192 -0.0192  0.1535
  648BOLB   C2D15550  32.464  24.517  13.229  0.1399 -0.0151 -0.2047
  648BOLB   C3D15551  32.260  24.236  13.586 -0.4062  0.0029  0.3543
  648BOLB   C4D15552  32.013  23.870  13.645 -0.0523 -0.0643 -0.2219
  649BOLB   NC115553  34.612  34.872  21.105  0.1336  0.1131  0.0928
  649BOLB   PO115554  34.658  35.246  21.176  0.0990 -0.2819  0.0685
  649BOLB   GL115555  34.902  35.471  21.265 -0.0013 -0.2993  0.0994
  649BOLB   GL215556  35.147  35.394  21.274 -0.0790 -0.1052 -0.0461
  649BOLB   C1A15557  34.962  35.900  21.387 -0.1643 -0.1928 -0.0034
  649BOLB   C2A15558  35.327  36.184  21.433  0.0657  0.0385  0.1115
  649BOLB   C3A15559  35.676  36.423  21.590 -0.1773 -0.0396 -0.0345
  649BOLB   C4A15560  35.819  36.525  21.958 -0.2453  0.3042 -0.2260
  649BOLB   C1B15561  35.444  35.636  21.277 -0.0218  0.1942  0.4093
  649BOLB   C2B15562  35.832  35.887  21.198  0.0016  0.0300 -0.0656
  649BOLB   C3B15563  35.935  36.300  21.175 -0.1212  0.1934 -0.1291
  649BOLB   C4B15564  35.552  36.528  21.049  0.0408 -0.0720 -0.2191
  649BOLB   NC215565  37.104  38.166  23.782  0.2270  0.0982 -0.2398
  649BOLB   PO215566  37.334  37.768  23.471  0.3272  0.0978 -0.1527
  649BOLB   GL315567  37.055  37.445  23.290  0.1292  0.0446  0.0283
  649BOLB   GL415568  36.835  37.179  23.434  0.1868  0.0337 -0.1554
  649BOLB   C1C15569  36.883  37.361  22.944  0.3014 -0.1175 -0.0304
  649BOLB   C2C15570  36.681  37.025  22.868  0.4276  0.1591  0.0869
  649BOLB   C3C15571  36.441  36.910  22.513  0.2239 -0.0565 -0.3641
  649BOLB   C4C15572  36.189  36.712  22.182 -0.2510 -0.2144  0.3017
  649BOLB   C1D15573  36.393  37.195  23.264 -0.0690 -0.0922 -0.0136
  649BOLB   C2D15574  36.012  37.249  23.080  0.5109  0.2688 -0.3194
  649BOLB   C3D15575  35.640  37.181  23.116  0.0556  0.2490  0.0740
  649BOLB   C4D15576  35.205  37.110  23.140 -0.0357 -0.0883  0.0058
  650BOLB   NC115577  26.509  31.041   2.499 -0.0692  0.0499  0.1698
  650BOLB   PO115578  26.568  30.958   2.901 -0.2368  0.2536 -0.1302
  650BOLB   GL115579  26.682  30.850   3.325  0.0477 -0.0561 -0.0179
  650BOLB   GL215580  26.479  30.722   3.621 -0.1353  0.0236 -0.2763
  650BOLB   C1A15581  27.022  30.872   3.652  0.0653 -0.0880  0.0519
  650BOLB   C2A15582  27.081  30.855   4.095 -0.1879  0.1958  0.0361
  650BOLB   C3A15583  26.981  31.118   4.376  0.1397  0.0720  0.1661
  650BOLB   C4A15584  26.982  31.246   4.722 -0.2379  0.2857 -0.1703
  650BOLB   C1B15585  26.551  30.856   4.015 -0.4275  0.3387  0.0429
  650BOLB   C2B15586  26.507  30.925   4.489 -0.1107 -0.1371  0.1658
  650BOLB   C3B15587  26.400  30.689   4.855  0.0824  0.0205  0.0775
  650BOLB   C4B15588  26.407  30.749   5.228 -0.1189  0.0346 -0.3341
  650BOLB   NC215589  27.768  32.405   7.137  0.0263  0.1831 -0.1973
  650BOLB   PO215590  27.682  32.164   6.754  0.2795  0.1516  0.2236
  650BOLB   GL315591  27.644  32.170   6.350  0.0273 -0.1321  0.0545
  650BOLB   GL415592  27.992  32.171   6.345  0.1488  0.3013 -0.3728
  650BOLB   C1C15593  27.648  31.792   6.109  0.0177  0.1168  0.0207
  650BOLB   C2C15594  27.605  31.388   5.873 -0.0309 -0.0320  0.3649
  650BOLB   C3C15595  27.420  31.275   5.454 -0.0795 -0.0375 -0.4345
  650BOLB   C4C15596  27.067  31.213   5.103 -0.1966 -0.0499 -0.0424
  650BOLB   C1D15597  28.200  32.266   5.971  0.1615  0.0294  0.0443
  650BOLB   C2D15598  28.363  31.981   5.592 -0.4671  0.0951  0.2960
  650BOLB   C3D15599  28.261  31.971   5.246  0.0768  0.2067  0.2679
  650BOLB   C4D15600  28.299  31.700   4.863  0.0414 -0.1035  0.0020
  651BOLB   NC115601  34.123  27.130  18.440 -0.0639 -0.2019 -0.1631
  651BOLB   PO115602  34.045  26.724  18.595 -0.1932 -0.2131 -0.0276
  651BOLB   GL115603  34.247  26.414  18.368 -0.2952 -0.1455 -0.0945
  651BOLB   GL215604  34.552  26.704  18.326 -0.1861  0.1242  0.0671
  651BOLB   C1A15605  34.552  26.202  18.281 -0.0347 -0.0664  0.0596
  651BOLB   C2A15606  34.925  26.038  18.060  0.0172  0.2789 -0.0487
  651BOLB   C3A15607  35.338  25.996  17.935 -0.3250 -0.2800  0.2387
  651BOLB   C4A15608  35.679  26.148  17.722 -0.0139 -0.4366 -0.0821
  651BOLB   C1B15609  34.915  26.447  18.460  0.0193 -0.0874 -0.0214
  651BOLB   C2B15610  35.243  26.174  18.594 -0.1587  0.0201  0.2733
  651BOLB   C3B15611  35.602  25.883  18.494  0.1052  0.2283  0.2363
  651BOLB   C4B15612  35.837  25.705  18.154 -0.3131 -0.1267  0.0078
  651BOLB   NC215613  37.652  24.271  16.805 -0.1538  0.2969  0.2209
  651BOLB   PO215614  37.339  24.378  17.076 -0.0541 -0.0425  0.0336
  651BOLB   GL315615  37.133  24.675  17.166  0.3518  0.0730  0.1877
  651BOLB   GL415616  37.137  24.780  17.427 -0.1828  0.2066 -0.3044
  651BOLB   C1C15617  36.683  24.803  17.150 -0.2784 -0.0388  0.2383
  651BOLB   C2C15618  36.492  25.202  17.311 -0.3725  0.1431  0.0555
  651BOLB   C3C15619  36.236  25.498  17.483  0.1290 -0.0008  0.1666
  651BOLB   C4C15620  36.003  25.838  17.582  0.2278  0.0436  0.0461
  651BOLB   C1D15621  36.948  25.138  17.540  0.0715  0.0511 -0.0729
  651BOLB   C2D15622  36.700  25.380  17.823  0.1427 -0.1376  0.0561
  651BOLB   C3D15623  36.321  25.573  17.947  0.1806  0.0456 -0.5138
  651BOLB   C4D15624  35.974  25.385  17.880 -0.0962  0.2514  0.1301
  652BOLB   NC115625  21.897  35.004  23.964  0.1096 -0.1674 -0.1932
  652BOLB   PO115626  21.996  35.287  24.339  0.2488  0.3765 -0.0167
  652BOLB   GL115627  21.714  35.578  24.576  0.1199 -0.0403  0.1339
  652BOLB   GL215628  21.543  35.324  24.757 -0.1587  0.2524 -0.1411
  652BOLB   C1A15629  21.579  36.048  24.619 -0.3419 -0.1760 -0.0334
  652BOLB   C2A15630  21.412  36.261  24.856  0.1095 -0.0220  0.1570
  652BOLB   C3A15631  21.490  36.533  25.117 -0.0911  0.1713  0.0739
  652BOLB   C4A15632  21.282  36.859  25.023  0.0702 -0.0818 -0.0358
  652BOLB   C1B15633  21.486  35.699  25.010  0.0696 -0.2836  0.2077
  652BOLB   C2B15634  21.373  36.040  25.293 -0.2217  0.5190  0.2253
  652BOLB   C3B15635  21.604  35.911  25.553 -0.2896 -0.0743 -0.0051
  652BOLB   C4B15636  21.657  36.132  25.957 -0.3127 -0.1994 -0.1666
  652BOLB   NC215637  19.378  37.835  24.033 -0.4238  0.1112  0.0430
  652BOLB   PO215638  19.028  37.904  24.301 -0.1303 -0.0529  0.0310
  652BOLB   GL315639  19.474  37.643  24.510  0.1168  0.2184  0.1691
  652BOLB   GL415640  19.447  37.400  24.702  0.1940  0.0320 -0.2178
  652BOLB   C1C15641  19.860  37.571  24.444 -0.0033 -0.4825 -0.1272
  652BOLB   C2C15642  20.126  37.253  24.414 -0.1272  0.2028 -0.2031
  652BOLB   C3C15643  20.556  37.153  24.727 -0.2622 -0.0985  0.0924
  652BOLB   C4C15644  20.911  36.993  24.826 -0.7248 -0.0993  0.1124
  652BOLB   C1D15645  19.623  37.027  24.575  0.1046 -0.1376 -0.1796
  652BOLB   C2D15646  19.927  36.727  24.633 -0.1692 -0.0986 -0.0895
  652BOLB   C3D15647  20.144  36.680  24.305 -0.1516  0.1288 -0.0426
  652BOLB   C4D15648  20.439  36.759  23.930  0.0153 -0.1858  0.6116
  653BOLB   NC115649  34.295  25.408  23.071  0.0612  0.1580 -0.2680
  653BOLB   PO115650  34.386  25.109  23.404 -0.2955  0.3474  0.1606
  653BOLB   GL115651  34.831  25.037  23.547  0.0184 -0.1101 -0.0576
  653BOLB   GL215652  35.056  25.382  23.377 -0.0340  0.2390  0.0274
  653BOLB   C1A15653  35.139  24.985  23.795 -0.1975  0.1901 -0.1368
  653BOLB   C2A15654  35.520  24.999  23.973  0.1489 -0.0140 -0.0157
  653BOLB   C3A15655  35.874  24.800  24.114  0.4398 -0.2438  0.0009
  653BOLB   C4A15656  36.183  24.503  24.347  0.2063  0.0293  0.1286
  653BOLB   C1B15657  35.397  25.188  23.380 -0.2253  0.2651  0.0392
  653BOLB   C2B15658  35.477  24.766  23.545 -0.0906  0.2030  0.1395
  653BOLB   C3B15659  35.684  24.441  23.781  0.0150 -0.0334 -0.4045
  653BOLB   C4B15660  35.952  24.130  23.959 -0.3333  0.1277  0.0584
  653BOLB   NC215661  37.921  23.081  23.673 -0.1574 -0.2371  0.0808
  653BOLB   PO215662  37.779  23.029  24.115  0.1001 -0.1175  0.2133
  653BOLB   GL315663  37.358  22.949  23.987 -0.0129  0.1663  0.1255
  653BOLB   GL415664  37.187  22.712  23.785 -0.4003  0.2199 -0.5079
  653BOLB   C1C15665  36.864  22.989  24.055 -0.0053  0.0677 -0.0619
  653BOLB   C2C15666  36.572  23.363  23.968 -0.0886  0.1730 -0.0265
  653BOLB   C3C15667  36.379  23.675  24.279  0.0924 -0.2551  0.1947
  653BOLB   C4C15668  36.407  24.155  24.238 -0.0582 -0.4680  0.0605
  653BOLB   C1D15669  37.026  23.118  23.603 -0.0928 -0.1025 -0.0860
  653BOLB   C2D15670  36.953  23.534  23.725  0.4004 -0.0052 -0.1976
  653BOLB   C3D15671  36.497  23.889  23.816 -0.2098  0.0127 -0.0015
  653BOLB   C4D15672  36.192  24.064  23.554  0.1974 -0.2091  0.1092
  654BOLB   NC115673  26.051  31.834  14.057  0.1394 -0.5221 -0.4022
  654BOLB   PO115674  26.275  32.052  13.722  0.1341  0.0562 -0.3028
  654BOLB   GL115675  26.326  32.289  13.398  0.0855 -0.1601 -0.0679
  654BOLB   GL215676  26.498  32.589  13.665 -0.5284 -0.1754  0.0546
  654BOLB   C1A15677  26.359  32.590  13.135 -0.1149  0.0790 -0.1741
  654BOLB   C2A15678  26.192  32.818  12.825  0.2305  0.0490  0.2053
  654BOLB   C3A15679  26.134  32.800  12.411 -0.0914 -0.1396 -0.0432
  654BOLB   C4A15680  26.180  32.595  12.168 -0.2249 -0.1327  0.2150
  654BOLB   C1B15681  26.537  32.972  13.450  0.1224  0.0416  0.0626
  654BOLB   C2B15682  26.533  33.131  13.075 -0.0424  0.0213 -0.3718
  654BOLB   C3B15683  26.900  33.107  12.828  0.1666  0.1783 -0.0680
  654BOLB   C4B15684  27.295  32.889  12.780  0.0321  0.0905 -0.1946
  654BOLB   NC215685  27.058  33.105  10.086  0.2366  0.1625 -0.2984
  654BOLB   PO215686  27.012  33.511  10.213  0.3836  0.0243  0.0502
  654BOLB   GL315687  26.738  33.216  10.450 -0.0618  0.0300 -0.0381
  654BOLB   GL415688  26.899  33.011  10.577  0.0415 -0.1051  0.0315
  654BOLB   C1C15689  26.437  33.039  10.645  0.2193  0.2215  0.2280
  654BOLB   C2C15690  26.186  32.882  10.954 -0.0942 -0.4664  0.2795
  654BOLB   C3C15691  26.252  32.715  11.353  0.1079 -0.1925  0.0971
  654BOLB   C4C15692  26.318  32.631  11.807  0.0318  0.0043 -0.2112
  654BOLB   C1D15693  26.639  32.919  11.115  0.2130  0.1995 -0.0605
  654BOLB   C2D15694  26.725  32.893  11.594  0.0657  0.2224  0.0048
  654BOLB   C3D15695  26.579  33.084  12.021 -0.2367  0.1297  0.1436
  654BOLB   C4D15696  26.482  33.117  12.421 -0.0983  0.1745  0.1754
  655BOLB   NC115697  34.119  34.810  22.350  0.2006 -0.0790  0.1966
  655BOLB   PO115698  33.835  35.136  22.472  0.0114  0.0022 -0.0811
  655BOLB   GL115699  34.165  35.388  22.475 -0.2474  0.1251  0.1586
  655BOLB   GL215700  34.074  35.655  22.567 -0.1970  0.1313 -0.0818
  655BOLB   C1A15701  34.599  35.592  22.369  0.3730 -0.4395  0.1913
  655BOLB   C2A15702  35.021  35.927  22.363  0.0736  0.1552 -0.1577
  655BOLB   C3A15703  35.378  35.847  22.216 -0.2631 -0.1994  0.0534
  655BOLB   C4A15704  35.666  36.122  22.196  0.3469  0.0275  0.0331
  655BOLB   C1B15705  34.410  35.776  22.814  0.2743 -0.0760 -0.2173
  655BOLB   C2B15706  34.844  35.748  22.854 -0.5094 -0.0158  0.2044
  655BOLB   C3B15707  35.283  35.961  22.764  0.1085  0.1959 -0.3110
  655BOLB   C4B15708  35.489  36.230  22.670  0.4376 -0.0045  0.1507
  655BOLB   NC215709  36.911  38.616  23.084  0.1596 -0.2007  0.1951
  655BOLB   PO215710  36.717  38.334  23.368 -0.2025  0.0609 -0.4283
  655BOLB   GL315711  36.455  38.093  23.238  0.1032  0.1034  0.2455
  655BOLB   GL415712  36.225  38.099  23.596  0.3291  0.2698  0.0451
  655BOLB   C1C15713  36.376  37.786  22.844 -0.2130 -0.1366  0.1756
  655BOLB   C2C15714  36.207  37.393  22.625 -0.3156 -0.0622 -0.1908
  655BOLB   C3C15715  36.056  36.880  22.745  0.2742 -0.2051 -0.0991
  655BOLB   C4C15716  35.849  36.519  22.467 -0.3981  0.2961 -0.0033
  655BOLB   C1D15717  35.692  37.993  23.505 -0.2806 -0.2031 -0.1778
  655BOLB   C2D15718  35.379  38.019  23.734  0.2988 -0.0984  0.0227
  655BOLB   C3D15719  35.035  37.762  23.770  0.1696 -0.0009 -0.1608
  655BOLB   C4D15720  34.679  37.619  23.609  0.0422 -0.2726 -0.1205
  656BOLB   NC115721  21.735  33.816  17.662  0.0172  0.1908  0.0166
  656BOLB   PO115722  21.805  34.166  17.728  0.1649  0.2020 -0.1354
  656BOLB   GL115723  21.528  34.185  17.467  0.1561 -0.0939 -0.1895
  656BOLB   GL215724  21.285  33.984  17.534 -0.2559  0.1572  0.4702
  656BOLB   C1A15725  21.498  34.156  16.949 -0.3717 -0.0316 -0.1026
  656BOLB   C2A15726  21.180  34.298  16.738 -0.1582 -0.3303  0.1799
  656BOLB   C3A15727  21.016  34.502  16.359  0.0490 -0.2475  0.0807
  656BOLB   C4A15728  20.848  34.560  16.006 -0.1693  0.1394 -0.3099
  656BOLB   C1B15729  21.089  34.094  17.221  0.0683  0.1729 -0.3683
  656BOLB   C2B15730  20.729  34.227  17.179 -0.0746 -0.0450 -0.2068
  656BOLB   C3B15731  20.389  34.466  17.103  0.1869 -0.1260 -0.2501
  656BOLB   C4B15732  20.010  34.554  16.892 -0.2297  0.0309  0.0313
  656BOLB   NC215733  19.527  35.250  14.588 -0.1444 -0.0295  0.0067
  656BOLB   PO215734  19.222  34.922  14.387  0.1439 -0.0299 -0.1673
  656BOLB   GL315735  19.364  34.572  14.704 -0.2086 -0.0681 -0.1909
  656BOLB   GL415736  19.557  34.472  14.498 -0.2958 -0.2221  0.1325
  656BOLB   C1C15737  19.415  34.551  15.126 -0.2465  0.1154  0.1521
  656BOLB   C2C15738  19.596  34.669  15.453  0.1113 -0.2057 -0.2320
  656BOLB   C3C15739  20.067  34.644  15.659 -0.3227  0.0125 -0.0244
  656BOLB   C4C15740  20.474  34.663  15.843 -0.0063 -0.3113  0.1679
  656BOLB   C1D15741  19.893  34.406  14.633  0.0363  0.4321 -0.0518
  656BOLB   C2D15742  20.295  34.332  14.517  0.1850 -0.0609  0.0178
  656BOLB   C3D15743  20.382  33.911  14.308  0.2016  0.2496  0.0707
  656BOLB   C4D15744  20.653  33.938  14.007 -0.2223  0.1411  0.0854
  657BOLB   NC115745  31.740  22.682  22.633  0.0496  0.2602 -0.0013
  657BOLB   PO115746  31.763  22.403  22.277  0.0191 -0.0408 -0.2464
  657BOLB   GL115747  31.875  22.128  22.143 -0.2642  0.2580  0.1817
  657BOLB   GL215748  32.221  22.270  22.025  0.1138 -0.1665 -0.2648
  657BOLB   C1A15749  32.123  21.792  22.057  0.0169  0.0286 -0.1618
  657BOLB   C2A15750  31.989  21.390  21.923  0.1320 -0.1121  0.0070
  657BOLB   C3A15751  31.990  21.003  22.012 -0.1386  0.1670  0.0611
  657BOLB   C4A15752  32.273  20.616  21.843 -0.1085 -0.4030  0.2010
  657BOLB   C1B15753  32.626  22.171  22.107 -0.1650 -0.2286  0.0540
  657BOLB   C2B15754  32.994  22.006  21.916  0.3456 -0.1377 -0.1575
  657BOLB   C3B15755  33.315  21.691  21.917 -0.0662 -0.1230 -0.0510
  657BOLB   C4B15756  33.554  21.524  22.119  0.0375 -0.3360 -0.0305
  657BOLB   NC215757  34.221  19.130  21.442 -0.2705  0.0968  0.0550
  657BOLB   PO215758  33.861  18.958  21.339  0.0704 -0.0862 -0.0850
  657BOLB   GL315759  33.388  19.134  21.319 -0.1925  0.1649  0.2317
  657BOLB   GL415760  33.471  19.417  21.118 -0.3610 -0.0942  0.1187
  657BOLB   C1C15761  32.986  19.502  21.348  0.1632  0.2551 -0.0574
  657BOLB   C2C15762  32.932  19.858  21.186  0.0284 -0.0875  0.0269
  657BOLB   C3C15763  32.772  20.221  21.293 -0.0509 -0.1589 -0.0748
  657BOLB   C4C15764  32.622  20.351  21.753  0.3781  0.0245  0.5477
  657BOLB   C1D15765  33.541  19.682  21.495  0.0141 -0.3343 -0.0043
  657BOLB   C2D15766  33.187  19.750  21.842  0.0184 -0.0459 -0.3680
  657BOLB   C3D15767  33.074  19.854  22.233  0.3270  0.1572 -0.1394
  657BOLB   C4D15768  33.043  19.753  22.535 -0.0688 -0.0416  0.2202
  658BOLB   NC115769  28.664  37.869  23.279  0.0969  0.3746 -0.0159
  658BOLB   PO115770  28.939  38.038  22.855 -0.2478  0.1029 -0.1228
  658BOLB   GL115771  29.037  38.531  23.016 -0.0578 -0.3475 -0.2276
  658BOLB   GL215772  29.111  38.594  22.696 -0.1891  0.1707  0.0778
  658BOLB   C1A15773  29.016  39.032  22.815 -0.1916  0.0028 -0.0178
  658BOLB   C2A15774  29.357  39.299  22.881  0.1857  0.0126 -0.1053
  658BOLB   C3A15775  29.478  39.623  23.120 -0.0228  0.0212 -0.1062
  658BOLB   C4A15776  29.450  39.992  23.231  0.2654  0.4444 -0.1905
  658BOLB   C1B15777  29.506  38.867  22.553 -0.0373  0.2860 -0.2627
  658BOLB   C2B15778  29.789  39.213  22.598  0.1826 -0.0120 -0.3280
  658BOLB   C3B15779  29.955  39.496  22.910 -0.0651  0.1071 -0.3359
  658BOLB   C4B15780  30.020  39.815  23.233  0.1453 -0.2076  0.1926
  658BOLB   NC215781  29.828  42.502  23.366 -0.2597  0.2076  0.4944
  658BOLB   PO215782  29.670  42.141  23.170  0.1413  0.0241 -0.0183
  658BOLB   GL315783  29.546  41.791  23.433  0.1004 -0.0611  0.2065
  658BOLB   GL415784  29.237  41.772  23.582 -0.0706  0.3726 -0.2102
  658BOLB   C1C15785  29.707  41.368  23.474  0.1036 -0.2659  0.1658
  658BOLB   C2C15786  29.573  41.081  23.655 -0.2960  0.2844 -0.1354
  658BOLB   C3C15787  29.411  40.705  23.616  0.0539 -0.0596  0.0168
  658BOLB   C4C15788  29.231  40.336  23.318  0.0875  0.1090  0.0786
  658BOLB   C1D15789  29.232  41.399  23.441  0.2637 -0.2223  0.1103
  658BOLB   C2D15790  28.989  40.972  23.338 -0.0460 -0.3489 -0.0524
  658BOLB   C3D15791  28.961  40.655  23.047  0.0638  0.2040 -0.0246
  658BOLB   C4D15792  28.877  40.246  22.960 -0.1347 -0.2254  0.3177
  659BOLB   NC115793  34.474  32.135  17.804  0.1859  0.1160 -0.0159
  659BOLB   PO115794  34.750  31.844  17.653  0.0960 -0.2435  0.3460
  659BOLB   GL115795  35.142  32.082  17.404  0.1604 -0.0069  0.2300
  659BOLB   GL215796  35.341  32.348  17.629  0.0903  0.1008  0.2073
  659BOLB   C1A15797  35.291  32.343  17.134 -0.0541 -0.3039 -0.0838
  659BOLB   C2A15798  35.515  32.420  16.732 -0.2216  0.3059  0.2788
  659BOLB   C3A15799  35.559  32.487  16.304  0.0931  0.1740  0.0098
  659BOLB   C4A15800  35.639  32.500  15.862  0.2554 -0.0945  0.0282
  659BOLB   C1B15801  35.710  32.054  17.450  0.1014  0.0896 -0.1867
  659BOLB   C2B15802  35.977  31.810  17.254 -0.1313  0.2418 -0.0585
  659BOLB   C3B15803  36.023  31.692  16.892  0.1194 -0.2534  0.1112
  659BOLB   C4B15804  36.254  31.991  16.601 -0.0770  0.2805  0.0852
  659BOLB   NC215805  36.648  33.347  14.013  0.0013  0.1226  0.4034
  659BOLB   PO215806  36.502  32.948  13.856 -0.2246 -0.0124 -0.0373
  659BOLB   GL315807  36.139  32.728  14.080 -0.5644 -0.2178  0.1375
  659BOLB   GL415808  35.895  32.839  13.884 -0.0742 -0.0509  0.1504
  659BOLB   C1C15809  35.718  32.580  14.259 -0.1036 -0.0513  0.1487
  659BOLB   C2C15810  35.371  32.429  14.676  0.3669  0.0988 -0.0952
  659BOLB   C3C15811  35.340  32.463  15.051  0.2522  0.0548  0.1550
  659BOLB   C4C15812  35.447  32.552  15.556 -0.2705  0.0869 -0.2655
  659BOLB   C1D15813  35.734  33.150  14.189 -0.2665 -0.0217 -0.3496
  659BOLB   C2D15814  35.752  33.400  14.509  0.4599  0.0539 -0.1115
  659BOLB   C3D15815  35.461  33.746  14.624  0.1510  0.0390  0.0890
  659BOLB   C4D15816  35.157  33.564  14.774 -0.1058  0.1545 -0.0261
  660BOLB   NC115817  34.898  27.088  19.287 -0.0055  0.3406  0.2501
  660BOLB   PO115818  35.016  27.377  18.994 -0.4583  0.0116 -0.0926
  660BOLB   GL115819  35.445  27.502  18.914  0.0772  0.0297  0.1748
  660BOLB   GL215820  35.655  27.570  19.072 -0.0808  0.0577  0.1077
  660BOLB   C1A15821  35.754  27.312  18.651 -0.1517  0.1412 -0.2893
  660BOLB   C2A15822  36.121  27.248  18.373  0.0184  0.0618  0.3580
  660BOLB   C3A15823  36.446  27.506  18.072 -0.0189 -0.0095  0.0373
  660BOLB   C4A15824  36.623  27.356  17.671  0.0119 -0.1427  0.1204
  660BOLB   C1B15825  36.122  27.445  18.914  0.1089  0.2974  0.0166
  660BOLB   C2B15826  36.562  27.419  18.648  0.3122  0.0542 -0.3284
  660BOLB   C3B15827  36.850  27.270  18.292  0.2245 -0.0890  0.1362
  660BOLB   C4B15828  37.112  27.382  17.932  0.0055  0.0850 -0.0339
  660BOLB   NC215829  39.288  26.369  16.627  0.1624 -0.2723 -0.1259
  660BOLB   PO215830  38.756  26.309  16.801  0.0361 -0.2090 -0.1133
  660BOLB   GL315831  38.350  26.496  16.960  0.1951  0.0461  0.0373
  660BOLB   GL415832  38.176  26.238  17.023 -0.1119  0.1140  0.0576
  660BOLB   C1C15833  38.152  26.892  17.130 -0.2199  0.0492  0.1693
  660BOLB   C2C15834  37.825  27.157  17.406  0.0895  0.2600 -0.2278
  660BOLB   C3C15835  37.446  27.189  17.426  0.2438 -0.1510  0.0696
  660BOLB   C4C15836  37.055  27.314  17.449 -0.1957  0.0735  0.1418
  660BOLB   C1D15837  37.796  26.357  17.102  0.2854 -0.1525  0.0217
  660BOLB   C2D15838  37.538  26.680  17.177  0.0078 -0.0705 -0.1963
  660BOLB   C3D15839  37.136  26.787  17.283 -0.1154 -0.2865  0.0728
  660BOLB   C4D15840  36.811  26.937  17.466 -0.0146  0.4637 -0.1340
  661BOLB   NC115841  22.524  35.587  20.081  0.0347 -0.0183  0.0291
  661BOLB   PO115842  22.158  35.344  20.000 -0.1852 -0.0493 -0.1528
  661BOLB   GL115843  21.997  35.687  19.893 -0.0862 -0.1559 -0.2596
  661BOLB   GL215844  22.162  35.900  19.969 -0.0468 -0.1111  0.2255
  661BOLB   C1A15845  21.553  35.901  20.010  0.3029 -0.0289  0.3790
  661BOLB   C2A15846  21.201  36.269  20.012 -0.1340 -0.4175 -0.1313
  661BOLB   C3A15847  20.892  36.584  19.794 -0.0803  0.1625 -0.1667
  661BOLB   C4A15848  20.762  37.013  19.768 -0.1489 -0.2704 -0.1170
  661BOLB   C1B15849  21.863  36.176  20.270 -0.1930  0.1886 -0.0161
  661BOLB   C2B15850  21.646  36.574  20.431  0.0308 -0.0051  0.2890
  661BOLB   C3B15851  21.385  36.814  20.234  0.1347 -0.1973  0.1288
  661BOLB   C4B15852  21.271  37.067  19.895 -0.0067  0.1562  0.1320
  661BOLB   NC215853  20.410  39.635  18.966 -0.2509  0.1405 -0.1913
  661BOLB   PO215854  20.637  39.242  19.070  0.1959 -0.1973  0.1296
  661BOLB   GL315855  20.627  38.782  19.105 -0.1680  0.1448  0.1330
  661BOLB   GL415856  20.415  38.648  18.829 -0.1936 -0.3828 -0.1362
  661BOLB   C1C15857  20.853  38.373  19.202 -0.0065  0.0678 -0.1140
  661BOLB   C2C15858  20.999  38.093  19.433 -0.0909 -0.0729  0.0157
  661BOLB   C3C15859  21.076  37.701  19.507  0.0991  0.1267  0.1472
  661BOLB   C4C15860  20.949  37.333  19.603  0.2049 -0.0928  0.1706
  661BOLB   C1D15861  20.836  38.528  18.682  0.3011  0.0741 -0.2071
  661BOLB   C2D15862  21.153  38.257  18.820 -0.5580  0.2325  0.4290
  661BOLB   C3D15863  21.384  38.076  19.101 -0.3209  0.3139  0.1659
  661BOLB   C4D15864  21.701  38.213  19.378 -0.3193  0.3485  0.2094
  662BOLB   NC115865  30.526  37.597  22.288 -0.1896  0.0945  0.1452
  662BOLB   PO115866  30.850  37.536  22.530  0.0524 -0.3011 -0.0437
  662BOLB   GL115867  30.986  37.932  22.507 -0.0244  0.1161 -0.0492
  662BOLB   GL215868  30.838  38.166  22.581  0.0822  0.2026 -0.1414
  662BOLB   C1A15869  31.332  38.087  22.354 -0.1079 -0.0701 -0.1263
  662BOLB   C2A15870  31.533  38.518  22.359  0.0554 -0.3368  0.2872
  662BOLB   C3A15871  31.656  38.888  22.346  0.1536 -0.0560 -0.0992
  662BOLB   C4A15872  31.927  39.219  21.996  0.2219 -0.0124  0.0854
  662BOLB   C1B15873  30.999  38.449  22.323 -0.1082  0.1157 -0.4132
  662BOLB   C2B15874  31.155  38.867  22.250  0.1958  0.2264  0.0299
  662BOLB   C3B15875  30.973  39.179  22.342  0.2594  0.1950 -0.1472
  662BOLB   C4B15876  31.211  39.422  22.596 -0.0346 -0.1453 -0.2180
  662BOLB   NC215877  33.659  40.857  21.557  0.3757 -0.0711  0.0003
  662BOLB   PO215878  33.574  40.460  21.741  0.0716 -0.1313 -0.1170
  662BOLB   GL315879  33.255  40.165  21.846 -0.0218  0.1572 -0.0138
  662BOLB   GL415880  33.363  39.846  22.029 -0.2483 -0.1410  0.2497
  662BOLB   C1C15881  33.076  39.886  21.658  0.1521  0.4218 -0.0092
  662BOLB   C2C15882  32.677  39.956  21.616 -0.1028 -0.1505  0.0161
  662BOLB   C3C15883  32.276  39.884  21.578 -0.1569  0.3723  0.1608
  662BOLB   C4C15884  32.091  39.519  21.615  0.1858  0.0022  0.2952
  662BOLB   C1D15885  33.335  39.459  21.792 -0.0631 -0.3064  0.0660
  662BOLB   C2D15886  33.178  39.092  21.780  0.0481 -0.1764 -0.1417
  662BOLB   C3D15887  32.912  38.960  21.453 -0.0723 -0.0806 -0.0910
  662BOLB   C4D15888  32.593  38.781  21.180  0.1977 -0.0220 -0.1718
  663BOLB   NC115889  29.418  37.415  19.946  0.2092  0.1072 -0.1040
  663BOLB   PO115890  29.001  37.660  19.744  0.0133 -0.1740 -0.2860
  663BOLB   GL115891  28.911  37.992  19.873 -0.1180  0.2311  0.2065
  663BOLB   GL215892  29.004  38.090  19.490 -0.0130 -0.3100 -0.0257
  663BOLB   C1A15893  28.804  38.416  19.847  0.1050 -0.1387  0.0446
  663BOLB   C2A15894  28.773  38.814  19.862 -0.2139 -0.0259  0.1559
  663BOLB   C3A15895  28.757  39.237  19.759  0.1658  0.3294 -0.1460
  663BOLB   C4A15896  28.809  39.658  19.746  0.1892  0.0172 -0.1882
  663BOLB   C1B15897  29.241  38.369  19.517  0.2300 -0.2329  0.3831
  663BOLB   C2B15898  29.265  38.786  19.523  0.0866  0.2269  0.1662
  663BOLB   C3B15899  29.258  39.111  19.240  0.1549 -0.2233  0.3640
  663BOLB   C4B15900  29.201  39.585  18.963 -0.3230 -0.3601 -0.1326
  663BOLB   NC215901  28.396  41.652  18.845  0.2452 -0.1122  0.0273
  663BOLB   PO215902  28.524  41.815  18.496 -0.1194 -0.0891  0.2431
  663BOLB   GL315903  28.658  41.329  18.525  0.0366 -0.2491 -0.1634
  663BOLB   GL415904  29.088  41.123  18.558  0.1282  0.0284 -0.0792
  663BOLB   C1C15905  28.664  40.943  18.735 -0.0110 -0.1977 -0.1587
  663BOLB   C2C15906  28.823  40.547  18.929 -0.2825 -0.0731  0.2717
  663BOLB   C3C15907  28.631  40.256  19.167  0.3108 -0.1646  0.0581
  663BOLB   C4C15908  28.605  40.035  19.626  0.2099  0.4718 -0.1399
  663BOLB   C1D15909  29.025  40.719  18.459  0.1964 -0.0640 -0.1936
  663BOLB   C2D15910  29.058  40.226  18.591 -0.3515  0.1192 -0.1519
  663BOLB   C3D15911  29.477  40.050  18.712 -0.2500  0.1384 -0.1129
  663BOLB   C4D15912  29.686  39.715  18.898 -0.0671  0.0058 -0.2543
  664BOLB   NC115913  33.149  35.831  19.851 -0.1026 -0.2168  0.0366
  664BOLB   PO115914  33.195  35.626  19.467 -0.1921  0.0838 -0.3461
  664BOLB   GL115915  33.342  36.062  19.381  0.3359 -0.1395 -0.0986
  664BOLB   GL215916  33.501  36.042  19.064  0.2319  0.1431  0.1146
  664BOLB   C1A15917  33.680  36.394  19.557 -0.1569 -0.1953 -0.0933
  664BOLB   C2A15918  33.954  36.748  19.274 -0.0764  0.2314  0.3428
  664BOLB   C3A15919  34.031  37.135  19.029 -0.0965 -0.3585  0.0752
  664BOLB   C4A15920  34.093  37.553  18.778  0.2446  0.2771 -0.0516
  664BOLB   C1B15921  33.495  36.470  18.917  0.1426 -0.2322  0.3837
  664BOLB   C2B15922  33.662  36.814  18.685 -0.2116  0.1176  0.1791
  664BOLB   C3B15923  33.709  37.244  18.671  0.4088 -0.3383  0.0880
  664BOLB   C4B15924  33.497  37.570  18.306  0.1042 -0.0705  0.0238
  664BOLB   NC215925  36.058  39.049  18.221 -0.0353 -0.0912 -0.0058
  664BOLB   PO215926  35.690  39.068  17.990  0.0058  0.2063  0.0184
  664BOLB   GL315927  35.507  38.690  18.133  0.1101  0.1365  0.0458
  664BOLB   GL415928  35.355  38.544  17.936  0.0156 -0.5428  0.2573
  664BOLB   C1C15929  35.408  38.307  18.385  0.1893 -0.0490 -0.2157
  664BOLB   C2C15930  35.095  37.987  18.269 -0.1644 -0.0380  0.1896
  664BOLB   C3C15931  34.770  37.736  18.337  0.0762  0.1235  0.1565
  664BOLB   C4C15932  34.360  37.552  18.424 -0.0483  0.2844 -0.0387
  664BOLB   C1D15933  34.955  38.459  18.136  0.2389 -0.0350 -0.1354
  664BOLB   C2D15934  34.582  38.220  18.188 -0.2472 -0.0644 -0.0247
  664BOLB   C3D15935  34.259  37.949  18.082 -0.0284  0.3512 -0.1144
  664BOLB   C4D15936  33.921  37.602  17.969  0.0615 -0.0202 -0.0381
  665BOLB   NC115937  34.760  35.999   2.925 -0.0700  0.0212  0.0684
  665BOLB   PO115938  34.907  36.028   2.489  0.4570 -0.2729  0.0336
  665BOLB   GL115939  34.758  36.048   2.059  0.1562  0.1693  0.1784
  665BOLB   GL215940  34.847  36.390   1.877  0.2775 -0.0602  0.1917
  665BOLB   C1A15941  34.740  35.695   1.795  0.1462  0.0614 -0.3689
  665BOLB   C2A15942  34.647  35.357   1.702 -0.2231 -0.1896  0.4022
  665BOLB   C3A15943  34.237  35.176   1.628  0.1900  0.0729 -0.0525
  665BOLB   C4A15944  34.002  34.716   1.599 -0.0531  0.0102 -0.0952
  665BOLB   C1B15945  34.358  36.354   1.862  0.4206 -0.1572 -0.2128
  665BOLB   C2B15946  33.913  36.160   1.730 -0.2235 -0.3758  0.0881
  665BOLB   C3B15947  33.602  36.012   1.473  0.2262 -0.1333  0.1281
  665BOLB   C4B15948  33.387  35.638   1.449  0.1887 -0.0621  0.1499
  665BOLB   NC215949  35.407  34.840   3.865 -0.1615 -0.0703 -0.3636
  665BOLB   PO215950  35.266  34.766   3.445 -0.2508  0.3284  0.0969
  665BOLB   GL315951  34.941  34.454   3.197  0.0056  0.0917 -0.0784
  665BOLB   GL415952  34.720  34.328   3.386 -0.0634 -0.3313  0.0175
  665BOLB   C1C15953  34.867  34.263   2.857 -0.3620 -0.0104 -0.1143
  665BOLB   C2C15954  34.397  34.213   2.606 -0.0622 -0.2812 -0.0010
  665BOLB   C3C15955  33.994  34.242   2.359 -0.0437 -0.3345  0.1774
  665BOLB   C4C15956  33.858  34.462   2.006  0.2144 -0.0106 -0.2430
  665BOLB   C1D15957  34.599  33.993   3.154 -0.1053 -0.1013 -0.0043
  665BOLB   C2D15958  34.483  33.692   2.813 -0.0382  0.1826  0.0690
  665BOLB   C3D15959  34.373  33.492   2.475 -0.1360  0.0306 -0.1466
  665BOLB   C4D15960  34.146  33.333   2.097  0.1253 -0.3741 -0.0841
  666BOLB   NC115961  33.946  28.511  16.414 -0.4664 -0.0797 -0.1168
  666BOLB   PO115962  33.940  28.939  16.288  0.0373 -0.4689 -0.2290
  666BOLB   GL115963  34.234  28.752  16.054  0.1627  0.0336  0.0967
  666BOLB   GL215964  34.026  28.473  15.945 -0.1926  0.1822  0.2953
  666BOLB   C1A15965  34.667  28.813  15.839 -0.0484 -0.1821 -0.1218
  666BOLB   C2A15966  34.858  29.195  15.800 -0.1532 -0.0773 -0.0715
  666BOLB   C3A15967  35.397  29.111  15.914  0.0339  0.0713 -0.0233
  666BOLB   C4A15968  35.761  29.127  15.857 -0.3659  0.1675 -0.0205
  666BOLB   C1B15969  34.448  28.387  15.843  0.2864 -0.3132  0.2484
  666BOLB   C2B15970  34.781  28.064  15.706 -0.1760  0.2626  0.2316
  666BOLB   C3B15971  35.082  27.752  15.528 -0.2016 -0.0256 -0.1099
  666BOLB   C4B15972  35.371  27.510  15.606 -0.3273  0.2498  0.2096
  666BOLB   NC215973  37.542  28.065  14.885 -0.3306  0.1203 -0.0664
  666BOLB   PO215974  37.953  28.217  15.073  0.0181  0.0349  0.0572
  666BOLB   GL315975  37.629  28.330  15.440 -0.1834 -0.2034  0.1055
  666BOLB   GL415976  37.776  28.623  15.593 -0.2667 -0.2059  0.0260
  666BOLB   C1C15977  37.258  28.195  15.504 -0.1236  0.1527 -0.0984
  666BOLB   C2C15978  36.980  28.457  15.759  0.2723 -0.2034  0.1357
  666BOLB   C3C15979  36.581  28.740  15.853  0.0911 -0.1331  0.1431
  666BOLB   C4C15980  36.241  28.986  16.063  0.2380  0.0766 -0.3154
  666BOLB   C1D15981  37.496  28.487  15.923  0.0085  0.3468  0.1763
  666BOLB   C2D15982  37.192  28.129  16.117  0.0069 -0.0890  0.2814
  666BOLB   C3D15983  36.833  27.991  16.378 -0.1716 -0.0697  0.0196
  666BOLB   C4D15984  36.558  28.059  16.690 -0.2864  0.0686 -0.2672
  667BOLB   NC115985  34.522  25.341  23.851 -0.0077  0.0357  0.1119
  667BOLB   PO115986  34.269  25.208  24.215 -0.1928  0.0673 -0.3671
  667BOLB   GL115987  34.400  25.185  24.583  0.1651  0.2239  0.0238
  667BOLB   GL215988  34.179  24.957  24.821  0.2416 -0.0160  0.0562
  667BOLB   C1A15989  34.771  25.118  24.798  0.3049 -0.1463  0.1055
  667BOLB   C2A15990  35.090  24.927  24.988  0.0211  0.2801  0.1087
  667BOLB   C3A15991  35.418  24.778  24.991 -0.4881  0.0403  0.0816
  667BOLB   C4A15992  35.872  24.845  25.198  0.2730 -0.0437  0.1882
  667BOLB   C1B15993  34.425  24.674  24.926 -0.1179  0.2888  0.3636
  667BOLB   C2B15994  34.619  24.279  25.078  0.4538 -0.0715 -0.0287
  667BOLB   C3B15995  34.959  23.993  25.292  0.1541  0.1138 -0.1618
  667BOLB   C4B15996  35.465  23.998  25.230 -0.0933  0.3727 -0.4512
  667BOLB   NC215997  37.903  24.098   0.063 -0.1425  0.0741  0.2136
  667BOLB   PO215998  37.607  24.308  26.731 -0.3274  0.2146 -0.2347
  667BOLB   GL315999  37.530  24.413  26.221  0.1229  0.0195  0.2399
  667BOLB   GL416000  37.578  24.680  26.020  0.0801 -0.3482  0.0023
  667BOLB   C1C16001  37.087  24.471  26.051 -0.2943  0.1811 -0.0557
  667BOLB   C2C16002  36.804  24.786  25.915  0.1546  0.0263 -0.2122
  667BOLB   C3C16003  36.639  24.997  25.583  0.0575  0.2109 -0.0512
  667BOLB   C4C16004  36.256  24.951  25.407  0.1642 -0.2286 -0.0141
  667BOLB   C1D16005  37.628  24.848  25.603  0.0952  0.0920 -0.1158
  667BOLB   C2D16006  37.376  24.761  25.314 -0.0209 -0.2582  0.0606
  667BOLB   C3D16007  37.157  24.528  25.042 -0.0836  0.1258  0.4151
  667BOLB   C4D16008  36.964  24.146  24.883  0.2714  0.3308 -0.2202
  668BOLB   NC116009  30.484  30.900  14.258  0.3453 -0.2593  0.3489
  668BOLB   PO116010  30.725  30.590  14.199 -0.0944 -0.0946  0.2106
  668BOLB   GL116011  31.060  30.494  13.986  0.0852 -0.0821  0.2052
  668BOLB   GL216012  31.171  30.274  14.114 -0.0591  0.0357 -0.4465
  668BOLB   C1A16013  31.117  30.724  13.636  0.2949 -0.0794  0.4319
  668BOLB   C2A16014  31.336  30.638  13.232 -0.2705 -0.2682  0.0788
  668BOLB   C3A16015  31.577  30.899  13.057 -0.2580 -0.0435 -0.0635
  668BOLB   C4A16016  31.588  31.295  12.819  0.4632 -0.2828 -0.0506
  668BOLB   C1B16017  31.459  30.233  13.693  0.2357  0.2808  0.4444
  668BOLB   C2B16018  31.609  30.173  13.230 -0.2219  0.1806 -0.2388
  668BOLB   C3B16019  31.800  30.039  12.842 -0.2782 -0.1466  0.1227
  668BOLB   C4B16020  32.094  29.807  12.570  0.0224  0.1190 -0.1631
  668BOLB   NC216021  33.463  32.144  11.042  0.0053 -0.0441  0.1604
  668BOLB   PO216022  33.019  32.008  10.791 -0.2854  0.1104  0.1773
  668BOLB   GL316023  32.940  31.807  11.200 -0.1554  0.1601 -0.0278
  668BOLB   GL416024  33.140  31.500  11.092  0.0281 -0.3082 -0.3516
  668BOLB   C1C16025  32.564  31.636  11.420 -0.0446  0.0293  0.0952
  668BOLB   C2C16026  32.410  31.535  11.721 -0.2360  0.1508 -0.1339
  668BOLB   C3C16027  32.157  31.573  12.137  0.0483  0.0293  0.1206
  668BOLB   C4C16028  31.884  31.560  12.523 -0.0194 -0.0206  0.0547
  668BOLB   C1D16029  33.023  31.486  11.632  0.0605  0.1754  0.3316
  668BOLB   C2D16030  32.802  31.308  11.935 -0.1425 -0.1113 -0.3088
  668BOLB   C3D16031  32.474  31.054  12.204 -0.2482 -0.1697  0.1847
  668BOLB   C4D16032  32.188  31.176  12.568  0.1264  0.0961  0.1805
  669BOLB   NC116033  30.780  32.446   2.095 -0.2299 -0.1844 -0.0569
  669BOLB   PO116034  30.612  32.845   2.076  0.0852  0.0860  0.2115
  669BOLB   GL116035  30.633  33.213   2.321 -0.4666  0.0272 -0.3193
  669BOLB   GL216036  30.877  33.290   2.485  0.0967 -0.0441 -0.3423
  669BOLB   C1A16037  30.520  33.558   2.684 -0.1553 -0.1133  0.1728
  669BOLB   C2A16038  30.648  33.818   2.931 -0.0824 -0.0551 -0.1056
  669BOLB   C3A16039  30.832  33.949   3.305  0.0813  0.0811  0.0651
  669BOLB   C4A16040  31.021  33.767   3.625 -0.0596  0.1170  0.1060
  669BOLB   C1B16041  30.967  33.427   2.951 -0.2558  0.0573 -0.2847
  669BOLB   C2B16042  30.941  33.328   3.294 -0.2357  0.4282  0.0630
  669BOLB   C3B16043  30.773  33.036   3.716 -0.1134 -0.2154 -0.0488
  669BOLB   C4B16044  30.671  33.031   4.226 -0.2167  0.3701  0.1070
  669BOLB   NC216045  31.652  32.547   5.945  0.0098  0.1668 -0.0985
  669BOLB   PO216046  31.616  32.795   5.674  0.2609  0.2270 -0.0290
  669BOLB   GL316047  31.218  33.026   5.535  0.1868  0.0252  0.2345
  669BOLB   GL416048  31.085  33.083   5.734  0.1604 -0.1599  0.2020
  669BOLB   C1C16049  31.067  33.088   5.198  0.1314 -0.1462 -0.3816
  669BOLB   C2C16050  31.227  33.216   4.776 -0.0691  0.1232  0.1337
  669BOLB   C3C16051  31.125  33.304   4.327 -0.0564 -0.0981 -0.2862
  669BOLB   C4C16052  31.111  33.505   3.864 -0.0795  0.1796  0.2151
  669BOLB   C1D16053  30.684  33.053   5.571 -0.2172  0.2028  0.1733
  669BOLB   C2D16054  30.497  32.987   5.235  0.0959  0.1117  0.1012
  669BOLB   C3D16055  30.621  32.622   5.066 -0.1857  0.2393  0.0363
  669BOLB   C4D16056  30.186  32.447   4.955  0.4181  0.0769  0.1098
  670BOLB   NC116057  21.953  30.143  15.872 -0.2450  0.1388  0.2756
  670BOLB   PO116058  21.857  30.598  15.778  0.1344 -0.0778  0.1223
  670BOLB   GL116059  21.632  30.761  15.440 -0.0264  0.2746  0.0482
  670BOLB   GL216060  21.342  30.832  15.535  0.0894 -0.0466 -0.0962
  670BOLB   C1A16061  21.422  30.596  15.060 -0.0303 -0.1931  0.2140
  670BOLB   C2A16062  21.070  30.689  14.756  0.2142  0.2535  0.0220
  670BOLB   C3A16063  20.747  30.911  14.591 -0.4262  0.0652  0.1805
  670BOLB   C4A16064  20.387  31.118  14.502 -0.1972 -0.3323  0.0388
  670BOLB   C1B16065  21.193  31.184  15.309 -0.0638  0.2055 -0.1623
  670BOLB   C2B16066  21.083  31.393  14.950  0.2479 -0.0363  0.0748
  670BOLB   C3B16067  20.792  31.433  14.510 -0.0574  0.2733 -0.0583
  670BOLB   C4B16068  20.728  31.192  14.163  0.1253  0.0740  0.2841
  670BOLB   NC216069  19.261  31.801  12.366  0.1640  0.0577 -0.0776
  670BOLB   PO216070  18.762  31.692  12.579  0.0146  0.2083  0.2229
  670BOLB   GL316071  19.089  31.558  12.931 -0.3492 -0.0093  0.4055
  670BOLB   GL416072  19.313  31.824  12.943  0.2231  0.1105  0.5111
  670BOLB   C1C16073  19.421  31.383  13.175  0.1299 -0.1135 -0.0825
  670BOLB   C2C16074  19.509  31.280  13.595 -0.2453 -0.0302  0.5373
  670BOLB   C3C16075  19.922  31.372  13.788  0.0089  0.2029  0.2153
  670BOLB   C4C16076  20.149  31.132  14.122  0.0396  0.0902  0.0681
  670BOLB   C1D16077  19.564  31.872  13.323 -0.1087 -0.2941  0.0199
  670BOLB   C2D16078  19.832  31.918  13.715  0.1881 -0.0030  0.1421
  670BOLB   C3D16079  20.063  31.848  13.977 -0.2876  0.0463 -0.1392
  670BOLB   C4D16080  20.322  31.588  14.296 -0.0134 -0.0106  0.0435
  671BOLB   NC116081  15.490  21.435   0.956  0.0313 -0.0479 -0.3341
  671BOLB   PO116082  15.666  21.435   0.449 -0.2869  0.2578  0.4807
  671BOLB   GL116083  16.093  21.699   0.391  0.1746  0.2153 -0.0504
  671BOLB   GL216084  16.312  21.592   0.117  0.1057  0.5576  0.0262
  671BOLB   C1A16085  16.423  22.019   0.377  0.0259 -0.1573 -0.0874
  671BOLB   C2A16086  16.594  22.406   0.110 -0.1186  0.0913 -0.1850
  671BOLB   C3A16087  16.613  22.786   0.353  0.1278 -0.0114  0.4209
  671BOLB   C4A16088  16.597  23.198   0.305  0.1715 -0.0949  0.0325
  671BOLB   C1B16089  16.630  21.931  26.838 -0.0505 -0.0861 -0.1034
  671BOLB   C2B16090  16.803  21.757  26.518 -0.0391  0.1670 -0.2243
  671BOLB   C3B16091  17.128  21.808  26.269 -0.1133  0.1572 -0.0195
  671BOLB   C4B16092  17.398  22.049  26.034  0.1146  0.0697  0.0252
  671BOLB   NC216093  16.430  22.546   1.495 -0.5698 -0.1938 -0.0706
  671BOLB   PO216094  16.725  22.449   1.696  0.0768 -0.0165 -0.4968
  671BOLB   GL316095  16.911  22.795   1.621 -0.1464  0.2229  0.2377
  671BOLB   GL416096  17.159  22.786   1.838  0.1531 -0.1244 -0.1556
  671BOLB   C1C16097  16.981  23.223   1.496  0.0654 -0.2028 -0.0195
  671BOLB   C2C16098  17.079  23.470   1.207  0.1426  0.1435 -0.2302
  671BOLB   C3C16099  16.965  23.660   0.797  0.0282  0.0006 -0.6698
  671BOLB   C4C16100  16.785  23.635   0.352  0.1275  0.1235 -0.2625
  671BOLB   C1D16101  17.416  23.039   1.772 -0.0141  0.2581  0.1140
  671BOLB   C2D16102  17.802  22.802   1.692  0.0178  0.0806 -0.3066
  671BOLB   C3D16103  18.035  22.411   1.438  0.1957 -0.0482 -0.0332
  671BOLB   C4D16104  17.926  22.140   1.187  0.3083  0.1447 -0.0105
  672BOLB   NC116105  32.500  18.854  18.032 -0.1035  0.2908 -0.2145
  672BOLB   PO116106  32.656  18.805  18.465 -0.0902  0.1815  0.0937
  672BOLB   GL116107  32.371  19.204  18.406 -0.3014  0.1050 -0.1596
  672BOLB   GL216108  32.162  19.215  18.679 -0.2895  0.2854  0.2001
  672BOLB   C1A16109  32.154  19.623  18.320  0.2033  0.0563  0.0821
  672BOLB   C2A16110  32.131  20.017  18.464 -0.0859  0.3171 -0.1495
  672BOLB   C3A16111  32.072  20.259  18.736  0.3116 -0.0624  0.0697
  672BOLB   C4A16112  31.753  20.475  18.954 -0.1447  0.1175  0.1027
  672BOLB   C1B16113  32.077  19.586  18.919 -0.0647 -0.2633  0.0149
  672BOLB   C2B16114  31.895  19.793  19.289 -0.0360 -0.2485  0.0364
  672BOLB   C3B16115  31.541  19.979  19.447  0.0765 -0.4657  0.1267
  672BOLB   C4B16116  31.388  20.292  19.759 -0.1825  0.1530 -0.0515
  672BOLB   NC216117  32.789  18.870  19.507 -0.0573  0.0986 -0.1740
  672BOLB   PO216118  33.142  18.873  19.785  0.0669  0.0673 -0.2728
  672BOLB   GL316119  32.988  19.267  19.886 -0.0785 -0.2482 -0.0518
  672BOLB   GL416120  32.778  19.359  19.520  0.1075 -0.0419 -0.0936
  672BOLB   C1C16121  32.788  19.756  19.824 -0.1876 -0.2235  0.0974
  672BOLB   C2C16122  32.456  20.050  19.690 -0.0799 -0.3196  0.1449
  672BOLB   C3C16123  32.007  20.195  19.646  0.1935 -0.0770 -0.0563
  672BOLB   C4C16124  31.848  20.436  19.373 -0.0781 -0.1426 -0.2035
  672BOLB   C1D16125  33.096  19.656  19.359  0.1642  0.0172  0.1189
  672BOLB   C2D16126  33.491  19.911  19.425 -0.1243 -0.1709  0.2288
  672BOLB   C3D16127  33.534  20.373  19.578 -0.1177 -0.1653 -0.2862
  672BOLB   C4D16128  33.310  20.584  19.789  0.0943 -0.0788 -0.2787
  673BOLB   NC116129  26.850  30.559  13.686 -0.2390 -0.0950  0.0765
  673BOLB   PO116130  27.128  30.849  13.420  0.0088 -0.2237  0.3274
  673BOLB   GL116131  27.030  30.873  12.962  0.1395  0.1236  0.0500
  673BOLB   GL216132  26.838  31.201  12.836  0.4104  0.2335 -0.1609
  673BOLB   C1A16133  27.355  30.812  12.671 -0.1412 -0.0993 -0.0635
  673BOLB   C2A16134  27.611  30.665  12.351  0.3237  0.4630  0.1822
  673BOLB   C3A16135  27.673  30.485  12.025  0.0428  0.0626 -0.2328
  673BOLB   C4A16136  27.798  30.187  11.740  0.1098  0.2843 -0.1424
  673BOLB   C1B16137  26.612  31.275  12.496  0.0487  0.1405  0.1904
  673BOLB   C2B16138  26.467  31.105  12.195 -0.1492 -0.3608  0.0480
  673BOLB   C3B16139  26.394  31.084  11.730  0.2021  0.2335  0.4310
  673BOLB   C4B16140  26.469  30.989  11.264  0.1303 -0.1165  0.0243
  673BOLB   NC216141  27.695  30.075   9.430  0.3624  0.1223 -0.1253
  673BOLB   PO216142  27.323  30.282   9.543 -0.0933  0.1412  0.1569
  673BOLB   GL316143  27.384  30.285   9.986  0.3911 -0.0461 -0.0875
  673BOLB   GL416144  27.517  29.961   9.852 -0.0563 -0.0193 -0.3403
  673BOLB   C1C16145  27.266  30.211  10.388  0.2212 -0.2112 -0.0636
  673BOLB   C2C16146  27.540  29.978  10.781 -0.3376 -0.3491 -0.0832
  673BOLB   C3C16147  27.432  30.045  11.209  0.0206  0.0313 -0.0557
  673BOLB   C4C16148  27.698  29.893  11.401  0.1022  0.2481 -0.1888
  673BOLB   C1D16149  27.581  29.720  10.362 -0.1952 -0.1101  0.1619
  673BOLB   C2D16150  27.492  29.389  10.631 -0.2348 -0.0034 -0.0026
  673BOLB   C3D16151  27.518  29.398  11.088 -0.1448  0.1516  0.1055
  673BOLB   C4D16152  27.690  29.425  11.533 -0.0944 -0.2239  0.1507
  674BOLB   NC116153  24.221  37.594  12.529  0.1180 -0.1417  0.1913
  674BOLB   PO116154  24.494  37.256  12.414  0.2484 -0.1057 -0.2615
  674BOLB   GL116155  24.428  37.031  12.745 -0.1029 -0.1643 -0.2598
  674BOLB   GL216156  24.329  37.066  13.066 -0.1732 -0.1313 -0.1775
  674BOLB   C1A16157  24.612  36.622  12.934 -0.2137 -0.2165 -0.0373
  674BOLB   C2A16158  24.682  36.393  13.390  0.4176  0.1890  0.3241
  674BOLB   C3A16159  24.645  36.039  13.499  0.0145 -0.2210 -0.1700
  674BOLB   C4A16160  24.405  35.614  13.416 -0.2618 -0.2388 -0.1523
  674BOLB   C1B16161  24.413  36.950  13.422 -0.0207 -0.1520 -0.0667
  674BOLB   C2B16162  24.392  37.104  13.826 -0.1911 -0.0029  0.1540
  674BOLB   C3B16163  24.379  36.854  14.034  0.0883  0.1443 -0.0800
  674BOLB   C4B16164  24.547  36.798  14.438 -0.2624  0.2921 -0.1639
  674BOLB   NC216165  23.250  36.881  12.412  0.0270  0.0151 -0.0221
  674BOLB   PO216166  22.922  36.794  12.678 -0.1158 -0.0094  0.1461
  674BOLB   GL316167  22.945  36.630  13.123  0.0067 -0.0352 -0.0860
  674BOLB   GL416168  23.311  36.709  13.151 -0.3320 -0.0456 -0.3842
  674BOLB   C1C16169  22.991  36.341  13.326 -0.1558  0.1189  0.0288
  674BOLB   C2C16170  23.386  36.125  13.471  0.0859 -0.4441 -0.1287
  674BOLB   C3C16171  23.687  35.916  13.540  0.4670 -0.1337  0.3156
  674BOLB   C4C16172  24.007  35.480  13.588  0.0183  0.0763 -0.0045
  674BOLB   C1D16173  23.263  36.664  13.600 -0.2349  0.0138  0.0125
  674BOLB   C2D16174  23.079  36.820  14.005 -0.0493  0.0317 -0.1370
  674BOLB   C3D16175  22.956  36.592  14.337 -0.2019  0.0855  0.0157
  674BOLB   C4D16176  22.790  36.218  14.364 -0.1008  0.1974 -0.1315
  675BOLB   NC116177  26.309  37.495  22.709  0.0695 -0.0068  0.1411
  675BOLB   PO116178  26.047  37.647  23.071 -0.3378 -0.1522  0.2347
  675BOLB   GL116179  25.908  37.871  23.457  0.0175  0.2741 -0.1539
  675BOLB   GL216180  25.723  37.858  23.645 -0.1070  0.2172  0.2210
  675BOLB   C1A16181  25.848  38.335  23.317 -0.0582 -0.1136  0.3189
  675BOLB   C2A16182  25.728  38.739  23.327  0.1414  0.3049 -0.2911
  675BOLB   C3A16183  25.737  39.157  23.448  0.0279  0.1831  0.0504
  675BOLB   C4A16184  25.348  39.520  23.398  0.0598  0.0343 -0.0896
  675BOLB   C1B16185  25.619  38.299  23.739 -0.1321 -0.0621  0.1637
  675BOLB   C2B16186  25.697  38.700  23.897 -0.2000  0.1330  0.0862
  675BOLB   C3B16187  25.834  39.130  23.965  0.3865  0.2113 -0.0173
  675BOLB   C4B16188  25.951  39.584  23.889  0.0768  0.1587  0.2566
  675BOLB   NC216189  23.745  41.336  24.106 -0.1956 -0.0021  0.1061
  675BOLB   PO216190  23.671  41.104  23.766  0.3971  0.1653 -0.0332
  675BOLB   GL316191  23.998  40.981  23.580  0.5916  0.0530 -0.1737
  675BOLB   GL416192  23.997  40.927  23.202 -0.2655  0.4637  0.0014
  675BOLB   C1C16193  24.387  40.618  23.775 -0.2498  0.0054 -0.1193
  675BOLB   C2C16194  24.727  40.441  23.986  0.1182 -0.1788  0.0402
  675BOLB   C3C16195  25.001  40.007  23.902  0.3052 -0.1040 -0.1535
  675BOLB   C4C16196  24.996  39.691  23.581 -0.3333  0.0675 -0.0172
  675BOLB   C1D16197  23.928  40.589  23.255 -0.1239 -0.2071  0.1211
  675BOLB   C2D16198  23.895  40.216  23.074 -0.3202 -0.1190 -0.0664
  675BOLB   C3D16199  23.736  39.856  23.200 -0.4278 -0.4598  0.1867
  675BOLB   C4D16200  23.601  39.605  23.561 -0.0517 -0.1377 -0.3574
  676BOLB   NC116201  22.920  24.905  17.197  0.1601 -0.0509 -0.0422
  676BOLB   PO116202  23.059  24.457  17.162  0.0902  0.0212 -0.1478
  676BOLB   GL116203  22.604  24.479  17.194 -0.0776  0.0463 -0.1375
  676BOLB   GL216204  22.514  24.355  17.469 -0.2689  0.0805  0.0132
  676BOLB   C1A16205  22.368  24.251  16.959 -0.0424 -0.0703  0.2523
  676BOLB   C2A16206  22.253  24.017  16.544 -0.0546 -0.1802 -0.2308
  676BOLB   C3A16207  21.882  23.871  16.348  0.0533  0.0684 -0.0755
  676BOLB   C4A16208  21.630  23.519  16.338  0.0182 -0.0150 -0.1156
  676BOLB   C1B16209  22.146  24.240  17.363  0.0414  0.1076  0.1342
  676BOLB   C2B16210  21.692  24.363  17.274  0.3205 -0.0283  0.1578
  676BOLB   C3B16211  21.349  24.171  17.008  0.1908  0.0176  0.0238
  676BOLB   C4B16212  21.174  23.814  16.748  0.0568  0.2905  0.0827
  676BOLB   NC216213  21.813  21.274  14.688  0.0706 -0.3237  0.3378
  676BOLB   PO216214  21.584  21.659  14.974 -0.3018  0.1834  0.2347
  676BOLB   GL316215  21.499  21.738  15.406  0.3046  0.0022  0.1803
  676BOLB   GL416216  21.474  21.474  15.552  0.1032 -0.0024 -0.1691
  676BOLB   C1C16217  21.681  22.057  15.606 -0.4165 -0.1351 -0.1585
  676BOLB   C2C16218  21.673  22.469  15.859 -0.1858  0.1952 -0.1532
  676BOLB   C3C16219  21.409  22.843  15.900 -0.0189 -0.0664  0.2718
  676BOLB   C4C16220  21.471  23.195  16.149  0.3807  0.2593 -0.1042
  676BOLB   C1D16221  21.614  21.192  15.824 -0.1793 -0.0742 -0.0260
  676BOLB   C2D16222  21.896  20.990  16.031  0.1191 -0.0587 -0.0537
  676BOLB   C3D16223  21.748  20.718  16.404  0.0582  0.0260  0.0715
  676BOLB   C4D16224  21.912  20.353  16.677  0.1289  0.0670 -0.0351
  677BOLB   NC116225  15.419  21.539  25.386 -0.0790  0.2467  0.1979
  677BOLB   PO116226  15.709  21.268  25.605  0.1384 -0.0390  0.0421
  677BOLB   GL116227  15.910  21.582  25.503  0.2011  0.1983  0.1243
  677BOLB   GL216228  16.199  21.482  25.444  0.2433 -0.1951 -0.0488
  677BOLB   C1A16229  16.347  21.983  25.630  0.2128  0.1764 -0.0290
  677BOLB   C2A16230  16.649  22.314  25.475 -0.2606 -0.0291  0.2728
  677BOLB   C3A16231  16.768  22.332  24.986 -0.2193  0.2194  0.0830
  677BOLB   C4A16232  17.078  22.113  24.631 -0.2683 -0.2661  0.2642
  677BOLB   C1B16233  16.554  21.567  25.555 -0.2862 -0.0505  0.0761
  677BOLB   C2B16234  16.841  21.782  25.482  0.2776 -0.0790  0.1517
  677BOLB   C3B16235  17.063  21.447  25.346  0.0306 -0.0092  0.1871
  677BOLB   C4B16236  16.816  21.193  25.103  0.0471  0.0955 -0.1780
  677BOLB   NC216237  15.670  20.278  24.732 -0.1333  0.0322  0.1604
  677BOLB   PO216238  16.063  20.446  24.916 -0.0730 -0.1180  0.1967
  677BOLB   GL316239  16.401  20.541  24.756  0.0881 -0.0205  0.3717
  677BOLB   GL416240  16.399  20.445  24.449 -0.0514 -0.1352  0.2281
  677BOLB   C1C16241  16.800  20.654  24.965 -0.0917 -0.2596  0.0157
  677BOLB   C2C16242  17.089  20.932  24.750  0.0161  0.4182 -0.2641
  677BOLB   C3C16243  17.269  21.402  24.790  0.0987 -0.0508 -0.2472
  677BOLB   C4C16244  17.128  21.689  24.609 -0.1290  0.1469  0.1028
  677BOLB   C1D16245  16.549  20.939  24.486 -0.1332  0.0030  0.1819
  677BOLB   C2D16246  16.647  21.402  24.637  0.1648 -0.1099 -0.6054
  677BOLB   C3D16247  16.644  21.764  24.471 -0.3388  0.3098  0.0703
  677BOLB   C4D16248  16.511  22.108  24.531  0.0772  0.2025 -0.1024
  678BOLB   NC116249  31.097  21.008   3.412  0.0196  0.0032  0.4006
  678BOLB   PO116250  30.762  20.624   3.279  0.0641 -0.2722  0.1125
  678BOLB   GL116251  30.352  20.909   3.241 -0.0408 -0.2135  0.0421
  678BOLB   GL216252  30.289  21.054   2.975 -0.3416 -0.2375  0.1421
  678BOLB   C1A16253  29.864  21.093   3.350  0.0863  0.2808  0.3674
  678BOLB   C2A16254  29.503  21.205   3.160 -0.0769 -0.0645  0.0075
  678BOLB   C3A16255  29.030  21.165   3.228  0.0912 -0.1071 -0.2431
  678BOLB   C4A16256  28.753  21.180   3.517  0.1065 -0.0145 -0.0428
  678BOLB   C1B16257  30.321  21.126   2.555 -0.2864  0.0847 -0.0432
  678BOLB   C2B16258  29.963  21.336   2.287 -0.0948 -0.2857 -0.0638
  678BOLB   C3B16259  29.601  21.197   2.326  0.1828  0.0270  0.1565
  678BOLB   C4B16260  29.149  21.384   2.344 -0.0020 -0.0443  0.2538
  678BOLB   NC216261  29.489  20.320   4.719 -0.0077  0.2058 -0.1508
  678BOLB   PO216262  29.148  20.485   4.998 -0.0081 -0.0313  0.4841
  678BOLB   GL316263  28.945  20.931   4.835 -0.0741 -0.0888  0.1584
  678BOLB   GL416264  28.968  21.242   4.948  0.2736 -0.0451 -0.0830
  678BOLB   C1C16265  28.508  21.078   4.731 -0.2480 -0.2190  0.1651
  678BOLB   C2C16266  28.251  21.092   4.382  0.0738  0.0545 -0.1601
  678BOLB   C3C16267  28.094  21.246   4.040 -0.0875  0.1989  0.0857
  678BOLB   C4C16268  28.334  21.328   3.667  0.0497 -0.2161  0.3298
  678BOLB   C1D16269  28.705  21.538   4.661  0.3041  0.2713  0.1344
  678BOLB   C2D16270  28.585  21.413   4.243 -0.2106 -0.0032 -0.0916
  678BOLB   C3D16271  28.529  21.030   3.991  0.1275 -0.0004 -0.0553
  678BOLB   C4D16272  28.318  20.671   4.039  0.0728 -0.1267  0.1141
  679BOLB   NC116273  28.281  37.661  21.942  0.1389  0.1698 -0.0105
  679BOLB   PO116274  28.047  37.904  22.262  0.0620  0.1824  0.0728
  679BOLB   GL116275  28.172  38.343  22.337 -0.0266 -0.1226  0.1760
  679BOLB   GL216276  28.489  38.415  22.493 -0.3731  0.2163 -0.0153
  679BOLB   C1A16277  28.266  38.835  22.417 -0.0324 -0.0471  0.3817
  679BOLB   C2A16278  28.438  39.267  22.213  0.2170 -0.4534 -0.1264
  679BOLB   C3A16279  28.555  39.643  22.246  0.0184  0.1325 -0.1710
  679BOLB   C4A16280  28.863  39.892  22.043  0.0188  0.0364  0.1675
  679BOLB   C1B16281  28.546  38.478  22.039 -0.0617 -0.6744  0.2050
  679BOLB   C2B16282  28.639  38.785  21.805 -0.0525  0.0130 -0.2136
  679BOLB   C3B16283  28.829  39.141  21.757 -0.0735 -0.1535  0.0172
  679BOLB   C4B16284  29.008  39.485  21.826 -0.3168 -0.1926  0.2924
  679BOLB   NC216285  28.208  42.376  21.945  0.0797  0.0361  0.4253
  679BOLB   PO216286  28.476  42.103  21.884 -0.0688 -0.1329  0.0297
  679BOLB   GL316287  28.310  41.724  21.796 -0.1920 -0.1735  0.2064
  679BOLB   GL416288  28.648  41.510  21.596  0.2974 -0.2623  0.1687
  679BOLB   C1C16289  28.236  41.302  21.975 -0.2575 -0.2925 -0.0773
  679BOLB   C2C16290  28.410  40.939  21.988 -0.0548  0.3084 -0.0666
  679BOLB   C3C16291  28.637  40.546  21.916  0.1169  0.0973 -0.1563
  679BOLB   C4C16292  28.939  40.340  21.885  0.1585  0.3836 -0.0006
  679BOLB   C1D16293  28.892  41.339  21.844 -0.1123  0.1537  0.0330
  679BOLB   C2D16294  28.931  40.946  21.725  0.0375  0.0943 -0.0821
  679BOLB   C3D16295  29.174  40.635  21.573 -0.1174  0.1245 -0.2163
  679BOLB   C4D16296  29.466  40.616  21.235 -0.0003  0.0553 -0.5299
  680BOLB   NC116297  20.434  32.573  24.709  0.2857  0.1702  0.1191
  680BOLB   PO116298  20.396  32.840  25.035  0.0012 -0.1318  0.0573
  680BOLB   GL116299  19.926  32.733  25.216 -0.2199  0.0884  0.1848
  680BOLB   GL216300  20.064  32.779  25.476  0.0332  0.0547  0.0914
  680BOLB   C1A16301  19.458  32.700  25.361  0.1818 -0.0101 -0.4184
  680BOLB   C2A16302  18.979  32.435  25.431  0.1739 -0.1761 -0.2126
  680BOLB   C3A16303  18.655  32.330  25.798 -0.0805  0.2288 -0.1572
  680BOLB   C4A16304  18.594  32.410  26.261 -0.1096  0.3165 -0.2617
  680BOLB   C1B16305  20.002  33.102  25.782  0.0886  0.1405 -0.1926
  680BOLB   C2B16306  19.701  33.435  25.696  0.4232 -0.0311 -0.1249
  680BOLB   C3B16307  19.448  33.659  25.528 -0.1836 -0.2561 -0.0354
  680BOLB   C4B16308  19.538  33.667  25.149  0.0783  0.1707  0.0481
  680BOLB   NC216309  18.278  33.345   1.226 -0.0342 -0.0499  0.2917
  680BOLB   PO216310  17.946  33.602   0.895  0.1201  0.1681 -0.1126
  680BOLB   GL316311  18.380  33.500   0.791  0.2199 -0.1403 -0.0560
  680BOLB   GL416312  18.576  33.652   0.981 -0.1255 -0.1149  0.2616
  680BOLB   C1C16313  18.742  33.629   0.504 -0.0499  0.0210 -0.0072
  680BOLB   C2C16314  18.721  33.295   0.224  0.0135 -0.0123  0.2108
  680BOLB   C3C16315  18.534  33.088  26.808  0.0556  0.0803  0.1562
  680BOLB   C4C16316  18.578  32.772  26.519 -0.0394  0.0197  0.0016
  680BOLB   C1D16317  18.877  33.239   0.807  0.2213  0.0395 -0.1547
  680BOLB   C2D16318  19.051  33.070   1.225 -0.1635  0.0355 -0.3404
  680BOLB   C3D16319  19.537  33.022   1.199 -0.1377  0.1116 -0.0851
  680BOLB   C4D16320  19.988  32.978   1.078  0.1091  0.1332  0.1315
  681BOLB   NC116321  22.542  33.710  17.323  0.1898 -0.0368  0.2035
  681BOLB   PO116322  22.740  33.811  16.909  0.3872 -0.0187 -0.0407
  681BOLB   GL116323  22.341  34.107  16.700  0.1442  0.0295 -0.3965
  681BOLB   GL216324  22.383  34.095  16.433 -0.2135  0.0702 -0.2840
  681BOLB   C1A16325  21.907  34.349  16.731 -0.1149 -0.0200  0.1626
  681BOLB   C2A16326  21.589  34.646  16.792  0.0168 -0.1672 -0.0097
  681BOLB   C3A16327  21.457  35.019  16.567  0.0349 -0.1124 -0.3593
  681BOLB   C4A16328  21.046  35.166  16.399  0.1786  0.2769  0.2608
  681BOLB   C1B16329  21.926  34.134  16.278  0.0715 -0.2263 -0.1419
  681BOLB   C2B16330  21.560  34.268  16.225 -0.0795 -0.2875  0.2140
  681BOLB   C3B16331  21.274  34.353  15.900  0.1279  0.1381 -0.1433
  681BOLB   C4B16332  21.224  34.387  15.516  0.0693  0.3965 -0.2126
  681BOLB   NC216333  19.252  35.851  15.265 -0.2221  0.1099  0.1134
  681BOLB   PO216334  19.476  35.885  14.852 -0.0854  0.1580  0.5009
  681BOLB   GL316335  19.720  35.674  15.118 -0.0486 -0.0165  0.1217
  681BOLB   GL416336  19.725  35.324  15.091 -0.2192 -0.1600  0.3249
  681BOLB   C1C16337  19.956  35.654  15.461 -0.1430  0.1580  0.2245
  681BOLB   C2C16338  20.331  35.719  15.721 -0.0841 -0.1027 -0.2172
  681BOLB   C3C16339  20.500  35.502  15.989  0.0688 -0.0910 -0.0601
  681BOLB   C4C16340  20.753  35.215  16.257  0.0119  0.0551 -0.0796
  681BOLB   C1D16341  19.921  34.951  15.291  0.0027 -0.1010 -0.0502
  681BOLB   C2D16342  19.941  34.449  15.164  0.1366  0.3057 -0.0096
  681BOLB   C3D16343  20.195  34.218  15.030  0.0549 -0.0011  0.0348
  681BOLB   C4D16344  20.405  33.910  14.788 -0.2696  0.0446 -0.0212
  682BOLB   NC116345  25.648  25.210  15.754  0.1226 -0.1287 -0.1827
  682BOLB   PO116346  25.883  24.993  15.456  0.3374 -0.0194 -0.2169
  682BOLB   GL116347  26.084  24.848  15.155 -0.1563  0.1077 -0.0064
  682BOLB   GL216348  25.956  24.832  14.921 -0.1284 -0.0286 -0.0932
  682BOLB   C1A16349  26.318  24.518  14.888  0.1332  0.1173  0.2398
  682BOLB   C2A16350  26.276  24.221  14.594  0.1393  0.0538 -0.2825
  682BOLB   C3A16351  26.154  23.989  14.204 -0.0095  0.0403  0.3376
  682BOLB   C4A16352  26.060  23.612  13.968 -0.0807 -0.0392  0.0303
  682BOLB   C1B16353  25.820  24.494  14.572 -0.1248  0.1119  0.3293
  682BOLB   C2B16354  25.584  24.239  14.278 -0.0817 -0.0682 -0.0812
  682BOLB   C3B16355  25.708  23.989  13.809  0.2282  0.0356 -0.3240
  682BOLB   C4B16356  25.551  23.665  13.724  0.1192  0.3948 -0.2888
  682BOLB   NC216357  24.515  22.217  12.826 -0.4026  0.0255 -0.0625
  682BOLB   PO216358  24.599  22.604  12.605  0.2073  0.0790  0.1370
  682BOLB   GL316359  24.662  22.973  12.885  0.1661  0.0018 -0.2088
  682BOLB   GL416360  24.599  23.298  12.738 -0.1570  0.1663  0.0443
  682BOLB   C1C16361  24.928  23.048  13.196 -0.6031 -0.1287  0.0495
  682BOLB   C2C16362  25.301  22.946  13.275  0.0065  0.0065  0.2240
  682BOLB   C3C16363  25.542  23.082  13.527  0.0892  0.2013 -0.0149
  682BOLB   C4C16364  25.881  23.311  13.719  0.2861 -0.1897  0.3243
  682BOLB   C1D16365  24.869  23.512  12.944  0.2135 -0.3452  0.2275
  682BOLB   C2D16366  24.931  23.824  13.255 -0.2939 -0.0993  0.0053
  682BOLB   C3D16367  25.233  23.950  13.499  0.0973 -0.0288 -0.0285
  682BOLB   C4D16368  25.195  24.107  13.954  0.0906 -0.0456 -0.2027
  683BOLB   NC116369  27.550  37.678  21.351  0.2659  0.0997 -0.1808
  683BOLB   PO116370  27.307  38.013  21.624 -0.0904 -0.0730 -0.0307
  683BOLB   GL116371  27.142  38.395  21.543  0.0254  0.2619  0.0262
  683BOLB   GL216372  27.072  38.611  21.221 -0.1791 -0.0137  0.0694
  683BOLB   C1A16373  27.134  38.820  21.649 -0.2400 -0.1021 -0.2318
  683BOLB   C2A16374  26.950  39.120  21.886 -0.2422  0.0047 -0.0092
  683BOLB   C3A16375  26.782  39.469  22.081  0.1625  0.1828 -0.3391
  683BOLB   C4A16376  26.344  39.550  22.341  0.0054 -0.2231  0.0849
  683BOLB   C1B16377  27.159  39.162  21.229 -0.1487 -0.1705  0.1579
  683BOLB   C2B16378  27.271  39.513  20.992 -0.4721 -0.0054  0.2621
  683BOLB   C3B16379  27.197  39.385  20.623 -0.0120  0.1281 -0.0010
  683BOLB   C4B16380  27.054  39.098  20.283 -0.2707  0.0973 -0.2043
  683BOLB   NC216381  25.857  42.150  23.206  0.0262  0.2622 -0.2284
  683BOLB   PO216382  25.766  41.714  23.380 -0.2566  0.0122  0.1723
  683BOLB   GL316383  25.809  41.307  23.156 -0.0170  0.0188  0.1966
  683BOLB   GL416384  26.172  41.111  23.149 -0.0432  0.0530 -0.2273
  683BOLB   C1C16385  25.675  40.839  23.183  0.0141 -0.0069  0.2080
  683BOLB   C2C16386  25.713  40.328  23.088 -0.2035  0.2192  0.1721
  683BOLB   C3C16387  26.023  40.001  22.888 -0.0641 -0.1064  0.2272
  683BOLB   C4C16388  26.221  39.647  22.770  0.0098  0.1720 -0.1511
  683BOLB   C1D16389  26.263  40.658  23.182 -0.1797  0.1370 -0.1423
  683BOLB   C2D16390  26.326  40.308  23.341 -0.0262 -0.1258 -0.2000
  683BOLB   C3D16391  25.965  39.984  23.416 -0.1684  0.1163 -0.2601
  683BOLB   C4D16392  25.903  39.605  23.314 -0.1858 -0.0867 -0.1597
  684BOLB   NC116393  31.311  24.248  16.941  0.2306  0.0590  0.0644
  684BOLB   PO116394  30.919  24.174  17.210  0.1692 -0.0245  0.1425
  684BOLB   GL116395  30.936  23.847  16.886 -0.0674 -0.1714  0.3198
  684BOLB   GL216396  31.109  23.564  17.035  0.1603  0.0600 -0.0631
  684BOLB   C1A16397  30.875  23.675  16.441  0.0595 -0.1634 -0.1332
  684BOLB   C2A16398  31.052  23.475  16.035  0.0809  0.3388 -0.1354
  684BOLB   C3A16399  31.340  23.230  15.929  0.1957 -0.1251  0.1734
  684BOLB   C4A16400  31.453  22.837  15.667  0.3366 -0.0997 -0.0348
  684BOLB   C1B16401  31.015  23.334  16.725 -0.0201  0.1739 -0.1074
  684BOLB   C2B16402  31.199  23.097  16.379  0.3029  0.0975 -0.0382
  684BOLB   C3B16403  31.706  22.989  16.197  0.3457  0.1729 -0.1962
  684BOLB   C4B16404  31.854  22.651  15.969 -0.3318 -0.1185  0.0556
  684BOLB   NC216405  33.001  21.622  13.441  0.5064  0.1391  0.2135
  684BOLB   PO216406  32.941  21.563  13.981  0.1028  0.0340 -0.0017
  684BOLB   GL316407  32.762  21.881  14.309  0.1625 -0.0525 -0.2960
  684BOLB   GL416408  32.385  21.870  14.315 -0.2399 -0.1312  0.2485
  684BOLB   C1C16409  32.554  22.150  14.729  0.2137 -0.0945 -0.1179
  684BOLB   C2C16410  32.253  22.354  14.925  0.0107  0.0266 -0.2082
  684BOLB   C3C16411  31.848  22.343  15.169 -0.1512  0.0677 -0.1162
  684BOLB   C4C16412  31.688  22.635  15.394 -0.1786 -0.2588  0.2234
  684BOLB   C1D16413  32.122  21.853  14.627 -0.1889  0.0657  0.0394
  684BOLB   C2D16414  32.083  21.778  15.022 -0.1363  0.2184 -0.1489
  684BOLB   C3D16415  32.162  22.018  15.362 -0.0837 -0.2527  0.1248
  684BOLB   C4D16416  32.196  22.513  15.493 -0.0653  0.1066  0.1889
  685BOLB   NC116417  30.078  35.981  25.758  0.1093  0.1334 -0.0868
  685BOLB   PO116418  30.281  36.307  26.047 -0.2177  0.0538  0.1539
  685BOLB   GL116419  30.450  36.681  26.139  0.2735  0.2282 -0.2918
  685BOLB   GL216420  30.679  36.625  26.033 -0.1549  0.1876 -0.2718
  685BOLB   C1A16421  30.345  37.067  26.319  0.1372 -0.1988 -0.1970
  685BOLB   C2A16422  30.488  37.363  26.529 -0.1943  0.0082 -0.0609
  685BOLB   C3A16423  30.550  37.485  26.850  0.2032  0.0086  0.2217
  685BOLB   C4A16424  30.891  37.478   0.316  0.0140  0.2585  0.3917
  685BOLB   C1B16425  30.855  36.866  26.346  0.0296  0.3329  0.1533
  685BOLB   C2B16426  31.019  37.139  26.647  0.2772 -0.1467 -0.1157
  685BOLB   C3B16427  30.992  37.556  26.580  0.0281 -0.3271  0.1438
  685BOLB   C4B16428  30.723  37.872  26.428  0.2281  0.1596 -0.0219
  685BOLB   NC216429  31.041  39.378   1.799 -0.1272  0.2391 -0.0905
  685BOLB   PO216430  31.419  39.335   1.783  0.1713 -0.2588  0.2831
  685BOLB   GL316431  31.403  39.167   1.403  0.2227  0.1049 -0.2879
  685BOLB   GL416432  31.127  39.242   1.181 -0.1736  0.1273 -0.1250
  685BOLB   C1C16433  31.524  38.823   1.199  0.0409  0.0219  0.0638
  685BOLB   C2C16434  31.361  38.384   1.058  0.2247 -0.2322  0.0022
  685BOLB   C3C16435  31.180  37.963   0.873 -0.2149  0.0192  0.0631
  685BOLB   C4C16436  31.079  37.623   0.579 -0.0968 -0.0331  0.2134
  685BOLB   C1D16437  30.977  38.717   1.304  0.0794  0.0099  0.4945
  685BOLB   C2D16438  31.036  38.385   1.425 -0.0785  0.2524  0.2134
  685BOLB   C3D16439  31.086  37.947   1.369 -0.3663  0.3947 -0.0861
  685BOLB   C4D16440  31.295  37.513   1.166  0.2001 -0.2006 -0.1629
  686BOLB   NC116441  26.167  23.122  16.835  0.2308  0.1886 -0.0742
  686BOLB   PO116442  26.445  22.769  16.780 -0.0161  0.1593 -0.1715
  686BOLB   GL116443  26.192  22.663  16.440 -0.0516 -0.1041  0.3075
  686BOLB   GL216444  26.061  22.415  16.561  0.2039 -0.2689 -0.3080
  686BOLB   C1A16445  26.380  22.389  16.106  0.0238  0.1187 -0.0380
  686BOLB   C2A16446  26.289  22.028  15.959 -0.0783  0.0962  0.1231
  686BOLB   C3A16447  26.332  21.821  15.532 -0.2785 -0.3554  0.0442
  686BOLB   C4A16448  26.355  21.408  15.347 -0.1420  0.1175 -0.0006
  686BOLB   C1B16449  25.838  22.345  16.114 -0.0281 -0.0622 -0.2859
  686BOLB   C2B16450  25.575  22.071  15.792  0.1445 -0.3090  0.0227
  686BOLB   C3B16451  25.429  21.738  15.521  0.0853  0.2830 -0.0120
  686BOLB   C4B16452  25.437  21.420  15.242  0.0432 -0.1563 -0.2365
  686BOLB   NC216453  26.018  20.297  13.768 -0.0045  0.4007 -0.1426
  686BOLB   PO216454  26.352  20.328  13.523 -0.0018  0.1360  0.0751
  686BOLB   GL316455  26.523  20.505  13.808  0.0484 -0.2565 -0.1833
  686BOLB   GL416456  26.441  20.355  14.018  0.1358  0.0493  0.2082
  686BOLB   C1C16457  26.724  20.889  13.830 -0.2716 -0.0950 -0.4634
  686BOLB   C2C16458  26.748  21.026  14.211  0.1238 -0.3757  0.0528
  686BOLB   C3C16459  26.702  21.340  14.624  0.0617  0.0137 -0.2115
  686BOLB   C4C16460  26.554  21.342  14.950 -0.2434  0.2443 -0.1826
  686BOLB   C1D16461  26.468  20.650  14.327 -0.0673 -0.0163 -0.1974
  686BOLB   C2D16462  26.340  20.946  14.691 -0.1983  0.1789  0.0108
  686BOLB   C3D16463  25.958  21.045  14.701 -0.3160  0.1293  0.0247
  686BOLB   C4D16464  25.965  21.198  15.040 -0.0726  0.0718 -0.1606
  687BOLB   NC116465  25.051  36.670  22.334 -0.0992  0.2205  0.0515
  687BOLB   PO116466  25.004  36.885  22.735  0.0266  0.1757 -0.1335
  687BOLB   GL116467  24.806  37.395  22.730 -0.2301  0.0129  0.0150
  687BOLB   GL216468  24.815  37.534  23.152  0.1787 -0.0337 -0.2900
  687BOLB   C1A16469  24.594  37.774  22.795  0.4287 -0.0588  0.1457
  687BOLB   C2A16470  24.401  38.171  22.841  0.1443  0.0615 -0.3045
  687BOLB   C3A16471  24.180  38.543  22.882 -0.2511 -0.0330  0.1708
  687BOLB   C4A16472  24.127  38.975  22.791  0.0579 -0.1980 -0.4455
  687BOLB   C1B16473  24.723  38.001  23.309 -0.0959 -0.1240 -0.1502
  687BOLB   C2B16474  24.717  38.417  23.422 -0.0332  0.0191  0.0912
  687BOLB   C3B16475  24.704  38.789  23.624  0.0035 -0.0360  0.2532
  687BOLB   C4B16476  24.786  39.148  23.849 -0.1603  0.0307 -0.2472
  687BOLB   NC216477  22.368  40.189  21.928 -0.3413  0.2563 -0.2163
  687BOLB   PO216478  22.553  40.554  22.320 -0.1016 -0.2271  0.2377
  687BOLB   GL316479  22.662  40.049  22.399 -0.0915 -0.2363  0.0501
  687BOLB   GL416480  22.709  39.829  22.112 -0.0821 -0.3860  0.1438
  687BOLB   C1C16481  22.925  39.730  22.694 -0.2236 -0.1405 -0.1935
  687BOLB   C2C16482  23.269  39.676  22.690 -0.1846  0.0920  0.1989
  687BOLB   C3C16483  23.702  39.439  22.775  0.1497  0.0275 -0.1882
  687BOLB   C4C16484  24.010  39.300  23.036  0.1230 -0.2991 -0.1292
  687BOLB   C1D16485  23.062  39.691  22.197 -0.0032 -0.1091 -0.0147
  687BOLB   C2D16486  23.398  39.361  22.155  0.3515  0.0600 -0.1695
  687BOLB   C3D16487  23.622  38.949  22.054  0.0712 -0.0975 -0.1106
  687BOLB   C4D16488  23.746  38.851  21.687 -0.1605 -0.0810 -0.0266
  688BOLB   NC116489  33.925  26.268  25.437 -0.0759 -0.0419 -0.3386
  688BOLB   PO116490  33.586  26.050  25.565  0.0105 -0.0535 -0.3532
  688BOLB   GL116491  33.942  25.764  25.737 -0.1099  0.0950 -0.0882
  688BOLB   GL216492  33.992  25.401  25.649 -0.2626 -0.1555  0.1701
  688BOLB   C1A16493  34.369  25.822  25.887 -0.0498 -0.0100 -0.3449
  688BOLB   C2A16494  34.821  25.698  25.962  0.0284 -0.2866  0.2306
  688BOLB   C3A16495  35.046  25.367  26.244 -0.1484 -0.1831  0.1134
  688BOLB   C4A16496  35.317  25.117  26.374 -0.1784  0.0145  0.1494
  688BOLB   C1B16497  34.426  25.352  25.816  0.1054  0.0363  0.1431
  688BOLB   C2B16498  34.754  25.193  25.886 -0.0606 -0.2180  0.0664
  688BOLB   C3B16499  34.976  24.807  25.915  0.1319 -0.1655  0.2119
  688BOLB   C4B16500  35.143  24.631  26.237  0.1697  0.4471  0.1646
  688BOLB   NC216501  37.126  24.099   0.458  0.2571 -0.1191 -0.1462
  688BOLB   PO216502  37.502  24.311   0.338 -0.2026 -0.1804  0.0270
  688BOLB   GL316503  37.109  24.392   0.050  0.0757 -0.0897 -0.0551
  688BOLB   GL416504  37.080  24.486  26.633  0.2857 -0.0182 -0.1609
  688BOLB   C1C16505  36.627  24.345  26.802 -0.2185 -0.1478 -0.0989
  688BOLB   C2C16506  36.150  24.256  26.524  0.0319  0.1018  0.0812
  688BOLB   C3C16507  35.763  24.516  26.593 -0.0994  0.0965 -0.1348
  688BOLB   C4C16508  35.640  24.854  26.367 -0.1078  0.0284 -0.1326
  688BOLB   C1D16509  36.694  24.729  26.470 -0.0097 -0.3088  0.2825
  688BOLB   C2D16510  36.464  25.037  26.247 -0.0297 -0.0083  0.2229
  688BOLB   C3D16511  36.175  25.176  25.964  0.2719  0.1088  0.0649
  688BOLB   C4D16512  36.172  25.457  25.634  0.0901 -0.1824  0.0268
  689BOLB   NC116513  23.826  24.832  16.665  0.0469  0.0933 -0.1168
  689BOLB   PO116514  23.996  25.075  16.316 -0.3383  0.1129 -0.2089
  689BOLB   GL116515  23.667  24.924  15.922 -0.0683 -0.0673  0.1178
  689BOLB   GL216516  23.454  24.619  15.947 -0.2538  0.1421 -0.0066
  689BOLB   C1A16517  23.367  24.950  15.535 -0.0499 -0.0967 -0.3159
  689BOLB   C2A16518  22.989  24.708  15.424  0.0764  0.4445 -0.3035
  689BOLB   C3A16519  22.696  24.607  15.158  0.0489 -0.0619 -0.1312
  689BOLB   C4A16520  22.496  24.312  14.964  0.1169 -0.2103 -0.3090
  689BOLB   C1B16521  23.349  24.381  15.553 -0.1090 -0.0561  0.0910
  689BOLB   C2B16522  23.061  24.205  15.171  0.3893  0.0652  0.1279
  689BOLB   C3B16523  22.821  24.027  14.769 -0.1146  0.2802 -0.2054
  689BOLB   C4B16524  22.635  23.810  14.387  0.1706  0.1517  0.4589
  689BOLB   NC216525  21.441  22.552  14.395  0.0599  0.0208  0.0773
  689BOLB   PO216526  21.079  22.885  14.214  0.2624  0.2280  0.3046
  689BOLB   GL316527  21.253  22.899  14.656 -0.4087  0.0552  0.0839
  689BOLB   GL416528  21.153  22.740  14.921 -0.3680  0.2795 -0.1517
  689BOLB   C1C16529  21.676  23.104  14.811 -0.1138 -0.3309 -0.0781
  689BOLB   C2C16530  21.993  23.384  14.739  0.0572 -0.1662  0.1302
  689BOLB   C3C16531  22.155  23.699  14.513 -0.1164 -0.1575 -0.0371
  689BOLB   C4C16532  22.227  24.086  14.714 -0.1600 -0.2089  0.2881
  689BOLB   C1D16533  21.244  23.129  15.256  0.1966 -0.1572 -0.2236
  689BOLB   C2D16534  21.385  23.401  15.718 -0.3577  0.0906  0.4841
  689BOLB   C3D16535  21.480  23.836  15.961 -0.3992 -0.0486 -0.3976
  689BOLB   C4D16536  21.572  24.175  15.999 -0.2585 -0.1127 -0.0146
  690BOLB   NC116537  31.840  25.249  17.678  0.0444  0.0052  0.4031
  690BOLB   PO116538  32.350  25.218  17.515  0.1898 -0.1420 -0.0796
  690BOLB   GL116539  32.599  25.044  17.303 -0.2361 -0.1515 -0.1394
  690BOLB   GL216540  32.784  25.177  16.985 -0.0497 -0.0819 -0.3086
  690BOLB   C1A16541  33.100  24.855  17.200  0.1448 -0.1519  0.7174
  690BOLB   C2A16542  33.398  24.590  17.005  0.0020  0.0411  0.0713
  690BOLB   C3A16543  33.543  24.316  16.800 -0.2514 -0.0822  0.0165
  690BOLB   C4A16544  33.797  24.189  16.520 -0.1589  0.2214 -0.0734
  690BOLB   C1B16545  33.028  24.688  16.648 -0.0414 -0.5692 -0.0293
  690BOLB   C2B16546  33.314  24.356  16.336 -0.4037 -0.1391  0.0607
  690BOLB   C3B16547  33.581  24.189  15.989  0.2637  0.0075  0.1334
  690BOLB   C4B16548  33.781  23.955  15.747 -0.3190 -0.2412  0.2294
  690BOLB   NC216549  36.043  23.190  15.913 -0.1363 -0.1069 -0.0560
  690BOLB   PO216550  35.957  22.817  15.867 -0.0932  0.2631  0.1493
  690BOLB   GL316551  35.544  23.043  15.872 -0.0259  0.2908 -0.0254
  690BOLB   GL416552  35.500  23.364  15.680  0.1942  0.0329  0.2260
  690BOLB   C1C16553  35.104  23.105  16.120  0.2846 -0.1621  0.0495
  690BOLB   C2C16554  34.793  23.447  16.183  0.1345 -0.0052 -0.3188
  690BOLB   C3C16555  34.679  23.808  16.193 -0.2429  0.0523  0.0809
  690BOLB   C4C16556  34.258  24.004  16.314  0.1034  0.0127 -0.0606
  690BOLB   C1D16557  35.231  23.588  15.976  0.0457 -0.1630  0.1954
  690BOLB   C2D16558  35.202  23.498  16.460  0.3925 -0.3173  0.1464
  690BOLB   C3D16559  35.251  23.146  16.614  0.1557  0.0609 -0.0412
  690BOLB   C4D16560  35.304  23.125  17.055 -0.1889  0.3472 -0.0547
  691BOLB   NC116561  24.684  28.612  13.849 -0.0410  0.4050 -0.3514
  691BOLB   PO116562  24.600  28.144  13.929 -0.2288 -0.2070  0.1791
  691BOLB   GL116563  24.277  28.042  13.572 -0.0138 -0.1265 -0.4055
  691BOLB   GL216564  24.226  28.316  13.374  0.1952  0.0003 -0.2230
  691BOLB   C1A16565  23.914  27.907  13.280  0.1399 -0.0449 -0.3418
  691BOLB   C2A16566  23.504  27.874  13.229 -0.0236 -0.1555 -0.2480
  691BOLB   C3A16567  23.178  27.675  13.450 -0.0294 -0.3752  0.1781
  691BOLB   C4A16568  22.750  27.368  13.500  0.1046 -0.3016 -0.3569
  691BOLB   C1B16569  23.977  28.381  12.941 -0.3581  0.0282 -0.1450
  691BOLB   C2B16570  23.826  28.136  12.713 -0.0274  0.3473  0.4157
  691BOLB   C3B16571  23.779  27.715  12.761  0.1167 -0.0020 -0.2250
  691BOLB   C4B16572  23.609  27.268  12.703  0.1109  0.0777 -0.1025
  691BOLB   NC216573  21.629  26.503  11.280 -0.2235  0.0745  0.1627
  691BOLB   PO216574  21.475  26.264  11.511  0.3761 -0.3609 -0.1123
  691BOLB   GL316575  21.664  26.213  11.953 -0.4869 -0.1547 -0.0471
  691BOLB   GL416576  21.544  26.108  12.271  0.0735  0.0778  0.0703
  691BOLB   C1C16577  21.942  26.349  12.268 -0.0974  0.2501  0.1850
  691BOLB   C2C16578  22.160  26.494  12.629 -0.0805  0.3388 -0.1775
  691BOLB   C3C16579  22.300  26.802  12.874 -0.3082 -0.0408  0.3861
  691BOLB   C4C16580  22.386  27.233  13.118 -0.2759  0.1290 -0.1573
  691BOLB   C1D16581  21.640  26.323  12.640 -0.1249  0.0511 -0.3620
  691BOLB   C2D16582  21.354  26.561  12.875  0.2790 -0.0061  0.2166
  691BOLB   C3D16583  20.856  26.505  13.003 -0.3495  0.0986  0.0193
  691BOLB   C4D16584  20.881  26.338  13.410 -0.2086  0.0569 -0.0240
  692BOLB   NC116585  27.670  37.387  20.929 -0.0420  0.3265  0.2238
  692BOLB   PO116586  27.953  37.778  20.710 -0.0023  0.0153  0.0961
  692BOLB   GL116587  27.920  38.235  20.542  0.1899 -0.2918 -0.3210
  692BOLB   GL216588  27.745  38.330  20.362  0.0315 -0.2258 -0.0004
  692BOLB   C1A16589  28.166  38.595  20.616 -0.0693 -0.1997 -0.0942
  692BOLB   C2A16590  28.392  39.014  20.476 -0.3478 -0.1866  0.2616
  692BOLB   C3A16591  28.432  39.446  20.514  0.1914 -0.2772 -0.0346
  692BOLB   C4A16592  28.746  39.869  20.525 -0.2608  0.2390  0.0887
  692BOLB   C1B16593  27.873  38.771  20.278 -0.0526  0.1304  0.1964
  692BOLB   C2B16594  27.987  39.281  20.350  0.2401 -0.1841  0.1651
  692BOLB   C3B16595  28.059  39.776  20.408 -0.3472 -0.2732  0.0880
  692BOLB   C4B16596  28.205  40.169  20.544 -0.1092  0.2347 -0.1479
  692BOLB   NC216597  29.240  42.410  20.983  0.1582  0.2026  0.0401
  692BOLB   PO216598  29.136  42.176  21.358  0.2554 -0.1997 -0.3851
  692BOLB   GL316599  28.954  41.864  21.141 -0.1024  0.1254 -0.2560
  692BOLB   GL416600  29.144  41.892  20.856 -0.0178  0.2476 -0.0980
  692BOLB   C1C16601  28.949  41.330  21.295  0.4477  0.1394 -0.0944
  692BOLB   C2C16602  29.003  40.926  21.198 -0.1910 -0.3062  0.0235
  692BOLB   C3C16603  28.866  40.550  20.916 -0.3228 -0.3474 -0.2251
  692BOLB   C4C16604  28.736  40.248  20.654  0.0730 -0.0805 -0.0965
  692BOLB   C1D16605  29.410  41.574  20.815  0.1061  0.1641 -0.1740
  692BOLB   C2D16606  29.790  41.418  20.558 -0.0532 -0.0415 -0.0934
  692BOLB   C3D16607  29.731  41.211  20.167 -0.1168  0.0060  0.0449
  692BOLB   C4D16608  29.805  40.992  19.790 -0.0389  0.1025  0.2379
  693BOLB   NC116609  25.382  23.625  16.537 -0.3417 -0.0121  0.2156
  693BOLB   PO116610  24.975  23.553  16.783 -0.1001 -0.3293 -0.1465
  693BOLB   GL116611  25.009  23.352  16.359 -0.2478 -0.0056  0.1629
  693BOLB   GL216612  24.929  23.087  16.644 -0.1473  0.2976 -0.5066
  693BOLB   C1A16613  25.028  23.023  16.213 -0.0962  0.0503  0.3463
  693BOLB   C2A16614  24.885  22.776  15.973 -0.3023 -0.0259 -0.2180
  693BOLB   C3A16615  24.930  22.371  15.852 -0.0971 -0.2492  0.1920
  693BOLB   C4A16616  24.995  21.951  15.557  0.1044  0.1493 -0.2826
  693BOLB   C1B16617  24.648  22.800  16.477 -0.0543 -0.1589 -0.3264
  693BOLB   C2B16618  24.377  22.611  16.155 -0.0077 -0.3303  0.1255
  693BOLB   C3B16619  24.209  22.385  15.847  0.3768  0.2388 -0.0905
  693BOLB   C4B16620  24.367  22.120  15.666  0.0743  0.1144 -0.0763
  693BOLB   NC216621  24.777  19.843  14.828 -0.0922  0.0158  0.2192
  693BOLB   PO216622  24.483  19.649  15.124 -0.1885  0.0350 -0.0579
  693BOLB   GL316623  24.499  20.053  15.363 -0.1495 -0.3238  0.0600
  693BOLB   GL416624  24.221  20.261  15.448 -0.3951 -0.1835  0.1462
  693BOLB   C1C16625  24.685  20.318  15.289  0.0977 -0.0392  0.2336
  693BOLB   C2C16626  24.865  20.656  15.580  0.1770  0.1756  0.1059
  693BOLB   C3C16627  25.047  21.025  15.434 -0.1858  0.1320  0.2824
  693BOLB   C4C16628  24.929  21.435  15.426 -0.1796  0.0244 -0.0395
  693BOLB   C1D16629  24.332  20.637  15.171 -0.0932 -0.1265 -0.1784
  693BOLB   C2D16630  24.691  20.831  15.035  0.1778 -0.0999 -0.0559
  693BOLB   C3D16631  25.015  20.635  14.918 -0.3461  0.0607  0.4074
  693BOLB   C4D16632  25.187  20.452  14.494 -0.1246  0.2927 -0.2917
  694BOLB   NC116633  25.397  36.500  26.225 -0.0920 -0.1575 -0.1471
  694BOLB   PO116634  24.923  36.438  26.171  0.0166  0.1849  0.1016
  694BOLB   GL116635  24.981  36.773  26.437  0.0047 -0.0305 -0.1580
  694BOLB   GL216636  25.100  36.591  26.683  0.1791  0.0144 -0.2007
  694BOLB   C1A16637  25.037  37.130  26.667 -0.1831  0.1226 -0.1237
  694BOLB   C2A16638  24.921  37.500  26.820  0.0659  0.1524  0.3745
  694BOLB   C3A16639  25.037  37.613   0.291  0.1897  0.1230 -0.0533
  694BOLB   C4A16640  24.994  37.993   0.500 -0.1387 -0.3961  0.2193
  694BOLB   C1B16641  24.856  36.831   0.074 -0.0480 -0.1549  0.0026
  694BOLB   C2B16642  24.835  37.174   0.295  0.0403 -0.0785  0.1164
  694BOLB   C3B16643  24.634  37.492   0.567 -0.1497  0.1083  0.1593
  694BOLB   C4B16644  24.408  37.884   0.476  0.0251  0.0267  0.1079
  694BOLB   NC216645  23.600  39.888   1.958 -0.7250 -0.2992 -0.2062
  694BOLB   PO216646  23.854  39.861   1.512  0.2299 -0.0062 -0.0790
  694BOLB   GL316647  24.118  39.593   1.231  0.0100 -0.2187  0.0338
  694BOLB   GL416648  24.507  39.584   1.061 -0.1660 -0.0004  0.1814
  694BOLB   C1C16649  24.283  39.091   1.194 -0.1787  0.3578 -0.0959
  694BOLB   C2C16650  24.455  38.757   1.437  0.2983 -0.0297  0.0983
  694BOLB   C3C16651  24.796  38.407   1.249 -0.2517  0.1187 -0.0703
  694BOLB   C4C16652  24.820  38.334   0.760  0.1688 -0.1599  0.2712
  694BOLB   C1D16653  24.768  39.239   0.942  0.1106  0.2381 -0.0008
  694BOLB   C2D16654  24.609  38.774   0.912 -0.2368  0.0473  0.3276
  694BOLB   C3D16655  24.368  38.479   0.829  0.1457 -0.2688 -0.1412
  694BOLB   C4D16656  23.914  38.387   0.724 -0.1827 -0.0902  0.0695
  695BOLB   NC116657  35.627  29.066  19.357 -0.3628  0.0173 -0.0141
  695BOLB   PO116658  35.364  28.844  18.977  0.0061 -0.1466 -0.0053
  695BOLB   GL116659  35.785  28.584  19.051 -0.1406 -0.1946 -0.2737
  695BOLB   GL216660  35.701  28.438  19.373  0.0999  0.0394  0.0591
  695BOLB   C1A16661  36.165  28.477  19.043 -0.0778  0.1416 -0.0269
  695BOLB   C2A16662  36.511  28.398  18.797 -0.1689 -0.0218  0.0115
  695BOLB   C3A16663  36.932  28.282  18.525 -0.1412 -0.2724 -0.1420
  695BOLB   C4A16664  37.321  28.281  18.418  0.1723 -0.2839  0.1084
  695BOLB   C1B16665  35.852  28.063  19.142  0.5015 -0.0573 -0.2221
  695BOLB   C2B16666  36.273  27.983  18.968  0.2237  0.0301  0.1667
  695BOLB   C3B16667  36.696  27.916  18.946 -0.0090  0.3190 -0.0046
  695BOLB   C4B16668  37.126  28.006  18.947  0.2321  0.0928  0.1264
  695BOLB   NC216669  38.810  28.375  17.130 -0.2665 -0.1478  0.2901
  695BOLB   PO216670  38.758  28.412  16.712  0.0013 -0.2966  0.0584
  695BOLB   GL316671  38.596  28.773  17.004 -0.1795  0.0405 -0.1465
  695BOLB   GL416672  38.280  29.005  16.978 -0.4399 -0.0796  0.1706
  695BOLB   C1C16673  38.426  28.891  17.516 -0.1190 -0.1290 -0.0863
  695BOLB   C2C16674  38.208  28.596  17.804  0.2466 -0.0514 -0.0141
  695BOLB   C3C16675  37.907  28.537  18.178  0.0173  0.1641 -0.2080
  695BOLB   C4C16676  37.594  28.490  18.424  0.1109 -0.2622  0.3382
  695BOLB   C1D16677  38.002  29.031  17.309  0.1685 -0.0107  0.0388
  695BOLB   C2D16678  37.633  29.291  17.413  0.0176 -0.0868  0.0816
  695BOLB   C3D16679  37.503  29.440  17.885 -0.0399  0.0434 -0.0677
  695BOLB   C4D16680  37.548  29.500  18.360  0.2085  0.0705  0.2158
  696BOLB   NC116681  25.584  28.101  13.783  0.1340 -0.4393 -0.1652
  696BOLB   PO116682  25.477  27.653  13.703 -0.2014 -0.0843 -0.0084
  696BOLB   GL116683  25.364  27.809  13.361  0.1706 -0.0067  0.0287
  696BOLB   GL216684  25.005  27.746  13.327 -0.0029  0.0858  0.0136
  696BOLB   C1A16685  25.491  28.004  13.027  0.0199  0.0676 -0.3344
  696BOLB   C2A16686  25.745  28.028  12.742 -0.1012 -0.1166  0.1161
  696BOLB   C3A16687  25.829  27.580  12.516 -0.1045 -0.3207 -0.0096
  696BOLB   C4A16688  25.498  27.363  12.269  0.0694  0.1828  0.0092
  696BOLB   C1B16689  25.134  27.589  12.937 -0.1933 -0.1045 -0.0785
  696BOLB   C2B16690  25.229  27.759  12.547  0.1901 -0.2251  0.2139
  696BOLB   C3B16691  25.497  28.072  12.201  0.1105  0.0385  0.0129
  696BOLB   C4B16692  25.775  27.783  11.899 -0.1410  0.2708  0.1649
  696BOLB   NC216693  24.847  27.866   9.847 -0.5220  0.4069 -0.0962
  696BOLB   PO216694  24.732  27.493  10.002  0.0671  0.4029  0.3058
  696BOLB   GL316695  24.897  27.414  10.472 -0.2998  0.0958  0.1574
  696BOLB   GL416696  24.610  27.442  10.578 -0.0414  0.2079 -0.2087
  696BOLB   C1C16697  25.077  27.517  10.762  0.1489  0.0445  0.1998
  696BOLB   C2C16698  25.161  27.520  11.135  0.2191  0.4062  0.0112
  696BOLB   C3C16699  25.018  27.553  11.546 -0.3487 -0.2137  0.0240
  696BOLB   C4C16700  25.134  27.432  11.928 -0.1294 -0.0447  0.0891
  696BOLB   C1D16701  24.673  27.555  11.063  0.3828 -0.4198 -0.2092
  696BOLB   C2D16702  24.457  27.490  11.509 -0.2806 -0.0599 -0.1098
  696BOLB   C3D16703  24.469  27.514  11.948  0.0151 -0.0542  0.2372
  696BOLB   C4D16704  24.292  27.837  12.129 -0.0123  0.2172  0.2941
  697BOLB   NC116705  26.008  35.541   0.427  0.3281 -0.0719 -0.2689
  697BOLB   PO116706  26.278  35.776   0.823 -0.0986  0.4699 -0.4380
  697BOLB   GL116707  26.409  36.043   1.223  0.1069  0.0232  0.1726
  697BOLB   GL216708  26.711  36.005   1.486 -0.0169 -0.2998  0.0842
  697BOLB   C1A16709  26.512  36.478   1.402 -0.1004  0.0228  0.0412
  697BOLB   C2A16710  26.601  36.845   1.672 -0.0030 -0.0760 -0.0586
  697BOLB   C3A16711  26.480  36.863   2.124  0.1172  0.3078 -0.1133
  697BOLB   C4A16712  26.528  36.990   2.577 -0.3001  0.1253  0.2752
  697BOLB   C1B16713  26.968  36.403   1.666  0.0728 -0.2069  0.0960
  697BOLB   C2B16714  26.994  36.673   1.978 -0.0976  0.0513 -0.2585
  697BOLB   C3B16715  26.993  36.847   2.390 -0.1167 -0.1270  0.0982
  697BOLB   C4B16716  27.273  36.917   2.646 -0.1394 -0.1334  0.1363
  697BOLB   NC216717  27.555  38.865   3.262 -0.2523 -0.4365  0.1009
  697BOLB   PO216718  27.195  38.951   3.311 -0.0478  0.2774  0.4374
  697BOLB   GL316719  27.030  38.683   2.877  0.1430  0.0106  0.0318
  697BOLB   GL416720  27.413  38.602   2.880  0.2051 -0.2690  0.0855
  697BOLB   C1C16721  26.926  38.253   2.923  0.0148 -0.0433  0.4053
  697BOLB   C2C16722  27.002  37.757   2.857  0.3066 -0.1060  0.0429
  697BOLB   C3C16723  27.007  37.384   2.987  0.1463  0.0561  0.0289
  697BOLB   C4C16724  26.751  37.058   2.891  0.0243 -0.0700 -0.2531
  697BOLB   C1D16725  27.318  38.292   2.578 -0.0392  0.0388 -0.2767
  697BOLB   C2D16726  27.306  37.895   2.240 -0.1019  0.2793  0.4507
  697BOLB   C3D16727  27.142  37.759   1.856 -0.1432  0.0197  0.2900
  697BOLB   C4D16728  27.209  37.384   1.589  0.0251  0.0733  0.4278
  698BOLB   NC116729  29.600  29.125   2.708 -0.0491  0.1489 -0.0262
  698BOLB   PO116730  29.995  29.076   2.780  0.1080  0.3198 -0.2426
  698BOLB   GL116731  30.165  29.053   3.174 -0.0280 -0.1611  0.1635
  698BOLB   GL216732  30.447  28.901   3.174 -0.0442 -0.2486 -0.0691
  698BOLB   C1A16733  30.117  29.212   3.591  0.2858 -0.2191 -0.1344
  698BOLB   C2A16734  30.046  29.262   4.141 -0.3917  0.0878  0.1449
  698BOLB   C3A16735  30.014  29.508   4.593 -0.1433  0.0285  0.2557
  698BOLB   C4A16736  30.240  29.654   5.001 -0.1152  0.3537 -0.1306
  698BOLB   C1B16737  30.585  29.042   3.593  0.1445  0.0371 -0.5916
  698BOLB   C2B16738  30.537  29.319   3.985  0.0664  0.1667 -0.2082
  698BOLB   C3B16739  30.922  29.349   4.239 -0.0646 -0.0837  0.0375
  698BOLB   C4B16740  31.014  29.525   4.677  0.0085  0.1608  0.0011
  698BOLB   NC216741  31.049  30.241   7.065 -0.1236 -0.3335 -0.0103
  698BOLB   PO216742  31.132  30.702   6.932  0.2400 -0.1129 -0.1016
  698BOLB   GL316743  30.738  30.674   6.669 -0.1826  0.1535  0.2922
  698BOLB   GL416744  30.695  30.361   6.585 -0.1347 -0.0892  0.3781
  698BOLB   C1C16745  30.406  30.689   6.285 -0.0377  0.0627 -0.2241
  698BOLB   C2C16746  30.178  30.384   5.963  0.0888  0.2118  0.1531
  698BOLB   C3C16747  30.127  30.218   5.501 -0.0726 -0.2180 -0.0619
  698BOLB   C4C16748  30.287  29.915   5.333 -0.0806  0.6038 -0.2830
  698BOLB   C1D16749  30.813  30.200   6.041 -0.2057  0.0034 -0.1551
  698BOLB   C2D16750  30.919  30.040   5.644 -0.0349  0.3378  0.1644
  698BOLB   C3D16751  30.752  30.186   5.119 -0.1356 -0.0643  0.1226
  698BOLB   C4D16752  30.862  30.483   4.875  0.1578 -0.2855  0.0193
  699BOLB   NC116753  19.633  31.669  21.206  0.3364  0.0838  0.1179
  699BOLB   PO116754  19.341  31.501  21.481  0.0399  0.0809  0.1234
  699BOLB   GL116755  18.969  31.304  21.420  0.0429 -0.0251 -0.1445
  699BOLB   GL216756  18.931  31.040  21.435 -0.0388  0.2748 -0.1277
  699BOLB   C1A16757  18.610  31.248  21.781 -0.0466  0.0561 -0.0420
  699BOLB   C2A16758  18.239  31.066  21.921 -0.0702 -0.1494  0.0307
  699BOLB   C3A16759  17.763  30.897  22.098 -0.0145  0.1146  0.0705
  699BOLB   C4A16760  17.337  30.943  21.941 -0.2522 -0.1181  0.0360
  699BOLB   C1B16761  18.466  31.225  21.323 -0.3286 -0.0740 -0.0597
  699BOLB   C2B16762  18.074  31.081  21.094 -0.2109 -0.0248  0.0475
  699BOLB   C3B16763  17.965  30.719  20.925 -0.4268  0.1323 -0.1119
  699BOLB   C4B16764  17.585  30.625  20.694  0.0389 -0.1603 -0.1081
  699BOLB   NC216765  15.091  31.919  22.566 -0.1719  0.4794  0.4069
  699BOLB   PO216766  15.200  31.551  22.456 -0.0884  0.3460  0.4000
  699BOLB   GL316767  15.631  31.441  22.297 -0.2154 -0.1256  0.0782
  699BOLB   GL416768  15.664  31.353  21.999 -0.1770  0.2421  0.1599
  699BOLB   C1C16769  16.009  31.288  22.363 -0.1095  0.1338 -0.1351
  699BOLB   C2C16770  16.465  31.422  22.452 -0.0930 -0.0518 -0.0030
  699BOLB   C3C16771  16.751  31.461  22.185 -0.2469  0.0514 -0.2228
  699BOLB   C4C16772  17.092  31.224  22.141 -0.2022  0.3206  0.1862
  699BOLB   C1D16773  15.615  30.996  22.120  0.1044 -0.2263  0.3186
  699BOLB   C2D16774  15.795  30.627  21.967  0.2787  0.1894  0.2506
  699BOLB   C3D16775  16.000  30.470  21.640 -0.1718  0.0997  0.0366
  699BOLB   C4D16776  16.114  30.085  21.606 -0.2530  0.0683 -0.0341
  700BOLB   NC116777  26.847  27.521   9.741  0.1865 -0.1068  0.1436
  700BOLB   PO116778  26.719  27.972   9.801 -0.1960 -0.0882 -0.2218
  700BOLB   GL116779  26.769  27.904  10.251  0.1140  0.1323  0.2399
  700BOLB   GL216780  26.800  27.562  10.208 -0.0789  0.1198 -0.1815
  700BOLB   C1A16781  26.720  27.896  10.610  0.4170  0.0175  0.0166
  700BOLB   C2A16782  26.715  27.818  11.070 -0.0313 -0.0346  0.4580
  700BOLB   C3A16783  26.470  27.508  11.243  0.3114 -0.2117  0.2730
  700BOLB   C4A16784  26.163  27.202  11.326 -0.0667 -0.3122  0.0490
  700BOLB   C1B16785  27.196  27.432  10.522 -0.4426  0.0405 -0.0925
  700BOLB   C2B16786  27.231  27.397  10.932 -0.2434 -0.0210 -0.1018
  700BOLB   C3B16787  26.910  27.379  11.369  0.0230 -0.0836  0.2828
  700BOLB   C4B16788  26.660  27.310  11.697 -0.1260 -0.1634  0.2261
  700BOLB   NC216789  25.274  25.161  10.811 -0.0881  0.0205 -0.2818
  700BOLB   PO216790  25.687  25.261  10.641  0.2086  0.0374 -0.4211
  700BOLB   GL316791  25.796  25.524  11.070  0.1987 -0.2507  0.0303
  700BOLB   GL416792  25.904  25.434  11.358 -0.0099  0.0647 -0.0090
  700BOLB   C1C16793  25.846  26.031  11.122 -0.1857  0.0555 -0.4328
  700BOLB   C2C16794  25.825  26.377  11.309  0.1046 -0.2522 -0.1456
  700BOLB   C3C16795  25.683  26.730  11.563  0.0911  0.2444  0.0189
  700BOLB   C4C16796  25.852  27.082  11.606  0.1936 -0.1972 -0.0939
  700BOLB   C1D16797  25.862  25.644  11.631 -0.1610 -0.0515 -0.3134
  700BOLB   C2D16798  25.703  25.638  12.012 -0.0462 -0.0457 -0.0198
  700BOLB   C3D16799  25.569  25.877  12.363 -0.2522  0.0094 -0.0235
  700BOLB   C4D16800  25.771  26.084  12.605  0.1931 -0.2473 -0.0739
  701BOLB   NC116801  24.356  35.440  17.396  0.4008 -0.2521  0.0285
  701BOLB   PO116802  23.859  35.543  17.358 -0.4404 -0.0712  0.2561
  701BOLB   GL116803  23.772  35.728  17.042  0.0497  0.0793  0.5041
  701BOLB   GL216804  23.566  35.646  16.749  0.0381 -0.1307 -0.0359
  701BOLB   C1A16805  23.612  36.083  16.942  0.0334  0.1451 -0.1622
  701BOLB   C2A16806  23.608  36.336  16.585 -0.1021  0.1214  0.0732
  701BOLB   C3A16807  23.459  36.637  16.387  0.2167 -0.1547  0.3675
  701BOLB   C4A16808  23.347  37.002  16.227  0.1261 -0.0106  0.0701
  701BOLB   C1B16809  23.685  35.916  16.399  0.0244 -0.1193  0.1088
  701BOLB   C2B16810  23.813  36.316  16.155 -0.2254 -0.1119  0.1270
  701BOLB   C3B16811  24.010  36.589  15.948 -0.4474  0.2706 -0.0152
  701BOLB   C4B16812  23.998  36.920  15.710  0.1667  0.2341 -0.0057
  701BOLB   NC216813  22.326  39.398  15.734 -0.4212  0.1291  0.4471
  701BOLB   PO216814  22.587  39.124  15.533  0.0413  0.1062  0.3150
  701BOLB   GL316815  22.957  38.896  15.745  0.2333 -0.1731  0.0536
  701BOLB   GL416816  23.286  39.041  15.740 -0.0788 -0.1243 -0.0877
  701BOLB   C1C16817  23.140  38.561  15.963 -0.1379  0.2044  0.0450
  701BOLB   C2C16818  23.604  38.238  16.035  0.2135 -0.0041  0.0666
  701BOLB   C3C16819  23.706  37.693  16.166  0.2897 -0.2590  0.3666
  701BOLB   C4C16820  23.453  37.366  16.163 -0.3003  0.2291 -0.0993
  701BOLB   C1D16821  23.358  38.980  16.169  0.0247 -0.3414 -0.0536
  701BOLB   C2D16822  23.154  38.861  16.531 -0.2174  0.1812 -0.4027
  701BOLB   C3D16823  23.307  38.490  16.524  0.1762 -0.1286 -0.3216
  701BOLB   C4D16824  23.519  38.134  16.540  0.1870 -0.0681 -0.1464
  702BOLB   NC116825  32.464  25.563  16.593 -0.0208 -0.0778 -0.3541
  702BOLB   PO116826  32.175  25.281  16.361  0.0223 -0.1473 -0.0236
  702BOLB   GL116827  32.314  25.092  16.073  0.1248 -0.1156 -0.2080
  702BOLB   GL216828  32.218  25.186  15.703  0.3319  0.1308  0.2557
  702BOLB   C1A16829  32.652  25.077  15.874 -0.4717 -0.1831  0.0224
  702BOLB   C2A16830  33.014  25.141  15.635  0.2260  0.0057 -0.3452
  702BOLB   C3A16831  33.308  24.818  15.461  0.0643  0.0940  0.1659
  702BOLB   C4A16832  33.452  24.616  15.223  0.0588  0.1375 -0.2209
  702BOLB   C1B16833  32.422  25.150  15.379 -0.0729 -0.1276 -0.1317
  702BOLB   C2B16834  32.573  24.994  15.104 -0.2008  0.2276  0.2370
  702BOLB   C3B16835  33.014  25.001  15.053  0.0686 -0.0628  0.1497
  702BOLB   C4B16836  33.510  25.141  15.124 -0.0953  0.0711 -0.0072
  702BOLB   NC216837  34.516  23.904  13.325 -0.1150  0.0141  0.0958
  702BOLB   PO216838  34.865  24.023  13.317  0.0087 -0.3892 -0.0289
  702BOLB   GL316839  34.742  24.325  13.599 -0.0979 -0.0558  0.2198
  702BOLB   GL416840  34.364  24.437  13.499 -0.0341  0.0747  0.2253
  702BOLB   C1C16841  34.617  24.535  14.109 -0.2009 -0.1405  0.1363
  702BOLB   C2C16842  34.273  24.628  14.385 -0.3164  0.4251  0.2654
  702BOLB   C3C16843  34.212  24.654  14.779  0.1388  0.1512 -0.3269
  702BOLB   C4C16844  33.837  24.752  14.983 -0.0499  0.0482  0.0582
  702BOLB   C1D16845  34.133  24.553  13.845 -0.0669  0.0069 -0.3117
  702BOLB   C2D16846  34.007  24.898  14.048 -0.2072 -0.3134  0.0003
  702BOLB   C3D16847  33.793  24.951  14.413 -0.0613  0.2749 -0.3643
  702BOLB   C4D16848  33.390  24.852  14.695 -0.0361 -0.1527  0.0873
  703BOLB   NC116849  29.377  22.400  18.006 -0.1064 -0.0577 -0.5074
  703BOLB   PO116850  29.731  22.555  18.055 -0.2174 -0.0423  0.4192
  703BOLB   GL116851  29.942  22.250  17.755  0.3185  0.1778 -0.2146
  703BOLB   GL216852  30.258  22.317  17.719  0.2699  0.1127  0.0560
  703BOLB   C1A16853  30.025  21.751  17.797  0.0796 -0.4547 -0.1996
  703BOLB   C2A16854  30.139  21.472  17.564 -0.2242  0.1045  0.1213
  703BOLB   C3A16855  30.328  21.146  17.486  0.1225 -0.5576 -0.2019
  703BOLB   C4A16856  30.670  21.006  17.160 -0.0095  0.0140 -0.0874
  703BOLB   C1B16857  30.302  21.988  17.360  0.0149 -0.0728 -0.0613
  703BOLB   C2B16858  30.653  21.856  17.023  0.2113 -0.0374  0.1452
  703BOLB   C3B16859  30.730  21.965  16.606  0.0611  0.2052  0.0934
  703BOLB   C4B16860  30.483  22.355  16.346  0.2861  0.0755 -0.2630
  703BOLB   NC216861  31.104  19.275  15.515 -0.2454 -0.0441 -0.1740
  703BOLB   PO216862  30.687  19.485  15.328  0.0720  0.3861  0.0052
  703BOLB   GL316863  30.904  19.810  15.522 -0.0714  0.2241 -0.1985
  703BOLB   GL416864  30.985  19.671  15.849 -0.1738 -0.0767  0.3883
  703BOLB   C1C16865  31.082  20.179  15.712  0.0645  0.1538  0.2397
  703BOLB   C2C16866  30.890  20.346  16.024 -0.2898 -0.0115 -0.2606
  703BOLB   C3C16867  30.703  20.575  16.310 -0.5581  0.0497  0.0686
  703BOLB   C4C16868  30.686  20.863  16.772 -0.2937 -0.0465  0.1582
  703BOLB   C1D16869  31.237  19.987  16.116 -0.0921  0.2117  0.1462
  703BOLB   C2D16870  31.320  20.274  16.378 -0.1753  0.0723  0.1105
  703BOLB   C3D16871  31.180  20.585  16.690 -0.0244  0.1235 -0.1715
  703BOLB   C4D16872  31.233  20.931  16.969 -0.0584 -0.0007  0.1796
  704BOLB   NC116873  32.293  34.531  16.419  0.3688  0.3180  0.0512
  704BOLB   PO116874  32.229  34.290  16.039  0.0285  0.3064 -0.0808
  704BOLB   GL116875  32.430  34.488  15.727 -0.0192 -0.0243 -0.2027
  704BOLB   GL216876  32.182  34.614  15.555 -0.0270 -0.1310  0.3004
  704BOLB   C1A16877  32.602  34.788  15.448 -0.1188  0.0918  0.2948
  704BOLB   C2A16878  32.698  34.949  15.105 -0.3460 -0.2412  0.1827
  704BOLB   C3A16879  32.550  35.262  14.720 -0.2030  0.1768 -0.1512
  704BOLB   C4A16880  32.628  35.763  14.649  0.3449 -0.2773 -0.4736
  704BOLB   C1B16881  32.208  34.739  15.078  0.0629  0.0440  0.0892
  704BOLB   C2B16882  32.124  34.959  14.713  0.1108  0.3951 -0.0365
  704BOLB   C3B16883  31.988  34.913  14.335 -0.2647  0.0965 -0.1799
  704BOLB   C4B16884  31.910  35.021  13.991 -0.2215 -0.0291  0.0367
  704BOLB   NC216885  33.149  37.586  13.678 -0.2292  0.2773  0.1274
  704BOLB   PO216886  33.514  37.441  13.380  0.2633  0.2218  0.0751
  704BOLB   GL316887  33.249  37.002  13.627 -0.0367 -0.0434  0.2064
  704BOLB   GL416888  33.169  36.721  13.443  0.3565  0.0147 -0.2371
  704BOLB   C1C16889  33.247  36.714  13.990  0.5522  0.0969  0.3483
  704BOLB   C2C16890  33.029  36.442  14.178  0.1177  0.0995 -0.0961
  704BOLB   C3C16891  33.128  36.164  14.630 -0.2582 -0.0773 -0.3686
  704BOLB   C4C16892  32.894  35.945  14.819  0.3606  0.0416 -0.0215
  704BOLB   C1D16893  32.866  36.453  13.652  0.0517 -0.0411  0.1867
  704BOLB   C2D16894  32.605  36.301  13.953 -0.2178 -0.1109 -0.0611
  704BOLB   C3D16895  32.333  36.120  14.189  0.0085  0.0512 -0.2304
  704BOLB   C4D16896  32.126  36.110  14.646  0.4593  0.1938 -0.0350
  705BOLB   NC116897  35.634  29.615  19.907 -0.0471 -0.0952  0.2204
  705BOLB   PO116898  35.658  29.900  20.269  0.0292  0.0616 -0.2733
  705BOLB   GL116899  36.050  29.879  20.199  0.1072  0.1824 -0.2031
  705BOLB   GL216900  36.165  29.628  20.030  0.2527  0.1698  0.3955
  705BOLB   C1A16901  36.429  29.977  20.379 -0.2718  0.1102 -0.0669
  705BOLB   C2A16902  36.908  30.054  20.275  0.0672 -0.0568  0.0800
  705BOLB   C3A16903  37.342  30.129  20.351  0.0030 -0.0793 -0.0725
  705BOLB   C4A16904  37.653  30.118  20.162  0.1313  0.3099  0.0520
  705BOLB   C1B16905  36.456  29.551  19.656  0.0946 -0.2526  0.1977
  705BOLB   C2B16906  36.903  29.717  19.348 -0.1049  0.0281 -0.2050
  705BOLB   C3B16907  37.310  29.740  19.287 -0.1843 -0.0564  0.0604
  705BOLB   C4B16908  37.489  29.877  19.732  0.1301 -0.0048 -0.2936
  705BOLB   NC216909  39.628  31.401  19.228  0.1349 -0.1990 -0.0000
  705BOLB   PO216910  39.732  31.035  19.256  0.0098  0.0041 -0.1774
  705BOLB   GL316911  39.327  31.062  19.471 -0.2374 -0.0621 -0.1267
  705BOLB   GL416912  39.053  31.372  19.521 -0.0690  0.2111 -0.1066
  705BOLB   C1C16913  39.053  30.835  19.568  0.2451  0.2799  0.1991
  705BOLB   C2C16914  38.729  30.547  19.396  0.1698  0.2362 -0.2228
  705BOLB   C3C16915  38.281  30.520  19.600 -0.2184 -0.0548 -0.0390
  705BOLB   C4C16916  37.897  30.288  19.805 -0.2129 -0.0933 -0.1889
  705BOLB   C1D16917  38.762  31.404  19.228  0.1574 -0.0423 -0.2424
  705BOLB   C2D16918  38.342  31.254  19.185  0.1991 -0.1732  0.0728
  705BOLB   C3D16919  38.013  31.461  19.241  0.0405 -0.3730 -0.1647
  705BOLB   C4D16920  37.579  31.375  19.086 -0.1159 -0.2345 -0.0394
  706BOLB   NC116921  22.130  27.981  15.574 -0.0578  0.2996  0.3127
  706BOLB   PO116922  22.232  27.629  15.427  0.0881  0.1462 -0.0116
  706BOLB   GL116923  21.793  27.513  15.414 -0.2678 -0.0523  0.1900
  706BOLB   GL216924  21.718  27.782  15.275  0.4150 -0.0179  0.0141
  706BOLB   C1A16925  21.374  27.398  15.137  0.0138  0.3278  0.0236
  706BOLB   C2A16926  20.899  27.336  15.231 -0.1188  0.0226  0.0786
  706BOLB   C3A16927  20.626  26.978  15.187 -0.1278  0.1346  0.1323
  706BOLB   C4A16928  20.249  26.793  15.322 -0.0269  0.3800 -0.1895
  706BOLB   C1B16929  21.496  27.842  14.886 -0.2898 -0.0147  0.1071
  706BOLB   C2B16930  21.421  27.967  14.531 -0.1003  0.0836 -0.0219
  706BOLB   C3B16931  21.399  28.185  14.219 -0.1455 -0.0749  0.0910
  706BOLB   C4B16932  21.347  28.084  13.863 -0.2352  0.2134 -0.1496
  706BOLB   NC216933  19.499  25.133  13.876 -0.1426 -0.0937 -0.4437
  706BOLB   PO216934  19.426  25.140  14.275 -0.2058  0.1492  0.0518
  706BOLB   GL316935  19.614  25.551  14.235 -0.1220  0.1840  0.0268
  706BOLB   GL416936  19.764  25.658  13.865  0.2951 -0.1114 -0.0111
  706BOLB   C1C16937  19.579  25.998  14.436  0.3954  0.1171 -0.0906
  706BOLB   C2C16938  19.397  26.268  14.733  0.2769  0.3215  0.0370
  706BOLB   C3C16939  19.551  26.589  15.019  0.3627 -0.2731 -0.0627
  706BOLB   C4C16940  19.887  26.828  15.205  0.2134  0.0826 -0.3350
  706BOLB   C1D16941  20.224  25.588  14.015  0.2746 -0.2466 -0.1389
  706BOLB   C2D16942  20.535  25.768  14.281 -0.2275  0.1211 -0.0841
  706BOLB   C3D16943  20.623  26.074  14.676  0.0550  0.3983  0.1275
  706BOLB   C4D16944  20.410  26.113  15.054  0.0428 -0.3101  0.1615
  707BOLB   NC116945  35.860  30.523  21.379  0.0545 -0.1518 -0.2957
  707BOLB   PO116946  35.912  30.504  20.981  0.0968 -0.0366  0.0001
  707BOLB   GL116947  36.308  30.639  21.100 -0.0929  0.1050 -0.1857
  707BOLB   GL216948  36.465  30.479  20.863  0.0978  0.2171 -0.3379
  707BOLB   C1A16949  36.683  30.653  21.280 -0.1377 -0.1863 -0.5964
  707BOLB   C2A16950  37.077  30.649  21.270 -0.2214  0.0491  0.3244
  707BOLB   C3A16951  37.428  30.941  21.257  0.1209  0.1169 -0.3812
  707BOLB   C4A16952  37.724  31.148  21.591 -0.0412 -0.0446 -0.0687
  707BOLB   C1B16953  36.896  30.221  20.780 -0.3362 -0.1569  0.0964
  707BOLB   C2B16954  37.236  30.442  20.726 -0.1418  0.1298 -0.1255
  707BOLB   C3B16955  37.539  30.315  21.105 -0.0934  0.2286 -0.1811
  707BOLB   C4B16956  37.881  30.376  21.436 -0.1135  0.1218  0.0858
  707BOLB   NC216957  39.910  31.904  20.179  0.1788  0.1145 -0.1333
  707BOLB   PO216958  39.909  31.765  20.695  0.1219  0.1555 -0.0312
  707BOLB   GL316959  39.597  31.419  20.750 -0.1857 -0.0626  0.1950
  707BOLB   GL416960  39.495  31.135  20.601 -0.3051  0.1026 -0.0543
  707BOLB   C1C16961  39.308  31.254  21.158 -0.2533 -0.0098  0.2494
  707BOLB   C2C16962  38.978  31.042  21.348 -0.0321  0.1882  0.1741
  707BOLB   C3C16963  38.562  31.167  21.514  0.2624  0.0100  0.1726
  707BOLB   C4C16964  38.040  31.323  21.699 -0.2847  0.1402  0.0180
  707BOLB   C1D16965  39.204  31.421  20.436 -0.2479 -0.0330  0.1792
  707BOLB   C2D16966  38.746  31.468  20.336 -0.1273 -0.0452  0.0181
  707BOLB   C3D16967  38.513  31.121  20.388 -0.0297  0.1136  0.0964
  707BOLB   C4D16968  38.203  30.879  20.586 -0.2655 -0.0814  0.2268
  708BOLB   NC116969  21.642  35.299  22.674  0.0964 -0.0496 -0.0524
  708BOLB   PO116970  21.371  35.311  22.892  0.0472 -0.0072 -0.0338
  708BOLB   GL116971  21.183  35.590  22.617  0.1063 -0.0465  0.0193
  708BOLB   GL216972  21.442  35.704  22.470 -0.0264  0.0677 -0.2310
  708BOLB   C1A16973  20.799  35.777  22.544 -0.2415 -0.0439  0.0463
  708BOLB   C2A16974  20.414  35.999  22.262  0.1735 -0.0831  0.0626
  708BOLB   C3A16975  20.349  36.464  22.131  0.1965 -0.1142 -0.1964
  708BOLB   C4A16976  20.112  36.600  21.822  0.0857  0.0801  0.0014
  708BOLB   C1B16977  21.250  36.121  22.410 -0.2082 -0.1253 -0.0297
  708BOLB   C2B16978  21.167  36.540  22.646 -0.2215 -0.2464 -0.1845
  708BOLB   C3B16979  21.035  36.867  22.871  0.1364  0.2473 -0.0445
  708BOLB   C4B16980  20.910  37.212  23.049  0.1827 -0.0960 -0.1205
  708BOLB   NC216981  18.957  38.179  22.838  0.0125  0.2560 -0.0200
  708BOLB   PO216982  19.146  38.267  23.154 -0.2844 -0.1140 -0.1387
  708BOLB   GL316983  19.446  38.148  23.062  0.3956 -0.1230 -0.2082
  708BOLB   GL416984  19.849  38.053  23.243 -0.0567 -0.0235  0.1576
  708BOLB   C1C16985  19.768  37.924  22.770  0.0566  0.0012  0.0348
  708BOLB   C2C16986  19.837  37.649  22.392  0.0178 -0.2521 -0.0443
  708BOLB   C3C16987  19.934  37.474  22.106 -0.1349  0.2990  0.0581
  708BOLB   C4C16988  19.974  37.097  21.834  0.3533  0.2130  0.3390
  708BOLB   C1D16989  20.122  37.779  23.294  0.0127 -0.1191 -0.1897
  708BOLB   C2D16990  20.398  37.450  23.364  0.2705 -0.0345 -0.0142
  708BOLB   C3D16991  20.804  37.275  23.569 -0.1325  0.1541 -0.0659
  708BOLB   C4D16992  21.100  36.892  23.396 -0.1054 -0.2827 -0.1570
  709BOLB   NC116993  28.911  32.557  14.148 -0.1012 -0.0010  0.1792
  709BOLB   PO116994  28.875  32.108  13.937 -0.1026  0.5427  0.2280
  709BOLB   GL116995  29.147  32.060  13.532  0.1476  0.1896 -0.0783
  709BOLB   GL216996  29.368  32.025  13.440  0.1804 -0.2606  0.0580
  709BOLB   C1A16997  29.048  32.149  13.091  0.1127 -0.0084 -0.0469
  709BOLB   C2A16998  28.775  32.335  12.692  0.0634  0.0094 -0.1382
  709BOLB   C3A16999  28.445  32.294  12.438 -0.0276 -0.0367 -0.0239
  709BOLB   C4A17000  28.345  32.281  12.025 -0.0924 -0.0913 -0.0230
  709BOLB   C1B17001  29.628  32.280  13.188 -0.0550 -0.3184  0.3811
  709BOLB   C2B17002  29.942  32.262  12.930 -0.1154  0.0974 -0.3425
  709BOLB   C3B17003  29.778  32.258  12.459 -0.1207  0.1667 -0.1531
  709BOLB   C4B17004  29.846  32.325  11.972 -0.1491 -0.1331 -0.0524
  709BOLB   NC217005  29.045  33.101  10.296  0.0304  0.2154  0.1251
  709BOLB   PO217006  29.016  32.701  10.080  0.1139  0.1069 -0.1851
  709BOLB   GL317007  28.876  32.546  10.367 -0.1130 -0.0945  0.0995
  709BOLB   GL417008  29.031  32.276  10.383 -0.1213 -0.0751  0.0298
  709BOLB   C1C17009  28.949  32.664  10.725 -0.0259 -0.1229  0.2426
  709BOLB   C2C17010  28.746  32.393  10.992 -0.2514  0.0917 -0.1347
  709BOLB   C3C17011  28.663  32.309  11.346 -0.0561 -0.0549 -0.1586
  709BOLB   C4C17012  28.397  32.462  11.635  0.0469 -0.1253  0.0456
  709BOLB   C1D17013  29.111  32.113  10.774  0.1365  0.3302 -0.0848
  709BOLB   C2D17014  29.230  31.696  11.025  0.2301  0.1251  0.0441
  709BOLB   C3D17015  28.877  31.583  11.202 -0.0490 -0.1514  0.2979
  709BOLB   C4D17016  28.524  31.499  11.205  0.1796 -0.3234  0.3642
  710BOLB   NC117017  26.134  24.877  15.939  0.2599 -0.0409  0.0994
  710BOLB   PO117018  26.106  24.595  16.316  0.0723  0.2454 -0.1312
  710BOLB   GL117019  25.917  24.398  15.960 -0.1017  0.2100  0.2344
  710BOLB   GL217020  25.989  24.511  15.613  0.1378  0.2979  0.2053
  710BOLB   C1A17021  25.666  24.132  15.640 -0.2512  0.3163  0.3211
  710BOLB   C2A17022  25.726  23.832  15.347  0.1143  0.3963  0.1549
  710BOLB   C3A17023  25.740  23.551  14.915 -0.0198  0.1811  0.2268
  710BOLB   C4A17024  25.911  23.207  14.524 -0.0888  0.1471  0.2706
  710BOLB   C1B17025  25.906  24.352  15.196 -0.3816  0.1714  0.0992
  710BOLB   C2B17026  25.814  24.034  14.811  0.1912 -0.2788  0.2831
  710BOLB   C3B17027  25.760  23.737  14.429 -0.0933  0.1624  0.1167
  710BOLB   C4B17028  25.568  23.444  14.152  0.0925 -0.0684  0.0750
  710BOLB   NC217029  25.065  21.550  12.551  0.0992 -0.3890 -0.1552
  710BOLB   PO217030  24.873  21.840  12.872 -0.1591 -0.2048  0.4020
  710BOLB   GL317031  24.917  21.835  13.307 -0.0132 -0.3355 -0.0549
  710BOLB   GL417032  24.937  21.634  13.456 -0.1672  0.0977  0.0550
  710BOLB   C1C17033  25.085  22.340  13.465  0.0178 -0.4099  0.0155
  710BOLB   C2C17034  25.194  22.752  13.771  0.1137  0.1683  0.0029
  710BOLB   C3C17035  25.544  22.932  13.963 -0.0170 -0.0885 -0.5286
  710BOLB   C4C17036  25.796  22.904  14.239 -0.0679  0.2483 -0.1838
  710BOLB   C1D17037  24.712  21.791  13.784 -0.3176  0.2349 -0.0528
  710BOLB   C2D17038  24.627  21.900  14.232  0.2373  0.1033  0.1252
  710BOLB   C3D17039  24.775  22.168  14.608  0.2393 -0.0990  0.0485
  710BOLB   C4D17040  24.622  22.599  14.908 -0.0446  0.1245  0.1491
  711BOLB   NC117041  27.375  26.373  15.225 -0.0297  0.1444  0.0346
  711BOLB   PO117042  27.621  25.976  15.070 -0.2870 -0.0485 -0.2253
  711BOLB   GL117043  27.404  25.756  14.746  0.3475  0.3091  0.0123
  711BOLB   GL217044  27.464  25.429  14.753 -0.2586  0.2449 -0.3413
  711BOLB   C1A17045  27.035  25.644  14.440 -0.0435  0.0158  0.0679
  711BOLB   C2A17046  26.720  25.506  14.079  0.2047  0.1129 -0.1045
  711BOLB   C3A17047  26.610  25.329  13.694  0.2317  0.2853  0.2874
  711BOLB   C4A17048  26.772  25.059  13.342  0.0873  0.1566 -0.0737
  711BOLB   C1B17049  27.407  25.150  14.532  0.1468 -0.1345  0.2719
  711BOLB   C2B17050  27.189  24.805  14.206  0.0474 -0.1321 -0.0203
  711BOLB   C3B17051  27.297  24.614  13.939 -0.1983  0.0284 -0.0328
  711BOLB   C4B17052  27.476  24.414  13.632  0.2235  0.0480 -0.1835
  711BOLB   NC217053  26.426  24.710  10.373 -0.2994  0.0851  0.2081
  711BOLB   PO217054  26.383  24.566  10.944  0.1705  0.0454  0.0592
  711BOLB   GL317055  26.303  24.608  11.460 -0.0285  0.0884 -0.1021
  711BOLB   GL417056  26.002  24.788  11.619 -0.2812  0.0814 -0.1316
  711BOLB   C1C17057  26.314  24.585  11.925  0.1690  0.0709  0.0578
  711BOLB   C2C17058  26.238  24.950  12.182  0.0323 -0.0148 -0.0706
  711BOLB   C3C17059  26.230  25.113  12.675 -0.0698 -0.0528 -0.2524
  711BOLB   C4C17060  26.397  25.055  13.105  0.1064 -0.0009 -0.0055
  711BOLB   C1D17061  26.242  25.242  11.732  0.1838  0.1554 -0.2093
  711BOLB   C2D17062  26.275  25.710  11.905 -0.0177 -0.1458 -0.1220
  711BOLB   C3D17063  26.539  25.969  12.135 -0.2546 -0.1483  0.3086
  711BOLB   C4D17064  26.670  26.294  12.473  0.2000  0.2785  0.1155
  712BOLB   NC117065  31.117  35.693  25.766 -0.1905 -0.1055  0.2380
  712BOLB   PO117066  31.488  35.631  26.102 -0.0557  0.2719  0.2638
  712BOLB   GL117067  31.648  35.836  26.507  0.0885  0.0657 -0.2656
  712BOLB   GL217068  31.920  35.853  26.620  0.0472  0.0751 -0.1338
  712BOLB   C1A17069  31.675  36.284  26.474 -0.0516  0.0359  0.0459
  712BOLB   C2A17070  31.778  36.634  26.533 -0.2073  0.0082 -0.3464
  712BOLB   C3A17071  31.900  36.727   0.025 -0.2062  0.0312  0.1204
  712BOLB   C4A17072  31.819  37.121   0.346  0.0804  0.2292  0.2681
  712BOLB   C1B17073  32.209  36.171  26.553  0.1646 -0.1511  0.0930
  712BOLB   C2B17074  32.272  36.557  26.633  0.1381  0.0784  0.1204
  712BOLB   C3B17075  32.169  37.010  26.540 -0.0380 -0.0343  0.2024
  712BOLB   C4B17076  32.397  37.315  26.750  0.1918  0.1041 -0.0106
  712BOLB   NC217077  32.026  39.226   1.475  0.3376  0.1954 -0.0733
  712BOLB   PO217078  32.340  39.321   1.160 -0.1264  0.0297 -0.5163
  712BOLB   GL317079  32.030  38.995   1.075  0.1793 -0.1782 -0.0001
  712BOLB   GL417080  31.628  39.179   0.899 -0.1739  0.2629  0.2137
  712BOLB   C1C17081  31.766  38.646   0.862 -0.2839 -0.0540 -0.1668
  712BOLB   C2C17082  31.669  38.157   0.672 -0.0337 -0.1280  0.0272
  712BOLB   C3C17083  31.497  37.897   0.471 -0.1142  0.0070 -0.1735
  712BOLB   C4C17084  31.600  37.404   0.510 -0.2121  0.1659  0.2991
  712BOLB   C1D17085  31.548  39.028   0.482  0.0334 -0.0586  0.2122
  712BOLB   C2D17086  31.459  38.567   0.486  0.0872  0.1017 -0.2623
  712BOLB   C3D17087  31.299  38.305   0.263  0.1319  0.1491 -0.0941
  712BOLB   C4D17088  31.158  38.394  26.772 -0.1086  0.2000  0.1498
  713BOLB   NC117089  33.623  35.014  24.440  0.1516  0.2623 -0.2302
  713BOLB   PO117090  33.705  34.704  24.715 -0.1737  0.3811 -0.0898
  713BOLB   GL117091  34.105  34.915  24.766  0.0147 -0.0658  0.1953
  713BOLB   GL217092  34.198  35.095  24.480 -0.1632  0.2139 -0.0620
  713BOLB   C1A17093  34.307  35.264  24.933 -0.0418  0.1166 -0.0718
  713BOLB   C2A17094  34.604  35.479  24.732  0.2951  0.1485  0.2095
  713BOLB   C3A17095  35.040  35.672  24.816 -0.2788 -0.1061 -0.1302
  713BOLB   C4A17096  35.185  35.830  25.251 -0.0835 -0.1203 -0.0392
  713BOLB   C1B17097  34.587  35.051  24.486  0.2724 -0.0875 -0.0488
  713BOLB   C2B17098  35.012  35.067  24.618  0.2270 -0.0496  0.4849
  713BOLB   C3B17099  35.424  35.309  24.765  0.0816 -0.0930 -0.4012
  713BOLB   C4B17100  35.657  35.645  24.866 -0.0018 -0.1157 -0.3312
  713BOLB   NC217101  35.982  38.196  26.254  0.2722  0.2257 -0.0383
  713BOLB   PO217102  36.445  38.002  26.089 -0.2308  0.4110 -0.0314
  713BOLB   GL317103  36.152  37.558  26.028  0.0186  0.0799  0.1795
  713BOLB   GL417104  35.763  37.438  26.317  0.2616 -0.2038  0.1564
  713BOLB   C1C17105  36.116  37.236  25.774  0.2260  0.1611  0.2382
  713BOLB   C2C17106  36.026  36.844  25.386  0.0446 -0.0404 -0.2592
  713BOLB   C3C17107  35.855  36.436  25.454 -0.0609 -0.1955  0.1606
  713BOLB   C4C17108  35.603  36.047  25.414  0.1792  0.1384 -0.0871
  713BOLB   C1D17109  35.683  37.110  26.135  0.1803 -0.0847  0.0122
  713BOLB   C2D17110  35.756  36.768  25.849 -0.0014  0.2265 -0.0038
  713BOLB   C3D17111  35.478  36.382  25.818 -0.0485  0.1039 -0.2450
  713BOLB   C4D17112  35.130  36.043  25.738 -0.0034 -0.1660  0.0053
  714BOLB   NC117113  28.238  21.205  22.402 -0.0734  0.1703  0.1440
  714BOLB   PO117114  27.997  21.050  21.984  0.0925  0.0941  0.0019
  714BOLB   GL117115  28.281  20.802  21.943  0.0899 -0.0158 -0.0551
  714BOLB   GL217116  28.538  20.774  21.655  0.1593  0.1381  0.0383
  714BOLB   C1A17117  28.277  20.342  21.888 -0.1098  0.3144 -0.0982
  714BOLB   C2A17118  28.437  19.984  21.899 -0.1316  0.1645 -0.0442
  714BOLB   C3A17119  28.366  19.479  21.786  0.3320 -0.2708  0.0043
  714BOLB   C4A17120  28.226  19.088  21.937  0.0953  0.1135 -0.0857
  714BOLB   C1B17121  28.681  20.332  21.584 -0.4098  0.0986 -0.1754
  714BOLB   C2B17122  28.926  20.005  21.333  0.1151 -0.3932  0.4891
  714BOLB   C3B17123  29.111  19.669  21.128  0.1185 -0.2551 -0.1351
  714BOLB   C4B17124  29.249  19.211  20.929  0.0121  0.1462  0.1340
  714BOLB   NC217125  28.267  16.968  21.899  0.1227 -0.0291  0.0471
  714BOLB   PO217126  28.769  17.118  21.957 -0.5028 -0.0309 -0.1977
  714BOLB   GL317127  28.541  17.402  21.803 -0.2053  0.0959  0.0680
  714BOLB   GL417128  28.388  17.668  21.809  0.1285  0.1496 -0.1005
  714BOLB   C1C17129  28.608  17.547  21.385 -0.0657 -0.3062 -0.3297
  714BOLB   C2C17130  28.529  17.986  21.265  0.0602 -0.0835 -0.0605
  714BOLB   C3C17131  28.456  18.486  21.392  0.1018 -0.2706  0.3447
  714BOLB   C4C17132  28.450  18.706  21.757 -0.1155  0.0797  0.1608
  714BOLB   C1D17133  28.266  18.029  21.684  0.0326 -0.2027 -0.0949
  714BOLB   C2D17134  28.042  18.448  21.660  0.0443  0.1502  0.0680
  714BOLB   C3D17135  27.620  18.555  21.700  0.1598  0.3441  0.0185
  714BOLB   C4D17136  27.352  18.539  21.419 -0.0314 -0.2796 -0.0219
  715BOLB   NC117137  30.656  23.748  26.703  0.0889 -0.0767 -0.1104
  715BOLB   PO117138  30.961  23.730  26.511 -0.1163  0.0035 -0.0514
  715BOLB   GL117139  30.986  23.367  26.800 -0.0317  0.0914 -0.0230
  715BOLB   GL217140  30.878  23.418   0.158 -0.0599  0.0392  0.0513
  715BOLB   C1A17141  31.307  23.053   0.141 -0.1386 -0.1400  0.0992
  715BOLB   C2A17142  31.489  22.885   0.469  0.1585  0.2004  0.2385
  715BOLB   C3A17143  31.560  22.761   0.887  0.2864  0.0308 -0.2853
  715BOLB   C4A17144  31.764  23.127   1.197 -0.1568  0.0666  0.0483
  715BOLB   C1B17145  30.936  23.080   0.485  0.0735  0.1380 -0.3847
  715BOLB   C2B17146  30.961  23.001   0.973 -0.2169 -0.2212 -0.0447
  715BOLB   C3B17147  31.027  22.639   1.211  0.3755  0.0832  0.2680
  715BOLB   C4B17148  30.953  22.220   1.161 -0.0788 -0.1244 -0.2771
  715BOLB   NC217149  32.395  22.265   3.235  0.1950  0.2987  0.0527
  715BOLB   PO217150  31.909  22.220   3.395 -0.0740 -0.2959 -0.1448
  715BOLB   GL317151  31.835  22.566   3.096  0.0227  0.2139  0.0207
  715BOLB   GL417152  31.537  22.653   3.105  0.0730 -0.1538  0.2181
  715BOLB   C1C17153  31.670  22.518   2.657  0.0264 -0.0892  0.3513
  715BOLB   C2C17154  31.844  22.770   2.289  0.0346 -0.2880 -0.0891
  715BOLB   C3C17155  31.686  22.901   1.883 -0.3108 -0.0657  0.1633
  715BOLB   C4C17156  31.851  23.094   1.569  0.0256 -0.0710  0.0233
  715BOLB   C1D17157  31.393  22.923   2.803 -0.1319 -0.0656 -0.0308
  715BOLB   C2D17158  31.430  23.361   2.664  0.0179  0.1452  0.3562
  715BOLB   C3D17159  31.703  23.686   2.466  0.0843 -0.2159  0.0654
  715BOLB   C4D17160  31.421  24.081   2.315 -0.3648 -0.0740 -0.3074
  716BOLB   NC117161  26.467  41.820  20.566 -0.0617 -0.1304 -0.6653
  716BOLB   PO117162  26.211  41.735  20.227 -0.2686  0.0092 -0.1133
  716BOLB   GL117163  26.390  41.387  20.201 -0.0213 -0.0788  0.1653
  716BOLB   GL217164  26.657  41.353  19.859  0.2159  0.1551 -0.0245
  716BOLB   C1A17165  26.555  40.989  20.399  0.0286  0.1911  0.4938
  716BOLB   C2A17166  26.561  40.575  20.620  0.2329  0.0259  0.0779
  716BOLB   C3A17167  26.914  40.347  20.439 -0.0978 -0.2822 -0.0687
  716BOLB   C4A17168  27.299  40.174  20.297  0.1583  0.1489  0.1736
  716BOLB   C1B17169  26.487  40.882  19.911 -0.0605  0.1001  0.1355
  716BOLB   C2B17170  26.000  40.867  19.917  0.1235 -0.1962  0.2510
  716BOLB   C3B17171  25.750  40.854  19.568  0.2494 -0.1360  0.1110
  716BOLB   C4B17172  25.660  41.009  19.072 -0.1957  0.1058 -0.1779
  716BOLB   NC217173  28.058  42.131  20.689  0.1075  0.2161  0.0076
  716BOLB   PO217174  27.759  42.191  21.040  0.2214  0.0436 -0.0763
  716BOLB   GL317175  27.869  41.770  21.133 -0.0746  0.1677  0.4133
  716BOLB   GL417176  27.479  41.558  21.174 -0.0215  0.5023 -0.0805
  716BOLB   C1C17177  27.971  41.360  20.888  0.0875 -0.0626  0.1346
  716BOLB   C2C17178  28.026  41.033  20.608 -0.5003 -0.2709 -0.0940
  716BOLB   C3C17179  27.870  40.662  20.443 -0.2005  0.0756  0.0498
  716BOLB   C4C17180  27.742  40.251  20.256  0.2888  0.1245 -0.0660
  716BOLB   C1D17181  27.757  41.165  21.303  0.1343  0.0766  0.0723
  716BOLB   C2D17182  28.058  40.862  21.147  0.2512  0.0489  0.1708
  716BOLB   C3D17183  28.144  40.550  20.946 -0.1982  0.5180 -0.0191
  716BOLB   C4D17184  28.436  40.729  20.717  0.1380  0.0860  0.0197
  717BOLB   NC117185  31.399  22.742  21.002  0.0028 -0.2395  0.1292
  717BOLB   PO117186  31.658  22.653  20.835 -0.0594 -0.1569 -0.0125
  717BOLB   GL117187  31.916  22.323  20.752 -0.0612  0.3050  0.2572
  717BOLB   GL217188  31.832  21.951  20.844 -0.1080 -0.1118  0.0099
  717BOLB   C1A17189  32.175  22.059  20.432  0.0814 -0.3085 -0.0958
  717BOLB   C2A17190  32.456  21.724  20.434  0.1582 -0.1175  0.1884
  717BOLB   C3A17191  32.837  21.580  20.433 -0.1765 -0.0027  0.0585
  717BOLB   C4A17192  33.222  21.621  20.297 -0.2864 -0.0283  0.0307
  717BOLB   C1B17193  32.138  21.792  21.055 -0.0923  0.1523  0.3286
  717BOLB   C2B17194  32.465  21.505  20.965 -0.1303 -0.1855  0.0523
  717BOLB   C3B17195  32.703  21.171  21.122 -0.1562  0.1819  0.0381
  717BOLB   C4B17196  33.153  20.985  21.211 -0.1731  0.0735  0.1935
  717BOLB   NC217197  35.508  20.407  20.378  0.0097 -0.1105  0.3721
  717BOLB   PO217198  35.214  20.299  20.005 -0.1479 -0.4190  0.0885
  717BOLB   GL317199  34.922  20.636  19.923 -0.3053  0.0209 -0.0116
  717BOLB   GL417200  34.854  20.547  19.506  0.0277  0.0210 -0.2065
  717BOLB   C1C17201  34.471  20.784  19.843 -0.0341  0.1902 -0.1925
  717BOLB   C2C17202  34.205  21.015  20.207 -0.2891  0.0691 -0.1271
  717BOLB   C3C17203  33.904  21.332  20.284 -0.3340 -0.2382 -0.4715
  717BOLB   C4C17204  33.658  21.617  20.218 -0.0750  0.1831  0.0992
  717BOLB   C1D17205  34.959  20.746  19.199 -0.3303 -0.1171  0.1169
  717BOLB   C2D17206  34.647  21.012  19.000  0.0003  0.0841  0.0770
  717BOLB   C3D17207  34.578  21.428  18.978  0.0373  0.3512 -0.1247
  717BOLB   C4D17208  34.330  21.632  18.777 -0.0193  0.0091  0.2120
  718BOLB   NC117209  34.637  28.057  17.787  0.2719  0.1217 -0.1174
  718BOLB   PO117210  34.612  27.841  17.409  0.0062  0.1134 -0.0789
  718BOLB   GL117211  34.825  27.490  17.179 -0.1228 -0.4614  0.2713
  718BOLB   GL217212  34.828  27.215  17.319 -0.3082 -0.0235 -0.1541
  718BOLB   C1A17213  35.016  27.298  16.784  0.0062  0.0534  0.0641
  718BOLB   C2A17214  35.342  27.238  16.530  0.0243 -0.0622  0.1817
  718BOLB   C3A17215  35.528  27.139  16.328  0.0471  0.1032  0.3164
  718BOLB   C4A17216  35.664  27.090  15.927  0.0413  0.1168 -0.0266
  718BOLB   C1B17217  35.245  27.058  17.241  0.0233 -0.1996  0.2391
  718BOLB   C2B17218  35.417  26.725  17.146 -0.1870 -0.1782 -0.0952
  718BOLB   C3B17219  35.844  26.475  17.201 -0.5713  0.0906 -0.2247
  718BOLB   C4B17220  36.054  26.080  17.110 -0.0029  0.0237  0.0169
  718BOLB   NC217221  36.672  25.369  14.777  0.0072 -0.1842  0.1600
  718BOLB   PO217222  36.621  24.955  15.147  0.1391  0.1720  0.2143
  718BOLB   GL317223  36.389  25.004  15.517  0.0963 -0.1905 -0.1822
  718BOLB   GL417224  36.547  25.009  15.820 -0.1946 -0.1280 -0.2072
  718BOLB   C1C17225  36.264  25.408  15.646  0.0936 -0.0502 -0.1581
  718BOLB   C2C17226  36.177  25.837  15.667  0.1216  0.1194  0.2309
  718BOLB   C3C17227  35.846  26.153  15.678  0.0469  0.1490 -0.0040
  718BOLB   C4C17228  35.899  26.677  15.713 -0.1110  0.1809  0.1376
  718BOLB   C1D17229  36.165  24.984  16.173 -0.1001  0.4162  0.1007
  718BOLB   C2D17230  35.865  25.319  16.459 -0.1213 -0.0445  0.2804
  718BOLB   C3D17231  35.926  25.465  16.886 -0.3054 -0.1298 -0.3117
  718BOLB   C4D17232  35.753  25.431  17.271 -0.0659  0.0517  0.2069
  719BOLB   NC117233  27.841  30.578  14.083 -0.2223  0.1863  0.0420
  719BOLB   PO117234  28.028  30.632  13.690 -0.1142 -0.1291  0.3210
  719BOLB   GL117235  27.888  30.631  13.229 -0.3283 -0.1800 -0.3371
  719BOLB   GL217236  27.569  30.674  13.111  0.0244 -0.1377 -0.0218
  719BOLB   C1A17237  27.921  30.565  12.804 -0.2671 -0.2234 -0.2152
  719BOLB   C2A17238  28.016  30.365  12.540  0.1151  0.1904  0.0171
  719BOLB   C3A17239  28.358  30.148  12.232  0.0490 -0.1682 -0.0047
  719BOLB   C4A17240  28.352  30.128  11.867 -0.1891  0.1967  0.0029
  719BOLB   C1B17241  27.714  31.121  12.950  0.0953  0.1057 -0.1585
  719BOLB   C2B17242  27.899  31.119  12.517 -0.3369  0.3858  0.0282
  719BOLB   C3B17243  27.894  30.967  12.104  0.0345 -0.1481  0.6444
  719BOLB   C4B17244  27.699  31.168  11.760  0.0907 -0.1480 -0.0289
  719BOLB   NC217245  28.160  30.062   9.261  0.1226  0.1506  0.1638
  719BOLB   PO217246  28.031  29.766   9.640 -0.2042  0.1586  0.0244
  719BOLB   GL317247  27.998  29.937  10.107 -0.0350  0.2760 -0.3243
  719BOLB   GL417248  28.158  30.246  10.128  0.0693  0.1517 -0.1601
  719BOLB   C1C17249  27.751  30.219  10.380  0.0348 -0.2767 -0.0063
  719BOLB   C2C17250  28.043  30.315  10.675 -0.0886 -0.0355 -0.0074
  719BOLB   C3C17251  27.965  30.165  11.070 -0.2343 -0.1344 -0.2000
  719BOLB   C4C17252  28.215  30.189  11.493 -0.1049  0.0169 -0.0206
  719BOLB   C1D17253  28.137  30.642  10.259 -0.1054 -0.1865 -0.2790
  719BOLB   C2D17254  27.933  30.948  10.607 -0.0815  0.0283  0.1658
  719BOLB   C3D17255  27.756  30.915  11.060  0.0268 -0.1166 -0.2186
  719BOLB   C4D17256  27.792  30.556  11.414 -0.3720  0.3620 -0.1216
  720BOLB   NC117257  21.947  26.112  16.482  0.0941  0.3957  0.3854
  720BOLB   PO117258  22.099  26.389  16.246  0.1024  0.4461 -0.0342
  720BOLB   GL117259  22.128  26.211  15.925  0.3858  0.0641 -0.0569
  720BOLB   GL217260  21.948  26.367  15.722 -0.0852 -0.1137 -0.0772
  720BOLB   C1A17261  21.947  25.875  15.660 -0.1283 -0.2808  0.1619
  720BOLB   C2A17262  21.741  25.544  15.417 -0.2153  0.2677 -0.0174
  720BOLB   C3A17263  21.415  25.332  15.396 -0.0551  0.0778 -0.0661
  720BOLB   C4A17264  21.152  25.020  15.225  0.0321 -0.3109 -0.1169
  720BOLB   C1B17265  21.673  26.577  15.398 -0.1002  0.1656  0.2611
  720BOLB   C2B17266  21.242  26.450  15.273  0.1911 -0.1154 -0.0403
  720BOLB   C3B17267  20.918  26.719  15.506  0.0061 -0.1344  0.0381
  720BOLB   C4B17268  20.711  26.714  15.804  0.1635  0.2965  0.2848
  720BOLB   NC217269  20.062  23.316  14.041  0.0237 -0.0696 -0.1609
  720BOLB   PO217270  20.298  23.656  14.136 -0.0884  0.2194 -0.0350
  720BOLB   GL317271  20.545  23.956  14.357 -0.2232  0.0889  0.0272
  720BOLB   GL417272  20.396  24.189  14.176  0.1641 -0.0080  0.2013
  720BOLB   C1C17273  20.491  24.065  14.678  0.1355 -0.0064  0.0913
  720BOLB   C2C17274  20.336  24.274  15.001 -0.1089  0.0756 -0.1114
  720BOLB   C3C17275  20.552  24.585  15.275 -0.1290 -0.0347 -0.0580
  720BOLB   C4C17276  20.884  24.746  15.283 -0.2217 -0.1953  0.0270
  720BOLB   C1D17277  20.701  24.418  14.327  0.1287  0.0154  0.1562
  720BOLB   C2D17278  20.682  24.622  14.650 -0.1663  0.0036 -0.0028
  720BOLB   C3D17279  20.833  24.984  14.817 -0.2006  0.0113  0.0276
  720BOLB   C4D17280  20.967  25.448  14.931 -0.0127  0.1924 -0.0830
  721BOLB   NC117281  25.088  31.915  13.691 -0.1328  0.2090  0.4659
  721BOLB   PO117282  24.840  31.967  14.042 -0.3084 -0.0235 -0.0533
  721BOLB   GL117283  24.620  32.117  13.746  0.1053 -0.0333  0.2488
  721BOLB   GL217284  24.304  31.998  13.769  0.0397  0.1044 -0.0007
  721BOLB   C1A17285  24.561  32.276  13.302  0.1497  0.1418 -0.1346
  721BOLB   C2A17286  24.320  32.269  12.874  0.0861  0.0743 -0.1441
  721BOLB   C3A17287  24.539  31.982  12.619 -0.1232 -0.0469  0.1280
  721BOLB   C4A17288  24.291  31.907  12.299  0.2721  0.0932  0.1500
  721BOLB   C1B17289  24.099  32.134  13.351 -0.2604 -0.0564 -0.2230
  721BOLB   C2B17290  23.848  32.411  13.071  0.2555 -0.2355 -0.1698
  721BOLB   C3B17291  23.620  32.427  12.792  0.3642 -0.2002  0.0404
  721BOLB   C4B17292  23.631  32.533  12.320  0.2783  0.0094 -0.2466
  721BOLB   NC217293  23.718  32.377   9.554 -0.1723 -0.0506 -0.0990
  721BOLB   PO217294  23.741  31.981   9.847  0.2583 -0.0167 -0.1841
  721BOLB   GL317295  23.966  31.874  10.137  0.4197  0.0963 -0.1031
  721BOLB   GL417296  24.293  31.974  10.293  0.0250 -0.2388 -0.0159
  721BOLB   C1C17297  23.907  31.621  10.485  0.0888  0.0345  0.1155
  721BOLB   C2C17298  23.772  31.755  10.936 -0.0006 -0.0609 -0.2376
  721BOLB   C3C17299  23.853  31.933  11.313  0.0417 -0.1549 -0.0882
  721BOLB   C4C17300  24.104  32.003  11.804 -0.0520  0.0285 -0.0492
  721BOLB   C1D17301  24.407  31.702  10.572 -0.2853 -0.1128  0.1078
  721BOLB   C2D17302  24.265  31.522  10.906  0.1781 -0.0986  0.0826
  721BOLB   C3D17303  24.195  31.446  11.306  0.2993  0.2612 -0.0757
  721BOLB   C4D17304  24.207  31.479  11.688 -0.1058  0.1200 -0.0785
  722BOLB   NC117305  23.000  28.095  15.513  0.0275 -0.0052  0.1347
  722BOLB   PO117306  23.163  27.735  15.352 -0.3358  0.0356  0.1137
  722BOLB   GL117307  23.054  27.618  14.881 -0.0857  0.2903  0.0092
  722BOLB   GL217308  22.978  27.838  14.610  0.0999  0.1958 -0.1485
  722BOLB   C1A17309  22.738  27.413  14.659  0.3383 -0.2410 -0.1803
  722BOLB   C2A17310  22.394  27.305  14.328  0.1229 -0.1768 -0.1810
  722BOLB   C3A17311  21.952  27.216  14.386  0.0142  0.0326 -0.1903
  722BOLB   C4A17312  21.672  27.006  14.128  0.0878 -0.3927  0.0167
  722BOLB   C1B17313  22.602  27.834  14.340  0.2827 -0.0194  0.0117
  722BOLB   C2B17314  22.429  27.806  14.046  0.1201  0.3349 -0.4251
  722BOLB   C3B17315  21.965  27.733  13.806  0.1356  0.3819  0.0233
  722BOLB   C4B17316  21.660  27.853  13.497 -0.0806 -0.0488 -0.0285
  722BOLB   NC217317  20.520  26.682  12.251  0.3959 -0.3261  0.0855
  722BOLB   PO217318  20.140  26.512  12.493  0.3204 -0.3583  0.0057
  722BOLB   GL317319  20.167  26.697  12.907  0.0885 -0.2037 -0.0576
  722BOLB   GL417320  20.452  26.752  12.905 -0.0329 -0.1985 -0.1838
  722BOLB   C1C17321  20.438  26.531  13.291 -0.0735  0.1304 -0.3530
  722BOLB   C2C17322  20.544  26.541  13.721  0.1359  0.0234 -0.1819
  722BOLB   C3C17323  20.945  26.731  13.742  0.0453  0.3202  0.0427
  722BOLB   C4C17324  21.388  26.934  13.809  0.0399  0.2449 -0.0705
  722BOLB   C1D17325  20.787  27.002  12.843  0.1523 -0.1217  0.2726
  722BOLB   C2D17326  21.101  27.330  12.946  0.0550 -0.3474  0.0111
  722BOLB   C3D17327  21.544  27.251  12.714 -0.1816 -0.0937 -0.0254
  722BOLB   C4D17328  21.973  27.239  12.854 -0.0829 -0.0995  0.0567
  723BOLB   NC117329  32.856  31.183   1.094  0.2709  0.4447 -0.1456
  723BOLB   PO117330  32.911  30.757   0.964  0.0243  0.2632 -0.0803
  723BOLB   GL117331  33.379  30.828   1.111 -0.3445  0.0655  0.1417
  723BOLB   GL217332  33.809  30.915   1.058  0.1848 -0.1802 -0.1018
  723BOLB   C1A17333  33.440  30.694   1.465  0.0231  0.1925 -0.0634
  723BOLB   C2A17334  33.599  30.517   1.714 -0.2312  0.5094 -0.1699
  723BOLB   C3A17335  33.577  30.570   2.124 -0.1832 -0.1957 -0.0020
  723BOLB   C4A17336  33.706  30.343   2.541  0.2372  0.1164  0.0568
  723BOLB   C1B17337  34.101  30.935   1.361 -0.0912  0.0165  0.0848
  723BOLB   C2B17338  34.375  30.801   1.755 -0.1642  0.0260 -0.0221
  723BOLB   C3B17339  34.800  30.776   1.928 -0.1548 -0.2198 -0.4192
  723BOLB   C4B17340  34.896  30.922   2.361 -0.0546  0.1070  0.1355
  723BOLB   NC217341  35.697  30.108   4.594  0.0406  0.0825  0.0335
  723BOLB   PO217342  35.252  30.043   4.493 -0.2446 -0.1454  0.0349
  723BOLB   GL317343  34.967  30.080   4.198 -0.2045 -0.0008 -0.6286
  723BOLB   GL417344  35.131  30.092   3.813  0.1028  0.0639 -0.0022
  723BOLB   C1C17345  34.556  30.134   3.880 -0.0762  0.1461  0.2254
  723BOLB   C2C17346  34.415  30.027   3.616 -0.0989 -0.0112 -0.0291
  723BOLB   C3C17347  34.102  30.114   3.251  0.1283 -0.0134 -0.0522
  723BOLB   C4C17348  33.862  30.303   2.968  0.3248 -0.3013  0.0566
  723BOLB   C1D17349  34.996  30.218   3.394 -0.0679 -0.0712  0.0529
  723BOLB   C2D17350  35.139  30.476   2.989  0.3035 -0.1390  0.1028
  723BOLB   C3D17351  35.270  30.772   2.657 -0.1376  0.0420  0.4575
  723BOLB   C4D17352  35.501  31.163   2.605  0.1078 -0.0933 -0.2785
  724BOLB   NC117353  29.537  30.035  13.890 -0.0163  0.1199 -0.2734
  724BOLB   PO117354  29.125  29.875  13.823 -0.1520 -0.1115  0.1207
  724BOLB   GL117355  29.203  30.096  13.443 -0.0549  0.0998  0.0262
  724BOLB   GL217356  29.456  30.204  13.431 -0.2408  0.0109 -0.0884
  724BOLB   C1A17357  29.166  29.978  13.034  0.1128  0.0561 -0.2813
  724BOLB   C2A17358  29.240  29.929  12.662 -0.4284 -0.1385 -0.0341
  724BOLB   C3A17359  29.288  30.082  12.277  0.0606  0.1287  0.4313
  724BOLB   C4A17360  29.617  30.363  12.135  0.1776  0.1742 -0.3229
  724BOLB   C1B17361  29.482  30.389  13.012 -0.1772 -0.2006  0.0621
  724BOLB   C2B17362  29.947  30.726  12.960 -0.0011  0.2726  0.1482
  724BOLB   C3B17363  30.288  30.870  12.838  0.0327 -0.0975  0.0552
  724BOLB   C4B17364  30.628  31.188  12.904  0.1915  0.0028 -0.0915
  724BOLB   NC217365  29.937  31.779  10.058  0.0436  0.0021 -0.0316
  724BOLB   PO217366  30.349  31.616  10.178 -0.2424 -0.0315  0.1837
  724BOLB   GL317367  30.361  31.441  10.518 -0.0204  0.0594 -0.1632
  724BOLB   GL417368  30.623  31.429  10.798  0.0630 -0.1214 -0.0462
  724BOLB   C1C17369  30.233  31.098  10.805 -0.2311  0.1039 -0.3444
  724BOLB   C2C17370  30.106  30.808  11.167  0.2055 -0.2086 -0.1775
  724BOLB   C3C17371  29.944  30.730  11.559 -0.1849 -0.2134 -0.0615
  724BOLB   C4C17372  30.003  30.445  11.925 -0.3717  0.0641  0.1044
  724BOLB   C1D17373  30.539  31.233  11.227 -0.1328 -0.4565  0.0222
  724BOLB   C2D17374  30.437  30.936  11.600  0.0147  0.0615  0.3063
  724BOLB   C3D17375  30.340  31.073  11.974  0.0228 -0.2012  0.3644
  724BOLB   C4D17376  30.414  31.130  12.404 -0.1463 -0.0359  0.1149
  725BOLB   NC117377  26.819  32.740  14.339 -0.2083 -0.2605 -0.1971
  725BOLB   PO117378  27.130  32.804  14.009  0.0556 -0.1527  0.2091
  725BOLB   GL117379  27.270  33.076  13.750  0.2124  0.0187 -0.1384
  725BOLB   GL217380  27.625  33.100  13.702 -0.2589  0.3192 -0.1769
  725BOLB   C1A17381  26.986  33.244  13.546  0.2441 -0.1065 -0.0410
  725BOLB   C2A17382  26.829  33.542  13.251 -0.0035  0.1776  0.0587
  725BOLB   C3A17383  26.659  33.759  12.934 -0.1405 -0.1114  0.1187
  725BOLB   C4A17384  26.824  33.530  12.476  0.0266  0.0983  0.2561
  725BOLB   C1B17385  27.540  33.185  13.305  0.1347  0.1541  0.3329
  725BOLB   C2B17386  27.293  33.352  13.027  0.0237  0.2334 -0.1555
  725BOLB   C3B17387  27.244  33.708  12.738  0.3016 -0.1316 -0.0880
  725BOLB   C4B17388  27.425  34.136  12.681  0.0020 -0.0701  0.0731
  725BOLB   NC217389  27.534  33.738  10.195 -0.0989 -0.1493 -0.1280
  725BOLB   PO217390  27.555  33.320  10.019 -0.3190 -0.1685 -0.2194
  725BOLB   GL317391  27.403  33.307  10.473  0.0248 -0.1438  0.1492
  725BOLB   GL417392  27.720  33.310  10.641  0.2744  0.1036  0.1958
  725BOLB   C1C17393  27.310  33.043  10.828 -0.1487 -0.0415 -0.0696
  725BOLB   C2C17394  27.133  33.116  11.272  0.1204 -0.0223  0.1906
  725BOLB   C3C17395  27.150  33.188  11.667 -0.2721 -0.5348  0.0568
  725BOLB   C4C17396  26.972  33.443  11.976 -0.0592  0.2402  0.0397
  725BOLB   C1D17397  27.922  33.286  11.151 -0.0501  0.0394 -0.0043
  725BOLB   C2D17398  28.093  32.964  11.532  0.1582  0.0674 -0.0848
  725BOLB   C3D17399  28.026  32.759  11.912  0.1951 -0.2830  0.1157
  725BOLB   C4D17400  27.897  32.444  12.247  0.1024  0.3452 -0.0951
  726BOLB   NC117401  30.118  36.884  25.160 -0.0274  0.0332  0.0805
  726BOLB   PO117402  30.447  36.670  25.217 -0.0282  0.0203 -0.1176
  726BOLB   GL117403  30.455  37.100  25.431  0.2336 -0.4771 -0.3677
  726BOLB   GL217404  30.594  37.394  25.318  0.2023 -0.1435  0.2997
  726BOLB   C1A17405  30.642  37.099  25.911  0.1967  0.1592  0.0975
  726BOLB   C2A17406  30.786  37.390  26.117 -0.1216 -0.0248  0.0755
  726BOLB   C3A17407  31.173  37.538  25.931 -0.3087 -0.0952  0.2177
  726BOLB   C4A17408  31.431  37.876  25.902  0.0731 -0.0537  0.1611
  726BOLB   C1B17409  30.583  37.603  25.672  0.0483  0.3511 -0.2379
  726BOLB   C2B17410  30.864  37.932  25.898  0.1997  0.1146 -0.1404
  726BOLB   C3B17411  31.158  38.106  26.216 -0.1322  0.3659  0.3094
  726BOLB   C4B17412  31.336  37.962  26.634  0.1380  0.0586  0.3211
  726BOLB   NC217413  32.542  39.496   0.558  0.2719 -0.2596  0.2571
  726BOLB   PO217414  32.655  39.880   0.312  0.0586 -0.4605 -0.0424
  726BOLB   GL317415  32.466  39.510  26.922  0.0529  0.4665  0.0989
  726BOLB   GL417416  32.135  39.566  26.796  0.0456 -0.0924 -0.1326
  726BOLB   C1C17417  32.182  39.131   0.055  0.1177 -0.4442 -0.1694
  726BOLB   C2C17418  31.985  38.821  26.676  0.0520 -0.1948  0.2502
  726BOLB   C3C17419  31.774  38.630  26.266  0.0952 -0.1566  0.0348
  726BOLB   C4C17420  31.689  38.203  26.181  0.5503 -0.0029 -0.0392
  726BOLB   C1D17421  32.064  39.370  26.530 -0.0040  0.3098  0.3100
  726BOLB   C2D17422  31.960  39.113  26.244  0.2931  0.0201  0.1405
  726BOLB   C3D17423  32.023  39.083  25.841 -0.3578 -0.0521 -0.0317
  726BOLB   C4D17424  32.179  38.684  25.540 -0.1671  0.2233  0.1350
  727BOLB   NC117425  31.738  23.510  19.424 -0.1116  0.2900 -0.2695
  727BOLB   PO117426  31.633  23.283  19.050  0.0729 -0.0016  0.1592
  727BOLB   GL117427  31.751  22.944  18.813 -0.4726  0.0315 -0.1204
  727BOLB   GL217428  31.595  22.631  18.928  0.1624  0.5406  0.3136
  727BOLB   C1A17429  32.087  22.514  18.914  0.0279 -0.0269  0.1075
  727BOLB   C2A17430  32.255  22.109  18.886  0.0228 -0.0865  0.0582
  727BOLB   C3A17431  32.417  21.738  18.990 -0.1197 -0.3566 -0.1224
  727BOLB   C4A17432  32.407  21.301  18.935  0.1402  0.0147 -0.0221
  727BOLB   C1B17433  31.633  22.230  18.881  0.0040  0.0209  0.2969
  727BOLB   C2B17434  31.771  21.835  18.907  0.0379  0.1343 -0.1844
  727BOLB   C3B17435  31.936  21.339  18.988  0.1798 -0.1230  0.1503
  727BOLB   C4B17436  31.791  20.989  19.220  0.1560 -0.2622 -0.0351
  727BOLB   NC217437  32.340  18.810  18.868 -0.0765 -0.1495  0.2532
  727BOLB   PO217438  32.394  18.702  19.303 -0.1246  0.0161  0.1184
  727BOLB   GL317439  32.383  19.194  19.244 -0.2015 -0.0051  0.0999
  727BOLB   GL417440  32.571  19.301  18.959  0.2890 -0.0169  0.0353
  727BOLB   C1C17441  32.480  19.690  19.365 -0.1833 -0.0295 -0.6760
  727BOLB   C2C17442  32.300  20.132  19.220  0.2118 -0.0432  0.3371
  727BOLB   C3C17443  32.240  20.555  19.117  0.0132 -0.0415  0.2654
  727BOLB   C4C17444  32.182  20.903  18.800  0.1020  0.0495 -0.1852
  727BOLB   C1D17445  32.498  19.721  18.668 -0.0907 -0.3059 -0.1938
  727BOLB   C2D17446  32.540  20.147  18.678  0.0842  0.3637  0.3276
  727BOLB   C3D17447  32.401  20.607  18.444 -0.1687  0.0588  0.2768
  727BOLB   C4D17448  32.418  21.113  18.428  0.0231  0.0397 -0.1124
  728BOLB   NC117449  29.738  28.763   3.062 -0.1228  0.1345 -0.0545
  728BOLB   PO117450  29.786  28.281   2.912 -0.0588  0.0873 -0.0088
  728BOLB   GL117451  29.827  28.408   3.402 -0.2815  0.1017 -0.4036
  728BOLB   GL217452  30.091  28.524   3.343 -0.1764  0.2196  0.1261
  728BOLB   C1A17453  29.854  28.064   3.718 -0.1083 -0.1457 -0.1265
  728BOLB   C2A17454  30.204  28.040   4.191  0.3140 -0.2620  0.3127
  728BOLB   C3A17455  30.532  28.229   4.395 -0.2548 -0.3734  0.0128
  728BOLB   C4A17456  30.752  28.623   4.576  0.0527 -0.3175  0.2848
  728BOLB   C1B17457  30.480  28.431   3.290  0.3194  0.0336 -0.1248
  728BOLB   C2B17458  30.881  28.341   3.538 -0.0681 -0.3527  0.2196
  728BOLB   C3B17459  30.983  28.210   3.795  0.1943 -0.3175  0.0480
  728BOLB   C4B17460  31.082  28.323   4.189 -0.3101 -0.2711  0.0771
  728BOLB   NC217461  31.475  29.158   6.744 -0.1087 -0.2128  0.4988
  728BOLB   PO217462  31.580  28.702   6.714 -0.2240 -0.2503  0.0862
  728BOLB   GL317463  31.501  28.924   6.266 -0.1187  0.0373  0.1606
  728BOLB   GL417464  31.280  28.785   6.196  0.0413  0.0740 -0.5793
  728BOLB   C1C17465  31.667  28.999   5.826  0.1558 -0.3884  0.1284
  728BOLB   C2C17466  31.552  29.021   5.389 -0.1443 -0.5115 -0.0517
  728BOLB   C3C17467  31.288  29.136   5.022 -0.0605  0.1255  0.1184
  728BOLB   C4C17468  30.944  29.025   4.703  0.3585 -0.0626  0.0366
  728BOLB   C1D17469  31.042  29.082   6.030  0.1534  0.2339  0.1882
  728BOLB   C2D17470  30.956  29.183   5.590 -0.0463  0.1923  0.1661
  728BOLB   C3D17471  30.816  29.161   5.210 -0.3621  0.0606  0.1886
  728BOLB   C4D17472  30.436  28.832   5.038 -0.0119  0.3380  0.3207
  729BOLB   NC117473  28.570  35.110   9.861  0.1888 -0.0512  0.0372
  729BOLB   PO117474  28.150  35.058  10.102 -0.1480 -0.1416 -0.1000
  729BOLB   GL117475  28.012  34.748  10.393  0.1291 -0.0755  0.3050
  729BOLB   GL217476  27.671  34.669  10.493  0.1729 -0.0242 -0.0822
  729BOLB   C1A17477  27.965  34.353  10.619 -0.1945  0.3270  0.1441
  729BOLB   C2A17478  28.126  34.048  10.816 -0.3016 -0.1252 -0.2355
  729BOLB   C3A17479  27.886  33.798  11.103 -0.0854  0.3694  0.0745
  729BOLB   C4A17480  27.847  33.663  11.544 -0.2705 -0.0200  0.2603
  729BOLB   C1B17481  27.731  34.803  10.888 -0.0524  0.2189 -0.0714
  729BOLB   C2B17482  27.914  34.963  11.276  0.1229 -0.0461  0.1833
  729BOLB   C3B17483  28.025  34.739  11.662 -0.1225  0.2989 -0.3312
  729BOLB   C4B17484  28.399  34.798  11.721 -0.0843 -0.3228 -0.3482
  729BOLB   NC217485  27.801  33.109   9.624 -0.1830 -0.0961 -0.1053
  729BOLB   PO217486  27.376  32.947   9.742 -0.2514 -0.2440 -0.0123
  729BOLB   GL317487  27.474  32.824  10.127 -0.0492 -0.3209 -0.0354
  729BOLB   GL417488  27.246  32.737  10.304 -0.1021  0.3553 -0.1903
  729BOLB   C1C17489  27.729  32.794  10.482 -0.0970 -0.1720  0.1911
  729BOLB   C2C17490  27.830  32.806  10.981  0.3669 -0.1299  0.2838
  729BOLB   C3C17491  27.583  32.912  11.311 -0.3856 -0.5136 -0.0559
  729BOLB   C4C17492  27.664  33.205  11.610  0.2196 -0.2489 -0.0879
  729BOLB   C1D17493  27.284  32.334  10.385  0.0523  0.0542 -0.0948
  729BOLB   C2D17494  27.313  31.990  10.684 -0.2297 -0.2409  0.0793
  729BOLB   C3D17495  27.516  31.630  10.868 -0.0111 -0.0739 -0.1491
  729BOLB   C4D17496  27.722  31.368  11.073 -0.0020 -0.2076  0.2076
  730BOLB   NC117497  38.957  32.896  24.865  0.0015 -0.1792  0.0488
  730BOLB   PO117498  39.094  33.290  24.820  0.0015 -0.1828  0.3239
  730BOLB   GL117499  38.619  33.294  24.733 -0.0939  0.1050  0.1041
  730BOLB   GL217500  38.347  32.962  24.732  0.0355 -0.4912  0.2820
  730BOLB   C1A17501  38.346  33.398  24.350 -0.1155 -0.2794  0.1241
  730BOLB   C2A17502  37.931  33.270  24.258 -0.1700 -0.0153  0.1396
  730BOLB   C3A17503  37.563  33.401  24.120  0.3218 -0.1970 -0.1716
  730BOLB   C4A17504  37.140  33.335  24.205 -0.1019 -0.3805  0.0693
  730BOLB   C1B17505  37.914  32.929  24.685 -0.0817  0.1019 -0.1282
  730BOLB   C2B17506  37.574  33.257  24.662  0.2937  0.0561 -0.0385
  730BOLB   C3B17507  37.514  33.694  24.519 -0.0314  0.2324 -0.1222
  730BOLB   C4B17508  37.695  34.028  24.396  0.1527 -0.1481 -0.0603
  730BOLB   NC217509  38.566  34.513  25.427  0.1859  0.0289  0.0138
  730BOLB   PO217510  38.567  34.098  25.544  0.3810  0.1321 -0.0198
  730BOLB   GL317511  38.190  34.114  25.547 -0.1130  0.2481  0.0094
  730BOLB   GL417512  37.915  34.122  25.875 -0.1895 -0.1896  0.1913
  730BOLB   C1C17513  37.809  33.841  25.395 -0.0332 -0.1337  0.1984
  730BOLB   C2C17514  37.533  33.500  25.385  0.1632 -0.0766 -0.1142
  730BOLB   C3C17515  37.234  33.236  25.093  0.0699  0.1482 -0.2850
  730BOLB   C4C17516  37.093  33.118  24.610 -0.0284  0.2987 -0.0860
  730BOLB   C1D17517  37.528  34.092  25.797 -0.0987 -0.1890  0.0074
  730BOLB   C2D17518  37.160  33.866  25.610  0.2125  0.0035  0.2885
  730BOLB   C3D17519  36.929  33.568  25.343 -0.2203  0.1245 -0.2474
  730BOLB   C4D17520  36.782  33.168  25.091  0.1374 -0.2950 -0.0567
  731BOLB   NC117521  18.934  26.417   7.533 -0.0983  0.1846 -0.0101
  731BOLB   PO117522  19.318  26.633   7.358  0.1382 -0.2121 -0.1342
  731BOLB   GL117523  19.786  26.788   7.180  0.1645 -0.3568 -0.1087
  731BOLB   GL217524  19.793  27.133   7.162  0.1019  0.0783  0.0858
  731BOLB   C1A17525  19.978  26.723   6.763  0.0643 -0.1757  0.0346
  731BOLB   C2A17526  20.231  26.700   6.345 -0.1894 -0.0387  0.1025
  731BOLB   C3A17527  20.450  26.620   6.056 -0.2681 -0.1867 -0.1683
  731BOLB   C4A17528  20.309  26.530   5.617  0.3972 -0.0573 -0.2764
  731BOLB   C1B17529  20.112  27.313   6.772 -0.0631 -0.0106  0.0997
  731BOLB   C2B17530  20.146  27.616   6.341 -0.0011 -0.0458  0.0298
  731BOLB   C3B17531  19.958  27.845   5.976 -0.0884  0.1687  0.1870
  731BOLB   C4B17532  20.246  28.197   5.913 -0.2577 -0.1887 -0.3638
  731BOLB   NC217533  18.727  25.141   6.463 -0.4865  0.2253 -0.1722
  731BOLB   PO217534  18.722  25.522   6.652  0.1387 -0.1956 -0.1820
  731BOLB   GL317535  19.195  25.441   6.457  0.1714 -0.2573 -0.1100
  731BOLB   GL417536  19.399  25.288   6.615 -0.0670  0.3216  0.3434
  731BOLB   C1C17537  19.308  25.638   6.091  0.2628  0.0570  0.1131
  731BOLB   C2C17538  19.417  25.883   5.809  0.2334 -0.3583  0.0328
  731BOLB   C3C17539  19.663  26.068   5.509  0.0950  0.2864 -0.1754
  731BOLB   C4C17540  19.846  26.460   5.458  0.1265 -0.0780 -0.0131
  731BOLB   C1D17541  19.595  25.285   6.181 -0.0777  0.1737  0.1099
  731BOLB   C2D17542  19.798  25.336   5.805  0.0263 -0.1884  0.2273
  731BOLB   C3D17543  19.606  25.445   5.510  0.2182  0.1260  0.0961
  731BOLB   C4D17544  19.478  25.784   5.152  0.0538  0.0332  0.0290
  732BOLB   NC117545  36.214  29.864  22.486 -0.1798 -0.0550 -0.0339
  732BOLB   PO117546  36.159  30.318  22.417  0.1300  0.2623 -0.2116
  732BOLB   GL117547  36.558  30.310  22.517 -0.1107  0.2197 -0.1653
  732BOLB   GL217548  36.702  29.988  22.467 -0.2549  0.0744  0.3078
  732BOLB   C1A17549  36.954  30.505  22.323  0.0655  0.0453 -0.0375
  732BOLB   C2A17550  37.298  30.347  22.233 -0.1999  0.3556 -0.0721
  732BOLB   C3A17551  37.697  30.273  22.060 -0.2825 -0.0029  0.1332
  732BOLB   C4A17552  38.107  30.322  21.890 -0.1157 -0.3886 -0.1624
  732BOLB   C1B17553  37.075  30.045  22.616 -0.1529  0.0484  0.0322
  732BOLB   C2B17554  37.435  30.097  22.690  0.1224 -0.1125 -0.0099
  732BOLB   C3B17555  37.731  30.197  23.026 -0.0874 -0.0180  0.0065
  732BOLB   C4B17556  38.186  30.354  22.970 -0.1575 -0.1045  0.0658
  732BOLB   NC217557  40.073  31.742  21.634 -0.1739  0.2428  0.0059
  732BOLB   PO217558  39.947  31.365  21.396 -0.2608 -0.2871 -0.0934
  732BOLB   GL317559  39.630  31.191  21.522  0.0245  0.4969 -0.2323
  732BOLB   GL417560  39.441  31.504  21.561 -0.0723  0.2747 -0.2373
  732BOLB   C1C17561  39.301  30.979  21.759  0.2571  0.0459 -0.0258
  732BOLB   C2C17562  38.898  31.055  21.871  0.1715 -0.1716  0.1306
  732BOLB   C3C17563  38.622  30.952  22.122  0.1106  0.0305 -0.1213
  732BOLB   C4C17564  38.340  30.560  22.172 -0.1580  0.2416 -0.1310
  732BOLB   C1D17565  39.355  31.475  22.029 -0.2220 -0.0591  0.2875
  732BOLB   C2D17566  38.955  31.410  22.255  0.3066  0.0391 -0.3638
  732BOLB   C3D17567  38.667  31.317  22.553  0.1727 -0.0357 -0.2125
  732BOLB   C4D17568  38.719  31.024  22.886 -0.1930  0.1073 -0.0372
  733BOLB   NC117569  32.334  41.290  20.886 -0.1593 -0.2094  0.0427
  733BOLB   PO117570  31.984  40.998  20.921 -0.0331 -0.3609 -0.0440
  733BOLB   GL117571  32.078  40.508  20.910 -0.4614 -0.0119  0.0585
  733BOLB   GL217572  32.301  40.541  21.230 -0.0331  0.0692 -0.1371
  733BOLB   C1A17573  31.972  40.163  20.761  0.2011  0.1538  0.0536
  733BOLB   C2A17574  31.856  39.799  20.627 -0.2352  0.1976  0.4075
  733BOLB   C3A17575  31.612  39.728  20.938  0.1775  0.0789  0.1657
  733BOLB   C4A17576  31.566  39.807  21.434 -0.1337 -0.1875 -0.1268
  733BOLB   C1B17577  31.978  40.312  21.346 -0.0150  0.2549  0.2782
  733BOLB   C2B17578  31.580  40.228  21.127  0.1520 -0.3605 -0.1473
  733BOLB   C3B17579  31.259  40.056  21.120 -0.2349  0.0333  0.1148
  733BOLB   C4B17580  31.011  39.891  21.459  0.1080  0.0272  0.4231
  733BOLB   NC217581  30.086  37.897  21.905 -0.0509  0.1845  0.2257
  733BOLB   PO217582  30.467  37.633  21.794 -0.0441 -0.0422  0.2919
  733BOLB   GL317583  30.603  38.034  22.017  0.1421  0.0057  0.0029
  733BOLB   GL417584  30.332  38.144  22.303  0.2448  0.1624  0.0993
  733BOLB   C1C17585  30.659  38.458  21.969  0.0241  0.1430  0.0049
  733BOLB   C2C17586  30.753  38.898  21.817 -0.0695 -0.3430  0.0144
  733BOLB   C3C17587  31.061  39.143  21.754  0.0079  0.1030 -0.2184
  733BOLB   C4C17588  31.280  39.574  21.739  0.0939  0.2024  0.0045
  733BOLB   C1D17589  30.494  38.551  22.468 -0.0284  0.2540 -0.0254
  733BOLB   C2D17590  30.740  38.787  22.676  0.4575 -0.1616  0.0462
  733BOLB   C3D17591  30.791  38.956  23.085  0.0645 -0.0353  0.0309
  733BOLB   C4D17592  30.744  39.111  23.477 -0.3519  0.0827  0.3947
  734BOLB   NC117593  20.232  18.842   1.826  0.0687 -0.2713  0.0093
  734BOLB   PO117594  20.104  19.002   1.440  0.0308  0.2393  0.0439
  734BOLB   GL117595  20.467  19.159   1.091 -0.1451  0.2411 -0.1662
  734BOLB   GL217596  20.432  18.976   0.873  0.4279  0.1828 -0.0839
  734BOLB   C1A17597  20.773  19.516   1.075  0.3466 -0.2694 -0.3979
  734BOLB   C2A17598  20.925  19.867   1.064 -0.1552 -0.2283  0.1933
  734BOLB   C3A17599  21.225  20.170   1.157 -0.0663  0.1923 -0.2086
  734BOLB   C4A17600  21.631  20.090   1.291  0.0349  0.0851 -0.1358
  734BOLB   C1B17601  20.310  19.379   0.639  0.2350 -0.3269  0.1787
  734BOLB   C2B17602  20.502  19.665   0.399 -0.2094 -0.2030 -0.1409
  734BOLB   C3B17603  20.448  19.832  26.921  0.0044 -0.1368  0.0457
  734BOLB   C4B17604  20.504  19.634  26.555 -0.1203  0.0765  0.0845
  734BOLB   NC217605  22.070  18.794   3.383 -0.0354 -0.2845  0.0173
  734BOLB   PO217606  21.790  18.875   3.064 -0.3691  0.0695  0.0283
  734BOLB   GL317607  22.050  19.099   2.795 -0.0244 -0.2906 -0.0656
  734BOLB   GL417608  22.173  18.955   2.449  0.0925 -0.1161 -0.0336
  734BOLB   C1C17609  22.225  19.465   2.499  0.1192  0.3536  0.0087
  734BOLB   C2C17610  22.314  19.661   2.078 -0.0538  0.2900 -0.3013
  734BOLB   C3C17611  22.290  19.795   1.673  0.1839  0.0947 -0.2173
  734BOLB   C4C17612  22.039  20.090   1.492  0.0700 -0.2178 -0.4372
  734BOLB   C1D17613  22.569  19.237   2.175 -0.1076  0.0546 -0.1747
  734BOLB   C2D17614  22.897  19.570   2.364  0.1661  0.1092  0.0588
  734BOLB   C3D17615  23.076  19.833   2.656 -0.0468 -0.0825 -0.0165
  734BOLB   C4D17616  23.389  19.790   3.046  0.0244 -0.0202  0.1004
  735BOLB   NC117617  35.420  31.787  22.328  0.0195  0.0326 -0.0314
  735BOLB   PO117618  35.651  32.041  22.044  0.0181  0.3222  0.0660
  735BOLB   GL117619  36.095  32.065  22.132 -0.2233 -0.0016  0.0742
  735BOLB   GL217620  36.279  32.158  22.387 -0.0584  0.0691  0.3616
  735BOLB   C1A17621  36.380  32.432  21.972  0.0535 -0.0125  0.0107
  735BOLB   C2A17622  36.666  32.682  22.126  0.1284  0.1096  0.1405
  735BOLB   C3A17623  37.065  32.826  21.916 -0.3303  0.1016  0.1018
  735BOLB   C4A17624  37.465  32.727  21.724  0.2093 -0.0547  0.1188
  735BOLB   C1B17625  36.686  32.222  22.331  0.0401 -0.0299  0.0845
  735BOLB   C2B17626  37.072  32.422  22.378  0.0576  0.2596 -0.2333
  735BOLB   C3B17627  37.413  32.736  22.273  0.0995 -0.1592  0.2092
  735BOLB   C4B17628  37.733  33.003  22.097 -0.0267  0.0579 -0.0043
  735BOLB   NC217629  39.630  33.078  21.196 -0.1189 -0.2565  0.0553
  735BOLB   PO217630  39.664  32.761  21.261 -0.0587  0.2526 -0.0218
  735BOLB   GL317631  39.219  32.689  21.392 -0.0802  0.0226  0.0697
  735BOLB   GL417632  39.183  32.846  20.985  0.2703  0.0813  0.0320
  735BOLB   C1C17633  38.799  32.589  21.270  0.2109 -0.0203 -0.0844
  735BOLB   C2C17634  38.456  32.665  21.128 -0.1394  0.1491  0.2552
  735BOLB   C3C17635  38.100  32.652  21.322 -0.3237  0.1091  0.0124
  735BOLB   C4C17636  37.875  32.751  21.598  0.0607  0.1528 -0.1957
  735BOLB   C1D17637  39.234  32.347  20.835 -0.0222  0.4128  0.0567
  735BOLB   C2D17638  39.071  32.208  20.504  0.1205  0.1595 -0.1872
  735BOLB   C3D17639  39.023  31.920  20.218 -0.0135  0.0697 -0.4939
  735BOLB   C4D17640  38.708  31.777  19.900 -0.2239  0.1988 -0.0169
  736BOLB   NC117641  26.912  26.866  14.117 -0.2400 -0.0350  0.1677
  736BOLB   PO117642  27.344  26.614  14.333  0.4343 -0.0422 -0.0427
  736BOLB   GL117643  27.330  26.581  13.961 -0.1882 -0.3152  0.1489
  736BOLB   GL217644  27.229  26.791  13.758  0.1075  0.3074  0.2134
  736BOLB   C1A17645  27.530  26.275  13.838  0.0101  0.1371  0.0517
  736BOLB   C2A17646  27.389  26.030  13.478  0.1186  0.0826  0.2192
  736BOLB   C3A17647  27.612  25.741  13.160 -0.0242  0.1568  0.2156
  736BOLB   C4A17648  27.767  25.604  12.773 -0.1970 -0.2226 -0.2973
  736BOLB   C1B17649  27.618  26.700  13.570  0.1111 -0.1566  0.0374
  736BOLB   C2B17650  27.661  26.428  13.247  0.0912 -0.0840 -0.0165
  736BOLB   C3B17651  27.751  26.218  12.902  0.0147  0.4597 -0.0578
  736BOLB   C4B17652  27.676  26.049  12.456 -0.1007  0.0147  0.1061
  736BOLB   NC217653  27.785  24.861  10.431  0.0563 -0.2019 -0.3856
  736BOLB   PO217654  27.969  24.527  10.635 -0.0074  0.3547  0.1193
  736BOLB   GL317655  27.802  24.823  11.021 -0.4554 -0.1821  0.2264
  736BOLB   GL417656  27.679  24.576  11.197 -0.0824 -0.1104  0.1606
  736BOLB   C1C17657  27.716  25.020  11.449  0.2431 -0.1682 -0.3298
  736BOLB   C2C17658  27.944  25.171  11.801 -0.0675  0.1872  0.1144
  736BOLB   C3C17659  28.005  25.440  12.026 -0.2483  0.0624  0.0515
  736BOLB   C4C17660  27.685  25.508  12.417 -0.2376 -0.0315 -0.0299
  736BOLB   C1D17661  27.711  24.553  11.634  0.1826  0.0212  0.3532
  736BOLB   C2D17662  28.041  24.581  11.826 -0.2538 -0.0426 -0.1270
  736BOLB   C3D17663  28.248  24.745  12.114  0.0627  0.4466 -0.0044
  736BOLB   C4D17664  28.626  24.963  12.279  0.1462  0.0885  0.1158
  737BOLB   NC117665  26.705  37.814  20.206 -0.3062 -0.0601 -0.3465
  737BOLB   PO117666  26.477  37.955  19.933  0.3630  0.0438 -0.0622
  737BOLB   GL117667  26.403  38.404  19.789  0.0044  0.3149 -0.0131
  737BOLB   GL217668  26.219  38.520  19.977  0.1679  0.1339  0.0444
  737BOLB   C1A17669  26.535  38.777  19.693 -0.3829  0.1072 -0.2738
  737BOLB   C2A17670  26.537  39.135  19.312 -0.1636  0.0592 -0.2591
  737BOLB   C3A17671  26.629  39.358  18.919  0.1821  0.1239  0.1574
  737BOLB   C4A17672  26.734  39.690  18.693  0.3465  0.0282  0.1475
  737BOLB   C1B17673  25.961  38.695  19.688 -0.0125  0.2862 -0.4822
  737BOLB   C2B17674  25.766  39.021  19.548 -0.1120 -0.1767 -0.0183
  737BOLB   C3B17675  25.572  39.385  19.581 -0.5682  0.3391  0.1913
  737BOLB   C4B17676  25.784  39.893  19.471 -0.2986 -0.1831 -0.1444
  737BOLB   NC217677  26.985  41.970  17.855 -0.3587  0.1411 -0.0857
  737BOLB   PO217678  26.556  41.877  18.121  0.1673 -0.2011  0.2124
  737BOLB   GL317679  26.634  41.559  17.911  0.0472 -0.3117 -0.2983
  737BOLB   GL417680  26.380  41.252  17.915 -0.0682 -0.1259 -0.1956
  737BOLB   C1C17681  26.871  41.183  18.094 -0.2961 -0.0179  0.2266
  737BOLB   C2C17682  26.864  40.800  18.145 -0.0486 -0.1081  0.0768
  737BOLB   C3C17683  26.844  40.576  18.535  0.0890  0.0778  0.3072
  737BOLB   C4C17684  26.804  40.146  18.712  0.3868 -0.0013 -0.0186
  737BOLB   C1D17685  26.387  40.958  18.206 -0.1683 -0.0192  0.1011
  737BOLB   C2D17686  26.333  40.735  18.554 -0.0587 -0.1011  0.0525
  737BOLB   C3D17687  26.369  40.371  18.626  0.2718  0.3246  0.2337
  737BOLB   C4D17688  26.327  40.064  18.806  0.1474  0.1214 -0.1175
  738BOLB   NC117689  14.624  22.455  20.883 -0.4093 -0.0279  0.1387
  738BOLB   PO117690  14.485  22.300  20.448 -0.0763  0.0151 -0.0161
  738BOLB   GL117691  14.926  22.408  20.293 -0.1053  0.0167  0.1007
  738BOLB   GL217692  15.230  22.145  20.239  0.0871 -0.2407  0.2463
  738BOLB   C1A17693  15.270  22.539  20.604 -0.3774 -0.1637  0.4046
  738BOLB   C2A17694  15.706  22.660  20.491  0.0224  0.2137  0.2726
  738BOLB   C3A17695  15.922  23.104  20.507 -0.1567 -0.2532  0.1031
  738BOLB   C4A17696  15.943  23.253  20.047 -0.3960  0.2101 -0.0401
  738BOLB   C1B17697  15.637  22.229  19.994 -0.0249 -0.1082  0.1834
  738BOLB   C2B17698  15.895  22.226  19.581 -0.1008  0.0782  0.3523
  738BOLB   C3B17699  15.795  22.446  19.281 -0.1432 -0.1653 -0.0175
  738BOLB   C4B17700  15.825  22.542  18.843  0.0004  0.0754  0.2901
  738BOLB   NC217701  13.919  23.355  19.117 -0.3330 -0.4806  0.1414
  738BOLB   PO217702  14.287  23.683  18.942 -0.0830  0.0969  0.2353
  738BOLB   GL317703  14.671  23.796  19.028  0.4206 -0.1332  0.3034
  738BOLB   GL417704  14.658  24.194  18.901  0.0780  0.1500  0.2142
  738BOLB   C1C17705  14.990  23.687  18.851  0.0162  0.2496  0.0341
  738BOLB   C2C17706  15.443  23.658  19.013  0.0263  0.1243 -0.1706
  738BOLB   C3C17707  15.795  23.488  19.199 -0.1337  0.2677  0.3638
  738BOLB   C4C17708  15.721  23.433  19.712 -0.1183 -0.2913  0.1130
  738BOLB   C1D17709  14.945  24.029  19.356 -0.1799 -0.0849  0.1730
  738BOLB   C2D17710  15.425  24.211  19.387 -0.0717  0.0672 -0.0617
  738BOLB   C3D17711  15.518  24.579  19.165 -0.4303  0.5977  0.0764
  738BOLB   C4D17712  15.368  24.904  19.036 -0.3645 -0.0221  0.0310
  739BOLB   NC117713  34.294  26.001  20.684  0.1659  0.0127 -0.0728
  739BOLB   PO117714  34.540  26.131  21.110 -0.3293 -0.2570 -0.0335
  739BOLB   GL117715  34.906  25.843  21.045 -0.0544  0.0066 -0.1083
  739BOLB   GL217716  35.115  26.034  21.264 -0.2742 -0.0860  0.4738
  739BOLB   C1A17717  35.163  25.495  21.061 -0.2275  0.0868 -0.0034
  739BOLB   C2A17718  35.529  25.178  21.146 -0.1802 -0.0499  0.0773
  739BOLB   C3A17719  35.833  24.931  21.202 -0.2451  0.0819  0.0739
  739BOLB   C4A17720  36.028  24.758  21.387 -0.1144  0.0039  0.0274
  739BOLB   C1B17721  35.569  25.834  21.233  0.0544 -0.2929  0.0838
  739BOLB   C2B17722  35.993  25.799  21.302  0.0404  0.0413  0.4120
  739BOLB   C3B17723  36.421  25.795  21.593  0.2249  0.0334 -0.0313
  739BOLB   C4B17724  36.772  25.594  21.931 -0.1804 -0.1522 -0.0237
  739BOLB   NC217725  38.362  23.700  21.130  0.0871 -0.0553 -0.1585
  739BOLB   PO217726  38.305  24.136  20.991 -0.3307  0.4221  0.0782
  739BOLB   GL317727  37.973  24.272  20.929  0.0007 -0.1427  0.1372
  739BOLB   GL417728  37.724  24.032  20.817  0.0728 -0.1848 -0.1890
  739BOLB   C1C17729  37.654  24.568  21.181  0.0435  0.1237 -0.0173
  739BOLB   C2C17730  37.234  24.499  21.558 -0.1363  0.0212  0.2365
  739BOLB   C3C17731  36.781  24.501  21.541  0.2467  0.3173  0.3288
  739BOLB   C4C17732  36.435  24.724  21.462 -0.0885 -0.0875 -0.1508
  739BOLB   C1D17733  37.584  23.587  20.760 -0.2481 -0.0681 -0.0697
  739BOLB   C2D17734  37.536  23.201  20.987  0.2926  0.0669  0.2062
  739BOLB   C3D17735  37.306  22.819  21.254  0.0502 -0.2614  0.2019
  739BOLB   C4D17736  37.232  22.326  21.257 -0.4327  0.5045  0.0991
  740BOLB   NC117737  25.319  17.223  18.575  0.1545  0.2348 -0.1035
  740BOLB   PO117738  25.651  17.038  18.745  0.2302 -0.3504  0.0715
  740BOLB   GL117739  25.677  17.399  18.939  0.1346  0.0267 -0.1235
  740BOLB   GL217740  25.868  17.705  18.979  0.0027 -0.0399 -0.1377
  740BOLB   C1A17741  25.373  17.651  19.085  0.0175 -0.0598 -0.0812
  740BOLB   C2A17742  25.512  17.942  19.368 -0.0617 -0.0670 -0.0996
  740BOLB   C3A17743  25.451  18.320  19.522  0.0819 -0.1755 -0.1583
  740BOLB   C4A17744  25.327  18.787  19.505 -0.1259  0.2667  0.2029
  740BOLB   C1B17745  25.525  17.878  18.590  0.1133 -0.1110  0.1402
  740BOLB   C2B17746  25.274  18.283  18.565  0.1882 -0.1748 -0.1181
  740BOLB   C3B17747  25.075  18.539  18.371 -0.0542  0.1768  0.1952
  740BOLB   C4B17748  24.786  18.835  18.142  0.3311  0.0631  0.2058
  740BOLB   NC217749  26.191  21.316  19.526 -0.1319 -0.0162 -0.1061
  740BOLB   PO217750  25.715  21.291  19.499 -0.2020 -0.0852 -0.2059
  740BOLB   GL317751  25.721  20.750  19.463  0.5673  0.1442  0.1630
  740BOLB   GL417752  25.943  20.585  19.195  0.1885  0.0792 -0.0340
  740BOLB   C1C17753  25.620  20.288  19.378 -0.2081 -0.2347 -0.3550
  740BOLB   C2C17754  25.560  19.948  19.186  0.2576 -0.0536 -0.2686
  740BOLB   C3C17755  25.615  19.509  19.219 -0.1412  0.3482  0.0467
  740BOLB   C4C17756  25.397  19.139  19.325 -0.0280 -0.3673  0.1793
  740BOLB   C1D17757  26.108  20.128  19.119 -0.3514 -0.0087  0.0693
  740BOLB   C2D17758  26.453  19.889  18.952  0.0156 -0.2860 -0.2937
  740BOLB   C3D17759  26.797  20.061  18.673 -0.4250  0.1539  0.0190
  740BOLB   C4D17760  27.259  20.092  18.656 -0.1499  0.1271 -0.2614
  741BOLB   NC117761  30.807  37.104  20.310  0.1643 -0.0150  0.1841
  741BOLB   PO117762  31.237  37.303  20.271  0.0640  0.0203  0.0050
  741BOLB   GL117763  31.609  37.554  20.117 -0.2882  0.0713  0.1894
  741BOLB   GL217764  31.700  37.766  20.415 -0.0795  0.1229 -0.0018
  741BOLB   C1A17765  31.862  38.018  19.940  0.1015  0.0714  0.1264
  741BOLB   C2A17766  32.130  38.340  19.804 -0.2507 -0.0647 -0.1130
  741BOLB   C3A17767  32.341  38.676  19.852  0.0392 -0.0454 -0.1151
  741BOLB   C4A17768  32.607  39.017  19.970  0.1487 -0.0026 -0.0766
  741BOLB   C1B17769  31.757  38.041  20.783 -0.0498  0.0883 -0.1313
  741BOLB   C2B17770  31.868  38.351  21.020 -0.1301  0.1726  0.1062
  741BOLB   C3B17771  31.937  38.694  21.083  0.2133 -0.3414 -0.1025
  741BOLB   C4B17772  32.142  39.030  21.088 -0.1888  0.1185  0.0075
  741BOLB   NC217773  33.096  40.851  20.872 -0.0392 -0.1841 -0.1273
  741BOLB   PO217774  33.366  40.630  21.148 -0.0913 -0.1498  0.1875
  741BOLB   GL317775  33.153  40.340  21.249  0.2717  0.1491  0.1652
  741BOLB   GL417776  32.826  40.507  21.200 -0.1180  0.0427 -0.1171
  741BOLB   C1C17777  32.960  40.057  21.004  0.2212  0.1448  0.2762
  741BOLB   C2C17778  32.818  40.034  20.655  0.0574 -0.4608 -0.0507
  741BOLB   C3C17779  32.785  39.696  20.251  0.0806 -0.5276  0.0487
  741BOLB   C4C17780  32.688  39.292  20.344  0.0923  0.2084  0.0155
  741BOLB   C1D17781  32.542  40.462  21.638  0.0237 -0.3237 -0.1862
  741BOLB   C2D17782  32.329  40.245  21.905 -0.2348  0.0645  0.0591
  741BOLB   C3D17783  31.859  40.157  21.807 -0.1880  0.3234  0.0100
  741BOLB   C4D17784  31.737  39.711  22.013  0.0613  0.1113 -0.0099
  742BOLB   NC117785  26.685  36.297   0.787  0.0296  0.0521  0.0425
  742BOLB   PO117786  26.922  36.104   1.046  0.2794 -0.1093  0.0239
  742BOLB   GL117787  27.056  36.507   1.171  0.2812  0.2832 -0.0085
  742BOLB   GL217788  26.829  36.734   1.169 -0.2296  0.2779 -0.1128
  742BOLB   C1A17789  27.324  36.920   1.304 -0.1791 -0.1116  0.0471
  742BOLB   C2A17790  27.660  37.196   1.284 -0.2308 -0.3773  0.0956
  742BOLB   C3A17791  27.999  37.441   1.361 -0.0504 -0.1621 -0.0278
  742BOLB   C4A17792  28.183  37.654   1.723  0.0088 -0.3510 -0.0097
  742BOLB   C1B17793  26.825  37.226   1.307  0.0008  0.1840  0.1313
  742BOLB   C2B17794  26.566  37.563   1.110 -0.1647 -0.2181 -0.1136
  742BOLB   C3B17795  26.767  37.913   0.930 -0.1431 -0.0095 -0.0930
  742BOLB   C4B17796  26.689  38.156   0.625  0.0797 -0.0222 -0.3484
  742BOLB   NC217797  27.489  38.615   3.731 -0.2363 -0.2223 -0.1043
  742BOLB   PO217798  27.863  38.361   3.753 -0.0733 -0.3455  0.1169
  742BOLB   GL317799  28.124  38.170   3.483  0.1213 -0.2532 -0.0619
  742BOLB   GL417800  28.206  37.788   3.573  0.3557 -0.2231 -0.0826
  742BOLB   C1C17801  28.206  37.871   3.112 -0.0989 -0.3018 -0.2561
  742BOLB   C2C17802  28.408  37.560   2.837 -0.0268  0.3997  0.2541
  742BOLB   C3C17803  28.385  37.275   2.330 -0.0276 -0.1942 -0.1203
  742BOLB   C4C17804  28.360  37.713   2.122 -0.0260 -0.3944  0.0766
  742BOLB   C1D17805  28.300  37.484   3.356 -0.0723 -0.1421  0.0875
  742BOLB   C2D17806  28.578  37.159   3.172 -0.3231 -0.1381 -0.0288
  742BOLB   C3D17807  28.949  36.858   3.073 -0.1432  0.2032  0.0006
  742BOLB   C4D17808  29.122  36.469   2.963  0.0051  0.0118 -0.0870
  743BOLB   NC117809  16.336  31.102  16.731  0.1848  0.0122 -0.0449
  743BOLB   PO117810  16.408  31.529  17.106 -0.1359  0.1649 -0.0275
  743BOLB   GL117811  16.800  31.448  16.871  0.1385  0.1603 -0.2920
  743BOLB   GL217812  17.131  31.674  17.036  0.2816  0.4879  0.0064
  743BOLB   C1A17813  17.077  31.172  16.905  0.1227  0.2375  0.0018
  743BOLB   C2A17814  17.329  30.922  17.359 -0.2628  0.0542  0.2381
  743BOLB   C3A17815  17.554  30.719  17.634 -0.1290  0.1674 -0.1168
  743BOLB   C4A17816  17.937  30.573  17.729 -0.0828  0.0307  0.0150
  743BOLB   C1B17817  17.413  31.450  17.227  0.1886  0.1477  0.0938
  743BOLB   C2B17818  17.582  31.337  17.539 -0.0127  0.1205  0.2934
  743BOLB   C3B17819  17.811  31.069  17.811  0.1954 -0.1837  0.0116
  743BOLB   C4B17820  17.676  30.820  18.107 -0.3322  0.0738 -0.2132
  743BOLB   NC217821  19.966  30.407  19.145 -0.1570 -0.1019 -0.1915
  743BOLB   PO217822  19.692  30.123  18.874 -0.2383 -0.1466 -0.0821
  743BOLB   GL317823  19.440  30.402  18.676  0.0712  0.0127 -0.1988
  743BOLB   GL417824  19.294  30.582  19.009 -0.2699  0.2212  0.0935
  743BOLB   C1C17825  19.204  30.452  18.276 -0.1245  0.3505  0.0859
  743BOLB   C2C17826  18.793  30.205  18.223  0.1032 -0.2502 -0.3680
  743BOLB   C3C17827  18.529  30.272  18.063 -0.1893  0.0771 -0.0323
  743BOLB   C4C17828  18.227  30.389  17.893  0.2492  0.1079  0.2837
  743BOLB   C1D17829  19.058  30.886  18.715  0.1925  0.1107 -0.0335
  743BOLB   C2D17830  18.695  31.126  18.671 -0.2351 -0.1308 -0.4478
  743BOLB   C3D17831  18.229  31.314  18.692  0.0890  0.0761  0.0059
  743BOLB   C4D17832  17.895  31.532  18.660 -0.2259  0.1408  0.0623
  744BOLB   NC117833  17.234  35.687  18.545 -0.0102  0.1688 -0.1749
  744BOLB   PO117834  17.470  35.816  18.795  0.1558 -0.0037 -0.1539
  744BOLB   GL117835  17.643  35.449  19.031 -0.3286 -0.0652 -0.0993
  744BOLB   GL217836  17.712  35.393  19.397  0.1842  0.3870  0.0565
  744BOLB   C1A17837  17.778  35.060  18.999  0.1021 -0.0020  0.3347
  744BOLB   C2A17838  18.191  34.849  18.935 -0.3398  0.1276  0.1116
  744BOLB   C3A17839  18.351  34.441  18.978 -0.3097 -0.3008  0.0945
  744BOLB   C4A17840  18.675  34.175  18.877  0.1550  0.2231  0.2357
  744BOLB   C1B17841  17.911  35.052  19.591 -0.2082  0.0507  0.2627
  744BOLB   C2B17842  18.280  34.990  19.890  0.0346 -0.1275  0.0651
  744BOLB   C3B17843  18.388  34.573  20.132  0.1707 -0.0013  0.1564
  744BOLB   C4B17844  18.545  34.206  20.402 -0.0641 -0.4446  0.2692
  744BOLB   NC217845  21.415  33.330  19.561 -0.0826 -0.0751 -0.2521
  744BOLB   PO217846  20.900  33.210  19.632 -0.1312  0.0540 -0.0149
  744BOLB   GL317847  20.396  33.161  19.682  0.0252 -0.1603  0.1815
  744BOLB   GL417848  20.250  33.277  19.988 -0.0734 -0.2707 -0.1163
  744BOLB   C1C17849  19.943  33.162  19.500  0.1984  0.0341 -0.0289
  744BOLB   C2C17850  19.600  33.277  19.232  0.3707  0.0438 -0.0460
  744BOLB   C3C17851  19.238  33.447  19.034 -0.0318 -0.0531  0.0898
  744BOLB   C4C17852  18.946  33.815  19.117 -0.0890  0.1490  0.0068
  744BOLB   C1D17853  19.918  33.420  19.980  0.2214  0.2269  0.1378
  744BOLB   C2D17854  19.557  33.595  19.791 -0.1048  0.2411 -0.1190
  744BOLB   C3D17855  19.338  33.867  19.560 -0.1007  0.2853 -0.1388
  744BOLB   C4D17856  18.979  34.161  19.540  0.0232  0.0602 -0.1572
  745BOLB   NC117857  33.308  24.617  24.267  0.1435 -0.1123  0.2914
  745BOLB   PO117858  32.998  24.189  24.318  0.0434 -0.1977 -0.2381
  745BOLB   GL117859  33.432  23.978  24.322  0.2882 -0.2435 -0.0682
  745BOLB   GL217860  33.591  23.685  24.061  0.0300  0.1496 -0.1886
  745BOLB   C1A17861  33.707  23.834  24.660  0.1066  0.2300 -0.1918
  745BOLB   C2A17862  33.991  23.469  24.782 -0.1063 -0.1093  0.2122
  745BOLB   C3A17863  34.165  23.136  24.991 -0.3410 -0.1029  0.0624
  745BOLB   C4A17864  34.192  22.542  25.159  0.2425 -0.0732  0.1607
  745BOLB   C1B17865  33.964  23.587  24.203 -0.4014  0.0315 -0.3700
  745BOLB   C2B17866  34.284  23.359  24.133  0.0691 -0.4751 -0.0737
  745BOLB   C3B17867  34.539  22.986  24.127 -0.1239  0.1769 -0.2106
  745BOLB   C4B17868  34.772  22.576  24.269 -0.1417  0.1791  0.1039
  745BOLB   NC217869  35.585  20.539  25.212 -0.0791 -0.2011 -0.1347
  745BOLB   PO217870  35.132  20.476  25.084  0.4936  0.0568  0.1712
  745BOLB   GL317871  34.707  20.689  25.081  0.0700 -0.1122 -0.0041
  745BOLB   GL417872  34.888  21.050  25.121 -0.0595 -0.1104 -0.0005
  745BOLB   C1C17873  34.315  20.779  25.197 -0.1232  0.1478 -0.0809
  745BOLB   C2C17874  34.161  21.154  25.432 -0.1438 -0.1455  0.1488
  745BOLB   C3C17875  34.148  21.703  25.475  0.0894 -0.0079  0.0984
  745BOLB   C4C17876  34.088  22.016  25.126  0.1639  0.0410 -0.3744
  745BOLB   C1D17877  34.700  21.114  25.526 -0.0274 -0.0532 -0.3967
  745BOLB   C2D17878  34.521  21.492  25.694  0.0034 -0.4333  0.3753
  745BOLB   C3D17879  34.060  21.445  25.907 -0.2813  0.1329 -0.2435
  745BOLB   C4D17880  33.763  21.117  25.903  0.2531 -0.0408 -0.0571
  746BOLB   NC117881  25.416  28.604  14.359  0.1586 -0.5009 -0.3598
  746BOLB   PO117882  25.738  28.570  13.940  0.0059  0.1127  0.1994
  746BOLB   GL117883  25.531  28.506  13.487 -0.2387 -0.2751 -0.3624
  746BOLB   GL217884  25.338  28.356  13.379  0.2528 -0.2256  0.5715
  746BOLB   C1A17885  25.700  28.475  12.957  0.0420  0.0043 -0.0832
  746BOLB   C2A17886  25.505  28.523  12.558  0.0761  0.1398  0.0806
  746BOLB   C3A17887  25.397  28.535  12.061  0.1588  0.2959 -0.1625
  746BOLB   C4A17888  25.604  28.248  11.776 -0.3058 -0.3581  0.4629
  746BOLB   C1B17889  25.053  28.257  13.014 -0.0134 -0.1295  0.0957
  746BOLB   C2B17890  24.768  28.031  12.658  0.1736  0.3118 -0.0349
  746BOLB   C3B17891  24.332  28.191  12.535  0.2067  0.1446  0.3982
  746BOLB   C4B17892  24.071  28.379  12.217 -0.2835  0.0959  0.1921
  746BOLB   NC217893  25.175  27.514   9.687  0.1397  0.1605 -0.0508
  746BOLB   PO217894  25.473  27.217   9.710 -0.0520  0.0473 -0.0092
  746BOLB   GL317895  25.556  27.386   9.999  0.2077  0.2200  0.1972
  746BOLB   GL417896  25.563  27.101  10.258  0.1300  0.0834 -0.0433
  746BOLB   C1C17897  25.409  27.574  10.359 -0.4645  0.0833 -0.0184
  746BOLB   C2C17898  25.523  27.637  10.786 -0.0873 -0.1160  0.3530
  746BOLB   C3C17899  25.679  27.862  11.079 -0.2832 -0.1876  0.0363
  746BOLB   C4C17900  25.579  27.904  11.432  0.3859 -0.1831 -0.3391
  746BOLB   C1D17901  25.868  27.349  10.377 -0.0237 -0.0016 -0.0412
  746BOLB   C2D17902  26.347  27.361  10.466 -0.0853 -0.1599 -0.2851
  746BOLB   C3D17903  26.630  27.256  10.835 -0.2024  0.0481 -0.0423
  746BOLB   C4D17904  26.913  27.035  11.026  0.0964 -0.3848 -0.2810
  747BOLB   NC117905  26.114  21.874  20.993  0.0623  0.0800 -0.0530
  747BOLB   PO117906  26.228  21.454  20.793 -0.0806  0.1981 -0.2632
  747BOLB   GL117907  25.949  21.118  20.528 -0.1855 -0.0819 -0.1859
  747BOLB   GL217908  25.583  21.005  20.406 -0.1251 -0.0105  0.1015
  747BOLB   C1A17909  25.835  20.577  20.508  0.1557  0.2156 -0.2391
  747BOLB   C2A17910  25.802  20.307  20.256 -0.0032 -0.3362  0.1163
  747BOLB   C3A17911  25.844  19.902  20.162  0.3607 -0.1056 -0.2632
  747BOLB   C4A17912  26.050  19.560  20.084 -0.1565  0.2555 -0.1762
  747BOLB   C1B17913  25.358  20.623  20.362  0.2921  0.2731 -0.0903
  747BOLB   C2B17914  25.195  20.335  20.728  0.2319  0.1851  0.2036
  747BOLB   C3B17915  24.927  19.917  20.840  0.0263  0.0717 -0.1801
  747BOLB   C4B17916  24.817  19.589  20.579 -0.3785 -0.0124 -0.0599
  747BOLB   NC217917  26.150  16.355  19.935 -0.0699 -0.1511  0.1423
  747BOLB   PO217918  26.077  16.778  20.047  0.2984  0.5443  0.4472
  747BOLB   GL317919  26.066  17.182  20.188 -0.2070  0.2828 -0.0487
  747BOLB   GL417920  25.974  17.333  20.524  0.1973 -0.2804  0.3171
  747BOLB   C1C17921  26.214  17.638  20.204 -0.3053  0.0113 -0.0871
  747BOLB   C2C17922  26.157  18.128  20.188 -0.0684 -0.2939  0.2819
  747BOLB   C3C17923  26.140  18.605  20.054 -0.2277  0.0705  0.1045
  747BOLB   C4C17924  26.140  19.114  20.081  0.1324 -0.1277 -0.0486
  747BOLB   C1D17925  25.724  17.704  20.550  0.1806  0.2282 -0.0990
  747BOLB   C2D17926  25.736  18.130  20.464 -0.0014  0.0542 -0.0699
  747BOLB   C3D17927  25.598  18.507  20.422 -0.0489  0.0086 -0.2051
  747BOLB   C4D17928  25.269  18.788  20.215 -0.0311  0.1601  0.2264
  748BOLB   NC117929  22.694  23.210   8.326 -0.4349  0.2370 -0.0760
  748BOLB   PO117930  22.751  23.485   7.922 -0.0303 -0.0255  0.0932
  748BOLB   GL117931  23.058  23.580   7.636  0.0040 -0.2736 -0.1829
  748BOLB   GL217932  22.878  23.776   7.330  0.0023 -0.4342 -0.1294
  748BOLB   C1A17933  23.210  23.292   7.217  0.2785  0.1043  0.0592
  748BOLB   C2A17934  23.241  23.212   6.744  0.0809  0.1431 -0.1595
  748BOLB   C3A17935  23.194  22.941   6.512 -0.0262 -0.4532 -0.0455
  748BOLB   C4A17936  23.101  23.251   6.084 -0.0605  0.3509 -0.0502
  748BOLB   C1B17937  23.148  23.626   6.903  0.0594 -0.2905 -0.0539
  748BOLB   C2B17938  23.401  23.601   6.529 -0.0161  0.1136  0.2643
  748BOLB   C3B17939  23.538  23.340   6.260  0.0029 -0.2911  0.2217
  748BOLB   C4B17940  23.428  22.919   6.106 -0.1635  0.1601  0.2825
  748BOLB   NC217941  22.717  23.964   7.793 -0.0975 -0.1298  0.0786
  748BOLB   PO217942  22.360  23.865   7.747 -0.2694 -0.1849 -0.0294
  748BOLB   GL317943  22.330  23.835   7.273  0.0288 -0.3346  0.0688
  748BOLB   GL417944  22.217  24.187   7.165 -0.1751  0.0528 -0.0361
  748BOLB   C1C17945  22.185  23.832   6.785  0.0699  0.1115  0.1346
  748BOLB   C2C17946  22.378  23.607   6.494  0.1498  0.2259 -0.3100
  748BOLB   C3C17947  22.410  23.270   6.152 -0.1802 -0.3120 -0.0016
  748BOLB   C4C17948  22.760  23.352   5.861 -0.2856 -0.1322 -0.2830
  748BOLB   C1D17949  22.367  24.421   6.838  0.1840  0.3057 -0.0787
  748BOLB   C2D17950  22.503  24.778   6.664  0.0545  0.0562  0.1562
  748BOLB   C3D17951  22.480  25.112   6.389 -0.3398  0.0102 -0.3508
  748BOLB   C4D17952  22.235  25.477   6.335 -0.0232 -0.1271 -0.0438
  749BOLB   NC117953  23.104  40.670  24.362  0.3897 -0.2548 -0.2204
  749BOLB   PO117954  23.002  40.676  24.834  0.0932 -0.1771 -0.0591
  749BOLB   GL117955  23.089  40.244  24.801 -0.0960 -0.2337 -0.1258
  749BOLB   GL217956  23.172  40.128  24.997 -0.0508 -0.0407  0.0879
  749BOLB   C1A17957  23.161  39.770  24.615  0.2283 -0.2449  0.2364
  749BOLB   C2A17958  23.079  39.432  24.366  0.0913 -0.0868 -0.0566
  749BOLB   C3A17959  23.148  39.098  24.225 -0.1347  0.2249  0.1666
  749BOLB   C4A17960  23.484  38.827  24.057  0.2295  0.1468 -0.3290
  749BOLB   C1B17961  23.542  39.922  24.891  0.1333 -0.1914 -0.0944
  749BOLB   C2B17962  23.813  39.642  24.843 -0.0577 -0.0044 -0.0595
  749BOLB   C3B17963  24.067  39.524  24.497  0.1728  0.0808 -0.0230
  749BOLB   C4B17964  24.133  39.145  24.367 -0.0783 -0.1559  0.1284
  749BOLB   NC217965  25.543  37.646  23.232 -0.0003 -0.4080  0.0662
  749BOLB   PO217966  25.363  37.309  23.465  0.0950 -0.1849 -0.2941
  749BOLB   GL317967  24.941  37.370  23.619 -0.0690 -0.1200  0.2759
  749BOLB   GL417968  24.928  37.441  23.961  0.3444  0.1505  0.2175
  749BOLB   C1C17969  24.509  37.707  23.670 -0.3589 -0.2410 -0.0652
  749BOLB   C2C17970  24.374  38.144  23.787  0.0534  0.1261 -0.4630
  749BOLB   C3C17971  24.209  38.574  23.936  0.0612  0.3489 -0.0102
  749BOLB   C4C17972  23.851  38.779  24.119 -0.2188 -0.2057 -0.2938
  749BOLB   C1D17973  24.554  37.573  24.181  0.1441  0.0120  0.0980
  749BOLB   C2D17974  24.227  37.929  24.241  0.1439 -0.0701  0.2482
  749BOLB   C3D17975  24.047  38.356  24.429 -0.0669  0.0270 -0.0087
  749BOLB   C4D17976  23.611  38.634  24.528  0.0102 -0.1285  0.4627
  750BOLB   NC117977  27.427  29.970  13.991  0.0128 -0.0697  0.2579
  750BOLB   PO117978  27.694  30.197  13.755 -0.3413  0.1077  0.0655
  750BOLB   GL117979  27.660  30.193  13.271 -0.1688  0.1415  0.1565
  750BOLB   GL217980  28.052  30.135  13.165  0.0374  0.0501 -0.2236
  750BOLB   C1A17981  27.487  30.238  12.902 -0.0840 -0.1407 -0.2269
  750BOLB   C2A17982  27.563  30.174  12.463  0.0266 -0.2438  0.0123
  750BOLB   C3A17983  27.382  30.103  12.124  0.1493 -0.0506  0.0492
  750BOLB   C4A17984  27.355  30.321  11.639  0.1984 -0.2576  0.2173
  750BOLB   C1B17985  28.070  29.826  12.933  0.0085 -0.0751  0.1210
  750BOLB   C2B17986  28.098  29.850  12.480 -0.1157  0.1312  0.2351
  750BOLB   C3B17987  28.048  29.801  12.065  0.1612  0.1907  0.1685
  750BOLB   C4B17988  28.079  29.465  11.822  0.1308  0.2186  0.2511
  750BOLB   NC217989  27.161  31.898   9.707  0.0633 -0.2133 -0.3413
  750BOLB   PO217990  27.256  31.539   9.380  0.0077  0.2435 -0.0190
  750BOLB   GL317991  27.174  31.281   9.691 -0.3278 -0.2931  0.0324
  750BOLB   GL417992  27.114  31.457  10.056 -0.0777 -0.3416  0.0825
  750BOLB   C1C17993  27.195  30.877  10.050  0.0308 -0.0298 -0.2072
  750BOLB   C2C17994  27.542  30.739  10.305 -0.0679 -0.1244 -0.0687
  750BOLB   C3C17995  27.466  30.568  10.706  0.3022 -0.0072  0.0833
  750BOLB   C4C17996  27.358  30.535  11.211 -0.0817  0.0325 -0.1132
  750BOLB   C1D17997  27.185  31.544  10.492 -0.0622 -0.2389  0.1087
  750BOLB   C2D17998  26.984  31.555  10.919  0.2950 -0.1507  0.0617
  750BOLB   C3D17999  27.194  31.640  11.383 -0.1185  0.2180 -0.0223
  750BOLB   C4D18000  27.414  31.721  11.760  0.1817  0.1463  0.0157
  751BOLB   NC118001  29.657  33.063  14.389  0.3620  0.1523  0.0110
  751BOLB   PO118002  29.312  32.829  14.207 -0.0086 -0.1087 -0.4354
  751BOLB   GL118003  29.261  32.818  13.788  0.1416 -0.0770 -0.1023
  751BOLB   GL218004  28.952  32.866  13.737  0.2902  0.2190  0.1249
  751BOLB   C1A18005  29.268  32.540  13.456  0.2780  0.1198 -0.1511
  751BOLB   C2A18006  29.243  32.601  12.973 -0.0163  0.3512 -0.0436
  751BOLB   C3A18007  29.004  32.839  12.688  0.3920  0.1657  0.1765
  751BOLB   C4A18008  28.774  32.647  12.324 -0.2544 -0.1188  0.2118
  751BOLB   C1B18009  29.254  33.029  13.376 -0.3630  0.1059 -0.0817
  751BOLB   C2B18010  29.226  33.112  12.996 -0.1274  0.0712 -0.2190
  751BOLB   C3B18011  29.320  33.229  12.585  0.0840 -0.3275  0.1052
  751BOLB   C4B18012  29.418  33.234  12.128 -0.2224  0.0090  0.3712
  751BOLB   NC218013  28.890  34.104  10.485 -0.0678 -0.1809  0.0494
  751BOLB   PO218014  29.262  34.234  10.661  0.0096 -0.0537 -0.1218
  751BOLB   GL318015  29.296  33.786  10.887  0.1219  0.0918  0.1387
  751BOLB   GL418016  29.000  33.712  10.842  0.4728 -0.5588  0.0717
  751BOLB   C1C18017  29.345  33.314  11.110  0.2897  0.2435 -0.1624
  751BOLB   C2C18018  29.262  32.917  11.394  0.0559 -0.3631  0.0310
  751BOLB   C3C18019  29.000  32.619  11.611 -0.3340  0.0301  0.1927
  751BOLB   C4C18020  28.734  32.581  11.940 -0.0839 -0.3879  0.2988
  751BOLB   C1D18021  28.847  33.398  11.159 -0.0040  0.4591  0.0815
  751BOLB   C2D18022  28.452  33.186  11.264 -0.2373 -0.2154  0.1824
  751BOLB   C3D18023  28.242  33.373  11.696  0.0053  0.0774  0.0430
  751BOLB   C4D18024  27.907  33.453  11.993 -0.1166 -0.2064  0.1598
  752BOLB   NC118025  26.006  27.137  13.832  0.0008  0.3101  0.0608
  752BOLB   PO118026  25.969  27.566  13.702 -0.0217  0.1807  0.0568
  752BOLB   GL118027  25.620  27.267  13.442  0.2165 -0.2375  0.2330
  752BOLB   GL218028  25.616  26.909  13.535  0.0532  0.1740  0.0029
  752BOLB   C1A18029  25.165  27.191  13.235  0.0352 -0.0295  0.0683
  752BOLB   C2A18030  24.880  27.076  12.974  0.2878  0.0694  0.0999
  752BOLB   C3A18031  24.734  26.701  12.701  0.0018 -0.2620 -0.2383
  752BOLB   C4A18032  24.662  26.557  12.268 -0.1977 -0.1823 -0.1910
  752BOLB   C1B18033  25.663  26.877  13.092 -0.1805  0.0878 -0.4804
  752BOLB   C2B18034  25.334  26.758  12.829  0.2184  0.3349  0.1838
  752BOLB   C3B18035  25.151  26.747  12.435 -0.0033 -0.0056  0.0833
  752BOLB   C4B18036  25.176  26.942  12.070 -0.2179 -0.3337 -0.1995
  752BOLB   NC218037  25.112  26.032  10.257 -0.4308  0.1621 -0.1206
  752BOLB   PO218038  25.514  26.105  10.156  0.4519  0.0499 -0.2304
  752BOLB   GL318039  25.342  26.365  10.528  0.1462  0.1460 -0.2766
  752BOLB   GL418040  25.009  26.438  10.577 -0.1624 -0.3090  0.2831
  752BOLB   C1C18041  25.495  26.368  10.911 -0.1620  0.2283 -0.2905
  752BOLB   C2C18042  25.312  26.367  11.296  0.2531  0.1311 -0.1000
  752BOLB   C3C18043  25.237  26.543  11.685 -0.0671 -0.0681 -0.1121
  752BOLB   C4C18044  24.909  26.540  11.920 -0.1388  0.1259  0.0656
  752BOLB   C1D18045  25.224  26.893  10.504  0.2133 -0.0555 -0.2128
  752BOLB   C2D18046  25.404  27.097  10.778  0.1803 -0.1067  0.0748
  752BOLB   C3D18047  25.357  27.033  11.219 -0.3803  0.0108 -0.3316
  752BOLB   C4D18048  25.200  27.038  11.596 -0.0741 -0.2374  0.1327
  753BOLB   NC118049  34.736  24.565  22.606 -0.1625 -0.0225  0.0002
  753BOLB   PO118050  34.857  24.842  22.227  0.1386 -0.4068 -0.3733
  753BOLB   GL118051  35.145  24.848  22.507  0.0799  0.0235  0.0875
  753BOLB   GL218052  35.377  24.829  22.257  0.2449  0.0606  0.0941
  753BOLB   C1A18053  35.488  24.724  22.757 -0.2958 -0.0906 -0.1451
  753BOLB   C2A18054  35.658  24.524  23.117  0.2134 -0.1913  0.5316
  753BOLB   C3A18055  35.943  24.368  23.232  0.0232 -0.1686 -0.0887
  753BOLB   C4A18056  36.365  24.330  23.151  0.1116 -0.1168  0.0162
  753BOLB   C1B18057  35.614  24.426  22.305  0.0631 -0.0473  0.0940
  753BOLB   C2B18058  36.105  24.302  22.198 -0.3303 -0.1453  0.1152
  753BOLB   C3B18059  36.443  24.032  22.069 -0.0665 -0.0821 -0.4323
  753BOLB   C4B18060  36.795  23.997  21.777  0.0585  0.0419 -0.0527
  753BOLB   NC218061  38.486  24.242  23.989 -0.0218  0.0849 -0.0103
  753BOLB   PO218062  38.583  24.668  24.192  0.0621 -0.2211  0.0384
  753BOLB   GL318063  38.225  24.644  24.060 -0.0272 -0.1073  0.0635
  753BOLB   GL418064  38.135  24.671  23.760 -0.1193 -0.0960 -0.3906
  753BOLB   C1C18065  37.851  24.545  24.180  0.2732 -0.1296 -0.3736
  753BOLB   C2C18066  37.518  24.379  23.977 -0.3304  0.1287  0.1371
  753BOLB   C3C18067  37.160  24.462  23.829 -0.1102  0.0150  0.2972
  753BOLB   C4C18068  36.874  24.352  23.499  0.0601 -0.1533 -0.0256
  753BOLB   C1D18069  37.837  24.526  23.459 -0.0082 -0.1267  0.4439
  753BOLB   C2D18070  37.786  24.481  23.128  0.2760 -0.0209 -0.2209
  753BOLB   C3D18071  37.563  24.512  22.817  0.0904  0.0003 -0.0715
  753BOLB   C4D18072  37.201  24.624  22.809 -0.1729 -0.1002  0.2251
  754BOLB   NC118073  24.771  32.566   2.405  0.3093  0.2933 -0.1441
  754BOLB   PO118074  24.540  32.796   2.112 -0.2567 -0.1953 -0.1761
  754BOLB   GL118075  24.328  32.832   2.546  0.0746 -0.1074 -0.1513
  754BOLB   GL218076  24.331  33.138   2.469  0.3056 -0.5664  0.2040
  754BOLB   C1A18077  24.196  33.137   2.948  0.0184  0.0089  0.0533
  754BOLB   C2A18078  23.923  33.579   3.170 -0.4233 -0.1225  0.2676
  754BOLB   C3A18079  23.676  33.796   3.512  0.1331  0.0513 -0.0999
  754BOLB   C4A18080  23.719  34.155   3.742  0.4008 -0.0923  0.1082
  754BOLB   C1B18081  24.136  33.560   2.683 -0.2125 -0.1835  0.1428
  754BOLB   C2B18082  23.717  33.778   2.565  0.0557  0.3977 -0.2436
  754BOLB   C3B18083  23.603  34.120   2.664  0.1606 -0.0028 -0.1473
  754BOLB   C4B18084  23.287  34.383   2.905  0.1138  0.1767  0.1137
  754BOLB   NC218085  23.418  36.544   5.203 -0.1050 -0.0616  0.0212
  754BOLB   PO218086  23.758  36.594   4.894  0.0041  0.0854  0.0377
  754BOLB   GL318087  23.824  36.153   4.701 -0.0759  0.0428 -0.0269
  754BOLB   GL418088  23.984  35.960   4.706 -0.1939 -0.0349 -0.0026
  754BOLB   C1C18089  23.742  35.694   4.352 -0.0951 -0.1830 -0.2581
  754BOLB   C2C18090  23.748  35.407   4.086  0.0642  0.0852 -0.1325
  754BOLB   C3C18091  23.804  35.062   3.877 -0.1415 -0.0886 -0.2136
  754BOLB   C4C18092  23.842  34.595   3.629 -0.2492 -0.3413  0.3113
  754BOLB   C1D18093  23.917  36.166   4.250 -0.0646 -0.1546 -0.1193
  754BOLB   C2D18094  24.132  36.173   3.766 -0.1875 -0.3331 -0.0363
  754BOLB   C3D18095  24.362  36.070   3.413  0.1999  0.0341  0.3991
  754BOLB   C4D18096  24.385  36.359   3.056 -0.1141  0.0614  0.0717
  755BOLB   NC118097  24.296  40.031   1.017 -0.1713  0.2394 -0.0541
  755BOLB   PO118098  24.119  39.998   0.653  0.3568 -0.0500  0.1671
  755BOLB   GL118099  24.306  39.653   0.631 -0.1691  0.0404  0.2046
  755BOLB   GL218100  24.196  39.601   0.310  0.2286  0.0161  0.3950
  755BOLB   C1A18101  24.378  39.198   0.676  0.1218  0.0953 -0.2193
  755BOLB   C2A18102  24.122  38.887   0.665 -0.0217  0.0559  0.3045
  755BOLB   C3A18103  23.950  38.626   0.243  0.0244 -0.0317  0.0802
  755BOLB   C4A18104  24.061  38.225   0.078  0.2031 -0.1132  0.1003
  755BOLB   C1B18105  24.037  39.181   0.230 -0.1259 -0.3274 -0.0880
  755BOLB   C2B18106  24.229  38.847  26.837 -0.1833  0.0178  0.0496
  755BOLB   C3B18107  24.331  38.406  26.690 -0.3875 -0.1976  0.1380
  755BOLB   C4B18108  24.319  38.080  26.313 -0.4815 -0.3018  0.2407
  755BOLB   NC218109  24.750  36.067  26.548 -0.0837 -0.1257 -0.3661
  755BOLB   PO218110  24.615  36.045  26.109  0.2987  0.1360 -0.1824
  755BOLB   GL318111  24.450  36.400  26.325 -0.1183 -0.0353 -0.1074
  755BOLB   GL418112  24.022  36.359  26.367 -0.0708 -0.0972  0.0603
  755BOLB   C1C18113  24.517  36.742  26.568 -0.1887 -0.0331 -0.1083
  755BOLB   C2C18114  24.483  37.085  26.856  0.2099 -0.1175 -0.2112
  755BOLB   C3C18115  24.395  37.544   0.048 -0.1974  0.2317  0.0103
  755BOLB   C4C18116  24.144  37.875  26.872 -0.2292 -0.1745  0.1052
  755BOLB   C1D18117  23.834  36.722  26.540  0.1424  0.0716 -0.2299
  755BOLB   C2D18118  23.967  37.015   0.042  0.0459  0.2133  0.0828
  755BOLB   C3D18119  23.592  37.256   0.267  0.1253 -0.0466 -0.3015
  755BOLB   C4D18120  23.474  37.637   0.371 -0.1129 -0.3890 -0.2311
  756BOLB   NC118121  30.672  23.180  17.898  0.3360 -0.3312  0.2003
  756BOLB   PO118122  30.878  23.337  17.469 -0.0549  0.2231 -0.0747
  756BOLB   GL118123  31.318  23.215  17.367 -0.3075  0.1966  0.1634
  756BOLB   GL218124  31.490  22.917  17.557 -0.1854 -0.0370 -0.0430
  756BOLB   C1A18125  31.444  23.013  17.025 -0.0209  0.1698  0.3780
  756BOLB   C2A18126  31.611  22.719  16.791 -0.2309  0.0340  0.1733
  756BOLB   C3A18127  31.991  22.542  16.608  0.3174 -0.0396  0.1371
  756BOLB   C4A18128  32.173  22.400  16.388  0.0456 -0.1812 -0.1734
  756BOLB   C1B18129  31.651  22.647  17.366 -0.0530  0.1722  0.0523
  756BOLB   C2B18130  31.948  22.375  17.053 -0.1142  0.0664  0.0618
  756BOLB   C3B18131  32.263  22.211  16.878 -0.3364 -0.3116 -0.2632
  756BOLB   C4B18132  32.632  22.051  16.893  0.0238 -0.2550 -0.1833
  756BOLB   NC218133  31.810  20.033  15.243 -0.4449  0.1491  0.3114
  756BOLB   PO218134  32.203  20.329  15.233  0.1296  0.1455  0.0017
  756BOLB   GL318135  32.142  20.831  15.271 -0.0519 -0.0403  0.0037
  756BOLB   GL418136  31.814  20.979  15.051  0.1467  0.0884 -0.1789
  756BOLB   C1C18137  32.145  21.033  15.620 -0.2242 -0.0589 -0.1026
  756BOLB   C2C18138  32.123  21.278  16.028 -0.1781  0.0539  0.3475
  756BOLB   C3C18139  32.299  21.647  16.174  0.0482 -0.0084 -0.1114
  756BOLB   C4C18140  32.345  22.011  16.262  0.2783 -0.3474  0.3624
  756BOLB   C1D18141  31.879  21.289  15.296 -0.1266 -0.2894  0.1080
  756BOLB   C2D18142  31.819  21.418  15.643 -0.0914  0.0269  0.4564
  756BOLB   C3D18143  31.912  21.758  15.838  0.0066 -0.1968 -0.0794
  756BOLB   C4D18144  32.030  22.146  15.926  0.1125 -0.3288  0.0025
  757BOLB   NC118145  33.910  27.834  25.434  0.1457  0.0006 -0.0953
  757BOLB   PO118146  34.129  27.691  25.720  0.1907 -0.1545  0.1023
  757BOLB   GL118147  34.545  27.686  25.889  0.1671 -0.1677 -0.2255
  757BOLB   GL218148  34.668  27.984  26.066  0.1073  0.0830  0.1669
  757BOLB   C1A18149  34.653  27.471  26.213 -0.2616  0.0940 -0.3724
  757BOLB   C2A18150  34.918  27.431  26.673  0.1889 -0.3696  0.5377
  757BOLB   C3A18151  35.149  27.178  26.881  0.2950 -0.0684  0.0384
  757BOLB   C4A18152  35.348  26.971   0.302 -0.2077 -0.1000 -0.0831
  757BOLB   C1B18153  34.979  27.903  26.373 -0.0804  0.3093  0.3895
  757BOLB   C2B18154  35.295  27.740  26.494  0.1181  0.1033 -0.0235
  757BOLB   C3B18155  35.662  27.539  26.703 -0.1687 -0.1965  0.2243
  757BOLB   C4B18156  35.672  27.195   0.011 -0.0465 -0.0817 -0.3177
  757BOLB   NC218157  36.281  26.230   2.638  0.1863 -0.1180  0.3329
  757BOLB   PO218158  36.217  25.996   2.291 -0.2001  0.1997 -0.2312
  757BOLB   GL318159  36.075  26.499   2.254  0.2241 -0.0168 -0.0023
  757BOLB   GL418160  35.819  26.509   2.454  0.3116  0.0956  0.1568
  757BOLB   C1C18161  35.957  26.809   1.904 -0.2946 -0.2075  0.0417
  757BOLB   C2C18162  35.908  26.756   1.451  0.1863  0.1310  0.1464
  757BOLB   C3C18163  35.833  26.646   1.013 -0.4091 -0.1937  0.1995
  757BOLB   C4C18164  35.503  26.781   0.775 -0.3540  0.1682  0.1471
  757BOLB   C1D18165  35.518  26.757   2.234 -0.0280  0.2825 -0.1780
  757BOLB   C2D18166  35.042  26.720   2.133  0.0281  0.1597 -0.0745
  757BOLB   C3D18167  34.609  26.713   1.962  0.2741 -0.2219 -0.1922
  757BOLB   C4D18168  34.337  26.618   1.657 -0.4117  0.0620  0.0407
  758BOLB   NC118169  24.157  34.592  15.648  0.2851  0.0760  0.1111
  758BOLB   PO118170  24.264  34.900  15.817  0.2621 -0.1309  0.0164
  758BOLB   GL118171  23.957  35.021  15.516  0.0267 -0.0630 -0.1053
  758BOLB   GL218172  24.265  35.258  15.356 -0.0104  0.3230  0.0813
  758BOLB   C1A18173  23.815  35.265  15.123 -0.2336  0.3395 -0.1850
  758BOLB   C2A18174  23.793  35.554  14.881  0.2803 -0.0164 -0.3085
  758BOLB   C3A18175  23.843  35.552  14.464  0.1656  0.0183 -0.0232
  758BOLB   C4A18176  23.875  35.580  14.076 -0.2566  0.2322  0.3500
  758BOLB   C1B18177  23.942  35.627  15.514  0.0108 -0.4215  0.1837
  758BOLB   C2B18178  23.583  35.818  15.862  0.1287 -0.1944 -0.0645
  758BOLB   C3B18179  23.450  36.221  15.766 -0.0793 -0.0400  0.3105
  758BOLB   C4B18180  23.533  36.573  15.876  0.0413 -0.1824  0.0221
  758BOLB   NC218181  21.294  36.104  12.721 -0.0297  0.0238  0.1695
  758BOLB   PO218182  21.603  36.303  13.033  0.2340  0.2420  0.2735
  758BOLB   GL318183  22.001  36.253  13.214  0.0269 -0.3433 -0.3138
  758BOLB   GL418184  21.889  36.215  13.450  0.1192  0.3567  0.0901
  758BOLB   C1C18185  22.404  36.115  13.263 -0.0668  0.1261 -0.2271
  758BOLB   C2C18186  22.715  36.017  13.598  0.3788  0.1434 -0.0786
  758BOLB   C3C18187  23.123  35.705  13.702 -0.0196 -0.0110 -0.0848
  758BOLB   C4C18188  23.520  35.463  13.673 -0.1740 -0.2705 -0.0823
  758BOLB   C1D18189  22.064  36.147  13.796  0.0891  0.1061 -0.2216
  758BOLB   C2D18190  22.405  35.919  13.901 -0.1859  0.0370  0.2461
  758BOLB   C3D18191  22.749  35.811  14.083 -0.0319  0.1516 -0.1648
  758BOLB   C4D18192  22.991  35.658  14.405  0.0216  0.0797 -0.1949
  759BOLB   NC118193  29.730  16.947  22.494  0.0250 -0.2072 -0.0990
  759BOLB   PO118194  29.851  17.374  22.719  0.1318  0.0331  0.3696
  759BOLB   GL118195  29.793  17.739  23.016 -0.0251 -0.0403 -0.0118
  759BOLB   GL218196  29.782  17.973  22.850 -0.1773 -0.1169  0.0946
  759BOLB   C1A18197  29.496  18.038  23.304  0.1567 -0.2378  0.1400
  759BOLB   C2A18198  29.194  18.369  23.293  0.1862 -0.1736 -0.0418
  759BOLB   C3A18199  28.841  18.717  23.363 -0.1926  0.1114  0.1216
  759BOLB   C4A18200  28.557  18.861  23.078  0.1848 -0.1122  0.2272
  759BOLB   C1B18201  29.691  18.415  22.985 -0.2451  0.1955 -0.0676
  759BOLB   C2B18202  29.593  18.635  23.364 -0.0505  0.1174  0.4043
  759BOLB   C3B18203  29.291  18.929  23.372 -0.0537 -0.3390  0.0515
  759BOLB   C4B18204  29.056  18.986  22.978  0.4605 -0.4168  0.0622
  759BOLB   NC218205  27.552  16.957  23.642  0.1797  0.0907  0.2634
  759BOLB   PO218206  27.580  16.830  23.092 -0.1766 -0.0798 -0.0690
  759BOLB   GL318207  27.696  17.195  22.745  0.0570 -0.1103 -0.2991
  759BOLB   GL418208  28.009  17.308  22.780  0.0584 -0.0542 -0.0755
  759BOLB   C1C18209  27.642  17.639  22.538  0.1332 -0.3314 -0.1824
  759BOLB   C2C18210  27.816  18.058  22.484 -0.2364  0.0293  0.0644
  759BOLB   C3C18211  27.917  18.430  22.624 -0.2406 -0.0220 -0.0403
  759BOLB   C4C18212  28.089  18.735  23.053  0.0784 -0.1044 -0.1878
  759BOLB   C1D18213  27.567  17.567  23.039 -0.3077  0.0800 -0.1428
  759BOLB   C2D18214  27.301  17.624  23.363  0.1446 -0.1499  0.2625
  759BOLB   C3D18215  27.046  17.354  23.463  0.1085  0.0602 -0.1365
  759BOLB   C4D18216  26.910  16.982  23.568 -0.0861  0.1453  0.1780
  760BOLB   NC118217  32.506  32.843  10.766  0.1109 -0.1107  0.2778
  760BOLB   PO118218  32.170  33.009  10.520  0.2225 -0.1344  0.3246
  760BOLB   GL118219  31.896  32.782  10.840 -0.1683 -0.0536 -0.3534
  760BOLB   GL218220  31.578  32.622  10.745  0.0088 -0.0420 -0.1087
  760BOLB   C1A18221  31.866  32.625  11.260  0.1202 -0.2827  0.0547
  760BOLB   C2A18222  32.017  32.699  11.621  0.3965 -0.1904  0.0562
  760BOLB   C3A18223  31.828  32.628  12.007 -0.3067 -0.0620 -0.3116
  760BOLB   C4A18224  31.713  32.516  12.375  0.2497 -0.3283  0.0640
  760BOLB   C1B18225  31.383  32.493  11.191  0.0192 -0.0932  0.2440
  760BOLB   C2B18226  31.124  32.391  11.586 -0.0170 -0.0429  0.1417
  760BOLB   C3B18227  30.829  32.410  11.895  0.1690 -0.0790 -0.1742
  760BOLB   C4B18228  30.399  32.454  12.192 -0.2469 -0.2179 -0.1500
  760BOLB   NC218229  30.711  31.819  14.257 -0.0840  0.4132  0.0933
  760BOLB   PO218230  30.854  31.849  14.714 -0.1553 -0.0738  0.1091
  760BOLB   GL318231  31.174  32.086  14.301  0.0434  0.1647 -0.1040
  760BOLB   GL418232  31.024  32.211  14.081 -0.0288 -0.2646 -0.1298
  760BOLB   C1C18233  31.355  31.920  13.880 -0.0184 -0.1413  0.0225
  760BOLB   C2C18234  31.466  32.024  13.433 -0.1743  0.4473 -0.0112
  760BOLB   C3C18235  31.514  32.363  13.194 -0.3010 -0.1856 -0.4588
  760BOLB   C4C18236  31.642  32.452  12.779 -0.2674  0.0475 -0.0728
  760BOLB   C1D18237  31.126  32.375  13.709  0.1269 -0.2378 -0.0040
  760BOLB   C2D18238  30.942  32.378  13.315 -0.1449 -0.2173 -0.0332
  760BOLB   C3D18239  31.144  32.203  12.822  0.2623  0.3005 -0.0248
  760BOLB   C4D18240  30.793  31.902  12.785  0.0884  0.2038  0.1402
  761BOLB   NC118241  26.471  33.698   2.435 -0.1030 -0.1151  0.2808
  761BOLB   PO118242  26.280  33.320   2.564  0.1857  0.1424  0.1859
  761BOLB   GL118243  26.246  33.162   2.931  0.0410  0.1170  0.0932
  761BOLB   GL218244  25.895  33.260   3.001 -0.1224 -0.1335  0.4797
  761BOLB   C1A18245  26.433  33.273   3.393 -0.5273 -0.2801  0.1619
  761BOLB   C2A18246  26.523  33.228   3.784  0.1907  0.1922  0.4398
  761BOLB   C3A18247  26.155  32.906   4.034  0.0060 -0.0324 -0.0475
  761BOLB   C4A18248  25.811  33.023   4.038  0.0354 -0.0607  0.1096
  761BOLB   C1B18249  25.644  33.351   3.351  0.1715  0.2265  0.0786
  761BOLB   C2B18250  25.516  33.508   3.784  0.2568  0.4029  0.0861
  761BOLB   C3B18251  25.604  33.687   4.211 -0.2323 -0.4479  0.0667
  761BOLB   C4B18252  25.825  33.913   4.540  0.1148  0.1318 -0.2404
  761BOLB   NC218253  25.131  34.812   5.682 -0.0473  0.0008  0.2125
  761BOLB   PO218254  24.971  34.389   5.824  0.2342 -0.0831  0.3022
  761BOLB   GL318255  25.018  34.276   5.465  0.1867  0.2467  0.2421
  761BOLB   GL418256  25.219  34.361   5.221 -0.1353 -0.0300  0.0965
  761BOLB   C1C18257  25.076  33.889   5.193 -0.1476  0.0187  0.0842
  761BOLB   C2C18258  25.355  33.704   4.859  0.2139  0.0140 -0.0273
  761BOLB   C3C18259  25.339  33.338   4.546  0.0736  0.1253 -0.0944
  761BOLB   C4C18260  25.452  33.172   4.136 -0.0911  0.0150 -0.2177
  761BOLB   C1D18261  24.973  34.443   4.877  0.0539 -0.1621  0.0371
  761BOLB   C2D18262  24.928  34.226   4.631  0.0552  0.2280  0.1502
  761BOLB   C3D18263  24.824  34.349   4.160  0.1596 -0.1655 -0.0448
  761BOLB   C4D18264  24.688  34.596   3.806 -0.0245 -0.3929 -0.0925
  762BOLB   NC118265  32.494  34.049  17.113 -0.2298 -0.1735 -0.1829
  762BOLB   PO118266  32.629  34.460  17.032 -0.1981 -0.0635  0.3868
  762BOLB   GL118267  32.792  34.744  16.643  0.0648 -0.0743  0.1402
  762BOLB   GL218268  32.696  34.771  16.343  0.1571  0.0062  0.3772
  762BOLB   C1A18269  33.122  35.039  16.427  0.2019  0.1885  0.1356
  762BOLB   C2A18270  33.205  35.392  15.987  0.2941  0.2449  0.3509
  762BOLB   C3A18271  33.387  35.654  15.679 -0.4232 -0.0005  0.0675
  762BOLB   C4A18272  33.365  36.145  15.550  0.4293 -0.2781 -0.1039
  762BOLB   C1B18273  32.792  35.085  16.004  0.0589  0.2929  0.1904
  762BOLB   C2B18274  32.789  35.242  15.651  0.0162 -0.0967 -0.0126
  762BOLB   C3B18275  32.977  35.314  15.300 -0.3246 -0.3798  0.0054
  762BOLB   C4B18276  33.177  35.031  15.014  0.3515 -0.1688  0.2393
  762BOLB   NC218277  33.532  38.329  13.952  0.0893  0.1718  0.2246
  762BOLB   PO218278  33.144  38.091  13.988  0.1594 -0.2139 -0.2261
  762BOLB   GL318279  33.034  37.833  14.212 -0.2363  0.0952  0.0462
  762BOLB   GL418280  33.305  37.582  14.192 -0.2016 -0.0941  0.0355
  762BOLB   C1C18281  32.968  37.523  14.532 -0.3586 -0.2398 -0.4274
  762BOLB   C2C18282  33.232  37.208  14.772 -0.1745  0.1311 -0.0015
  762BOLB   C3C18283  33.389  36.905  15.174 -0.1232  0.1643 -0.0578
  762BOLB   C4C18284  33.330  36.660  15.464 -0.1423 -0.0902  0.0312
  762BOLB   C1D18285  33.493  37.169  14.250 -0.0314 -0.0594  0.0253
  762BOLB   C2D18286  33.583  36.756  14.341 -0.0528 -0.2100 -0.0979
  762BOLB   C3D18287  33.781  36.480  14.617  0.0385  0.1368 -0.2036
  762BOLB   C4D18288  33.597  36.118  14.663  0.0319 -0.2053 -0.0136
  763BOLB   NC118289  28.407  37.365  25.598  0.1130 -0.0612  0.0672
  763BOLB   PO118290  28.826  37.305  25.423 -0.1251  0.0623  0.1516
  763BOLB   GL118291  29.004  37.551  25.692  0.0124 -0.0177 -0.1471
  763BOLB   GL218292  28.675  37.670  25.908 -0.0443 -0.0121  0.0204
  763BOLB   C1A18293  29.224  38.012  25.657  0.1163  0.3855 -0.1354
  763BOLB   C2A18294  29.405  38.314  25.884  0.0676 -0.1952 -0.1091
  763BOLB   C3A18295  29.449  38.792  25.905  0.1317 -0.1328  0.0773
  763BOLB   C4A18296  29.293  39.127  25.752  0.0732  0.2070  0.0563
  763BOLB   C1B18297  28.645  37.926  26.187  0.2242  0.3455 -0.0488
  763BOLB   C2B18298  28.725  38.205  26.513 -0.0799  0.2573 -0.2864
  763BOLB   C3B18299  28.916  38.514  26.784 -0.1385 -0.2937  0.3232
  763BOLB   C4B18300  28.908  38.293   0.240 -0.2332 -0.1175 -0.1293
  763BOLB   NC218301  27.750  40.524   0.439  0.1070  0.2377  0.0099
  763BOLB   PO218302  27.803  40.841   0.041  0.1459  0.0769  0.3451
  763BOLB   GL318303  27.815  40.358  26.859  0.1355 -0.0724 -0.1060
  763BOLB   GL418304  27.827  40.093   0.203 -0.3320  0.4672  0.0182
  763BOLB   C1C18305  28.165  40.097  26.597 -0.0010 -0.0930  0.0992
  763BOLB   C2C18306  28.441  39.665  26.641 -0.1412 -0.1483  0.0835
  763BOLB   C3C18307  28.780  39.564  26.257 -0.0122  0.0834 -0.0130
  763BOLB   C4C18308  29.129  39.506  25.935  0.0254 -0.0096  0.0244
  763BOLB   C1D18309  27.802  39.758  26.883 -0.3964 -0.0917  0.2113
  763BOLB   C2D18310  27.982  39.404  26.636  0.1308 -0.1043 -0.0437
  763BOLB   C3D18311  28.261  39.069  26.546  0.1950  0.1049 -0.0682
  763BOLB   C4D18312  28.249  38.631  26.636  0.1142  0.1100  0.2363
  764BOLB   NC118313  32.102  29.842  15.105  0.0291  0.1499 -0.1071
  764BOLB   PO118314  31.839  29.738  14.835  0.0274 -0.3204  0.2468
  764BOLB   GL118315  31.887  29.788  14.422  0.2431 -0.0007 -0.5819
  764BOLB   GL218316  31.977  29.597  14.275  0.2255 -0.0696  0.2408
  764BOLB   C1A18317  31.818  30.166  14.071 -0.0162  0.0290 -0.3602
  764BOLB   C2A18318  32.052  30.181  13.729  0.3161  0.1515  0.2204
  764BOLB   C3A18319  32.134  30.225  13.244 -0.1831  0.1192  0.1585
  764BOLB   C4A18320  32.447  30.130  12.843  0.2057  0.5180 -0.1150
  764BOLB   C1B18321  32.079  29.625  13.871 -0.1153 -0.0701 -0.1450
  764BOLB   C2B18322  32.185  29.759  13.514 -0.0640  0.3062  0.1867
  764BOLB   C3B18323  32.490  29.753  13.201  0.3709 -0.1517  0.0054
  764BOLB   C4B18324  32.852  29.562  12.953 -0.1416  0.0253 -0.0654
  764BOLB   NC218325  33.343  29.890  10.968 -0.0251  0.1530  0.1222
  764BOLB   PO218326  33.508  30.288  10.986  0.0470  0.1721  0.1268
  764BOLB   GL318327  33.129  30.402  11.223  0.1094 -0.0850 -0.1000
  764BOLB   GL418328  33.012  30.099  11.264  0.0934  0.0651  0.0617
  764BOLB   C1C18329  33.118  30.476  11.689 -0.2331  0.0424 -0.0773
  764BOLB   C2C18330  32.962  30.160  11.858  0.1119  0.0989  0.4849
  764BOLB   C3C18331  32.743  30.092  12.131  0.2206  0.1819 -0.0641
  764BOLB   C4C18332  32.497  30.091  12.489  0.0612 -0.0400 -0.0461
  764BOLB   C1D18333  32.571  29.969  11.516  0.0996 -0.0253  0.0907
  764BOLB   C2D18334  32.367  29.887  11.851 -0.0529  0.0004  0.1821
  764BOLB   C3D18335  31.993  29.934  12.027  0.2948  0.1043  0.0292
  764BOLB   C4D18336  31.795  30.218  12.297  0.2604  0.0156  0.0357
  765BOLB   NC118337  15.177  22.820  16.826 -0.1167  0.1485  0.0126
  765BOLB   PO118338  15.298  22.914  17.231 -0.1616 -0.4715 -0.3104
  765BOLB   GL118339  15.692  23.057  17.387  0.1035 -0.5840 -0.0447
  765BOLB   GL218340  15.951  22.745  17.410  0.1026  0.1823  0.2931
  765BOLB   C1A18341  15.936  23.482  17.441 -0.0202 -0.1828  0.0314
  765BOLB   C2A18342  15.855  23.864  17.657  0.1289  0.0285  0.2925
  765BOLB   C3A18343  15.921  24.215  17.885 -0.0913 -0.1866  0.0421
  765BOLB   C4A18344  16.119  24.494  18.184 -0.3306 -0.1702 -0.1859
  765BOLB   C1B18345  16.052  22.856  17.716 -0.1151 -0.1857 -0.0098
  765BOLB   C2B18346  16.357  23.102  17.896  0.2410 -0.1328 -0.2562
  765BOLB   C3B18347  16.666  23.106  18.184 -0.1632 -0.4946  0.0081
  765BOLB   C4B18348  17.016  23.084  18.460  0.3931 -0.0289  0.2065
  765BOLB   NC218349  15.894  25.509  16.962 -0.3183  0.3330 -0.0438
  765BOLB   PO218350  16.197  25.402  16.669 -0.0842 -0.1216 -0.1342
  765BOLB   GL318351  16.387  25.482  17.081  0.2073  0.2510 -0.1588
  765BOLB   GL418352  16.256  25.742  17.230 -0.3253 -0.1837  0.2858
  765BOLB   C1C18353  16.634  25.421  17.398  0.1969 -0.3642 -0.2362
  765BOLB   C2C18354  16.957  25.165  17.731  0.2031  0.0902  0.0630
  765BOLB   C3C18355  16.796  24.897  18.064  0.0276 -0.1036 -0.2359
  765BOLB   C4C18356  16.481  24.670  18.318  0.2374 -0.1044  0.3302
  765BOLB   C1D18357  16.491  25.918  17.667  0.1550  0.3020 -0.3962
  765BOLB   C2D18358  16.897  25.629  17.850  0.0562 -0.1593 -0.1434
  765BOLB   C3D18359  17.021  25.505  18.295 -0.0469  0.0470 -0.0846
  765BOLB   C4D18360  17.158  25.555  18.705 -0.1173 -0.0325  0.0392
  766BOLB   NC118361  23.954  33.691  15.803 -0.4583  0.0441 -0.0371
  766BOLB   PO118362  23.946  34.100  15.835  0.2800  0.2857  0.0347
  766BOLB   GL118363  23.743  34.164  15.451 -0.3332  0.2159 -0.0583
  766BOLB   GL218364  23.703  34.557  15.482  0.1900 -0.0326  0.0746
  766BOLB   C1A18365  23.396  34.297  15.179 -0.2267 -0.0332  0.0978
  766BOLB   C2A18366  23.393  34.380  14.716 -0.0358 -0.0601  0.0548
  766BOLB   C3A18367  23.638  34.642  14.500  0.2613  0.1850 -0.1664
  766BOLB   C4A18368  23.628  34.907  14.230 -0.1250 -0.0901 -0.0257
  766BOLB   C1B18369  23.477  34.906  15.297 -0.1686 -0.1499  0.1089
  766BOLB   C2B18370  23.346  35.186  15.032 -0.1621  0.0870  0.2467
  766BOLB   C3B18371  23.323  35.566  14.754 -0.0688  0.0004 -0.1216
  766BOLB   C4B18372  23.109  35.922  14.900 -0.1046  0.1017 -0.1677
  766BOLB   NC218373  22.373  36.837  12.617  0.0116 -0.1000 -0.3346
  766BOLB   PO218374  22.418  36.735  13.095 -0.0663  0.0186  0.2251
  766BOLB   GL318375  22.495  36.628  13.486 -0.0543  0.0511  0.0370
  766BOLB   GL418376  22.380  36.455  13.711  0.0125  0.1081 -0.1539
  766BOLB   C1C18377  22.831  36.524  13.764  0.0251  0.3188 -0.2314
  766BOLB   C2C18378  23.100  36.166  13.892 -0.0948  0.4132  0.0841
  766BOLB   C3C18379  23.463  35.803  14.061  0.1128 -0.1374  0.3298
  766BOLB   C4C18380  23.388  35.390  14.252 -0.0707 -0.3652 -0.2709
  766BOLB   C1D18381  22.439  36.438  14.095 -0.1136 -0.1795  0.0150
  766BOLB   C2D18382  22.495  36.546  14.568 -0.0999  0.5413  0.2684
  766BOLB   C3D18383  22.515  36.884  14.717  0.0890  0.0442  0.0015
  766BOLB   C4D18384  22.451  37.303  14.605  0.2739 -0.0339 -0.1668
  767BOLB   NC118385  21.920  33.238  11.320  0.4592 -0.0188  0.1326
  767BOLB   PO118386  21.548  33.003  11.251  0.0588 -0.0600 -0.3932
  767BOLB   GL118387  21.674  32.990  11.758 -0.1822  0.0917  0.0529
  767BOLB   GL218388  22.021  32.834  11.696 -0.0205  0.2571 -0.0419
  767BOLB   C1A18389  21.919  32.789  12.177  0.1561 -0.0984  0.3654
  767BOLB   C2A18390  22.109  32.666  12.589 -0.1342  0.0218  0.1447
  767BOLB   C3A18391  22.472  32.435  12.833 -0.0868 -0.1717 -0.0990
  767BOLB   C4A18392  22.767  32.108  12.601  0.0815 -0.1013  0.3974
  767BOLB   C1B18393  22.377  32.939  11.996 -0.1495 -0.2158  0.2668
  767BOLB   C2B18394  22.626  32.947  12.377 -0.0385 -0.1895 -0.0380
  767BOLB   C3B18395  22.799  32.792  12.749 -0.0495 -0.3386 -0.3460
  767BOLB   C4B18396  23.081  32.461  12.749  0.0693 -0.1408  0.1425
  767BOLB   NC218397  22.640  33.177  10.867 -0.0717  0.2225 -0.0311
  767BOLB   PO218398  22.465  32.854  10.759 -0.1102 -0.0437 -0.0072
  767BOLB   GL318399  22.752  32.662  10.984 -0.0554  0.0225 -0.1249
  767BOLB   GL418400  22.797  32.855  11.223 -0.0915  0.1326  0.0554
  767BOLB   C1C18401  23.040  32.449  11.166 -0.2281 -0.0142 -0.0807
  767BOLB   C2C18402  23.048  32.012  11.486 -0.1570  0.1709 -0.1380
  767BOLB   C3C18403  22.771  32.038  11.817 -0.2611 -0.1679  0.0062
  767BOLB   C4C18404  22.754  31.966  12.136  0.0648 -0.2119  0.3466
  767BOLB   C1D18405  22.778  33.073  11.619  0.2313  0.1698  0.2303
  767BOLB   C2D18406  22.749  33.273  12.003  0.0062 -0.0830  0.0096
  767BOLB   C3D18407  22.989  33.295  12.369 -0.2102 -0.0389  0.2855
  767BOLB   C4D18408  23.219  33.348  12.711 -0.0466  0.1497  0.0690
  768BOLB   NC118409  22.194  27.320  15.832  0.0480  0.0548 -0.0669
  768BOLB   PO118410  22.148  26.927  16.074  0.2364  0.0916 -0.3166
  768BOLB   GL118411  22.160  26.768  15.680  0.0594  0.3117 -0.2685
  768BOLB   GL218412  21.898  27.037  15.557  0.0763 -0.0421 -0.1450
  768BOLB   C1A18413  22.200  26.732  15.281 -0.0273  0.0317 -0.2592
  768BOLB   C2A18414  21.901  26.446  14.979 -0.0215 -0.0277  0.0482
  768BOLB   C3A18415  21.501  26.364  14.810  0.2436  0.1189  0.1633
  768BOLB   C4A18416  21.062  26.459  14.679 -0.0379  0.0317 -0.0179
  768BOLB   C1B18417  21.796  26.984  15.078  0.0362  0.1178  0.0650
  768BOLB   C2B18418  21.621  26.898  14.636 -0.3163 -0.1977 -0.1455
  768BOLB   C3B18419  21.366  26.738  14.431  0.1200  0.1184  0.0904
  768BOLB   C4B18420  21.281  26.478  14.098  0.0734  0.3286  0.1975
  768BOLB   NC218421  19.771  26.364  12.834  0.2313  0.1297  0.2536
  768BOLB   PO218422  19.423  26.322  13.037  0.0249 -0.1304 -0.1376
  768BOLB   GL318423  19.683  26.232  13.462  0.2391  0.0128 -0.1531
  768BOLB   GL418424  19.970  26.293  13.292  0.1430 -0.0044 -0.2470
  768BOLB   C1C18425  20.062  26.012  13.708 -0.2611  0.1396  0.0848
  768BOLB   C2C18426  20.257  26.094  14.058  0.0438 -0.1198  0.3242
  768BOLB   C3C18427  20.444  26.433  14.346 -0.1019  0.0235 -0.0663
  768BOLB   C4C18428  20.781  26.475  14.330 -0.2892  0.1486  0.1347
  768BOLB   C1D18429  19.873  26.720  13.418  0.2068 -0.1701 -0.1288
  768BOLB   C2D18430  19.658  27.107  13.446 -0.1871  0.1658  0.2405
  768BOLB   C3D18431  19.283  27.350  13.785  0.2284  0.0530  0.2319
  768BOLB   C4D18432  19.106  27.691  13.932 -0.1323 -0.1489  0.0341
  769BOLB   NC118433  30.693  23.349  26.330 -0.2068 -0.2258  0.1193
  769BOLB   PO118434  30.263  23.476  26.572 -0.1793 -0.0323 -0.0723
  769BOLB   GL118435  30.473  23.255  26.804  0.1805  0.2438  0.1300
  769BOLB   GL218436  30.336  23.311   0.201 -0.1901 -0.0954  0.1262
  769BOLB   C1A18437  30.765  22.963   0.019  0.2578  0.1391 -0.0005
  769BOLB   C2A18438  30.849  22.560   0.194 -0.0472 -0.2633 -0.0730
  769BOLB   C3A18439  31.188  22.517   0.388  0.0837  0.1259 -0.2220
  769BOLB   C4A18440  31.252  22.439   0.783 -0.0960 -0.0708  0.3742
  769BOLB   C1B18441  30.435  22.934   0.487 -0.3563  0.0454 -0.2363
  769BOLB   C2B18442  30.697  22.668   0.718 -0.1559  0.1188 -0.0643
  769BOLB   C3B18443  30.827  22.243   0.558 -0.1063  0.1309  0.2255
  769BOLB   C4B18444  30.976  21.889   0.736 -0.2344  0.1218 -0.0848
  769BOLB   NC218445  32.271  20.504   2.161  0.2602 -0.0593 -0.0106
  769BOLB   PO218446  32.220  21.015   2.185 -0.1145 -0.0220  0.0609
  769BOLB   GL318447  32.214  21.422   2.049 -0.0383 -0.0389 -0.1375
  769BOLB   GL418448  32.243  21.440   1.779  0.0606  0.1015  0.1269
  769BOLB   C1C18449  32.011  21.819   1.994  0.2823 -0.0370 -0.0751
  769BOLB   C2C18450  31.699  22.061   1.688  0.1094 -0.1786  0.2490
  769BOLB   C3C18451  31.743  22.102   1.274  0.0874 -0.1192  0.1917
  769BOLB   C4C18452  31.435  22.370   1.195  0.0562  0.2516 -0.1136
  769BOLB   C1D18453  32.226  21.916   1.516  0.0026  0.1694  0.1996
  769BOLB   C2D18454  32.441  22.389   1.435 -0.0482  0.1535 -0.1207
  769BOLB   C3D18455  32.351  22.815   1.426  0.1693  0.0633 -0.1300
  769BOLB   C4D18456  32.259  23.208   1.184  0.2380 -0.2212 -0.1656
  770BOLB   NC118457  23.053  35.318   5.202  0.0546  0.3843 -0.0638
  770BOLB   PO118458  23.241  35.706   5.116 -0.0358  0.1636 -0.1360
  770BOLB   GL118459  23.249  35.484   4.742  0.0218 -0.1752 -0.3004
  770BOLB   GL218460  23.311  35.808   4.584 -0.5615 -0.0898 -0.0760
  770BOLB   C1A18461  23.506  35.225   4.486 -0.0592 -0.0038 -0.0605
  770BOLB   C2A18462  23.806  34.881   4.476 -0.1104  0.0359 -0.1397
  770BOLB   C3A18463  24.237  34.751   4.405 -0.4188  0.1434  0.1040
  770BOLB   C4A18464  24.312  34.477   4.185  0.1094 -0.1639 -0.1371
  770BOLB   C1B18465  23.206  35.506   4.213  0.2589  0.0709  0.1613
  770BOLB   C2B18466  23.337  35.237   3.878  0.2011 -0.2790 -0.0112
  770BOLB   C3B18467  23.487  35.122   3.465  0.0182  0.1546 -0.0252
  770BOLB   C4B18468  23.585  35.338   3.155 -0.0071 -0.3896  0.4042
  770BOLB   NC218469  22.480  34.831   5.115  0.0812  0.1687 -0.2915
  770BOLB   PO218470  22.322  35.204   4.977  0.2978 -0.0016 -0.0330
  770BOLB   GL318471  22.794  35.109   4.720  0.1987 -0.4031 -0.2693
  770BOLB   GL418472  22.792  34.793   4.720 -0.3771  0.1011  0.2129
  770BOLB   C1C18473  22.997  35.063   4.316  0.0667 -0.3102  0.1865
  770BOLB   C2C18474  23.395  34.854   4.116  0.1768 -0.0059 -0.0550
  770BOLB   C3C18475  23.580  34.487   4.041 -0.2046  0.0096  0.1122
  770BOLB   C4C18476  23.995  34.359   4.040 -0.3452 -0.0733  0.1640
  770BOLB   C1D18477  23.060  34.377   4.857  0.0426  0.1767 -0.1954
  770BOLB   C2D18478  23.259  34.053   4.735 -0.1142 -0.2162 -0.3580
  770BOLB   C3D18479  23.173  33.647   4.589 -0.1474  0.0870  0.1336
  770BOLB   C4D18480  23.089  33.244   4.500 -0.1804  0.0685  0.1263
  771BOLB   NC118481  19.293  37.485  16.296  0.2808  0.1788  0.1241
  771BOLB   PO118482  19.419  37.171  16.487  0.1165 -0.2540  0.0759
  771BOLB   GL118483  19.852  36.956  16.461  0.0801  0.0112  0.0556
  771BOLB   GL218484  20.223  37.123  16.371  0.2517 -0.1474  0.2605
  771BOLB   C1A18485  20.120  36.723  16.702 -0.0804  0.1610 -0.0899
  771BOLB   C2A18486  20.261  36.468  17.031  0.2429 -0.3042  0.1522
  771BOLB   C3A18487  20.156  36.388  17.418  0.1919  0.3010  0.1917
  771BOLB   C4A18488  20.309  35.976  17.558 -0.1152  0.2964 -0.4904
  771BOLB   C1B18489  20.537  36.910  16.224  0.4164 -0.1678  0.0126
  771BOLB   C2B18490  20.729  36.491  16.395 -0.0953 -0.2599 -0.1032
  771BOLB   C3B18491  20.921  36.084  16.294  0.1987  0.1102 -0.2019
  771BOLB   C4B18492  21.140  35.711  16.426  0.0011  0.0914 -0.1378
  771BOLB   NC218493  22.675  34.733  17.347 -0.1410 -0.0519 -0.1311
  771BOLB   PO218494  22.424  34.834  17.620  0.1984 -0.0664 -0.1965
  771BOLB   GL318495  22.016  35.036  17.526 -0.2939  0.1748 -0.0302
  771BOLB   GL418496  21.709  34.878  17.674  0.3692  0.1886  0.0679
  771BOLB   C1C18497  21.704  35.311  17.485  0.0562 -0.1003 -0.0660
  771BOLB   C2C18498  21.336  35.566  17.397 -0.2984  0.1691  0.0107
  771BOLB   C3C18499  20.962  35.645  17.633 -0.2327  0.1442  0.0901
  771BOLB   C4C18500  20.552  35.686  17.605 -0.0511  0.1035 -0.0735
  771BOLB   C1D18501  21.415  34.672  17.495 -0.0584  0.0830  0.2117
  771BOLB   C2D18502  21.219  34.580  17.149 -0.0943 -0.3377  0.1109
  771BOLB   C3D18503  20.864  34.611  16.919  0.0933 -0.1313  0.1786
  771BOLB   C4D18504  20.623  34.845  16.649  0.0551 -0.1191 -0.1371
  772BOLB   NC118505  17.382  34.103  15.988 -0.1330 -0.1132  0.1030
  772BOLB   PO118506  17.413  34.171  16.331  0.0562 -0.2309  0.0329
  772BOLB   GL118507  17.689  33.875  16.495  0.0218 -0.1530  0.1614
  772BOLB   GL218508  17.972  34.080  16.588 -0.5668  0.1941  0.1148
  772BOLB   C1A18509  18.020  33.614  16.791 -0.2240 -0.3218  0.1085
  772BOLB   C2A18510  18.325  33.458  17.059 -0.0112 -0.2458  0.0455
  772BOLB   C3A18511  18.718  33.188  17.003 -0.0773  0.0108  0.0012
  772BOLB   C4A18512  19.019  33.017  16.954 -0.2324 -0.0495  0.0650
  772BOLB   C1B18513  18.216  34.097  16.954 -0.2545 -0.3588  0.1622
  772BOLB   C2B18514  18.270  34.249  17.377  0.0580  0.0513 -0.1022
  772BOLB   C3B18515  18.108  34.089  17.735  0.2856 -0.5143  0.0564
  772BOLB   C4B18516  18.123  34.009  18.118 -0.1713  0.3604 -0.0898
  772BOLB   NC218517  20.907  31.714  17.405 -0.0519 -0.0509 -0.2375
  772BOLB   PO218518  20.853  31.341  17.181 -0.1803 -0.1753  0.1015
  772BOLB   GL318519  20.626  31.760  16.956  0.1524  0.2503  0.0225
  772BOLB   GL418520  20.419  31.974  17.223  0.1700  0.2159 -0.2182
  772BOLB   C1C18521  20.403  32.131  16.733 -0.0107  0.2043  0.1086
  772BOLB   C2C18522  20.170  32.470  16.644  0.5940 -0.2256 -0.0549
  772BOLB   C3C18523  19.691  32.656  16.697 -0.1697  0.1924  0.2145
  772BOLB   C4C18524  19.372  32.693  16.983 -0.1900 -0.2592  0.0677
  772BOLB   C1D18525  20.188  32.324  17.233  0.1980  0.3150 -0.1552
  772BOLB   C2D18526  19.998  32.524  17.180  0.2276  0.0036 -0.1784
  772BOLB   C3D18527  19.892  32.941  17.042 -0.0299  0.2220  0.0276
  772BOLB   C4D18528  19.681  33.243  16.860  0.1854  0.0147 -0.2098
  773BOLB   NC118529  29.513  32.533  10.006 -0.1341  0.1269 -0.3210
  773BOLB   PO118530  29.945  32.668   9.971  0.0877 -0.3504 -0.1646
  773BOLB   GL118531  29.917  32.664  10.462 -0.0292 -0.0612 -0.0216
  773BOLB   GL218532  29.824  32.943  10.674  0.3455 -0.2210 -0.3109
  773BOLB   C1A18533  30.018  32.546  10.882  0.2021  0.0511 -0.1458
  773BOLB   C2A18534  30.033  32.294  11.253 -0.0572 -0.1801 -0.1010
  773BOLB   C3A18535  29.676  32.421  11.487  0.0466 -0.1506 -0.1266
  773BOLB   C4A18536  29.331  32.356  11.863 -0.0126  0.0953  0.2675
  773BOLB   C1B18537  29.531  32.805  11.017 -0.0757  0.2073  0.3035
  773BOLB   C2B18538  29.200  32.428  11.182  0.0945  0.1854  0.1860
  773BOLB   C3B18539  29.275  32.148  11.389  0.0362 -0.0737  0.0625
  773BOLB   C4B18540  29.110  31.807  11.725  0.0916  0.1451  0.0391
  773BOLB   NC218541  29.836  31.430  14.196 -0.2562  0.1624  0.1220
  773BOLB   PO218542  29.456  31.389  14.009  0.0767  0.2468  0.1090
  773BOLB   GL318543  29.438  31.428  13.571  0.1131 -0.3130 -0.0554
  773BOLB   GL418544  29.637  31.249  13.483  0.3204  0.1200 -0.0788
  773BOLB   C1C18545  29.629  31.655  13.194  0.1196 -0.3440 -0.0454
  773BOLB   C2C18546  29.529  31.901  12.844  0.0820 -0.3118 -0.1192
  773BOLB   C3C18547  29.244  32.147  12.577 -0.1409  0.2616  0.0563
  773BOLB   C4C18548  29.038  32.187  12.207 -0.2471 -0.0208 -0.2227
  773BOLB   C1D18549  29.607  31.124  13.019 -0.0999  0.2488 -0.0560
  773BOLB   C2D18550  29.599  30.914  12.641 -0.0390 -0.2293  0.0562
  773BOLB   C3D18551  29.862  30.716  12.501 -0.2769  0.0577 -0.1164
  773BOLB   C4D18552  30.314  30.689  12.244 -0.0636  0.4814 -0.0523
  774BOLB   NC118553  23.208  30.937   9.845  0.4223 -0.1774 -0.0777
  774BOLB   PO118554  23.149  30.581   9.684 -0.1266  0.1072  0.2512
  774BOLB   GL118555  22.968  30.439  10.024 -0.1223  0.3782 -0.0874
  774BOLB   GL218556  22.732  30.597  10.293 -0.4112  0.2376  0.3987
  774BOLB   C1A18557  23.146  30.144  10.408  0.1221  0.2466 -0.1586
  774BOLB   C2A18558  22.832  30.017  10.717  0.0844 -0.2073 -0.0384
  774BOLB   C3A18559  22.888  29.822  10.965 -0.1356  0.0639 -0.0406
  774BOLB   C4A18560  22.995  29.719  11.295 -0.0544 -0.0698 -0.2141
  774BOLB   C1B18561  22.726  30.515  10.702  0.2843 -0.0017 -0.2491
  774BOLB   C2B18562  23.016  30.404  11.004 -0.1964 -0.3498  0.3254
  774BOLB   C3B18563  23.047  30.646  11.369 -0.0780 -0.1290  0.2809
  774BOLB   C4B18564  23.301  30.909  11.769  0.1474  0.1055  0.0962
  774BOLB   NC218565  21.160  29.649  10.616 -0.0345  0.2089 -0.3380
  774BOLB   PO218566  21.646  29.684  10.706 -0.1147 -0.1658 -0.0306
  774BOLB   GL318567  21.833  29.820  11.020 -0.4569  0.1634  0.0010
  774BOLB   GL418568  21.614  30.020  11.250  0.2150  0.2575  0.3989
  774BOLB   C1C18569  21.954  29.714  11.495 -0.0802  0.0646 -0.2920
  774BOLB   C2C18570  22.255  29.990  11.700  0.2655 -0.4239  0.0526
  774BOLB   C3C18571  22.698  29.988  11.910  0.0826  0.0797  0.0607
  774BOLB   C4C18572  23.002  29.739  11.741  0.1256 -0.2865 -0.0726
  774BOLB   C1D18573  22.006  30.312  11.414  0.0531  0.1287 -0.0610
  774BOLB   C2D18574  22.481  30.402  11.536 -0.1715  0.1461  0.0487
  774BOLB   C3D18575  22.656  30.544  11.755  0.1712  0.2626 -0.1649
  774BOLB   C4D18576  22.971  30.486  11.834 -0.0687 -0.0521  0.0719
  775BOLB   NC118577  32.995  19.868   0.468  0.0069  0.2197 -0.4525
  775BOLB   PO118578  33.462  20.047   0.222  0.0555 -0.0479 -0.1546
  775BOLB   GL118579  33.165  20.298  26.841  0.0873 -0.1298  0.1757
  775BOLB   GL218580  33.319  20.583   0.007 -0.0458  0.0099  0.0689
  775BOLB   C1A18581  32.876  20.535  26.528 -0.1140 -0.3522 -0.0636
  775BOLB   C2A18582  32.806  20.858  26.259  0.0640 -0.1270 -0.0182
  775BOLB   C3A18583  32.676  21.169  25.968 -0.1214 -0.0756  0.0857
  775BOLB   C4A18584  32.797  21.446  25.756  0.1744  0.0439 -0.2211
  775BOLB   C1B18585  33.670  20.804  26.823 -0.4362  0.2522 -0.0012
  775BOLB   C2B18586  33.742  20.929  26.411 -0.1698  0.0015  0.0227
  775BOLB   C3B18587  34.097  20.904  26.244 -0.3204 -0.1036 -0.0059
  775BOLB   C4B18588  34.379  21.070  25.930  0.0054  0.3676  0.0278
  775BOLB   NC218589  31.674  22.819  24.403  0.0429 -0.0312 -0.1322
  775BOLB   PO218590  32.038  23.055  24.589  0.1256 -0.4271  0.0650
  775BOLB   GL318591  32.017  22.664  24.686 -0.0824  0.1779 -0.3395
  775BOLB   GL418592  32.195  22.608  24.895  0.2420 -0.0774 -0.3996
  775BOLB   C1C18593  32.125  22.175  24.637  0.0082  0.0993 -0.1555
  775BOLB   C2C18594  32.381  21.890  24.896  0.0523  0.3800  0.1489
  775BOLB   C3C18595  32.669  21.767  25.167 -0.0780  0.1987  0.0631
  775BOLB   C4C18596  32.797  21.486  25.426  0.1652 -0.1855 -0.1414
  775BOLB   C1D18597  32.499  22.405  25.170  0.0121  0.2867 -0.1122
  775BOLB   C2D18598  32.860  22.122  25.493 -0.1441  0.1118 -0.0506
  775BOLB   C3D18599  33.012  22.059  25.886  0.1808 -0.1408  0.2391
  775BOLB   C4D18600  33.086  22.120  26.279 -0.2201 -0.2510 -0.2210
  776BOLB   NC118601  31.471  31.873  10.310  0.6111  0.2248  0.2414
  776BOLB   PO118602  31.770  32.145  10.280  0.0542  0.0844 -0.1215
  776BOLB   GL118603  31.754  32.028  10.776 -0.3472 -0.3810 -0.2040
  776BOLB   GL218604  31.447  31.959  10.862 -0.0391  0.2648 -0.0528
  776BOLB   C1A18605  31.810  32.123  11.183  0.0818 -0.0356  0.0682
  776BOLB   C2A18606  31.729  32.264  11.585  0.1163  0.0102 -0.1677
  776BOLB   C3A18607  31.492  32.166  12.073 -0.3081 -0.0550 -0.1387
  776BOLB   C4A18608  31.084  32.030  12.374 -0.1674  0.2030  0.0533
  776BOLB   C1B18609  31.393  31.977  11.361  0.0978 -0.3750  0.1569
  776BOLB   C2B18610  31.121  31.821  11.727 -0.2994 -0.1040 -0.0527
  776BOLB   C3B18611  30.976  31.590  12.039 -0.0911 -0.0395  0.1370
  776BOLB   C4B18612  30.868  31.367  12.336 -0.0396  0.1521  0.1757
  776BOLB   NC218613  32.062  31.079  10.407  0.1838 -0.2449 -0.1762
  776BOLB   PO218614  31.795  31.452  10.332 -0.0786 -0.1527  0.2077
  776BOLB   GL318615  31.413  31.512  10.639  0.1275 -0.0761  0.1314
  776BOLB   GL418616  31.173  31.280  10.587 -0.1893  0.2136 -0.1779
  776BOLB   C1C18617  31.228  31.521  11.059  0.1457  0.0143  0.0705
  776BOLB   C2C18618  30.873  31.636  11.354 -0.1773 -0.1390  0.2481
  776BOLB   C3C18619  30.646  31.909  11.685  0.0575  0.0322 -0.1273
  776BOLB   C4C18620  30.665  31.919  12.243  0.0991  0.1539 -0.0658
  776BOLB   C1D18621  31.238  30.999  10.869  0.0502 -0.0506 -0.0570
  776BOLB   C2D18622  31.551  30.661  10.962 -0.2748 -0.1755 -0.0003
  776BOLB   C3D18623  31.503  30.223  10.839 -0.1740 -0.2445 -0.1112
  776BOLB   C4D18624  31.106  30.129  10.583  0.0673 -0.0950  0.3197
  777BOLB   NC118625  20.178  30.736  24.017 -0.1013 -0.2333 -0.2795
  777BOLB   PO118626  19.933  30.995  23.837 -0.2438 -0.1353  0.3876
  777BOLB   GL118627  19.668  31.080  24.199 -0.2232 -0.2207 -0.2167
  777BOLB   GL218628  19.474  31.294  24.104 -0.0087  0.3810  0.3340
  777BOLB   C1A18629  19.328  30.932  24.446 -0.1051 -0.1215  0.1715
  777BOLB   C2A18630  18.813  31.066  24.564  0.3864  0.0045 -0.0959
  777BOLB   C3A18631  18.389  31.304  24.648  0.0879 -0.1735  0.0038
  777BOLB   C4A18632  18.013  31.438  24.881 -0.2245  0.1164  0.0762
  777BOLB   C1B18633  19.064  31.369  24.177  0.0618  0.1492 -0.0589
  777BOLB   C2B18634  18.779  31.614  24.318 -0.4039  0.0702 -0.1229
  777BOLB   C3B18635  18.404  31.754  24.433  0.2740  0.1116  0.1201
  777BOLB   C4B18636  18.006  31.915  24.493  0.0103 -0.0993  0.1618
  777BOLB   NC218637  15.700  31.990  24.924  0.1149  0.3099 -0.0416
  777BOLB   PO218638  15.809  32.324  24.751 -0.0711  0.0838 -0.2697
  777BOLB   GL318639  16.157  32.206  24.703  0.1952 -0.1790 -0.2108
  777BOLB   GL418640  16.261  32.077  25.043 -0.2248 -0.1723  0.4741
  777BOLB   C1C18641  16.549  31.970  24.698 -0.0137 -0.0189 -0.0449
  777BOLB   C2C18642  16.935  32.002  24.683  0.0595 -0.3201 -0.1422
  777BOLB   C3C18643  17.350  32.033  24.742 -0.2376  0.0147  0.0529
  777BOLB   C4C18644  17.657  31.690  24.759  0.3114 -0.1939 -0.1083
  777BOLB   C1D18645  16.620  31.878  25.231 -0.0878 -0.1543  0.0695
  777BOLB   C2D18646  16.854  31.676  25.113 -0.1909  0.0408 -0.2257
  777BOLB   C3D18647  17.143  31.596  24.867  0.1075  0.2021  0.0994
  777BOLB   C4D18648  17.282  31.605  24.396 -0.1306  0.0801 -0.4662
  778BOLB   NC118649  32.025  33.732  16.029 -0.1319  0.1090  0.0267
  778BOLB   PO118650  32.289  33.457  15.940 -0.2140  0.0179 -0.1438
  778BOLB   GL118651  32.549  33.664  15.708 -0.0159 -0.3129 -0.1743
  778BOLB   GL218652  32.430  33.949  15.702  0.1519  0.0818  0.1817
  778BOLB   C1A18653  32.802  33.746  15.359 -0.0693  0.0936 -0.1240
  778BOLB   C2A18654  32.976  33.993  15.028  0.1715  0.1511  0.0862
  778BOLB   C3A18655  33.342  34.241  14.838  0.5086 -0.0641 -0.0208
  778BOLB   C4A18656  33.612  34.411  14.496 -0.0960  0.3194  0.0172
  778BOLB   C1B18657  32.546  34.208  15.365 -0.1633  0.1994 -0.1926
  778BOLB   C2B18658  32.531  34.331  14.888 -0.2098 -0.3245 -0.2953
  778BOLB   C3B18659  32.926  34.481  14.522 -0.0211 -0.0039 -0.2872
  778BOLB   C4B18660  33.235  34.684  14.358  0.0994 -0.2668  0.1339
  778BOLB   NC218661  34.598  35.344  12.420  0.2060  0.1898  0.0183
  778BOLB   PO218662  34.772  34.866  12.623 -0.0892  0.0296  0.1476
  778BOLB   GL318663  34.522  34.634  12.875 -0.0189  0.1679 -0.2672
  778BOLB   GL418664  34.654  34.329  12.824  0.1824  0.2557  0.1038
  778BOLB   C1C18665  34.528  34.597  13.268 -0.0886  0.1074  0.2473
  778BOLB   C2C18666  34.578  34.306  13.631  0.1226 -0.0133  0.3413
  778BOLB   C3C18667  34.364  34.455  14.009 -0.1550  0.0540  0.0443
  778BOLB   C4C18668  33.941  34.657  14.317  0.0448 -0.2125  0.1557
  778BOLB   C1D18669  34.459  34.045  13.075 -0.0774 -0.4045  0.1943
  778BOLB   C2D18670  34.542  33.804  13.445  0.0954  0.0871  0.0721
  778BOLB   C3D18671  34.776  33.479  13.420  0.1573 -0.0419 -0.0362
  778BOLB   C4D18672  35.042  33.122  13.198  0.0066  0.1435  0.1749
  779BOLB   NC118673  34.535  34.444  22.849 -0.0544  0.0592 -0.3405
  779BOLB   PO118674  34.626  34.319  22.427 -0.3099  0.1742  0.2927
  779BOLB   GL118675  34.932  34.526  22.573  0.1107  0.3046 -0.2228
  779BOLB   GL218676  35.111  34.811  22.421 -0.0572  0.1223 -0.2583
  779BOLB   C1A18677  35.055  34.806  22.918 -0.0708 -0.4394  0.0700
  779BOLB   C2A18678  35.299  35.191  23.058 -0.1862 -0.0306 -0.2359
  779BOLB   C3A18679  35.639  35.317  22.908  0.1789  0.1243  0.1215
  779BOLB   C4A18680  35.960  35.647  22.969  0.1517  0.1691 -0.0676
  779BOLB   C1B18681  35.457  35.047  22.542 -0.0092  0.2034 -0.2202
  779BOLB   C2B18682  35.837  35.179  22.446  0.0757  0.3035 -0.1231
  779BOLB   C3B18683  36.194  35.410  22.497  0.0083 -0.2271 -0.3016
  779BOLB   C4B18684  36.616  35.589  22.862 -0.0280 -0.0540 -0.2375
  779BOLB   NC218685  37.834  36.794  23.322 -0.1009  0.3538 -0.2780
  779BOLB   PO218686  38.140  36.604  22.933 -0.2427 -0.0177  0.1239
  779BOLB   GL318687  37.922  36.264  23.203 -0.0792  0.0887  0.4039
  779BOLB   GL418688  37.796  36.292  23.480 -0.2130 -0.0901  0.0936
  779BOLB   C1C18689  37.549  36.060  23.152 -0.0322  0.0189  0.3602
  779BOLB   C2C18690  37.153  35.773  23.238  0.1869 -0.0942  0.3692
  779BOLB   C3C18691  36.651  35.885  23.319  0.0860  0.0292  0.1012
  779BOLB   C4C18692  36.306  35.839  23.150 -0.0626 -0.0005  0.0258
  779BOLB   C1D18693  37.466  36.190  23.646 -0.2398 -0.1730  0.1401
  779BOLB   C2D18694  37.035  36.253  23.504  0.0442  0.1494 -0.2018
  779BOLB   C3D18695  36.654  36.238  23.658  0.0545  0.1881 -0.1808
  779BOLB   C4D18696  36.190  36.336  23.466  0.1882  0.0332 -0.3059
  780BOLB   NC118697  21.443  29.889  16.512 -0.1229 -0.2159 -0.0518
  780BOLB   PO118698  21.174  29.577  16.787 -0.1313  0.1209  0.2994
  780BOLB   GL118699  20.938  29.994  16.472 -0.0434  0.0132 -0.2266
  780BOLB   GL218700  20.605  30.106  16.605 -0.1428 -0.1903 -0.0009
  780BOLB   C1A18701  20.671  29.954  16.140  0.0602  0.0904  0.2916
  780BOLB   C2A18702  20.243  30.108  16.013 -0.0043  0.1324  0.2331
  780BOLB   C3A18703  19.877  30.265  16.011  0.3092 -0.2638  0.0128
  780BOLB   C4A18704  19.503  30.335  15.835 -0.0726 -0.1063  0.3476
  780BOLB   C1B18705  20.232  30.297  16.478  0.0009 -0.1985  0.0771
  780BOLB   C2B18706  19.794  30.431  16.468  0.3145 -0.0038  0.0708
  780BOLB   C3B18707  19.450  30.702  16.264  0.0577  0.4355 -0.2597
  780BOLB   C4B18708  18.985  30.588  16.078 -0.0903  0.3193 -0.0268
  780BOLB   NC218709  16.996  30.137  15.314  0.0612 -0.2386 -0.0218
  780BOLB   PO218710  17.317  29.806  15.323 -0.4236 -0.1325 -0.1867
  780BOLB   GL318711  17.597  29.512  15.308  0.1403 -0.1351  0.0875
  780BOLB   GL418712  17.594  29.374  15.525 -0.2400 -0.0225  0.0604
  780BOLB   C1C18713  18.047  29.688  15.187  0.0889 -0.0602 -0.3842
  780BOLB   C2C18714  18.320  29.954  15.395 -0.4340 -0.1250 -0.0496
  780BOLB   C3C18715  18.796  30.063  15.367 -0.2490 -0.1525  0.1483
  780BOLB   C4C18716  19.163  30.191  15.628 -0.1109  0.3149  0.1589
  780BOLB   C1D18717  18.052  29.361  15.637  0.0995 -0.0198 -0.2108
  780BOLB   C2D18718  18.376  29.421  15.967 -0.0025  0.3249 -0.1053
  780BOLB   C3D18719  18.656  29.126  16.244  0.1354 -0.2953  0.1255
  780BOLB   C4D18720  18.732  28.662  16.409  0.0299 -0.1819 -0.2007
  781BOLB   NC118721  24.198  34.911   0.849  0.1671 -0.1513 -0.0166
  781BOLB   PO118722  24.578  34.836   0.852 -0.1288 -0.0076  0.0469
  781BOLB   GL118723  24.419  35.064   1.258  0.1625  0.2685  0.1695
  781BOLB   GL218724  24.693  35.136   1.482 -0.0715 -0.0917  0.0256
  781BOLB   C1A18725  24.069  35.104   1.558 -0.1693 -0.2495  0.0786
  781BOLB   C2A18726  23.836  35.225   1.865 -0.0282 -0.1535 -0.1091
  781BOLB   C3A18727  23.902  35.557   2.164  0.2649  0.1768 -0.1301
  781BOLB   C4A18728  23.728  35.603   2.612 -0.0511 -0.2103 -0.0277
  781BOLB   C1B18729  24.572  35.531   1.641 -0.1450  0.0225  0.1359
  781BOLB   C2B18730  24.576  35.932   1.642 -0.3883  0.2132  0.2667
  781BOLB   C3B18731  24.800  36.316   1.630 -0.1545 -0.1419 -0.1238
  781BOLB   C4B18732  25.099  36.702   1.682  0.3436 -0.1024  0.5756
  781BOLB   NC218733  22.287  37.117   4.039 -0.2899 -0.4546  0.1786
  781BOLB   PO218734  22.685  37.328   3.892 -0.0484  0.1057 -0.4418
  781BOLB   GL318735  22.840  36.964   3.585  0.0058 -0.0471  0.1077
  781BOLB   GL418736  23.046  36.820   3.692 -0.1019  0.0654  0.0208
  781BOLB   C1C18737  23.046  36.810   3.230  0.1037  0.0081  0.2243
  781BOLB   C2C18738  22.932  36.538   2.948  0.0134  0.1298 -0.2159
  781BOLB   C3C18739  23.149  36.125   2.964  0.0413  0.0884  0.0861
  781BOLB   C4C18740  23.580  35.889   2.829  0.3961 -0.1599 -0.0621
  781BOLB   C1D18741  23.162  36.400   3.528  0.0947 -0.0027 -0.2813
  781BOLB   C2D18742  23.271  36.001   3.451  0.0653 -0.1599 -0.1212
  781BOLB   C3D18743  23.364  35.729   3.242 -0.0053 -0.0468  0.1305
  781BOLB   C4D18744  23.194  35.564   2.772 -0.1581  0.2988  0.2994
  782BOLB   NC118745  24.786  36.392  25.661 -0.2140 -0.2100 -0.2179
  782BOLB   PO118746  24.904  36.388  25.342  0.0145  0.2333  0.0142
  782BOLB   GL118747  24.957  36.820  25.350 -0.3363  0.0983  0.1875
  782BOLB   GL218748  25.050  37.014  25.080  0.1921 -0.2912 -0.0031
  782BOLB   C1A18749  24.905  37.250  25.585  0.2660 -0.2628  0.1271
  782BOLB   C2A18750  24.997  37.616  25.789 -0.0493 -0.0995  0.0199
  782BOLB   C3A18751  24.897  38.035  25.798  0.1983 -0.0365 -0.2675
  782BOLB   C4A18752  24.810  38.300  26.158 -0.2154  0.1661  0.0860
  782BOLB   C1B18753  24.713  37.419  25.093 -0.1650  0.0607 -0.1361
  782BOLB   C2B18754  24.567  37.651  25.498 -0.3182  0.1949 -0.2303
  782BOLB   C3B18755  24.633  37.699  26.076 -0.0214 -0.0950  0.3417
  782BOLB   C4B18756  24.776  37.920  26.482 -0.0270 -0.0069  0.0394
  782BOLB   NC218757  24.221  40.465   0.366  0.0600 -0.2159  0.0325
  782BOLB   PO218758  24.502  40.093   0.243  0.1912 -0.0290 -0.0483
  782BOLB   GL318759  24.576  39.721  26.835 -0.0418  0.1491 -0.2321
  782BOLB   GL418760  24.416  39.459  26.845 -0.1315  0.2733 -0.0765
  782BOLB   C1C18761  24.810  39.530  26.502  0.2628  0.0416  0.1104
  782BOLB   C2C18762  25.109  39.373  26.305 -0.0055 -0.3338 -0.1465
  782BOLB   C3C18763  25.107  39.022  26.155 -0.1027 -0.1773  0.4527
  782BOLB   C4C18764  24.778  38.752  26.179 -0.1414 -0.2286  0.1472
  782BOLB   C1D18765  24.583  39.121   0.134 -0.0250  0.2280 -0.3173
  782BOLB   C2D18766  24.434  38.721   0.344  0.0962  0.0651  0.0624
  782BOLB   C3D18767  24.511  38.357   0.279  0.2630 -0.1073  0.1200
  782BOLB   C4D18768  24.703  37.976   0.045  0.2511 -0.3941  0.2652
  783BOLB   NC118769  16.471  19.615  23.380 -0.0807 -0.0155  0.0035
  783BOLB   PO118770  16.488  19.797  23.832  0.1329  0.0020 -0.0424
  783BOLB   GL118771  16.825  19.913  23.630 -0.1648 -0.1490 -0.2202
  783BOLB   GL218772  16.965  19.741  23.337  0.0658  0.0923 -0.0011
  783BOLB   C1A18773  17.077  20.355  23.667 -0.1602 -0.0139 -0.1593
  783BOLB   C2A18774  16.975  20.781  23.493  0.1653 -0.0204  0.1234
  783BOLB   C3A18775  17.170  21.067  23.230  0.1533  0.1775 -0.1756
  783BOLB   C4A18776  17.226  21.293  22.860 -0.2742  0.0482 -0.4235
  783BOLB   C1B18777  17.072  20.071  23.225 -0.2079  0.2836 -0.2452
  783BOLB   C2B18778  17.134  20.463  23.161 -0.0339 -0.0689  0.2687
  783BOLB   C3B18779  16.803  20.829  22.941  0.0477  0.1763  0.1932
  783BOLB   C4B18780  16.564  20.999  22.743  0.0182 -0.1038  0.1578
  783BOLB   NC218781  14.852  21.081  22.820  0.1016  0.1564  0.1947
  783BOLB   PO218782  15.086  20.777  22.516 -0.1550  0.0948  0.1017
  783BOLB   GL318783  15.613  20.786  22.489  0.2867 -0.3504 -0.2123
  783BOLB   GL418784  15.582  20.956  22.101  0.0464 -0.3208 -0.1987
  783BOLB   C1C18785  16.053  20.968  22.487 -0.0419 -0.1387  0.0766
  783BOLB   C2C18786  16.401  21.187  22.345  0.0511  0.2258  0.1769
  783BOLB   C3C18787  16.734  21.059  22.194  0.1072  0.1738  0.1623
  783BOLB   C4C18788  17.068  21.127  22.504  0.1906 -0.1301 -0.0071
  783BOLB   C1D18789  15.697  21.093  21.651 -0.0294 -0.0617 -0.2631
  783BOLB   C2D18790  16.031  21.174  21.410  0.2991 -0.0630  0.1198
  783BOLB   C3D18791  16.078  21.191  20.973 -0.1782 -0.3279  0.2574
  783BOLB   C4D18792  16.279  21.255  20.521  0.1675  0.0357  0.3636
  784BOLB   NC118793  36.064  34.058   3.574  0.0287  0.5948  0.2323
  784BOLB   PO118794  36.159  33.859   3.231 -0.3515 -0.2010 -0.1510
  784BOLB   GL118795  35.768  33.605   3.129  0.1476  0.3200 -0.1344
  784BOLB   GL218796  35.873  33.551   2.867 -0.3147 -0.0636  0.0288
  784BOLB   C1A18797  35.415  33.594   2.854  0.1925 -0.4046 -0.0683
  784BOLB   C2A18798  35.099  33.746   2.681  0.0371  0.0606  0.2130
  784BOLB   C3A18799  34.924  33.655   2.334 -0.1088 -0.1235 -0.0513
  784BOLB   C4A18800  34.745  33.511   1.991 -0.1177 -0.1753 -0.2282
  784BOLB   C1B18801  35.516  33.428   2.438 -0.1337 -0.3475 -0.3328
  784BOLB   C2B18802  35.268  33.120   2.169 -0.1963 -0.0785 -0.2527
  784BOLB   C3B18803  35.098  33.043   1.807 -0.0875 -0.1163  0.0329
  784BOLB   C4B18804  34.910  32.984   1.420 -0.3907  0.1589 -0.0326
  784BOLB   NC218805  33.175  32.381   0.537  0.0079  0.0713  0.5725
  784BOLB   PO218806  33.140  32.793   0.322 -0.3117  0.2505  0.0850
  784BOLB   GL318807  33.478  32.858   0.572  0.2197  0.1812  0.1346
  784BOLB   GL418808  33.649  32.570   0.716 -0.4171  0.2488  0.2745
  784BOLB   C1C18809  33.831  33.187   0.606 -0.0104 -0.0154  0.0152
  784BOLB   C2C18810  34.230  33.220   0.828  0.0589 -0.0635  0.0435
  784BOLB   C3C18811  34.331  33.454   1.232  0.3575  0.0863  0.0531
  784BOLB   C4C18812  34.411  33.327   1.696 -0.0350  0.2843 -0.1848
  784BOLB   C1D18813  33.998  32.724   0.904  0.0099 -0.0592 -0.1701
  784BOLB   C2D18814  34.380  32.535   1.081 -0.2382  0.1434 -0.1690
  784BOLB   C3D18815  34.539  32.583   1.465 -0.2297  0.0929  0.1915
  784BOLB   C4D18816  34.694  32.719   1.864 -0.0128  0.0305 -0.1175
  785BOLB   NC118817  17.510  36.380  20.091  0.0425 -0.1308  0.2139
  785BOLB   PO118818  17.689  36.267  19.727 -0.3746  0.1415  0.2833
  785BOLB   GL118819  18.067  36.041  19.617  0.1261  0.0159 -0.3977
  785BOLB   GL218820  18.121  35.684  19.567 -0.2333 -0.1506  0.2773
  785BOLB   C1A18821  18.469  36.164  19.496 -0.0295 -0.3622  0.1330
  785BOLB   C2A18822  18.845  36.094  19.220  0.2893  0.4408 -0.1709
  785BOLB   C3A18823  19.173  35.800  19.254 -0.1997 -0.0115 -0.0431
  785BOLB   C4A18824  19.519  35.489  19.405  0.2145  0.0116  0.4341
  785BOLB   C1B18825  18.452  35.543  19.686 -0.2520 -0.1555 -0.0055
  785BOLB   C2B18826  18.764  35.282  19.927  0.2324 -0.0214 -0.1345
  785BOLB   C3B18827  18.800  34.855  20.025 -0.0249  0.1286 -0.1482
  785BOLB   C4B18828  18.898  34.479  20.047  0.1756  0.1669 -0.0598
  785BOLB   NC218829  21.812  34.219  20.377  0.0295  0.1100  0.1182
  785BOLB   PO218830  21.529  34.597  20.109 -0.0554  0.1007  0.4200
  785BOLB   GL318831  21.294  34.901  19.894  0.0334  0.0586  0.2025
  785BOLB   GL418832  21.261  35.212  19.969  0.1152 -0.3119  0.5414
  785BOLB   C1C18833  21.083  34.876  19.580  0.1390  0.0107  0.1056
  785BOLB   C2C18834  20.632  34.908  19.645  0.1109 -0.0926 -0.2017
  785BOLB   C3C18835  20.261  35.168  19.469  0.1600 -0.0202  0.2343
  785BOLB   C4C18836  19.829  35.223  19.433  0.1850 -0.0015 -0.2575
  785BOLB   C1D18837  21.169  35.556  19.754  0.0807 -0.2088 -0.0414
  785BOLB   C2D18838  20.807  35.801  19.716 -0.0082  0.1112  0.0332
  785BOLB   C3D18839  20.625  36.069  19.452  0.0024 -0.1627  0.1147
  785BOLB   C4D18840  20.525  36.419  19.135  0.0416  0.3887  0.0413
  786BOLB   NC118841  22.772  36.025   4.696  0.3806 -0.0816  0.0270
  786BOLB   PO118842  22.548  36.097   4.277  0.1357 -0.0091  0.2586
  786BOLB   GL118843  22.819  35.692   3.938  0.1606 -0.1797 -0.3903
  786BOLB   GL218844  22.821  35.895   3.758  0.0930 -0.0336 -0.7194
  786BOLB   C1A18845  23.033  35.526   3.619  0.0277 -0.1097 -0.1892
  786BOLB   C2A18846  23.005  35.210   3.299 -0.2195  0.4973 -0.0188
  786BOLB   C3A18847  23.068  35.099   2.845 -0.1121 -0.0684 -0.0230
  786BOLB   C4A18848  22.936  35.183   2.443  0.3803 -0.2749 -0.1353
  786BOLB   C1B18849  22.444  35.643   3.627  0.2679 -0.0142 -0.0533
  786BOLB   C2B18850  22.453  35.222   3.345 -0.1577 -0.0892  0.0324
  786BOLB   C3B18851  22.685  34.844   3.128  0.1928  0.1499  0.2933
  786BOLB   C4B18852  22.835  34.455   3.264 -0.0666  0.3137 -0.0100
  786BOLB   NC218853  21.688  37.285   2.863 -0.1323  0.0151 -0.0762
  786BOLB   PO218854  22.192  37.250   2.946 -0.1204 -0.0460 -0.3029
  786BOLB   GL318855  22.448  36.913   2.905  0.4023  0.2319 -0.1184
  786BOLB   GL418856  22.758  37.041   2.894 -0.2418  0.0165 -0.2330
  786BOLB   C1C18857  22.550  36.579   2.488 -0.3612 -0.2631 -0.1808
  786BOLB   C2C18858  22.710  36.371   2.129 -0.0991  0.1541 -0.1463
  786BOLB   C3C18859  22.541  35.926   2.248 -0.1035  0.1669 -0.0878
  786BOLB   C4C18860  22.704  35.489   2.245 -0.2048  0.1312 -0.2087
  786BOLB   C1D18861  22.939  36.884   2.550 -0.0218 -0.0001  0.0194
  786BOLB   C2D18862  23.066  36.452   2.481 -0.2309 -0.1131 -0.4142
  786BOLB   C3D18863  23.447  36.260   2.497 -0.0003  0.1023  0.2730
  786BOLB   C4D18864  23.766  36.044   2.354 -0.0214  0.0191  0.0013
  787BOLB   NC118865  26.034  35.946  16.597  0.1318  0.0716  0.2279
  787BOLB   PO118866  25.716  35.782  16.267  0.1838 -0.1085 -0.0565
  787BOLB   GL118867  25.399  35.682  15.961 -0.1764 -0.2508  0.0300
  787BOLB   GL218868  25.301  35.766  15.680 -0.4267 -0.3201  0.0088
  787BOLB   C1A18869  25.141  36.162  15.959 -0.3065  0.0039 -0.1592
  787BOLB   C2A18870  24.852  36.559  15.864 -0.2651 -0.1749 -0.2376
  787BOLB   C3A18871  24.602  36.898  15.765 -0.0229  0.0587 -0.0845
  787BOLB   C4A18872  24.465  37.348  15.569 -0.0673 -0.5958 -0.1034
  787BOLB   C1B18873  25.058  36.141  15.441 -0.2014  0.1490  0.2373
  787BOLB   C2B18874  24.931  36.541  15.277  0.0382 -0.0125 -0.0065
  787BOLB   C3B18875  24.610  36.691  15.005 -0.5317  0.0392  0.1719
  787BOLB   C4B18876  24.204  36.742  14.841 -0.1543 -0.2705  0.0814
  787BOLB   NC218877  23.953  39.454  15.130 -0.4120  0.1439  0.0799
  787BOLB   PO218878  23.659  39.187  14.830 -0.1400 -0.1707 -0.2617
  787BOLB   GL318879  23.845  38.897  15.121 -0.1521 -0.1246  0.0722
  787BOLB   GL418880  23.867  39.079  15.411  0.1595  0.1932  0.1735
  787BOLB   C1C18881  23.912  38.516  15.008  0.0242 -0.4033 -0.1754
  787BOLB   C2C18882  24.177  38.198  15.153  0.3598 -0.1449 -0.1270
  787BOLB   C3C18883  24.455  37.893  15.050 -0.0152  0.0225  0.0585
  787BOLB   C4C18884  24.643  37.523  15.183  0.0276 -0.0485 -0.2154
  787BOLB   C1D18885  23.867  38.790  15.835 -0.1984  0.0509 -0.1062
  787BOLB   C2D18886  23.956  38.611  16.219  0.3472  0.1115  0.0981
  787BOLB   C3D18887  24.319  38.471  16.421  0.1809  0.5319 -0.0092
  787BOLB   C4D18888  24.617  38.624  16.675 -0.1959  0.1834  0.0787
  788BOLB   NC118889  33.899  24.306  20.096 -0.1323 -0.0991 -0.1105
  788BOLB   PO118890  33.965  24.647  19.785  0.2306  0.1304  0.1369
  788BOLB   GL118891  34.191  24.348  19.682  0.1199 -0.1838 -0.2027
  788BOLB   GL218892  34.405  24.424  19.513 -0.0244 -0.2187 -0.1671
  788BOLB   C1A18893  34.378  23.946  19.688 -0.0809  0.1687  0.0260
  788BOLB   C2A18894  34.728  23.686  19.674  0.0080  0.2612  0.1567
  788BOLB   C3A18895  35.036  23.368  19.759  0.1965 -0.2243  0.1923
  788BOLB   C4A18896  35.114  22.979  19.551  0.1756 -0.0581 -0.1067
  788BOLB   C1B18897  34.750  24.257  19.643  0.0946  0.0270 -0.0629
  788BOLB   C2B18898  35.117  23.961  19.568 -0.1412  0.0029 -0.0420
  788BOLB   C3B18899  35.208  23.696  19.406 -0.1732  0.1510  0.2617
  788BOLB   C4B18900  35.514  23.534  19.144 -0.2903 -0.1228  0.2447
  788BOLB   NC218901  36.938  22.982  17.692  0.0133 -0.1841  0.1869
  788BOLB   PO218902  37.009  22.671  17.994 -0.1533 -0.2684  0.2328
  788BOLB   GL318903  36.895  22.865  18.369 -0.0702 -0.0057  0.1166
  788BOLB   GL418904  36.735  23.059  18.354  0.0604  0.0697  0.4054
  788BOLB   C1C18905  36.532  22.720  18.682  0.1470 -0.1651  0.0101
  788BOLB   C2C18906  36.192  22.948  18.945  0.2051  0.1928 -0.1797
  788BOLB   C3C18907  35.754  23.054  19.015 -0.1602  0.1616 -0.1332
  788BOLB   C4C18908  35.498  22.910  19.288 -0.3279 -0.2157 -0.4579
  788BOLB   C1D18909  36.619  23.475  18.297 -0.5776 -0.1893  0.0403
  788BOLB   C2D18910  36.247  23.639  18.291  0.0233 -0.2548  0.0504
  788BOLB   C3D18911  35.877  23.763  18.428  0.2680 -0.1950 -0.1581
  788BOLB   C4D18912  35.694  23.782  18.761  0.1605  0.2208  0.3068
  789BOLB   NC118913  30.504  22.585  24.191  0.1922 -0.1529  0.1096
  789BOLB   PO118914  30.668  22.072  24.416  0.0134 -0.6467  0.1304
  789BOLB   GL118915  30.686  21.765  24.576 -0.1219 -0.2111  0.0586
  789BOLB   GL218916  30.527  21.837  24.893 -0.0920 -0.1118  0.1318
  789BOLB   C1A18917  30.897  21.349  24.586  0.3036 -0.0170  0.0192
  789BOLB   C2A18918  30.879  20.848  24.570 -0.0904  0.1940  0.0504
  789BOLB   C3A18919  31.098  20.654  24.225 -0.2314  0.0668  0.4173
  789BOLB   C4A18920  31.463  20.345  24.137  0.0324  0.0572 -0.1926
  789BOLB   C1B18921  30.526  21.469  25.168 -0.3542 -0.2863 -0.1688
  789BOLB   C2B18922  30.649  21.102  25.179 -0.0754  0.1027 -0.0233
  789BOLB   C3B18923  31.058  20.919  25.031  0.1714  0.0486 -0.0976
  789BOLB   C4B18924  31.566  20.845  24.993  0.1764 -0.0107 -0.2960
  789BOLB   NC218925  31.117  17.997  24.130 -0.1883 -0.2352 -0.2536
  789BOLB   PO218926  31.368  18.179  24.519  0.0968  0.2682 -0.2595
  789BOLB   GL318927  30.992  18.492  24.348 -0.0322  0.2932  0.1941
  789BOLB   GL418928  31.224  18.542  24.169  0.1163 -0.0924  0.0051
  789BOLB   C1C18929  30.940  18.871  23.994 -0.0436 -0.2261  0.0889
  789BOLB   C2C18930  31.126  19.335  24.144 -0.0014 -0.0463  0.0527
  789BOLB   C3C18931  31.391  19.589  24.007 -0.0295  0.1299 -0.1920
  789BOLB   C4C18932  31.427  19.999  23.989  0.0602  0.1397 -0.0611
  789BOLB   C1D18933  31.480  18.900  23.946 -0.3842 -0.2405 -0.1494
  789BOLB   C2D18934  31.603  19.236  23.612 -0.0799  0.0278  0.0757
  789BOLB   C3D18935  31.883  19.507  23.331  0.2477  0.1480 -0.0406
  789BOLB   C4D18936  31.781  19.361  22.953 -0.0917  0.2413 -0.0144
  790BOLB   NC118937  29.953  37.082  17.895  0.0069 -0.0801 -0.0211
  790BOLB   PO118938  29.982  36.827  17.469 -0.4131  0.1143  0.0976
  790BOLB   GL118939  30.223  37.059  17.168  0.2273  0.1406  0.3826
  790BOLB   GL218940  30.168  37.078  16.924  0.0472 -0.1958 -0.1970
  790BOLB   C1A18941  30.590  37.263  17.057 -0.0404  0.2812 -0.0970
  790BOLB   C2A18942  30.726  37.328  16.713 -0.1050  0.1571 -0.3698
  790BOLB   C3A18943  30.643  37.662  16.503  0.1248 -0.0200  0.0601
  790BOLB   C4A18944  30.546  38.112  16.285 -0.0198  0.1497  0.1458
  790BOLB   C1B18945  30.157  37.361  16.508 -0.2881 -0.0737 -0.0402
  790BOLB   C2B18946  30.162  37.827  16.413 -0.0516 -0.1392  0.3261
  790BOLB   C3B18947  30.031  38.145  16.204 -0.1032 -0.3532  0.0812
  790BOLB   C4B18948  30.133  38.609  16.141  0.1504  0.1730  0.0265
  790BOLB   NC218949  32.126  40.113  16.545  0.2509  0.0906 -0.0665
  790BOLB   PO218950  31.862  40.263  16.203  0.2683  0.0910  0.0058
  790BOLB   GL318951  31.595  39.910  16.452  0.0535 -0.1479  0.1348
  790BOLB   GL418952  31.485  39.897  16.164 -0.0734  0.1154 -0.2061
  790BOLB   C1C18953  31.275  39.536  16.444 -0.1689 -0.0203 -0.2572
  790BOLB   C2C18954  31.061  39.230  16.567 -0.2025  0.0001  0.0853
  790BOLB   C3C18955  30.911  38.835  16.457  0.3188  0.0953  0.0632
  790BOLB   C4C18956  30.705  38.533  16.165 -0.0716  0.2157 -0.1497
  790BOLB   C1D18957  31.011  39.922  16.202  0.1839 -0.1375 -0.3398
  790BOLB   C2D18958  30.576  39.770  16.286  0.0565 -0.1624 -0.1651
  790BOLB   C3D18959  30.216  39.520  16.348 -0.2138 -0.0132 -0.0949
  790BOLB   C4D18960  29.951  39.211  16.528 -0.1784  0.3299 -0.0765
  791BOLB   NC118961  33.155  27.605  15.976 -0.0986 -0.2123  0.0586
  791BOLB   PO118962  33.195  27.806  15.643 -0.3437 -0.0753  0.1894
  791BOLB   GL118963  33.374  27.943  15.261  0.1632  0.1388 -0.0520
  791BOLB   GL218964  33.764  28.075  15.312  0.0834  0.2626 -0.0840
  791BOLB   C1A18965  33.584  27.788  14.959  0.1241  0.0465  0.1680
  791BOLB   C2A18966  33.843  27.564  14.674 -0.0362 -0.0091 -0.1114
  791BOLB   C3A18967  34.111  27.519  14.228  0.1316  0.0069  0.1136
  791BOLB   C4A18968  33.990  27.494  13.801  0.3049  0.0592 -0.0204
  791BOLB   C1B18969  34.086  27.949  15.026 -0.1282 -0.2067  0.5042
  791BOLB   C2B18970  34.053  27.999  14.563  0.0851 -0.1403  0.1856
  791BOLB   C3B18971  33.690  27.864  14.363 -0.3334  0.1958 -0.2231
  791BOLB   C4B18972  33.357  27.922  14.143 -0.1568  0.1292 -0.0005
  791BOLB   NC218973  34.161  27.188  11.378 -0.0800 -0.1330 -0.0825
  791BOLB   PO218974  33.700  27.327  11.394  0.2145 -0.0771 -0.1603
  791BOLB   GL318975  33.483  27.490  11.790  0.0503  0.1273  0.0014
  791BOLB   GL418976  33.497  27.168  11.992  0.1779 -0.1891 -0.0477
  791BOLB   C1C18977  33.702  27.648  12.156 -0.1259  0.3783 -0.1203
  791BOLB   C2C18978  33.765  27.726  12.598  0.0544 -0.3341 -0.0588
  791BOLB   C3C18979  33.649  27.605  13.007  0.1684 -0.1227  0.0287
  791BOLB   C4C18980  33.847  27.430  13.336  0.1434  0.0080 -0.0253
  791BOLB   C1D18981  33.199  27.503  12.207 -0.1492  0.1581  0.1554
  791BOLB   C2D18982  33.206  27.587  12.667 -0.1726 -0.1962  0.0179
  791BOLB   C3D18983  33.079  27.550  13.043 -0.0603 -0.1086  0.1684
  791BOLB   C4D18984  33.276  27.425  13.404  0.1542 -0.0324 -0.1365
  792BOLB   NC118985  33.750  18.736  23.233  0.4093 -0.0629  0.0822
  792BOLB   PO118986  33.334  18.769  23.217 -0.1438  0.1392 -0.0874
  792BOLB   GL118987  33.351  19.189  23.279 -0.0329  0.2798 -0.0821
  792BOLB   GL218988  33.212  19.227  23.001 -0.2760  0.0990  0.1827
  792BOLB   C1A18989  33.067  19.537  23.438  0.1161 -0.6482 -0.3404
  792BOLB   C2A18990  32.882  19.886  23.327 -0.1385 -0.1121  0.2032
  792BOLB   C3A18991  32.868  20.404  23.248  0.2305  0.1406  0.1814
  792BOLB   C4A18992  32.778  20.866  23.113 -0.0646  0.0939 -0.3673
  792BOLB   C1B18993  32.916  19.556  22.943  0.3271  0.2053  0.2801
  792BOLB   C2B18994  32.591  19.895  22.800 -0.0698 -0.2262 -0.0420
  792BOLB   C3B18995  32.199  20.147  22.938 -0.2517  0.0183  0.3386
  792BOLB   C4B18996  31.873  20.250  23.169  0.0469  0.0322  0.0641
  792BOLB   NC218997  32.194  22.593  22.432 -0.0741  0.2430 -0.0606
  792BOLB   PO218998  32.495  22.870  22.457  0.1834  0.2069 -0.0527
  792BOLB   GL318999  32.713  22.593  22.615 -0.1414 -0.0873 -0.2111
  792BOLB   GL419000  32.587  22.232  22.683 -0.2583  0.1017 -0.1332
  792BOLB   C1C19001  33.065  22.365  22.751 -0.0819 -0.2504  0.0982
  792BOLB   C2C19002  33.152  22.033  22.960 -0.1041  0.0162 -0.1286
  792BOLB   C3C19003  33.180  21.630  23.003 -0.0696  0.1996 -0.5097
  792BOLB   C4C19004  32.958  21.277  22.993  0.3232  0.1582 -0.0675
  792BOLB   C1D19005  32.757  21.836  22.782 -0.1394 -0.1140  0.1734
  792BOLB   C2D19006  32.946  21.508  22.497 -0.0742 -0.0169  0.1328
  792BOLB   C3D19007  32.968  21.301  22.100 -0.0118  0.2372 -0.2712
  792BOLB   C4D19008  33.255  21.134  21.739  0.1978  0.0657 -0.4143
  793BOLB   NC119009  21.751  27.042  16.396  0.0204  0.1266  0.0981
  793BOLB   PO119010  21.323  26.994  16.255  0.1629  0.3883  0.0023
  793BOLB   GL119011  21.249  26.880  15.839  0.0395 -0.0012 -0.0041
  793BOLB   GL219012  21.314  26.548  15.810 -0.1827 -0.0390  0.2577
  793BOLB   C1A19013  21.376  26.997  15.432  0.0931  0.0075  0.1730
  793BOLB   C2A19014  21.145  26.956  14.982 -0.1854  0.0948 -0.1249
  793BOLB   C3A19015  20.850  26.875  14.651 -0.0408  0.3329  0.3689
  793BOLB   C4A19016  20.466  27.071  14.539 -0.1725  0.1153  0.4104
  793BOLB   C1B19017  20.994  26.272  15.769 -0.1791  0.3024 -0.0610
  793BOLB   C2B19018  20.631  26.268  15.496 -0.1786  0.1088 -0.4877
  793BOLB   C3B19019  20.222  26.389  15.650  0.3121 -0.0442 -0.0464
  793BOLB   C4B19020  19.761  26.379  15.525 -0.4866  0.1307 -0.2563
  793BOLB   NC219021  19.387  25.786  13.364 -0.1036 -0.1018  0.4065
  793BOLB   PO219022  19.019  25.876  13.550  0.0076  0.0842  0.3237
  793BOLB   GL319023  19.259  26.175  13.854 -0.0853 -0.1410  0.0528
  793BOLB   GL419024  19.358  26.399  14.153  0.0712  0.0348 -0.1368
  793BOLB   C1C19025  19.674  26.162  13.939 -0.0780 -0.1708 -0.0787
  793BOLB   C2C19026  19.978  26.491  13.847  0.4043  0.2119 -0.0050
  793BOLB   C3C19027  20.048  26.930  13.846  0.0592  0.0614 -0.1791
  793BOLB   C4C19028  20.110  27.070  14.228 -0.2266 -0.0626  0.3192
  793BOLB   C1D19029  19.706  26.437  14.350 -0.0585 -0.1303 -0.3456
  793BOLB   C2D19030  19.989  26.657  14.532  0.3770  0.0130  0.4365
  793BOLB   C3D19031  20.319  26.664  14.764 -0.0611  0.1842  0.0619
  793BOLB   C4D19032  20.714  26.538  15.035 -0.2257 -0.0619  0.0901
  794BOLB   NC119033  35.003  32.174  17.981 -0.3475  0.1123  0.2302
  794BOLB   PO119034  34.774  32.502  17.685  0.0191  0.1987  0.1563
  794BOLB   GL119035  35.060  32.697  17.436 -0.1226  0.0260  0.1237
  794BOLB   GL219036  35.138  33.063  17.410  0.0942  0.2613 -0.0464
  794BOLB   C1A19037  35.498  32.726  17.438 -0.2661 -0.3818 -0.1578
  794BOLB   C2A19038  35.821  32.526  17.531  0.0149  0.0167 -0.1390
  794BOLB   C3A19039  36.124  32.406  17.438  0.3679 -0.1234  0.0774
  794BOLB   C4A19040  36.408  32.212  17.155  0.0454  0.0846 -0.1887
  794BOLB   C1B19041  35.182  33.268  17.046  0.1673  0.0353  0.0218
  794BOLB   C2B19042  35.307  33.438  16.685 -0.2180 -0.1125 -0.1060
  794BOLB   C3B19043  35.606  33.550  16.340 -0.1639  0.6155 -0.0984
  794BOLB   C4B19044  35.329  33.476  15.940 -0.1018  0.1394 -0.2048
  794BOLB   NC219045  38.709  32.179  16.503  0.3558 -0.2863 -0.0980
  794BOLB   PO219046  38.528  32.471  16.303 -0.1285 -0.0844 -0.1456
  794BOLB   GL319047  38.268  32.459  16.712  0.3325  0.1924  0.2196
  794BOLB   GL419048  38.080  32.780  16.786  0.3244  0.1842  0.2417
  794BOLB   C1C19049  37.884  32.294  16.942  0.4388  0.2302 -0.0125
  794BOLB   C2C19050  37.609  32.147  17.089 -0.1918  0.1533 -0.2773
  794BOLB   C3C19051  37.218  31.847  16.957  0.0269 -0.1983 -0.2378
  794BOLB   C4C19052  36.745  31.882  16.937  0.0341 -0.1159  0.2820
  794BOLB   C1D19053  37.675  32.736  16.765  0.1819  0.1636 -0.2683
  794BOLB   C2D19054  37.279  32.643  16.627  0.0045 -0.1971 -0.0942
  794BOLB   C3D19055  36.910  32.402  16.630  0.1165 -0.2574  0.0018
  794BOLB   C4D19056  36.603  32.442  16.754 -0.1135  0.0508  0.3283
  795BOLB   NC119057  27.064  37.358  23.925 -0.0108  0.0104 -0.2750
  795BOLB   PO119058  27.540  37.582  24.111 -0.2214 -0.0892 -0.0830
  795BOLB   GL119059  27.367  37.953  24.381 -0.1245 -0.0892  0.3282
  795BOLB   GL219060  27.236  38.197  24.184  0.1434  0.0514  0.0706
  795BOLB   C1A19061  27.305  38.043  24.817 -0.0549 -0.0498  0.0017
  795BOLB   C2A19062  27.100  38.329  25.069  0.3583 -0.2238  0.0155
  795BOLB   C3A19063  27.144  38.815  25.207  0.0427  0.0372  0.0060
  795BOLB   C4A19064  27.083  39.230  25.310  0.1325  0.1686  0.1359
  795BOLB   C1B19065  26.913  38.620  24.178  0.1117  0.0896  0.0840
  795BOLB   C2B19066  27.199  38.944  24.221 -0.0052 -0.0518 -0.0442
  795BOLB   C3B19067  27.246  39.305  24.157  0.1831 -0.1478 -0.0196
  795BOLB   C4B19068  27.660  39.608  24.150  0.2188 -0.1015 -0.2791
  795BOLB   NC219069  26.606  40.986   0.055  0.2806  0.2189 -0.3651
  795BOLB   PO219070  26.289  41.100  26.576 -0.0997 -0.1078 -0.2340
  795BOLB   GL319071  26.223  40.770  26.355 -0.1613  0.1974 -0.3737
  795BOLB   GL419072  26.127  40.677  26.026 -0.1946 -0.0309 -0.0933
  795BOLB   C1C19073  26.210  40.334  26.367  0.0533  0.0261 -0.0099
  795BOLB   C2C19074  26.472  40.056  25.983 -0.1596  0.3555 -0.1531
  795BOLB   C3C19075  26.820  39.826  25.704  0.0360 -0.1406  0.1882
  795BOLB   C4C19076  26.870  39.590  25.421 -0.1572 -0.0322  0.0116
  795BOLB   C1D19077  26.396  40.416  25.638 -0.1387  0.0306  0.1317
  795BOLB   C2D19078  26.517  40.012  25.359  0.0254 -0.0924 -0.1595
  795BOLB   C3D19079  26.462  39.745  25.081 -0.1402  0.1366  0.1317
  795BOLB   C4D19080  26.718  39.361  24.944  0.2327 -0.2332  0.2853
  796BOLB   NC119081  22.377  31.160   1.383  0.1610  0.0362  0.1120
  796BOLB   PO119082  22.708  31.302   1.588 -0.1455 -0.2893  0.0632
  796BOLB   GL119083  22.656  31.293   1.922  0.0726 -0.2175 -0.0447
  796BOLB   GL219084  22.674  31.469   2.149  0.0202 -0.2087  0.2919
  796BOLB   C1A19085  22.271  31.292   2.287  0.3429  0.0312 -0.1184
  796BOLB   C2A19086  21.857  31.292   2.501  0.2686  0.2457  0.1749
  796BOLB   C3A19087  21.473  31.345   2.785 -0.5388  0.0918  0.0009
  796BOLB   C4A19088  21.163  31.612   2.856 -0.0079 -0.2515 -0.0372
  796BOLB   C1B19089  22.608  31.426   2.582  0.1016  0.0411 -0.3254
  796BOLB   C2B19090  22.508  31.651   2.997  0.0158 -0.1185  0.0257
  796BOLB   C3B19091  22.187  31.664   3.352 -0.3766 -0.0227 -0.0655
  796BOLB   C4B19092  22.133  31.840   3.773 -0.1158 -0.1255 -0.0950
  796BOLB   NC219093  21.353  33.410   4.975  0.1701  0.4232  0.0975
  796BOLB   PO219094  21.079  33.071   4.863  0.0678  0.0846 -0.0032
  796BOLB   GL319095  21.093  32.865   4.584 -0.1148  0.0587 -0.1686
  796BOLB   GL419096  20.978  32.416   4.554  0.0949 -0.2512  0.1838
  796BOLB   C1C19097  21.069  32.726   4.140  0.0106  0.0991  0.1884
  796BOLB   C2C19098  21.119  32.384   3.829 -0.1699  0.1486 -0.0734
  796BOLB   C3C19099  20.933  31.918   3.645  0.2276 -0.3518  0.2382
  796BOLB   C4C19100  21.130  31.806   3.215  0.2736 -0.0865 -0.0270
  796BOLB   C1D19101  21.361  32.368   4.390  0.1981 -0.0274  0.0956
  796BOLB   C2D19102  21.622  32.528   4.097 -0.1082 -0.4181  0.1110
  796BOLB   C3D19103  21.851  32.258   3.746 -0.0564  0.1703  0.0133
  796BOLB   C4D19104  22.202  32.521   3.491 -0.2078 -0.2802  0.1375
  797BOLB   NC119105  20.017  31.494  24.109 -0.2380  0.0378 -0.2719
  797BOLB   PO119106  20.458  31.725  24.309 -0.2004 -0.0285 -0.2527
  797BOLB   GL119107  20.025  31.972  24.147 -0.1669  0.0851 -0.0189
  797BOLB   GL219108  19.898  31.845  24.489 -0.0221  0.1661 -0.0878
  797BOLB   C1A19109  19.671  32.245  24.216  0.1425  0.2275  0.0861
  797BOLB   C2A19110  19.384  32.605  24.044  0.1384  0.0628 -0.3166
  797BOLB   C3A19111  19.009  32.861  24.110  0.1175 -0.0960 -0.2653
  797BOLB   C4A19112  18.488  32.901  24.003  0.0378  0.2003  0.1742
  797BOLB   C1B19113  19.429  32.012  24.615 -0.3453 -0.0269  0.0178
  797BOLB   C2B19114  19.203  32.307  24.469 -0.3245  0.2260 -0.2536
  797BOLB   C3B19115  18.935  32.616  24.594 -0.2303  0.2853  0.0157
  797BOLB   C4B19116  18.561  32.866  24.605  0.0889 -0.2199  0.0537
  797BOLB   NC219117  15.925  32.567  24.308  0.0317 -0.1567 -0.1215
  797BOLB   PO219118  16.144  33.005  24.273 -0.1194  0.1506  0.1124
  797BOLB   GL319119  16.405  32.636  24.523  0.2010  0.0803 -0.2411
  797BOLB   GL419120  16.520  32.388  24.252 -0.0207  0.2530  0.0951
  797BOLB   C1C19121  16.860  32.502  24.696  0.0240 -0.1710 -0.0951
  797BOLB   C2C19122  17.270  32.581  24.516  0.1498 -0.0324 -0.1528
  797BOLB   C3C19123  17.566  32.646  24.195  0.0880 -0.2430  0.2220
  797BOLB   C4C19124  18.002  32.926  24.149  0.1844 -0.2513 -0.0132
  797BOLB   C1D19125  16.795  32.104  24.179  0.2445  0.3851  0.1977
  797BOLB   C2D19126  17.187  32.120  24.254  0.0205  0.1266  0.2288
  797BOLB   C3D19127  17.637  32.112  24.297  0.3375  0.1711 -0.0244
  797BOLB   C4D19128  17.680  31.666  24.165 -0.0044  0.0524  0.0651
  798BOLB   NC119129  22.396  32.230  15.844 -0.1078  0.4759  0.3262
  798BOLB   PO119130  22.523  32.035  15.485  0.1741  0.1123 -0.1378
  798BOLB   GL119131  22.373  32.250  15.301 -0.1104  0.1222 -0.1020
  798BOLB   GL219132  22.597  32.326  15.030 -0.1634  0.2342 -0.1414
  798BOLB   C1A19133  22.191  32.662  15.126  0.1381  0.0066 -0.0751
  798BOLB   C2A19134  21.861  32.713  14.904 -0.0899 -0.4111  0.1318
  798BOLB   C3A19135  21.831  32.702  14.480 -0.2224 -0.2206 -0.0919
  798BOLB   C4A19136  21.734  32.520  14.085 -0.2499 -0.3127  0.0746
  798BOLB   C1B19137  22.269  32.386  14.737 -0.2821  0.0823  0.1715
  798BOLB   C2B19138  22.058  32.290  14.399  0.0304  0.1174  0.1300
  798BOLB   C3B19139  21.949  32.076  14.092  0.1733  0.2519 -0.0501
  798BOLB   C4B19140  21.886  32.074  13.681 -0.1676  0.0339 -0.2819
  798BOLB   NC219141  21.096  32.860  11.592 -0.1286  0.0895 -0.2704
  798BOLB   PO219142  20.842  33.206  11.825  0.0637  0.0096 -0.3035
  798BOLB   GL319143  20.994  33.212  12.260 -0.0749 -0.0260  0.1383
  798BOLB   GL419144  20.972  32.889  12.192  0.0342 -0.0441 -0.0221
  798BOLB   C1C19145  21.126  32.874  12.648  0.1268 -0.1345  0.0070
  798BOLB   C2C19146  21.432  32.614  12.874  0.3127  0.1420  0.1262
  798BOLB   C3C19147  21.424  32.600  13.335  0.0465 -0.1324 -0.4117
  798BOLB   C4C19148  21.595  32.514  13.800 -0.0164 -0.1152  0.1463
  798BOLB   C1D19149  21.435  33.003  12.233  0.1874 -0.0265  0.0117
  798BOLB   C2D19150  21.636  32.970  12.590  0.0820  0.1615  0.1937
  798BOLB   C3D19151  21.848  32.730  13.027 -0.1300  0.2158 -0.2062
  798BOLB   C4D19152  21.881  32.424  13.333 -0.3144  0.0527  0.0924
  799BOLB   NC119153  28.938  22.467  19.862 -0.1115 -0.0809 -0.0484
  799BOLB   PO119154  29.018  22.041  19.748 -0.1397  0.1290  0.1454
  799BOLB   GL119155  29.181  21.663  19.567  0.1461 -0.1641  0.3555
  799BOLB   GL219156  29.241  21.380  19.691  0.4289  0.2372  0.1967
  799BOLB   C1A19157  29.513  21.405  19.262 -0.3749 -0.0439 -0.1616
  799BOLB   C2A19158  29.728  21.054  19.087  0.0631 -0.1183  0.2726
  799BOLB   C3A19159  30.035  20.784  18.889  0.1951 -0.2165  0.2363
  799BOLB   C4A19160  30.132  20.352  18.657  0.2174 -0.1640  0.4271
  799BOLB   C1B19161  29.507  20.977  19.554  0.0470 -0.0498  0.0544
  799BOLB   C2B19162  29.448  20.594  19.249  0.2449  0.0054  0.1011
  799BOLB   C3B19163  29.420  20.383  18.984 -0.0544  0.1256  0.4239
  799BOLB   C4B19164  29.366  20.069  18.619 -0.3598  0.1689  0.0166
  799BOLB   NC219165  29.848  17.880  18.553 -0.1631 -0.2450 -0.1312
  799BOLB   PO219166  29.542  17.982  18.293  0.0080  0.1233  0.1927
  799BOLB   GL319167  29.488  18.387  18.476  0.0352  0.2110  0.1718
  799BOLB   GL419168  29.408  18.622  18.211 -0.1736 -0.1500  0.1566
  799BOLB   C1C19169  29.327  18.911  18.638  0.1856  0.0415  0.1195
  799BOLB   C2C19170  29.460  19.303  18.570  0.2020 -0.0520 -0.4787
  799BOLB   C3C19171  29.712  19.662  18.343  0.1269  0.3942  0.0007
  799BOLB   C4C19172  30.101  19.872  18.608  0.2508  0.0380 -0.2147
  799BOLB   C1D19173  29.391  19.008  18.149  0.0204 -0.1339 -0.2235
  799BOLB   C2D19174  29.013  19.253  18.172 -0.1710 -0.2258  0.3966
  799BOLB   C3D19175  29.161  19.742  18.164  0.1026  0.0262  0.0853
  799BOLB   C4D19176  29.204  20.181  18.095  0.0389 -0.0393 -0.1221
  800BOLB   NC119177  35.141  26.803  23.974 -0.3112 -0.0188 -0.2199
  800BOLB   PO119178  35.006  26.995  24.418  0.2421 -0.2349 -0.1682
  800BOLB   GL119179  35.408  26.861  24.418  0.1467 -0.1660 -0.1155
  800BOLB   GL219180  35.728  26.972  24.221 -0.0383 -0.2580 -0.0225
  800BOLB   C1A19181  35.724  26.623  24.564 -0.0948 -0.2960 -0.1126
  800BOLB   C2A19182  36.108  26.490  24.719 -0.1970  0.2722 -0.1522
  800BOLB   C3A19183  36.410  26.288  24.877 -0.2150 -0.2347  0.3502
  800BOLB   C4A19184  36.951  26.153  24.883  0.0458 -0.1300 -0.0580
  800BOLB   C1B19185  36.075  26.711  24.170  0.1086  0.2974 -0.3042
  800BOLB   C2B19186  36.516  26.668  24.118 -0.0285 -0.1311 -0.0225
  800BOLB   C3B19187  36.910  26.436  24.107 -0.2690 -0.0551 -0.0374
  800BOLB   C4B19188  37.126  25.985  23.872  0.2830  0.1605  0.2656
  800BOLB   NC219189  39.304  25.924  24.397  0.1731 -0.2247 -0.0807
  800BOLB   PO219190  39.193  25.552  24.531  0.0338  0.2908 -0.0304
  800BOLB   GL319191  38.779  25.548  24.415 -0.0453  0.2354  0.1100
  800BOLB   GL419192  38.773  25.789  24.277 -0.3117 -0.0684 -0.0474
  800BOLB   C1C19193  38.264  25.518  24.311  0.0249 -0.3090 -0.0796
  800BOLB   C2C19194  37.889  25.449  24.524 -0.3270 -0.0809  0.0601
  800BOLB   C3C19195  37.578  25.474  24.747  0.0369 -0.2456  0.2127
  800BOLB   C4C19196  37.185  25.740  24.875 -0.2458 -0.1026  0.2523
  800BOLB   C1D19197  38.410  25.887  24.596  0.0106  0.0322  0.0018
  800BOLB   C2D19198  38.066  25.853  24.875  0.1613 -0.0655  0.2334
  800BOLB   C3D19199  37.754  25.845  25.267 -0.3271  0.0951 -0.0094
  800BOLB   C4D19200  37.520  26.057  25.520  0.0842 -0.1642 -0.2902
  801BOLB   NC119201  25.749  37.010  17.634 -0.1571 -0.1385  0.1241
  801BOLB   PO119202  25.697  36.807  17.270  0.0651  0.2083  0.3693
  801BOLB   GL119203  25.735  37.235  17.125  0.1575  0.0801 -0.2309
  801BOLB   GL219204  25.484  37.298  17.316  0.0058  0.0520 -0.3236
  801BOLB   C1A19205  25.694  37.744  16.998 -0.0280  0.2690 -0.1006
  801BOLB   C2A19206  25.870  38.144  16.897 -0.4176 -0.0386 -0.1799
  801BOLB   C3A19207  26.146  38.381  17.013  0.0978 -0.0082 -0.1153
  801BOLB   C4A19208  26.280  38.763  16.964  0.1514  0.1376  0.0280
  801BOLB   C1B19209  25.266  37.706  17.256 -0.1086 -0.2412 -0.0032
  801BOLB   C2B19210  25.081  38.045  17.323  0.1300 -0.2841 -0.2247
  801BOLB   C3B19211  24.856  38.406  17.154  0.1268  0.0255 -0.0240
  801BOLB   C4B19212  24.763  38.672  17.329  0.4572  0.0230 -0.0504
  801BOLB   NC219213  24.939  40.399  15.554 -0.1661 -0.0154  0.0712
  801BOLB   PO219214  24.940  40.445  16.059  0.0811 -0.0755  0.2893
  801BOLB   GL319215  25.236  40.092  16.292 -0.0891  0.4085  0.0609
  801BOLB   GL419216  25.043  39.842  16.428  0.0110 -0.1598  0.1013
  801BOLB   C1C19217  25.552  39.739  16.477 -0.1313  0.3147  0.0875
  801BOLB   C2C19218  25.939  39.506  16.427 -0.0489 -0.0160 -0.1858
  801BOLB   C3C19219  26.259  39.176  16.354 -0.2967  0.1541  0.1732
  801BOLB   C4C19220  26.361  38.895  16.588 -0.1433  0.2949  0.1196
  801BOLB   C1D19221  24.810  39.397  16.438 -0.0635  0.0626  0.0782
  801BOLB   C2D19222  24.963  38.977  16.582  0.2262 -0.1325 -0.0131
  801BOLB   C3D19223  25.232  38.707  16.806 -0.0257 -0.2711  0.0697
  801BOLB   C4D19224  25.698  38.586  16.744  0.2593  0.1644  0.2245
  802BOLB   NC119225  13.288  25.871  24.808  0.2871  0.1454  0.3886
  802BOLB   PO119226  13.435  25.561  24.494 -0.1330 -0.2253  0.0402
  802BOLB   GL119227  13.845  25.352  24.464 -0.0294  0.0927 -0.1466
  802BOLB   GL219228  13.938  25.519  24.698  0.1139 -0.1722  0.1637
  802BOLB   C1A19229  14.149  25.213  24.220 -0.0451  0.3331  0.1077
  802BOLB   C2A19230  14.405  25.045  23.976 -0.2545 -0.3004 -0.0229
  802BOLB   C3A19231  14.412  25.232  23.519  0.1555  0.0464 -0.1564
  802BOLB   C4A19232  14.729  25.163  23.274 -0.1802  0.2749  0.6742
  802BOLB   C1B19233  14.282  25.785  24.568  0.1361  0.2666 -0.0948
  802BOLB   C2B19234  14.530  26.034  24.734  0.0663 -0.0977 -0.1557
  802BOLB   C3B19235  14.516  26.495  24.605 -0.3138 -0.0931 -0.0074
  802BOLB   C4B19236  14.542  26.972  24.629  0.0466 -0.2006  0.1267
  802BOLB   NC219237  13.454  23.696  22.586  0.1013  0.1049  0.0870
  802BOLB   PO219238  13.776  23.512  22.338 -0.3396 -0.2904 -0.0987
  802BOLB   GL319239  13.909  23.829  22.603 -0.0658  0.2505 -0.0677
  802BOLB   GL419240  14.250  23.710  22.606  0.3077  0.1414  0.2087
  802BOLB   C1C19241  14.210  24.182  22.539 -0.2163  0.0961 -0.5353
  802BOLB   C2C19242  14.587  24.415  22.418  0.0854  0.1915  0.1893
  802BOLB   C3C19243  14.825  24.769  22.622 -0.0175  0.1489 -0.2357
  802BOLB   C4C19244  14.945  25.030  22.926 -0.1091 -0.1929  0.1730
  802BOLB   C1D19245  14.648  23.954  22.591 -0.0242 -0.2947 -0.1608
  802BOLB   C2D19246  14.978  24.282  22.727  0.0415 -0.0036 -0.0692
  802BOLB   C3D19247  15.232  24.654  22.840  0.1078  0.3095  0.0514
  802BOLB   C4D19248  15.329  25.086  22.611 -0.0244  0.1617  0.1884
  803BOLB   NC119249  30.967  22.089  20.680  0.2068  0.1626 -0.1614
  803BOLB   PO119250  30.879  21.893  21.059 -0.0172 -0.2041 -0.0709
  803BOLB   GL119251  31.074  21.660  21.277 -0.1784 -0.1145 -0.1250
  803BOLB   GL219252  31.184  21.783  21.521  0.1512  0.2841  0.5136
  803BOLB   C1A19253  31.354  21.242  21.258  0.0136  0.2951 -0.1508
  803BOLB   C2A19254  31.592  20.826  21.134  0.1956  0.0508  0.5526
  803BOLB   C3A19255  31.622  20.491  20.831  0.0927  0.2413 -0.1386
  803BOLB   C4A19256  31.340  20.116  20.791  0.0668  0.1482  0.0024
  803BOLB   C1B19257  31.560  21.481  21.626 -0.2002 -0.0121  0.1328
  803BOLB   C2B19258  31.833  21.130  21.529  0.0432  0.2012 -0.0379
  803BOLB   C3B19259  32.346  21.110  21.604  0.5440  0.3425  0.0617
  803BOLB   C4B19260  32.675  21.229  21.694 -0.0548  0.2172 -0.0545
  803BOLB   NC219261  32.547  17.813  20.285 -0.0968  0.0327 -0.2705
  803BOLB   PO219262  32.624  18.295  20.182 -0.1818  0.0897 -0.1954
  803BOLB   GL319263  32.485  18.589  20.364 -0.2132  0.2253  0.1967
  803BOLB   GL419264  32.594  18.922  20.179  0.1170  0.0930 -0.1207
  803BOLB   C1C19265  32.095  18.730  20.514 -0.1767  0.0100 -0.0682
  803BOLB   C2C19266  31.835  19.040  20.646 -0.1292  0.2803 -0.0140
  803BOLB   C3C19267  31.595  19.460  20.573  0.0406  0.3855 -0.2352
  803BOLB   C4C19268  31.210  19.691  20.748  0.1153 -0.0591 -0.1365
  803BOLB   C1D19269  32.170  19.136  20.241 -0.2700 -0.1796 -0.3538
  803BOLB   C2D19270  31.914  19.521  20.223 -0.0912  0.2330  0.4340
  803BOLB   C3D19271  31.878  19.869  20.536  0.4021  0.0204  0.0048
  803BOLB   C4D19272  32.014  20.278  20.499  0.0010  0.0665 -0.0305
  804BOLB   NC119273  25.124  33.833   2.011 -0.2832 -0.0221 -0.0191
  804BOLB   PO119274  24.797  33.796   1.911 -0.1075 -0.2972  0.0959
  804BOLB   GL119275  24.673  33.877   2.325 -0.2022 -0.2863 -0.1511
  804BOLB   GL219276  24.972  33.848   2.478 -0.2060 -0.0704  0.0377
  804BOLB   C1A19277  24.575  33.998   2.657  0.0242  0.1221  0.1944
  804BOLB   C2A19278  24.411  34.167   2.906 -0.0210  0.0934  0.0513
  804BOLB   C3A19279  24.198  34.561   2.938 -0.2046  0.3222  0.2121
  804BOLB   C4A19280  23.977  34.952   3.163  0.1174 -0.3658  0.1189
  804BOLB   C1B19281  25.037  34.113   2.793  0.4049  0.1657 -0.0966
  804BOLB   C2B19282  25.424  34.174   3.101 -0.0675 -0.3511  0.0667
  804BOLB   C3B19283  25.475  34.191   3.659 -0.0200  0.2256 -0.0860
  804BOLB   C4B19284  25.283  34.066   3.985  0.2107  0.1499 -0.0720
  804BOLB   NC219285  24.156  36.358   5.013  0.5114 -0.1958 -0.1953
  804BOLB   PO219286  24.362  36.094   5.300  0.0166 -0.0960  0.0339
  804BOLB   GL319287  24.509  36.046   4.866  0.0714  0.0731  0.0306
  804BOLB   GL419288  24.488  36.290   4.659  0.0599  0.1503 -0.1730
  804BOLB   C1C19289  24.427  35.838   4.507  0.0257  0.1371  0.1517
  804BOLB   C2C19290  24.193  35.737   4.138 -0.1127  0.1666  0.3030
  804BOLB   C3C19291  24.120  35.591   3.759 -0.2955  0.0977 -0.1993
  804BOLB   C4C19292  24.031  35.266   3.459 -0.0080  0.0338 -0.0582
  804BOLB   C1D19293  24.404  36.273   4.249 -0.0149 -0.1925 -0.2282
  804BOLB   C2D19294  24.543  35.967   3.875  0.0205  0.2344 -0.0735
  804BOLB   C3D19295  24.763  35.800   3.664  0.1208 -0.1939  0.0598
  804BOLB   C4D19296  24.988  35.506   3.445  0.0274  0.0365  0.3086
  805BOLB   NC119297  21.426  33.553  24.714 -0.1583  0.0099  0.0596
  805BOLB   PO119298  21.077  33.288  24.970 -0.1684 -0.0019  0.1961
  805BOLB   GL119299  20.613  33.386  25.061  0.2723  0.0434  0.0429
  805BOLB   GL219300  20.418  33.386  24.874 -0.0734  0.3111 -0.0459
  805BOLB   C1A19301  20.429  33.892  24.889 -0.0574 -0.3555  0.1978
  805BOLB   C2A19302  20.170  34.200  25.042 -0.2533 -0.0121  0.1327
  805BOLB   C3A19303  19.955  34.590  25.024  0.3386 -0.0482  0.0757
  805BOLB   C4A19304  19.788  34.922  25.301 -0.1562  0.1245 -0.1194
  805BOLB   C1B19305  19.956  33.600  24.896 -0.0769  0.0779 -0.0661
  805BOLB   C2B19306  19.817  33.961  24.780 -0.3083  0.0636 -0.2796
  805BOLB   C3B19307  19.457  34.247  24.818  0.3303  0.1089  0.0254
  805BOLB   C4B19308  19.072  34.099  24.662  0.1812 -0.1049 -0.0615
  805BOLB   NC219309  18.148  36.570  26.438 -0.2120 -0.3751  0.0604
  805BOLB   PO219310  18.161  36.119  26.488 -0.1268  0.2245  0.0713
  805BOLB   GL319311  18.515  35.892  26.432 -0.1867  0.0781  0.0308
  805BOLB   GL419312  18.724  35.862  26.721  0.4569  0.1064  0.0973
  805BOLB   C1C19313  18.797  35.478  26.399  0.2180 -0.1268 -0.2724
  805BOLB   C2C19314  19.143  35.219  26.331  0.1360  0.1783  0.2450
  805BOLB   C3C19315  19.502  35.118  26.127 -0.5329  0.2885 -0.2163
  805BOLB   C4C19316  19.705  35.015  25.642  0.0741 -0.0868 -0.1067
  805BOLB   C1D19317  19.122  35.784  26.559  0.2536 -0.2741  0.2853
  805BOLB   C2D19318  19.553  35.603  26.365  0.2244 -0.1209  0.0910
  805BOLB   C3D19319  20.009  35.487  26.349  0.2685  0.0382  0.2894
  805BOLB   C4D19320  20.475  35.335  26.284  0.1902 -0.1090 -0.2389
  806BOLB   NC119321  26.550  32.690   2.920  0.3233  0.0238  0.0574
  806BOLB   PO119322  26.956  32.618   2.732  0.1829  0.2673 -0.1381
  806BOLB   GL119323  26.945  32.698   3.199 -0.1238 -0.0123 -0.1607
  806BOLB   GL219324  26.966  33.002   3.285  0.1364  0.3025  0.0838
  806BOLB   C1A19325  26.965  32.559   3.681 -0.1308 -0.1511  0.0137
  806BOLB   C2A19326  26.847  32.330   4.022 -0.0044 -0.6227 -0.4461
  806BOLB   C3A19327  26.679  32.050   4.291 -0.1796  0.3240  0.0242
  806BOLB   C4A19328  26.405  32.000   4.660 -0.0331 -0.1841  0.2150
  806BOLB   C1B19329  27.057  33.044   3.747  0.2265 -0.2557  0.2111
  806BOLB   C2B19330  27.143  33.150   4.175 -0.4642 -0.2185 -0.3712
  806BOLB   C3B19331  27.544  33.233   4.341  0.0688 -0.1093 -0.4045
  806BOLB   C4B19332  27.925  33.233   4.584  0.0385  0.0422  0.3622
  806BOLB   NC219333  25.478  32.703   6.756  0.0561  0.1680 -0.3199
  806BOLB   PO219334  25.618  33.093   6.943 -0.0461  0.0860  0.1311
  806BOLB   GL319335  25.713  33.035   6.484  0.1867  0.1192 -0.0736
  806BOLB   GL419336  25.424  33.079   6.236  0.0783  0.2289  0.1387
  806BOLB   C1C19337  25.945  32.876   6.012  0.3730  0.0852  0.1108
  806BOLB   C2C19338  26.014  32.599   5.742  0.1964  0.0907  0.2014
  806BOLB   C3C19339  26.169  32.358   5.458  0.5106 -0.5063 -0.5422
  806BOLB   C4C19340  26.259  32.065   5.068  0.1385 -0.1487 -0.0355
  806BOLB   C1D19341  25.612  33.170   5.811 -0.3264  0.5989 -0.1398
  806BOLB   C2D19342  25.572  33.259   5.341 -0.2073  0.0686  0.0842
  806BOLB   C3D19343  25.790  33.407   4.965  0.0569  0.2981 -0.0627
  806BOLB   C4D19344  25.843  33.281   4.478  0.2065 -0.1455  0.2029
  807BOLB   NC119345  32.078  31.626   2.026 -0.0645  0.0206 -0.1887
  807BOLB   PO119346  32.325  31.337   1.991 -0.5891 -0.0049 -0.1976
  807BOLB   GL119347  32.465  31.384   2.344  0.0995  0.2622  0.0812
  807BOLB   GL219348  32.268  31.595   2.503  0.3210  0.0635  0.2199
  807BOLB   C1A19349  32.812  31.556   2.589 -0.3903  0.1304  0.1565
  807BOLB   C2A19350  33.059  31.936   2.760 -0.1420  0.1573  0.1619
  807BOLB   C3A19351  32.967  32.281   2.818  0.0971 -0.2014 -0.3580
  807BOLB   C4A19352  33.303  32.655   2.988  0.0299 -0.0357 -0.2525
  807BOLB   C1B19353  32.438  31.657   2.895 -0.2159  0.1270 -0.0140
  807BOLB   C2B19354  32.770  31.703   3.104  0.1982 -0.0080  0.0877
  807BOLB   C3B19355  32.875  31.968   3.302  0.0792 -0.1684  0.0294
  807BOLB   C4B19356  33.283  32.117   3.178  0.3524 -0.0217  0.1549
  807BOLB   NC219357  34.073  34.555   4.400 -0.1265  0.2858  0.0771
  807BOLB   PO219358  34.432  34.255   4.440 -0.2991  0.1722  0.0078
  807BOLB   GL319359  34.155  34.105   4.060  0.0310  0.0504  0.0448
  807BOLB   GL419360  34.416  34.072   3.843 -0.0843  0.0937  0.1462
  807BOLB   C1C19361  33.821  33.871   3.919 -0.1242  0.2151 -0.0924
  807BOLB   C2C19362  33.567  33.692   3.655  0.0993 -0.1011  0.1040
  807BOLB   C3C19363  33.670  33.483   3.253 -0.0719 -0.1781 -0.0736
  807BOLB   C4C19364  33.572  33.035   3.077  0.2756  0.1566 -0.2138
  807BOLB   C1D19365  34.265  33.883   3.544 -0.1421 -0.0553  0.5803
  807BOLB   C2D19366  34.304  33.500   3.281  0.0716 -0.0137  0.0555
  807BOLB   C3D19367  34.097  33.178   2.988 -0.1238  0.0701 -0.1527
  807BOLB   C4D19368  33.985  33.082   2.560  0.0982  0.2202 -0.1124
  808BOLB   NC119369  21.218  25.854   8.773 -0.4255 -0.0263  0.2302
  808BOLB   PO119370  21.319  25.758   8.324 -0.1012 -0.2109  0.1200
  808BOLB   GL119371  21.387  25.714   7.819  0.1831  0.2643 -0.0014
  808BOLB   GL219372  21.334  25.438   7.579 -0.2557  0.2891 -0.1506
  808BOLB   C1A19373  21.755  25.716   7.411 -0.2276 -0.1085  0.0012
  808BOLB   C2A19374  22.121  25.581   7.329 -0.2450  0.2041  0.0985
  808BOLB   C3A19375  22.578  25.614   7.202 -0.0590 -0.0846 -0.0365
  808BOLB   C4A19376  22.988  25.564   7.223 -0.0704  0.1974  0.2936
  808BOLB   C1B19377  21.443  25.347   7.117 -0.1953 -0.1377 -0.3918
  808BOLB   C2B19378  21.827  25.135   7.063 -0.0115 -0.1388  0.0570
  808BOLB   C3B19379  22.285  25.182   7.055 -0.1571 -0.1234  0.1190
  808BOLB   C4B19380  22.712  25.089   6.924  0.0586 -0.0192 -0.3689
  808BOLB   NC219381  24.021  26.933   9.124  0.0969  0.0733  0.0979
  808BOLB   PO219382  23.736  26.858   8.794 -0.0411  0.0772 -0.3117
  808BOLB   GL319383  23.724  26.690   8.447 -0.0861  0.0767  0.0073
  808BOLB   GL419384  24.017  26.722   8.293  0.2982  0.0904  0.1262
  808BOLB   C1C19385  23.471  26.377   8.293  0.2711  0.4529 -0.2638
  808BOLB   C2C19386  23.602  26.045   8.134  0.0885 -0.4025  0.4708
  808BOLB   C3C19387  23.503  25.828   7.793 -0.1112  0.1208 -0.1116
  808BOLB   C4C19388  23.246  25.867   7.394  0.0388  0.3193  0.4021
  808BOLB   C1D19389  23.700  26.592   7.938  0.0452 -0.1449 -0.0373
  808BOLB   C2D19390  23.593  26.710   7.489  0.0774  0.1822  0.2899
  808BOLB   C3D19391  23.321  26.699   7.183 -0.0650 -0.1061  0.1266
  808BOLB   C4D19392  23.011  26.775   6.961  0.4958  0.2440  0.1019
  809BOLB   NC119393  31.589  24.424  26.069  0.3919 -0.0487  0.1217
  809BOLB   PO119394  31.502  24.289  26.494  0.2053  0.3310 -0.0294
  809BOLB   GL119395  31.421  23.891  26.655 -0.4238 -0.1013  0.2145
  809BOLB   GL219396  31.732  23.707  26.640  0.5838 -0.2866  0.3459
  809BOLB   C1A19397  31.329  23.717   0.158 -0.0141  0.1622  0.3338
  809BOLB   C2A19398  31.394  23.391   0.501 -0.0319  0.0606 -0.1294
  809BOLB   C3A19399  31.800  23.257   0.644 -0.0464  0.1440 -0.0912
  809BOLB   C4A19400  32.089  22.885   0.644  0.4583 -0.0530 -0.0453
  809BOLB   C1B19401  31.649  23.358   0.012 -0.3810  0.1469  0.5158
  809BOLB   C2B19402  31.901  23.039   0.197  0.1921 -0.0749  0.0156
  809BOLB   C3B19403  32.126  22.604   0.162 -0.1110  0.0317  0.2600
  809BOLB   C4B19404  32.146  22.216   0.081  0.0708  0.0454  0.0936
  809BOLB   NC219405  34.153  21.603   2.054 -0.0030 -0.0559  0.1014
  809BOLB   PO219406  34.020  22.034   1.940 -0.1385 -0.0267 -0.0120
  809BOLB   GL319407  33.685  22.009   1.642  0.1459  0.2665 -0.1597
  809BOLB   GL419408  33.585  21.765   1.593  0.0657  0.0946  0.1863
  809BOLB   C1C19409  33.501  22.216   1.207  0.1108 -0.0471 -0.2149
  809BOLB   C2C19410  33.224  22.464   0.878  0.0021 -0.2403 -0.0327
  809BOLB   C3C19411  32.896  22.721   0.667 -0.0053 -0.1120  0.3765
  809BOLB   C4C19412  32.459  22.877   0.464 -0.2432  0.1406  0.1011
  809BOLB   C1D19413  33.274  21.788   1.204 -0.1465 -0.2448  0.0861
  809BOLB   C2D19414  32.958  21.987   1.014 -0.2890 -0.0959 -0.2096
  809BOLB   C3D19415  32.743  22.179   0.666 -0.0922 -0.1270  0.0405
  809BOLB   C4D19416  32.307  22.318   0.539 -0.1666  0.3442  0.3270
  810BOLB   NC119417  32.678  33.179  15.772 -0.0342  0.1351  0.0160
  810BOLB   PO119418  33.100  33.070  15.882 -0.0078 -0.1237 -0.1863
  810BOLB   GL119419  33.175  33.275  15.463  0.2031 -0.2292  0.0769
  810BOLB   GL219420  33.447  33.315  15.589  0.0502  0.1496  0.2071
  810BOLB   C1A19421  33.206  33.468  15.161  0.1467  0.0285 -0.1278
  810BOLB   C2A19422  33.325  33.697  14.854  0.1104 -0.0126  0.0430
  810BOLB   C3A19423  33.506  33.919  14.483  0.0117  0.1939  0.2211
  810BOLB   C4A19424  33.571  34.152  14.082 -0.1402 -0.0412  0.0968
  810BOLB   C1B19425  33.652  33.647  15.325  0.0067  0.1147 -0.0634
  810BOLB   C2B19426  33.870  33.889  14.854 -0.1483 -0.1559 -0.0918
  810BOLB   C3B19427  34.073  33.575  14.580  0.2944  0.1014  0.3166
  810BOLB   C4B19428  34.291  33.495  14.341  0.0449 -0.0416 -0.0030
  810BOLB   NC219429  34.855  36.098  13.238 -0.4645  0.0300  0.1437
  810BOLB   PO219430  34.534  36.243  12.990 -0.0928 -0.0848 -0.2076
  810BOLB   GL319431  34.290  35.866  13.140 -0.1067  0.1170  0.1929
  810BOLB   GL419432  34.572  35.717  13.391 -0.0226  0.1937 -0.0396
  810BOLB   C1C19433  34.256  35.377  13.065  0.1004 -0.2281  0.1364
  810BOLB   C2C19434  34.240  34.956  13.182 -0.0389  0.1734  0.1161
  810BOLB   C3C19435  34.123  34.649  13.511 -0.3868 -0.0918  0.3844
  810BOLB   C4C19436  33.854  34.493  13.887  0.1451  0.0224  0.1708
  810BOLB   C1D19437  34.330  36.043  13.653  0.0707 -0.0353  0.1096
  810BOLB   C2D19438  34.004  36.089  13.946 -0.0087  0.2860 -0.1345
  810BOLB   C3D19439  33.788  35.792  14.292 -0.0225 -0.0225  0.0038
  810BOLB   C4D19440  33.576  35.612  14.597  0.1338  0.0951  0.2326
  811BOLB   NC119441  29.017  37.592  21.103  0.2563  0.2015  0.1624
  811BOLB   PO119442  29.354  37.692  20.826 -0.0601  0.2881 -0.2091
  811BOLB   GL119443  29.288  38.121  20.728  0.0820  0.1626  0.1391
  811BOLB   GL219444  29.064  38.299  20.951  0.0657 -0.1579 -0.0832
  811BOLB   C1A19445  29.465  38.558  20.637  0.1782 -0.6068 -0.2033
  811BOLB   C2A19446  29.512  38.888  20.384 -0.2892  0.1279  0.0881
  811BOLB   C3A19447  29.600  39.346  20.336 -0.2386  0.0471  0.1277
  811BOLB   C4A19448  29.901  39.626  20.333  0.1607  0.1781  0.2451
  811BOLB   C1B19449  29.228  38.726  21.046 -0.1000 -0.2317  0.1508
  811BOLB   C2B19450  29.138  39.074  21.154 -0.0974 -0.0226 -0.0932
  811BOLB   C3B19451  29.241  39.484  21.261  0.0123  0.0169 -0.0809
  811BOLB   C4B19452  29.264  39.917  21.421 -0.1974 -0.0575  0.1697
  811BOLB   NC219453  28.963  42.323  20.552  0.0579 -0.1328 -0.0105
  811BOLB   PO219454  29.318  42.020  20.276 -0.1609 -0.0407 -0.0743
  811BOLB   GL319455  29.347  41.590  20.273  0.1298 -0.0846  0.2857
  811BOLB   GL419456  29.336  41.360  19.890  0.0026  0.3939  0.1083
  811BOLB   C1C19457  29.353  41.184  20.537  0.0760  0.1780  0.0889
  811BOLB   C2C19458  29.363  40.697  20.732  0.0868 -0.3046  0.1831
  811BOLB   C3C19459  29.642  40.269  20.753 -0.1819 -0.0606 -0.0929
  811BOLB   C4C19460  29.686  39.912  20.441  0.0504  0.4249  0.3540
  811BOLB   C1D19461  29.313  41.028  19.530  0.0200  0.1897 -0.1962
  811BOLB   C2D19462  28.996  40.793  19.524 -0.3266 -0.0803  0.0767
  811BOLB   C3D19463  28.985  40.316  19.497 -0.2061 -0.4213  0.1823
  811BOLB   C4D19464  29.181  40.217  19.113  0.3297  0.1563  0.0329
  812BOLB   NC119465  33.588  35.401  19.572 -0.3178 -0.0098  0.1554
  812BOLB   PO119466  33.786  35.639  19.208  0.5452 -0.0691  0.1238
  812BOLB   GL119467  33.962  35.935  19.368  0.1499 -0.0878  0.1908
  812BOLB   GL219468  34.224  35.908  19.129 -0.1840  0.4026  0.0588
  812BOLB   C1A19469  34.249  36.215  19.492  0.0062 -0.2866  0.0909
  812BOLB   C2A19470  34.383  36.527  19.266 -0.0074 -0.0045 -0.1119
  812BOLB   C3A19471  34.486  36.987  19.117 -0.0966  0.2389  0.2759
  812BOLB   C4A19472  34.561  37.398  18.963 -0.2361  0.0966 -0.0753
  812BOLB   C1B19473  34.037  36.333  19.007  0.0748 -0.2637  0.2422
  812BOLB   C2B19474  34.232  36.647  18.829 -0.0280 -0.0847  0.3659
  812BOLB   C3B19475  34.126  36.960  18.481 -0.1286 -0.1671  0.3560
  812BOLB   C4B19476  33.854  37.130  18.227  0.2834 -0.1312  0.1030
  812BOLB   NC219477  34.728  39.293  17.827  0.0913  0.2156 -0.0890
  812BOLB   PO219478  34.830  39.594  18.221 -0.0472  0.0480  0.1744
  812BOLB   GL319479  34.918  39.089  18.315 -0.2298 -0.0986  0.0965
  812BOLB   GL419480  35.045  39.060  18.636 -0.2534 -0.0706  0.1638
  812BOLB   C1C19481  34.558  38.786  18.326  0.1871 -0.0227  0.1358
  812BOLB   C2C19482  34.324  38.488  18.520 -0.2521 -0.2515  0.2552
  812BOLB   C3C19483  34.408  38.060  18.610 -0.1340  0.2225  0.1608
  812BOLB   C4C19484  34.549  37.787  18.825  0.2339 -0.4076  0.3224
  812BOLB   C1D19485  34.979  38.581  18.615 -0.1355 -0.1461  0.3320
  812BOLB   C2D19486  34.941  38.143  18.699 -0.0795  0.1406 -0.0428
  812BOLB   C3D19487  35.023  37.680  18.819 -0.1189 -0.2952  0.2826
  812BOLB   C4D19488  35.223  37.545  19.146  0.0846 -0.0508 -0.0804
  813BOLB   NC119489  29.357  31.547   2.809  0.2837  0.1753  0.1002
  813BOLB   PO119490  29.462  32.057   2.716 -0.0048 -0.0525  0.1121
  813BOLB   GL119491  29.357  32.116   3.094  0.4091  0.2111  0.1565
  813BOLB   GL219492  29.195  31.797   3.267  0.2432  0.0082  0.0583
  813BOLB   C1A19493  29.189  32.398   3.461  0.0258  0.0319 -0.0021
  813BOLB   C2A19494  28.957  32.577   3.832  0.2699  0.1255 -0.1368
  813BOLB   C3A19495  29.040  32.689   4.201  0.1195 -0.2705 -0.2257
  813BOLB   C4A19496  28.897  33.024   4.512 -0.0288  0.0153 -0.5760
  813BOLB   C1B19497  29.145  31.843   3.629  0.0158  0.3044  0.3820
  813BOLB   C2B19498  28.943  31.622   3.953 -0.3037  0.1387 -0.0338
  813BOLB   C3B19499  28.907  31.528   4.285 -0.0946  0.0370  0.4822
  813BOLB   C4B19500  28.768  31.490   4.779  0.1765 -0.0700 -0.3283
  813BOLB   NC219501  28.346  34.686   6.480  0.3540  0.0686 -0.0459
  813BOLB   PO219502  28.410  34.287   6.480 -0.0480  0.2552 -0.2153
  813BOLB   GL319503  28.403  34.119   6.012  0.2823  0.2399  0.0063
  813BOLB   GL419504  28.183  33.857   5.958  0.2367  0.2086  0.2499
  813BOLB   C1C19505  28.631  33.911   5.843 -0.1096  0.1644  0.0996
  813BOLB   C2C19506  28.771  33.746   5.601 -0.3746 -0.1637 -0.1290
  813BOLB   C3C19507  28.760  33.636   5.186 -0.1689  0.2190 -0.1962
  813BOLB   C4C19508  28.751  33.366   4.879 -0.4041  0.0359  0.2282
  813BOLB   C1D19509  28.325  33.478   5.654  0.0690  0.2789 -0.3159
  813BOLB   C2D19510  28.500  33.123   5.486 -0.2141  0.1762  0.1395
  813BOLB   C3D19511  28.392  32.740   5.406 -0.0659 -0.3464 -0.3661
  813BOLB   C4D19512  28.147  32.411   5.473  0.1456  0.0098 -0.0210
  814BOLB   NC119513  17.319  18.796  24.394 -0.0039  0.1698  0.1413
  814BOLB   PO119514  17.548  18.534  24.035 -0.1565 -0.2902  0.4220
  814BOLB   GL119515  17.953  18.687  23.957 -0.0017  0.0805 -0.1237
  814BOLB   GL219516  17.959  18.823  23.678  0.1433 -0.1342 -0.0451
  814BOLB   C1A19517  18.414  18.899  23.846  0.0467 -0.2388  0.2455
  814BOLB   C2A19518  18.612  18.751  23.547  0.2982  0.0415 -0.0441
  814BOLB   C3A19519  19.007  18.880  23.380 -0.1357  0.2542  0.0204
  814BOLB   C4A19520  19.421  19.051  23.306  0.0849 -0.0096  0.2850
  814BOLB   C1B19521  17.909  19.220  23.614 -0.0240 -0.3013 -0.0382
  814BOLB   C2B19522  17.951  19.576  23.526  0.1299 -0.1346 -0.2228
  814BOLB   C3B19523  17.991  19.955  23.486 -0.0042  0.0691 -0.0098
  814BOLB   C4B19524  18.033  20.443  23.623 -0.3455  0.1782  0.0988
  814BOLB   NC219525  18.388  18.153  23.239 -0.1228 -0.0508  0.2277
  814BOLB   PO219526  17.939  18.042  23.082  0.0120 -0.0871  0.1970
  814BOLB   GL319527  18.135  18.198  22.764 -0.1430 -0.2777  0.0370
  814BOLB   GL419528  18.297  17.906  22.476  0.1972  0.0612  0.1042
  814BOLB   C1C19529  18.556  18.514  22.743  0.0020 -0.0302 -0.2419
  814BOLB   C2C19530  18.761  18.919  22.502  0.1936  0.4583 -0.2467
  814BOLB   C3C19531  18.952  19.263  22.690 -0.0145  0.1328  0.1495
  814BOLB   C4C19532  19.311  19.346  22.919 -0.2295 -0.0323 -0.2946
  814BOLB   C1D19533  18.520  18.123  22.168  0.2618 -0.3067  0.0948
  814BOLB   C2D19534  18.677  18.544  22.179  0.0915  0.2411  0.0983
  814BOLB   C3D19535  18.357  18.852  22.118 -0.3193 -0.1511 -0.2172
  814BOLB   C4D19536  18.174  19.170  21.938  0.4367 -0.2752 -0.1985
  815BOLB   NC119537  29.048  25.962  14.790 -0.2453  0.0978 -0.1753
  815BOLB   PO119538  28.964  26.113  14.498 -0.0857 -0.0722  0.2634
  815BOLB   GL119539  29.141  26.020  14.176 -0.0455 -0.0418 -0.0477
  815BOLB   GL219540  29.471  25.866  14.162  0.2762  0.1515  0.0505
  815BOLB   C1A19541  29.228  25.863  13.711 -0.0292 -0.0774  0.0338
  815BOLB   C2A19542  29.516  25.561  13.441  0.2941  0.1093  0.1067
  815BOLB   C3A19543  29.565  25.158  13.118  0.0019  0.1464 -0.0803
  815BOLB   C4A19544  29.540  24.998  12.728  0.0480 -0.0277 -0.0846
  815BOLB   C1B19545  29.618  25.474  13.983 -0.1462 -0.1333 -0.1624
  815BOLB   C2B19546  29.957  25.264  13.748  0.2712 -0.0215  0.0351
  815BOLB   C3B19547  30.245  25.031  13.519  0.0086 -0.0758 -0.0181
  815BOLB   C4B19548  30.423  24.861  13.159 -0.4231 -0.0294 -0.3199
  815BOLB   NC219549  29.660  23.131  11.360 -0.0930 -0.0054  0.0543
  815BOLB   PO219550  29.361  23.319  11.100 -0.2949  0.1458  0.0644
  815BOLB   GL319551  29.132  23.602  11.402  0.3542  0.1111 -0.1510
  815BOLB   GL419552  28.785  23.821  11.330 -0.2364 -0.1062  0.0510
  815BOLB   C1C19553  29.245  23.887  11.773  0.1304  0.1203  0.2930
  815BOLB   C2C19554  29.191  24.187  12.012  0.0369  0.0531  0.3051
  815BOLB   C3C19555  29.272  24.344  12.437 -0.3086 -0.1123 -0.1306
  815BOLB   C4C19556  29.414  24.646  12.578  0.1582  0.0811  0.1132
  815BOLB   C1D19557  28.762  23.929  11.735 -0.0289 -0.0565 -0.1605
  815BOLB   C2D19558  28.668  24.068  12.073 -0.0612  0.0849 -0.3399
  815BOLB   C3D19559  28.671  24.468  12.157  0.0993 -0.1023  0.0719
  815BOLB   C4D19560  28.607  24.826  11.816  0.1289  0.3825 -0.1174
  816BOLB   NC119561  30.885  34.308  15.551  0.0167  0.0946  0.0337
  816BOLB   PO119562  30.968  34.550  15.985 -0.0561 -0.3341 -0.0058
  816BOLB   GL119563  30.661  34.779  15.643  0.1502 -0.2433 -0.1719
  816BOLB   GL219564  30.667  34.847  15.332 -0.0465 -0.2122 -0.2601
  816BOLB   C1A19565  30.801  35.248  15.524 -0.1882  0.0038 -0.3114
  816BOLB   C2A19566  31.043  35.471  15.263 -0.0133  0.1206  0.0819
  816BOLB   C3A19567  31.208  35.815  14.895 -0.1385  0.0958 -0.1188
  816BOLB   C4A19568  31.080  35.928  14.458 -0.3180 -0.1247  0.2403
  816BOLB   C1B19569  30.810  35.126  14.980  0.1829 -0.0948  0.2600
  816BOLB   C2B19570  30.944  35.479  14.668 -0.2348 -0.1417 -0.1463
  816BOLB   C3B19571  31.326  35.488  14.476  0.1877  0.2076 -0.1802
  816BOLB   C4B19572  31.514  35.699  14.155  0.0890  0.0374 -0.0288
  816BOLB   NC219573  31.044  36.909  12.408  0.0025 -0.0439 -0.2786
  816BOLB   PO219574  31.243  37.080  12.726 -0.0296 -0.0372  0.0870
  816BOLB   GL319575  31.118  37.087  13.098  0.0462  0.2413 -0.0883
  816BOLB   GL419576  30.898  37.239  13.208 -0.0796 -0.1990 -0.1667
  816BOLB   C1C19577  31.304  36.882  13.418  0.0610 -0.1606  0.0750
  816BOLB   C2C19578  31.615  36.827  13.717  0.0885  0.2061  0.0777
  816BOLB   C3C19579  31.590  36.599  14.083 -0.1430 -0.1345 -0.0090
  816BOLB   C4C19580  31.448  36.212  14.269  0.2509  0.0559  0.0174
  816BOLB   C1D19581  30.953  37.140  13.630  0.1400 -0.0685  0.2673
  816BOLB   C2D19582  31.177  36.936  13.936  0.0466  0.0908 -0.0332
  816BOLB   C3D19583  31.231  36.822  14.368 -0.1021  0.0033 -0.0975
  816BOLB   C4D19584  31.196  37.077  14.798  0.1215 -0.2806 -0.2377
  817BOLB   NC119585  25.474  30.598   2.942  0.1332 -0.2557 -0.1718
  817BOLB   PO119586  25.275  30.283   2.744  0.1154 -0.5088 -0.2842
  817BOLB   GL119587  25.095  30.213   3.014  0.0807 -0.0337 -0.1401
  817BOLB   GL219588  24.820  30.422   2.966 -0.1620 -0.2230 -0.2517
  817BOLB   C1A19589  25.110  30.075   3.499  0.0963 -0.0356  0.1272
  817BOLB   C2A19590  25.221  29.973   3.958  0.0359 -0.0854  0.0833
  817BOLB   C3A19591  25.351  29.882   4.387  0.0950  0.3575 -0.1999
  817BOLB   C4A19592  25.575  29.926   4.853 -0.1665 -0.5223 -0.0983
  817BOLB   C1B19593  24.743  30.351   3.387 -0.2480 -0.0421 -0.1945
  817BOLB   C2B19594  24.694  30.202   3.756 -0.1615 -0.1015 -0.0193
  817BOLB   C3B19595  24.707  30.130   4.184  0.4050  0.0655  0.0994
  817BOLB   C4B19596  24.567  29.864   4.556  0.2076 -0.1130  0.4914
  817BOLB   NC219597  25.686  30.099   7.550 -0.0293  0.0197  0.0147
  817BOLB   PO219598  25.939  30.369   7.247  0.1438  0.0623  0.0721
  817BOLB   GL319599  26.051  30.413   6.880 -0.0052  0.2127 -0.4823
  817BOLB   GL419600  26.329  30.184   6.763  0.2386  0.3420 -0.1775
  817BOLB   C1C19601  25.973  30.317   6.407  0.3098  0.0873 -0.0508
  817BOLB   C2C19602  25.963  30.243   6.000 -0.1182 -0.0238  0.1815
  817BOLB   C3C19603  25.821  30.328   5.529 -0.0443 -0.2220 -0.1223
  817BOLB   C4C19604  25.662  30.233   5.187  0.3105  0.0568 -0.0971
  817BOLB   C1D19605  26.383  30.031   6.264 -0.0240  0.2720  0.0415
  817BOLB   C2D19606  26.215  29.838   5.925  0.1451 -0.0810  0.1311
  817BOLB   C3D19607  26.174  29.997   5.511  0.0879 -0.1359  0.2222
  817BOLB   C4D19608  26.193  30.254   5.167 -0.2152 -0.1389  0.2746
  818BOLB   NC119609  21.097  34.932  22.768  0.2540 -0.0111 -0.1930
  818BOLB   PO119610  21.086  34.464  22.589 -0.1337 -0.1282  0.3168
  818BOLB   GL119611  20.688  34.608  22.510  0.1771  0.0027 -0.1810
  818BOLB   GL219612  20.505  34.555  22.134  0.2507  0.1103 -0.1608
  818BOLB   C1A19613  20.427  34.919  22.507  0.0850  0.4041 -0.0275
  818BOLB   C2A19614  20.014  35.030  22.504 -0.0037  0.2875  0.2411
  818BOLB   C3A19615  19.614  35.080  22.679 -0.0321 -0.0709  0.2538
  818BOLB   C4A19616  19.385  35.162  23.022  0.1530 -0.0614  0.0366
  818BOLB   C1B19617  20.105  34.637  22.072 -0.0152 -0.0619  0.0065
  818BOLB   C2B19618  19.702  34.644  22.364  0.1974 -0.1776  0.0773
  818BOLB   C3B19619  19.235  34.681  22.361 -0.1540  0.0846  0.2191
  818BOLB   C4B19620  18.835  34.810  22.069  0.0988  0.0025  0.1713
  818BOLB   NC219621  16.876  35.850  22.932 -0.2394  0.1261 -0.1667
  818BOLB   PO219622  17.062  36.134  22.917 -0.0268 -0.1401 -0.1301
  818BOLB   GL319623  17.540  36.012  22.920  0.0307  0.0937 -0.1601
  818BOLB   GL419624  17.921  36.144  22.804  0.0446  0.1620 -0.0512
  818BOLB   C1C19625  17.848  35.622  22.899 -0.2558 -0.0760 -0.2849
  818BOLB   C2C19626  18.246  35.465  22.741  0.1536  0.0754 -0.0419
  818BOLB   C3C19627  18.617  35.225  22.723  0.0842  0.1186  0.2934
  818BOLB   C4C19628  18.978  35.101  22.905  0.0407 -0.0279 -0.0217
  818BOLB   C1D19629  18.284  35.900  22.638 -0.0265 -0.2691 -0.1614
  818BOLB   C2D19630  18.687  35.873  22.427  0.1866  0.4573 -0.2627
  818BOLB   C3D19631  19.102  35.972  22.572 -0.1401  0.0747 -0.3153
  818BOLB   C4D19632  19.491  36.039  22.677 -0.1630 -0.3321 -0.3446
  819BOLB   NC119633  25.227  30.782   2.492  0.1513 -0.2390  0.2344
  819BOLB   PO119634  24.996  30.903   2.915  0.0369  0.1909 -0.0070
  819BOLB   GL119635  25.017  30.822   3.318  0.1240  0.1729 -0.0804
  819BOLB   GL219636  25.229  30.621   3.384 -0.1437 -0.2084  0.1365
  819BOLB   C1A19637  24.818  30.829   3.692 -0.1294  0.1488 -0.1279
  819BOLB   C2A19638  24.775  31.050   4.081 -0.1559 -0.0265  0.2919
  819BOLB   C3A19639  24.863  31.308   4.378  0.2829  0.0107 -0.0170
  819BOLB   C4A19640  25.133  31.296   4.802  0.0229  0.1095 -0.1019
  819BOLB   C1B19641  25.151  30.459   3.776  0.1804 -0.2561  0.3572
  819BOLB   C2B19642  25.035  30.479   4.227 -0.1371  0.0363 -0.2596
  819BOLB   C3B19643  24.963  30.283   4.619 -0.3057  0.0912  0.1819
  819BOLB   C4B19644  24.863  29.906   4.884  0.1067 -0.0819 -0.0865
  819BOLB   NC219645  24.043  32.220   6.860  0.0486 -0.0636 -0.3511
  819BOLB   PO219646  24.241  31.855   6.845  0.2871  0.3049  0.2296
  819BOLB   GL319647  24.296  31.883   6.433  0.4489  0.3484 -0.0676
  819BOLB   GL419648  24.250  32.225   6.347 -0.0749  0.0186 -0.0566
  819BOLB   C1C19649  24.490  31.765   5.983  0.1379 -0.1168 -0.0080
  819BOLB   C2C19650  24.556  31.705   5.706  0.0385  0.1219  0.0192
  819BOLB   C3C19651  24.828  31.453   5.490 -0.1079 -0.1275  0.1278
  819BOLB   C4C19652  25.056  31.152   5.275 -0.0500  0.0281 -0.3637
  819BOLB   C1D19653  24.223  32.441   5.939  0.2441  0.0094  0.1350
  819BOLB   C2D19654  23.910  32.536   5.638  0.0065  0.1492 -0.3852
  819BOLB   C3D19655  23.727  32.546   5.223 -0.3380 -0.2599 -0.0497
  819BOLB   C4D19656  23.914  32.612   4.761  0.5624  0.3007 -0.0595
  820BOLB   NC119657  35.299  30.009  21.644 -0.1491  0.1870 -0.3959
  820BOLB   PO119658  35.782  30.083  21.550  0.0425  0.1871 -0.1450
  820BOLB   GL119659  36.206  29.910  21.480  0.2611 -0.1867 -0.0464
  820BOLB   GL219660  36.228  30.187  21.205 -0.0573 -0.0917 -0.0704
  820BOLB   C1A19661  36.657  29.857  21.645  0.2286 -0.1635 -0.3481
  820BOLB   C2A19662  36.798  29.509  21.670  0.1592  0.3770 -0.1358
  820BOLB   C3A19663  37.198  29.401  21.715  0.1815 -0.4916 -0.2639
  820BOLB   C4A19664  37.612  29.414  22.013 -0.2479  0.0094  0.1370
  820BOLB   C1B19665  36.634  30.140  21.237  0.0176 -0.0359 -0.1395
  820BOLB   C2B19666  36.932  30.261  21.524 -0.0687 -0.1124 -0.1250
  820BOLB   C3B19667  37.359  30.449  21.749 -0.2947 -0.2614  0.2902
  820BOLB   C4B19668  37.728  30.699  21.772 -0.0175 -0.2948  0.1191
  820BOLB   NC219669  40.581  29.898  21.443  0.0133  0.1017 -0.1245
  820BOLB   PO219670  40.074  29.973  21.668  0.0915  0.1731  0.0057
  820BOLB   GL319671  39.626  29.843  21.795 -0.0547  0.0186 -0.3164
  820BOLB   GL419672  39.618  30.017  22.119  0.0464  0.0031 -0.0164
  820BOLB   C1C19673  39.175  29.833  21.685  0.4273  0.0275 -0.0744
  820BOLB   C2C19674  38.761  29.628  21.776 -0.3986  0.3535 -0.0782
  820BOLB   C3C19675  38.418  29.425  21.987  0.0467 -0.0966 -0.0897
  820BOLB   C4C19676  37.995  29.493  22.062 -0.0980 -0.1543 -0.3037
  820BOLB   C1D19677  39.158  30.102  22.202  0.1630  0.0694 -0.0205
  820BOLB   C2D19678  38.729  30.295  22.304 -0.2255  0.2895 -0.2034
  820BOLB   C3D19679  38.373  30.222  22.501  0.0941 -0.0355  0.2129
  820BOLB   C4D19680  37.979  30.254  22.550  0.1198  0.1209 -0.0103
  821BOLB   NC119681  26.809  35.935  26.396  0.1136 -0.0663 -0.0610
  821BOLB   PO119682  26.535  36.226  26.264  0.1084  0.0630  0.3305
  821BOLB   GL119683  26.404  36.599  26.465 -0.2342 -0.0548 -0.2755
  821BOLB   GL219684  26.657  36.762  26.475 -0.0960 -0.1744 -0.2175
  821BOLB   C1A19685  26.200  36.964  26.677 -0.1973  0.1449 -0.1699
  821BOLB   C2A19686  26.056  37.302  26.910  0.1725 -0.0893 -0.1453
  821BOLB   C3A19687  26.016  37.732   0.131 -0.1905 -0.1206 -0.0114
  821BOLB   C4A19688  26.229  38.080   0.364  0.1042  0.0642 -0.0756
  821BOLB   C1B19689  26.628  37.162  26.714 -0.3951  0.2984  0.0737
  821BOLB   C2B19690  26.538  37.557   0.016  0.2538  0.2292  0.2360
  821BOLB   C3B19691  26.784  37.907   0.162  0.2775  0.1569 -0.2310
  821BOLB   C4B19692  27.199  37.929   0.146 -0.3382  0.1325  0.1279
  821BOLB   NC219693  25.530  40.221   2.227 -0.2896  0.2152 -0.0537
  821BOLB   PO219694  25.681  39.758   2.098 -0.1361  0.1176 -0.0389
  821BOLB   GL319695  25.704  39.581   1.692  0.0520  0.1233  0.0529
  821BOLB   GL419696  25.536  39.439   1.693 -0.0815 -0.3134 -0.3552
  821BOLB   C1C19697  25.844  39.371   1.295 -0.5034 -0.4043 -0.2219
  821BOLB   C2C19698  26.066  39.096   1.173 -0.2356 -0.0882 -0.2366
  821BOLB   C3C19699  26.225  38.876   0.698  0.1282  0.0922  0.2663
  821BOLB   C4C19700  26.311  38.506   0.501  0.4301 -0.0439 -0.1463
  821BOLB   C1D19701  25.312  39.256   1.327 -0.0543  0.1489 -0.0095
  821BOLB   C2D19702  25.451  39.038   1.080  0.0409  0.1666 -0.0405
  821BOLB   C3D19703  25.672  38.641   0.954  0.2482 -0.1176  0.1194
  821BOLB   C4D19704  25.949  38.301   0.765 -0.0459 -0.1476  0.2574
  822BOLB   NC119705  33.750  27.735  26.134 -0.3580 -0.0256  0.2289
  822BOLB   PO119706  33.625  28.206  26.344  0.4250  0.0382 -0.1664
  822BOLB   GL119707  33.943  28.055  26.485  0.1244  0.1015 -0.1698
  822BOLB   GL219708  34.179  27.933  26.266 -0.2847 -0.0161 -0.1147
  822BOLB   C1A19709  34.125  27.986   0.044 -0.0466 -0.1228 -0.0415
  822BOLB   C2A19710  34.470  27.812   0.215  0.0487 -0.1967 -0.1752
  822BOLB   C3A19711  34.995  27.661   0.263  0.1097  0.3138 -0.1391
  822BOLB   C4A19712  35.378  27.515   0.288  0.1351  0.2780 -0.1461
  822BOLB   C1B19713  34.493  27.877  26.520 -0.2266  0.3215 -0.1379
  822BOLB   C2B19714  34.760  28.055  26.799  0.0387 -0.2833  0.3583
  822BOLB   C3B19715  35.123  28.127  26.872  0.3368  0.0757  0.0380
  822BOLB   C4B19716  35.343  28.301  26.521  0.0518  0.1201  0.1161
  822BOLB   NC219717  37.263  26.455   2.126  0.0282  0.2117 -0.2162
  822BOLB   PO219718  36.759  26.631   2.247  0.0468  0.3898 -0.0919
  822BOLB   GL319719  36.505  26.778   1.940  0.0470  0.0164  0.2312
  822BOLB   GL419720  36.337  27.056   2.095  0.0993  0.1379 -0.1180
  822BOLB   C1C19721  36.306  27.001   1.538  0.2591  0.0507 -0.1118
  822BOLB   C2C19722  36.100  27.063   1.153 -0.2242  0.0944 -0.0273
  822BOLB   C3C19723  35.840  27.206   0.896 -0.0299  0.0011  0.1584
  822BOLB   C4C19724  35.635  27.208   0.576  0.2815 -0.0615  0.1725
  822BOLB   C1D19725  36.286  27.310   1.925  0.1264  0.0477  0.1906
  822BOLB   C2D19726  35.899  27.246   1.573 -0.0679  0.1012  0.0647
  822BOLB   C3D19727  35.602  27.164   1.402  0.2042  0.1099  0.3184
  822BOLB   C4D19728  35.328  27.269   0.967  0.0878  0.0261 -0.0060
  823BOLB   NC119729  30.798  36.479  17.259 -0.4313  0.0502  0.1455
  823BOLB   PO119730  30.973  36.183  17.069 -0.5991 -0.3959  0.1638
  823BOLB   GL119731  31.269  36.600  17.230 -0.0576 -0.1824  0.0399
  823BOLB   GL219732  31.417  36.763  17.389  0.0446  0.0089  0.2868
  823BOLB   C1A19733  31.547  36.916  16.939 -0.0309  0.1034 -0.1920
  823BOLB   C2A19734  31.668  37.366  16.870 -0.0389  0.3714 -0.0993
  823BOLB   C3A19735  31.952  37.688  16.782  0.1903 -0.0187 -0.1497
  823BOLB   C4A19736  32.099  37.972  16.595 -0.1660 -0.0256  0.1081
  823BOLB   C1B19737  31.499  37.198  17.351  0.0783 -0.0734  0.1674
  823BOLB   C2B19738  31.659  37.543  17.391  0.0240 -0.2015  0.6708
  823BOLB   C3B19739  31.927  37.866  17.331  0.1402  0.2538 -0.0726
  823BOLB   C4B19740  31.904  38.131  17.001 -0.1518  0.1102 -0.0417
  823BOLB   NC219741  33.668  39.305  16.482  0.0656  0.0441 -0.2549
  823BOLB   PO219742  33.445  39.656  16.456 -0.0354 -0.2528  0.1347
  823BOLB   GL319743  33.160  39.384  16.629 -0.0614  0.1917  0.2346
  823BOLB   GL419744  33.092  39.226  16.412  0.1183 -0.0772 -0.0763
  823BOLB   C1C19745  33.121  39.042  16.961 -0.0495 -0.2333 -0.3159
  823BOLB   C2C19746  32.913  38.619  17.029  0.4189 -0.2117  0.0676
  823BOLB   C3C19747  32.718  38.451  16.795  0.3576  0.0208 -0.0124
  823BOLB   C4C19748  32.423  38.187  16.475  0.0725 -0.2678  0.2960
  823BOLB   C1D19749  32.909  38.830  16.550 -0.0400 -0.4029 -0.2293
  823BOLB   C2D19750  33.026  38.440  16.366 -0.2859 -0.0344  0.0498
  823BOLB   C3D19751  32.831  38.090  16.185  0.0123 -0.3516 -0.0166
  823BOLB   C4D19752  32.726  37.732  16.325 -0.2328 -0.1617 -0.1074
  824BOLB   NC119753  18.180  31.576  14.010  0.2845 -0.0258 -0.0239
  824BOLB   PO119754  18.185  31.242  14.041  0.2520  0.1045 -0.0022
  824BOLB   GL119755  18.547  31.263  14.139  0.0776  0.0261  0.0490
  824BOLB   GL219756  18.489  31.021  14.419  0.3205 -0.0875 -0.0648
  824BOLB   C1A19757  18.897  31.346  14.410  0.2380 -0.1196 -0.0235
  824BOLB   C2A19758  19.138  31.177  14.740  0.1880  0.0514 -0.2268
  824BOLB   C3A19759  19.145  31.259  15.133  0.3758 -0.2204  0.0755
  824BOLB   C4A19760  19.062  31.234  15.555  0.2329  0.0570  0.4904
  824BOLB   C1B19761  18.584  30.513  14.334 -0.0321  0.1256  0.1207
  824BOLB   C2B19762  18.923  30.267  14.447  0.1285  0.0262  0.4283
  824BOLB   C3B19763  18.929  29.869  14.620 -0.0630 -0.1674  0.1813
  824BOLB   C4B19764  18.874  29.672  14.982  0.1867  0.0708 -0.1046
  824BOLB   NC219765  17.073  29.730  16.128 -0.0502  0.0931  0.1002
  824BOLB   PO219766  17.237  29.944  15.780 -0.0464  0.2561 -0.0326
  824BOLB   GL319767  17.694  30.035  15.873 -0.1246 -0.0199  0.0573
  824BOLB   GL419768  17.798  29.854  15.594  0.0154 -0.1844 -0.0296
  824BOLB   C1C19769  17.812  30.331  16.228  0.2801  0.0013  0.0801
  824BOLB   C2C19770  18.166  30.692  16.394  0.1450  0.1968  0.0535
  824BOLB   C3C19771  18.581  30.870  16.242  0.0070 -0.1780  0.2420
  824BOLB   C4C19772  18.958  31.076  15.972 -0.1088 -0.0491 -0.0263
  824BOLB   C1D19773  18.140  29.849  15.890 -0.2091  0.3868 -0.0178
  824BOLB   C2D19774  18.328  29.900  16.298 -0.1934 -0.2776  0.0746
  824BOLB   C3D19775  18.667  29.675  16.274 -0.0913 -0.0307 -0.0001
  824BOLB   C4D19776  19.037  29.545  16.322  0.2882 -0.1290  0.3844
  825BOLB   NC119777  39.436  33.027  24.595  0.1804  0.2884  0.1750
  825BOLB   PO119778  39.609  32.769  24.227  0.1112 -0.0918  0.0479
  825BOLB   GL119779  39.287  32.937  23.916 -0.2915  0.1830  0.0918
  825BOLB   GL219780  39.402  32.807  23.582  0.1118  0.0700  0.1123
  825BOLB   C1A19781  38.897  32.788  23.814  0.1936 -0.0838 -0.0509
  825BOLB   C2A19782  38.437  32.554  23.694 -0.1042 -0.0424 -0.0878
  825BOLB   C3A19783  38.225  32.207  23.907  0.1523 -0.2036 -0.0360
  825BOLB   C4A19784  38.120  31.867  24.037 -0.0548 -0.1532  0.0078
  825BOLB   C1B19785  39.048  32.724  23.333 -0.0021 -0.3143  0.1616
  825BOLB   C2B19786  38.636  32.596  23.184 -0.1134  0.2758 -0.0550
  825BOLB   C3B19787  38.269  32.445  23.043 -0.2763  0.0357  0.2462
  825BOLB   C4B19788  37.979  32.232  22.839  0.1895 -0.0548  0.0480
  825BOLB   NC219789  39.726  30.777  23.564 -0.0031 -0.1418 -0.0478
  825BOLB   PO219790  39.442  30.585  23.971  0.1705  0.1850 -0.1325
  825BOLB   GL319791  39.019  30.565  24.039 -0.1635 -0.0719  0.3055
  825BOLB   GL419792  38.925  30.563  24.397 -0.1178  0.0500 -0.0399
  825BOLB   C1C19793  38.618  30.719  23.999  0.2019 -0.3295 -0.0499
  825BOLB   C2C19794  38.190  30.685  23.884 -0.0461  0.1062  0.0783
  825BOLB   C3C19795  37.960  30.962  23.914 -0.1725 -0.0907  0.1040
  825BOLB   C4C19796  37.999  31.459  23.989 -0.2047  0.1492 -0.0458
  825BOLB   C1D19797  38.465  30.401  24.516  0.1514 -0.1944 -0.1169
  825BOLB   C2D19798  38.014  30.267  24.573  0.3343 -0.0156 -0.1567
  825BOLB   C3D19799  37.630  30.198  24.391 -0.2577 -0.1846 -0.3643
  825BOLB   C4D19800  37.538  29.957  24.039 -0.0525 -0.0286 -0.0842
  826BOLB   NC119801  33.809  31.993  16.179 -0.0609 -0.0309 -0.0231
  826BOLB   PO119802  33.680  31.582  16.128  0.2284  0.0813 -0.1255
  826BOLB   GL119803  34.003  31.541  15.915 -0.1039  0.1946  0.0193
  826BOLB   GL219804  34.286  31.796  16.073 -0.1428 -0.1855  0.1816
  826BOLB   C1A19805  34.386  31.406  15.686 -0.0640  0.0328 -0.2669
  826BOLB   C2A19806  34.690  31.424  15.228 -0.2232  0.1467  0.0198
  826BOLB   C3A19807  35.061  31.519  15.082  0.0282 -0.0454 -0.1582
  826BOLB   C4A19808  35.274  31.409  14.760 -0.0141  0.2480  0.2578
  826BOLB   C1B19809  34.642  31.877  15.806  0.1340  0.0596  0.2223
  826BOLB   C2B19810  34.631  31.915  15.403  0.1263 -0.0077 -0.2945
  826BOLB   C3B19811  34.901  31.990  15.113  0.2225  0.0508  0.0816
  826BOLB   C4B19812  34.914  31.928  14.638 -0.1982  0.1008  0.3214
  826BOLB   NC219813  36.498  30.165  13.089 -0.0907 -0.0611 -0.1190
  826BOLB   PO219814  36.714  29.920  13.434  0.1998  0.2236 -0.4369
  826BOLB   GL319815  36.459  30.167  13.694 -0.0059  0.3919  0.1751
  826BOLB   GL419816  36.340  30.411  13.594 -0.4341 -0.1281  0.0414
  826BOLB   C1C19817  36.187  30.286  14.079  0.0734 -0.1452  0.0998
  826BOLB   C2C19818  35.897  30.451  14.471  0.1100  0.1095 -0.0908
  826BOLB   C3C19819  35.620  30.857  14.514 -0.2389  0.0978 -0.0387
  826BOLB   C4C19820  35.439  31.129  14.431  0.1051  0.1381 -0.0832
  826BOLB   C1D19821  36.404  30.682  13.815 -0.0079  0.2238 -0.0133
  826BOLB   C2D19822  36.324  31.124  13.879 -0.1130  0.2381  0.0777
  826BOLB   C3D19823  36.055  31.465  13.756  0.1635  0.0792  0.0551
  826BOLB   C4D19824  36.015  31.753  13.447  0.0997 -0.0375 -0.0123
  827BOLB   NC119825  34.244  28.155  25.743  0.0384 -0.1660 -0.1994
  827BOLB   PO119826  34.393  28.027  25.381  0.1089  0.1890  0.0776
  827BOLB   GL119827  34.755  27.986  25.552 -0.1763 -0.1297  0.1297
  827BOLB   GL219828  34.928  28.293  25.608 -0.3769  0.2736 -0.2268
  827BOLB   C1A19829  35.078  27.760  25.800 -0.1171  0.1450 -0.0339
  827BOLB   C2A19830  35.426  27.806  26.012  0.0349 -0.1562  0.0333
  827BOLB   C3A19831  35.883  27.619  26.241 -0.2382 -0.2595  0.0431
  827BOLB   C4A19832  36.213  27.320  26.463  0.1819  0.0881  0.1854
  827BOLB   C1B19833  35.369  28.261  25.644 -0.1545 -0.0117  0.0023
  827BOLB   C2B19834  35.839  28.245  25.688  0.3555 -0.2144 -0.0644
  827BOLB   C3B19835  36.333  28.364  25.805  0.1351  0.1875  0.0227
  827BOLB   C4B19836  36.733  28.371  25.884 -0.4456 -0.2421 -0.1958
  827BOLB   NC219837  38.035  26.426   0.849  0.0544 -0.2144 -0.2189
  827BOLB   PO219838  38.034  26.161   0.482  0.2074 -0.1393 -0.2553
  827BOLB   GL319839  37.693  26.379   0.329  0.2020 -0.0017  0.3412
  827BOLB   GL419840  37.428  26.309   0.278  0.2043  0.0318 -0.3710
  827BOLB   C1C19841  37.680  26.691   0.124 -0.3580  0.0833  0.0246
  827BOLB   C2C19842  37.445  27.014  26.811  0.0272 -0.1517  0.1349
  827BOLB   C3C19843  36.988  26.943  26.614  0.1288 -0.0187  0.1107
  827BOLB   C4C19844  36.631  27.125  26.496  0.1879  0.2469  0.0022
  827BOLB   C1D19845  37.210  26.532  26.782 -0.0431 -0.2442  0.0380
  827BOLB   C2D19846  37.362  26.686  26.413 -0.1296 -0.2732 -0.0313
  827BOLB   C3D19847  37.535  27.119  26.330 -0.1256  0.3132  0.0858
  827BOLB   C4D19848  37.554  27.064  25.924 -0.0044  0.1736  0.1182
  828BOLB   NC119849  25.832  35.308  16.155  0.0608 -0.3239 -0.0474
  828BOLB   PO119850  26.209  35.620  16.201  0.2810  0.0141 -0.4905
  828BOLB   GL119851  26.033  36.148  16.052  0.1274  0.1892  0.1190
  828BOLB   GL219852  26.052  36.346  16.227 -0.2009 -0.1889  0.0494
  828BOLB   C1A19853  26.080  36.563  15.789 -0.0907  0.0315  0.1138
  828BOLB   C2A19854  25.964  36.876  15.614 -0.2171 -0.1651  0.2351
  828BOLB   C3A19855  25.741  37.247  15.268 -0.0252 -0.0732  0.0008
  828BOLB   C4A19856  25.338  37.295  15.048  0.1719 -0.2600 -0.0659
  828BOLB   C1B19857  25.607  36.383  16.027  0.3211  0.1067  0.0764
  828BOLB   C2B19858  25.321  36.635  15.720  0.2651 -0.1221  0.0658
  828BOLB   C3B19859  25.159  36.935  15.501 -0.0203 -0.1559 -0.1653
  828BOLB   C4B19860  24.826  37.074  15.242 -0.1112  0.3008 -0.0968
  828BOLB   NC219861  24.516  38.550  13.575  0.2152  0.0468  0.2290
  828BOLB   PO219862  24.675  39.013  13.608 -0.0887 -0.1507  0.1827
  828BOLB   GL319863  24.879  38.809  13.966 -0.1673  0.1510  0.1169
  828BOLB   GL419864  25.257  38.767  13.915  0.0771  0.0800 -0.0418
  828BOLB   C1C19865  24.939  38.551  14.372  0.0888 -0.2466 -0.3070
  828BOLB   C2C19866  24.700  38.069  14.548 -0.3275  0.1480 -0.0928
  828BOLB   C3C19867  24.729  37.687  14.643 -0.0189  0.1741 -0.2260
  828BOLB   C4C19868  25.005  37.528  14.850  0.1448 -0.2902 -0.1577
  828BOLB   C1D19869  25.424  38.418  14.185 -0.2870  0.4993 -0.0939
  828BOLB   C2D19870  25.701  38.227  14.468  0.0178 -0.0545 -0.0439
  828BOLB   C3D19871  25.921  37.842  14.598  0.2182  0.0974  0.0962
  828BOLB   C4D19872  25.787  37.564  14.891 -0.3442  0.0436 -0.0253
  829BOLB   NC119873  27.373  20.969   7.146  0.3047 -0.0691  0.0416
  829BOLB   PO119874  27.625  21.326   7.169  0.0679  0.0576 -0.0661
  829BOLB   GL119875  27.521  21.316   6.730 -0.2351 -0.0626  0.2633
  829BOLB   GL219876  27.277  21.040   6.649 -0.0417 -0.0578 -0.0624
  829BOLB   C1A19877  27.591  21.406   6.236 -0.0569  0.2428  0.0054
  829BOLB   C2A19878  27.752  21.384   5.841 -0.3959 -0.1492 -0.0302
  829BOLB   C3A19879  27.742  21.764   5.619 -0.2409  0.0525  0.1087
  829BOLB   C4A19880  27.518  22.163   5.550 -0.1029 -0.0640  0.0210
  829BOLB   C1B19881  27.105  21.310   6.341 -0.1365 -0.0118  0.0426
  829BOLB   C2B19882  26.690  21.477   6.229 -0.0199 -0.0500  0.0823
  829BOLB   C3B19883  26.380  21.672   6.467  0.3480  0.2883  0.2432
  829BOLB   C4B19884  26.280  22.031   6.727  0.0911 -0.1249  0.1507
  829BOLB   NC219885  27.197  22.238   7.813  0.0609 -0.3034 -0.0863
  829BOLB   PO219886  27.459  22.302   7.440  0.1885  0.2301  0.1454
  829BOLB   GL319887  27.303  22.210   7.061  0.0934 -0.0120  0.0532
  829BOLB   GL419888  26.932  22.073   7.241 -0.0765  0.1959  0.1647
  829BOLB   C1C19889  27.266  22.301   6.607 -0.0562 -0.1702  0.0628
  829BOLB   C2C19890  27.165  22.271   6.158 -0.1938 -0.1025  0.0246
  829BOLB   C3C19891  27.037  22.380   5.833  0.0673  0.0053 -0.1742
  829BOLB   C4C19892  27.271  22.493   5.483  0.2783  0.3094  0.0623
  829BOLB   C1D19893  26.803  22.086   6.823  0.0620  0.1908  0.2792
  829BOLB   C2D19894  26.883  21.887   6.501  0.3384  0.1326 -0.2616
  829BOLB   C3D19895  27.288  21.827   6.330 -0.0624  0.2591  0.4387
  829BOLB   C4D19896  27.580  21.843   6.065 -0.0527  0.2254 -0.0616
  830BOLB   NC119897  26.762  31.463   2.468  0.2346 -0.1227  0.0491
  830BOLB   PO119898  26.718  31.734   2.767 -0.0484  0.1966 -0.0951
  830BOLB   GL119899  26.809  31.814   3.199  0.1736 -0.1100 -0.0686
  830BOLB   GL219900  27.185  31.742   3.125 -0.0772 -0.0415 -0.3730
  830BOLB   C1A19901  26.786  31.985   3.586 -0.3172 -0.2414 -0.3802
  830BOLB   C2A19902  26.441  32.089   3.786 -0.1076 -0.0436  0.1363
  830BOLB   C3A19903  26.323  32.396   4.072 -0.2101  0.0293  0.2387
  830BOLB   C4A19904  26.160  32.359   4.346 -0.2521 -0.0185  0.2023
  830BOLB   C1B19905  27.429  31.732   3.530  0.2212  0.1057 -0.1220
  830BOLB   C2B19906  27.631  31.946   3.911 -0.2758  0.2383 -0.0079
  830BOLB   C3B19907  27.372  32.129   4.230  0.0720  0.0120  0.0430
  830BOLB   C4B19908  27.058  32.215   4.576 -0.3244 -0.2438 -0.2843
  830BOLB   NC219909  26.046  32.321   6.514 -0.3045  0.3025  0.1049
  830BOLB   PO219910  25.707  32.303   6.579 -0.1038 -0.1653 -0.1971
  830BOLB   GL319911  25.527  32.582   6.282 -0.4771  0.2047 -0.1801
  830BOLB   GL419912  25.259  32.406   6.201 -0.1818 -0.0482  0.2125
  830BOLB   C1C19913  25.511  32.674   5.872  0.4050 -0.2980 -0.0370
  830BOLB   C2C19914  25.603  32.746   5.421 -0.0928 -0.0832  0.0477
  830BOLB   C3C19915  25.800  32.624   5.078 -0.3287  0.2272 -0.1156
  830BOLB   C4C19916  26.070  32.445   4.779 -0.2152 -0.2556 -0.1616
  830BOLB   C1D19917  25.557  32.163   5.872  0.0791 -0.1881 -0.4777
  830BOLB   C2D19918  25.976  32.046   5.880 -0.3157 -0.0889  0.1320
  830BOLB   C3D19919  26.319  32.168   5.949  0.1318  0.2032 -0.0932
  830BOLB   C4D19920  26.798  31.950   5.938 -0.2020  0.0446  0.4724
  831BOLB   NC119921  35.449  32.047  21.409  0.0518  0.1724 -0.0236
  831BOLB   PO119922  35.931  31.902  21.589 -0.0287  0.1907 -0.0305
  831BOLB   GL119923  36.294  31.701  21.779 -0.4085 -0.4064  0.1556
  831BOLB   GL219924  36.522  31.996  21.667 -0.3754 -0.0496 -0.4309
  831BOLB   C1A19925  36.658  31.685  22.036  0.1546  0.0479  0.0183
  831BOLB   C2A19926  37.118  31.920  21.923  0.3161 -0.0980  0.1681
  831BOLB   C3A19927  37.392  32.203  21.917  0.0601 -0.0205 -0.1545
  831BOLB   C4A19928  37.760  32.449  21.967  0.2085  0.0345 -0.0269
  831BOLB   C1B19929  36.812  32.295  21.753 -0.1761  0.1671  0.2291
  831BOLB   C2B19930  37.114  32.466  21.503  0.0048 -0.2028  0.2190
  831BOLB   C3B19931  37.518  32.536  21.228 -0.1003  0.2508  0.0093
  831BOLB   C4B19932  37.672  32.866  21.178  0.3979  0.0838  0.0238
  831BOLB   NC219933  39.993  32.790  21.643 -0.0131 -0.0776  0.2969
  831BOLB   PO219934  39.907  33.152  21.665 -0.0623 -0.1888 -0.3529
  831BOLB   GL319935  39.509  32.957  21.650 -0.2692  0.1688 -0.4537
  831BOLB   GL419936  39.262  33.200  21.514 -0.3830 -0.1836  0.1172
  831BOLB   C1C19937  39.251  32.751  21.924  0.2764  0.3242 -0.1233
  831BOLB   C2C19938  38.952  32.447  21.867  0.3723 -0.2049  0.0789
  831BOLB   C3C19939  38.491  32.420  21.770 -0.1401  0.1166  0.1199
  831BOLB   C4C19940  38.064  32.348  21.868 -0.0039  0.1501 -0.0998
  831BOLB   C1D19941  38.857  32.916  21.645 -0.0633 -0.0757  0.3721
  831BOLB   C2D19942  38.470  32.909  21.605 -0.3400  0.1822  0.0556
  831BOLB   C3D19943  38.167  33.190  21.684  0.1135  0.2821  0.2978
  831BOLB   C4D19944  37.990  33.597  21.837 -0.0331  0.0749  0.0145
  832BOLB   NC119945  34.747  27.511  18.550 -0.4495 -0.4058  0.1759
  832BOLB   PO119946  35.076  27.730  18.607 -0.2089  0.1942 -0.0311
  832BOLB   GL119947  35.382  27.606  18.329 -0.0740 -0.2092  0.1843
  832BOLB   GL219948  35.547  27.804  18.172 -0.0152 -0.0824  0.3350
  832BOLB   C1A19949  35.388  27.302  17.973 -0.0060  0.0401 -0.1366
  832BOLB   C2A19950  35.611  27.243  17.552 -0.1447 -0.0402  0.0769
  832BOLB   C3A19951  35.761  27.061  17.204 -0.2017 -0.0800 -0.1681
  832BOLB   C4A19952  35.874  26.793  16.796  0.0147 -0.4029 -0.0055
  832BOLB   C1B19953  35.938  27.559  18.025  0.1667  0.4680 -0.0682
  832BOLB   C2B19954  36.083  27.403  17.658 -0.2682  0.1986 -0.2037
  832BOLB   C3B19955  36.128  27.383  17.222 -0.0198 -0.0785  0.2979
  832BOLB   C4B19956  35.893  27.299  16.739  0.3801  0.0849 -0.1398
  832BOLB   NC219957  38.006  25.333  15.519  0.2958 -0.1467 -0.1464
  832BOLB   PO219958  37.666  25.605  15.533  0.1427  0.0163 -0.0524
  832BOLB   GL319959  37.330  25.656  15.998 -0.2408 -0.3711  0.0584
  832BOLB   GL419960  37.258  25.422  16.041 -0.1654  0.0517  0.2925
  832BOLB   C1C19961  37.218  26.012  16.246  0.1615 -0.0176  0.0237
  832BOLB   C2C19962  36.949  26.234  16.575  0.0433  0.3903 -0.0696
  832BOLB   C3C19963  36.533  26.334  16.602  0.0580 -0.0396 -0.0313
  832BOLB   C4C19964  36.111  26.418  16.662  0.2284  0.3015  0.0913
  832BOLB   C1D19965  36.857  25.650  16.267 -0.2097  0.0872  0.0304
  832BOLB   C2D19966  36.497  25.854  16.597 -0.2721  0.3973  0.0332
  832BOLB   C3D19967  36.107  25.940  16.598 -0.2765  0.0888  0.1113
  832BOLB   C4D19968  35.583  25.763  16.610  0.1527  0.0639 -0.2150
  833BOLB   NC119969  24.988  37.098  23.216 -0.2459 -0.0176  0.1715
  833BOLB   PO119970  25.291  37.305  22.937 -0.0842  0.0589  0.1075
  833BOLB   GL119971  25.151  37.795  22.829 -0.0870 -0.1308 -0.1472
  833BOLB   GL219972  25.300  37.941  22.519 -0.3472  0.0487  0.1639
  833BOLB   C1A19973  25.081  38.208  22.963 -0.1953 -0.0326  0.2551
  833BOLB   C2A19974  24.896  38.521  22.934  0.0273  0.0851  0.0907
  833BOLB   C3A19975  24.620  38.796  23.050  0.1918 -0.1791 -0.1891
  833BOLB   C4A19976  24.325  38.939  23.324  0.1102 -0.0344 -0.1036
  833BOLB   C1B19977  25.100  38.385  22.478 -0.2345  0.0276  0.1314
  833BOLB   C2B19978  25.016  38.856  22.560  0.4021 -0.1186  0.1886
  833BOLB   C3B19979  25.004  39.170  22.868  0.4343  0.1267  0.2555
  833BOLB   C4B19980  24.691  39.451  22.922  0.1668 -0.0726  0.0474
  833BOLB   NC219981  22.929  40.999  23.653  0.4253 -0.0095  0.1157
  833BOLB   PO219982  22.717  40.708  23.925 -0.0140  0.1461  0.1575
  833BOLB   GL319983  23.017  40.350  23.998 -0.1360  0.0203  0.0078
  833BOLB   GL419984  22.995  40.182  24.250 -0.0595  0.2671 -0.0214
  833BOLB   C1C19985  23.190  39.845  23.964 -0.1296  0.0452 -0.1553
  833BOLB   C2C19986  23.441  39.543  24.014 -0.0106  0.0881 -0.0692
  833BOLB   C3C19987  23.803  39.242  23.790  0.0594  0.0453 -0.4103
  833BOLB   C4C19988  24.102  39.181  23.502  0.4112 -0.0525 -0.1472
  833BOLB   C1D19989  22.776  39.816  24.310 -0.2121  0.0508  0.2317
  833BOLB   C2D19990  22.456  39.491  24.213 -0.2827 -0.2285 -0.1203
  833BOLB   C3D19991  22.663  39.047  24.196  0.0621 -0.1011 -0.1571
  833BOLB   C4D19992  22.803  38.836  23.878  0.1153  0.0687  0.4488
  834BOLB   NC119993  33.190  24.900  18.100  0.2969 -0.1125 -0.0272
  834BOLB   PO119994  33.186  24.457  18.383  0.3584 -0.3089  0.4019
  834BOLB   GL119995  33.381  24.052  18.281 -0.2090  0.3939  0.1867
  834BOLB   GL219996  33.377  23.943  18.381  0.3783  0.0140  0.0089
  834BOLB   C1A19997  33.830  23.918  18.165  0.1259 -0.2219  0.4395
  834BOLB   C2A19998  34.305  23.916  18.097  0.1793 -0.0377 -0.0901
  834BOLB   C3A19999  34.588  23.608  18.104 -0.1886 -0.1531 -0.0869
  834BOLB   C4A20000  35.038  23.561  17.990  0.2275 -0.0632  0.1688
  834BOLB   C1B20001  33.642  23.630  18.524  0.1104  0.1159 -0.0447
  834BOLB   C2B20002  33.828  23.159  18.525  0.0928 -0.0740 -0.0043
  834BOLB   C3B20003  34.048  22.759  18.495 -0.0027 -0.1481 -0.1824
  834BOLB   C4B20004  34.369  22.488  18.642  0.3005 -0.0154 -0.0734
  834BOLB   NC220005  36.387  21.722  17.278 -0.1446  0.1811  0.0734
  834BOLB   PO220006  36.199  22.073  17.040 -0.2997 -0.1170 -0.3859
  834BOLB   GL320007  35.912  22.322  17.299 -0.1883  0.0482 -0.0733
  834BOLB   GL420008  36.120  22.629  17.303  0.1472 -0.0295 -0.0821
  834BOLB   C1C20009  35.606  22.547  17.607 -0.2168  0.2010 -0.3409
  834BOLB   C2C20010  35.450  22.652  17.909  0.0270  0.2561  0.2807
  834BOLB   C3C20011  35.544  23.015  18.021 -0.0714 -0.2104  0.0070
  834BOLB   C4C20012  35.331  23.314  18.055  0.0609 -0.2215 -0.2507
  834BOLB   C1D20013  35.642  22.757  17.141  0.0114  0.1187 -0.0140
  834BOLB   C2D20014  35.176  22.530  17.163  0.2649  0.4685  0.1670
  834BOLB   C3D20015  34.752  22.537  17.360 -0.0165 -0.2430  0.1640
  834BOLB   C4D20016  34.526  22.811  17.681 -0.0292 -0.0099 -0.0503
  835BOLB   NC120017  34.087  32.651  25.472 -0.1202  0.0351 -0.0568
  835BOLB   PO120018  34.443  32.400  25.583 -0.2961  0.0393 -0.1198
  835BOLB   GL120019  34.513  32.734  25.901 -0.1484 -0.0352  0.3081
  835BOLB   GL220020  34.610  32.695  26.244 -0.2192  0.0374 -0.1435
  835BOLB   C1A20021  34.968  32.954  25.960 -0.1476  0.0792  0.1272
  835BOLB   C2A20022  35.339  33.070  26.005  0.0773 -0.0627 -0.1058
  835BOLB   C3A20023  35.597  33.265  25.806 -0.1821 -0.0861  0.3554
  835BOLB   C4A20024  36.035  33.199  25.835  0.3080  0.0990 -0.2270
  835BOLB   C1B20025  35.013  32.426  26.556  0.1710 -0.0387  0.5069
  835BOLB   C2B20026  35.326  32.421  26.909 -0.0775  0.1910  0.1298
  835BOLB   C3B20027  35.486  32.608   0.354 -0.1204 -0.0998  0.0423
  835BOLB   C4B20028  35.422  32.658   0.772  0.3314  0.2312 -0.1042
  835BOLB   NC220029  38.135  33.859  26.756  0.4158 -0.2988  0.0467
  835BOLB   PO220030  38.086  33.809  26.240 -0.1467 -0.1435  0.3620
  835BOLB   GL320031  37.705  33.751  26.133 -0.0697  0.1155 -0.2666
  835BOLB   GL420032  37.546  33.946  26.426 -0.2149  0.2770 -0.0792
  835BOLB   C1C20033  37.229  33.631  26.013 -0.2754 -0.0032 -0.3809
  835BOLB   C2C20034  37.025  33.397  25.812 -0.0622 -0.1161  0.1924
  835BOLB   C3C20035  36.590  33.296  25.647  0.1053 -0.0917 -0.0697
  835BOLB   C4C20036  36.289  33.051  25.598  0.2488  0.0905  0.0666
  835BOLB   C1D20037  37.060  34.045  26.459  0.1226 -0.5215  0.2067
  835BOLB   C2D20038  36.539  34.009  26.388 -0.0444  0.0354  0.3896
  835BOLB   C3D20039  36.097  33.946  26.160 -0.0781  0.5030  0.1664
  835BOLB   C4D20040  35.780  33.898  25.903  0.3188 -0.1011 -0.0937
  836BOLB   NC120041  28.421  36.641  26.489  0.0682 -0.0397 -0.2530
  836BOLB   PO120042  28.813  36.804  26.336 -0.1658  0.1699 -0.0484
  836BOLB   GL120043  28.545  37.216  26.408  0.1944 -0.1770 -0.2464
  836BOLB   GL220044  28.668  37.398  26.645  0.0383 -0.3997 -0.1887
  836BOLB   C1A20045  28.299  37.527  26.319 -0.0429 -0.1008  0.2879
  836BOLB   C2A20046  28.265  37.853  26.485 -0.2432  0.0804  0.1665
  836BOLB   C3A20047  28.094  38.165  26.647 -0.0581  0.2666 -0.0830
  836BOLB   C4A20048  28.020  38.367   0.112  0.0984 -0.4085 -0.1748
  836BOLB   C1B20049  28.477  37.666   0.031 -0.1651 -0.3649 -0.1954
  836BOLB   C2B20050  28.373  38.039   0.217 -0.0034  0.1413  0.0086
  836BOLB   C3B20051  28.486  38.531   0.229 -0.2499  0.0376 -0.3070
  836BOLB   C4B20052  28.391  38.872   0.582  0.0269 -0.1318  0.1569
  836BOLB   NC220053  27.183  39.552   2.686 -0.0601  0.0998 -0.0171
  836BOLB   PO220054  27.652  39.457   2.559  0.1281  0.1062 -0.0296
  836BOLB   GL320055  27.655  39.358   2.076  0.2469 -0.0117 -0.0022
  836BOLB   GL420056  27.726  39.514   1.841  0.0748  0.0733  0.1671
  836BOLB   C1C20057  27.748  39.054   1.706  0.0263  0.2274  0.0505
  836BOLB   C2C20058  27.792  39.000   1.242  0.1402  0.1026  0.1206
  836BOLB   C3C20059  28.015  38.753   0.941 -0.0886  0.2982 -0.1189
  836BOLB   C4C20060  28.054  38.488   0.606  0.3940  0.0396 -0.0028
  836BOLB   C1D20061  27.713  39.521   1.385 -0.2519  0.1075 -0.2214
  836BOLB   C2D20062  27.530  39.413   1.007 -0.5862  0.0672  0.0480
  836BOLB   C3D20063  27.304  39.673   0.787  0.1341  0.1429  0.1736
  836BOLB   C4D20064  26.989  39.963   0.770  0.2831  0.1808 -0.1392
  837BOLB   NC120065  33.350  19.800  26.610  0.2065  0.3246  0.1197
  837BOLB   PO120066  32.989  19.782   0.006 -0.1067 -0.0108  0.1215
  837BOLB   GL120067  32.858  19.970  26.568  0.0135 -0.1526  0.1344
  837BOLB   GL220068  32.958  19.941  26.267  0.0703  0.1389  0.0136
  837BOLB   C1A20069  32.558  20.217  26.165  0.1707 -0.0007 -0.3332
  837BOLB   C2A20070  32.309  20.540  26.123 -0.0862  0.0648 -0.2769
  837BOLB   C3A20071  31.827  20.639  25.958  0.1975 -0.1651 -0.0001
  837BOLB   C4A20072  31.627  20.383  25.567  0.0429 -0.3147  0.1123
  837BOLB   C1B20073  32.942  20.139  25.850  0.1045  0.0528  0.1740
  837BOLB   C2B20074  32.541  20.233  25.689 -0.1011  0.2179  0.0950
  837BOLB   C3B20075  32.189  20.395  25.407 -0.1081 -0.0333 -0.0130
  837BOLB   C4B20076  32.021  20.623  25.065 -0.1159 -0.0939  0.1132
  837BOLB   NC220077  30.792  18.156  26.241 -0.0486 -0.0080 -0.1761
  837BOLB   PO220078  30.954  18.468  25.971 -0.1535 -0.0037 -0.1061
  837BOLB   GL320079  30.993  18.975  25.995  0.1006 -0.3314 -0.1251
  837BOLB   GL420080  30.708  19.128  26.100  0.0279  0.1828 -0.0181
  837BOLB   C1C20081  31.246  19.110  25.633 -0.0574 -0.3603 -0.1380
  837BOLB   C2C20082  31.479  19.372  25.322 -0.0136 -0.0587  0.3044
  837BOLB   C3C20083  31.398  19.818  25.084  0.0756 -0.2308 -0.2604
  837BOLB   C4C20084  31.485  20.256  25.080 -0.0435 -0.0195 -0.1671
  837BOLB   C1D20085  30.939  19.429  25.929 -0.0353 -0.0685  0.1068
  837BOLB   C2D20086  31.086  19.552  25.526 -0.1501 -0.0309 -0.1351
  837BOLB   C3D20087  30.946  19.580  25.172 -0.1486  0.0955 -0.1239
  837BOLB   C4D20088  30.930  19.898  24.970  0.1307 -0.2354  0.0077
  838BOLB   NC120089  38.496  33.727  15.829 -0.3328  0.2492 -0.1914
  838BOLB   PO120090  38.256  33.270  16.034  0.1326  0.3413 -0.0035
  838BOLB   GL120091  37.982  33.019  16.147 -0.1263 -0.2098  0.0957
  838BOLB   GL220092  38.120  32.719  16.288 -0.0609  0.0971  0.1053
  838BOLB   C1A20093  37.631  32.786  16.212 -0.2948  0.0236  0.0176
  838BOLB   C2A20094  37.121  32.623  16.078  0.1651  0.2023  0.1915
  838BOLB   C3A20095  36.865  32.573  15.723 -0.0358  0.1529  0.2964
  838BOLB   C4A20096  36.526  32.281  15.540  0.0436  0.0887  0.0154
  838BOLB   C1B20097  37.847  32.345  16.386  0.0771  0.1482 -0.4552
  838BOLB   C2B20098  37.564  32.183  16.566 -0.3030  0.0397  0.0265
  838BOLB   C3B20099  37.212  31.925  16.495 -0.1609 -0.1814  0.1053
  838BOLB   C4B20100  36.788  31.870  16.415  0.2121 -0.3022 -0.1063
  838BOLB   NC220101  37.315  31.030  13.333 -0.1549  0.2478 -0.2900
  838BOLB   PO220102  36.935  31.391  13.368 -0.0313 -0.3557 -0.0052
  838BOLB   GL320103  36.742  31.436  13.871  0.2611  0.0890 -0.1007
  838BOLB   GL420104  36.920  31.255  14.199  0.0792 -0.1595  0.0123
  838BOLB   C1C20105  36.457  31.462  14.164 -0.1207 -0.0751 -0.0189
  838BOLB   C2C20106  36.278  31.599  14.535  0.0758 -0.0785 -0.1646
  838BOLB   C3C20107  36.131  31.792  14.914  0.1000  0.0275  0.4233
  838BOLB   C4C20108  36.368  32.042  15.215  0.0547  0.1914 -0.0782
  838BOLB   C1D20109  36.728  30.893  14.133 -0.1039  0.4578 -0.1668
  838BOLB   C2D20110  36.335  30.701  14.284 -0.0318  0.0294 -0.3749
  838BOLB   C3D20111  35.886  30.801  14.105 -0.3867 -0.3626 -0.1054
  838BOLB   C4D20112  35.588  31.137  13.897  0.0767 -0.3161 -0.1412
  839BOLB   NC120113  21.265  33.272  25.454 -0.0547 -0.1550 -0.2430
  839BOLB   PO120114  20.973  33.097  25.795 -0.0763 -0.0990  0.0271
  839BOLB   GL120115  20.566  33.308  25.619  0.2016 -0.1704  0.0526
  839BOLB   GL220116  20.326  33.198  25.414 -0.1790 -0.1354 -0.0587
  839BOLB   C1A20117  20.169  33.634  25.797  0.2356 -0.0338 -0.1118
  839BOLB   C2A20118  19.850  33.942  25.941  0.0126  0.0274  0.0529
  839BOLB   C3A20119  19.846  34.387  25.842 -0.1432 -0.1347  0.3078
  839BOLB   C4A20120  19.865  34.666  26.076  0.3190  0.0417 -0.2151
  839BOLB   C1B20121  19.871  33.241  25.272  0.3293 -0.1765 -0.0151
  839BOLB   C2B20122  19.393  33.170  25.356 -0.0757 -0.1322 -0.0210
  839BOLB   C3B20123  18.995  32.900  25.485  0.1662  0.2096  0.0841
  839BOLB   C4B20124  18.514  32.782  25.578 -0.1684 -0.0901  0.0456
  839BOLB   NC220125  18.729  35.507   1.406 -0.0720 -0.0755  0.0096
  839BOLB   PO220126  19.052  35.612   1.150  0.3310 -0.2466 -0.1324
  839BOLB   GL320127  19.149  35.506   0.847 -0.0911 -0.0418  0.1351
  839BOLB   GL420128  19.553  35.649   0.821  0.0961  0.2344  0.3701
  839BOLB   C1C20129  19.278  35.236   0.456 -0.0791  0.2187  0.0539
  839BOLB   C2C20130  19.618  35.144   0.170  0.1649 -0.1663  0.1105
  839BOLB   C3C20131  19.573  35.022  26.657 -0.4000  0.2031  0.1851
  839BOLB   C4C20132  19.910  35.007  26.415  0.0990  0.0243  0.1237
  839BOLB   C1D20133  19.782  35.225   0.655  0.2145 -0.2118  0.1023
  839BOLB   C2D20134  20.220  35.146   0.450  0.0815  0.3233 -0.1996
  839BOLB   C3D20135  20.522  34.898   0.348 -0.0693 -0.0251 -0.1909
  839BOLB   C4D20136  20.820  34.618   0.539  0.2155  0.1521  0.3492
  840BOLB   NC120137  35.503  29.318  18.905  0.1466 -0.0391 -0.0575
  840BOLB   PO120138  35.455  29.667  18.580 -0.0592 -0.2400 -0.1168
  840BOLB   GL120139  35.851  29.445  18.519 -0.2012  0.0861  0.2906
  840BOLB   GL220140  35.798  29.125  18.530  0.2455 -0.0891  0.1218
  840BOLB   C1A20141  36.276  29.365  18.649  0.0264  0.1829  0.0191
  840BOLB   C2A20142  36.691  29.367  18.539 -0.2584  0.1748 -0.0255
  840BOLB   C3A20143  37.087  29.682  18.708 -0.1294 -0.2022  0.1922
  840BOLB   C4A20144  37.490  29.801  18.812 -0.1393  0.0572 -0.0484
  840BOLB   C1B20145  36.138  28.786  18.627 -0.0586  0.1546 -0.2192
  840BOLB   C2B20146  36.629  28.787  18.419 -0.1002  0.2931 -0.1544
  840BOLB   C3B20147  37.096  28.782  18.360  0.1346 -0.1153  0.2517
  840BOLB   C4B20148  37.436  28.895  18.135  0.4073 -0.2129 -0.0854
  840BOLB   NC220149  40.033  30.599  19.453 -0.3869 -0.1680 -0.3001
  840BOLB   PO220150  39.663  30.430  19.512 -0.1681 -0.1156 -0.0836
  840BOLB   GL320151  39.234  30.264  19.524 -0.2542 -0.2402 -0.2659
  840BOLB   GL420152  39.152  30.433  19.216 -0.2539  0.2361 -0.0848
  840BOLB   C1C20153  38.862  30.108  19.828 -0.0410  0.0195 -0.0609
  840BOLB   C2C20154  38.407  30.065  19.745  0.1306 -0.1516 -0.0835
  840BOLB   C3C20155  38.069  29.918  19.492  0.2262 -0.0941 -0.4503
  840BOLB   C4C20156  37.812  29.877  19.183 -0.2121  0.1992 -0.1377
  840BOLB   C1D20157  38.861  30.084  19.309 -0.2960 -0.1942 -0.1007
  840BOLB   C2D20158  38.698  29.791  19.103  0.3451 -0.2282  0.2513
  840BOLB   C3D20159  38.365  29.609  19.154  0.1946  0.0095  0.0432
  840BOLB   C4D20160  38.105  29.429  18.943 -0.1048  0.0602  0.2180
  841BOLB   NC120161  32.616  36.259  21.124 -0.1368  0.1632 -0.4343
  841BOLB   PO120162  32.934  36.090  21.095 -0.1320  0.1765 -0.2123
  841BOLB   GL120163  33.254  36.509  21.146 -0.0072  0.0953 -0.0229
  841BOLB   GL220164  33.226  36.757  21.367  0.0518 -0.2984 -0.1077
  841BOLB   C1A20165  33.565  36.723  21.009  0.2456 -0.1609 -0.1939
  841BOLB   C2A20166  33.952  36.964  21.082 -0.1143  0.0808 -0.1859
  841BOLB   C3A20167  34.249  37.263  21.187 -0.1612  0.2451  0.0870
  841BOLB   C4A20168  34.518  37.664  21.227  0.0805 -0.2136 -0.0937
  841BOLB   C1B20169  33.568  37.092  21.392  0.2349 -0.0275 -0.3908
  841BOLB   C2B20170  33.812  37.358  21.457 -0.4780 -0.0869 -0.1425
  841BOLB   C3B20171  34.210  37.431  21.718  0.2639 -0.2650  0.0286
  841BOLB   C4B20172  34.499  37.690  21.969  0.4947 -0.0428  0.0173
  841BOLB   NC220173  36.139  39.099  22.822  0.1117 -0.0721 -0.1007
  841BOLB   PO220174  36.332  38.767  22.578 -0.2398  0.0154 -0.0706
  841BOLB   GL320175  36.186  38.429  22.189  0.2659 -0.0016  0.0454
  841BOLB   GL420176  35.970  38.637  21.965 -0.2526  0.0418  0.1627
  841BOLB   C1C20177  35.993  38.056  21.945  0.3028  0.0545  0.2680
  841BOLB   C2C20178  35.801  37.829  21.646 -0.4820  0.1341 -0.2042
  841BOLB   C3C20179  35.351  37.826  21.596  0.0220 -0.0497  0.1378
  841BOLB   C4C20180  34.749  37.959  21.552 -0.2348  0.1915 -0.0265
  841BOLB   C1D20181  35.902  38.537  21.551  0.0005  0.0687  0.0230
  841BOLB   C2D20182  35.569  38.260  21.467 -0.0765 -0.0132 -0.4250
  841BOLB   C3D20183  35.220  38.159  21.224  0.0998 -0.1268 -0.0535
  841BOLB   C4D20184  34.866  38.009  21.023 -0.0696 -0.1661  0.0948
  842BOLB   NC120185  32.944  36.489  21.714 -0.1082 -0.0785 -0.4292
  842BOLB   PO120186  33.212  36.234  21.596  0.3963 -0.0665 -0.2215
  842BOLB   GL120187  33.485  36.586  21.768 -0.0894 -0.0175 -0.1873
  842BOLB   GL220188  33.688  36.497  21.926 -0.0302  0.0901 -0.0451
  842BOLB   C1A20189  33.457  36.986  21.877 -0.3643 -0.1890 -0.0345
  842BOLB   C2A20190  33.193  37.433  21.759  0.1645  0.0101 -0.2119
  842BOLB   C3A20191  33.113  37.835  21.884  0.0486  0.2637 -0.1737
  842BOLB   C4A20192  33.246  38.271  21.744 -0.2457  0.1210 -0.0398
  842BOLB   C1B20193  34.177  36.666  22.155 -0.0167  0.2109  0.2528
  842BOLB   C2B20194  34.393  37.033  22.106  0.0264 -0.2154 -0.0830
  842BOLB   C3B20195  34.699  37.239  22.235 -0.1208  0.0100 -0.6283
  842BOLB   C4B20196  34.957  37.259  22.654  0.0319  0.2123 -0.0461
  842BOLB   NC220197  34.387  40.119  21.822  0.2193  0.1238 -0.1103
  842BOLB   PO220198  34.777  40.088  21.842  0.0947  0.3519  0.2685
  842BOLB   GL320199  34.713  39.691  21.763 -0.0852 -0.0850 -0.2042
  842BOLB   GL420200  35.071  39.392  21.759  0.1498 -0.0074 -0.0849
  842BOLB   C1C20201  34.510  39.199  21.631  0.0208  0.2346  0.0368
  842BOLB   C2C20202  34.230  38.902  21.749 -0.3567 -0.0229 -0.0813
  842BOLB   C3C20203  33.949  38.532  21.902  0.1180 -0.3224  0.2666
  842BOLB   C4C20204  33.663  38.332  21.657  0.1204  0.0252 -0.2214
  842BOLB   C1D20205  35.117  39.034  21.408 -0.5509  0.0607 -0.2635
  842BOLB   C2D20206  35.018  38.609  21.288  0.1112 -0.0592  0.1272
  842BOLB   C3D20207  34.623  38.430  21.335  0.0934  0.2089 -0.1261
  842BOLB   C4D20208  34.382  38.199  21.118  0.1501 -0.3365  0.1899
  843BOLB   NC120209  32.855  24.594  25.774  0.0598  0.2276 -0.3501
  843BOLB   PO120210  32.425  24.488  25.841 -0.2783  0.0537  0.0162
  843BOLB   GL120211  32.627  24.282  26.163  0.1502  0.2699 -0.2777
  843BOLB   GL220212  32.961  24.196  26.093 -0.1563 -0.3634  0.1103
  843BOLB   C1A20213  32.716  23.819  26.402  0.3615  0.2005 -0.0582
  843BOLB   C2A20214  32.930  23.618  26.711 -0.0541 -0.5248  0.3533
  843BOLB   C3A20215  33.195  23.527   0.191  0.0439  0.0925  0.3351
  843BOLB   C4A20216  33.198  23.141   0.548  0.2019 -0.3684  0.0878
  843BOLB   C1B20217  33.243  23.964  26.022 -0.0747  0.2912 -0.4367
  843BOLB   C2B20218  33.590  23.769  26.053 -0.1912  0.0512 -0.1026
  843BOLB   C3B20219  33.739  23.457  25.932  0.0375  0.1703  0.3121
  843BOLB   C4B20220  33.621  23.357  25.547  0.0136  0.1148 -0.0377
  843BOLB   NC220221  32.882  21.957   2.386 -0.1778  0.0058 -0.1354
  843BOLB   PO220222  33.071  21.626   2.294  0.2404  0.1222  0.1794
  843BOLB   GL320223  32.868  21.762   1.885  0.0112 -0.0177  0.0151
  843BOLB   GL420224  32.561  21.779   1.900 -0.0284  0.0469 -0.3850
  843BOLB   C1C20225  32.745  22.012   1.477 -0.1504  0.2525 -0.2782
  843BOLB   C2C20226  33.079  22.213   1.410  0.2559 -0.0463 -0.0759
  843BOLB   C3C20227  32.897  22.627   1.260  0.3700 -0.1338 -0.5072
  843BOLB   C4C20228  33.068  23.034   1.027  0.1532 -0.0559 -0.2975
  843BOLB   C1D20229  32.456  22.226   1.899  0.0905  0.0063  0.1135
  843BOLB   C2D20230  32.785  22.578   1.921  0.2379 -0.0539 -0.1014
  843BOLB   C3D20231  32.975  23.036   1.961 -0.2525  0.3019 -0.1940
  843BOLB   C4D20232  33.052  23.406   1.880  0.0567 -0.0607  0.1260
  844BOLB   NC120233  33.022  23.846  24.800  0.2144  0.0245 -0.0327
  844BOLB   PO120234  32.702  23.631  24.694 -0.1873  0.2660  0.3438
  844BOLB   GL120235  33.018  23.320  24.763  0.0829  0.2440  0.0922
  844BOLB   GL220236  33.440  23.291  24.655  0.1306 -0.6076 -0.1032
  844BOLB   C1A20237  33.171  22.887  24.875 -0.2208 -0.2942 -0.3423
  844BOLB   C2A20238  33.444  22.482  24.942  0.2793  0.0353  0.0996
  844BOLB   C3A20239  33.608  22.022  25.019 -0.0461 -0.0204 -0.1809
  844BOLB   C4A20240  33.606  21.601  24.993 -0.1903  0.0308  0.0355
  844BOLB   C1B20241  33.737  23.184  24.400 -0.2205 -0.2835 -0.2661
  844BOLB   C2B20242  34.141  23.057  24.458 -0.0145 -0.1536 -0.1942
  844BOLB   C3B20243  34.366  22.752  24.667 -0.0248  0.0016  0.0444
  844BOLB   C4B20244  34.627  22.514  24.854 -0.0625  0.1334  0.2212
  844BOLB   NC220245  34.706  19.818  25.598 -0.0590  0.2285  0.1119
  844BOLB   PO220246  34.279  19.899  25.606  0.0569 -0.2211  0.0855
  844BOLB   GL320247  34.190  20.264  25.287 -0.0907 -0.3235  0.0286
  844BOLB   GL420248  34.219  20.468  25.537 -0.0674 -0.0495  0.1136
  844BOLB   C1C20249  33.735  20.245  25.223 -0.3529 -0.0943  0.1333
  844BOLB   C2C20250  33.344  20.474  25.131 -0.0456  0.0583 -0.2287
  844BOLB   C3C20251  33.340  20.873  25.036  0.0774 -0.0064 -0.0196
  844BOLB   C4C20252  33.431  21.210  24.857 -0.0796 -0.0721 -0.0030
  844BOLB   C1D20253  33.832  20.719  25.640  0.1063  0.0518  0.2810
  844BOLB   C2D20254  33.481  20.843  25.549 -0.0236  0.0941 -0.1346
  844BOLB   C3D20255  33.230  21.241  25.355 -0.3796 -0.2562 -0.0084
  844BOLB   C4D20256  33.206  21.765  25.320  0.2136 -0.2403 -0.2114
  845BOLB   NC120257  32.294  35.830  17.587  0.1917 -0.1872 -0.0314
  845BOLB   PO120258  32.476  35.794  17.980 -0.1211  0.1313  0.0360
  845BOLB   GL120259  32.638  36.115  17.744 -0.2009  0.1235  0.4931
  845BOLB   GL220260  32.983  36.150  17.726 -0.0555 -0.1881  0.1563
  845BOLB   C1A20261  32.607  36.498  17.562 -0.0486 -0.2008  0.0877
  845BOLB   C2A20262  32.466  36.888  17.366  0.0030 -0.0825 -0.1941
  845BOLB   C3A20263  32.751  37.183  17.102 -0.0278 -0.4654  0.3597
  845BOLB   C4A20264  33.013  37.488  16.827 -0.1187  0.3939  0.0396
  845BOLB   C1B20265  33.222  36.444  17.402  0.0894  0.4023  0.0421
  845BOLB   C2B20266  33.547  36.330  17.264  0.0087  0.1304 -0.1246
  845BOLB   C3B20267  33.886  36.572  17.134  0.1029  0.0833 -0.1813
  845BOLB   C4B20268  34.234  36.760  17.257 -0.3352 -0.0097  0.3571
  845BOLB   NC220269  33.903  39.818  16.866 -0.4238 -0.1246 -0.0151
  845BOLB   PO220270  34.128  39.448  16.698  0.3811 -0.2544  0.2716
  845BOLB   GL320271  34.040  39.133  16.876 -0.0084 -0.2193 -0.2440
  845BOLB   GL420272  34.082  39.332  17.194 -0.0009  0.0993 -0.0821
  845BOLB   C1C20273  33.844  38.817  17.117 -0.1591  0.0647  0.4545
  845BOLB   C2C20274  33.792  38.417  17.246 -0.1224 -0.0978 -0.0240
  845BOLB   C3C20275  33.511  38.045  17.187  0.0535  0.0587  0.0690
  845BOLB   C4C20276  33.348  37.737  16.931  0.3263  0.0843  0.1172
  845BOLB   C1D20277  33.766  39.192  17.503  0.0411  0.0806  0.0339
  845BOLB   C2D20278  33.415  38.981  17.436 -0.0310  0.3456 -0.0109
  845BOLB   C3D20279  33.384  38.670  17.175 -0.4333  0.0360 -0.1123
  845BOLB   C4D20280  33.318  38.358  16.848  0.0603 -0.0600 -0.0502
  846BOLB   NC120281  28.466  17.639   1.613  0.3010 -0.0840  0.0678
  846BOLB   PO120282  28.363  17.445   1.826  0.2693 -0.0362 -0.1492
  846BOLB   GL120283  27.979  17.788   1.625  0.2867 -0.4497  0.2008
  846BOLB   GL220284  27.967  17.873   1.234 -0.1347 -0.0619  0.1235
  846BOLB   C1A20285  27.674  18.222   1.479 -0.1638  0.0245 -0.1626
  846BOLB   C2A20286  27.413  18.506   1.273  0.4006  0.1573 -0.3386
  846BOLB   C3A20287  27.203  18.493   1.641  0.1950 -0.0312 -0.0553
  846BOLB   C4A20288  27.336  18.819   1.902 -0.1365  0.1618 -0.0268
  846BOLB   C1B20289  28.081  18.115   0.962  0.0584  0.0993  0.0395
  846BOLB   C2B20290  28.087  18.476   0.733  0.2419 -0.0289 -0.1202
  846BOLB   C3B20291  28.469  18.751   0.685  0.1314 -0.0349 -0.0417
  846BOLB   C4B20292  28.619  19.189   0.958 -0.1593  0.0105  0.0485
  846BOLB   NC220293  28.407  18.122   3.583 -0.1201 -0.0303  0.2979
  846BOLB   PO220294  28.571  18.476   3.968 -0.2027 -0.3403 -0.0402
  846BOLB   GL320295  28.420  18.763   3.630  0.2708 -0.2234 -0.1480
  846BOLB   GL420296  28.064  18.872   3.556 -0.3197 -0.2860  0.1819
  846BOLB   C1C20297  28.220  18.878   3.119  0.1490  0.1110 -0.5594
  846BOLB   C2C20298  27.814  19.073   2.958 -0.1056 -0.2107  0.1184
  846BOLB   C3C20299  27.683  19.118   2.576 -0.0617  0.0153 -0.1245
  846BOLB   C4C20300  27.504  18.801   2.272 -0.0715 -0.1055  0.0073
  846BOLB   C1D20301  28.023  19.182   3.467  0.3831 -0.0953  0.1485
  846BOLB   C2D20302  28.044  19.617   3.397  0.3202  0.2008 -0.2537
  846BOLB   C3D20303  28.274  19.969   3.058  0.2696  0.3027  0.1688
  846BOLB   C4D20304  28.300  20.362   3.158  0.1050 -0.0439  0.1718
  847BOLB   NC120305  27.801  24.555  15.322 -0.2374 -0.2215 -0.0137
  847BOLB   PO120306  28.225  24.301  15.310  0.3489  0.3403 -0.1018
  847BOLB   GL120307  28.152  24.257  14.979  0.0739 -0.1737 -0.1337
  847BOLB   GL220308  28.234  23.830  15.072 -0.3456 -0.0012 -0.0464
  847BOLB   C1A20309  28.214  24.382  14.595  0.1600 -0.1616 -0.2802
  847BOLB   C2A20310  28.280  24.429  14.207 -0.0374 -0.4861  0.1350
  847BOLB   C3A20311  28.274  24.262  13.821  0.0246  0.1666  0.0309
  847BOLB   C4A20312  28.035  24.019  13.656 -0.0563 -0.3086  0.0381
  847BOLB   C1B20313  28.010  23.532  14.793 -0.1912 -0.0666 -0.0729
  847BOLB   C2B20314  27.853  23.439  14.465  0.1151 -0.0863 -0.0851
  847BOLB   C3B20315  27.924  23.132  14.154 -0.0176  0.2033  0.0555
  847BOLB   C4B20316  28.066  22.901  13.772  0.0419 -0.0155 -0.1281
  847BOLB   NC220317  27.400  22.312  11.594  0.3316  0.0121 -0.0425
  847BOLB   PO220318  27.831  22.386  11.757 -0.0771 -0.0661  0.3234
  847BOLB   GL320319  27.884  22.496  12.236 -0.0795  0.1142  0.2473
  847BOLB   GL420320  28.195  22.558  12.253  0.1362  0.1929 -0.2185
  847BOLB   C1C20321  27.809  22.870  12.384  0.0914  0.3023  0.0356
  847BOLB   C2C20322  27.726  23.301  12.645  0.0361  0.0953 -0.1295
  847BOLB   C3C20323  27.744  23.570  12.986 -0.1788  0.0543  0.1684
  847BOLB   C4C20324  27.987  23.803  13.284  0.2537 -0.0824 -0.2282
  847BOLB   C1D20325  28.278  22.826  12.604 -0.3989 -0.0103 -0.0187
  847BOLB   C2D20326  28.211  23.291  12.756  0.0095  0.1274 -0.4510
  847BOLB   C3D20327  28.314  23.633  12.935 -0.0598 -0.1059  0.0846
  847BOLB   C4D20328  28.638  23.946  12.950 -0.1282  0.0775  0.2646
  848BOLB   NC120329  21.932  33.864  25.721 -0.1672  0.1643 -0.0109
  848BOLB   PO120330  21.550  34.053  25.627 -0.0941  0.0206  0.0140
  848BOLB   GL120331  21.110  34.031  25.688  0.0465  0.0644  0.3512
  848BOLB   GL220332  20.868  33.714  25.743 -0.0860  0.0865  0.2339
  848BOLB   C1A20333  21.029  34.107  26.105  0.0699 -0.0298  0.2512
  848BOLB   C2A20334  20.686  34.323  26.460 -0.1499  0.4586 -0.2060
  848BOLB   C3A20335  20.523  33.972  26.809  0.0478  0.0774  0.3191
  848BOLB   C4A20336  20.229  33.933   0.120  0.4564 -0.1000 -0.3184
  848BOLB   C1B20337  20.531  33.870  26.007  0.2186 -0.0734  0.1471
  848BOLB   C2B20338  20.202  34.197  26.190  0.0333  0.2235  0.0057
  848BOLB   C3B20339  20.208  34.561  26.542 -0.0307  0.3375  0.0572
  848BOLB   C4B20340  20.013  34.832  26.870  0.0423 -0.0952 -0.2303
  848BOLB   NC220341  19.496  34.341   2.320  0.2802 -0.2086 -0.0340
  848BOLB   PO220342  19.069  34.403   2.127  0.2005  0.2091 -0.0662
  848BOLB   GL320343  19.355  34.214   1.841 -0.0993  0.2340 -0.0489
  848BOLB   GL420344  19.716  34.101   1.804  0.0556 -0.2896  0.2384
  848BOLB   C1C20345  19.484  33.983   1.396  0.1162 -0.1410  0.0365
  848BOLB   C2C20346  19.395  34.321   1.068  0.3195  0.1070 -0.2577
  848BOLB   C3C20347  19.563  34.354   0.607  0.0611 -0.1022 -0.1520
  848BOLB   C4C20348  19.812  34.141   0.357 -0.0731  0.1051 -0.2614
  848BOLB   C1D20349  19.856  34.316   1.525  0.2754 -0.1613  0.1308
  848BOLB   C2D20350  20.239  34.372   1.255  0.2730 -0.1998  0.1130
  848BOLB   C3D20351  20.623  34.165   1.021  0.0214  0.1670 -0.1483
  848BOLB   C4D20352  20.954  33.917   0.714  0.0850  0.0719 -0.1243
  849BOLB   NC120353  32.308  27.904   1.470  0.0970 -0.0113 -0.1263
  849BOLB   PO120354  32.504  28.293   1.174  0.0524 -0.0431  0.0868
  849BOLB   GL120355  32.589  28.286   1.653  0.0172 -0.0577 -0.0978
  849BOLB   GL220356  32.981  28.334   1.628 -0.2030  0.0160 -0.1133
  849BOLB   C1A20357  32.817  28.191   2.052  0.3117  0.4634  0.0119
  849BOLB   C2A20358  32.931  28.185   2.436 -0.1008 -0.0425 -0.0396
  849BOLB   C3A20359  33.072  28.227   2.826 -0.2749 -0.1830 -0.0849
  849BOLB   C4A20360  33.539  28.310   2.921  0.0616  0.1107 -0.0988
  849BOLB   C1B20361  33.257  28.239   1.954 -0.1446 -0.1151  0.1108
  849BOLB   C2B20362  33.698  28.081   2.063 -0.2360 -0.2515 -0.0378
  849BOLB   C3B20363  34.129  28.259   2.151  0.0947  0.1272 -0.0084
  849BOLB   C4B20364  34.567  28.307   2.152  0.1144  0.0064 -0.2556
  849BOLB   NC220365  35.312  27.727   4.273  0.1026 -0.1649  0.0574
  849BOLB   PO220366  35.644  28.025   4.237  0.3325 -0.1470 -0.4099
  849BOLB   GL320367  35.256  28.216   4.079  0.1123 -0.0159 -0.0345
  849BOLB   GL420368  35.231  27.980   3.849 -0.2180 -0.0661  0.3990
  849BOLB   C1C20369  34.783  28.258   4.024 -0.0731 -0.3944 -0.1577
  849BOLB   C2C20370  34.450  28.332   3.701  0.1210 -0.0089 -0.1389
  849BOLB   C3C20371  34.339  28.151   3.223 -0.1092 -0.0699  0.0762
  849BOLB   C4C20372  33.825  28.108   3.080 -0.1374 -0.2163  0.3490
  849BOLB   C1D20373  35.382  27.831   3.397  0.0517 -0.3462  0.1117
  849BOLB   C2D20374  35.411  27.727   2.996 -0.1247  0.1001  0.1319
  849BOLB   C3D20375  35.218  27.637   2.662 -0.1284  0.3800  0.0418
  849BOLB   C4D20376  34.934  27.872   2.375  0.0869 -0.1925 -0.1498
  850BOLB   NC120377  34.287  35.515  21.047  0.0687  0.1156  0.1348
  850BOLB   PO120378  33.932  35.729  20.897  0.0471 -0.4767  0.3385
  850BOLB   GL120379  34.260  35.994  20.767  0.3743 -0.0001 -0.1321
  850BOLB   GL220380  34.252  36.003  21.134 -0.0937 -0.1736  0.1608
  850BOLB   C1A20381  34.492  36.396  20.679  0.2194  0.3011  0.0567
  850BOLB   C2A20382  34.719  36.747  20.614  0.1880 -0.0255  0.0079
  850BOLB   C3A20383  34.653  37.075  20.365  0.0233  0.0024  0.0532
  850BOLB   C4A20384  34.506  37.550  20.271 -0.2547 -0.1306  0.1081
  850BOLB   C1B20385  34.681  36.100  21.005  0.1619 -0.0728 -0.0977
  850BOLB   C2B20386  34.923  36.468  21.035 -0.0749 -0.3023  0.1396
  850BOLB   C3B20387  35.111  36.825  21.083 -0.0150 -0.4342  0.2015
  850BOLB   C4B20388  35.087  37.181  21.115 -0.1186  0.2168  0.0175
  850BOLB   NC220389  34.920  39.690  20.278 -0.2979 -0.1753 -0.0109
  850BOLB   PO220390  35.335  39.616  20.203  0.1283 -0.0138  0.2774
  850BOLB   GL320391  35.187  39.124  20.377  0.0038  0.2171  0.0831
  850BOLB   GL420392  34.927  39.150  20.447 -0.1858 -0.0490 -0.2317
  850BOLB   C1C20393  35.090  38.711  20.363  0.1020 -0.3552  0.2930
  850BOLB   C2C20394  35.139  38.513  20.023 -0.1247  0.0357 -0.1987
  850BOLB   C3C20395  35.022  38.054  20.002 -0.1916  0.2216 -0.2695
  850BOLB   C4C20396  34.689  37.819  20.094 -0.0184 -0.1179  0.3418
  850BOLB   C1D20397  34.747  39.058  20.025  0.1382  0.0917  0.0969
  850BOLB   C2D20398  34.825  38.772  19.575 -0.2906 -0.0778  0.2251
  850BOLB   C3D20399  34.481  38.796  19.159 -0.0058  0.2827 -0.2867
  850BOLB   C4D20400  34.040  38.665  18.915 -0.0489  0.0706 -0.0782
  851BOLB   NC120401  26.951  20.930  19.680  0.0069  0.1153 -0.1213
  851BOLB   PO120402  26.657  21.157  19.424  0.1056 -0.2753 -0.0372
  851BOLB   GL120403  26.684  20.663  19.348  0.1133  0.3811 -0.2174
  851BOLB   GL220404  26.493  20.485  19.237  0.0719  0.2203  0.2594
  851BOLB   C1A20405  26.813  20.658  18.850  0.1432 -0.3044 -0.3259
  851BOLB   C2A20406  26.981  20.511  18.413 -0.1084  0.1353 -0.0152
  851BOLB   C3A20407  26.704  20.305  18.061  0.0612 -0.3604 -0.0521
  851BOLB   C4A20408  26.839  19.959  17.618 -0.2350  0.0397  0.0460
  851BOLB   C1B20409  26.247  20.428  18.763 -0.0230 -0.1837  0.3019
  851BOLB   C2B20410  26.337  20.072  18.465  0.1193  0.1208  0.0466
  851BOLB   C3B20411  26.301  19.974  18.131  0.0543 -0.4300  0.0364
  851BOLB   C4B20412  26.449  19.775  17.790 -0.0785 -0.4332 -0.2413
  851BOLB   NC220413  27.098  17.687  16.885 -0.0947  0.1820 -0.2608
  851BOLB   PO220414  27.034  18.081  16.659  0.1485 -0.2039 -0.0838
  851BOLB   GL320415  27.036  18.533  16.645  0.0529  0.1634  0.1948
  851BOLB   GL420416  26.803  18.506  16.891 -0.1759 -0.1547  0.4032
  851BOLB   C1C20417  27.143  18.916  16.672 -0.0104  0.1753  0.1206
  851BOLB   C2C20418  27.414  19.315  16.736 -0.1023  0.2228 -0.2806
  851BOLB   C3C20419  27.271  19.709  16.928 -0.1965  0.0542  0.2551
  851BOLB   C4C20420  26.927  19.740  17.251 -0.0591 -0.0920 -0.1860
  851BOLB   C1D20421  26.859  18.774  17.192 -0.4394  0.0612 -0.0584
  851BOLB   C2D20422  26.933  19.174  17.212  0.0857  0.1029 -0.0629
  851BOLB   C3D20423  27.375  19.351  17.312 -0.0564  0.0744  0.1467
  851BOLB   C4D20424  27.443  19.716  17.396  0.1200  0.4716  0.1681
  852BOLB   NC120425  28.609  22.177  17.908  0.0181 -0.1679 -0.0217
  852BOLB   PO120426  28.879  22.309  18.145  0.1311 -0.3818  0.1575
  852BOLB   GL120427  28.997  21.903  18.132  0.1945  0.0193 -0.0894
  852BOLB   GL220428  29.255  21.913  18.382  0.3748 -0.0265  0.1118
  852BOLB   C1A20429  29.140  21.613  17.926 -0.0800  0.0723 -0.0871
  852BOLB   C2A20430  29.187  21.304  17.653 -0.0942  0.0885 -0.2946
  852BOLB   C3A20431  29.464  21.132  17.430  0.1112 -0.2941 -0.0703
  852BOLB   C4A20432  29.834  21.007  17.427 -0.5288 -0.1641 -0.3373
  852BOLB   C1B20433  29.534  21.570  18.233 -0.1317 -0.3047 -0.0418
  852BOLB   C2B20434  29.579  21.329  17.931 -0.0877 -0.1644 -0.1825
  852BOLB   C3B20435  29.714  20.984  17.891 -0.2133 -0.0914  0.1305
  852BOLB   C4B20436  29.956  20.629  18.200  0.0561 -0.0230  0.0898
  852BOLB   NC220437  30.134  19.048  16.605 -0.1673  0.1203  0.0513
  852BOLB   PO220438  29.870  18.825  16.948  0.1843 -0.0011  0.0933
  852BOLB   GL320439  30.003  19.155  17.230 -0.1311 -0.3666  0.1383
  852BOLB   GL420440  30.052  18.896  17.572 -0.1885  0.1198  0.0290
  852BOLB   C1C20441  30.217  19.517  17.124  0.1130  0.0473 -0.0792
  852BOLB   C2C20442  30.135  20.006  17.183  0.0029 -0.3529 -0.0263
  852BOLB   C3C20443  30.148  20.395  17.403  0.0014 -0.1568 -0.0136
  852BOLB   C4C20444  30.009  20.690  17.607 -0.1367 -0.0319 -0.1820
  852BOLB   C1D20445  30.216  19.221  17.804  0.1311 -0.0758  0.0643
  852BOLB   C2D20446  30.205  19.506  18.066 -0.3109 -0.2995 -0.0607
  852BOLB   C3D20447  30.172  19.863  18.101  0.0470  0.2044  0.0088
  852BOLB   C4D20448  30.222  20.170  18.185 -0.1375 -0.0584  0.2595
  853BOLB   NC120449  24.471  37.014  22.437 -0.0974 -0.3826  0.0920
  853BOLB   PO120450  24.870  37.124  22.267 -0.1435 -0.2822 -0.1639
  853BOLB   GL120451  24.638  37.574  22.298 -0.0926 -0.0253  0.0147
  853BOLB   GL220452  24.971  37.707  22.178  0.3378  0.0530 -0.1198
  853BOLB   C1A20453  24.289  37.914  22.373  0.1249 -0.0132  0.1452
  853BOLB   C2A20454  24.068  38.267  22.338 -0.1069 -0.0442 -0.0048
  853BOLB   C3A20455  24.036  38.613  22.353 -0.0607  0.2681  0.0415
  853BOLB   C4A20456  24.047  39.095  22.346  0.0571  0.0759 -0.2373
  853BOLB   C1B20457  24.802  38.004  22.432  0.2550 -0.0771  0.1188
  853BOLB   C2B20458  24.617  38.372  22.379 -0.1533  0.2172 -0.0270
  853BOLB   C3B20459  24.535  38.730  22.464  0.4052  0.2823 -0.0428
  853BOLB   C4B20460  24.510  39.129  22.305  0.0689 -0.0904  0.1246
  853BOLB   NC220461  23.255  41.105  22.001 -0.0154  0.0290 -0.2654
  853BOLB   PO220462  23.562  41.420  22.344 -0.1204 -0.0372  0.3249
  853BOLB   GL320463  23.768  41.125  22.223 -0.0804 -0.1865 -0.2992
  853BOLB   GL420464  24.068  41.222  22.234 -0.0019 -0.0894 -0.0356
  853BOLB   C1C20465  23.747  40.723  22.283 -0.1902 -0.2750 -0.2230
  853BOLB   C2C20466  23.755  40.257  22.213 -0.3604 -0.0998  0.2706
  853BOLB   C3C20467  23.594  39.821  22.244 -0.2368  0.1930 -0.2720
  853BOLB   C4C20468  23.827  39.479  22.247  0.2688 -0.0205  0.1522
  853BOLB   C1D20469  24.165  40.834  21.986  0.4013  0.1452  0.0380
  853BOLB   C2D20470  24.326  40.919  21.603 -0.0017  0.1835 -0.0367
  853BOLB   C3D20471  24.388  40.577  21.309  0.1951 -0.0589 -0.2215
  853BOLB   C4D20472  24.323  40.173  21.245  0.2377  0.1038  0.1031
  854BOLB   NC120473  20.142  31.759  18.910  0.2464  0.2105 -0.1316
  854BOLB   PO120474  20.190  31.223  18.988  0.1340  0.0127  0.2632
  854BOLB   GL120475  19.856  31.308  18.929 -0.0438  0.0860 -0.3453
  854BOLB   GL220476  19.678  31.500  18.747  0.1951  0.0018  0.1016
  854BOLB   C1A20477  19.454  31.225  19.045  0.3928  0.1340 -0.0941
  854BOLB   C2A20478  19.043  31.357  19.030  0.0919 -0.0327 -0.0809
  854BOLB   C3A20479  18.635  31.481  19.025 -0.2982  0.0166 -0.1174
  854BOLB   C4A20480  18.125  31.607  19.116 -0.1135 -0.0350  0.3748
  854BOLB   C1B20481  19.412  31.401  18.574  0.1267 -0.2725 -0.1663
  854BOLB   C2B20482  18.953  31.478  18.363 -0.2051 -0.0393  0.0202
  854BOLB   C3B20483  18.604  31.394  18.231 -0.4862  0.0095 -0.3925
  854BOLB   C4B20484  18.085  31.413  18.099  0.0145 -0.1161  0.2287
  854BOLB   NC220485  15.816  32.843  19.202  0.0283 -0.0339 -0.1664
  854BOLB   PO220486  16.139  32.856  19.358  0.1693 -0.1508 -0.0545
  854BOLB   GL320487  16.432  32.642  19.223 -0.2192 -0.2976  0.0280
  854BOLB   GL420488  16.511  32.718  18.931 -0.1578 -0.0709  0.4459
  854BOLB   C1C20489  16.672  32.331  19.411 -0.1401  0.3375 -0.1129
  854BOLB   C2C20490  16.977  32.133  19.475  0.0829  0.0514  0.2634
  854BOLB   C3C20491  17.198  31.840  19.224 -0.1152  0.5033 -0.1209
  854BOLB   C4C20492  17.676  31.738  19.225  0.0649 -0.2855  0.0433
  854BOLB   C1D20493  16.938  32.711  19.158  0.0793  0.0174 -0.2396
  854BOLB   C2D20494  17.363  32.556  19.367 -0.2730 -0.0940 -0.0961
  854BOLB   C3D20495  17.670  32.410  19.699  0.1223  0.0937 -0.0243
  854BOLB   C4D20496  18.045  32.445  19.831 -0.2200  0.0899 -0.1134
  855BOLB   NC120497  21.281  31.761   0.312 -0.1716  0.1312  0.0971
  855BOLB   PO120498  21.401  31.427  26.907  0.2579 -0.0550 -0.1688
  855BOLB   GL120499  21.142  31.233   0.379 -0.0934  0.3277  0.1288
  855BOLB   GL220500  21.120  30.920   0.323  0.1579  0.3420  0.5731
  855BOLB   C1A20501  20.715  31.090   0.644 -0.0138 -0.4625 -0.0458
  855BOLB   C2A20502  20.421  31.141   0.901 -0.0885 -0.0099  0.3252
  855BOLB   C3A20503  20.233  31.425   1.146 -0.2814  0.1097 -0.0005
  855BOLB   C4A20504  19.907  31.677   1.313  0.0976  0.2051  0.0283
  855BOLB   C1B20505  20.814  30.754   0.309 -0.4680 -0.5037  0.0157
  855BOLB   C2B20506  20.576  30.340   0.353  0.0479 -0.0197 -0.0217
  855BOLB   C3B20507  20.319  29.851   0.311 -0.1852  0.0492  0.0307
  855BOLB   C4B20508  20.119  29.561   0.375  0.3654  0.0926  0.2107
  855BOLB   NC220509  17.119  32.345   1.922  0.2374 -0.0398 -0.0637
  855BOLB   PO220510  17.510  32.517   1.823  0.0909 -0.1500 -0.2231
  855BOLB   GL320511  17.900  32.226   1.731  0.2007 -0.0535  0.2405
  855BOLB   GL420512  17.797  31.988   1.451  0.0254  0.2748 -0.4164
  855BOLB   C1C20513  18.290  32.123   1.657  0.2199 -0.1026 -0.1659
  855BOLB   C2C20514  18.739  32.034   1.460  0.3661 -0.2630  0.2273
  855BOLB   C3C20515  19.205  32.068   1.432 -0.2270 -0.1523 -0.0263
  855BOLB   C4C20516  19.656  31.959   1.237 -0.0100  0.1515 -0.1740
  855BOLB   C1D20517  18.124  31.832   1.253  0.0808 -0.2528 -0.2969
  855BOLB   C2D20518  18.415  31.699   1.178  0.0158 -0.1875 -0.4356
  855BOLB   C3D20519  18.675  31.328   0.962 -0.3883  0.2686  0.1347
  855BOLB   C4D20520  19.121  31.337   0.797  0.0885  0.0244 -0.3362
  856BOLB   NC120521  26.494  21.165  20.410 -0.0549  0.1078  0.1340
  856BOLB   PO120522  26.452  21.170  19.936 -0.0867 -0.2094  0.1818
  856BOLB   GL120523  26.199  20.820  20.194  0.0171 -0.0089 -0.2301
  856BOLB   GL220524  25.940  20.903  20.002  0.3081  0.2652 -0.1074
  856BOLB   C1A20525  26.274  20.411  20.229 -0.3205  0.1511 -0.0338
  856BOLB   C2A20526  26.342  19.999  20.102  0.1107 -0.0330 -0.0178
  856BOLB   C3A20527  26.545  19.530  20.149 -0.2702  0.1573 -0.0792
  856BOLB   C4A20528  26.919  19.321  20.368 -0.1173 -0.3358  0.1619
  856BOLB   C1B20529  25.940  20.525  19.847  0.1782  0.1945 -0.0999
  856BOLB   C2B20530  25.982  20.113  19.743 -0.3627 -0.1253  0.3597
  856BOLB   C3B20531  26.043  19.817  19.481 -0.1523 -0.2121 -0.0564
  856BOLB   C4B20532  26.258  19.546  19.617 -0.1458 -0.0305  0.0481
  856BOLB   NC220533  27.083  17.371  19.953  0.2090 -0.1764  0.0139
  856BOLB   PO220534  26.613  17.133  20.036  0.1432  0.0833 -0.1501
  856BOLB   GL320535  26.699  17.456  20.345  0.2403  0.2849 -0.2624
  856BOLB   GL420536  26.553  17.453  20.656  0.0554 -0.1047  0.0670
  856BOLB   C1C20537  26.558  17.909  20.375  0.1371 -0.1428 -0.0181
  856BOLB   C2C20538  26.574  18.285  20.660 -0.1481  0.1926 -0.1112
  856BOLB   C3C20539  26.788  18.648  20.614 -0.0080 -0.1342  0.1668
  856BOLB   C4C20540  26.992  18.978  20.501 -0.1120  0.4283 -0.0101
  856BOLB   C1D20541  26.190  17.843  20.704  0.2259 -0.2955  0.0925
  856BOLB   C2D20542  26.151  18.271  20.832 -0.2035 -0.0929  0.1927
  856BOLB   C3D20543  26.289  18.678  20.814 -0.2812  0.0522  0.0188
  856BOLB   C4D20544  26.449  19.052  20.532 -0.1580  0.0989  0.4521
  857BOLB   NC120545  35.240  27.385  20.878 -0.0200 -0.1591 -0.2539
  857BOLB   PO120546  35.136  26.919  20.779 -0.1696  0.0541 -0.1812
  857BOLB   GL120547  35.445  26.600  20.659 -0.0102 -0.3151  0.2341
  857BOLB   GL220548  35.270  26.315  20.391  0.0273 -0.3012 -0.0250
  857BOLB   C1A20549  35.802  26.485  20.833 -0.1703  0.0504  0.1083
  857BOLB   C2A20550  35.985  26.309  21.109  0.2357  0.0854  0.2774
  857BOLB   C3A20551  36.370  26.121  21.166 -0.0131 -0.0924  0.0263
  857BOLB   C4A20552  36.838  25.967  21.341 -0.1126 -0.3110  0.0813
  857BOLB   C1B20553  35.763  26.194  20.391  0.4054 -0.1589 -0.2883
  857BOLB   C2B20554  35.859  25.770  20.359  0.2893  0.0342  0.1627
  857BOLB   C3B20555  36.092  25.455  20.378  0.3636  0.5113  0.2682
  857BOLB   C4B20556  36.060  25.088  20.441 -0.0530 -0.2919 -0.2031
  857BOLB   NC220557  39.154  24.542  21.537 -0.1679 -0.0186 -0.3655
  857BOLB   PO220558  39.037  24.914  21.341  0.0955 -0.5168 -0.1422
  857BOLB   GL320559  38.638  24.956  21.358  0.1485 -0.3267  0.2334
  857BOLB   GL420560  38.447  24.980  21.638 -0.1458 -0.0440 -0.2772
  857BOLB   C1C20561  38.200  25.216  21.201  0.0561  0.1735  0.0328
  857BOLB   C2C20562  37.820  25.284  21.353 -0.1427  0.0956  0.0594
  857BOLB   C3C20563  37.331  25.288  21.398  0.3284 -0.0076  0.0635
  857BOLB   C4C20564  37.060  25.566  21.542 -0.1995  0.0288 -0.0838
  857BOLB   C1D20565  38.162  25.291  21.875 -0.2093 -0.3359  0.0102
  857BOLB   C2D20566  38.230  25.560  22.169 -0.0862  0.0237  0.1530
  857BOLB   C3D20567  38.137  25.954  22.381 -0.0533 -0.0514  0.0978
  857BOLB   C4D20568  38.279  26.365  22.262 -0.1370 -0.1822 -0.0372
  858BOLB   NC120569  33.109  34.812  25.755  0.0797 -0.0445  0.0198
  858BOLB   PO120570  33.211  35.128  25.624 -0.1325  0.0026  0.4505
  858BOLB   GL120571  33.509  35.329  25.930 -0.0911 -0.0500 -0.0738
  858BOLB   GL220572  33.350  35.097  26.155  0.1362  0.0187  0.0031
  858BOLB   C1A20573  33.658  35.766  25.961  0.0455  0.1365 -0.4325
  858BOLB   C2A20574  33.453  36.067  26.177 -0.1407 -0.1830 -0.1898
  858BOLB   C3A20575  33.307  36.293  26.480  0.0825  0.2385  0.4002
  858BOLB   C4A20576  33.289  36.663  26.781  0.0476 -0.1745 -0.3449
  858BOLB   C1B20577  33.450  35.436  26.430  0.0707  0.0351  0.0136
  858BOLB   C2B20578  33.825  35.853  26.406  0.1354 -0.1135 -0.1275
  858BOLB   C3B20579  33.994  36.155  26.115 -0.0336  0.1889  0.3588
  858BOLB   C4B20580  33.964  36.578  26.070  0.2999  0.1690 -0.0098
  858BOLB   NC220581  34.234  37.154   2.132 -0.1378 -0.1299 -0.4588
  858BOLB   PO220582  34.045  37.483   1.949  0.0767 -0.4162 -0.0078
  858BOLB   GL320583  33.775  37.472   1.542  0.0050 -0.0389  0.0098
  858BOLB   GL420584  33.716  37.707   1.254 -0.2371  0.3103 -0.0487
  858BOLB   C1C20585  33.262  37.478   1.357  0.4341 -0.5274  0.4892
  858BOLB   C2C20586  33.150  37.287   0.935  0.2696 -0.1754 -0.0283
  858BOLB   C3C20587  33.374  37.080   0.500  0.0005 -0.2041 -0.0418
  858BOLB   C4C20588  33.288  36.825   0.299 -0.0160 -0.0526 -0.1278
  858BOLB   C1D20589  33.864  37.345   1.028  0.1516  0.1682 -0.1765
  858BOLB   C2D20590  33.812  37.314   0.604  0.4337 -0.0516 -0.1109
  858BOLB   C3D20591  33.592  37.466   0.309  0.0710  0.0995 -0.1323
  858BOLB   C4D20592  33.216  37.287  26.901  0.0322 -0.3639 -0.4310
  859BOLB   NC120593  38.222  36.473  19.868 -0.2473  0.0714 -0.0740
  859BOLB   PO120594  38.253  36.051  19.605  0.0449 -0.0938 -0.0881
  859BOLB   GL120595  37.877  35.972  19.693  0.1827 -0.0868 -0.2612
  859BOLB   GL220596  37.693  36.261  19.592  0.1429  0.2376  0.1134
  859BOLB   C1A20597  37.704  36.078  20.072  0.1552  0.0481 -0.0582
  859BOLB   C2A20598  37.248  35.947  20.254 -0.1195 -0.1624  0.2082
  859BOLB   C3A20599  36.776  35.774  20.376 -0.1713  0.2666  0.2055
  859BOLB   C4A20600  36.652  35.856  20.632  0.0563  0.0089  0.0543
  859BOLB   C1B20601  37.378  35.868  19.792 -0.0829 -0.2013 -0.0464
  859BOLB   C2B20602  37.067  35.556  19.971 -0.1106 -0.1997 -0.0002
  859BOLB   C3B20603  36.653  35.528  19.983  0.2616 -0.0820 -0.3365
  859BOLB   C4B20604  36.303  35.528  20.336  0.2785  0.0712 -0.0321
  859BOLB   NC220605  37.412  37.450  21.384  0.2947  0.1370  0.3104
  859BOLB   PO220606  37.769  37.331  21.631 -0.0914 -0.0447 -0.0166
  859BOLB   GL320607  37.396  37.156  21.782 -0.4770  0.0322  0.1027
  859BOLB   GL420608  37.404  37.119  22.082  0.4214  0.0556  0.1461
  859BOLB   C1C20609  37.072  36.895  21.658 -0.1067 -0.0269  0.1659
  859BOLB   C2C20610  36.783  36.684  21.453  0.2012 -0.0973  0.2416
  859BOLB   C3C20611  36.425  36.477  21.217 -0.1128 -0.2495 -0.1339
  859BOLB   C4C20612  36.346  36.073  20.900 -0.0477 -0.0566 -0.2904
  859BOLB   C1D20613  37.393  36.625  22.143  0.2402  0.0762 -0.2146
  859BOLB   C2D20614  37.422  36.258  22.381  0.0428 -0.1207 -0.0504
  859BOLB   C3D20615  37.361  35.787  22.743  0.1121 -0.1530 -0.2543
  859BOLB   C4D20616  37.145  35.443  22.832 -0.1570  0.3289  0.0584
  860BOLB   NC120617  20.818  27.850  19.106 -0.1070 -0.1719  0.0396
  860BOLB   PO120618  20.319  27.913  18.983  0.0869 -0.1069 -0.0885
  860BOLB   GL120619  19.869  27.751  18.830  0.1224  0.0002  0.1745
  860BOLB   GL220620  19.830  27.516  18.610 -0.0585  0.0460  0.1656
  860BOLB   C1A20621  19.421  27.767  18.926  0.0210  0.1090 -0.1660
  860BOLB   C2A20622  19.008  28.090  18.899  0.3197 -0.0225 -0.0278
  860BOLB   C3A20623  18.544  28.245  18.789  0.1630  0.0626  0.0762
  860BOLB   C4A20624  18.126  28.158  18.756 -0.1673 -0.0985  0.1701
  860BOLB   C1B20625  19.402  27.416  18.562  0.3435 -0.0062  0.0573
  860BOLB   C2B20626  19.140  27.440  18.203  0.1049 -0.0329 -0.0810
  860BOLB   C3B20627  18.794  27.670  18.064 -0.0037 -0.1114 -0.1769
  860BOLB   C4B20628  18.380  27.777  17.860  0.2745 -0.1416  0.1137
  860BOLB   NC220629  16.509  28.529  16.636 -0.0893  0.1613  0.1752
  860BOLB   PO220630  16.758  28.745  16.885 -0.3332  0.1179 -0.1829
  860BOLB   GL320631  17.051  28.618  17.254  0.1861  0.3397  0.1945
  860BOLB   GL420632  17.121  28.956  17.239 -0.1155 -0.4748  0.1151
  860BOLB   C1C20633  17.450  28.645  17.348  0.0059  0.0589  0.0887
  860BOLB   C2C20634  17.671  28.629  17.731  0.1397 -0.2087  0.2148
  860BOLB   C3C20635  18.048  28.494  17.964  0.1758  0.0863 -0.0780
  860BOLB   C4C20636  17.903  28.361  18.404  0.1272  0.1647 -0.1756
  860BOLB   C1D20637  17.454  29.285  17.260 -0.1768 -0.0619 -0.0081
  860BOLB   C2D20638  17.740  29.155  17.606 -0.3685 -0.0437 -0.2572
  860BOLB   C3D20639  18.082  29.336  17.830  0.1050  0.0720  0.1415
  860BOLB   C4D20640  18.372  29.400  18.030 -0.0633  0.0758  0.2891
  861BOLB   NC120641  29.068  37.895  24.117 -0.2726 -0.1792 -0.2147
  861BOLB   PO120642  29.317  38.123  24.376  0.0902 -0.0090  0.0375
  861BOLB   GL120643  29.447  38.484  24.409  0.3779 -0.1951  0.2749
  861BOLB   GL220644  29.530  38.562  24.141  0.1275 -0.0370 -0.0174
  861BOLB   C1A20645  29.763  38.838  24.536  0.2946  0.3419 -0.3652
  861BOLB   C2A20646  30.007  39.127  24.750 -0.3556  0.1839  0.1609
  861BOLB   C3A20647  30.267  39.317  25.062 -0.0453 -0.1635  0.0571
  861BOLB   C4A20648  30.295  39.535  25.402 -0.2527  0.0664 -0.1022
  861BOLB   C1B20649  29.113  38.876  24.330  0.1388  0.2791  0.3528
  861BOLB   C2B20650  28.897  39.223  24.603 -0.1835  0.1590 -0.0677
  861BOLB   C3B20651  28.614  39.586  24.595 -0.1016  0.1362 -0.1483
  861BOLB   C4B20652  28.155  39.737  24.541 -0.1185 -0.0287  0.1990
  861BOLB   NC220653  29.942  40.496   0.864 -0.1120  0.1494 -0.3146
  861BOLB   PO220654  30.205  40.317   0.586  0.0832 -0.2234 -0.2885
  861BOLB   GL320655  30.395  40.008   0.325  0.2335 -0.3482 -0.1915
  861BOLB   GL420656  30.466  39.778   0.501 -0.0962  0.0284 -0.0558
  861BOLB   C1C20657  30.343  39.845  26.804  0.1964  0.0564 -0.1787
  861BOLB   C2C20658  30.217  39.797  26.403 -0.1124 -0.1268 -0.3948
  861BOLB   C3C20659  30.139  39.661  26.041 -0.1224  0.0088  0.1521
  861BOLB   C4C20660  30.208  39.371  25.791  0.1936 -0.0793 -0.0647
  861BOLB   C1D20661  30.619  39.349   0.479  0.2605  0.1505  0.1900
  861BOLB   C2D20662  30.688  38.939   0.363 -0.0485  0.0328  0.1788
  861BOLB   C3D20663  30.679  38.474   0.225  0.1290 -0.0260  0.0104
  861BOLB   C4D20664  30.579  38.322  26.759  0.0980  0.1417 -0.0894
  862BOLB   NC120665  34.035  35.132  23.388 -0.0189 -0.1583 -0.0482
  862BOLB   PO120666  33.652  34.952  23.744  0.1672 -0.2651  0.0034
  862BOLB   GL120667  33.985  35.153  23.970  0.2896  0.0821 -0.0189
  862BOLB   GL220668  33.903  35.483  23.847 -0.2905 -0.3013  0.0317
  862BOLB   C1A20669  34.400  35.445  24.141 -0.2307 -0.1729  0.0746
  862BOLB   C2A20670  34.741  35.601  24.262 -0.0888 -0.2326 -0.2672
  862BOLB   C3A20671  34.990  35.901  24.343 -0.0415 -0.2286 -0.1222
  862BOLB   C4A20672  34.862  36.355  24.242 -0.0099  0.2812 -0.1115
  862BOLB   C1B20673  34.229  35.793  23.834 -0.0419 -0.0868  0.0376
  862BOLB   C2B20674  34.647  36.013  23.939  0.0007 -0.0822  0.0291
  862BOLB   C3B20675  34.940  36.331  23.716  0.3084 -0.0283 -0.1798
  862BOLB   C4B20676  34.955  36.696  23.473  0.1412  0.3023  0.0804
  862BOLB   NC220677  36.957  37.956  25.847  0.0789 -0.1042  0.2596
  862BOLB   PO220678  36.661  37.711  25.538 -0.0969 -0.1516 -0.1777
  862BOLB   GL320679  36.205  37.718  25.309 -0.0101 -0.0085  0.2737
  862BOLB   GL420680  36.059  37.946  25.074  0.0181  0.0539 -0.0625
  862BOLB   C1C20681  35.773  37.508  25.155  0.1012 -0.1047  0.0573
  862BOLB   C2C20682  35.527  37.401  24.751  0.1614  0.0958 -0.1366
  862BOLB   C3C20683  35.180  37.179  24.536  0.0472  0.0125 -0.1421
  862BOLB   C4C20684  34.897  36.894  24.380  0.0656  0.0054 -0.1701
  862BOLB   C1D20685  36.160  37.512  24.863 -0.0937  0.1051  0.4132
  862BOLB   C2D20686  35.949  37.129  24.665  0.0946 -0.0790  0.3777
  862BOLB   C3D20687  35.598  36.893  24.549  0.1147 -0.0610 -0.0535
  862BOLB   C4D20688  35.241  36.576  24.521  0.0188 -0.0413 -0.1316
  863BOLB   NC120689  21.640  33.415  26.401  0.1186  0.1466 -0.2296
  863BOLB   PO120690  21.551  33.084  26.675 -0.3640  0.0942 -0.1515
  863BOLB   GL120691  21.427  33.217   0.153 -0.1895 -0.5704  0.3231
  863BOLB   GL220692  21.366  32.996   0.466  0.0727 -0.2578  0.2693
  863BOLB   C1A20693  21.057  33.446   0.322 -0.2818  0.1492 -0.0292
  863BOLB   C2A20694  20.573  33.591   0.479  0.0995  0.0918 -0.4685
  863BOLB   C3A20695  20.087  33.593   0.438  0.6843  0.0505 -0.1188
  863BOLB   C4A20696  19.689  33.365   0.554  0.1246  0.1023 -0.1262
  863BOLB   C1B20697  21.362  33.364   0.758  0.3242 -0.1583 -0.1094
  863BOLB   C2B20698  21.364  33.686   0.824  0.1487 -0.0713 -0.2058
  863BOLB   C3B20699  21.461  34.035   1.116  0.0062 -0.2720  0.0059
  863BOLB   C4B20700  21.528  34.141   1.582  0.1125  0.1208  0.1794
  863BOLB   NC220701  17.822  32.878   1.928 -0.2278  0.2023 -0.0061
  863BOLB   PO220702  18.003  33.036   1.582 -0.0846 -0.3904  0.1575
  863BOLB   GL320703  18.360  32.803   1.375  0.1134 -0.2763 -0.0006
  863BOLB   GL420704  18.293  32.698   1.785  0.2201  0.1687  0.4268
  863BOLB   C1C20705  18.400  32.699   0.985 -0.2862 -0.1667  0.0086
  863BOLB   C2C20706  18.799  32.682   0.802  0.2046 -0.0056  0.0637
  863BOLB   C3C20707  19.171  32.820   0.838  0.0741 -0.3018  0.0383
  863BOLB   C4C20708  19.463  33.033   0.690  0.3862 -0.1022 -0.0469
  863BOLB   C1D20709  18.736  32.511   1.633  0.1881  0.2078  0.0240
  863BOLB   C2D20710  19.046  32.528   1.235 -0.2152  0.1759  0.2067
  863BOLB   C3D20711  19.485  32.522   1.127  0.2905 -0.1489 -0.0492
  863BOLB   C4D20712  19.667  32.181   0.690 -0.3989  0.2922  0.1403
  864BOLB   NC120713  22.120  30.623   0.564  0.0882 -0.1630 -0.0800
  864BOLB   PO120714  22.290  30.808   0.965  0.1777 -0.0071  0.0538
  864BOLB   GL120715  21.942  31.031   1.260 -0.2630  0.4309  0.1936
  864BOLB   GL220716  21.768  31.279   1.128 -0.0128 -0.1005  0.2768
  864BOLB   C1A20717  21.627  31.069   1.552  0.0107  0.3465 -0.3545
  864BOLB   C2A20718  21.241  30.931   1.823  0.1597  0.0477  0.0981
  864BOLB   C3A20719  20.918  30.919   2.189 -0.0954 -0.0219 -0.2065
  864BOLB   C4A20720  20.631  30.892   2.563 -0.2916  0.0508  0.1524
  864BOLB   C1B20721  21.465  31.524   1.313 -0.3185  0.0789 -0.1820
  864BOLB   C2B20722  21.189  31.446   1.594  0.1228 -0.0029  0.2090
  864BOLB   C3B20723  20.744  31.299   1.914  0.0224  0.0796 -0.4269
  864BOLB   C4B20724  20.360  31.204   2.236  0.1068  0.0881 -0.1581
  864BOLB   NC220725  19.223  32.255   4.481  0.3432  0.0541  0.0590
  864BOLB   PO220726  19.202  32.287   4.066  0.0810  0.0604 -0.0172
  864BOLB   GL320727  19.304  31.990   3.751  0.0312  0.0122 -0.0428
  864BOLB   GL420728  19.525  32.197   3.487  0.0021  0.1882 -0.0719
  864BOLB   C1C20729  19.600  31.754   3.789  0.0950  0.0691 -0.0190
  864BOLB   C2C20730  19.902  31.640   3.497  0.0640 -0.1778 -0.3544
  864BOLB   C3C20731  20.049  31.479   3.030  0.1752  0.0754 -0.0794
  864BOLB   C4C20732  20.371  31.206   2.821 -0.1317  0.1305 -0.2433
  864BOLB   C1D20733  19.914  32.193   3.589 -0.3657 -0.1288  0.0616
  864BOLB   C2D20734  20.274  32.250   3.391  0.1133  0.1053  0.0236
  864BOLB   C3D20735  20.594  32.087   3.313  0.1604 -0.2330  0.4115
  864BOLB   C4D20736  20.783  32.128   2.883 -0.3426 -0.1470 -0.2814
  865BOLB   NC120737  33.738  25.632  18.048  0.2061  0.1542  0.1053
  865BOLB   PO120738  33.662  25.751  17.739  0.0545  0.2365  0.1684
  865BOLB   GL120739  33.721  25.453  17.361  0.0583 -0.1584  0.1859
  865BOLB   GL220740  33.455  25.384  17.255 -0.1183  0.3211  0.0084
  865BOLB   C1A20741  33.986  25.220  17.099  0.0155  0.1606 -0.1277
  865BOLB   C2A20742  34.407  25.107  16.947 -0.0041  0.1557 -0.0545
  865BOLB   C3A20743  34.547  24.752  16.774 -0.2773 -0.0532  0.0532
  865BOLB   C4A20744  34.738  24.451  16.406  0.0571  0.2491  0.1837
  865BOLB   C1B20745  33.477  25.175  16.888 -0.1320 -0.1189 -0.1895
  865BOLB   C2B20746  33.525  24.969  16.460 -0.0709  0.3784  0.2662
  865BOLB   C3B20747  33.781  24.605  16.299 -0.4791 -0.3237 -0.0124
  865BOLB   C4B20748  34.230  24.544  16.407 -0.3357 -0.3618  0.1756
  865BOLB   NC220749  35.404  23.129  15.254  0.0960 -0.0511 -0.3916
  865BOLB   PO220750  35.696  23.357  14.975  0.0689  0.0123  0.1714
  865BOLB   GL320751  35.599  23.635  15.247 -0.2719  0.3545 -0.0286
  865BOLB   GL420752  35.530  23.900  15.218 -0.2186  0.0014 -0.1461
  865BOLB   C1C20753  35.579  23.864  15.699  0.1206 -0.3837 -0.0868
  865BOLB   C2C20754  35.471  24.172  15.762  0.2932 -0.0757  0.3428
  865BOLB   C3C20755  35.343  24.478  16.006  0.1278 -0.4417  0.2832
  865BOLB   C4C20756  35.085  24.546  16.256  0.2436  0.0790 -0.1433
  865BOLB   C1D20757  35.168  23.730  15.419  0.0099  0.3055  0.4462
  865BOLB   C2D20758  34.856  23.821  15.717 -0.0791  0.0041  0.1462
  865BOLB   C3D20759  34.357  23.959  15.773  0.2267 -0.1023 -0.0719
  865BOLB   C4D20760  34.068  24.240  15.952  0.0768  0.2063 -0.0014
  866BOLB   NC120761  29.074  38.184  23.350  0.4191 -0.0148 -0.0220
  866BOLB   PO120762  28.898  38.177  23.707  0.0531  0.1651 -0.0510
  866BOLB   GL120763  29.091  38.603  23.712 -0.1289  0.4518  0.0359
  866BOLB   GL220764  28.843  38.776  23.554 -0.0910  0.1361 -0.2088
  866BOLB   C1A20765  29.334  38.920  23.930 -0.0731  0.0749  0.2625
  866BOLB   C2A20766  29.448  39.177  24.238 -0.1171  0.1686  0.2453
  866BOLB   C3A20767  29.679  39.436  24.609 -0.2085 -0.0989 -0.1210
  866BOLB   C4A20768  29.756  39.496  25.005 -0.2145  0.3264  0.2819
  866BOLB   C1B20769  28.943  39.132  23.708 -0.0749  0.0955 -0.0581
  866BOLB   C2B20770  29.089  39.420  24.116  0.4015  0.0286  0.5155
  866BOLB   C3B20771  29.184  39.697  24.348 -0.0532  0.1690 -0.2262
  866BOLB   C4B20772  29.032  40.021  24.497 -0.0924 -0.2745 -0.1921
  866BOLB   NC220773  29.459  41.932  25.723 -0.0263  0.1050  0.0366
  866BOLB   PO220774  29.456  41.900  25.218 -0.0739  0.1643 -0.0767
  866BOLB   GL320775  29.374  41.506  25.146  0.2939  0.5082 -0.0573
  866BOLB   GL420776  29.572  41.411  25.439  0.1268 -0.3178 -0.2140
  866BOLB   C1C20777  29.681  41.242  24.931  0.1314 -0.0435 -0.2396
  866BOLB   C2C20778  29.631  40.742  24.916  0.2486  0.0527 -0.1098
  866BOLB   C3C20779  29.859  40.329  25.012 -0.1478 -0.0741  0.1409
  866BOLB   C4C20780  29.959  39.946  25.087 -0.3106  0.0759 -0.1098
  866BOLB   C1D20781  29.396  40.948  25.380  0.1261 -0.1818 -0.1469
  866BOLB   C2D20782  29.188  40.715  25.624 -0.1116 -0.1520 -0.0530
  866BOLB   C3D20783  29.026  40.325  25.760  0.0150  0.0325  0.0188
  866BOLB   C4D20784  28.919  40.030  26.070 -0.0023 -0.2763 -0.1513
  867BOLB   NC120785  37.937  33.092  14.881 -0.1798 -0.1364 -0.4581
  867BOLB   PO120786  37.729  33.219  15.227  0.0111  0.2617 -0.1356
  867BOLB   GL120787  37.366  33.276  15.461 -0.3769 -0.1442  0.2600
  867BOLB   GL220788  37.243  33.562  15.271 -0.0939  0.1591 -0.0631
  867BOLB   C1A20789  37.091  33.535  15.712  0.2659  0.2701 -0.1431
  867BOLB   C2A20790  36.658  33.489  15.866 -0.0173 -0.0782  0.1772
  867BOLB   C3A20791  36.264  33.238  15.951 -0.0981 -0.0497  0.0588
  867BOLB   C4A20792  35.877  33.420  15.912  0.0528  0.2749  0.0913
  867BOLB   C1B20793  36.760  33.432  15.355 -0.1258 -0.1976 -0.1415
  867BOLB   C2B20794  36.377  33.253  15.463 -0.1161 -0.1938 -0.1318
  867BOLB   C3B20795  35.943  33.334  15.430 -0.1110 -0.1358  0.1751
  867BOLB   C4B20796  35.536  33.513  15.439  0.2306  0.0926  0.2340
  867BOLB   NC220797  37.632  34.431  13.939 -0.0316  0.0506 -0.2858
  867BOLB   PO220798  37.388  34.174  14.343 -0.1908  0.0786  0.0558
  867BOLB   GL320799  36.997  34.010  14.577 -0.2387 -0.3202 -0.2039
  867BOLB   GL420800  37.161  33.991  14.944  0.5718  0.2601 -0.1513
  867BOLB   C1C20801  36.529  34.108  14.640  0.2821 -0.1808 -0.0924
  867BOLB   C2C20802  36.104  34.078  14.912  0.5279 -0.0096  0.0325
  867BOLB   C3C20803  35.859  33.866  15.324 -0.1571 -0.0037  0.1732
  867BOLB   C4C20804  35.700  33.836  15.785  0.0556  0.0888  0.3781
  867BOLB   C1D20805  36.756  33.835  15.020 -0.2285 -0.1599 -0.0612
  867BOLB   C2D20806  36.362  33.697  15.196  0.1188  0.0411  0.2093
  867BOLB   C3D20807  36.194  34.172  15.477  0.0444 -0.2149  0.1441
  867BOLB   C4D20808  36.022  34.273  15.809  0.3085  0.1363 -0.0577
  868BOLB   NC120809  25.605  32.621  14.115  0.0776  0.1632 -0.0130
  868BOLB   PO120810  25.975  32.517  13.887  0.0098 -0.3479  0.1316
  868BOLB   GL120811  25.953  32.624  13.442 -0.2908 -0.2276  0.3400
  868BOLB   GL220812  25.824  32.346  13.335  0.0234  0.2140 -0.0060
  868BOLB   C1A20813  25.992  32.981  13.254 -0.0158 -0.3450 -0.0231
  868BOLB   C2A20814  25.927  33.326  13.124  0.1130  0.3141  0.2562
  868BOLB   C3A20815  25.823  33.631  12.777 -0.0730  0.0435 -0.0240
  868BOLB   C4A20816  25.681  34.069  12.560  0.4092  0.2024  0.1675
  868BOLB   C1B20817  25.757  32.625  12.999 -0.0954  0.0338  0.0340
  868BOLB   C2B20818  25.691  32.848  12.696  0.3334  0.1468  0.3823
  868BOLB   C3B20819  25.927  33.200  12.576 -0.0339 -0.1702  0.0540
  868BOLB   C4B20820  26.312  33.425  12.760  0.2951 -0.2360 -0.1449
  868BOLB   NC220821  24.572  35.797  10.925  0.1679  0.2853  0.0758
  868BOLB   PO220822  24.454  35.885  11.261 -0.2421  0.3422  0.0293
  868BOLB   GL320823  24.618  35.449  11.276 -0.1249 -0.0569  0.0486
  868BOLB   GL420824  24.299  35.183  11.362 -0.1766 -0.2734  0.1872
  868BOLB   C1C20825  24.818  35.040  11.374  0.1228 -0.2224 -0.1419
  868BOLB   C2C20826  25.005  34.650  11.540  0.2305  0.1864 -0.3364
  868BOLB   C3C20827  25.241  34.447  11.902  0.0982  0.2329  0.0138
  868BOLB   C4C20828  25.413  34.250  12.195 -0.1407 -0.1616 -0.0763
  868BOLB   C1D20829  24.404  35.135  11.724 -0.0280 -0.3078 -0.1517
  868BOLB   C2D20830  24.634  35.063  12.000  0.1816  0.0104  0.1392
  868BOLB   C3D20831  24.573  34.833  12.344 -0.1190  0.1089  0.0581
  868BOLB   C4D20832  24.360  34.547  12.749 -0.1061  0.0938 -0.1199
  869BOLB   NC120833  22.134  35.209  19.384  0.0955 -0.3895 -0.0671
  869BOLB   PO120834  22.267  35.357  19.018  0.0105 -0.2233  0.0561
  869BOLB   GL120835  21.928  35.551  19.080  0.2236  0.0735  0.0890
  869BOLB   GL220836  21.697  35.469  19.080 -0.1716 -0.0935 -0.1566
  869BOLB   C1A20837  22.042  35.909  18.778  0.4265 -0.0351 -0.1859
  869BOLB   C2A20838  21.806  36.172  18.570  0.0787  0.0871  0.3642
  869BOLB   C3A20839  21.850  36.615  18.247 -0.0729  0.2090 -0.2149
  869BOLB   C4A20840  21.825  36.920  17.919  0.3486  0.5279  0.1515
  869BOLB   C1B20841  21.512  35.852  19.011 -0.0410 -0.3417  0.0390
  869BOLB   C2B20842  21.247  36.115  18.791  0.1647 -0.0032  0.1062
  869BOLB   C3B20843  20.866  36.372  18.589 -0.0853  0.1753  0.0424
  869BOLB   C4B20844  20.876  36.675  18.292 -0.2638 -0.1239 -0.0844
  869BOLB   NC220845  21.582  39.044  16.844  0.0112 -0.0478 -0.0535
  869BOLB   PO220846  21.842  39.212  17.107  0.2770  0.3867  0.0765
  869BOLB   GL320847  22.137  38.773  17.174  0.0133 -0.2260 -0.2362
  869BOLB   GL420848  22.423  38.993  17.281 -0.3374 -0.1039 -0.1406
  869BOLB   C1C20849  22.076  38.325  17.164 -0.2530  0.0990  0.1157
  869BOLB   C2C20850  21.921  37.874  17.215  0.1964  0.3138  0.1097
  869BOLB   C3C20851  21.809  37.431  17.247 -0.3011  0.0690  0.4556
  869BOLB   C4C20852  21.891  37.196  17.616 -0.0915  0.0227  0.0082
  869BOLB   C1D20853  22.630  38.534  17.237 -0.2639  0.0590 -0.3327
  869BOLB   C2D20854  22.944  38.328  17.026 -0.1267 -0.3895 -0.3049
  869BOLB   C3D20855  23.085  37.957  16.696 -0.1202 -0.0195 -0.0376
  869BOLB   C4D20856  22.851  37.666  16.769 -0.1005  0.0902 -0.0420
  870BOLB   NC120857  24.205  28.578  14.832  0.0534 -0.0719  0.0302
  870BOLB   PO120858  24.037  28.747  14.365 -0.0345  0.2172  0.1113
  870BOLB   GL120859  23.821  28.501  14.132 -0.0377 -0.0277 -0.1418
  870BOLB   GL220860  23.671  28.591  13.872  0.3116 -0.1269  0.0791
  870BOLB   C1A20861  23.782  28.162  13.766  0.3019  0.1497  0.2838
  870BOLB   C2A20862  23.578  27.762  13.750 -0.0775 -0.0759 -0.3074
  870BOLB   C3A20863  23.594  27.336  13.420 -0.2642 -0.0830 -0.0851
  870BOLB   C4A20864  23.331  27.033  13.254  0.3051  0.3198  0.1030
  870BOLB   C1B20865  23.574  28.440  13.412  0.0721  0.2162  0.4117
  870BOLB   C2B20866  23.497  28.453  12.942 -0.1209  0.0580 -0.0170
  870BOLB   C3B20867  23.363  28.003  12.775  0.1299  0.1956  0.0238
  870BOLB   C4B20868  23.179  27.591  12.907  0.2685 -0.1303  0.1328
  870BOLB   NC220869  22.858  26.995  10.574  0.1998  0.0682  0.3113
  870BOLB   PO220870  23.341  26.897  10.729 -0.1856  0.0960 -0.1065
  870BOLB   GL320871  23.380  27.086  11.191  0.0301  0.3013 -0.1757
  870BOLB   GL420872  23.620  27.241  11.314 -0.1778 -0.1559  0.2613
  870BOLB   C1C20873  23.184  26.986  11.655  0.0241  0.2170  0.3319
  870BOLB   C2C20874  23.315  26.711  12.062 -0.0259 -0.0373  0.0691
  870BOLB   C3C20875  23.206  26.795  12.466 -0.2796 -0.2221 -0.1736
  870BOLB   C4C20876  23.279  26.826  12.857  0.0633 -0.0585 -0.1032
  870BOLB   C1D20877  23.560  27.274  11.826 -0.1339 -0.0970 -0.0917
  870BOLB   C2D20878  23.379  27.188  12.174 -0.0407  0.1941 -0.0207
  870BOLB   C3D20879  23.085  27.264  12.472  0.1792  0.0776 -0.0230
  870BOLB   C4D20880  22.792  27.148  12.846  0.1892 -0.1058 -0.2585
  871BOLB   NC120881  22.236  34.658  25.567 -0.1286 -0.1414 -0.3970
  871BOLB   PO120882  22.011  34.606  25.230  0.1992  0.1687  0.1364
  871BOLB   GL120883  21.618  34.656  25.501  0.2154 -0.0855 -0.3429
  871BOLB   GL220884  21.462  34.472  25.431  0.3910 -0.0019  0.1877
  871BOLB   C1A20885  21.391  34.960  25.624  0.0994 -0.1193  0.2085
  871BOLB   C2A20886  21.139  35.051  25.895  0.1506 -0.0362 -0.0492
  871BOLB   C3A20887  20.959  35.414  26.039 -0.1105  0.1102 -0.0537
  871BOLB   C4A20888  20.685  35.776  26.148 -0.4934 -0.2280  0.0238
  871BOLB   C1B20889  21.067  34.519  25.543 -0.4070  0.0967  0.1526
  871BOLB   C2B20890  20.773  34.839  25.557  0.1722  0.0502 -0.0271
  871BOLB   C3B20891  20.520  35.136  25.785  0.3419  0.2381  0.0709
  871BOLB   C4B20892  20.054  35.245  25.944 -0.0811 -0.1076 -0.1074
  871BOLB   NC220893  19.474  37.797  26.538 -0.0867  0.0520 -0.1421
  871BOLB   PO220894  19.660  37.638  26.848 -0.0474 -0.1534  0.0626
  871BOLB   GL320895  20.092  37.500  26.830 -0.0531 -0.1241 -0.1233
  871BOLB   GL420896  20.058  37.457   0.215  0.0441 -0.2352 -0.1274
  871BOLB   C1C20897  20.272  37.314  26.667 -0.5743 -0.3370 -0.1896
  871BOLB   C2C20898  20.676  37.112  26.521 -0.1509  0.0457 -0.1982
  871BOLB   C3C20899  20.889  36.645  26.372 -0.2532  0.0876 -0.2049
  871BOLB   C4C20900  20.711  36.234  26.370  0.0535  0.1111  0.0154
  871BOLB   C1D20901  20.432  37.513   0.380  0.0907 -0.0556 -0.0411
  871BOLB   C2D20902  20.750  37.828   0.452 -0.0935 -0.0669  0.1650
  871BOLB   C3D20903  21.096  37.873   0.725 -0.2203  0.0785  0.2417
  871BOLB   C4D20904  21.230  37.966   1.115  0.0075 -0.0284  0.3320
  872BOLB   NC120905  26.903  22.478  18.247 -0.0504 -0.0562  0.1750
  872BOLB   PO120906  26.437  22.465  17.884  0.1195 -0.2436  0.0125
  872BOLB   GL120907  26.344  22.277  17.456 -0.2805 -0.2054 -0.0953
  872BOLB   GL220908  26.077  22.239  17.441 -0.2128 -0.0778 -0.1077
  872BOLB   C1A20909  26.342  21.977  17.052  0.2453 -0.0183 -0.0804
  872BOLB   C2A20910  26.524  21.654  16.829 -0.2424  0.1031 -0.1168
  872BOLB   C3A20911  26.496  21.166  16.571 -0.0040  0.1430  0.2665
  872BOLB   C4A20912  26.654  20.754  16.384 -0.3088  0.1992 -0.0808
  872BOLB   C1B20913  26.163  21.775  17.510 -0.1317  0.0729 -0.0177
  872BOLB   C2B20914  26.304  21.519  17.312  0.0498  0.2130  0.3161
  872BOLB   C3B20915  26.066  21.403  16.939  0.2404  0.0395 -0.0878
  872BOLB   C4B20916  25.806  21.179  16.721 -0.0171 -0.0088  0.3281
  872BOLB   NC220917  27.003  19.588  14.191 -0.1233  0.0692 -0.3148
  872BOLB   PO220918  27.166  19.265  14.422  0.2967 -0.1871 -0.1571
  872BOLB   GL320919  27.231  19.538  14.805 -0.0722 -0.3286 -0.0143
  872BOLB   GL420920  27.458  19.859  14.867 -0.1795 -0.0626  0.3559
  872BOLB   C1C20921  27.257  19.585  15.218  0.3232  0.1302  0.3368
  872BOLB   C2C20922  27.326  20.027  15.382  0.0137 -0.1818 -0.3501
  872BOLB   C3C20923  27.016  20.322  15.738  0.1046  0.0207  0.0540
  872BOLB   C4C20924  26.826  20.500  16.038 -0.0864 -0.3628 -0.1107
  872BOLB   C1D20925  27.749  20.118  14.771  0.1177 -0.1298  0.0724
  872BOLB   C2D20926  27.790  20.514  14.767 -0.1614 -0.0351  0.2374
  872BOLB   C3D20927  27.745  20.783  15.094 -0.1085 -0.0745  0.4675
  872BOLB   C4D20928  27.799  20.919  15.462  0.1229  0.1289 -0.2207
  873BOLB   NC120929  33.321  26.949  26.320 -0.1361  0.0158 -0.2549
  873BOLB   PO120930  33.412  27.037  26.825  0.1348 -0.1798  0.1397
  873BOLB   GL120931  33.368  26.927   0.248  0.2264 -0.4244  0.3038
  873BOLB   GL220932  33.420  26.638   0.296  0.2075  0.3094 -0.1639
  873BOLB   C1A20933  33.643  27.100   0.519 -0.3052  0.1833 -0.2818
  873BOLB   C2A20934  33.956  27.212   0.653  0.1162 -0.0889  0.2173
  873BOLB   C3A20935  34.172  27.503   1.001 -0.0655 -0.4589 -0.1119
  873BOLB   C4A20936  34.337  27.616   1.296 -0.1721  0.3074 -0.1395
  873BOLB   C1B20937  33.585  26.338   0.603  0.1029  0.0149  0.3395
  873BOLB   C2B20938  33.959  26.239   0.798  0.4456 -0.1556 -0.0682
  873BOLB   C3B20939  34.316  26.245   0.539 -0.0726 -0.0876 -0.1522
  873BOLB   C4B20940  34.199  26.094   0.149  0.4400  0.2345 -0.0950
  873BOLB   NC220941  36.577  27.203   2.937  0.0636 -0.0522  0.1642
  873BOLB   PO220942  36.242  27.530   3.014 -0.0457  0.0993 -0.3918
  873BOLB   GL320943  35.895  27.476   2.704 -0.0793  0.0501 -0.0365
  873BOLB   GL420944  35.901  27.150   2.416  0.0910 -0.0584  0.1941
  873BOLB   C1C20945  35.598  27.653   2.380 -0.0265 -0.2354 -0.0125
  873BOLB   C2C20946  35.419  27.789   2.081  0.2048  0.0078  0.3418
  873BOLB   C3C20947  35.077  27.743   1.774 -0.1281 -0.0601 -0.2809
  873BOLB   C4C20948  34.699  27.623   1.557 -0.1533 -0.0140 -0.2896
  873BOLB   C1D20949  35.648  27.238   2.074  0.2628 -0.0325 -0.1850
  873BOLB   C2D20950  35.318  27.165   1.819 -0.2413 -0.0451 -0.1503
  873BOLB   C3D20951  34.937  27.019   1.563 -0.2477  0.1857  0.0128
  873BOLB   C4D20952  34.930  26.796   1.172  0.1583  0.0170  0.0723
  874BOLB   NC120953  23.974  19.932   5.791 -0.4499 -0.0238 -0.2657
  874BOLB   PO120954  24.428  19.939   5.934  0.2084 -0.2318 -0.2557
  874BOLB   GL120955  24.508  20.346   5.725  0.0580  0.1120  0.0373
  874BOLB   GL220956  24.669  20.707   5.717  0.0916 -0.0487 -0.3088
  874BOLB   C1A20957  24.174  20.649   5.486  0.0362 -0.1086  0.1732
  874BOLB   C2A20958  24.266  20.700   4.989 -0.0421 -0.3116  0.1598
  874BOLB   C3A20959  24.664  20.696   4.793  0.1131  0.1198 -0.1679
  874BOLB   C4A20960  24.758  20.387   4.464 -0.1478  0.1943 -0.0208
  874BOLB   C1B20961  24.371  21.067   5.868  0.1143  0.1019 -0.2579
  874BOLB   C2B20962  24.036  21.206   5.636  0.0266 -0.3705 -0.0733
  874BOLB   C3B20963  23.935  21.243   5.275 -0.2310  0.2984 -0.1777
  874BOLB   C4B20964  23.973  21.512   4.982  0.2254  0.3109  0.1693
  874BOLB   NC220965  23.307  18.372   4.173  0.0421 -0.0913  0.0490
  874BOLB   PO220966  23.666  18.528   4.102  0.0783  0.2509 -0.2540
  874BOLB   GL320967  23.897  18.939   4.092  0.2635  0.3706 -0.1586
  874BOLB   GL420968  24.117  18.828   3.915  0.2803 -0.1598  0.3946
  874BOLB   C1C20969  24.104  19.339   3.978 -0.0860  0.1082  0.0668
  874BOLB   C2C20970  24.091  19.784   3.909 -0.0398  0.1270  0.1200
  874BOLB   C3C20971  24.248  20.092   4.084  0.1055 -0.0834  0.5891
  874BOLB   C4C20972  24.470  20.032   4.344  0.4235 -0.6537  0.3086
  874BOLB   C1D20973  24.160  19.105   3.463 -0.1087 -0.0799 -0.0487
  874BOLB   C2D20974  24.288  19.292   3.087 -0.0033 -0.1043 -0.0118
  874BOLB   C3D20975  24.503  19.305   2.698  0.0618  0.2561  0.0949
  874BOLB   C4D20976  24.318  19.530   2.363  0.1439  0.2629  0.1905
  875BOLB   NC120977  31.036  33.195   1.444  0.0336  0.2900 -0.0163
  875BOLB   PO120978  31.043  32.844   1.824 -0.1864  0.3430  0.1454
  875BOLB   GL120979  31.179  32.951   2.199  0.3709 -0.1773 -0.2926
  875BOLB   GL220980  31.467  32.963   2.254 -0.0476 -0.0419  0.1340
  875BOLB   C1A20981  31.331  33.294   2.548 -0.1048 -0.0128 -0.2993
  875BOLB   C2A20982  31.435  33.450   2.882 -0.2115 -0.2489 -0.2536
  875BOLB   C3A20983  31.707  33.541   3.202  0.2033 -0.0475  0.2498
  875BOLB   C4A20984  31.542  33.557   3.562  0.1407 -0.2220  0.2115
  875BOLB   C1B20985  31.817  33.188   2.343  0.1367  0.1226 -0.0621
  875BOLB   C2B20986  32.000  33.367   2.740 -0.4024 -0.2441  0.0066
  875BOLB   C3B20987  32.232  33.511   3.128 -0.1711 -0.0102  0.2720
  875BOLB   C4B20988  32.724  33.443   3.219  0.3053 -0.2430 -0.0878
  875BOLB   NC220989  32.195  32.860   5.900  0.1077  0.0880 -0.3397
  875BOLB   PO220990  32.121  33.347   5.893 -0.2717  0.1621  0.0975
  875BOLB   GL320991  31.940  33.158   5.564  0.1925 -0.0287 -0.0105
  875BOLB   GL420992  32.127  32.949   5.321  0.2102  0.0782 -0.0836
  875BOLB   C1C20993  31.601  33.275   5.276  0.1013 -0.4093  0.1450
  875BOLB   C2C20994  31.596  33.573   4.853 -0.1948  0.1723 -0.1624
  875BOLB   C3C20995  31.584  33.516   4.396 -0.0333  0.1101 -0.0331
  875BOLB   C4C20996  31.619  33.426   3.976 -0.1159  0.2202  0.0642
  875BOLB   C1D20997  32.294  32.825   4.923  0.2464 -0.0054 -0.1105
  875BOLB   C2D20998  31.991  32.659   4.501  0.0109  0.0874 -0.1252
  875BOLB   C3D20999  31.921  32.461   4.088  0.1143  0.2318  0.1328
  875BOLB   C4D21000  31.864  32.096   3.743  0.0140  0.0909  0.3296
  876BOLB   NC121001  25.284  23.137  17.969  0.2108 -0.0068  0.2002
  876BOLB   PO121002  25.192  22.801  17.620  0.3783 -0.0482 -0.2333
  876BOLB   GL121003  25.182  22.497  17.365 -0.3082 -0.1761 -0.0068
  876BOLB   GL221004  25.219  22.511  17.054  0.1747  0.0671 -0.0640
  876BOLB   C1A21005  24.903  22.123  17.283  0.2998  0.0039  0.1157
  876BOLB   C2A21006  24.783  21.839  16.968  0.4046  0.0815 -0.3043
  876BOLB   C3A21007  24.565  21.543  16.797  0.3387  0.1008 -0.0680
  876BOLB   C4A21008  24.172  21.556  16.532 -0.2627  0.1976 -0.0927
  876BOLB   C1B21009  25.235  22.076  16.925 -0.1890  0.1111 -0.0491
  876BOLB   C2B21010  25.081  21.860  16.570 -0.1908 -0.2223  0.2627
  876BOLB   C3B21011  24.957  21.434  16.437  0.2233 -0.0094 -0.0219
  876BOLB   C4B21012  24.810  21.010  16.467 -0.0237 -0.0632 -0.3148
  876BOLB   NC221013  23.441  19.578  15.978 -0.0282 -0.0976 -0.2911
  876BOLB   PO221014  23.150  19.886  15.822 -0.0465 -0.2432 -0.1386
  876BOLB   GL321015  23.380  20.179  15.919 -0.1060 -0.0800  0.0857
  876BOLB   GL421016  23.489  20.180  16.153  0.0550 -0.0224 -0.1580
  876BOLB   C1C21017  23.418  20.660  15.888 -0.1861  0.3521  0.1357
  876BOLB   C2C21018  23.527  20.900  16.137  0.0808 -0.0781 -0.0958
  876BOLB   C3C21019  23.582  21.245  16.056 -0.0617  0.1771  0.1141
  876BOLB   C4C21020  23.857  21.513  16.233  0.2217  0.2925 -0.2105
  876BOLB   C1D21021  23.333  20.618  16.460  0.2138  0.2127 -0.1867
  876BOLB   C2D21022  23.133  20.974  16.453  0.1670  0.1902 -0.0534
  876BOLB   C3D21023  23.008  21.353  16.629  0.2326  0.0846 -0.1417
  876BOLB   C4D21024  22.880  21.717  16.933 -0.2436  0.2345 -0.1227
  877BOLB   NC121025  35.563  30.220  24.676  0.3067 -0.0807 -0.1276
  877BOLB   PO121026  35.648  30.627  24.728  0.3183 -0.3511 -0.0401
  877BOLB   GL121027  35.915  30.701  25.005  0.0303 -0.4579 -0.1954
  877BOLB   GL221028  36.130  30.401  24.885 -0.1356 -0.0816 -0.1968
  877BOLB   C1A21029  36.359  30.766  25.309 -0.2236 -0.2150  0.1614
  877BOLB   C2A21030  36.852  30.699  25.462  0.1065 -0.3035 -0.1736
  877BOLB   C3A21031  37.162  30.624  25.682 -0.1886 -0.1244  0.0320
  877BOLB   C4A21032  37.369  30.776  26.011 -0.0405  0.2826  0.0329
  877BOLB   C1B21033  36.469  30.410  24.934  0.2249  0.0965  0.0328
  877BOLB   C2B21034  36.769  30.587  24.953 -0.0603 -0.1464  0.0290
  877BOLB   C3B21035  37.208  30.582  25.014 -0.2195  0.0778  0.3043
  877BOLB   C4B21036  37.580  30.698  24.766  0.1758 -0.1001 -0.0899
  877BOLB   NC221037  39.326  29.631  26.533  0.0387  0.1606 -0.1923
  877BOLB   PO221038  39.463  30.039  26.622  0.0165 -0.1338  0.1780
  877BOLB   GL321039  39.022  30.072  26.425 -0.4636  0.0349 -0.2772
  877BOLB   GL421040  38.915  29.816  26.307  0.2742  0.0569 -0.4754
  877BOLB   C1C21041  38.605  30.270  26.612  0.3120 -0.3229  0.2272
  877BOLB   C2C21042  38.210  30.225  26.509  0.3273  0.0782  0.1577
  877BOLB   C3C21043  37.900  30.370  26.284  0.0957 -0.0053  0.1430
  877BOLB   C4C21044  37.609  30.706  26.312  0.1152 -0.1029  0.3430
  877BOLB   C1D21045  38.629  30.263  26.078 -0.5758  0.2507  0.4349
  877BOLB   C2D21046  38.728  30.590  25.900  0.0366 -0.3655 -0.2778
  877BOLB   C3D21047  38.783  31.067  25.822  0.1633 -0.4045 -0.3619
  877BOLB   C4D21048  39.144  31.294  25.731  0.2285  0.2686  0.0664
  878BOLB   NC121049  19.689  30.466  20.621 -0.0900 -0.1829  0.2137
  878BOLB   PO121050  19.591  30.658  21.056  0.2281 -0.1339 -0.0863
  878BOLB   GL121051  19.247  30.402  20.794 -0.0878 -0.1409 -0.1316
  878BOLB   GL221052  19.133  30.264  20.511 -0.2890 -0.1393 -0.1322
  878BOLB   C1A21053  18.814  30.162  20.865  0.0337 -0.1095  0.0650
  878BOLB   C2A21054  18.276  30.077  20.856 -0.3005  0.0058  0.0097
  878BOLB   C3A21055  17.816  30.229  21.022 -0.1492  0.1185 -0.0530
  878BOLB   C4A21056  17.344  30.317  21.117 -0.1994  0.2731  0.0247
  878BOLB   C1B21057  18.809  30.215  20.262 -0.0606 -0.0566 -0.0236
  878BOLB   C2B21058  18.296  30.294  20.096  0.1375  0.0390  0.0049
  878BOLB   C3B21059  18.009  30.436  19.740  0.4481  0.1396  0.1455
  878BOLB   C4B21060  17.476  30.423  19.635  0.0848 -0.1593 -0.3087
  878BOLB   NC221061  15.167  30.371  19.662 -0.0855  0.1873 -0.1987
  878BOLB   PO221062  14.916  30.018  20.014 -0.0106 -0.1995 -0.1786
  878BOLB   GL321063  15.271  30.129  20.184 -0.2350 -0.2441  0.0945
  878BOLB   GL421064  15.487  30.081  19.955 -0.2013  0.2371 -0.2347
  878BOLB   C1C21065  15.576  30.273  20.522  0.1356 -0.1319 -0.1795
  878BOLB   C2C21066  16.092  30.259  20.587 -0.2898 -0.2658 -0.1979
  878BOLB   C3C21067  16.487  30.226  20.828  0.5982  0.2694  0.1242
  878BOLB   C4C21068  16.923  30.304  21.031  0.1272 -0.1964  0.2307
  878BOLB   C1D21069  15.848  30.257  19.739 -0.0226 -0.0606  0.0499
  878BOLB   C2D21070  16.192  30.041  19.819 -0.2012 -0.0469  0.0075
  878BOLB   C3D21071  16.645  29.932  19.882  0.0772 -0.1352  0.2070
  878BOLB   C4D21072  16.884  29.589  19.811  0.1582  0.2401 -0.1842
  879BOLB   NC121073  33.566  36.607   4.332 -0.0613 -0.0459 -0.5293
  879BOLB   PO121074  33.493  36.239   4.093  0.1548  0.0163 -0.1556
  879BOLB   GL121075  33.390  36.036   3.751  0.2515 -0.1077 -0.2260
  879BOLB   GL221076  33.537  36.029   3.437 -0.0360 -0.0973  0.1837
  879BOLB   C1A21077  33.122  35.753   3.633  0.2219  0.2039 -0.1110
  879BOLB   C2A21078  32.969  35.487   3.262  0.0762 -0.4181  0.1743
  879BOLB   C3A21079  32.807  35.071   3.171  0.0190  0.0312  0.0479
  879BOLB   C4A21080  32.984  34.725   2.935  0.1364 -0.1705  0.1667
  879BOLB   C1B21081  33.704  35.675   3.315  0.0252  0.1129  0.1030
  879BOLB   C2B21082  33.834  35.388   2.982 -0.2008 -0.1216  0.2454
  879BOLB   C3B21083  34.187  35.194   2.882  0.1854 -0.2889  0.0294
  879BOLB   C4B21084  34.313  34.899   3.174  0.0500  0.1656  0.0206
  879BOLB   NC221085  32.476  34.843   5.250 -0.1686  0.2339  0.2488
  879BOLB   PO221086  32.849  34.725   5.045  0.2361 -0.0417 -0.1063
  879BOLB   GL321087  32.676  34.713   4.634  0.1585  0.0831  0.1966
  879BOLB   GL421088  32.970  34.631   4.521  0.4356 -0.1716 -0.1040
  879BOLB   C1C21089  32.572  34.553   4.217 -0.2224 -0.1460 -0.3034
  879BOLB   C2C21090  32.422  34.465   3.837 -0.1226 -0.2904 -0.1911
  879BOLB   C3C21091  32.363  34.339   3.386 -0.1737 -0.2055  0.2253
  879BOLB   C4C21092  32.683  34.422   3.045 -0.0214  0.1799  0.1094
  879BOLB   C1D21093  33.002  34.793   4.142  0.0873 -0.0663  0.0045
  879BOLB   C2D21094  32.958  34.584   3.868  0.2733  0.0617 -0.1301
  879BOLB   C3D21095  32.934  34.306   3.482  0.2039  0.1163  0.3318
  879BOLB   C4D21096  33.152  34.094   3.217  0.0735  0.0112  0.1972
  880BOLB   NC121097  35.287  29.692  19.103 -0.2923  0.1097  0.0004
  880BOLB   PO121098  35.586  29.569  19.352  0.0497 -0.0899 -0.0582
  880BOLB   GL121099  36.015  29.365  19.111 -0.0023  0.0104  0.2318
  880BOLB   GL221100  35.972  29.047  18.990 -0.0231 -0.2066 -0.2295
  880BOLB   C1A21101  36.421  29.334  19.235  0.2183  0.1309 -0.1041
  880BOLB   C2A21102  36.751  29.251  19.287 -0.0650 -0.0535 -0.1488
  880BOLB   C3A21103  37.081  29.339  19.053  0.1198  0.1221 -0.1466
  880BOLB   C4A21104  37.545  29.356  18.964 -0.1223 -0.1331 -0.0376
  880BOLB   C1B21105  36.483  28.959  18.910 -0.2722 -0.2070 -0.0180
  880BOLB   C2B21106  36.894  28.928  18.840  0.2163 -0.0273 -0.3219
  880BOLB   C3B21107  37.237  29.197  18.635 -0.1555  0.0819 -0.0947
  880BOLB   C4B21108  37.095  29.257  18.181  0.0128 -0.2805  0.1370
  880BOLB   NC221109  39.427  28.890  17.336  0.4256 -0.0040 -0.2607
  880BOLB   PO221110  39.323  28.442  17.494 -0.1143  0.1232  0.4539
  880BOLB   GL321111  38.988  28.764  17.517 -0.0559  0.0787  0.2885
  880BOLB   GL421112  38.859  29.054  17.403  0.1672  0.3086  0.2124
  880BOLB   C1C21113  38.722  28.807  17.881  0.1075 -0.0178  0.0893
  880BOLB   C2C21114  38.431  28.738  18.236 -0.0484  0.0244 -0.1976
  880BOLB   C3C21115  38.168  28.849  18.511  0.0962 -0.0182 -0.0544
  880BOLB   C4C21116  37.799  29.025  18.645 -0.0462  0.3086 -0.2517
  880BOLB   C1D21117  38.564  29.330  17.237 -0.1149  0.1199  0.0913
  880BOLB   C2D21118  38.165  29.567  17.105  0.0576 -0.0970  0.0767
  880BOLB   C3D21119  37.762  29.571  17.018 -0.1248 -0.0019 -0.0889
  880BOLB   C4D21120  37.410  29.886  16.957  0.1548 -0.0551 -0.3058
  881BOLB   NC121121  33.732  34.713  25.269 -0.0454 -0.3116  0.0997
  881BOLB   PO121122  33.481  34.531  25.575  0.0290  0.0787 -0.2733
  881BOLB   GL121123  33.670  34.782  25.892  0.0923  0.0697  0.2530
  881BOLB   GL221124  33.988  34.718  25.842 -0.1274  0.3145  0.0653
  881BOLB   C1A21125  33.838  35.057  26.199 -0.2019 -0.0817 -0.0860
  881BOLB   C2A21126  33.993  35.434  26.258 -0.2156  0.2100  0.0801
  881BOLB   C3A21127  34.336  35.751  26.412  0.1288 -0.0437  0.3025
  881BOLB   C4A21128  34.362  36.177  26.501 -0.2910 -0.1609 -0.0900
  881BOLB   C1B21129  34.106  35.125  25.846 -0.3781 -0.1347  0.0222
  881BOLB   C2B21130  34.109  35.505  25.480  0.0649  0.2192 -0.0914
  881BOLB   C3B21131  34.267  35.904  25.308  0.0404 -0.0684  0.0527
  881BOLB   C4B21132  34.680  35.982  25.042 -0.3108 -0.0667 -0.0942
  881BOLB   NC221133  35.221  38.280   0.516  0.0135  0.0558 -0.1839
  881BOLB   PO221134  35.042  38.436   0.157  0.0832  0.1046 -0.3638
  881BOLB   GL321135  34.969  37.980   0.079 -0.0243  0.1019 -0.0052
  881BOLB   GL421136  35.009  37.875   0.326 -0.1117  0.0773  0.1008
  881BOLB   C1C21137  35.007  37.527  26.798 -0.3117  0.0082  0.0210
  881BOLB   C2C21138  34.809  37.119  26.651  0.3283  0.1213  0.4127
  881BOLB   C3C21139  34.825  36.882  26.372 -0.0773 -0.2668  0.0051
  881BOLB   C4C21140  34.571  36.551  26.270  0.0632 -0.1915 -0.0168
  881BOLB   C1D21141  34.593  37.732   0.184  0.1236  0.0049  0.1217
  881BOLB   C2D21142  34.486  37.539  26.726  0.0645 -0.0217  0.0835
  881BOLB   C3D21143  34.320  37.140  26.640 -0.2487 -0.0862  0.1270
  881BOLB   C4D21144  34.254  36.782  26.651  0.4769  0.2254  0.2595
  882BOLB   NC121145  23.591  35.990  19.887 -0.2616  0.0060  0.4145
  882BOLB   PO121146  23.273  36.323  20.063 -0.1262 -0.1676 -0.4580
  882BOLB   GL121147  23.090  36.678  19.895  0.2148  0.0526 -0.2300
  882BOLB   GL221148  22.788  36.498  19.894 -0.0905 -0.0562  0.0677
  882BOLB   C1A21149  23.031  37.126  19.662  0.1288  0.2438 -0.2328
  882BOLB   C2A21150  22.716  37.369  19.509 -0.4444 -0.1270  0.1711
  882BOLB   C3A21151  22.531  37.600  19.255 -0.2452  0.1468 -0.0345
  882BOLB   C4A21152  22.368  37.839  18.965  0.2508 -0.1987 -0.0400
  882BOLB   C1B21153  22.554  36.756  19.896  0.2070  0.0779  0.1313
  882BOLB   C2B21154  22.270  37.000  19.879 -0.1080 -0.0056 -0.0359
  882BOLB   C3B21155  22.197  37.273  19.596  0.2639  0.2646 -0.0990
  882BOLB   C4B21156  22.016  37.601  19.412  0.1702  0.0161  0.1852
  882BOLB   NC221157  20.972  40.255  19.637 -0.0644  0.1358  0.0497
  882BOLB   PO221158  20.971  39.727  19.579 -0.2740  0.0919 -0.3351
  882BOLB   GL321159  20.960  39.246  19.564  0.1943 -0.0288  0.0006
  882BOLB   GL421160  20.732  39.144  19.746 -0.2543  0.1384 -0.0856
  882BOLB   C1C21161  21.200  38.925  19.485  0.0903 -0.1967  0.0777
  882BOLB   C2C21162  21.346  38.585  19.267 -0.1000 -0.4277  0.0157
  882BOLB   C3C21163  21.823  38.488  18.993 -0.3928  0.2656  0.1530
  882BOLB   C4C21164  22.161  38.247  18.907 -0.0250 -0.1589  0.1918
  882BOLB   C1D21165  21.045  38.888  20.032 -0.0180 -0.0999 -0.0925
  882BOLB   C2D21166  21.339  38.773  20.347  0.1828  0.1718  0.0455
  882BOLB   C3D21167  21.752  38.896  20.300 -0.0104  0.4654 -0.0577
  882BOLB   C4D21168  22.083  38.872  20.055  0.1293  0.2598 -0.0694
  883BOLB   NC121169  30.504  22.834  25.591 -0.0805  0.0540 -0.1767
  883BOLB   PO121170  30.122  22.682  25.546 -0.2828  0.1030 -0.0281
  883BOLB   GL121171  30.307  22.541  25.963 -0.1213  0.3726  0.0546
  883BOLB   GL221172  30.601  22.645  26.075 -0.1962 -0.2999  0.0605
  883BOLB   C1A21173  30.386  22.247  26.335 -0.1259  0.0660 -0.0109
  883BOLB   C2A21174  30.500  21.958  26.478 -0.0661 -0.2896 -0.0532
  883BOLB   C3A21175  30.547  21.613  26.747  0.2159 -0.1179 -0.0402
  883BOLB   C4A21176  30.564  21.306   0.188  0.0907  0.1586 -0.2857
  883BOLB   C1B21177  30.816  22.380  26.169 -0.1541 -0.0895  0.1205
  883BOLB   C2B21178  30.983  22.009  26.469  0.0438 -0.2958 -0.0532
  883BOLB   C3B21179  31.052  21.695  26.739  0.3776  0.0372  0.2836
  883BOLB   C4B21180  31.323  21.491   0.105  0.1469  0.0104  0.5744
  883BOLB   NC221181  30.609  19.259   1.906  0.0662 -0.0961  0.1695
  883BOLB   PO221182  31.080  19.501   1.836 -0.1075 -0.1971 -0.2329
  883BOLB   GL321183  31.016  19.925   1.679 -0.1135 -0.1944 -0.1513
  883BOLB   GL421184  31.271  20.135   1.730  0.0543 -0.0642  0.3125
  883BOLB   C1C21185  30.943  20.220   1.336 -0.2493 -0.0561  0.2382
  883BOLB   C2C21186  30.791  20.635   1.177  0.2105 -0.0910 -0.1797
  883BOLB   C3C21187  30.492  20.824   0.904  0.1558  0.2663  0.1546
  883BOLB   C4C21188  30.518  21.117   0.540 -0.1227 -0.1232  0.1101
  883BOLB   C1D21189  31.318  20.596   1.463 -0.2188  0.0922 -0.1177
  883BOLB   C2D21190  31.179  20.992   1.292  0.1561 -0.0185 -0.2800
  883BOLB   C3D21191  31.196  21.418   1.042 -0.3168  0.1144 -0.1958
  883BOLB   C4D21192  31.298  21.812   1.264  0.0842 -0.2716  0.3921
  884BOLB   NC121193  26.745  37.582  21.829 -0.0723 -0.1534  0.1140
  884BOLB   PO121194  26.609  37.870  22.306  0.0159  0.1646 -0.1300
  884BOLB   GL121195  26.481  38.184  22.517  0.1978  0.0862  0.1132
  884BOLB   GL221196  26.621  38.443  22.362  0.0817 -0.3195  0.0009
  884BOLB   C1A21197  26.484  38.647  22.820 -0.1892  0.1040  0.0140
  884BOLB   C2A21198  26.394  39.112  22.694 -0.2138  0.0866  0.0953
  884BOLB   C3A21199  25.972  39.257  22.571 -0.0284 -0.0417 -0.0193
  884BOLB   C4A21200  25.893  39.625  22.199  0.1738 -0.1483  0.1620
  884BOLB   C1B21201  26.922  38.523  22.641  0.2614  0.1929  0.1225
  884BOLB   C2B21202  27.226  38.827  22.657  0.1034  0.0724  0.5039
  884BOLB   C3B21203  27.568  39.117  22.760 -0.0626 -0.0949 -0.2124
  884BOLB   C4B21204  27.666  39.359  23.005 -0.1906  0.1913 -0.2980
  884BOLB   NC221205  25.607  42.118  20.821  0.3778  0.0137  0.4675
  884BOLB   PO221206  25.621  41.878  21.241 -0.1814 -0.1801  0.1517
  884BOLB   GL321207  25.872  41.440  21.172  0.5239 -0.0660 -0.0505
  884BOLB   GL421208  26.189  41.273  21.286  0.2117  0.1219  0.0670
  884BOLB   C1C21209  25.629  41.050  21.343 -0.3518 -0.2595 -0.3291
  884BOLB   C2C21210  25.459  40.555  21.362  0.3872 -0.1611  0.2271
  884BOLB   C3C21211  25.589  40.288  21.736  0.0172 -0.1956 -0.2007
  884BOLB   C4C21212  25.706  40.070  22.166 -0.0232  0.3067 -0.1258
  884BOLB   C1D21213  26.448  40.925  21.485 -0.2267 -0.4034 -0.0068
  884BOLB   C2D21214  26.370  40.598  21.790 -0.0155  0.3000 -0.2023
  884BOLB   C3D21215  26.007  40.471  22.053 -0.1826  0.2106  0.0950
  884BOLB   C4D21216  25.520  40.550  22.170  0.1896  0.1904  0.0597
  885BOLB   NC121217  20.098  29.212  18.505 -0.0656  0.0616 -0.1179
  885BOLB   PO121218  19.907  28.839  18.468  0.0885 -0.0409 -0.0490
  885BOLB   GL121219  19.576  28.662  18.300  0.0106 -0.1799  0.1110
  885BOLB   GL221220  19.280  28.903  18.328 -0.0041 -0.0295 -0.1976
  885BOLB   C1A21221  19.222  28.403  18.110 -0.0408  0.2660 -0.2080
  885BOLB   C2A21222  18.809  28.542  18.200 -0.0946 -0.1220 -0.1753
  885BOLB   C3A21223  18.406  28.503  18.399  0.3302 -0.1087 -0.0549
  885BOLB   C4A21224  18.086  28.819  18.332 -0.4205  0.1100  0.0960
  885BOLB   C1B21225  19.119  29.000  18.652 -0.4065  0.0069  0.1399
  885BOLB   C2B21226  18.776  29.280  18.923 -0.4213 -0.0212  0.0064
  885BOLB   C3B21227  18.364  29.194  19.088 -0.0248  0.0082 -0.1598
  885BOLB   C4B21228  17.958  29.239  18.879 -0.0800 -0.0156 -0.1436
  885BOLB   NC221229  16.025  29.689  17.543 -0.1599  0.0386 -0.0962
  885BOLB   PO221230  16.249  29.567  17.249  0.2976 -0.0365 -0.3938
  885BOLB   GL321231  16.475  29.418  17.498 -0.0351  0.1392  0.1718
  885BOLB   GL421232  16.408  29.566  17.822  0.1760 -0.0327 -0.3045
  885BOLB   C1C21233  16.907  29.650  17.685 -0.3222  0.1243 -0.2257
  885BOLB   C2C21234  17.272  29.533  17.771  0.3625  0.3106 -0.3846
  885BOLB   C3C21235  17.623  29.459  18.017 -0.0654 -0.1615 -0.1281
  885BOLB   C4C21236  17.911  29.268  18.331  0.0194 -0.1923 -0.0487
  885BOLB   C1D21237  16.603  29.751  18.172 -0.2049 -0.3156 -0.1257
  885BOLB   C2D21238  17.096  29.780  18.239  0.0194  0.2377  0.0254
  885BOLB   C3D21239  17.451  29.909  18.328 -0.0535 -0.0297  0.1651
  885BOLB   C4D21240  17.877  30.212  18.286  0.1701  0.0793  0.0676
  886BOLB   NC121241  20.888  34.205  22.213  0.0531 -0.1775  0.1952
  886BOLB   PO121242  20.743  34.059  21.750  0.1758 -0.0287  0.0561
  886BOLB   GL121243  20.328  34.321  21.714  0.0636  0.0346 -0.1241
  886BOLB   GL221244  20.097  34.157  21.851 -0.1226 -0.0806  0.1305
  886BOLB   C1A21245  20.260  34.718  21.603 -0.0048 -0.1418 -0.3133
  886BOLB   C2A21246  19.939  34.994  21.399 -0.5065  0.0573 -0.1818
  886BOLB   C3A21247  20.011  35.311  21.026  0.1331  0.4254  0.0350
  886BOLB   C4A21248  19.851  35.615  20.812  0.0609  0.1856  0.1220
  886BOLB   C1B21249  19.737  34.276  22.072  0.0554  0.0104 -0.2015
  886BOLB   C2B21250  19.304  34.402  21.959 -0.0454 -0.2810 -0.3106
  886BOLB   C3B21251  19.055  34.434  21.728  0.1437 -0.3372 -0.0840
  886BOLB   C4B21252  18.663  34.382  21.510  0.1110 -0.1609  0.2301
  886BOLB   NC221253  17.942  37.777  20.901 -0.1302  0.1546  0.3188
  886BOLB   PO221254  18.303  37.430  20.738 -0.3061 -0.4984 -0.1146
  886BOLB   GL321255  18.471  37.083  20.492  0.0395  0.1503  0.3219
  886BOLB   GL421256  18.318  36.733  20.389 -0.1888  0.0735  0.2888
  886BOLB   C1C21257  18.844  36.827  20.348 -0.3837  0.1525 -0.2663
  886BOLB   C2C21258  19.121  36.577  20.368  0.0775 -0.2054  0.3446
  886BOLB   C3C21259  19.473  36.368  20.496  0.3290 -0.1531 -0.4435
  886BOLB   C4C21260  19.716  36.017  20.635 -0.0384 -0.1035 -0.0780
  886BOLB   C1D21261  18.526  36.342  20.519 -0.0245  0.0917  0.0237
  886BOLB   C2D21262  18.871  36.163  20.356  0.0053 -0.0848 -0.1309
  886BOLB   C3D21263  19.253  35.924  20.310 -0.2635 -0.1784  0.0228
  886BOLB   C4D21264  19.370  35.583  20.401  0.1418  0.0368  0.3688
  887BOLB   NC121265  27.423  15.930  26.701  0.0548 -0.1942  0.1264
  887BOLB   PO121266  27.444  16.329  26.750 -0.2032  0.0730 -0.1425
  887BOLB   GL121267  27.192  16.721  26.675 -0.0560 -0.0417 -0.1916
  887BOLB   GL221268  26.941  16.659  26.720 -0.0950 -0.1566  0.1903
  887BOLB   C1A21269  27.201  17.111  26.652 -0.2743 -0.3519  0.1394
  887BOLB   C2A21270  27.168  17.347   0.041  0.0955  0.0779 -0.5483
  887BOLB   C3A21271  27.117  17.300   0.439  0.4798  0.2259 -0.1995
  887BOLB   C4A21272  27.103  17.519   0.744  0.0471  0.0433 -0.2934
  887BOLB   C1B21273  26.709  17.036  26.852  0.0986 -0.0682  0.0429
  887BOLB   C2B21274  26.588  17.403   0.073  0.2388 -0.1330 -0.3111
  887BOLB   C3B21275  26.307  17.680   0.323 -0.0338  0.2402 -0.2559
  887BOLB   C4B21276  26.243  18.008   0.616 -0.0991 -0.2065  0.0474
  887BOLB   NC221277  25.038  16.300   0.769  0.1746  0.2687  0.2550
  887BOLB   PO221278  25.486  16.299   0.688  0.2506 -0.1034 -0.1578
  887BOLB   GL321279  25.702  16.580   0.710  0.3157 -0.2262 -0.0432
  887BOLB   GL421280  25.532  16.820   0.662 -0.4149  0.0888 -0.0865
  887BOLB   C1C21281  26.058  16.853   0.627  0.0402 -0.0194  0.0304
  887BOLB   C2C21282  26.196  17.250   0.693 -0.0355 -0.2532 -0.1560
  887BOLB   C3C21283  26.324  17.619   0.850  0.0143 -0.2766  0.0145
  887BOLB   C4C21284  26.767  17.675   1.009 -0.2724  0.2264  0.0233
  887BOLB   C1D21285  25.635  16.713   0.208 -0.0986  0.0089 -0.0310
  887BOLB   C2D21286  25.321  16.829  26.708 -0.0889  0.3739  0.3179
  887BOLB   C3D21287  25.337  16.817  26.164 -0.2655 -0.3754 -0.2524
  887BOLB   C4D21288  25.194  16.408  25.925 -0.1799  0.1227  0.1688
  888BOLB   NC121289  25.742  37.887  20.353  0.0826  0.5026  0.1509
  888BOLB   PO121290  25.534  38.155  20.577 -0.0608 -0.0709  0.0890
  888BOLB   GL121291  25.713  38.407  20.203  0.0041  0.0220  0.0245
  888BOLB   GL221292  25.828  38.758  20.190  0.0426 -0.1374  0.0876
  888BOLB   C1A21293  25.501  38.559  19.834  0.3659 -0.0437 -0.0866
  888BOLB   C2A21294  25.253  38.883  19.666  0.0099  0.1031 -0.0429
  888BOLB   C3A21295  24.972  39.107  19.448  0.1090  0.2275 -0.0702
  888BOLB   C4A21296  24.710  39.604  19.394 -0.0943 -0.0363 -0.0660
  888BOLB   C1B21297  26.145  38.969  20.015 -0.2096 -0.0183 -0.0445
  888BOLB   C2B21298  26.133  39.225  19.769 -0.0903  0.1031  0.1537
  888BOLB   C3B21299  26.456  39.551  19.673 -0.0679 -0.0607 -0.4031
  888BOLB   C4B21300  26.751  39.912  19.645 -0.4967 -0.0863  0.2499
  888BOLB   NC221301  25.316  41.471  18.789 -0.2554 -0.2696  0.1074
  888BOLB   PO221302  25.492  41.813  19.085  0.0483  0.0322  0.1336
  888BOLB   GL321303  25.542  41.443  19.275  0.2068  0.1335 -0.3111
  888BOLB   GL421304  25.914  41.377  19.277 -0.0863  0.2012 -0.0630
  888BOLB   C1C21305  25.298  41.114  19.404 -0.0915 -0.1301 -0.1360
  888BOLB   C2C21306  25.219  40.796  19.487 -0.0427 -0.1800  0.0437
  888BOLB   C3C21307  25.188  40.386  19.373  0.0034  0.0499 -0.1560
  888BOLB   C4C21308  24.934  40.057  19.277 -0.1523  0.1017 -0.0664
  888BOLB   C1D21309  26.222  41.086  19.426  0.0232 -0.0520 -0.0831
  888BOLB   C2D21310  26.287  40.629  19.519 -0.1333  0.1596  0.3561
  888BOLB   C3D21311  26.268  40.132  19.508  0.1000 -0.2742  0.0225
  888BOLB   C4D21312  26.328  39.815  19.313 -0.1597  0.0836  0.0538
  889BOLB   NC121313  27.937  30.578   2.929  0.1535 -0.0174  0.1601
  889BOLB   PO121314  27.489  30.766   2.675  0.0342 -0.3421 -0.3079
  889BOLB   GL121315  27.522  30.890   3.148 -0.0946  0.0404  0.0191
  889BOLB   GL221316  27.593  31.167   3.368 -0.3404 -0.0735  0.2056
  889BOLB   C1A21317  27.624  30.705   3.639 -0.0727 -0.1561 -0.0868
  889BOLB   C2A21318  27.614  30.832   4.156  0.2638  0.1209  0.0689
  889BOLB   C3A21319  27.439  30.995   4.528  0.3676 -0.2654  0.3823
  889BOLB   C4A21320  27.422  30.815   4.943  0.0395 -0.1805  0.1055
  889BOLB   C1B21321  28.027  31.033   3.584  0.0692 -0.0517 -0.1145
  889BOLB   C2B21322  28.064  30.980   4.014 -0.0180  0.1246 -0.2598
  889BOLB   C3B21323  28.016  30.814   4.389 -0.1203 -0.2583 -0.4834
  889BOLB   C4B21324  27.831  30.681   4.716  0.1917 -0.1933  0.0365
  889BOLB   NC221325  27.848  30.723   7.188  0.3121  0.0282 -0.1826
  889BOLB   PO221326  27.683  30.404   7.487  0.0710  0.0261  0.0822
  889BOLB   GL321327  27.750  30.252   6.999 -0.5381  0.2021  0.2362
  889BOLB   GL421328  27.913  29.909   6.883  0.0287  0.1520 -0.2279
  889BOLB   C1C21329  28.053  30.309   6.600  0.1422  0.4076  0.1249
  889BOLB   C2C21330  28.012  30.299   6.183 -0.1651  0.1074 -0.0002
  889BOLB   C3C21331  27.877  30.423   5.739  0.4034  0.0273  0.2204
  889BOLB   C4C21332  27.598  30.528   5.302 -0.1316 -0.2187 -0.0044
  889BOLB   C1D21333  28.114  29.837   6.416 -0.1167  0.2771 -0.1313
  889BOLB   C2D21334  28.094  29.766   5.935 -0.1899 -0.1234 -0.0370
  889BOLB   C3D21335  27.980  29.749   5.485  0.1252 -0.2938 -0.0026
  889BOLB   C4D21336  27.978  29.623   5.036  0.3255  0.1797 -0.1159
  890BOLB   NC121337  30.745  25.867   1.254  0.0985  0.0555 -0.3105
  890BOLB   PO121338  30.882  25.486   1.063  0.1471 -0.1365  0.1030
  890BOLB   GL121339  31.092  25.393   1.379  0.3894 -0.0680 -0.2039
  890BOLB   GL221340  31.025  25.079   1.341  0.2127  0.2321  0.0426
  890BOLB   C1A21341  31.392  25.382   1.752 -0.0789  0.0337 -0.3425
  890BOLB   C2A21342  31.278  25.364   2.182  0.0233  0.2123 -0.1096
  890BOLB   C3A21343  31.272  25.027   2.621 -0.0641  0.1148  0.3073
  890BOLB   C4A21344  30.926  24.905   2.893  0.0504 -0.1344  0.3318
  890BOLB   C1B21345  31.267  24.826   1.609  0.7476  0.1733 -0.3877
  890BOLB   C2B21346  31.527  24.938   2.040 -0.2735  0.2996  0.0004
  890BOLB   C3B21347  31.548  24.712   2.357  0.0427  0.1489  0.0255
  890BOLB   C4B21348  31.575  24.598   2.782  0.0097  0.1387 -0.1009
  890BOLB   NC221349  31.694  22.641   3.616  0.1175  0.0471  0.2359
  890BOLB   PO221350  31.554  22.530   4.093 -0.1903 -0.2560  0.0038
  890BOLB   GL321351  31.242  22.860   3.940 -0.0894  0.0822 -0.2405
  890BOLB   GL421352  30.911  22.937   4.032  0.1960  0.4020 -0.2948
  890BOLB   C1C21353  31.057  23.264   3.683  0.0667  0.0373 -0.1539
  890BOLB   C2C21354  30.905  23.690   3.345 -0.0057  0.1116  0.1289
  890BOLB   C3C21355  30.804  24.080   3.092  0.1966 -0.0081  0.0525
  890BOLB   C4C21356  30.807  24.518   3.042 -0.2564  0.1807  0.0160
  890BOLB   C1D21357  30.700  22.921   3.681  0.1672 -0.1708 -0.0713
  890BOLB   C2D21358  30.511  23.180   3.319 -0.0211  0.1488  0.1108
  890BOLB   C3D21359  30.473  23.610   3.143  0.1144  0.2427 -0.1587
  890BOLB   C4D21360  30.477  23.792   2.803  0.1436 -0.5764  0.3496
  891BOLB   NC121361  30.473  21.873  23.250  0.0037 -0.1958  0.0317
  891BOLB   PO121362  30.566  21.472  23.023 -0.1088 -0.2768 -0.1632
  891BOLB   GL121363  30.694  21.105  23.171  0.0031  0.1144 -0.1812
  891BOLB   GL221364  30.774  21.124  23.527 -0.1924 -0.3962  0.0886
  891BOLB   C1A21365  30.967  20.854  23.158 -0.0411  0.0233  0.0889
  891BOLB   C2A21366  31.182  20.525  23.266  0.1466  0.3422  0.1101
  891BOLB   C3A21367  31.381  20.217  23.058 -0.0004  0.1049 -0.1578
  891BOLB   C4A21368  31.218  20.094  22.619  0.3054 -0.2844 -0.2191
  891BOLB   C1B21369  30.958  20.837  23.667  0.1353  0.0154 -0.0442
  891BOLB   C2B21370  31.366  20.607  23.748  0.0479 -0.1102 -0.2723
  891BOLB   C3B21371  31.583  20.193  23.585  0.1497 -0.0952 -0.0895
  891BOLB   C4B21372  31.508  19.807  23.511  0.0046  0.1636  0.1407
  891BOLB   NC221373  32.348  18.252  23.067 -0.0155  0.0545  0.2875
  891BOLB   PO221374  32.452  18.192  22.589  0.0746 -0.1493  0.4940
  891BOLB   GL321375  32.394  18.670  22.667  0.1155 -0.2701  0.3088
  891BOLB   GL421376  32.668  19.005  22.712  0.1603  0.1156 -0.0535
  891BOLB   C1C21377  32.021  18.957  22.535  0.4619  0.1548 -0.0346
  891BOLB   C2C21378  31.910  19.370  22.437 -0.4721 -0.2798 -0.2571
  891BOLB   C3C21379  31.698  19.640  22.192 -0.0477 -0.1202  0.1408
  891BOLB   C4C21380  31.334  19.887  22.287  0.0976 -0.0746  0.0683
  891BOLB   C1D21381  32.405  19.139  22.312  0.2113  0.1520 -0.0337
  891BOLB   C2D21382  32.160  19.091  22.040 -0.0087 -0.4294  0.2415
  891BOLB   C3D21383  32.212  19.124  21.562 -0.2211 -0.1137 -0.0439
  891BOLB   C4D21384  32.185  19.046  21.084  0.0240 -0.1274 -0.2195
  892BOLB   NC121385  28.743  30.226   9.559 -0.0990 -0.2400  0.0275
  892BOLB   PO121386  28.498  29.958   9.705 -0.0313 -0.4029  0.0966
  892BOLB   GL121387  28.637  29.904  10.141  0.2958 -0.2167  0.0204
  892BOLB   GL221388  28.957  29.924  10.097 -0.0353 -0.0981 -0.3596
  892BOLB   C1A21389  28.439  29.991  10.529 -0.1877  0.1616 -0.0309
  892BOLB   C2A21390  28.410  29.757  10.914 -0.1030  0.1416 -0.1612
  892BOLB   C3A21391  28.438  29.397  11.064 -0.1108  0.0708  0.0418
  892BOLB   C4A21392  28.714  29.190  11.126  0.2132  0.1816 -0.4024
  892BOLB   C1B21393  29.376  29.927  10.450  0.2223 -0.0034 -0.0855
  892BOLB   C2B21394  29.721  29.961  10.794 -0.0014 -0.2821  0.2619
  892BOLB   C3B21395  29.913  29.875  11.079 -0.1057  0.4728  0.1364
  892BOLB   C4B21396  30.046  30.022  11.488  0.2629 -0.0979 -0.1933
  892BOLB   NC221397  29.573  28.957   9.502 -0.1387  0.3100  0.0781
  892BOLB   PO221398  30.061  29.000   9.517  0.1910  0.2225  0.3798
  892BOLB   GL321399  30.254  29.120   9.983 -0.1162 -0.0273  0.1146
  892BOLB   GL421400  30.396  29.364   9.997 -0.1257  0.1019  0.0597
  892BOLB   C1C21401  29.978  29.117  10.368 -0.1794 -0.1099 -0.2771
  892BOLB   C2C21402  29.656  29.084  10.739  0.3789  0.0725 -0.0665
  892BOLB   C3C21403  29.492  29.138  11.146 -0.2018  0.0532  0.1044
  892BOLB   C4C21404  29.134  29.141  11.279  0.0132  0.2685  0.2495
  892BOLB   C1D21405  30.475  29.252  10.405  0.1575 -0.6257  0.3240
  892BOLB   C2D21406  30.506  28.968  10.745 -0.1652  0.0127  0.0707
  892BOLB   C3D21407  30.481  29.166  11.136 -0.1259 -0.1791  0.0401
  892BOLB   C4D21408  30.761  29.208  11.533  0.1676 -0.1103  0.1874
  893BOLB   NC121409  35.519  30.567  17.916 -0.0595  0.3275 -0.1696
  893BOLB   PO121410  35.603  30.466  18.329  0.2712  0.1162  0.3239
  893BOLB   GL121411  35.958  30.188  18.280  0.0538 -0.1075  0.1227
  893BOLB   GL221412  36.009  29.937  18.480  0.1684  0.1248  0.0898
  893BOLB   C1A21413  36.262  30.088  18.082 -0.0190 -0.1326 -0.3640
  893BOLB   C2A21414  36.460  30.046  17.743 -0.0063  0.0780 -0.0675
  893BOLB   C3A21415  36.907  29.987  17.738  0.1795  0.1813  0.4384
  893BOLB   C4A21416  37.268  30.230  17.821 -0.2458 -0.0960  0.0402
  893BOLB   C1B21417  36.339  29.622  18.228  0.2322 -0.0746 -0.0426
  893BOLB   C2B21418  36.748  29.622  18.041  0.0485 -0.1261 -0.0822
  893BOLB   C3B21419  37.178  29.846  18.141 -0.1136 -0.0174 -0.1753
  893BOLB   C4B21420  37.452  30.001  18.348 -0.3566 -0.2056 -0.0033
  893BOLB   NC221421  39.751  30.906  18.365  0.1212 -0.2650  0.1937
  893BOLB   PO221422  39.419  30.791  18.033 -0.1272  0.1037  0.1386
  893BOLB   GL321423  39.301  30.422  18.207 -0.0337 -0.0018 -0.0851
  893BOLB   GL421424  39.143  30.144  17.954 -0.1043 -0.0349  0.1990
  893BOLB   C1C21425  38.844  30.373  18.259 -0.2097  0.2557  0.0763
  893BOLB   C2C21426  38.449  30.344  18.312 -0.2818  0.0576  0.0130
  893BOLB   C3C21427  37.966  30.208  18.292  0.0987 -0.0610 -0.0903
  893BOLB   C4C21428  37.679  30.409  18.055 -0.0003 -0.2410 -0.2001
  893BOLB   C1D21429  38.829  30.455  17.736  0.0008  0.0891 -0.2298
  893BOLB   C2D21430  38.577  30.720  17.960  0.0034  0.1436 -0.1569
  893BOLB   C3D21431  38.166  30.652  18.071 -0.1664  0.1077  0.4660
  893BOLB   C4D21432  37.957  30.689  18.349 -0.2727 -0.2368 -0.3441
  894BOLB   NC121433  27.303  34.139  14.517 -0.0403  0.1399 -0.2584
  894BOLB   PO121434  26.977  33.944  14.754 -0.0972 -0.2248 -0.1427
  894BOLB   GL121435  26.711  34.069  14.417  0.0513  0.0515  0.5730
  894BOLB   GL221436  26.532  34.342  14.415  0.3036  0.1771  0.1576
  894BOLB   C1A21437  26.628  34.196  13.935  0.3359  0.3105 -0.0636
  894BOLB   C2A21438  26.574  34.493  13.529 -0.0742 -0.0781  0.1391
  894BOLB   C3A21439  26.629  34.422  13.006  0.1285 -0.0173  0.3184
  894BOLB   C4A21440  26.444  34.348  12.603 -0.0769 -0.0393 -0.1202
  894BOLB   C1B21441  26.444  34.624  14.075 -0.0868  0.1569 -0.1461
  894BOLB   C2B21442  26.082  34.851  13.677  0.2026 -0.2003 -0.1685
  894BOLB   C3B21443  25.703  35.116  13.502  0.1621 -0.1776  0.2097
  894BOLB   C4B21444  25.695  35.560  13.334  0.3257 -0.1015  0.1933
  894BOLB   NC221445  26.578  35.889  10.962  0.0942  0.1750  0.3013
  894BOLB   PO221446  26.328  35.568  10.807  0.3392  0.0541  0.0185
  894BOLB   GL321447  26.596  35.413  11.166 -0.3469 -0.0356  0.3163
  894BOLB   GL421448  26.672  35.752  11.429 -0.2918  0.1582 -0.1952
  894BOLB   C1C21449  26.691  35.232  11.555 -0.1134 -0.1203 -0.2316
  894BOLB   C2C21450  26.849  34.837  11.645 -0.1454  0.0663  0.0060
  894BOLB   C3C21451  26.847  34.443  11.945  0.0088 -0.0942 -0.1992
  894BOLB   C4C21452  26.622  34.194  12.210  0.0639  0.2911  0.2238
  894BOLB   C1D21453  26.479  35.572  11.784  0.2883 -0.1905  0.2867
  894BOLB   C2D21454  26.505  35.677  12.256  0.0345 -0.0620  0.2985
  894BOLB   C3D21455  26.693  35.752  12.709  0.1819  0.2103  0.4604
  894BOLB   C4D21456  26.823  35.928  13.057 -0.0794 -0.1536 -0.1322
  895BOLB   NC121457  28.854  21.978  23.637 -0.3627 -0.0457 -0.2761
  895BOLB   PO121458  29.112  21.876  23.330  0.4161  0.0795 -0.1476
  895BOLB   GL121459  28.945  21.426  23.359 -0.0746 -0.0892 -0.3735
  895BOLB   GL221460  29.246  21.120  23.376  0.3527 -0.0527 -0.2614
  895BOLB   C1A21461  28.815  21.053  23.679 -0.1827 -0.5554 -0.1045
  895BOLB   C2A21462  28.871  20.627  23.860  0.2308 -0.0086  0.3658
  895BOLB   C3A21463  29.187  20.290  24.047  0.1692  0.1374 -0.0949
  895BOLB   C4A21464  29.134  19.844  24.204 -0.0543  0.0256 -0.0180
  895BOLB   C1B21465  29.344  20.671  23.462  0.0970 -0.0983  0.0240
  895BOLB   C2B21466  29.324  20.332  23.508  0.2582 -0.2680  0.2566
  895BOLB   C3B21467  29.507  19.955  23.638  0.2142  0.5799  0.0865
  895BOLB   C4B21468  29.654  19.615  23.969 -0.3276 -0.2311  0.1005
  895BOLB   NC221469  28.680  17.603  25.059  0.0848  0.1741 -0.2088
  895BOLB   PO221470  29.126  17.421  24.790  0.0353 -0.3768  0.0410
  895BOLB   GL321471  28.942  17.587  24.436  0.1229  0.1802 -0.0427
  895BOLB   GL421472  28.693  17.694  24.469 -0.1459 -0.1480 -0.1198
  895BOLB   C1C21473  29.032  18.141  24.369 -0.0297 -0.2811  0.1310
  895BOLB   C2C21474  29.188  18.489  24.327 -0.0244 -0.1543 -0.0495
  895BOLB   C3C21475  29.225  18.899  24.254  0.1780  0.0380 -0.1883
  895BOLB   C4C21476  29.333  19.382  24.282 -0.2876 -0.3486  0.0085
  895BOLB   C1D21477  28.525  18.098  24.541  0.1396 -0.2439  0.0726
  895BOLB   C2D21478  28.644  18.521  24.346 -0.0165 -0.1175  0.1434
  895BOLB   C3D21479  28.760  18.933  24.362 -0.0525 -0.1192 -0.0397
  895BOLB   C4D21480  28.808  19.329  24.141  0.0753  0.1643  0.0632
  896BOLB   NC121481  27.328  29.931   2.231  0.1820  0.0025 -0.1049
  896BOLB   PO121482  27.619  30.024   2.606 -0.1881  0.1771 -0.0900
  896BOLB   GL121483  27.563  29.953   3.087  0.0878  0.3033  0.1379
  896BOLB   GL221484  27.742  29.688   3.220  0.0456  0.0621 -0.2130
  896BOLB   C1A21485  27.400  29.963   3.542 -0.1516  0.1477 -0.4611
  896BOLB   C2A21486  27.446  29.814   3.995  0.3116 -0.3438  0.2556
  896BOLB   C3A21487  27.280  29.866   4.332 -0.0371  0.3440 -0.3594
  896BOLB   C4A21488  27.119  29.752   4.832 -0.2340  0.2102 -0.0499
  896BOLB   C1B21489  27.758  29.596   3.671  0.4782  0.2668  0.1041
  896BOLB   C2B21490  27.773  29.397   4.054 -0.1462 -0.3056  0.2865
  896BOLB   C3B21491  27.619  29.245   4.440 -0.3140  0.0796 -0.2466
  896BOLB   C4B21492  27.648  29.238   4.829 -0.1808  0.2328 -0.2286
  896BOLB   NC221493  27.322  29.846   7.697  0.0507  0.2036  0.0930
  896BOLB   PO221494  27.370  29.548   7.384 -0.0631 -0.1493 -0.0822
  896BOLB   GL321495  27.505  29.602   7.051  0.2298 -0.0955  0.1163
  896BOLB   GL421496  27.389  29.299   6.934  0.2548 -0.1423  0.1859
  896BOLB   C1C21497  27.291  29.680   6.607  0.0103 -0.3841  0.0356
  896BOLB   C2C21498  27.149  29.478   6.247 -0.1051  0.1595 -0.2321
  896BOLB   C3C21499  27.012  29.355   5.786  0.1524 -0.4093  0.2559
  896BOLB   C4C21500  27.044  29.497   5.355 -0.1962 -0.1310  0.3955
  896BOLB   C1D21501  27.424  29.111   6.475 -0.0123  0.0005  0.1733
  896BOLB   C2D21502  27.467  29.025   6.030 -0.1659  0.5033  0.5258
  896BOLB   C3D21503  27.362  29.063   5.551 -0.1166  0.1378 -0.2081
  896BOLB   C4D21504  27.203  28.809   5.093  0.1315  0.1370 -0.2828
  897BOLB   NC121505  31.130  25.926   6.528  0.1311 -0.2630 -0.1118
  897BOLB   PO121506  31.175  25.921   6.012  0.2964 -0.2555 -0.2615
  897BOLB   GL121507  31.099  26.224   5.713  0.1042  0.1608  0.1126
  897BOLB   GL221508  31.131  25.886   5.552  0.2203  0.1014 -0.3459
  897BOLB   C1A21509  30.876  26.459   5.363  0.1279  0.1865  0.1379
  897BOLB   C2A21510  30.607  26.592   5.065  0.0650  0.1208 -0.1181
  897BOLB   C3A21511  30.244  26.692   4.715  0.1172  0.0420  0.2489
  897BOLB   C4A21512  29.914  26.452   4.547 -0.1147  0.1903  0.2573
  897BOLB   C1B21513  31.305  26.117   5.164  0.0334  0.1230  0.0587
  897BOLB   C2B21514  31.108  26.489   4.923  0.1953  0.4075  0.2480
  897BOLB   C3B21515  30.898  26.533   4.600  0.0862 -0.0251 -0.0515
  897BOLB   C4B21516  30.936  26.210   4.219 -0.1539 -0.1005  0.0887
  897BOLB   NC221517  30.622  24.818   6.314  0.3001  0.1175  0.3549
  897BOLB   PO221518  30.468  24.541   5.905  0.0918  0.0252  0.0116
  897BOLB   GL321519  30.385  24.668   5.602 -0.2646 -0.1424 -0.2408
  897BOLB   GL421520  30.623  24.702   5.293 -0.2564 -0.0030  0.1786
  897BOLB   C1C21521  30.196  25.026   5.377 -0.0241 -0.0810 -0.1978
  897BOLB   C2C21522  29.959  25.413   5.226 -0.0389  0.1777  0.1185
  897BOLB   C3C21523  29.752  25.756   4.971 -0.3265  0.2297  0.0108
  897BOLB   C4C21524  29.793  26.116   4.617  0.1298 -0.1178  0.1967
  897BOLB   C1D21525  30.495  24.460   4.929 -0.0082  0.1866  0.0323
  897BOLB   C2D21526  30.611  24.267   4.509  0.0542  0.0261 -0.2118
  897BOLB   C3D21527  30.636  23.843   4.358 -0.3231  0.3762  0.0541
  897BOLB   C4D21528  30.284  23.606   4.183  0.0536 -0.1416  0.2672
  898BOLB   NC121529  32.788  34.239  16.539 -0.0084 -0.1974  0.2981
  898BOLB   PO121530  33.131  33.991  16.353  0.0927  0.0200 -0.1502
  898BOLB   GL121531  33.560  34.162  16.338  0.0119 -0.1291 -0.1310
  898BOLB   GL221532  33.833  34.042  16.440  0.0070  0.1245 -0.1646
  898BOLB   C1A21533  33.705  34.562  16.095  0.0794  0.3885 -0.1694
  898BOLB   C2A21534  33.856  34.794  15.870 -0.3370 -0.1929  0.1901
  898BOLB   C3A21535  33.919  34.715  15.432  0.0845  0.0594  0.0887
  898BOLB   C4A21536  33.792  34.982  15.054  0.2168  0.2380  0.0681
  898BOLB   C1B21537  34.156  34.431  16.394  0.0557  0.1340 -0.3998
  898BOLB   C2B21538  34.462  34.624  16.165 -0.1555 -0.0232 -0.0613
  898BOLB   C3B21539  34.483  34.835  15.784 -0.1502 -0.1277  0.1588
  898BOLB   C4B21540  34.353  34.974  15.360  0.1420  0.0667  0.1403
  898BOLB   NC221541  33.644  36.876  13.343 -0.2736  0.0118  0.0832
  898BOLB   PO221542  33.648  36.530  13.365  0.0241 -0.0636 -0.0098
  898BOLB   GL321543  33.578  36.119  13.680 -0.2542 -0.1140  0.0124
  898BOLB   GL421544  33.351  36.232  13.711 -0.1955  0.0143 -0.1462
  898BOLB   C1C21545  33.526  35.758  13.711 -0.0451 -0.1044  0.1545
  898BOLB   C2C21546  33.399  35.479  14.083 -0.0338 -0.0167 -0.0543
  898BOLB   C3C21547  33.310  35.202  14.462  0.0332 -0.0774 -0.1603
  898BOLB   C4C21548  33.639  35.093  14.723 -0.0498 -0.1684 -0.0441
  898BOLB   C1D21549  33.006  35.894  13.742  0.3687  0.1488 -0.0929
  898BOLB   C2D21550  32.846  35.892  14.166  0.1930 -0.2132 -0.1030
  898BOLB   C3D21551  33.111  35.731  14.467  0.0673  0.1712 -0.2367
  898BOLB   C4D21552  33.077  35.480  14.784  0.1431 -0.0217 -0.1352
  899BOLB   NC121553  24.326  23.022  17.816  0.0252 -0.0261  0.1035
  899BOLB   PO121554  24.132  23.302  17.986  0.0435  0.0673  0.0849
  899BOLB   GL121555  23.814  23.045  17.714  0.2702  0.3031  0.0871
  899BOLB   GL221556  23.511  23.056  17.790 -0.2273 -0.2277 -0.4114
  899BOLB   C1A21557  23.637  22.599  17.530 -0.1198 -0.1443 -0.2858
  899BOLB   C2A21558  23.476  22.472  17.192 -0.3277 -0.0536 -0.2681
  899BOLB   C3A21559  23.210  22.377  16.760  0.0052  0.2150  0.0869
  899BOLB   C4A21560  23.057  22.285  16.435  0.0560  0.0947 -0.1541
  899BOLB   C1B21561  23.239  22.750  17.670 -0.3444  0.1862  0.0336
  899BOLB   C2B21562  23.046  22.472  17.357  0.2376  0.0844 -0.0679
  899BOLB   C3B21563  23.049  21.987  17.278 -0.0729  0.1234  0.0331
  899BOLB   C4B21564  23.356  21.632  17.439 -0.0612  0.2854 -0.1062
  899BOLB   NC221565  22.785  20.228  14.717 -0.0054 -0.0656 -0.1610
  899BOLB   PO221566  22.934  20.245  15.057  0.4832  0.1054  0.0141
  899BOLB   GL321567  22.976  20.746  15.210  0.0845 -0.0387  0.1612
  899BOLB   GL421568  22.880  20.893  15.548 -0.1796 -0.0269  0.1339
  899BOLB   C1C21569  23.162  21.168  15.144 -0.0475 -0.3179  0.3453
  899BOLB   C2C21570  23.406  21.533  15.343  0.0151  0.1994  0.1243
  899BOLB   C3C21571  23.403  21.774  15.727  0.1865  0.0083  0.1481
  899BOLB   C4C21572  23.376  21.966  16.112 -0.0691  0.0368 -0.0688
  899BOLB   C1D21573  22.838  20.916  16.014  0.1076  0.5822 -0.1140
  899BOLB   C2D21574  22.594  21.238  16.282 -0.1826  0.0315  0.1392
  899BOLB   C3D21575  22.521  21.703  16.336  0.2388  0.0793  0.1685
  899BOLB   C4D21576  22.631  22.030  16.564 -0.2625 -0.2543 -0.3557
  900BOLB   NC121577  32.247  31.472  14.848 -0.1126  0.0799  0.0726
  900BOLB   PO121578  32.303  31.849  15.103 -0.1662 -0.0146 -0.2463
  900BOLB   GL121579  32.634  31.851  14.861 -0.1646  0.2180 -0.0884
  900BOLB   GL221580  32.552  31.842  14.614 -0.2235 -0.2470  0.0109
  900BOLB   C1A21581  32.896  32.179  14.741 -0.1403 -0.2498  0.1209
  900BOLB   C2A21582  33.061  32.692  14.676  0.6026  0.2504 -0.0790
  900BOLB   C3A21583  33.468  32.827  14.509  0.2867  0.1472 -0.3847
  900BOLB   C4A21584  33.607  33.308  14.454  0.0534  0.0508  0.1408
  900BOLB   C1B21585  32.721  31.989  14.262  0.0746  0.1000  0.1107
  900BOLB   C2B21586  32.747  31.918  13.661  0.0366 -0.0884 -0.1540
  900BOLB   C3B21587  32.609  31.708  13.282  0.1628  0.2360  0.1793
  900BOLB   C4B21588  32.422  31.530  12.865  0.1194  0.0493 -0.2913
  900BOLB   NC221589  33.594  34.735  12.195  0.0264  0.0280 -0.1013
  900BOLB   PO221590  33.840  34.919  12.392  0.1218  0.1495 -0.2223
  900BOLB   GL321591  33.844  34.676  12.709 -0.0425 -0.0702  0.1783
  900BOLB   GL421592  33.650  34.523  12.639 -0.1762  0.0033 -0.3980
  900BOLB   C1C21593  33.986  34.424  13.053  0.1678  0.1779  0.0832
  900BOLB   C2C21594  34.120  34.104  13.511  0.1022 -0.0567  0.2148
  900BOLB   C3C21595  33.800  33.863  13.750  0.1369 -0.1270 -0.0108
  900BOLB   C4C21596  33.620  33.578  14.147 -0.0597  0.0834 -0.0172
  900BOLB   C1D21597  33.492  34.241  12.993  0.1548 -0.2458  0.3497
  900BOLB   C2D21598  33.116  34.172  13.311  0.1851  0.2330  0.1241
  900BOLB   C3D21599  33.005  34.527  13.735 -0.0780 -0.5489  0.0673
  900BOLB   C4D21600  32.805  34.742  14.101  0.1897  0.1036 -0.4827
  901BOLB   NC121601  19.558  34.226  12.907  0.2294  0.0466 -0.0290
  901BOLB   PO121602  19.966  34.015  12.842 -0.0297 -0.5029 -0.3753
  901BOLB   GL121603  20.003  33.670  13.105 -0.0478  0.0231  0.0327
  901BOLB   GL221604  20.356  33.697  13.147 -0.1793  0.2215  0.0831
  901BOLB   C1A21605  20.036  33.312  13.395  0.2564  0.0782  0.0725
  901BOLB   C2A21606  20.281  33.098  13.660  0.1985  0.2642  0.0590
  901BOLB   C3A21607  20.581  32.908  13.927 -0.0271  0.2638 -0.3087
  901BOLB   C4A21608  20.977  33.078  14.116  0.3219 -0.3052  0.1274
  901BOLB   C1B21609  20.570  33.516  13.570  0.0365 -0.2319 -0.0478
  901BOLB   C2B21610  20.518  33.392  14.056  0.0225  0.2041 -0.1341
  901BOLB   C3B21611  20.506  33.207  14.486  0.0904  0.0563  0.2137
  901BOLB   C4B21612  20.528  32.975  14.880  0.0777  0.0819 -0.3928
  901BOLB   NC221613  20.024  34.320  13.621  0.1253  0.0820 -0.0403
  901BOLB   PO221614  20.341  34.576  13.449  0.1672 -0.0711 -0.0159
  901BOLB   GL321615  20.573  34.765  13.735  0.0167  0.0763 -0.0472
  901BOLB   GL421616  20.563  35.015  13.855 -0.3054  0.3202  0.1558
  901BOLB   C1C21617  20.855  34.414  13.986 -0.0780 -0.1600 -0.0775
  901BOLB   C2C21618  21.107  34.032  14.235  0.1075 -0.1801  0.2205
  901BOLB   C3C21619  21.425  33.654  14.399 -0.1528  0.1214  0.0268
  901BOLB   C4C21620  21.367  33.283  14.337 -0.0311 -0.1495  0.2177
  901BOLB   C1D21621  20.873  35.281  14.050 -0.5829 -0.2637  0.2301
  901BOLB   C2D21622  21.101  35.195  14.348 -0.2330 -0.0229 -0.0658
  901BOLB   C3D21623  21.144  34.981  14.750 -0.2449  0.1741  0.1749
  901BOLB   C4D21624  20.941  34.759  15.106  0.4667 -0.2703  0.1432
  902BOLB   NC121625  31.733  35.767  25.666  0.1414  0.1675 -0.0439
  902BOLB   PO121626  32.029  35.843  25.386 -0.3408 -0.0963  0.2451
  902BOLB   GL121627  32.005  36.229  25.597 -0.3158  0.3140  0.2318
  902BOLB   GL221628  31.680  36.523  25.646 -0.0448  0.0860  0.0891
  902BOLB   C1A21629  32.346  36.520  25.644  0.1978 -0.1391 -0.2331
  902BOLB   C2A21630  32.678  36.769  25.732 -0.0981 -0.0932  0.1622
  902BOLB   C3A21631  33.063  36.978  25.870  0.3738  0.0183  0.2963
  902BOLB   C4A21632  33.377  37.321  26.065 -0.0624  0.2928 -0.0212
  902BOLB   C1B21633  31.909  36.995  25.707 -0.0775  0.0473 -0.2987
  902BOLB   C2B21634  31.918  37.353  25.748 -0.1174  0.1448 -0.0501
  902BOLB   C3B21635  32.225  37.617  25.721  0.0816  0.0501 -0.0773
  902BOLB   C4B21636  32.590  37.831  25.852 -0.2463  0.3652  0.2846
  902BOLB   NC221637  34.760  38.854  26.882 -0.0387  0.2401  0.5634
  902BOLB   PO221638  34.855  38.478  26.624  0.1173  0.1602 -0.0935
  902BOLB   GL321639  34.526  38.385  26.864 -0.2059  0.3896 -0.0434
  902BOLB   GL421640  34.516  38.006  26.724  0.1274 -0.0981 -0.0868
  902BOLB   C1C21641  34.198  38.403  26.595  0.1053  0.1803  0.3145
  902BOLB   C2C21642  34.104  38.248  26.312  0.0054 -0.0746 -0.1591
  902BOLB   C3C21643  33.712  38.123  26.274 -0.0926 -0.1341  0.0748
  902BOLB   C4C21644  33.550  37.748  26.053  0.0073  0.0901 -0.2270
  902BOLB   C1D21645  34.186  37.927  26.775 -0.0476  0.1237 -0.0669
  902BOLB   C2D21646  33.962  37.704  26.419 -0.0001 -0.1967 -0.1566
  902BOLB   C3D21647  34.028  37.464  25.998  0.0021  0.0501 -0.2161
  902BOLB   C4D21648  33.777  37.119  25.823 -0.0734 -0.2005 -0.0569
  903BOLB   NC121649  21.968  34.301  18.584  0.1626  0.1743 -0.2294
  903BOLB   PO121650  21.718  34.556  18.702 -0.1113 -0.0033 -0.0529
  903BOLB   GL121651  21.332  34.623  18.670 -0.2395  0.0747 -0.1990
  903BOLB   GL221652  21.293  34.589  18.363  0.3240 -0.2843  0.4123
  903BOLB   C1A21653  20.965  34.834  18.667  0.1684 -0.3791  0.4628
  903BOLB   C2A21654  20.721  35.198  18.532 -0.0380  0.2411  0.1346
  903BOLB   C3A21655  20.667  35.504  18.745 -0.0220  0.5562  0.2988
  903BOLB   C4A21656  20.317  35.818  18.694 -0.0657 -0.2121 -0.0402
  903BOLB   C1B21657  21.319  34.884  18.058  0.1042 -0.2394  0.0087
  903BOLB   C2B21658  21.261  35.144  17.627  0.0423  0.0485 -0.1635
  903BOLB   C3B21659  21.202  35.116  17.228  0.0242  0.2664  0.1697
  903BOLB   C4B21660  21.011  35.104  16.889 -0.2161 -0.1467  0.2573
  903BOLB   NC221661  18.235  37.109  18.799  0.1291 -0.2212 -0.0710
  903BOLB   PO221662  18.243  36.917  19.177  0.1641  0.2533 -0.2008
  903BOLB   GL321663  18.550  36.744  18.970 -0.2041 -0.0601  0.2852
  903BOLB   GL421664  18.529  36.432  19.092  0.0925 -0.0289  0.3685
  903BOLB   C1C21665  18.974  36.915  18.874 -0.0904  0.2355 -0.4858
  903BOLB   C2C21666  19.336  36.707  18.843 -0.2021  0.1358  0.1149
  903BOLB   C3C21667  19.567  36.320  18.840  0.2659 -0.0124 -0.1180
  903BOLB   C4C21668  19.927  36.050  18.698  0.1656  0.3188 -0.1680
  903BOLB   C1D21669  18.835  36.349  18.806  0.0121 -0.0854  0.0243
  903BOLB   C2D21670  18.994  35.962  18.812 -0.0441 -0.0884  0.2262
  903BOLB   C3D21671  19.351  35.631  18.840  0.1892  0.1122  0.0365
  903BOLB   C4D21672  19.554  35.258  18.896  0.2864  0.0911 -0.0687
  904BOLB   NC121673  22.352  25.713  17.085  0.1366  0.0726 -0.0252
  904BOLB   PO121674  22.329  25.864  16.631  0.2897 -0.2594  0.4049
  904BOLB   GL121675  22.315  25.811  16.161  0.1126  0.2573  0.3336
  904BOLB   GL221676  22.108  25.620  16.123 -0.1835 -0.2053  0.2663
  904BOLB   C1A21677  22.395  25.760  15.760  0.0124  0.1592 -0.0927
  904BOLB   C2A21678  22.320  25.524  15.412  0.0281  0.2139  0.0147
  904BOLB   C3A21679  22.135  25.301  15.160 -0.4309 -0.2183 -0.4944
  904BOLB   C4A21680  21.919  25.233  14.820  0.1054  0.1944  0.3431
  904BOLB   C1B21681  22.050  25.340  15.788 -0.0086 -0.1252 -0.0334
  904BOLB   C2B21682  21.942  25.035  15.542  0.0317  0.1050  0.1622
  904BOLB   C3B21683  21.632  24.847  15.283  0.1171 -0.1272 -0.2083
  904BOLB   C4B21684  21.335  24.563  15.118  0.2146  0.1231  0.0026
  904BOLB   NC221685  21.427  23.538  13.366 -0.0664 -0.0388  0.4202
  904BOLB   PO221686  21.057  23.713  13.594  0.0823 -0.1826  0.2803
  904BOLB   GL321687  21.426  23.934  13.670 -0.1852  0.3610 -0.0941
  904BOLB   GL421688  21.402  24.258  13.501 -0.0926  0.2031 -0.2627
  904BOLB   C1C21689  21.465  24.095  14.069 -0.2726  0.0092 -0.0868
  904BOLB   C2C21690  21.293  24.450  14.240  0.1885 -0.2579 -0.2555
  904BOLB   C3C21691  21.237  24.761  14.608 -0.0787 -0.0883 -0.0867
  904BOLB   C4C21692  21.540  24.933  14.768 -0.2710 -0.1749 -0.1585
  904BOLB   C1D21693  21.641  24.462  13.787  0.0376  0.1076  0.2351
  904BOLB   C2D21694  22.016  24.472  14.010  0.2170  0.2123 -0.0293
  904BOLB   C3D21695  22.204  24.653  14.425 -0.0018 -0.0709 -0.4763
  904BOLB   C4D21696  22.422  24.796  14.781 -0.1362  0.0948 -0.0047
  905BOLB   NC121697  29.463  35.931   5.878  0.1195 -0.0174  0.0040
  905BOLB   PO121698  29.250  36.019   5.455 -0.1962 -0.1920 -0.1187
  905BOLB   GL121699  29.535  35.987   5.082 -0.0149  0.1122 -0.2220
  905BOLB   GL221700  29.404  36.123   4.794 -0.3330  0.2597  0.0993
  905BOLB   C1A21701  29.645  35.689   4.672  0.1722  0.1471  0.1389
  905BOLB   C2A21702  29.741  35.247   4.421 -0.0417  0.0787 -0.1592
  905BOLB   C3A21703  29.791  35.149   3.966  0.0589  0.1309  0.3389
  905BOLB   C4A21704  29.742  34.845   3.633  0.2611  0.0071  0.2620
  905BOLB   C1B21705  29.366  35.976   4.411  0.2717  0.2691 -0.3849
  905BOLB   C2B21706  29.481  36.076   3.924 -0.2267 -0.0148 -0.5609
  905BOLB   C3B21707  29.715  36.112   3.496 -0.0450  0.0622 -0.0971
  905BOLB   C4B21708  29.800  35.786   3.280  0.1212 -0.4224 -0.0772
  905BOLB   NC221709  28.866  33.856   1.040  0.1523  0.0194 -0.3291
  905BOLB   PO221710  28.944  33.995   1.419  0.2672 -0.3049 -0.4628
  905BOLB   GL321711  29.001  34.068   1.889  0.1579  0.1093 -0.0348
  905BOLB   GL421712  28.657  34.281   2.003 -0.0773  0.1235 -0.0132
  905BOLB   C1C21713  29.170  34.207   2.272  0.0559 -0.0174  0.2398
  905BOLB   C2C21714  29.186  34.336   2.625 -0.2162  0.0737  0.0537
  905BOLB   C3C21715  29.272  34.351   3.121 -0.2074  0.1461 -0.1546
  905BOLB   C4C21716  29.461  34.604   3.384  0.1449  0.0097  0.0057
  905BOLB   C1D21717  28.648  34.213   2.412  0.3336  0.3056 -0.1348
  905BOLB   C2D21718  28.774  34.109   2.833 -0.1899 -0.0523  0.1866
  905BOLB   C3D21719  28.655  33.804   3.220 -0.2755 -0.0265 -0.1897
  905BOLB   C4D21720  28.487  33.869   3.614 -0.4018  0.0236 -0.1108
  906BOLB   NC121721  21.298  32.284  16.603 -0.0616  0.2192 -0.0622
  906BOLB   PO121722  21.202  32.063  17.049 -0.0089 -0.1223  0.0130
  906BOLB   GL121723  20.884  32.257  16.877  0.3399  0.5440  0.0609
  906BOLB   GL221724  20.801  32.038  16.554 -0.2452  0.2813 -0.0416
  906BOLB   C1A21725  20.714  32.521  16.653  0.1121  0.4716 -0.0254
  906BOLB   C2A21726  20.585  32.846  16.442  0.1270 -0.1946 -0.0135
  906BOLB   C3A21727  20.385  33.067  16.147  0.0213 -0.0427 -0.1931
  906BOLB   C4A21728  20.277  33.316  15.968 -0.0042  0.0575  0.1990
  906BOLB   C1B21729  20.479  31.807  16.355  0.1959 -0.0987 -0.0081
  906BOLB   C2B21730  20.109  31.793  16.053 -0.0977 -0.0025 -0.1736
  906BOLB   C3B21731  19.748  31.722  15.798  0.1603  0.2379  0.0922
  906BOLB   C4B21732  19.470  31.336  15.863 -0.0090  0.4634  0.2143
  906BOLB   NC221733  18.773  33.933  13.660  0.0737  0.1413  0.0054
  906BOLB   PO221734  18.808  34.252  14.034 -0.3450 -0.1364 -0.0131
  906BOLB   GL321735  19.107  34.034  14.301  0.0180 -0.0714  0.0541
  906BOLB   GL421736  19.387  34.083  14.242  0.0762  0.2407 -0.0604
  906BOLB   C1C21737  19.312  34.105  14.744  0.0793  0.1514  0.1460
  906BOLB   C2C21738  19.683  33.982  15.059  0.0667  0.2784 -0.1578
  906BOLB   C3C21739  19.947  33.746  15.281 -0.0284 -0.0805  0.0090
  906BOLB   C4C21740  20.133  33.697  15.732  0.2141  0.0444 -0.2152
  906BOLB   C1D21741  19.470  33.712  14.313  0.1352 -0.3083 -0.2053
  906BOLB   C2D21742  19.430  33.320  14.234 -0.0576  0.0191  0.0141
  906BOLB   C3D21743  19.626  32.806  14.091  0.1500  0.1146 -0.0808
  906BOLB   C4D21744  19.421  32.349  14.290  0.6477  0.1003  0.0933
  907BOLB   NC121745  30.331  22.682  19.127 -0.1505  0.0920  0.0070
  907BOLB   PO121746  30.002  22.404  19.237  0.1495  0.3023  0.0299
  907BOLB   GL121747  30.254  22.131  18.963 -0.0667  0.0470  0.2369
  907BOLB   GL221748  30.342  22.329  18.624 -0.0751 -0.2027  0.0028
  907BOLB   C1A21749  30.323  21.856  18.681 -0.1075 -0.0777 -0.0121
  907BOLB   C2A21750  30.483  21.584  18.364  0.0450 -0.0026  0.0176
  907BOLB   C3A21751  30.658  21.177  18.236  0.1111 -0.0953 -0.0808
  907BOLB   C4A21752  30.920  20.944  18.092 -0.1383 -0.1754  0.1838
  907BOLB   C1B21753  30.734  22.129  18.433  0.1749  0.1888  0.2328
  907BOLB   C2B21754  30.928  21.770  18.278  0.0332  0.2347 -0.0693
  907BOLB   C3B21755  30.976  21.437  17.990  0.3218 -0.0612 -0.3943
  907BOLB   C4B21756  30.862  21.182  17.621  0.2180  0.0802  0.0079
  907BOLB   NC221757  31.305  18.832  16.821 -0.0347  0.0070  0.2307
  907BOLB   PO221758  31.512  19.044  16.426 -0.2068 -0.1017 -0.1493
  907BOLB   GL321759  31.261  19.303  16.842  0.1595  0.0850 -0.2718
  907BOLB   GL421760  30.935  19.217  16.695 -0.0772 -0.1402  0.1629
  907BOLB   C1C21761  31.159  19.535  17.174  0.4329  0.0156  0.3373
  907BOLB   C2C21762  31.027  19.854  17.540 -0.0595  0.1265 -0.2715
  907BOLB   C3C21763  31.007  20.274  17.567 -0.0542 -0.0372  0.0519
  907BOLB   C4C21764  30.954  20.647  17.866 -0.0452 -0.1035  0.2255
  907BOLB   C1D21765  30.694  19.504  16.986 -0.1185  0.2164  0.0529
  907BOLB   C2D21766  30.617  19.826  17.166  0.1813  0.2186 -0.2043
  907BOLB   C3D21767  30.512  20.003  17.579  0.1089 -0.1963  0.0137
  907BOLB   C4D21768  30.710  20.212  17.978 -0.2257  0.0206  0.0209
  908BOLB   NC121769  23.076  25.504  16.337 -0.1712 -0.1622  0.2166
  908BOLB   PO121770  22.921  25.773  16.590 -0.0971 -0.2775  0.0789
  908BOLB   GL121771  22.537  25.437  16.565  0.0983  0.4894 -0.2759
  908BOLB   GL221772  22.588  25.427  16.335 -0.0685 -0.0798  0.1785
  908BOLB   C1A21773  22.164  25.242  16.375  0.4249 -0.0644 -0.0725
  908BOLB   C2A21774  21.841  25.149  16.166  0.0840  0.1678 -0.0410
  908BOLB   C3A21775  21.456  25.107  15.844 -0.0988 -0.1697 -0.0795
  908BOLB   C4A21776  21.070  25.097  15.787 -0.0268  0.3352  0.0880
  908BOLB   C1B21777  22.611  25.300  16.004  0.3514  0.2301  0.1689
  908BOLB   C2B21778  22.425  25.066  15.651  0.0336 -0.1460  0.0604
  908BOLB   C3B21779  22.300  24.718  15.414 -0.0411 -0.2038 -0.1610
  908BOLB   C4B21780  21.992  24.639  15.055 -0.0935 -0.0087  0.0041
  908BOLB   NC221781  19.436  24.678  14.051 -0.1356  0.2292 -0.0105
  908BOLB   PO221782  19.742  24.371  14.115 -0.1124  0.0928 -0.1874
  908BOLB   GL321783  19.678  24.598  14.513 -0.1865 -0.2608 -0.0577
  908BOLB   GL421784  19.837  24.466  14.754 -0.0246 -0.0234 -0.0885
  908BOLB   C1C21785  19.937  24.941  14.708 -0.2476 -0.2802  0.1871
  908BOLB   C2C21786  20.321  25.071  14.918 -0.0173 -0.1675 -0.1938
  908BOLB   C3C21787  20.568  25.083  15.329  0.1684 -0.2048 -0.1874
  908BOLB   C4C21788  20.820  25.350  15.560  0.0820 -0.0326 -0.1124
  908BOLB   C1D21789  20.066  24.682  15.115  0.0372  0.0340 -0.3373
  908BOLB   C2D21790  20.046  24.904  15.501  0.1269 -0.0243  0.0376
  908BOLB   C3D21791  19.895  25.204  15.818 -0.0509  0.1637  0.1247
  908BOLB   C4D21792  19.921  25.547  16.090 -0.0551 -0.0945 -0.2299
  909BOLB   NC121793  25.021  26.646  14.448 -0.0724 -0.1103 -0.0171
  909BOLB   PO121794  25.271  27.000  14.381 -0.3660 -0.0476  0.0454
  909BOLB   GL121795  25.076  26.900  13.937  0.0964 -0.3547  0.0653
  909BOLB   GL221796  25.330  26.552  13.732  0.1011 -0.1682 -0.0189
  909BOLB   C1A21797  24.787  26.863  13.631 -0.2175  0.2416  0.0716
  909BOLB   C2A21798  24.527  26.626  13.246 -0.1624 -0.1051  0.2790
  909BOLB   C3A21799  24.223  26.657  12.812  0.0397  0.0549 -0.1258
  909BOLB   C4A21800  24.167  26.502  12.367 -0.0010  0.2153 -0.3650
  909BOLB   C1B21801  25.212  26.606  13.385 -0.2047 -0.0592  0.2002
  909BOLB   C2B21802  24.890  26.375  13.114 -0.2660  0.3221  0.1360
  909BOLB   C3B21803  24.727  26.192  12.708 -0.0435 -0.1776  0.0765
  909BOLB   C4B21804  24.460  26.091  12.497  0.1121 -0.0020  0.0369
  909BOLB   NC221805  22.819  25.492  11.017  0.2112 -0.0023 -0.0550
  909BOLB   PO221806  22.695  25.881  10.924 -0.1591  0.0413  0.1638
  909BOLB   GL321807  22.887  25.961  11.247 -0.0221  0.0158 -0.1973
  909BOLB   GL421808  23.084  26.165  11.192 -0.0372  0.2115  0.0843
  909BOLB   C1C21809  22.917  25.751  11.716  0.0567  0.2209  0.2304
  909BOLB   C2C21810  23.283  25.887  12.028  0.0062 -0.2669 -0.2333
  909BOLB   C3C21811  23.609  25.939  12.311 -0.0621  0.0033 -0.2368
  909BOLB   C4C21812  23.938  26.148  12.235  0.3749 -0.1445 -0.0721
  909BOLB   C1D21813  23.285  26.531  11.302 -0.3003  0.0120  0.0971
  909BOLB   C2D21814  23.698  26.731  11.439 -0.0471 -0.0393  0.1512
  909BOLB   C3D21815  23.812  26.844  11.798  0.0871  0.1325  0.0171
  909BOLB   C4D21816  23.808  27.055  12.245  0.2614 -0.0783 -0.0944
  910BOLB   NC121817  20.217  28.741  19.606 -0.3314  0.6261  0.0471
  910BOLB   PO121818  19.963  29.165  19.788  0.3278  0.1416  0.0527
  910BOLB   GL121819  19.578  28.889  19.639  0.0773  0.0635 -0.4780
  910BOLB   GL221820  19.435  29.164  19.880 -0.1158 -0.1471  0.3566
  910BOLB   C1A21821  19.238  28.830  19.436  0.0598  0.0396  0.0897
  910BOLB   C2A21822  18.790  28.841  19.278  0.2252  0.1788  0.1012
  910BOLB   C3A21823  18.404  28.692  19.080 -0.4275  0.1896 -0.0671
  910BOLB   C4A21824  18.038  28.694  18.842  0.0179  0.2214  0.2621
  910BOLB   C1B21825  19.042  28.999  19.832 -0.4524  0.0768  0.2759
  910BOLB   C2B21826  18.636  28.970  19.867 -0.2422 -0.1585 -0.2074
  910BOLB   C3B21827  18.205  28.879  19.998 -0.0108  0.0639  0.3862
  910BOLB   C4B21828  17.774  28.882  19.871 -0.2085  0.1751  0.1404
  910BOLB   NC221829  16.484  29.190  16.828 -0.0728  0.1668  0.1164
  910BOLB   PO221830  16.099  29.056  17.119  0.0245  0.0434 -0.1375
  910BOLB   GL321831  16.474  28.968  17.277 -0.0063  0.3574 -0.2014
  910BOLB   GL421832  16.427  28.672  17.396  0.3099 -0.0703 -0.1983
  910BOLB   C1C21833  16.798  29.034  17.561  0.0835 -0.1468 -0.1167
  910BOLB   C2C21834  17.228  29.063  17.715  0.0611  0.1133 -0.2415
  910BOLB   C3C21835  17.542  28.930  18.082  0.1458  0.1832 -0.2792
  910BOLB   C4C21836  17.638  28.831  18.501  0.0026 -0.0570 -0.1139
  910BOLB   C1D21837  16.641  28.290  17.542  0.2226 -0.3206 -0.0439
  910BOLB   C2D21838  16.986  28.042  17.619 -0.0838 -0.2709 -0.0073
  910BOLB   C3D21839  17.362  27.702  17.441 -0.1889 -0.1484  0.0794
  910BOLB   C4D21840  17.828  27.644  17.602  0.1287  0.1105  0.1610
  911BOLB   NC121841  29.792  35.882  26.718 -0.0397  0.1098 -0.2350
  911BOLB   PO121842  29.489  36.084  26.655 -0.0974  0.2400  0.1514
  911BOLB   GL121843  29.598  36.422   0.041 -0.1917 -0.1865  0.0063
  911BOLB   GL221844  29.394  36.622  26.919 -0.2463 -0.0985  0.2735
  911BOLB   C1A21845  29.883  36.829   0.150 -0.1474  0.0785  0.3472
  911BOLB   C2A21846  29.872  37.296   0.261  0.2659 -0.1425 -0.2045
  911BOLB   C3A21847  30.116  37.537   0.102 -0.0272 -0.1548  0.0475
  911BOLB   C4A21848  30.445  37.879   0.224 -0.0607 -0.1248  0.0845
  911BOLB   C1B21849  29.288  36.669   0.456  0.0615 -0.2174 -0.2063
  911BOLB   C2B21850  29.619  36.822   0.597  0.0361 -0.0501  0.0008
  911BOLB   C3B21851  29.979  37.066   0.712  0.0943 -0.0058 -0.0337
  911BOLB   C4B21852  30.355  37.027   0.943 -0.0213  0.0856 -0.1622
  911BOLB   NC221853  32.109  39.718   0.364 -0.1003 -0.1143  0.2064
  911BOLB   PO221854  31.687  39.780   0.677  0.3053  0.1173 -0.3476
  911BOLB   GL321855  31.272  39.634   0.524  0.4637  0.0254 -0.2126
  911BOLB   GL421856  30.976  39.816   0.450  0.0521  0.1073 -0.1574
  911BOLB   C1C21857  31.069  39.222   0.607 -0.0346 -0.2971 -0.2010
  911BOLB   C2C21858  31.129  38.858   0.759  0.2090  0.3496  0.1461
  911BOLB   C3C21859  31.011  38.448   0.726 -0.0406 -0.2476 -0.0707
  911BOLB   C4C21860  30.828  38.079   0.558  0.0371 -0.4526  0.2765
  911BOLB   C1D21861  30.721  39.688   0.076  0.0429  0.0190  0.2134
  911BOLB   C2D21862  30.548  39.468  26.703 -0.0874  0.2748  0.4533
  911BOLB   C3D21863  30.175  39.343  26.480  0.4866 -0.1038 -0.0436
  911BOLB   C4D21864  29.787  39.518  26.520 -0.4474  0.1670 -0.4929
  912BOLB   NC121865  24.159  33.081   0.960 -0.3015  0.1181  0.1560
  912BOLB   PO121866  23.932  33.500   1.164  0.0859 -0.0916 -0.0681
  912BOLB   GL121867  23.778  33.730   1.445 -0.0311  0.1604  0.2909
  912BOLB   GL221868  23.953  33.776   1.712  0.3194  0.4246  0.0729
  912BOLB   C1A21869  23.424  33.985   1.696 -0.0908 -0.0776  0.1849
  912BOLB   C2A21870  23.091  34.362   1.810  0.0661 -0.2146 -0.0241
  912BOLB   C3A21871  22.913  34.724   2.078  0.1739  0.0438  0.1096
  912BOLB   C4A21872  22.491  34.976   2.247  0.1504 -0.2005 -0.1001
  912BOLB   C1B21873  23.874  34.139   2.027 -0.0554  0.1979  0.1446
  912BOLB   C2B21874  23.839  34.450   2.292 -0.0240 -0.0042  0.3849
  912BOLB   C3B21875  23.719  34.592   2.696 -0.0348  0.0608  0.2192
  912BOLB   C4B21876  23.506  34.901   2.948 -0.1722  0.1963 -0.1677
  912BOLB   NC221877  20.686  36.465   3.648 -0.0443 -0.0546 -0.2569
  912BOLB   PO221878  20.929  36.329   3.193  0.6515 -0.1041 -0.3937
  912BOLB   GL321879  20.988  36.074   2.863 -0.0309  0.0595  0.2797
  912BOLB   GL421880  20.815  35.960   2.564  0.0694  0.1586 -0.1039
  912BOLB   C1C21881  21.368  35.909   2.808  0.2961  0.1940 -0.0076
  912BOLB   C2C21882  21.830  35.776   2.697 -0.4860 -0.1500 -0.0865
  912BOLB   C3C21883  22.114  35.576   2.287  0.2240 -0.1947 -0.2576
  912BOLB   C4C21884  22.235  35.270   2.222 -0.1688 -0.0600 -0.2397
  912BOLB   C1D21885  21.153  35.809   2.371  0.0710  0.1485 -0.1017
  912BOLB   C2D21886  21.345  35.415   2.452  0.2670 -0.1091 -0.2307
  912BOLB   C3D21887  21.255  35.035   2.561 -0.1259  0.1146 -0.0210
  912BOLB   C4D21888  21.178  34.709   2.820  0.1046 -0.0128 -0.1007
  913BOLB   NC121889  32.345  36.595  19.253  0.0073 -0.0271  0.0577
  913BOLB   PO121890  32.118  36.884  19.238  0.0689  0.3904  0.1464
  913BOLB   GL121891  32.296  37.091  19.018  0.0843  0.3199 -0.1272
  913BOLB   GL221892  32.661  37.102  19.156  0.1853  0.0930  0.0490
  913BOLB   C1A21893  32.407  37.511  18.913  0.0659  0.1856  0.2348
  913BOLB   C2A21894  32.366  37.948  19.030  0.6269 -0.1182  0.0505
  913BOLB   C3A21895  32.553  38.275  18.832 -0.0058 -0.2369  0.0867
  913BOLB   C4A21896  32.545  38.699  18.675  0.1542 -0.1806  0.3750
  913BOLB   C1B21897  32.928  37.388  19.278 -0.1740 -0.0486  0.2209
  913BOLB   C2B21898  33.215  37.699  19.253  0.3298  0.5471 -0.3625
  913BOLB   C3B21899  33.578  38.020  19.255  0.2514 -0.1404  0.0628
  913BOLB   C4B21900  33.635  38.435  19.155  0.1317 -0.1662 -0.1654
  913BOLB   NC221901  33.047  40.976  19.909 -0.4016 -0.1746  0.0748
  913BOLB   PO221902  33.029  41.053  19.506  0.1898  0.3361 -0.1996
  913BOLB   GL321903  32.931  40.529  19.485  0.0060  0.3766 -0.2359
  913BOLB   GL421904  32.929  40.399  19.885 -0.0261  0.0229  0.0509
  913BOLB   C1C21905  32.844  40.209  19.288  0.1118 -0.1328 -0.0131
  913BOLB   C2C21906  32.759  39.968  18.872  0.0630  0.1981  0.4856
  913BOLB   C3C21907  32.457  39.741  18.723  0.1656 -0.1228  0.5000
  913BOLB   C4C21908  32.439  39.218  18.652  0.0198  0.1080  0.3419
  913BOLB   C1D21909  32.819  40.008  19.861 -0.1677 -0.1627  0.2172
  913BOLB   C2D21910  33.062  39.466  19.982  0.1812  0.1931  0.0384
  913BOLB   C3D21911  33.101  39.130  20.048  0.4154 -0.1200 -0.0370
  913BOLB   C4D21912  33.033  38.755  20.261  0.1230 -0.0398 -0.1910
  914BOLB   NC121913  32.212  33.192  15.519  0.2010  0.2497  0.1558
  914BOLB   PO121914  32.050  33.623  15.507 -0.1937  0.1557 -0.1358
  914BOLB   GL121915  32.334  33.583  15.141  0.1484 -0.0253  0.0219
  914BOLB   GL221916  32.239  33.188  15.012  0.0281 -0.4215 -0.3996
  914BOLB   C1A21917  32.418  33.783  14.833  0.2779  0.3250 -0.2202
  914BOLB   C2A21918  32.432  34.134  14.426 -0.0345  0.2143 -0.1165
  914BOLB   C3A21919  32.568  34.314  14.015 -0.0545  0.3094 -0.0944
  914BOLB   C4A21920  32.383  34.194  13.621 -0.3928  0.2632 -0.0355
  914BOLB   C1B21921  32.595  33.281  14.775 -0.2047 -0.1262  0.2132
  914BOLB   C2B21922  32.880  33.661  14.649 -0.1855  0.1130  0.0626
  914BOLB   C3B21923  32.941  33.978  14.432  0.1315 -0.0744  0.0070
  914BOLB   C4B21924  33.075  34.190  14.114  0.1108  0.2325  0.0040
  914BOLB   NC221925  33.224  34.670  11.636 -0.1145 -0.0528 -0.4352
  914BOLB   PO221926  32.799  34.668  11.436 -0.2970  0.2112  0.0617
  914BOLB   GL321927  32.760  34.627  11.813  0.0579 -0.1329  0.0428
  914BOLB   GL421928  33.009  34.391  12.066 -0.0176  0.3325  0.2331
  914BOLB   C1C21929  32.485  34.403  12.019 -0.4433  0.1164 -0.3185
  914BOLB   C2C21930  32.551  34.350  12.486 -0.0075 -0.5658  0.0285
  914BOLB   C3C21931  32.342  34.195  12.865 -0.1831  0.3468 -0.2351
  914BOLB   C4C21932  32.316  34.150  13.223 -0.1324  0.2432  0.2436
  914BOLB   C1D21933  33.103  34.402  12.493 -0.2014 -0.3235 -0.2040
  914BOLB   C2D21934  32.955  34.126  12.770  0.1173 -0.1417  0.3876
  914BOLB   C3D21935  32.756  33.890  13.155  0.2739  0.0159 -0.1768
  914BOLB   C4D21936  32.490  33.638  13.384 -0.0848  0.3541  0.2159
  915BOLB   NC121937  26.094  36.063   0.452 -0.0402  0.1693 -0.4624
  915BOLB   PO121938  25.699  35.916   0.421 -0.1097  0.1267 -0.1656
  915BOLB   GL121939  25.650  36.103   0.828  0.0318  0.3924  0.4578
  915BOLB   GL221940  25.935  36.078   1.016 -0.0317  0.0381 -0.1056
  915BOLB   C1A21941  25.746  36.542   1.008  0.1033  0.0084 -0.1004
  915BOLB   C2A21942  25.788  36.981   1.324  0.3410  0.2809  0.6814
  915BOLB   C3A21943  25.956  37.156   1.781  0.1802  0.0066 -0.1636
  915BOLB   C4A21944  26.078  37.534   1.952  0.0250  0.1326  0.0507
  915BOLB   C1B21945  25.974  36.332   1.362  0.0010 -0.0107 -0.0399
  915BOLB   C2B21946  26.070  36.597   1.639 -0.1791 -0.3633 -0.2329
  915BOLB   C3B21947  25.985  36.630   2.065  0.0010 -0.0227  0.1174
  915BOLB   C4B21948  26.151  36.596   2.514  0.1666 -0.3214  0.0710
  915BOLB   NC221949  26.408  38.977   2.870  0.0559 -0.2007 -0.0721
  915BOLB   PO221950  26.820  39.162   2.799 -0.2175  0.0601  0.1376
  915BOLB   GL321951  27.066  39.002   2.411  0.0669  0.3024  0.0526
  915BOLB   GL421952  27.154  39.250   2.235  0.1850  0.1083  0.0213
  915BOLB   C1C21953  27.246  38.649   2.269  0.0644  0.2932  0.1649
  915BOLB   C2C21954  27.120  38.304   2.055 -0.2070  0.0290  0.1647
  915BOLB   C3C21955  26.735  38.158   1.949  0.0814  0.1030  0.1579
  915BOLB   C4C21956  26.307  37.946   2.005  0.2590 -0.1115 -0.2687
  915BOLB   C1D21957  27.293  38.966   1.889  0.1450 -0.3372 -0.0494
  915BOLB   C2D21958  27.411  38.692   1.542 -0.0564 -0.0322 -0.1256
  915BOLB   C3D21959  27.555  38.525   1.146  0.0663  0.0713  0.0789
  915BOLB   C4D21960  27.781  38.204   0.840  0.2023  0.0346 -0.1777
  916BOLB   NC121961  28.049  37.139  24.785 -0.1025 -0.3131 -0.1549
  916BOLB   PO121962  27.656  37.355  25.010 -0.3048 -0.2416 -0.2014
  916BOLB   GL121963  27.524  37.743  25.305  0.1332 -0.1861  0.1636
  916BOLB   GL221964  27.142  37.840  25.279 -0.1851 -0.0130 -0.0803
  916BOLB   C1A21965  27.676  38.189  25.292  0.0807 -0.0769  0.0860
  916BOLB   C2A21966  27.571  38.537  25.051  0.1540 -0.0305 -0.1097
  916BOLB   C3A21967  27.624  39.052  25.093  0.4369 -0.1515  0.0226
  916BOLB   C4A21968  27.523  39.453  25.255 -0.1296 -0.3085 -0.0646
  916BOLB   C1B21969  27.294  38.201  25.550  0.0391  0.2273 -0.0927
  916BOLB   C2B21970  27.121  38.625  25.642  0.3326  0.0427  0.1415
  916BOLB   C3B21971  26.816  38.917  25.639  0.2692 -0.0592 -0.0070
  916BOLB   C4B21972  26.596  38.844  26.056  0.0905  0.1090  0.2288
  916BOLB   NC221973  26.501  41.651  26.514 -0.3906  0.2268 -0.0540
  916BOLB   PO221974  26.670  41.364  26.207  0.3674  0.1340 -0.2205
  916BOLB   GL321975  26.693  41.014  25.872  0.1823 -0.0095 -0.2295
  916BOLB   GL421976  26.788  40.928  25.561  0.0961 -0.1131  0.0688
  916BOLB   C1C21977  26.654  40.624  25.982 -0.0958 -0.0745 -0.0398
  916BOLB   C2C21978  26.926  40.391  25.872 -0.0393 -0.1265 -0.0711
  916BOLB   C3C21979  27.198  40.121  25.718 -0.1250 -0.3738  0.0759
  916BOLB   C4C21980  27.378  39.759  25.433  0.2461 -0.3589 -0.0699
  916BOLB   C1D21981  26.903  40.447  25.434 -0.3783 -0.0327  0.2699
  916BOLB   C2D21982  27.064  40.094  25.223 -0.2192  0.0518 -0.1252
  916BOLB   C3D21983  27.094  39.670  24.982 -0.2092  0.0054 -0.0069
  916BOLB   C4D21984  27.162  39.337  24.721 -0.0380 -0.3343  0.0457
  917BOLB   NC121985  30.371  37.214  18.764  0.1033  0.1396 -0.1860
  917BOLB   PO121986  30.313  37.560  18.987 -0.1810  0.2727 -0.1051
  917BOLB   GL121987  30.577  37.794  19.199 -0.2216  0.0067 -0.3742
  917BOLB   GL221988  30.332  37.962  19.421  0.1985  0.2630 -0.1653
  917BOLB   C1A21989  30.674  38.262  19.066 -0.1969 -0.0268  0.3616
  917BOLB   C2A21990  31.032  38.563  18.796  0.2872  0.2303 -0.1287
  917BOLB   C3A21991  31.069  38.688  18.415 -0.0930 -0.1684 -0.0519
  917BOLB   C4A21992  31.056  39.170  18.426 -0.3157 -0.0265  0.1683
  917BOLB   C1B21993  30.230  38.367  19.239  0.0696  0.2216  0.1488
  917BOLB   C2B21994  30.139  38.772  19.096 -0.1861 -0.0437  0.3396
  917BOLB   C3B21995  30.202  39.037  18.697 -0.2785 -0.2945 -0.0451
  917BOLB   C4B21996  30.491  39.117  18.375  0.1626  0.1888  0.1083
  917BOLB   NC221997  31.186  41.566  19.153  0.1299 -0.3216  0.0014
  917BOLB   PO221998  31.409  41.207  19.288 -0.0237  0.1181  0.1535
  917BOLB   GL321999  31.286  40.859  19.366 -0.1604 -0.1881 -0.2975
  917BOLB   GL422000  31.548  40.666  19.343  0.1218 -0.0582  0.1038
  917BOLB   C1C22001  31.003  40.570  19.117  0.0038 -0.2281 -0.0069
  917BOLB   C2C22002  30.918  40.158  18.920  0.0779 -0.2786 -0.3024
  917BOLB   C3C22003  30.736  39.768  18.784 -0.1042 -0.0446  0.0793
  917BOLB   C4C22004  30.904  39.593  18.496 -0.1626  0.0256  0.1512
  917BOLB   C1D22005  31.469  40.322  19.351 -0.0292  0.0315 -0.4826
  917BOLB   C2D22006  31.227  40.035  19.302 -0.0022 -0.1347 -0.0478
  917BOLB   C3D22007  31.088  39.738  19.133 -0.2166  0.1790  0.0669
  917BOLB   C4D22008  31.052  39.360  18.928 -0.0151 -0.1020 -0.0260
  918BOLB   NC122009  32.177  36.767  21.243 -0.1930  0.1859  0.1680
  918BOLB   PO122010  32.496  36.608  21.512  0.1872  0.1722 -0.1545
  918BOLB   GL122011  32.661  36.994  21.440  0.0702  0.2691 -0.4274
  918BOLB   GL222012  32.907  36.987  21.646  0.3201 -0.0053 -0.3577
  918BOLB   C1A22013  32.711  37.442  21.498 -0.1198  0.0615 -0.1462
  918BOLB   C2A22014  32.969  37.829  21.378 -0.3011  0.2868  0.2259
  918BOLB   C3A22015  33.156  38.042  21.066 -0.1561 -0.1955 -0.3574
  918BOLB   C4A22016  33.552  38.155  21.157  0.0835  0.3476  0.4923
  918BOLB   C1B22017  33.024  37.035  22.179 -0.1122 -0.1193 -0.2571
  918BOLB   C2B22018  33.109  36.895  22.645  0.0054 -0.0401 -0.0907
  918BOLB   C3B22019  33.610  36.921  22.816  0.3009  0.0587  0.0369
  918BOLB   C4B22020  33.779  37.363  22.829 -0.2594 -0.1427  0.0284
  918BOLB   NC222021  35.220  39.510  20.642 -0.0149 -0.0684  0.0817
  918BOLB   PO222022  34.894  39.853  20.788  0.0880 -0.1990 -0.2365
  918BOLB   GL322023  34.779  39.513  20.826  0.0777  0.3527  0.3696
  918BOLB   GL422024  34.564  39.515  20.509 -0.2315  0.0818 -0.2254
  918BOLB   C1C22025  34.617  39.146  21.048  0.1995  0.3531 -0.3008
  918BOLB   C2C22026  34.412  38.875  21.271  0.2933 -0.1555 -0.0451
  918BOLB   C3C22027  34.035  38.591  21.364 -0.0613 -0.0226 -0.2844
  918BOLB   C4C22028  33.906  38.349  21.165  0.0376 -0.2522  0.0211
  918BOLB   C1D22029  34.226  39.560  20.814  0.2050 -0.1811 -0.1484
  918BOLB   C2D22030  34.173  39.398  21.213  0.0724  0.0864  0.1934
  918BOLB   C3D22031  33.960  39.037  21.184 -0.2654  0.2204 -0.3066
  918BOLB   C4D22032  33.609  38.715  21.037 -0.1148  0.0261  0.1437
  919BOLB   NC122033  31.829  23.527  11.161 -0.1750  0.0719  0.1261
  919BOLB   PO122034  31.687  23.366  11.583 -0.3382  0.1044 -0.2123
  919BOLB   GL122035  31.465  23.570  11.832 -0.0967  0.0071 -0.1074
  919BOLB   GL222036  31.486  23.416  12.089 -0.1053 -0.3647  0.0251
  919BOLB   C1A22037  31.089  23.799  11.949  0.4122 -0.4253 -0.0022
  919BOLB   C2A22038  31.146  24.292  12.114  0.2290  0.1038 -0.0356
  919BOLB   C3A22039  31.177  24.617  12.399 -0.0072  0.2719  0.0184
  919BOLB   C4A22040  30.980  25.001  12.278 -0.3651 -0.0179  0.3846
  919BOLB   C1B22041  31.539  23.639  12.526 -0.1232 -0.0587  0.1714
  919BOLB   C2B22042  31.426  23.862  12.890 -0.2087 -0.1272 -0.1779
  919BOLB   C3B22043  31.001  23.751  13.167  0.4402 -0.0311  0.1828
  919BOLB   C4B22044  30.863  23.693  13.596  0.0337 -0.1074  0.3216
  919BOLB   NC222045  30.274  24.168  10.889 -0.1444 -0.1746 -0.3150
  919BOLB   PO222046  30.301  24.626  10.761  0.1742 -0.2832 -0.2034
  919BOLB   GL322047  30.046  24.915  10.849  0.3386 -0.3439  0.2747
  919BOLB   GL422048  29.754  25.081  10.704 -0.2812 -0.2312 -0.0548
  919BOLB   C1C22049  30.044  25.108  11.211  0.0270  0.1534 -0.0148
  919BOLB   C2C22050  30.356  25.094  11.488 -0.3349  0.0330  0.1168
  919BOLB   C3C22051  30.728  25.190  11.683  0.1910  0.0060 -0.1450
  919BOLB   C4C22052  30.812  25.256  12.064  0.0103  0.1243 -0.0160
  919BOLB   C1D22053  29.633  25.278  11.005  0.0421 -0.3395 -0.0041
  919BOLB   C2D22054  29.465  25.297  11.453  0.1875  0.1105 -0.1642
  919BOLB   C3D22055  29.384  24.917  11.725  0.1666 -0.0623 -0.0137
  919BOLB   C4D22056  29.574  24.599  12.019 -0.0679  0.0397 -0.3641
  920BOLB   NC122057  26.949  24.051  16.172  0.0354 -0.0653  0.0673
  920BOLB   PO122058  26.899  23.575  16.360  0.0168 -0.0358 -0.0364
  920BOLB   GL122059  26.912  23.372  16.035 -0.1500 -0.1076  0.0233
  920BOLB   GL222060  27.217  23.383  15.806 -0.2534 -0.0566 -0.0033
  920BOLB   C1A22061  26.819  23.014  15.776 -0.2358  0.0703 -0.0400
  920BOLB   C2A22062  27.040  22.724  15.533 -0.2746 -0.2964 -0.0744
  920BOLB   C3A22063  27.023  22.347  15.382 -0.2355 -0.0647  0.1510
  920BOLB   C4A22064  27.115  22.125  14.979  0.0498 -0.1701 -0.3030
  920BOLB   C1B22065  27.086  23.319  15.341  0.2169 -0.0173  0.1256
  920BOLB   C2B22066  27.224  23.029  15.105  0.0767  0.3615  0.0891
  920BOLB   C3B22067  27.289  22.611  14.982 -0.2368  0.2366  0.0611
  920BOLB   C4B22068  27.274  22.403  14.496 -0.0786 -0.1621 -0.0276
  920BOLB   NC222069  27.269  19.940  13.434  0.0716  0.0598 -0.0601
  920BOLB   PO222070  27.266  20.339  13.498 -0.1877  0.1253 -0.0759
  920BOLB   GL322071  27.147  20.595  13.702 -0.2549  0.3194 -0.0076
  920BOLB   GL422072  27.303  20.494  13.994 -0.0688  0.1503 -0.1141
  920BOLB   C1C22073  27.250  21.033  13.845 -0.1423  0.2235  0.0989
  920BOLB   C2C22074  27.261  21.307  14.246  0.2530  0.0884  0.1307
  920BOLB   C3C22075  27.052  21.610  14.544  0.0788 -0.0519  0.1485
  920BOLB   C4C22076  27.189  21.930  14.658  0.2915 -0.1267  0.3381
  920BOLB   C1D22077  27.231  20.627  14.372 -0.0494  0.1560 -0.2074
  920BOLB   C2D22078  27.194  20.898  14.587  0.0525 -0.1427 -0.0707
  920BOLB   C3D22079  27.173  21.235  14.805  0.1430  0.1690 -0.1621
  920BOLB   C4D22080  27.290  21.218  15.195  0.2542  0.3766 -0.0579
  921BOLB   NC122081  31.912  33.344   1.538 -0.3155 -0.1303  0.0549
  921BOLB   PO122082  31.869  32.985   1.678  0.1830 -0.0110 -0.1134
  921BOLB   GL122083  31.922  32.742   2.072  0.0464 -0.1768  0.1456
  921BOLB   GL222084  32.273  32.572   2.211 -0.0096  0.1464  0.0133
  921BOLB   C1A22085  32.150  32.902   2.614 -0.0145  0.0649 -0.0475
  921BOLB   C2A22086  32.443  33.089   2.961 -0.0997  0.1770 -0.0644
  921BOLB   C3A22087  32.787  32.746   3.077  0.2047 -0.3030 -0.0590
  921BOLB   C4A22088  32.884  32.417   3.459  0.1799 -0.0861 -0.1470
  921BOLB   C1B22089  32.516  32.621   2.595 -0.2099  0.0649 -0.4289
  921BOLB   C2B22090  33.010  32.782   2.582  0.1906  0.2332 -0.4434
  921BOLB   C3B22091  33.321  33.106   2.525 -0.1225  0.1712  0.3495
  921BOLB   C4B22092  33.678  33.470   2.692  0.1386 -0.0070 -0.1921
  921BOLB   NC222093  34.094  30.975   5.622 -0.2633  0.0055 -0.2661
  921BOLB   PO222094  33.896  31.346   5.308  0.3200 -0.5520 -0.1686
  921BOLB   GL322095  33.486  31.411   4.992 -0.0044 -0.1921  0.0699
  921BOLB   GL422096  33.623  31.238   4.793 -0.2142  0.0479  0.1229
  921BOLB   C1C22097  33.084  31.722   4.909  0.2074 -0.0839 -0.0935
  921BOLB   C2C22098  32.850  32.004   4.656 -0.0763 -0.2168 -0.2123
  921BOLB   C3C22099  32.826  32.292   4.208  0.0230 -0.0350  0.0699
  921BOLB   C4C22100  32.817  32.147   3.787  0.2457 -0.2926 -0.2224
  921BOLB   C1D22101  33.751  30.979   4.554  0.0487 -0.1121  0.2117
  921BOLB   C2D22102  33.684  30.707   4.394  0.0906  0.0260  0.3321
  921BOLB   C3D22103  33.630  30.395   4.004  0.0384  0.0490  0.0192
  921BOLB   C4D22104  33.942  30.087   3.823  0.1711 -0.0253 -0.1280
  922BOLB   NC122105  14.381  21.407  21.997  0.0471  0.2004 -0.3675
  922BOLB   PO122106  14.503  21.730  21.722  0.0686 -0.2304 -0.2149
  922BOLB   GL122107  14.895  22.014  21.651  0.4053 -0.2162 -0.1889
  922BOLB   GL222108  15.128  21.817  21.637 -0.0841  0.2709  0.0467
  922BOLB   C1A22109  15.153  22.363  21.613  0.2042 -0.0079  0.0323
  922BOLB   C2A22110  15.400  22.586  21.926  0.0418 -0.0289  0.2929
  922BOLB   C3A22111  15.767  22.926  21.908  0.1028  0.1697  0.0362
  922BOLB   C4A22112  15.843  23.413  21.878  0.0099  0.4588 -0.0961
  922BOLB   C1B22113  15.612  21.764  21.579 -0.1055  0.0949  0.0387
  922BOLB   C2B22114  15.970  21.658  21.600  0.1782 -0.3945 -0.0030
  922BOLB   C3B22115  16.441  21.820  21.645 -0.2733 -0.1767 -0.0718
  922BOLB   C4B22116  16.565  22.122  21.469  0.0650 -0.2359  0.0497
  922BOLB   NC222117  13.475  24.181  20.960 -0.1613 -0.1580 -0.0173
  922BOLB   PO222118  13.456  24.222  21.340  0.0891 -0.0038  0.1698
  922BOLB   GL322119  13.857  24.162  21.291  0.0609 -0.0780 -0.2346
  922BOLB   GL422120  13.922  23.935  21.060 -0.2995 -0.0865  0.2401
  922BOLB   C1C22121  14.293  24.276  21.415 -0.1467  0.0935  0.0234
  922BOLB   C2C22122  14.668  24.143  21.573 -0.0474  0.0168  0.0462
  922BOLB   C3C22123  15.092  23.920  21.737 -0.1120  0.0928  0.1074
  922BOLB   C4C22124  15.537  23.733  21.881  0.1748  0.1297 -0.0049
  922BOLB   C1D22125  14.341  23.826  21.347 -0.0310 -0.0941  0.3543
  922BOLB   C2D22126  14.392  23.500  21.344 -0.2640  0.1563 -0.1711
  922BOLB   C3D22127  14.633  23.215  21.323 -0.0854 -0.3017  0.0207
  922BOLB   C4D22128  15.055  23.289  21.277  0.1097 -0.0320 -0.0926
  923BOLB   NC122129  35.481  32.083  18.919  0.1569 -0.0254 -0.0372
  923BOLB   PO122130  35.447  31.777  19.303  0.1041 -0.0580  0.4869
  923BOLB   GL122131  35.885  31.875  19.194  0.0164 -0.2370 -0.0462
  923BOLB   GL222132  36.103  31.707  19.365  0.1414 -0.0182  0.2546
  923BOLB   C1A22133  36.200  31.829  18.803 -0.1371 -0.0109  0.0552
  923BOLB   C2A22134  36.433  31.612  18.404 -0.0406 -0.0334  0.0046
  923BOLB   C3A22135  36.939  31.363  18.334 -0.1555  0.2137  0.2375
  923BOLB   C4A22136  37.296  31.151  18.391  0.3100 -0.0640 -0.2957
  923BOLB   C1B22137  36.571  31.546  19.605 -0.2045 -0.2258  0.1924
  923BOLB   C2B22138  36.948  31.398  19.276  0.2447 -0.1717 -0.1262
  923BOLB   C3B22139  37.278  31.124  19.357 -0.1985 -0.5248 -0.4670
  923BOLB   C4B22140  37.533  30.773  19.383 -0.1038 -0.0137  0.0206
  923BOLB   NC222141  39.053  30.384  16.688  0.1979  0.0503  0.1707
  923BOLB   PO222142  39.320  30.151  17.061  0.0171  0.3122 -0.0209
  923BOLB   GL322143  38.926  30.085  17.095 -0.1156 -0.1824 -0.0729
  923BOLB   GL422144  38.742  29.788  16.972 -0.2167 -0.0994 -0.1508
  923BOLB   C1C22145  38.531  30.217  17.350  0.0738 -0.0365  0.0394
  923BOLB   C2C22146  38.237  30.560  17.519  0.0333 -0.1774 -0.1276
  923BOLB   C3C22147  37.839  30.848  17.652  0.0084  0.2109  0.0569
  923BOLB   C4C22148  37.578  31.010  18.121  0.3215 -0.2201 -0.1242
  923BOLB   C1D22149  38.390  30.061  16.892  0.0541 -0.0568  0.3772
  923BOLB   C2D22150  38.068  30.109  17.180  0.2085  0.4468  0.0386
  923BOLB   C3D22151  37.911  29.749  17.483 -0.0685 -0.1279  0.1165
  923BOLB   C4D22152  38.020  29.401  17.682  0.1082 -0.1286  0.2305
  924BOLB   NC122153  32.186  24.823  17.293 -0.2367 -0.0162  0.4132
  924BOLB   PO122154  32.226  24.672  16.955  0.3226  0.0146 -0.1552
  924BOLB   GL122155  32.101  24.238  16.799 -0.0604 -0.1866  0.0564
  924BOLB   GL222156  32.072  23.976  17.032  0.2194 -0.0966 -0.2428
  924BOLB   C1A22157  32.226  23.810  16.613 -0.0372 -0.3354 -0.2596
  924BOLB   C2A22158  32.509  23.467  16.302 -0.0898  0.1784  0.3512
  924BOLB   C3A22159  32.577  23.089  16.227  0.0863 -0.1551 -0.1755
  924BOLB   C4A22160  32.462  22.651  16.038  0.2104  0.0404 -0.3238
  924BOLB   C1B22161  32.023  23.549  16.981 -0.0586  0.3280  0.2102
  924BOLB   C2B22162  32.402  23.458  16.937 -0.0860  0.1644 -0.1836
  924BOLB   C3B22163  32.533  23.095  16.932  0.1429  0.1678 -0.1111
  924BOLB   C4B22164  32.463  22.786  16.719  0.3217 -0.0542 -0.2499
  924BOLB   NC222165  32.551  20.383  14.219 -0.1479 -0.0574 -0.2505
  924BOLB   PO222166  32.648  20.842  14.448 -0.2863 -0.0670  0.1322
  924BOLB   GL322167  32.660  21.102  14.815 -0.0236  0.3326  0.0096
  924BOLB   GL422168  32.925  21.270  15.020  0.0303  0.2858  0.2858
  924BOLB   C1C22169  32.444  21.238  15.187 -0.0727  0.2135  0.2319
  924BOLB   C2C22170  32.280  21.543  15.475  0.0664  0.0604 -0.3400
  924BOLB   C3C22171  32.417  21.789  15.743 -0.3080  0.0928  0.0957
  924BOLB   C4C22172  32.511  22.222  15.890 -0.2644 -0.0810 -0.0785
  924BOLB   C1D22173  33.139  21.568  15.259 -0.0853  0.0874 -0.1899
  924BOLB   C2D22174  33.053  21.847  15.433  0.1808 -0.2755  0.0278
  924BOLB   C3D22175  32.909  22.140  15.690 -0.1038 -0.3255 -0.2713
  924BOLB   C4D22176  32.972  22.489  15.974 -0.1750 -0.1504  0.0998
  925BOLB   NC122177  32.959  28.414  15.328  0.3439  0.0710 -0.4506
  925BOLB   PO122178  32.653  28.148  15.145 -0.0304 -0.1731 -0.1530
  925BOLB   GL122179  33.030  28.093  14.912  0.3333 -0.0161  0.2684
  925BOLB   GL222180  33.044  27.644  14.937 -0.2841 -0.1781  0.0213
  925BOLB   C1A22181  33.470  28.256  14.772  0.1174 -0.0541 -0.0971
  925BOLB   C2A22182  33.890  28.409  14.922 -0.0902  0.0708 -0.1624
  925BOLB   C3A22183  34.322  28.385  14.823 -0.0173  0.1378 -0.3020
  925BOLB   C4A22184  34.472  28.367  14.460  0.0075  0.0416  0.0622
  925BOLB   C1B22185  33.270  27.541  14.654 -0.1188 -0.4043 -0.1779
  925BOLB   C2B22186  33.478  27.333  14.224 -0.1319  0.2752 -0.0189
  925BOLB   C3B22187  33.571  26.919  14.114 -0.0867 -0.0525 -0.1159
  925BOLB   C4B22188  33.984  27.002  14.015  0.1635  0.3241 -0.0117
  925BOLB   NC222189  35.674  28.628  12.329  0.0617  0.0480  0.0186
  925BOLB   PO222190  36.008  28.764  12.647  0.1685  0.0370 -0.0722
  925BOLB   GL322191  35.587  28.720  12.870 -0.1122 -0.1467  0.0967
  925BOLB   GL422192  35.256  28.650  12.631 -0.4071 -0.3803 -0.0607
  925BOLB   C1C22193  35.313  28.555  13.198  0.1336  0.0946  0.1688
  925BOLB   C2C22194  35.280  28.412  13.668 -0.0609 -0.0440  0.0483
  925BOLB   C3C22195  35.188  28.404  14.053 -0.3834  0.1825 -0.0756
  925BOLB   C4C22196  34.807  28.462  14.250 -0.1950  0.1104 -0.0750
  925BOLB   C1D22197  34.953  28.458  12.775 -0.0998 -0.1092  0.1881
  925BOLB   C2D22198  34.722  28.546  13.188 -0.1899  0.2667 -0.3567
  925BOLB   C3D22199  34.806  28.783  13.592  0.4163 -0.0417  0.0118
  925BOLB   C4D22200  34.435  29.016  13.820  0.2775  0.0323  0.0501
  926BOLB   NC122201  15.299  32.155  25.406  0.1175 -0.0681  0.1351
  926BOLB   PO122202  15.682  31.882  25.391 -0.0811 -0.2621 -0.1708
  926BOLB   GL122203  16.011  31.570  25.172 -0.3179  0.1060 -0.1928
  926BOLB   GL222204  16.256  31.590  25.362  0.0691  0.1748 -0.0460
  926BOLB   C1A22205  16.021  31.220  24.824  0.2799  0.2405 -0.1635
  926BOLB   C2A22206  16.390  31.023  24.649  0.0311  0.0776 -0.0779
  926BOLB   C3A22207  16.402  30.734  24.397  0.0234  0.3947 -0.2480
  926BOLB   C4A22208  16.320  30.389  24.270 -0.2795 -0.1047  0.0286
  926BOLB   C1B22209  16.430  31.534  24.868  0.4781  0.0661 -0.1756
  926BOLB   C2B22210  16.729  31.513  24.511 -0.1552 -0.1574  0.0884
  926BOLB   C3B22211  16.899  31.245  24.267 -0.0125  0.0299  0.2019
  926BOLB   C4B22212  17.326  30.910  24.284 -0.3729  0.1133  0.0640
  926BOLB   NC222213  14.330  30.474  22.631 -0.2864 -0.2689 -0.0083
  926BOLB   PO222214  14.098  30.539  22.978  0.0591  0.5078 -0.2365
  926BOLB   GL322215  14.642  30.454  23.160 -0.4789  0.2187  0.1498
  926BOLB   GL422216  14.640  30.379  23.487 -0.2867  0.4968  0.1567
  926BOLB   C1C22217  15.096  30.423  23.322 -0.0796  0.2197  0.0346
  926BOLB   C2C22218  15.298  30.328  23.724  0.0295  0.0726  0.0829
  926BOLB   C3C22219  15.555  30.018  23.892 -0.0577  0.1603 -0.0412
  926BOLB   C4C22220  15.932  30.112  24.139 -0.0355 -0.0415  0.0942
  926BOLB   C1D22221  14.856  30.572  23.759 -0.1085  0.1411 -0.0686
  926BOLB   C2D22222  15.140  30.834  23.720 -0.0343  0.0719  0.3936
  926BOLB   C3D22223  15.555  31.027  23.745 -0.0453  0.2699  0.0806
  926BOLB   C4D22224  15.817  31.062  23.380  0.0191  0.0834 -0.1496
  927BOLB   NC122225  32.794  24.222  20.884  0.0583  0.1591  0.1048
  927BOLB   PO122226  33.085  23.892  20.798 -0.0571 -0.0896 -0.3261
  927BOLB   GL122227  33.332  23.628  20.564  0.0419  0.4015  0.0720
  927BOLB   GL222228  33.590  23.430  20.719 -0.3327 -0.1724 -0.1120
  927BOLB   C1A22229  33.699  23.414  20.213  0.1846  0.0513 -0.2020
  927BOLB   C2A22230  33.999  23.170  20.165  0.0221 -0.1969  0.0126
  927BOLB   C3A22231  34.240  22.860  20.026 -0.0779  0.1917 -0.2912
  927BOLB   C4A22232  34.588  22.630  20.004 -0.0603 -0.1213 -0.2789
  927BOLB   C1B22233  33.922  23.198  20.826  0.1985 -0.0813 -0.2248
  927BOLB   C2B22234  34.207  23.036  21.237 -0.3515  0.1914  0.2672
  927BOLB   C3B22235  34.549  22.820  21.183  0.2765 -0.0654  0.4329
  927BOLB   C4B22236  34.888  22.552  21.148 -0.1493  0.0076 -0.0590
  927BOLB   NC222237  36.336  21.557  19.148  0.0623  0.0717  0.2217
  927BOLB   PO222238  36.595  21.509  19.473  0.0229 -0.4775  0.1342
  927BOLB   GL322239  36.308  21.693  19.727 -0.0711 -0.0422  0.0311
  927BOLB   GL422240  36.300  21.765  19.949 -0.2492  0.0518 -0.1300
  927BOLB   C1C22241  35.812  21.626  19.702  0.0904 -0.1373  0.1076
  927BOLB   C2C22242  35.446  21.834  19.927 -0.0910  0.1532  0.4361
  927BOLB   C3C22243  35.124  22.009  19.934 -0.2377  0.3111 -0.0623
  927BOLB   C4C22244  34.852  22.166  20.116  0.0396 -0.0559 -0.0594
  927BOLB   C1D22245  36.258  21.797  20.346 -0.1700  0.1680  0.0882
  927BOLB   C2D22246  36.403  22.027  20.698 -0.1306  0.0089  0.1672
  927BOLB   C3D22247  36.600  22.167  21.133 -0.0893  0.0541  0.4583
  927BOLB   C4D22248  36.840  22.143  21.550  0.1879  0.1796 -0.1241
  928BOLB   NC122249  29.109  21.618  21.345 -0.2406  0.2594 -0.0331
  928BOLB   PO122250  29.509  21.660  21.009  0.2857  0.4250  0.1305
  928BOLB   GL122251  29.603  21.209  21.031  0.1871  0.1296  0.3731
  928BOLB   GL222252  29.695  21.319  20.682 -0.0435  0.2653 -0.1279
  928BOLB   C1A22253  29.837  20.848  20.834  0.3597  0.4293  0.0816
  928BOLB   C2A22254  29.877  20.514  21.139 -0.0996 -0.0232 -0.0321
  928BOLB   C3A22255  29.945  20.214  21.458 -0.2416  0.0230 -0.1800
  928BOLB   C4A22256  30.126  19.881  21.349 -0.3467  0.1070 -0.1399
  928BOLB   C1B22257  29.889  21.085  20.412  0.2628  0.0181 -0.0022
  928BOLB   C2B22258  30.174  20.757  20.501 -0.0639 -0.1098  0.0991
  928BOLB   C3B22259  30.378  20.455  20.446 -0.0322  0.0436  0.1442
  928BOLB   C4B22260  30.545  20.181  20.129 -0.0696  0.2108  0.1141
  928BOLB   NC222261  30.052  17.707  20.137 -0.0791  0.1759 -0.3349
  928BOLB   PO222262  29.980  17.857  20.518 -0.2197  0.5977 -0.0816
  928BOLB   GL322263  30.014  18.103  20.785 -0.0001  0.0401 -0.2852
  928BOLB   GL422264  29.640  18.126  20.958  0.0675  0.1541  0.0708
  928BOLB   C1C22265  30.376  18.338  20.875 -0.0228 -0.0776 -0.1373
  928BOLB   C2C22266  30.289  18.724  21.037 -0.0427  0.0031  0.1874
  928BOLB   C3C22267  30.314  19.049  21.212  0.0587 -0.0575 -0.0736
  928BOLB   C4C22268  30.359  19.430  21.433  0.1020 -0.0679 -0.1300
  928BOLB   C1D22269  29.857  18.555  20.763  0.2297  0.2387 -0.0599
  928BOLB   C2D22270  29.943  19.065  20.920  0.0263  0.0434 -0.1714
  928BOLB   C3D22271  30.015  19.489  21.059  0.2099  0.0467  0.0376
  928BOLB   C4D22272  29.882  19.792  20.850  0.2797 -0.3580  0.0871
  929BOLB   NC122273  32.684  26.032   0.076  0.1195 -0.3547  0.0322
  929BOLB   PO122274  32.378  25.685   0.113 -0.1285  0.1457 -0.3785
  929BOLB   GL122275  32.365  25.270   0.319 -0.2215  0.4553 -0.2320
  929BOLB   GL222276  32.396  25.438   0.665 -0.1365 -0.0041 -0.2547
  929BOLB   C1A22277  32.448  24.924   0.647 -0.1812 -0.0772  0.3961
  929BOLB   C2A22278  32.807  24.872   1.051  0.0970 -0.4349  0.2711
  929BOLB   C3A22279  33.065  25.076   1.281 -0.3353  0.0801  0.1865
  929BOLB   C4A22280  33.553  24.999   1.295 -0.1071  0.1580 -0.0065
  929BOLB   C1B22281  32.786  25.293   0.756  0.2033  0.2585  0.0531
  929BOLB   C2B22282  33.151  25.233   0.803  0.4205 -0.2331 -0.0066
  929BOLB   C3B22283  33.437  25.428   0.946  0.0414  0.2969 -0.1895
  929BOLB   C4B22284  33.834  25.393   1.143  0.0841  0.0742  0.0666
  929BOLB   NC222285  34.825  23.334   2.643 -0.0451  0.2037  0.0846
  929BOLB   PO222286  34.679  23.447   2.980  0.0740 -0.1727  0.2074
  929BOLB   GL322287  34.498  23.766   2.664 -0.2654  0.0343  0.0045
  929BOLB   GL422288  34.290  23.617   2.316  0.2656  0.1030  0.0690
  929BOLB   C1C22289  34.561  24.089   2.345 -0.0251 -0.1029 -0.0238
  929BOLB   C2C22290  34.349  24.242   2.083 -0.1672 -0.0667  0.0559
  929BOLB   C3C22291  33.994  24.397   1.800  0.1159  0.2194 -0.0487
  929BOLB   C4C22292  33.698  24.670   1.416 -0.0338 -0.3105 -0.0738
  929BOLB   C1D22293  34.056  23.987   2.387 -0.0977  0.0951 -0.0998
  929BOLB   C2D22294  33.719  24.127   2.146  0.0016 -0.0098 -0.1341
  929BOLB   C3D22295  33.474  24.480   1.969  0.0750  0.0291  0.1143
  929BOLB   C4D22296  33.133  24.614   1.760  0.0173 -0.0671  0.4520
  930BOLB   NC122297  17.207  22.520   2.918  0.0455  0.1193 -0.2470
  930BOLB   PO122298  16.969  22.786   3.241  0.1539 -0.1139 -0.0835
  930BOLB   GL122299  17.289  23.032   3.038  0.2003  0.0352  0.0144
  930BOLB   GL222300  17.567  22.884   2.888  0.0990  0.0097  0.1625
  930BOLB   C1A22301  17.531  23.362   2.731  0.1296  0.3920  0.1465
  930BOLB   C2A22302  17.952  23.468   2.556 -0.1154 -0.2429 -0.1917
  930BOLB   C3A22303  18.139  23.580   2.262  0.0995 -0.1748  0.1282
  930BOLB   C4A22304  18.517  23.495   2.161 -0.0724  0.2021 -0.0552
  930BOLB   C1B22305  17.764  22.760   3.183 -0.4923 -0.0117  0.0989
  930BOLB   C2B22306  17.940  22.991   3.489 -0.3326  0.0257  0.1100
  930BOLB   C3B22307  18.281  22.766   3.736  0.1697  0.0060  0.2140
  930BOLB   C4B22308  18.649  22.718   3.560 -0.2392 -0.0520 -0.0540
  930BOLB   NC222309  17.750  21.507   2.916 -0.0282 -0.1569  0.3894
  930BOLB   PO222310  18.054  21.442   2.536  0.0797 -0.0496  0.0845
  930BOLB   GL322311  18.368  21.639   2.232  0.1006  0.0115 -0.2271
  930BOLB   GL422312  18.201  21.595   1.950 -0.2390  0.1072  0.2584
  930BOLB   C1C22313  18.627  21.957   2.091 -0.2508 -0.2401 -0.0037
  930BOLB   C2C22314  18.812  22.371   1.975 -0.3015  0.0109  0.1545
  930BOLB   C3C22315  18.970  22.791   2.104  0.1035  0.0356 -0.0862
  930BOLB   C4C22316  18.785  23.073   2.145  0.3647 -0.2088  0.0883
  930BOLB   C1D22317  18.478  21.572   1.659  0.0354 -0.0022 -0.0779
  930BOLB   C2D22318  18.842  21.468   1.425  0.0036  0.0235 -0.1422
  930BOLB   C3D22319  19.006  21.790   1.211  0.1564 -0.0160 -0.0959
  930BOLB   C4D22320  18.809  22.059   0.968 -0.2490 -0.3688  0.3558
  931BOLB   NC122321  19.291  16.462  23.421  0.1506 -0.1326  0.2728
  931BOLB   PO122322  19.586  16.512  23.094  0.1313 -0.0926 -0.2074
  931BOLB   GL122323  20.022  16.628  23.173 -0.0727 -0.3662  0.1415
  931BOLB   GL222324  20.196  16.827  23.069  0.0319 -0.4419  0.4684
  931BOLB   C1A22325  20.439  16.588  23.376  0.0143  0.1348 -0.0462
  931BOLB   C2A22326  20.804  16.825  23.513 -0.0708 -0.1560 -0.1033
  931BOLB   C3A22327  21.144  17.169  23.671  0.0057  0.2455  0.1179
  931BOLB   C4A22328  21.059  17.458  24.039 -0.2426 -0.0082 -0.0297
  931BOLB   C1B22329  20.442  17.209  23.165  0.2499 -0.0245  0.2701
  931BOLB   C2B22330  20.672  17.292  23.484 -0.1336 -0.2755  0.3126
  931BOLB   C3B22331  20.778  17.713  23.651  0.2232 -0.1927  0.0372
  931BOLB   C4B22332  20.907  18.145  23.636 -0.0127 -0.0161  0.2755
  931BOLB   NC222333  19.694  17.225  25.368 -0.0138 -0.1180 -0.1156
  931BOLB   PO222334  19.522  17.450  25.042  0.1044  0.0634 -0.0005
  931BOLB   GL322335  19.675  17.786  25.098  0.0146  0.3465  0.0756
  931BOLB   GL422336  19.425  18.026  24.980 -0.0640  0.0981  0.0622
  931BOLB   C1C22337  20.088  18.066  25.114 -0.2456 -0.1115 -0.4092
  931BOLB   C2C22338  20.398  17.925  24.886  0.0620 -0.1841 -0.3026
  931BOLB   C3C22339  20.597  17.664  24.640 -0.2324  0.0003 -0.2855
  931BOLB   C4C22340  20.719  17.577  24.203 -0.0304 -0.2315  0.0723
  931BOLB   C1D22341  19.651  18.361  25.111  0.2812 -0.1448  0.0922
  931BOLB   C2D22342  19.975  18.637  25.012  0.2331 -0.2903 -0.1556
  931BOLB   C3D22343  20.341  18.714  24.894 -0.0762 -0.0125 -0.2743
  931BOLB   C4D22344  20.607  19.115  24.815  0.2085  0.1290  0.1249
  932BOLB   NC122345  23.380  15.810  25.888 -0.0943  0.1190 -0.3131
  932BOLB   PO122346  23.703  15.741  26.140  0.1970  0.0269 -0.2172
  932BOLB   GL122347  23.940  16.149  25.949  0.0688 -0.4579  0.0388
  932BOLB   GL222348  23.961  15.935  25.739  0.2115  0.0429  0.1029
  932BOLB   C1A22349  24.131  16.500  25.893  0.0147  0.0261  0.0984
  932BOLB   C2A22350  24.525  16.863  25.728 -0.2342 -0.2791 -0.0932
  932BOLB   C3A22351  24.370  17.267  25.516 -0.0499  0.2084  0.4174
  932BOLB   C4A22352  23.840  17.351  25.508  0.1304 -0.1176  0.0864
  932BOLB   C1B22353  23.880  16.293  25.441 -0.0574 -0.2074  0.2857
  932BOLB   C2B22354  23.791  16.600  25.223 -0.0473  0.3117  0.1883
  932BOLB   C3B22355  23.618  16.936  25.257 -0.1789  0.1943  0.0444
  932BOLB   C4B22356  23.246  17.037  25.370  0.1906 -0.1054 -0.0581
  932BOLB   NC222357  21.793  16.640  26.080  0.1241  0.2765  0.1811
  932BOLB   PO222358  21.817  16.688  26.532  0.3601  0.0599 -0.4667
  932BOLB   GL322359  22.042  17.032  26.447  0.5530  0.2532 -0.0662
  932BOLB   GL422360  22.183  17.251  26.679 -0.1333 -0.0868 -0.4261
  932BOLB   C1C22361  22.306  17.135  26.141 -0.1207  0.0709 -0.0609
  932BOLB   C2C22362  22.776  17.166  26.024 -0.2076  0.3812  0.1880
  932BOLB   C3C22363  23.180  16.982  25.939 -0.1173 -0.0334  0.0478
  932BOLB   C4C22364  23.586  17.096  25.742  0.0495 -0.2429  0.4300
  932BOLB   C1D22365  22.405  17.438   0.091 -0.2835  0.2019 -0.2836
  932BOLB   C2D22366  22.496  17.901  26.861 -0.2488  0.2240  0.0915
  932BOLB   C3D22367  22.759  18.273   0.036  0.4058 -0.2646 -0.2250
  932BOLB   C4D22368  22.870  18.695   0.278 -0.3712  0.0120 -0.0170
  933BOLB   NC122369  22.921  27.317  15.463  0.1422  0.0987 -0.0294
  933BOLB   PO122370  23.218  27.158  15.124  0.1700  0.2161  0.0579
  933BOLB   GL122371  23.083  27.059  14.749  0.1705 -0.0574 -0.3133
  933BOLB   GL222372  23.379  26.930  14.490  0.1359 -0.0256 -0.0145
  933BOLB   C1A22373  22.807  26.966  14.451  0.1063  0.1142 -0.1080
  933BOLB   C2A22374  22.573  26.860  14.126 -0.0419 -0.2400  0.2437
  933BOLB   C3A22375  22.348  26.878  13.681 -0.3395 -0.0778 -0.2423
  933BOLB   C4A22376  21.983  26.986  13.272 -0.3147  0.0040  0.5480
  933BOLB   C1B22377  23.509  26.867  14.135 -0.0743  0.3445  0.1512
  933BOLB   C2B22378  23.509  26.517  13.974 -0.4198 -0.0965 -0.3658
  933BOLB   C3B22379  23.377  26.422  13.563  0.0381  0.0055  0.0168
  933BOLB   C4B22380  23.090  26.474  13.185  0.4630  0.0846  0.2199
  933BOLB   NC222381  19.720  26.751  12.203  0.1803 -0.1052  0.0005
  933BOLB   PO222382  19.748  26.918  12.576 -0.0118  0.0867 -0.0665
  933BOLB   GL322383  19.936  27.126  12.908  0.1854 -0.0133 -0.3640
  933BOLB   GL422384  19.864  27.323  12.934  0.0728 -0.1064 -0.0807
  933BOLB   C1C22385  20.201  27.124  13.276 -0.3486  0.2848  0.0295
  933BOLB   C2C22386  20.649  26.992  13.328  0.0320 -0.2677 -0.1320
  933BOLB   C3C22387  21.138  26.952  13.222  0.0777 -0.2854 -0.0406
  933BOLB   C4C22388  21.573  27.040  13.206  0.0689 -0.0845 -0.2949
  933BOLB   C1D22389  19.833  27.601  13.364  0.0641  0.1842  0.1835
  933BOLB   C2D22390  20.095  27.395  13.657  0.0411 -0.1527  0.1675
  933BOLB   C3D22391  20.502  27.214  13.792  0.1957 -0.1157  0.0015
  933BOLB   C4D22392  20.738  26.955  14.133  0.1166 -0.0160  0.2381
  934BOLB   NC122393  30.716  21.887  22.772 -0.1267 -0.1747  0.1265
  934BOLB   PO122394  30.930  21.820  23.120 -0.2036  0.0189  0.0613
  934BOLB   GL122395  31.072  21.479  23.331  0.0156 -0.1896 -0.1490
  934BOLB   GL222396  31.269  21.267  23.155 -0.0388 -0.4008  0.0432
  934BOLB   C1A22397  31.254  21.264  23.682  0.1192  0.1183  0.1628
  934BOLB   C2A22398  31.438  21.075  24.016  0.1713  0.1895  0.0192
  934BOLB   C3A22399  31.691  20.800  24.203 -0.0921 -0.3888 -0.0733
  934BOLB   C4A22400  31.951  20.608  24.480  0.1040 -0.2170  0.1004
  934BOLB   C1B22401  31.475  20.919  23.254 -0.0132 -0.1774  0.0116
  934BOLB   C2B22402  31.698  20.662  23.060 -0.0556  0.1838  0.0626
  934BOLB   C3B22403  31.793  20.442  22.648  0.3055  0.0523  0.0738
  934BOLB   C4B22404  31.721  20.256  22.256 -0.0304  0.1102 -0.0204
  934BOLB   NC222405  33.938  19.587  25.184 -0.0005  0.1397  0.1370
  934BOLB   PO222406  33.725  19.301  25.428  0.3314  0.0201 -0.0946
  934BOLB   GL322407  33.410  19.673  25.243  0.1551 -0.2427 -0.1567
  934BOLB   GL422408  33.436  19.642  24.932  0.0493 -0.4107  0.2403
  934BOLB   C1C22409  33.198  19.998  25.333  0.3546  0.0675 -0.1321
  934BOLB   C2C22410  32.806  20.309  25.241  0.1857 -0.0975 -0.4195
  934BOLB   C3C22411  32.528  20.631  25.121  0.2379 -0.3365 -0.0472
  934BOLB   C4C22412  32.327  20.669  24.661  0.1942  0.3050 -0.2157
  934BOLB   C1D22413  33.380  20.078  24.886  0.1367  0.1675  0.1548
  934BOLB   C2D22414  33.076  20.393  24.658  0.0789 -0.0845 -0.2703
  934BOLB   C3D22415  32.877  20.876  24.775 -0.0585  0.1287 -0.2894
  934BOLB   C4D22416  32.976  21.404  24.920 -0.0267  0.0309  0.1419
  935BOLB   NC122417  25.651  34.539   1.658 -0.1678 -0.2758  0.1674
  935BOLB   PO122418  25.367  34.213   1.816 -0.2708  0.0663 -0.0540
  935BOLB   GL122419  25.142  34.315   2.071 -0.2778 -0.2271 -0.0472
  935BOLB   GL222420  25.424  34.358   2.345 -0.2102  0.1676 -0.1683
  935BOLB   C1A22421  24.791  34.361   2.389  0.0828 -0.4143 -0.0194
  935BOLB   C2A22422  24.705  34.617   2.691 -0.0580 -0.2641 -0.0408
  935BOLB   C3A22423  24.899  35.069   2.829  0.1102  0.1442  0.1247
  935BOLB   C4A22424  24.701  35.492   2.850 -0.0676  0.0076  0.0082
  935BOLB   C1B22425  25.297  34.704   2.470 -0.1565 -0.2025 -0.0307
  935BOLB   C2B22426  25.045  35.039   2.355  0.4272  0.2852 -0.1252
  935BOLB   C3B22427  24.748  35.320   2.350  0.0687  0.2473  0.0027
  935BOLB   C4B22428  24.305  35.513   2.575 -0.2471 -0.3810  0.2541
  935BOLB   NC222429  24.050  37.176   4.276 -0.0101 -0.0939 -0.1305
  935BOLB   PO222430  24.412  37.250   4.047 -0.0877 -0.2038 -0.0968
  935BOLB   GL322431  24.552  37.081   3.703 -0.0987 -0.1279 -0.0898
  935BOLB   GL422432  24.406  37.435   3.501  0.0136  0.0532  0.0069
  935BOLB   C1C22433  24.941  36.923   3.530  0.0957  0.0859 -0.3634
  935BOLB   C2C22434  24.880  36.435   3.392 -0.3992  0.0591 -0.3486
  935BOLB   C3C22435  24.949  36.052   3.311  0.0026  0.0011 -0.1908
  935BOLB   C4C22436  24.675  35.846   3.110  0.1021  0.0070 -0.0710
  935BOLB   C1D22437  24.364  36.995   3.298 -0.0713 -0.1005 -0.0284
  935BOLB   C2D22438  24.687  36.791   3.123 -0.0011  0.2180 -0.3566
  935BOLB   C3D22439  24.838  36.475   2.829 -0.3261 -0.1316  0.1356
  935BOLB   C4D22440  25.095  36.468   2.504 -0.1469 -0.3523 -0.2881
  936BOLB   NC122441  27.187  19.772   6.374 -0.0103 -0.0489  0.1542
  936BOLB   PO122442  27.200  20.250   6.381  0.1401 -0.1771  0.1683
  936BOLB   GL122443  27.318  20.697   6.209 -0.1242  0.1515 -0.0762
  936BOLB   GL222444  27.132  20.561   5.969  0.2840  0.0282 -0.3250
  936BOLB   C1A22445  27.398  20.996   5.858 -0.2711 -0.2007 -0.1850
  936BOLB   C2A22446  27.545  21.222   5.369  0.0256  0.3816 -0.0241
  936BOLB   C3A22447  27.418  21.600   5.231  0.0694 -0.0762 -0.1823
  936BOLB   C4A22448  27.120  21.651   4.912  0.2170 -0.3181 -0.0804
  936BOLB   C1B22449  27.206  20.710   5.498 -0.1779  0.0822 -0.2795
  936BOLB   C2B22450  27.087  21.109   5.279 -0.1668  0.3375  0.0158
  936BOLB   C3B22451  26.853  21.482   5.393  0.0511  0.0718 -0.0241
  936BOLB   C4B22452  26.761  21.859   5.161  0.2361 -0.1453 -0.5002
  936BOLB   NC222453  26.232  19.969   6.281 -0.1848 -0.1238 -0.3056
  936BOLB   PO222454  26.746  19.918   6.189  0.1221  0.1294 -0.3261
  936BOLB   GL322455  26.494  20.251   5.835  0.0140  0.2366 -0.0882
  936BOLB   GL422456  26.136  20.381   5.881  0.0100  0.2742  0.1043
  936BOLB   C1C22457  26.532  20.547   5.569 -0.1642 -0.1365 -0.0160
  936BOLB   C2C22458  26.739  20.718   5.268  0.0036  0.1748  0.0246
  936BOLB   C3C22459  26.708  20.983   4.865  0.0149 -0.1206 -0.0756
  936BOLB   C4C22460  26.842  21.319   4.872 -0.0743  0.0890  0.2904
  936BOLB   C1D22461  26.077  20.709   5.503 -0.2177  0.2017 -0.2179
  936BOLB   C2D22462  25.876  20.996   5.210 -0.0308 -0.3126 -0.1257
  936BOLB   C3D22463  25.871  20.881   4.757 -0.2653 -0.3006 -0.0957
  936BOLB   C4D22464  26.010  21.073   4.422  0.0896  0.0064 -0.1000
  937BOLB   NC122465  27.515  31.694  13.428 -0.3050  0.0588 -0.0743
  937BOLB   PO122466  27.269  31.383  13.594  0.1897 -0.2036  0.0124
  937BOLB   GL122467  27.016  31.594  13.221  0.0742 -0.0544  0.1741
  937BOLB   GL222468  27.306  31.454  13.028 -0.0328 -0.0490  0.0989
  937BOLB   C1A22469  26.950  31.859  12.823 -0.0519  0.1339 -0.0172
  937BOLB   C2A22470  26.693  31.787  12.480  0.1763 -0.3431  0.0235
  937BOLB   C3A22471  26.544  31.695  12.118  0.0723  0.2108 -0.1113
  937BOLB   C4A22472  26.785  31.572  11.715 -0.1300  0.0787  0.0102
  937BOLB   C1B22473  27.125  31.482  12.538 -0.4797 -0.3879 -0.2280
  937BOLB   C2B22474  27.077  31.518  12.113 -0.0543  0.1330 -0.2121
  937BOLB   C3B22475  27.129  31.227  11.757 -0.0839  0.0259 -0.2289
  937BOLB   C4B22476  26.829  31.017  11.575  0.0736 -0.0015 -0.0434
  937BOLB   NC222477  25.327  30.871   9.423  0.0458 -0.1504  0.0590
  937BOLB   PO222478  25.504  31.165   9.698  0.0050 -0.1679  0.0894
  937BOLB   GL322479  25.793  31.201   9.984  0.3612 -0.3453  0.0463
  937BOLB   GL422480  25.612  31.471  10.104 -0.5261  0.0438 -0.0964
  937BOLB   C1C22481  26.201  31.057  10.129  0.0923  0.5475  0.1327
  937BOLB   C2C22482  26.378  31.147  10.557 -0.1683 -0.1375  0.1053
  937BOLB   C3C22483  26.577  31.307  10.870 -0.1283 -0.0509  0.0810
  937BOLB   C4C22484  26.718  31.364  11.267 -0.1118 -0.4117  0.0277
  937BOLB   C1D22485  26.022  31.418  10.385  0.2006 -0.0712  0.3082
  937BOLB   C2D22486  26.153  31.501  10.796  0.1920  0.2607 -0.2898
  937BOLB   C3D22487  26.419  31.770  10.985 -0.1443  0.0494  0.2254
  937BOLB   C4D22488  26.741  31.896  11.351 -0.0632  0.2146 -0.2544
  938BOLB   NC122489  22.314  15.582  22.063  0.0427 -0.3693  0.0603
  938BOLB   PO122490  22.405  15.669  22.527  0.2039  0.0207  0.0686
  938BOLB   GL122491  22.219  16.076  22.285  0.3325  0.0687  0.0665
  938BOLB   GL222492  22.064  16.366  22.457 -0.1847  0.1044 -0.1659
  938BOLB   C1A22493  22.326  16.379  21.999 -0.1334 -0.0318  0.1616
  938BOLB   C2A22494  22.301  16.852  21.668  0.0846 -0.1394 -0.0066
  938BOLB   C3A22495  22.383  17.179  21.507  0.3287 -0.1315  0.0922
  938BOLB   C4A22496  22.334  17.323  21.053 -0.2000 -0.1824  0.1428
  938BOLB   C1B22497  21.728  16.611  22.632  0.2087  0.0737 -0.0454
  938BOLB   C2B22498  21.843  16.973  22.798  0.0285  0.1323  0.2132
  938BOLB   C3B22499  21.855  17.140  23.212  0.1296 -0.0230 -0.1331
  938BOLB   C4B22500  21.540  17.308  23.469  0.0340 -0.0593 -0.0625
  938BOLB   NC222501  23.789  16.164  19.854  0.0368  0.2988  0.2107
  938BOLB   PO222502  23.289  16.255  19.650 -0.3961  0.3470 -0.2257
  938BOLB   GL322503  23.171  16.699  19.669 -0.0022  0.2633 -0.1277
  938BOLB   GL422504  22.964  16.822  19.460  0.0348 -0.0311  0.1594
  938BOLB   C1C22505  23.092  17.138  19.865 -0.0086  0.2872 -0.1401
  938BOLB   C2C22506  22.971  17.361  20.207 -0.1224 -0.0093 -0.2829
  938BOLB   C3C22507  22.740  17.571  20.397  0.1267 -0.0302 -0.0547
  938BOLB   C4C22508  22.515  17.577  20.778  0.2258 -0.1998  0.3675
  938BOLB   C1D22509  22.582  17.093  19.297 -0.0917  0.2346 -0.3049
  938BOLB   C2D22510  22.319  17.295  19.033  0.0570  0.0396 -0.2718
  938BOLB   C3D22511  22.016  17.709  19.012  0.4727 -0.5013  0.0247
  938BOLB   C4D22512  21.490  17.705  19.010 -0.2760  0.0166  0.3111
  939BOLB   NC122513  19.415  38.122  18.825 -0.0572  0.1461  0.0428
  939BOLB   PO122514  19.313  38.334  18.375 -0.1389  0.1239  0.2958
  939BOLB   GL122515  19.667  37.959  18.436  0.1569  0.3180 -0.3467
  939BOLB   GL222516  19.626  37.636  18.551  0.0420 -0.0533 -0.0354
  939BOLB   C1A22517  20.024  37.755  18.330 -0.3243 -0.1429  0.0243
  939BOLB   C2A22518  20.127  37.255  18.439  0.0595 -0.0779 -0.1065
  939BOLB   C3A22519  20.411  37.115  18.313  0.2368  0.1538 -0.2425
  939BOLB   C4A22520  20.823  37.239  18.074  0.1844 -0.6093 -0.0997
  939BOLB   C1B22521  19.947  37.647  18.782 -0.2375  0.1010 -0.0714
  939BOLB   C2B22522  20.398  37.598  18.602 -0.1933  0.4320 -0.1955
  939BOLB   C3B22523  20.789  37.377  18.587 -0.1515 -0.0329 -0.4588
  939BOLB   C4B22524  21.161  37.290  18.626  0.0417  0.2661  0.4132
  939BOLB   NC222525  21.209  38.183  16.422 -0.1396  0.3293  0.0367
  939BOLB   PO222526  21.390  38.563  16.543  0.1715  0.0582 -0.2636
  939BOLB   GL322527  21.408  38.215  16.882  0.3648  0.0062 -0.3027
  939BOLB   GL422528  21.590  38.076  16.708  0.0314  0.0421 -0.4204
  939BOLB   C1C22529  21.393  38.067  17.240  0.0248  0.1457 -0.0416
  939BOLB   C2C22530  21.462  37.835  17.583 -0.2555  0.0941 -0.2395
  939BOLB   C3C22531  21.458  37.462  17.737 -0.1675  0.3054 -0.0688
  939BOLB   C4C22532  21.253  37.191  17.900  0.1423 -0.0673  0.2139
  939BOLB   C1D22533  21.533  37.699  16.762  0.0882  0.0108 -0.0928
  939BOLB   C2D22534  21.580  37.326  16.839 -0.1961 -0.0996 -0.2009
  939BOLB   C3D22535  21.491  36.940  16.711 -0.5503  0.1066  0.3274
  939BOLB   C4D22536  21.486  36.798  16.250  0.2819 -0.1643  0.2421
  940BOLB   NC122537  34.200  34.620  18.620 -0.0897  0.1396 -0.2045
  940BOLB   PO122538  33.690  34.735  18.364  0.2274  0.1168 -0.1471
  940BOLB   GL122539  33.876  34.786  17.958 -0.0800 -0.2078  0.1588
  940BOLB   GL222540  34.024  34.551  17.852  0.0134  0.3757 -0.2565
  940BOLB   C1A22541  34.254  35.097  17.710  0.1559  0.2906  0.2457
  940BOLB   C2A22542  34.501  35.422  17.830 -0.1383  0.1509  0.3534
  940BOLB   C3A22543  34.686  35.845  17.762  0.1963  0.0063 -0.0810
  940BOLB   C4A22544  34.934  36.192  17.785  0.3878 -0.1233  0.0925
  940BOLB   C1B22545  34.446  34.628  17.658  0.3141  0.0213 -0.2657
  940BOLB   C2B22546  34.876  34.748  17.609 -0.0568 -0.3287 -0.2168
  940BOLB   C3B22547  35.148  34.990  17.337  0.2012  0.2741  0.1879
  940BOLB   C4B22548  34.892  35.005  16.905 -0.0634  0.1289 -0.3197
  940BOLB   NC222549  34.901  38.568  16.233 -0.0468 -0.1994 -0.1577
  940BOLB   PO222550  35.251  38.326  16.482  0.1033 -0.1590 -0.0224
  940BOLB   GL322551  35.437  37.994  16.752 -0.1661  0.2459 -0.1083
  940BOLB   GL422552  35.461  37.739  16.536  0.0554 -0.2020 -0.1200
  940BOLB   C1C22553  35.317  37.557  17.029  0.0681 -0.0479 -0.1228
  940BOLB   C2C22554  35.429  37.161  17.179  0.0745 -0.0910 -0.1803
  940BOLB   C3C22555  35.354  36.856  17.488  0.0989  0.0447  0.2536
  940BOLB   C4C22556  34.976  36.598  17.574 -0.3475  0.0248  0.1052
  940BOLB   C1D22557  35.250  37.475  16.525  0.1589 -0.1196 -0.1065
  940BOLB   C2D22558  35.079  37.111  16.570  0.3866 -0.3250  0.1618
  940BOLB   C3D22559  34.656  36.980  16.727  0.0084  0.1607 -0.0337
  940BOLB   C4D22560  34.453  36.574  16.718 -0.1741  0.2011 -0.3693
  941BOLB   NC122561  29.082  35.566  16.006 -0.0047  0.2471  0.0635
  941BOLB   PO122562  29.486  35.551  16.324 -0.2214 -0.1214  0.1057
  941BOLB   GL122563  29.775  35.834  16.081 -0.0505  0.0497 -0.1502
  941BOLB   GL222564  29.934  36.129  16.354 -0.1191  0.0775  0.0247
  941BOLB   C1A22565  30.143  35.849  15.743 -0.1634 -0.0667 -0.0332
  941BOLB   C2A22566  30.389  36.288  15.627 -0.1360 -0.3301 -0.3788
  941BOLB   C3A22567  30.721  36.503  15.358  0.3425 -0.1307 -0.1635
  941BOLB   C4A22568  30.937  36.914  15.313 -0.0101 -0.2337  0.2302
  941BOLB   C1B22569  29.989  36.410  15.957  0.1528 -0.3437 -0.2746
  941BOLB   C2B22570  29.881  36.762  15.710 -0.3117  0.1403 -0.0687
  941BOLB   C3B22571  30.170  37.216  15.560  0.0074  0.2388 -0.1494
  941BOLB   C4B22572  30.622  37.307  15.389 -0.1355  0.0634  0.2226
  941BOLB   NC222573  31.107  38.951  14.081  0.1975  0.0581  0.0228
  941BOLB   PO222574  31.086  38.658  13.711  0.1237 -0.0407 -0.1375
  941BOLB   GL322575  30.941  38.271  13.832  0.0688  0.1327 -0.1521
  941BOLB   GL422576  30.853  38.550  14.148  0.1394  0.3077 -0.1725
  941BOLB   C1C22577  31.061  37.995  14.100 -0.2036  0.1153  0.1806
  941BOLB   C2C22578  31.174  37.860  14.619 -0.2712  0.0721  0.2540
  941BOLB   C3C22579  31.076  37.541  14.796 -0.1022  0.2036 -0.2486
  941BOLB   C4C22580  31.061  37.362  15.215 -0.0622 -0.1464  0.0437
  941BOLB   C1D22581  30.510  38.268  14.215  0.3435 -0.1182  0.0076
  941BOLB   C2D22582  30.379  38.136  14.620  0.3163 -0.1954 -0.1068
  941BOLB   C3D22583  30.242  37.839  14.782 -0.3110 -0.3437  0.0216
  941BOLB   C4D22584  30.219  37.451  15.043 -0.0162 -0.0367  0.0862
  942BOLB   NC122585  31.197  36.212  18.362 -0.0507 -0.2155 -0.0550
  942BOLB   PO122586  31.486  36.602  18.376  0.3015 -0.1251 -0.3487
  942BOLB   GL122587  31.763  36.829  18.076 -0.0542 -0.3360 -0.2155
  942BOLB   GL222588  31.857  36.647  17.772  0.2565  0.1127 -0.0041
  942BOLB   C1A22589  31.854  37.204  17.764 -0.1756  0.1377 -0.1708
  942BOLB   C2A22590  32.176  37.730  17.707  0.0530 -0.0044  0.1719
  942BOLB   C3A22591  32.554  37.870  17.381  0.2034  0.2354  0.0352
  942BOLB   C4A22592  32.406  38.208  17.074 -0.1293  0.0388 -0.1277
  942BOLB   C1B22593  32.220  36.804  17.779 -0.1001  0.0382  0.2097
  942BOLB   C2B22594  32.376  37.255  17.840 -0.3288  0.0838  0.3937
  942BOLB   C3B22595  32.674  37.453  17.567 -0.0869  0.0902 -0.0640
  942BOLB   C4B22596  33.042  37.594  17.306 -0.0533  0.0525  0.0067
  942BOLB   NC222597  32.460  39.517  15.654  0.3492 -0.1957 -0.1089
  942BOLB   PO222598  32.106  39.633  15.435  0.2139  0.6127  0.1827
  942BOLB   GL322599  32.049  39.302  15.560 -0.3201  0.1790 -0.1544
  942BOLB   GL422600  32.144  39.070  15.222 -0.1884 -0.1692 -0.6920
  942BOLB   C1C22601  32.039  39.149  15.992  0.3721 -0.0693  0.1163
  942BOLB   C2C22602  31.928  39.031  16.331 -0.2043  0.1541 -0.2706
  942BOLB   C3C22603  31.963  38.919  16.723 -0.0197 -0.0765 -0.1653
  942BOLB   C4C22604  32.154  38.539  16.933  0.2970  0.0215 -0.1163
  942BOLB   C1D22605  31.986  38.659  15.525 -0.1729  0.1479 -0.0249
  942BOLB   C2D22606  31.793  38.227  15.705  0.1815 -0.1452 -0.3349
  942BOLB   C3D22607  31.545  37.939  15.418  0.0878 -0.2522 -0.1246
  942BOLB   C4D22608  31.299  37.806  15.147 -0.2731 -0.0645 -0.0374
  943BOLB   NC122609  31.273  33.680  15.183 -0.1247  0.3952 -0.2676
  943BOLB   PO122610  31.338  34.132  15.297  0.1269  0.1953 -0.2315
  943BOLB   GL122611  31.372  34.429  14.972  0.0441 -0.0307 -0.0201
  943BOLB   GL222612  31.332  34.443  14.667 -0.1826 -0.0547  0.0116
  943BOLB   C1A22613  31.203  34.842  14.991 -0.1349 -0.1148 -0.2268
  943BOLB   C2A22614  31.350  35.140  14.887  0.3003  0.2000  0.0997
  943BOLB   C3A22615  31.718  35.242  14.650 -0.0182  0.2256  0.1849
  943BOLB   C4A22616  31.890  35.415  14.368 -0.2769 -0.0436  0.1882
  943BOLB   C1B22617  31.654  34.330  14.277 -0.2215 -0.1445 -0.1185
  943BOLB   C2B22618  31.702  34.256  13.799  0.1122  0.1613  0.1664
  943BOLB   C3B22619  31.788  34.315  13.305 -0.1616 -0.2819 -0.0465
  943BOLB   C4B22620  31.874  34.163  12.847  0.3213  0.1975  0.2892
  943BOLB   NC222621  33.134  36.198  12.400 -0.4397 -0.4409  0.0072
  943BOLB   PO222622  33.084  36.491  12.730  0.0926 -0.1073  0.0486
  943BOLB   GL322623  32.949  36.314  13.042  0.0074 -0.0533  0.2961
  943BOLB   GL422624  33.149  36.218  13.242 -0.1728 -0.0258  0.1624
  943BOLB   C1C22625  32.595  36.146  13.339  0.0087 -0.2161 -0.0747
  943BOLB   C2C22626  32.490  35.991  13.611  0.0018 -0.1989 -0.0322
  943BOLB   C3C22627  32.522  35.690  13.900 -0.0382  0.0809  0.1566
  943BOLB   C4C22628  32.267  35.622  14.287 -0.0001  0.2678 -0.0135
  943BOLB   C1D22629  33.272  35.847  13.283  0.2821  0.0874 -0.1170
  943BOLB   C2D22630  33.192  35.470  13.463  0.2019 -0.1828  0.2066
  943BOLB   C3D22631  32.954  35.429  13.877 -0.0336 -0.1289 -0.4406
  943BOLB   C4D22632  32.821  35.334  14.314  0.0872  0.0313  0.2836
  944BOLB   NC122633  28.841  31.178  13.633 -0.0603 -0.1714 -0.0356
  944BOLB   PO122634  28.803  30.822  13.732  0.0350 -0.1978 -0.0515
  944BOLB   GL122635  28.592  30.813  13.345 -0.1166  0.0512  0.1269
  944BOLB   GL222636  28.422  30.571  13.379 -0.3088 -0.0280 -0.0254
  944BOLB   C1A22637  28.719  30.824  12.955  0.4437 -0.1248 -0.1972
  944BOLB   C2A22638  28.949  30.779  12.489  0.3163 -0.3127 -0.1094
  944BOLB   C3A22639  28.855  30.620  12.029 -0.0971  0.0691 -0.0633
  944BOLB   C4A22640  29.183  30.405  11.811  0.0492 -0.0368  0.0557
  944BOLB   C1B22641  28.398  30.453  13.027 -0.1476 -0.1041 -0.2321
  944BOLB   C2B22642  28.497  30.482  12.582  0.0117  0.0913  0.3593
  944BOLB   C3B22643  28.258  30.619  12.155  0.3012 -0.1102 -0.1161
  944BOLB   C4B22644  28.181  30.628  11.765 -0.2098  0.0213 -0.3365
  944BOLB   NC222645  30.223  30.077   9.985 -0.1130  0.1702  0.1612
  944BOLB   PO222646  30.142  30.450   9.734 -0.1015 -0.0721  0.1013
  944BOLB   GL322647  30.067  30.535  10.179 -0.1087  0.0827 -0.0642
  944BOLB   GL422648  29.739  30.406  10.352  0.1071  0.5778  0.0515
  944BOLB   C1C22649  30.265  30.481  10.651  0.0601 -0.0586  0.1179
  944BOLB   C2C22650  30.039  30.377  10.921  0.0109  0.3361 -0.1292
  944BOLB   C3C22651  29.758  30.356  11.197 -0.1077 -0.0202  0.1206
  944BOLB   C4C22652  29.580  30.408  11.609  0.2928 -0.0325 -0.1872
  944BOLB   C1D22653  29.480  30.366  10.641  0.1996 -0.0659 -0.1390
  944BOLB   C2D22654  29.326  30.198  10.962  0.0233  0.2113 -0.3890
  944BOLB   C3D22655  29.009  30.038  11.318 -0.0837  0.4416  0.0085
  944BOLB   C4D22656  28.563  29.848  11.427  0.0820  0.0488 -0.1373
  945BOLB   NC122657  26.420  26.809  14.462 -0.2460  0.2485  0.0268
  945BOLB   PO122658  26.315  26.824  14.076  0.1239 -0.2168  0.2409
  945BOLB   GL122659  26.385  26.704  13.696 -0.0303 -0.1384  0.0308
  945BOLB   GL222660  26.675  26.767  13.573 -0.1703  0.0644  0.0811
  945BOLB   C1A22661  26.422  26.324  13.485 -0.2978  0.0913 -0.0296
  945BOLB   C2A22662  26.379  25.886  13.277  0.2805 -0.4597 -0.0638
  945BOLB   C3A22663  26.576  25.545  13.243  0.3047 -0.0659 -0.1792
  945BOLB   C4A22664  26.785  25.330  12.940  0.2173  0.1434 -0.1695
  945BOLB   C1B22665  26.663  26.666  13.234 -0.0282  0.0047 -0.0056
  945BOLB   C2B22666  26.511  26.395  12.958 -0.1360  0.1013 -0.1926
  945BOLB   C3B22667  26.290  26.066  12.830  0.0191  0.0616  0.1084
  945BOLB   C4B22668  26.368  25.676  12.799 -0.0155  0.0982 -0.1143
  945BOLB   NC222669  26.415  23.974  11.244 -0.0341  0.3434 -0.0365
  945BOLB   PO222670  26.640  23.467  11.295 -0.0158 -0.1151 -0.1099
  945BOLB   GL322671  26.670  23.691  11.602  0.1527  0.0586  0.3553
  945BOLB   GL422672  26.958  23.545  11.868 -0.0234  0.0682 -0.0885
  945BOLB   C1C22673  26.529  23.868  12.078  0.0971 -0.2202 -0.0511
  945BOLB   C2C22674  26.576  24.225  12.280  0.0024  0.2106 -0.0258
  945BOLB   C3C22675  26.688  24.673  12.282  0.1945  0.0605  0.0460
  945BOLB   C4C22676  26.780  25.023  12.578  0.0552 -0.1894  0.2589
  945BOLB   C1D22677  27.047  23.628  12.201  0.1766  0.0107  0.0862
  945BOLB   C2D22678  26.904  23.894  12.554  0.2585  0.0969 -0.0872
  945BOLB   C3D22679  27.012  24.341  12.813  0.2460  0.0428  0.3161
  945BOLB   C4D22680  27.425  24.476  12.879 -0.4878 -0.1380  0.4097
  946BOLB   NC122681  22.189  35.440  20.958 -0.1318 -0.0451  0.2856
  946BOLB   PO122682  21.867  35.788  20.837  0.0847  0.0213 -0.1644
  946BOLB   GL122683  21.599  36.210  20.733  0.1967 -0.2332 -0.2959
  946BOLB   GL222684  21.380  36.143  20.461  0.2342 -0.1813  0.0766
  946BOLB   C1A22685  21.567  36.577  20.928  0.2534  0.1434 -0.1798
  946BOLB   C2A22686  21.609  37.085  20.911 -0.0467  0.2907  0.0339
  946BOLB   C3A22687  21.529  37.473  20.790  0.1992 -0.0259  0.0802
  946BOLB   C4A22688  21.646  37.899  20.579 -0.1083  0.1538 -0.0929
  946BOLB   C1B22689  21.137  36.454  20.652 -0.3670 -0.0572 -0.1597
  946BOLB   C2B22690  21.190  36.867  20.696  0.0097 -0.0654  0.0496
  946BOLB   C3B22691  21.118  37.222  20.936  0.1623  0.2191 -0.0099
  946BOLB   C4B22692  21.041  37.390  21.393  0.1371  0.1640 -0.0374
  946BOLB   NC222693  21.706  40.146  19.637 -0.0328  0.0420 -0.0292
  946BOLB   PO222694  21.377  40.111  19.846 -0.2410  0.0954  0.1336
  946BOLB   GL322695  21.367  39.683  19.833 -0.0840  0.1397  0.1598
  946BOLB   GL422696  21.725  39.765  19.949  0.0790  0.1318  0.0285
  946BOLB   C1C22697  21.472  39.169  19.911 -0.0395 -0.0103 -0.0639
  946BOLB   C2C22698  21.534  38.749  19.744  0.1544  0.0053 -0.0734
  946BOLB   C3C22699  21.653  38.421  20.052 -0.2283 -0.0954  0.0284
  946BOLB   C4C22700  21.708  38.066  20.165  0.1308 -0.2193 -0.1839
  946BOLB   C1D22701  22.127  39.867  20.230  0.2071  0.4362  0.1010
  946BOLB   C2D22702  22.607  39.962  20.140 -0.3467 -0.0697  0.3096
  946BOLB   C3D22703  22.926  39.810  19.875 -0.3292  0.1485 -0.1837
  946BOLB   C4D22704  23.403  39.662  19.694  0.0144  0.2939  0.1016
  947BOLB   NC122705  26.013  36.212  26.390 -0.0242 -0.0422  0.1780
  947BOLB   PO122706  25.680  36.375  26.618 -0.2653  0.0981  0.3619
  947BOLB   GL122707  25.780  36.784  26.794 -0.2758 -0.0311 -0.2376
  947BOLB   GL222708  25.487  36.864  26.634 -0.6755 -0.3090 -0.0071
  947BOLB   C1A22709  25.689  37.007   0.302 -0.1728 -0.0551  0.0673
  947BOLB   C2A22710  25.918  37.348   0.549  0.2719 -0.1653  0.1888
  947BOLB   C3A22711  25.810  37.688   0.744 -0.2757  0.1483  0.3174
  947BOLB   C4A22712  25.740  37.899   1.073  0.0156 -0.0392 -0.1777
  947BOLB   C1B22713  25.423  37.270  26.898 -0.1565 -0.2439 -0.0446
  947BOLB   C2B22714  25.559  37.550   0.186  0.1049  0.0993 -0.0048
  947BOLB   C3B22715  25.615  37.893   0.293 -0.0046 -0.0143 -0.3238
  947BOLB   C4B22716  25.750  38.337   0.276 -0.2284 -0.0872  0.1439
  947BOLB   NC222717  25.919  40.073   1.323  0.1147  0.0385  0.1147
  947BOLB   PO222718  25.965  39.989   1.662 -0.0935  0.2651 -0.2111
  947BOLB   GL322719  26.248  39.662   1.539  0.2123 -0.1481  0.1684
  947BOLB   GL422720  26.388  39.644   1.243 -0.2316  0.4905 -0.3460
  947BOLB   C1C22721  26.163  39.198   1.638 -0.0302 -0.3677 -0.2685
  947BOLB   C2C22722  25.783  38.926   1.595 -0.0471  0.0003  0.2219
  947BOLB   C3C22723  25.815  38.446   1.480 -0.2038 -0.0783 -0.1221
  947BOLB   C4C22724  25.919  38.233   1.221  0.1656  0.0344  0.0072
  947BOLB   C1D22725  26.709  39.568   0.999  0.1238 -0.0989 -0.0411
  947BOLB   C2D22726  27.086  39.227   0.889  0.0389 -0.4089 -0.1682
  947BOLB   C3D22727  27.416  38.855   0.728  0.2168  0.1163 -0.2866
  947BOLB   C4D22728  27.776  38.782   0.324  0.2307  0.1447  0.1545
  948BOLB   NC122729  34.915  30.948  17.313  0.1565  0.3256  0.0312
  948BOLB   PO122730  34.522  30.887  17.134  0.1485 -0.2204 -0.1489
  948BOLB   GL122731  34.711  30.803  16.820 -0.1157 -0.0713 -0.3921
  948BOLB   GL222732  35.088  30.625  16.981 -0.0239 -0.4462 -0.0542
  948BOLB   C1A22733  34.983  30.585  16.454  0.2334  0.0102 -0.2664
  948BOLB   C2A22734  35.253  30.429  16.149 -0.1406 -0.0130 -0.0410
  948BOLB   C3A22735  35.708  30.268  15.950 -0.0352  0.1827 -0.3320
  948BOLB   C4A22736  36.090  30.144  15.846  0.0589  0.3857 -0.2708
  948BOLB   C1B22737  35.463  30.804  16.952 -0.1674 -0.4009  0.1328
  948BOLB   C2B22738  35.704  31.007  16.707  0.0506 -0.0822 -0.0968
  948BOLB   C3B22739  36.179  31.211  16.701 -0.0663 -0.0295 -0.2179
  948BOLB   C4B22740  36.519  31.453  16.584 -0.1567 -0.1061 -0.0321
  948BOLB   NC222741  37.985  28.742  14.356 -0.3526  0.3132  0.2102
  948BOLB   PO222742  37.618  28.893  14.264  0.0423 -0.0852  0.0355
  948BOLB   GL322743  37.273  29.152  14.460  0.1997  0.1003  0.1357
  948BOLB   GL422744  37.229  28.965  14.764  0.1103  0.5029  0.1741
  948BOLB   C1C22745  37.256  29.484  14.809 -0.0110  0.1053 -0.0898
  948BOLB   C2C22746  36.826  29.597  14.942  0.3773 -0.1725  0.4974
  948BOLB   C3C22747  36.523  29.714  15.286 -0.0695 -0.3015  0.1603
  948BOLB   C4C22748  36.322  29.930  15.561  0.1232  0.2025 -0.0772
  948BOLB   C1D22749  36.870  29.084  14.917  0.0573  0.0435  0.0666
  948BOLB   C2D22750  36.503  29.189  15.073 -0.3429  0.0262  0.3289
  948BOLB   C3D22751  36.189  29.144  14.817 -0.1891  0.1271  0.4212
  948BOLB   C4D22752  35.956  28.990  14.493  0.2908 -0.4284 -0.0300
  949BOLB   NC122753  18.795  18.467  26.042  0.2141  0.1108  0.3349
  949BOLB   PO122754  18.750  18.908  26.040 -0.3118 -0.4038 -0.2253
  949BOLB   GL122755  19.085  19.304  26.068 -0.1655 -0.1243  0.0499
  949BOLB   GL222756  19.002  19.549  26.119  0.0898 -0.0553 -0.0058
  949BOLB   C1A22757  19.568  19.441  26.122 -0.2139  0.3277  0.1652
  949BOLB   C2A22758  19.814  19.780  25.965  0.0216  0.1173 -0.1284
  949BOLB   C3A22759  19.696  19.853  25.528 -0.0475 -0.2341  0.2215
  949BOLB   C4A22760  19.301  20.018  25.301  0.0364 -0.1437  0.1730
  949BOLB   C1B22761  18.791  19.954  26.215  0.4179 -0.3161 -0.2337
  949BOLB   C2B22762  18.628  20.399  26.263 -0.1402  0.1719  0.2902
  949BOLB   C3B22763  18.795  20.817  26.160 -0.0557 -0.0649 -0.2129
  949BOLB   C4B22764  18.821  21.259  26.058  0.0555 -0.0479  0.0765
  949BOLB   NC222765  17.185  19.315  25.078 -0.0956  0.1081  0.1276
  949BOLB   PO222766  17.089  19.167  24.669 -0.1105 -0.1188 -0.0673
  949BOLB   GL322767  17.293  19.655  24.572  0.1568 -0.1112  0.0419
  949BOLB   GL422768  17.423  19.788  24.280 -0.0198  0.0026  0.1722
  949BOLB   C1C22769  17.658  19.909  24.728  0.2921  0.3069 -0.0859
  949BOLB   C2C22770  18.115  19.853  24.846 -0.2064 -0.2566 -0.2041
  949BOLB   C3C22771  18.539  19.804  24.873  0.1468  0.1792 -0.1666
  949BOLB   C4C22772  18.898  19.782  25.121  0.2957 -0.0187  0.1453
  949BOLB   C1D22773  17.753  19.739  23.981  0.0800  0.1332 -0.1086
  949BOLB   C2D22774  18.117  19.871  23.967 -0.1038 -0.1034 -0.1583
  949BOLB   C3D22775  18.472  20.109  23.713 -0.2534 -0.0990  0.0709
  949BOLB   C4D22776  18.556  20.614  23.525  0.1332 -0.2183  0.0505
  950BOLB   NC122777  35.365  31.991  23.926 -0.2487  0.0696 -0.1360
  950BOLB   PO122778  35.304  31.968  24.347  0.1050 -0.1249 -0.0076
  950BOLB   GL122779  35.775  31.966  24.353 -0.3038  0.1577 -0.1470
  950BOLB   GL222780  35.870  32.073  24.007 -0.0843 -0.3306  0.2894
  950BOLB   C1A22781  36.026  31.875  24.660 -0.0257  0.0945  0.1063
  950BOLB   C2A22782  36.486  31.936  24.646 -0.1883  0.0261 -0.1124
  950BOLB   C3A22783  36.744  32.056  24.875  0.2968 -0.0850  0.2481
  950BOLB   C4A22784  37.166  31.819  24.834  0.4338 -0.0443 -0.2355
  950BOLB   C1B22785  36.199  31.972  24.126 -0.2684  0.2998  0.3579
  950BOLB   C2B22786  36.611  31.851  24.130  0.0009 -0.1564  0.1741
  950BOLB   C3B22787  36.951  31.642  24.033 -0.2178 -0.3860  0.2878
  950BOLB   C4B22788  37.386  31.689  24.177 -0.1568  0.5947  0.3540
  950BOLB   NC222789  39.920  31.312  25.354  0.1177  0.3491 -0.2366
  950BOLB   PO222790  39.626  31.646  25.439  0.1007  0.2578 -0.2124
  950BOLB   GL322791  39.186  31.809  25.473 -0.1256 -0.0336 -0.1676
  950BOLB   GL422792  39.127  31.512  25.245  0.1635  0.0847 -0.1182
  950BOLB   C1C22793  38.807  31.755  25.589 -0.0377  0.2756  0.2138
  950BOLB   C2C22794  38.262  31.826  25.502 -0.1963 -0.1523  0.0337
  950BOLB   C3C22795  37.804  31.818  25.373 -0.0047 -0.2810 -0.0226
  950BOLB   C4C22796  37.515  31.785  25.035  0.1778  0.3490  0.2867
  950BOLB   C1D22797  38.739  31.320  25.358 -0.1999 -0.1569  0.2756
  950BOLB   C2D22798  38.365  31.207  25.544 -0.0718 -0.0705 -0.2984
  950BOLB   C3D22799  37.967  31.230  25.381  0.1397  0.1034  0.0895
  950BOLB   C4D22800  37.541  31.321  25.140  0.1509 -0.0223 -0.1049
  951BOLB   NC122801  21.627  31.620  26.503  0.0120  0.0252  0.0364
  951BOLB   PO122802  21.266  31.437  26.411 -0.0782 -0.2283 -0.0229
  951BOLB   GL122803  20.809  31.435  26.506 -0.0539  0.2507 -0.2560
  951BOLB   GL222804  20.914  31.263  26.841  0.1803 -0.0370  0.0966
  951BOLB   C1A22805  20.339  31.292  26.547 -0.3670 -0.2562  0.2863
  951BOLB   C2A22806  19.996  31.436  26.800  0.1271  0.0974  0.1797
  951BOLB   C3A22807  19.726  31.733  26.855  0.1851 -0.2434 -0.0736
  951BOLB   C4A22808  19.256  31.732  26.860 -0.4759  0.0943 -0.1620
  951BOLB   C1B22809  20.571  31.208   0.046  0.0803 -0.0293  0.2282
  951BOLB   C2B22810  20.313  31.084   0.134 -0.0433  0.1653 -0.2984
  951BOLB   C3B22811  20.320  30.839   0.466 -0.2435 -0.2015 -0.0230
  951BOLB   C4B22812  20.012  30.724   0.798 -0.1137  0.0495 -0.0491
  951BOLB   NC222813  17.198  32.695   1.266 -0.0397  0.1790  0.2499
  951BOLB   PO222814  17.045  32.555   0.844 -0.0318 -0.0974  0.1504
  951BOLB   GL322815  17.292  32.383   0.503 -0.1225 -0.0880 -0.2675
  951BOLB   GL422816  17.268  32.038   0.658 -0.0820 -0.2448 -0.1187
  951BOLB   C1C22817  17.803  32.308   0.365 -0.0913 -0.0006 -0.3225
  951BOLB   C2C22818  18.126  32.129   0.166 -0.2996  0.0822 -0.1031
  951BOLB   C3C22819  18.493  31.920   0.087 -0.1447 -0.1033  0.2368
  951BOLB   C4C22820  18.795  31.702  26.900 -0.2781  0.2419 -0.0582
  951BOLB   C1D22821  17.414  31.554   0.584 -0.1802 -0.1185 -0.1414
  951BOLB   C2D22822  17.720  31.289   0.504  0.0686  0.0204 -0.1252
  951BOLB   C3D22823  17.917  30.971   0.654 -0.1147  0.1802  0.2469
  951BOLB   C4D22824  17.933  30.469   0.603  0.1213  0.0868 -0.2412
  952BOLB   NC122825  29.401  37.476   4.379  0.0188 -0.0794 -0.0803
  952BOLB   PO122826  29.288  37.911   4.244 -0.3796 -0.1526  0.0117
  952BOLB   GL122827  29.515  37.705   3.868  0.2965  0.1635 -0.0391
  952BOLB   GL222828  29.685  37.868   3.637  0.0719  0.0199 -0.1181
  952BOLB   C1A22829  29.294  37.549   3.394 -0.4927  0.2189 -0.0335
  952BOLB   C2A22830  29.452  37.474   3.000 -0.0593 -0.2666 -0.0508
  952BOLB   C3A22831  29.753  37.236   2.896 -0.1653 -0.0364  0.0011
  952BOLB   C4A22832  29.995  36.925   2.873  0.2424 -0.3384  0.0758
  952BOLB   C1B22833  29.774  37.507   3.432 -0.0141 -0.1722  0.4132
  952BOLB   C2B22834  30.105  37.385   3.165 -0.2365  0.0211 -0.0102
  952BOLB   C3B22835  30.162  37.390   2.658 -0.0585  0.2787  0.4763
  952BOLB   C4B22836  30.154  37.236   2.190 -0.0696 -0.2251  0.2652
  952BOLB   NC222837  30.424  37.384   4.205  0.1261  0.0196  0.2398
  952BOLB   PO222838  30.235  37.072   4.318  0.2123 -0.0238  0.0722
  952BOLB   GL322839  30.347  36.766   3.949  0.3093  0.1197  0.2789
  952BOLB   GL422840  30.040  36.659   4.008 -0.1801  0.2532 -0.0891
  952BOLB   C1C22841  30.324  36.375   3.721 -0.2055 -0.0137 -0.0926
  952BOLB   C2C22842  30.176  36.106   3.464  0.0716  0.1631  0.1872
  952BOLB   C3C22843  30.012  36.121   3.001  0.1413 -0.3258  0.0540
  952BOLB   C4C22844  30.017  36.517   2.672 -0.0909 -0.0547  0.0246
  952BOLB   C1D22845  29.645  36.569   3.813 -0.1145 -0.0170  0.1464
  952BOLB   C2D22846  29.258  36.454   3.668  0.1017  0.0329 -0.1939
  952BOLB   C3D22847  29.176  36.166   3.421  0.0885  0.1228 -0.2350
  952BOLB   C4D22848  28.911  35.953   3.077  0.0438  0.1949 -0.2643
  953BOLB   NC122849  19.503  23.857   7.173 -0.0566  0.0635 -0.0918
  953BOLB   PO122850  19.603  24.285   6.956 -0.1125  0.0481 -0.3001
  953BOLB   GL122851  19.863  24.510   6.707  0.0589  0.3809  0.1966
  953BOLB   GL222852  19.711  24.846   6.626 -0.3830 -0.0001 -0.1193
  953BOLB   C1A22853  20.083  24.439   6.261 -0.1492 -0.1784 -0.1725
  953BOLB   C2A22854  20.348  24.704   6.007  0.3302  0.0200  0.3484
  953BOLB   C3A22855  20.631  24.770   5.714  0.2324 -0.1500  0.0278
  953BOLB   C4A22856  20.951  24.348   5.761  0.1114 -0.2539 -0.1558
  953BOLB   C1B22857  19.869  25.364   6.675 -0.0539  0.1927  0.1284
  953BOLB   C2B22858  20.176  25.542   6.510  0.1998  0.2813  0.3824
  953BOLB   C3B22859  20.362  25.925   6.490  0.0822 -0.2505  0.2314
  953BOLB   C4B22860  20.374  26.372   6.642 -0.1081  0.0034 -0.6145
  953BOLB   NC222861  21.468  22.170   6.182  0.2216 -0.1941 -0.4124
  953BOLB   PO222862  21.045  22.214   6.350 -0.1345 -0.1587  0.1310
  953BOLB   GL322863  21.095  22.595   6.543 -0.1944  0.0038 -0.2578
  953BOLB   GL422864  21.270  22.926   6.674  0.2595  0.1367 -0.5318
  953BOLB   C1C22865  21.192  22.813   6.105  0.2930  0.2280 -0.0118
  953BOLB   C2C22866  21.177  23.192   5.940 -0.2934 -0.3634  0.1747
  953BOLB   C3C22867  20.940  23.455   5.843  0.1389 -0.0250 -0.0677
  953BOLB   C4C22868  20.991  23.855   5.728  0.4421 -0.0758  0.2992
  953BOLB   C1D22869  21.451  23.163   6.372  0.1740  0.3410  0.2448
  953BOLB   C2D22870  21.825  23.482   6.216 -0.0353  0.0355 -0.1018
  953BOLB   C3D22871  21.975  23.823   6.108 -0.1122  0.0377 -0.2191
  953BOLB   C4D22872  22.352  24.105   5.807  0.4936 -0.1133  0.1019
  954BOLB   NC122873  23.411  15.753  23.229  0.0368  0.0927 -0.0095
  954BOLB   PO122874  22.928  15.690  23.402  0.1194 -0.1211 -0.0281
  954BOLB   GL122875  23.048  16.094  23.285 -0.0699  0.0413 -0.0762
  954BOLB   GL222876  23.317  16.311  23.332  0.2592 -0.3213 -0.1127
  954BOLB   C1A22877  22.984  16.577  23.105  0.2153 -0.0342  0.2607
  954BOLB   C2A22878  22.826  16.946  23.322  0.0022 -0.0224  0.0155
  954BOLB   C3A22879  22.656  17.257  23.137 -0.0392 -0.1522 -0.0305
  954BOLB   C4A22880  22.276  17.294  22.974  0.1640 -0.3666 -0.1188
  954BOLB   C1B22881  23.178  16.741  23.726 -0.3157  0.2718 -0.0471
  954BOLB   C2B22882  23.094  17.287  23.590 -0.0281  0.1109  0.3298
  954BOLB   C3B22883  23.064  17.517  23.265 -0.0591 -0.2610 -0.2516
  954BOLB   C4B22884  22.923  17.567  22.765 -0.1122 -0.1079  0.0148
  954BOLB   NC222885  21.944  15.543  22.477  0.2422 -0.1304  0.3445
  954BOLB   PO222886  21.458  15.758  22.731 -0.3126 -0.0779  0.1364
  954BOLB   GL322887  21.548  16.120  22.477 -0.3584  0.0754 -0.1065
  954BOLB   GL422888  21.692  16.092  22.166 -0.2225 -0.1493  0.3979
  954BOLB   C1C22889  21.497  16.522  22.145  0.0753 -0.4437 -0.3402
  954BOLB   C2C22890  21.505  16.990  22.079 -0.1926  0.0420  0.2828
  954BOLB   C3C22891  21.741  17.212  22.328  0.0967 -0.3294 -0.2669
  954BOLB   C4C22892  22.075  17.341  22.574 -0.1062  0.0818 -0.0906
  954BOLB   C1D22893  21.831  16.331  21.851 -0.4334  0.2655  0.0771
  954BOLB   C2D22894  21.913  16.662  21.890 -0.0022  0.2495  0.0116
  954BOLB   C3D22895  22.155  16.827  22.184 -0.0773 -0.2422 -0.1091
  954BOLB   C4D22896  22.317  16.870  22.685  0.0933  0.2066  0.0980
  955BOLB   NC122897  34.704  24.984  20.252 -0.0427  0.1250 -0.0836
  955BOLB   PO122898  34.438  24.707  20.032 -0.0724  0.1419  0.3433
  955BOLB   GL122899  34.777  24.833  19.764  0.1731  0.4030  0.0233
  955BOLB   GL222900  35.032  25.050  19.859 -0.1063 -0.0709 -0.3574
  955BOLB   C1A22901  35.215  24.625  19.803 -0.1596  0.1582  0.0788
  955BOLB   C2A22902  35.435  24.388  19.576 -0.2498  0.0824 -0.2771
  955BOLB   C3A22903  35.855  24.278  19.758  0.2966 -0.0160 -0.1160
  955BOLB   C4A22904  36.014  23.910  19.967  0.0980 -0.1651 -0.0247
  955BOLB   C1B22905  35.486  24.996  19.711 -0.3764 -0.0742 -0.0547
  955BOLB   C2B22906  35.740  24.761  19.487  0.0969 -0.1792  0.0112
  955BOLB   C3B22907  36.136  24.531  19.428  0.2543 -0.3465 -0.1370
  955BOLB   C4B22908  36.544  24.426  19.256 -0.1043  0.2329  0.3521
  955BOLB   NC222909  37.378  22.824  18.288  0.0440 -0.1191  0.2964
  955BOLB   PO222910  37.464  23.003  18.682  0.2346  0.1695  0.2120
  955BOLB   GL322911  37.052  23.033  18.878  0.0260  0.1067  0.1717
  955BOLB   GL422912  37.024  22.802  19.099 -0.1145  0.0035  0.0294
  955BOLB   C1C22913  36.742  23.196  18.821  0.0931 -0.0501 -0.2268
  955BOLB   C2C22914  36.452  23.430  18.965 -0.3026  0.3552 -0.0592
  955BOLB   C3C22915  36.422  23.510  19.512  0.1063  0.0052  0.1666
  955BOLB   C4C22916  36.143  23.497  19.763  0.2050  0.3385 -0.0507
  955BOLB   C1D22917  36.595  22.913  19.254  0.0767 -0.1944 -0.0748
  955BOLB   C2D22918  36.255  23.061  19.506 -0.3405  0.4982  0.2240
  955BOLB   C3D22919  35.802  23.220  19.486  0.2072 -0.0376  0.0142
  955BOLB   C4D22920  35.522  23.330  19.694  0.3086  0.0888 -0.0735
  956BOLB   NC122921  21.625  35.023  23.255 -0.0749 -0.1783 -0.1780
  956BOLB   PO122922  21.805  35.536  23.110  0.0122 -0.0172  0.0148
  956BOLB   GL122923  21.479  35.828  23.149 -0.1788 -0.0090 -0.3916
  956BOLB   GL222924  21.567  36.087  22.830  0.4008  0.1780  0.2226
  956BOLB   C1A22925  21.051  35.921  23.435 -0.2151  0.0224  0.2441
  956BOLB   C2A22926  20.549  35.939  23.442 -0.0148  0.0068  0.1086
  956BOLB   C3A22927  20.167  36.070  23.495 -0.0744  0.4922  0.1482
  956BOLB   C4A22928  19.829  36.039  23.698  0.2650  0.0168  0.0152
  956BOLB   C1B22929  21.132  36.014  22.880  0.0801 -0.1922  0.1565
  956BOLB   C2B22930  20.850  36.210  22.753 -0.2425  0.3534 -0.0550
  956BOLB   C3B22931  20.439  36.299  22.636  0.1317  0.0854  0.0506
  956BOLB   C4B22932  19.990  36.299  22.893  0.1051  0.1045 -0.2236
  956BOLB   NC222933  18.190  37.674  22.608 -0.1738  0.2532 -0.3207
  956BOLB   PO222934  18.446  37.616  22.892  0.0466  0.0013  0.1175
  956BOLB   GL322935  18.745  37.439  23.141 -0.4305 -0.4835 -0.0266
  956BOLB   GL422936  18.998  37.432  22.901 -0.2448  0.0463 -0.1606
  956BOLB   C1C22937  18.915  37.118  23.307 -0.0484 -0.7563  0.1539
  956BOLB   C2C22938  19.065  36.638  23.227 -0.1284 -0.0250 -0.0502
  956BOLB   C3C22939  19.122  36.248  23.442  0.0630 -0.1446  0.0967
  956BOLB   C4C22940  19.414  35.954  23.649  0.0922 -0.1590 -0.0463
  956BOLB   C1D22941  19.409  37.367  23.042  0.1872 -0.1141 -0.0144
  956BOLB   C2D22942  19.822  37.449  22.920  0.3163  0.2803  0.1597
  956BOLB   C3D22943  20.156  37.533  22.733  0.1218 -0.0569  0.1429
  956BOLB   C4D22944  20.541  37.272  22.697 -0.0189 -0.3765 -0.2683
  957BOLB   NC122945  26.523  33.256   6.468 -0.0272 -0.0042  0.2133
  957BOLB   PO122946  26.921  33.491   6.522  0.2207 -0.1138  0.0083
  957BOLB   GL122947  27.132  33.092   6.291  0.1040 -0.1752 -0.2498
  957BOLB   GL222948  27.396  33.326   6.155 -0.0684 -0.1584  0.0164
  957BOLB   C1A22949  27.205  33.135   5.742 -0.2623  0.1952 -0.4800
  957BOLB   C2A22950  27.475  33.208   5.442  0.3902  0.1866 -0.0670
  957BOLB   C3A22951  27.894  33.233   5.419  0.2689 -0.0298 -0.0528
  957BOLB   C4A22952  28.236  33.081   4.985  0.1029 -0.2583  0.1164
  957BOLB   C1B22953  27.662  33.566   5.877  0.0329  0.1096  0.4649
  957BOLB   C2B22954  27.866  33.694   5.471 -0.2062  0.0604 -0.0204
  957BOLB   C3B22955  27.855  33.487   5.030  0.1419 -0.0398 -0.0176
  957BOLB   C4B22956  27.690  33.100   5.014  0.1983 -0.2206  0.0197
  957BOLB   NC222957  29.534  34.341   6.552 -0.0228 -0.0310  0.0406
  957BOLB   PO222958  29.373  33.993   6.365 -0.0288  0.1407  0.1396
  957BOLB   GL322959  29.296  33.898   5.927  0.0527  0.0672  0.1111
  957BOLB   GL422960  29.330  34.147   5.679 -0.5678 -0.3228  0.5445
  957BOLB   C1C22961  29.247  33.574   5.500 -0.0515  0.2849  0.0540
  957BOLB   C2C22962  29.017  33.229   5.434  0.2105  0.2399 -0.0837
  957BOLB   C3C22963  28.912  33.031   5.187  0.1157  0.1250 -0.2278
  957BOLB   C4C22964  28.578  32.856   4.904  0.0169  0.0355  0.1039
  957BOLB   C1D22965  29.152  33.993   5.321 -0.1743 -0.2692  0.2405
  957BOLB   C2D22966  28.805  34.129   5.088 -0.3319  0.1249 -0.2319
  957BOLB   C3D22967  28.582  33.895   4.688 -0.0427 -0.0076  0.0163
  957BOLB   C4D22968  28.604  33.502   4.381  0.1418 -0.1743 -0.3424
  958BOLB   NC122969  24.354  32.358  15.559 -0.0971  0.0224 -0.0480
  958BOLB   PO122970  24.096  32.551  15.334  0.0817  0.0959 -0.3450
  958BOLB   GL122971  24.071  32.829  14.922  0.0994  0.0078  0.0535
  958BOLB   GL222972  24.166  32.977  14.642 -0.0035 -0.0157  0.1622
  958BOLB   C1A22973  23.710  32.877  14.622  0.0984  0.0378  0.3104
  958BOLB   C2A22974  23.372  33.058  14.313  0.2551 -0.2319  0.3916
  958BOLB   C3A22975  23.091  33.201  14.015  0.2927 -0.2330 -0.0833
  958BOLB   C4A22976  22.824  33.342  13.702 -0.1366 -0.2262 -0.1790
  958BOLB   C1B22977  23.928  33.216  14.328 -0.1593  0.2792 -0.2288
  958BOLB   C2B22978  23.961  33.567  14.042 -0.2891 -0.1752  0.3861
  958BOLB   C3B22979  23.781  33.923  13.802 -0.3028  0.1033 -0.3640
  958BOLB   C4B22980  23.545  34.154  13.605 -0.0212  0.0795  0.0719
  958BOLB   NC222981  22.571  34.106  11.268  0.3538  0.2024  0.1666
  958BOLB   PO222982  22.396  33.658  11.353  0.2604  0.2341  0.1150
  958BOLB   GL322983  22.743  33.716  11.593  0.0143  0.2307 -0.0743
  958BOLB   GL422984  22.894  34.102  11.750  0.2508  0.2691 -0.0816
  958BOLB   C1C22985  23.024  33.736  12.048 -0.0349 -0.0151  0.1216
  958BOLB   C2C22986  22.933  33.842  12.604  0.0718 -0.2138  0.0008
  958BOLB   C3C22987  22.654  33.911  12.972 -0.2170  0.0588  0.2239
  958BOLB   C4C22988  22.715  33.723  13.395 -0.1917 -0.0920  0.3100
  958BOLB   C1D22989  22.781  34.141  12.235 -0.1356  0.0460  0.2219
  958BOLB   C2D22990  22.468  34.085  12.565 -0.0362  0.1529  0.3367
  958BOLB   C3D22991  22.295  34.232  12.920  0.2895 -0.3105  0.0970
  958BOLB   C4D22992  22.020  34.357  13.257 -0.0668 -0.0507 -0.0853
  959BOLB   NC122993  28.545  27.235   2.918  0.2437 -0.1524  0.3345
  959BOLB   PO122994  28.154  27.488   2.911  0.3708  0.1610  0.1555
  959BOLB   GL122995  28.201  27.202   3.340 -0.5459 -0.1914  0.0633
  959BOLB   GL222996  28.532  27.134   3.405 -0.0310 -0.1239 -0.1999
  959BOLB   C1A22997  28.154  26.965   3.763  0.0910 -0.0411  0.2224
  959BOLB   C2A22998  28.212  27.102   4.280 -0.1289 -0.0427 -0.0850
  959BOLB   C3A22999  28.484  27.135   4.595  0.1803  0.2369  0.2106
  959BOLB   C4A23000  28.353  27.193   5.051  0.0334 -0.0126 -0.3144
  959BOLB   C1B23001  28.724  27.004   3.787 -0.2704  0.1596 -0.2776
  959BOLB   C2B23002  29.006  27.168   4.146  0.0436  0.2840 -0.0604
  959BOLB   C3B23003  29.139  27.337   4.561  0.3519 -0.0717 -0.2425
  959BOLB   C4B23004  29.424  27.579   4.639 -0.0687  0.5045 -0.0643
  959BOLB   NC223005  28.350  26.860   7.532  0.0454 -0.3686 -0.0982
  959BOLB   PO223006  28.703  27.000   7.487 -0.0441 -0.0226  0.0161
  959BOLB   GL323007  28.667  26.816   7.058  0.3709 -0.0589 -0.0460
  959BOLB   GL423008  28.385  26.591   7.018 -0.0857 -0.1210  0.0388
  959BOLB   C1C23009  28.483  26.748   6.584  0.2078  0.3382 -0.0427
  959BOLB   C2C23010  28.227  26.704   6.163  0.2954 -0.2523  0.1044
  959BOLB   C3C23011  28.452  26.760   5.746 -0.0262 -0.0768  0.0801
  959BOLB   C4C23012  28.368  27.097   5.414  0.2674  0.2425 -0.0622
  959BOLB   C1D23013  28.489  26.262   6.621  0.1452 -0.2936 -0.4346
  959BOLB   C2D23014  28.369  26.158   6.278  0.4198  0.2775 -0.2364
  959BOLB   C3D23015  28.375  26.145   5.825  0.1180 -0.3447 -0.3664
  959BOLB   C4D23016  28.190  26.064   5.457  0.2009 -0.2276  0.1175
  960BOLB   NC123017  32.124  27.548   0.754 -0.0151  0.0606 -0.1656
  960BOLB   PO123018  32.475  27.550   0.986 -0.2259 -0.1829  0.0739
  960BOLB   GL123019  32.821  27.644   1.178  0.0152 -0.1342  0.0240
  960BOLB   GL223020  32.809  27.878   1.522  0.0965  0.2879 -0.0873
  960BOLB   C1A23021  33.238  27.457   1.285 -0.1946  0.0070  0.0659
  960BOLB   C2A23022  33.449  27.241   1.627 -0.1610  0.0029  0.1211
  960BOLB   C3A23023  33.578  27.041   1.982 -0.0573  0.2001 -0.0891
  960BOLB   C4A23024  33.902  27.115   2.239 -0.0867  0.0288  0.1971
  960BOLB   C1B23025  32.966  27.539   1.739  0.2619  0.0096 -0.0088
  960BOLB   C2B23026  33.201  27.338   2.137 -0.0866  0.0596  0.0196
  960BOLB   C3B23027  33.228  27.489   2.585  0.0621  0.1378  0.1276
  960BOLB   C4B23028  33.387  27.263   3.007 -0.4512 -0.0292  0.2977
  960BOLB   NC223029  35.154  25.375   3.665  0.0695  0.0013  0.0341
  960BOLB   PO223030  35.347  25.786   3.539  0.2321  0.0186  0.2609
  960BOLB   GL323031  34.950  25.975   3.348  0.0860  0.1117 -0.0393
  960BOLB   GL423032  35.061  26.074   3.059 -0.0337  0.0509 -0.1536
  960BOLB   C1C23033  34.594  26.004   3.103  0.1210 -0.0545  0.0970
  960BOLB   C2C23034  34.326  26.179   2.773  0.0564  0.0562  0.0196
  960BOLB   C3C23035  34.152  26.492   2.534  0.1655  0.1272  0.0506
  960BOLB   C4C23036  34.199  26.903   2.246  0.0046  0.1238  0.0748
  960BOLB   C1D23037  34.838  26.152   2.701  0.2293 -0.1466 -0.2735
  960BOLB   C2D23038  34.680  26.499   2.463  0.3829 -0.1458 -0.2318
  960BOLB   C3D23039  34.666  27.029   2.369  0.0106  0.0831 -0.2134
  960BOLB   C4D23040  34.698  27.431   2.529 -0.0819 -0.0463 -0.0961
  961BOLB   NC123041  24.840  28.760   8.064 -0.1272 -0.0043  0.2019
  961BOLB   PO123042  25.282  28.914   8.254  0.0336 -0.2807  0.2196
  961BOLB   GL123043  25.227  28.900   7.736  0.1646  0.0499 -0.2224
  961BOLB   GL223044  25.290  29.113   7.523  0.0272 -0.2550  0.3270
  961BOLB   C1A23045  24.925  28.608   7.429 -0.1600  0.3147  0.0326
  961BOLB   C2A23046  24.913  28.338   7.090 -0.1105  0.1500 -0.1189
  961BOLB   C3A23047  24.598  28.200   6.848 -0.4080  0.5412 -0.3371
  961BOLB   C4A23048  24.394  28.190   6.460  0.2490 -0.0836 -0.2515
  961BOLB   C1B23049  25.191  28.881   7.135 -0.1112 -0.1030  0.0036
  961BOLB   C2B23050  25.147  28.735   6.747  0.2158  0.2723  0.4069
  961BOLB   C3B23051  24.944  28.395   6.461 -0.0099  0.2940 -0.1321
  961BOLB   C4B23052  24.654  28.351   6.037 -0.0423  0.0983 -0.0453
  961BOLB   NC223053  22.888  30.258   7.574  0.1713  0.0281  0.2469
  961BOLB   PO223054  23.202  30.254   7.221 -0.0546 -0.0761  0.0177
  961BOLB   GL323055  23.212  29.823   7.057  0.1062 -0.3438  0.0334
  961BOLB   GL423056  22.893  29.802   7.184  0.0447 -0.3504  0.1797
  961BOLB   C1C23057  23.567  29.595   6.884  0.0572 -0.0364  0.3094
  961BOLB   C2C23058  23.639  29.113   6.835  0.3378  0.1738 -0.0399
  961BOLB   C3C23059  23.642  28.698   6.688 -0.0764  0.1808 -0.2837
  961BOLB   C4C23060  23.973  28.411   6.601 -0.5019 -0.0046 -0.0489
  961BOLB   C1D23061  22.658  29.597   6.920  0.2416  0.0318  0.0536
  961BOLB   C2D23062  22.543  29.391   6.520 -0.0564  0.0224  0.0449
  961BOLB   C3D23063  22.458  29.339   6.067  0.3103 -0.1475  0.2030
  961BOLB   C4D23064  22.697  29.350   5.737  0.1133  0.2238 -0.1065
  962BOLB   NC123065  23.787  32.620   1.259 -0.0498 -0.2020  0.3278
  962BOLB   PO123066  23.636  32.701   1.628 -0.4105  0.3585  0.1405
  962BOLB   GL123067  23.348  32.880   2.009  0.0407  0.0829 -0.2554
  962BOLB   GL223068  23.159  32.836   1.775  0.0372 -0.2401  0.2251
  962BOLB   C1A23069  23.077  33.184   2.366 -0.1832 -0.0221 -0.0626
  962BOLB   C2A23070  22.631  33.414   2.620  0.1208  0.2294 -0.4612
  962BOLB   C3A23071  22.336  33.594   2.743  0.1053 -0.4235 -0.1151
  962BOLB   C4A23072  22.045  33.364   2.952 -0.1868  0.0674 -0.1441
  962BOLB   C1B23073  22.766  32.871   2.048  0.0027  0.3302 -0.0849
  962BOLB   C2B23074  22.662  32.942   2.415 -0.0345  0.0114 -0.0486
  962BOLB   C3B23075  22.591  32.850   2.833  0.2292  0.2723  0.2555
  962BOLB   C4B23076  22.393  32.971   3.224  0.1884  0.1261  0.2030
  962BOLB   NC223077  22.053  34.473   4.863 -0.2375 -0.0554 -0.3599
  962BOLB   PO223078  21.590  34.314   4.844  0.0114  0.1071 -0.1525
  962BOLB   GL323079  21.859  34.096   4.542 -0.0218 -0.2251 -0.0599
  962BOLB   GL423080  21.862  33.786   4.570 -0.3974  0.0104  0.2032
  962BOLB   C1C23081  21.671  34.070   4.192 -0.2129  0.1837 -0.1136
  962BOLB   C2C23082  21.748  33.803   3.989  0.2878  0.0009  0.0326
  962BOLB   C3C23083  21.738  33.732   3.564 -0.0754  0.1644 -0.2042
  962BOLB   C4C23084  21.824  33.466   3.253 -0.2102 -0.0900 -0.1670
  962BOLB   C1D23085  22.099  33.588   4.324  0.0198 -0.1461  0.0689
  962BOLB   C2D23086  22.028  33.378   3.896  0.0991 -0.1012 -0.1642
  962BOLB   C3D23087  22.237  33.452   3.490  0.2917  0.0840 -0.2367
  962BOLB   C4D23088  22.598  33.485   3.175  0.3230 -0.0841  0.0912
  963BOLB   NC123089  15.426  22.358   0.029  0.1176 -0.4846 -0.1042
  963BOLB   PO123090  15.593  22.792   0.056 -0.2782 -0.2227  0.1269
  963BOLB   GL123091  15.910  23.168   0.083 -0.0364  0.1260  0.2511
  963BOLB   GL223092  16.174  23.042   0.098 -0.3484 -0.2431  0.0779
  963BOLB   C1A23093  15.968  23.539  26.812 -0.1771  0.3624  0.0195
  963BOLB   C2A23094  16.075  23.983  26.714 -0.1839 -0.2229  0.0332
  963BOLB   C3A23095  15.970  24.409  26.721  0.0875 -0.0754 -0.1496
  963BOLB   C4A23096  15.498  24.659  26.714  0.1558  0.0662  0.2201
  963BOLB   C1B23097  16.482  22.836  26.763  0.0117  0.0480 -0.2089
  963BOLB   C2B23098  16.515  22.939  26.289 -0.0658 -0.4000 -0.0585
  963BOLB   C3B23099  16.411  22.870  25.835 -0.0507  0.1762  0.0396
  963BOLB   C4B23100  16.262  23.045  25.581  0.1086  0.0419 -0.1621
  963BOLB   NC223101  14.670  25.639   2.020 -0.1691 -0.0549  0.2761
  963BOLB   PO223102  14.421  25.910   1.844  0.0709 -0.3002 -0.2836
  963BOLB   GL323103  14.849  25.808   1.573  0.0314 -0.1689 -0.1024
  963BOLB   GL423104  15.116  25.629   1.778  0.0212 -0.1714  0.0164
  963BOLB   C1C23105  15.095  25.661   1.291 -0.3515 -0.0540 -0.1291
  963BOLB   C2C23106  15.256  25.357   0.881  0.0838  0.2576 -0.3575
  963BOLB   C3C23107  15.144  25.129   0.537 -0.0858  0.1526 -0.0145
  963BOLB   C4C23108  15.293  24.775   0.249  0.3128 -0.1023  0.1098
  963BOLB   C1D23109  15.685  25.503   1.773  0.1585 -0.0374 -0.1491
  963BOLB   C2D23110  16.101  25.501   2.068 -0.0102  0.0448 -0.2445
  963BOLB   C3D23111  16.349  25.668   2.302  0.0845 -0.0425 -0.1857
  963BOLB   C4D23112  16.574  25.799   2.726 -0.0785 -0.1210 -0.1881
  964BOLB   NC123113  34.278  31.509  26.858 -0.1618 -0.0382  0.3061
  964BOLB   PO123114  34.368  31.932  26.816  0.1641 -0.0576 -0.0860
  964BOLB   GL123115  34.680  32.043  26.578 -0.0699 -0.4710 -0.0359
  964BOLB   GL223116  34.778  31.628  26.731 -0.0510 -0.2413  0.0904
  964BOLB   C1A23117  35.201  31.904  26.559  0.0795 -0.0709  0.2583
  964BOLB   C2A23118  35.512  31.954  26.231 -0.0631  0.4373 -0.1000
  964BOLB   C3A23119  35.967  32.043  26.340  0.2114 -0.3473 -0.2037
  964BOLB   C4A23120  36.178  32.266  26.650 -0.3400 -0.0579  0.1031
  964BOLB   C1B23121  34.972  31.989   0.040 -0.4185  0.1311 -0.5020
  964BOLB   C2B23122  35.246  32.142   0.424 -0.1058 -0.2115 -0.2981
  964BOLB   C3B23123  35.676  32.056   0.530  0.0041  0.1853  0.1729
  964BOLB   C4B23124  36.146  31.917   0.606  0.2520  0.1216 -0.0460
  964BOLB   NC223125  37.734  34.077   0.710 -0.0386 -0.0268 -0.1698
  964BOLB   PO223126  37.701  34.295   0.335 -0.0748 -0.0306  0.5045
  964BOLB   GL323127  37.340  33.962   0.377 -0.0338  0.1069 -0.2176
  964BOLB   GL423128  37.013  34.107   0.267  0.2775  0.2408 -0.2383
  964BOLB   C1C23129  37.231  33.540   0.303  0.2468 -0.3068 -0.0597
  964BOLB   C2C23130  36.922  33.223   0.024 -0.1004 -0.1640 -0.2526
  964BOLB   C3C23131  36.575  33.065  26.788 -0.0872 -0.3171 -0.3525
  964BOLB   C4C23132  36.348  32.637  26.851 -0.1840 -0.1241 -0.0600
  964BOLB   C1D23133  36.689  34.190   0.034 -0.2583 -0.2344  0.1318
  964BOLB   C2D23134  36.354  34.012  26.834 -0.2024 -0.2611 -0.1676
  964BOLB   C3D23135  35.972  33.892  26.658 -0.0389 -0.0287 -0.0589
  964BOLB   C4D23136  35.660  33.747  26.358 -0.0730  0.3472  0.0019
  965BOLB   NC123137  25.526  33.846  10.333 -0.0656 -0.0737 -0.2226
  965BOLB   PO123138  25.624  34.383  10.356 -0.1418 -0.0416  0.0637
  965BOLB   GL123139  25.665  34.290  10.765 -0.1136  0.1128 -0.0684
  965BOLB   GL223140  25.302  34.537  10.689 -0.3185 -0.2111 -0.4419
  965BOLB   C1A23141  25.543  34.010  11.070  0.1949  0.2990  0.1023
  965BOLB   C2A23142  25.607  33.858  11.518  0.1668  0.0835 -0.2741
  965BOLB   C3A23143  25.757  33.820  12.013 -0.2061 -0.2286 -0.3133
  965BOLB   C4A23144  25.928  33.555  12.223  0.0342 -0.0421  0.1592
  965BOLB   C1B23145  25.594  34.679  11.101  0.1312  0.0937  0.0891
  965BOLB   C2B23146  25.907  34.364  11.220 -0.2383  0.1892 -0.0597
  965BOLB   C3B23147  26.092  34.078  11.599 -0.0559  0.0773 -0.1945
  965BOLB   C4B23148  26.222  33.981  11.950  0.0935 -0.1136  0.2119
  965BOLB   NC223149  26.083  34.229  10.537 -0.5088  0.1926 -0.0462
  965BOLB   PO223150  26.003  33.948  10.341  0.0172 -0.1129 -0.2700
  965BOLB   GL323151  25.983  33.632  10.592  0.0831 -0.0967 -0.4778
  965BOLB   GL423152  26.009  33.864  10.882 -0.2429 -0.2044 -0.0234
  965BOLB   C1C23153  26.169  33.348  10.910 -0.0432  0.1462 -0.2023
  965BOLB   C2C23154  26.358  33.374  11.259 -0.0853  0.0793 -0.1674
  965BOLB   C3C23155  26.284  33.092  11.609 -0.0741  0.2674 -0.0551
  965BOLB   C4C23156  26.070  33.155  12.013  0.2215  0.1951  0.0675
  965BOLB   C1D23157  25.982  33.779  11.200  0.0069 -0.2466 -0.1890
  965BOLB   C2D23158  25.943  33.554  11.638 -0.0254  0.2112 -0.1007
  965BOLB   C3D23159  25.510  33.387  11.853 -0.0155 -0.0535 -0.0199
  965BOLB   C4D23160  25.092  33.233  11.810 -0.1160  0.2531  0.0639
  966BOLB   NC123161  23.700  20.270  13.945 -0.0933 -0.0848 -0.3806
  966BOLB   PO123162  23.597  20.532  14.324 -0.2464 -0.0434  0.1353
  966BOLB   GL123163  23.416  20.738  14.618  0.1195  0.0061  0.0342
  966BOLB   GL223164  23.390  20.483  14.827 -0.1303 -0.0759 -0.0516
  966BOLB   C1A23165  23.557  20.873  15.034 -0.2997 -0.0034  0.1156
  966BOLB   C2A23166  23.557  21.036  15.508  0.2261 -0.1681  0.0730
  966BOLB   C3A23167  23.791  21.449  15.645  0.2224 -0.1620  0.0369
  966BOLB   C4A23168  23.915  21.947  15.524  0.3081  0.2179  0.2793
  966BOLB   C1B23169  23.564  20.506  15.382 -0.4813 -0.1541  0.3511
  966BOLB   C2B23170  23.897  20.708  15.548  0.3679  0.3084  0.1210
  966BOLB   C3B23171  23.963  20.963  15.818  0.1033 -0.1986 -0.0959
  966BOLB   C4B23172  24.284  21.208  16.008  0.1728  0.2044  0.4248
  966BOLB   NC223173  24.046  21.404  12.978 -0.1795 -0.1073  0.0747
  966BOLB   PO223174  24.071  21.332  13.356 -0.0911  0.3485 -0.1362
  966BOLB   GL323175  24.193  21.605  13.700  0.0456 -0.1900  0.1963
  966BOLB   GL423176  24.078  21.303  13.917  0.3826 -0.1139 -0.2113
  966BOLB   C1C23177  24.110  21.828  14.103 -0.0997  0.1786 -0.4101
  966BOLB   C2C23178  24.189  22.125  14.370 -0.1177  0.4323  0.2599
  966BOLB   C3C23179  24.132  22.342  14.822  0.1107 -0.1681  0.0818
  966BOLB   C4C23180  24.070  22.170  15.239  0.0268  0.0110  0.4323
  966BOLB   C1D23181  24.485  21.431  14.166  0.2278 -0.0636 -0.0027
  966BOLB   C2D23182  24.763  21.520  14.550 -0.0980 -0.1646  0.1574
  966BOLB   C3D23183  25.008  21.707  14.824  0.0467 -0.1402 -0.1613
  966BOLB   C4D23184  25.182  21.823  15.108 -0.1043 -0.6413 -0.2614
  967BOLB   NC123185  23.741  24.714   9.014  0.1099 -0.0567  0.2325
  967BOLB   PO123186  23.748  24.682   8.614 -0.0017 -0.1081 -0.0452
  967BOLB   GL123187  23.782  25.005   8.323 -0.1764  0.1675  0.1814
  967BOLB   GL223188  23.586  25.218   8.022 -0.0432 -0.2741  0.1661
  967BOLB   C1A23189  24.121  25.317   8.168 -0.1849  0.0920 -0.3265
  967BOLB   C2A23190  24.366  25.385   7.817  0.1196 -0.2657 -0.0262
  967BOLB   C3A23191  24.665  25.271   7.561 -0.0325 -0.2306 -0.1186
  967BOLB   C4A23192  24.978  25.234   7.251 -0.2121 -0.1700 -0.0197
  967BOLB   C1B23193  23.828  25.281   7.689  0.1367 -0.1226 -0.1992
  967BOLB   C2B23194  24.181  25.140   7.435 -0.2272  0.1204  0.2089
  967BOLB   C3B23195  24.505  24.768   7.477  0.2413  0.1330 -0.0209
  967BOLB   C4B23196  24.825  24.593   7.635  0.2074 -0.1719 -0.1083
  967BOLB   NC223197  26.688  26.135   8.241  0.0909 -0.1025  0.0974
  967BOLB   PO223198  26.996  25.757   8.141 -0.0068 -0.1776  0.0157
  967BOLB   GL323199  26.677  25.810   7.781 -0.0310  0.0343 -0.1422
  967BOLB   GL423200  26.514  25.506   7.817  0.0232  0.0685  0.2197
  967BOLB   C1C23201  26.391  25.778   7.375  0.0647 -0.1482  0.0001
  967BOLB   C2C23202  26.024  25.645   7.239  0.1181 -0.0094 -0.2633
  967BOLB   C3C23203  25.814  25.314   7.108 -0.2334  0.3356 -0.2495
  967BOLB   C4C23204  25.449  25.200   7.072  0.0538  0.2878  0.0515
  967BOLB   C1D23205  26.449  25.154   7.667 -0.0611 -0.1426 -0.0961
  967BOLB   C2D23206  26.093  24.984   7.457 -0.4413  0.0287  0.4438
  967BOLB   C3D23207  25.644  25.115   7.569 -0.0628 -0.2075  0.2294
  967BOLB   C4D23208  25.264  24.901   7.516 -0.1886  0.0027 -0.3350
  968BOLB   NC123209  14.332  22.370  24.832 -0.0345  0.0731  0.0312
  968BOLB   PO123210  14.127  22.601  24.441  0.1953 -0.2451  0.0235
  968BOLB   GL123211  14.251  22.959  24.183  0.0060  0.1376  0.2477
  968BOLB   GL223212  14.334  23.326  24.302 -0.0659 -0.0174 -0.2022
  968BOLB   C1A23213  14.418  23.000  23.848 -0.6914  0.0751 -0.0184
  968BOLB   C2A23214  14.798  23.318  23.532 -0.0102  0.4870 -0.1547
  968BOLB   C3A23215  15.176  23.604  23.363  0.1404 -0.0866 -0.1626
  968BOLB   C4A23216  15.421  23.924  23.643 -0.0425 -0.0269  0.0342
  968BOLB   C1B23217  14.288  23.482  23.831 -0.2624  0.0725  0.4203
  968BOLB   C2B23218  14.331  23.800  23.484 -0.0006  0.1605  0.2572
  968BOLB   C3B23219  14.651  23.990  23.495 -0.2590  0.0812 -0.2978
  968BOLB   C4B23220  14.944  24.294  23.651  0.0899  0.0542 -0.2470
  968BOLB   NC223221  14.045  24.057  24.633 -0.1709  0.4533  0.0011
  968BOLB   PO223222  13.838  24.299  24.217 -0.0667  0.3012 -0.0752
  968BOLB   GL323223  14.027  24.713  24.351  0.0017  0.0854 -0.0737
  968BOLB   GL423224  14.126  24.616  24.757 -0.0643  0.0875 -0.1910
  968BOLB   C1C23225  14.419  24.805  24.429 -0.4159 -0.3502  0.3488
  968BOLB   C2C23226  14.844  24.703  24.293  0.0329 -0.0364 -0.1430
  968BOLB   C3C23227  15.166  24.565  24.022  0.1311  0.0791  0.1994
  968BOLB   C4C23228  15.376  24.219  24.016  0.1172  0.2708 -0.0214
  968BOLB   C1D23229  14.520  24.328  24.860 -0.0380  0.0500  0.1095
  968BOLB   C2D23230  15.024  24.311  24.848  0.1193 -0.0201 -0.2956
  968BOLB   C3D23231  15.221  24.507  24.531  0.0769  0.2755 -0.3837
  968BOLB   C4D23232  15.564  24.661  24.324  0.0995 -0.1353  0.1368
  969BOLB   NC123233  34.156  30.681  15.897  0.1948  0.1030 -0.0712
  969BOLB   PO123234  34.080  30.373  16.362  0.2459 -0.0557 -0.0264
  969BOLB   GL123235  34.513  30.373  16.298 -0.0295  0.1266  0.3673
  969BOLB   GL223236  34.749  30.087  16.263  0.2295 -0.0558 -0.2896
  969BOLB   C1A23237  34.762  30.550  15.961  0.2285 -0.1569 -0.1104
  969BOLB   C2A23238  35.032  30.595  15.653  0.0779  0.0287 -0.1828
  969BOLB   C3A23239  35.451  30.640  15.538  0.1022 -0.1377 -0.0590
  969BOLB   C4A23240  35.674  31.005  15.622 -0.2750  0.2264 -0.0404
  969BOLB   C1B23241  34.574  30.103  15.812 -0.2562  0.2492  0.2116
  969BOLB   C2B23242  35.031  30.071  15.439  0.0643 -0.1207 -0.0490
  969BOLB   C3B23243  35.518  30.004  15.557  0.1607  0.0388  0.2628
  969BOLB   C4B23244  35.883  30.249  15.349 -0.1742 -0.0064 -0.0075
  969BOLB   NC223245  38.089  31.787  15.267 -0.1768  0.1617 -0.3226
  969BOLB   PO223246  37.920  31.931  14.945  0.0505 -0.1176  0.0152
  969BOLB   GL323247  37.522  31.947  15.087 -0.1791  0.0769 -0.0612
  969BOLB   GL423248  37.363  32.225  15.267 -0.1999 -0.3839 -0.1406
  969BOLB   C1C23249  37.146  31.738  15.086 -0.2135 -0.1094  0.1513
  969BOLB   C2C23250  36.680  31.595  15.155 -0.2417  0.0036 -0.3532
  969BOLB   C3C23251  36.377  31.379  15.016 -0.1348  0.1701 -0.0242
  969BOLB   C4C23252  36.026  31.236  15.327 -0.1122 -0.1349  0.4898
  969BOLB   C1D23253  37.017  32.088  15.486  0.2458  0.0600 -0.1252
  969BOLB   C2D23254  36.863  31.740  15.669 -0.1791  0.1298 -0.2886
  969BOLB   C3D23255  37.193  31.597  16.034  0.3856  0.0875  0.1158
  969BOLB   C4D23256  37.029  31.482  16.449  0.2441 -0.0171 -0.0723
  970BOLB   NC123257  27.096  22.749   8.169 -0.1673  0.0835 -0.1770
  970BOLB   PO123258  27.069  23.202   7.947  0.0674  0.2184  0.0001
  970BOLB   GL123259  26.841  23.228   7.516  0.4083 -0.0621  0.1297
  970BOLB   GL223260  26.992  23.018   7.178 -0.0266 -0.3396 -0.2393
  970BOLB   C1A23261  26.490  23.376   7.241  0.4299  0.2825  0.3451
  970BOLB   C2A23262  26.360  23.619   6.922  0.1448 -0.0471 -0.1882
  970BOLB   C3A23263  26.007  23.943   6.959 -0.0580  0.3434  0.2673
  970BOLB   C4A23264  25.712  24.248   6.961 -0.1796  0.0140 -0.1795
  970BOLB   C1B23265  27.185  23.215   6.773 -0.0580 -0.0853  0.1683
  970BOLB   C2B23266  27.035  23.338   6.339  0.2544 -0.0528 -0.0750
  970BOLB   C3B23267  27.042  23.287   5.913  0.2236 -0.1152 -0.0123
  970BOLB   C4B23268  26.878  23.587   5.713 -0.1493  0.1922 -0.2396
  970BOLB   NC223269  23.529  24.281   8.299  0.1269 -0.2293  0.1113
  970BOLB   PO223270  23.673  23.913   7.988 -0.4207  0.3184  0.0932
  970BOLB   GL323271  24.104  23.858   7.794 -0.0169 -0.1240  0.2449
  970BOLB   GL423272  23.953  23.567   7.630 -0.1190  0.3013 -0.0730
  970BOLB   C1C23273  24.219  23.821   7.312 -0.1056 -0.0298 -0.3212
  970BOLB   C2C23274  24.615  23.831   7.065  0.0393  0.1090  0.4830
  970BOLB   C3C23275  25.032  23.823   6.822  0.0219  0.2900  0.0792
  970BOLB   C4C23276  25.314  24.212   6.792  0.1260 -0.2424  0.3610
  970BOLB   C1D23277  23.650  23.757   7.352  0.0738 -0.0811  0.1526
  970BOLB   C2D23278  23.560  23.964   7.020  0.0437  0.2531 -0.1587
  970BOLB   C3D23279  23.188  24.142   6.926 -0.0770 -0.2022 -0.1293
  970BOLB   C4D23280  22.819  24.350   6.605  0.1511 -0.0013 -0.0588
  971BOLB   NC123281  17.179  20.062   0.006  0.4970  0.0668 -0.2497
  971BOLB   PO123282  17.609  19.854   0.105 -0.1800  0.0020 -0.1762
  971BOLB   GL123283  17.771  20.013  26.632 -0.0536  0.1686  0.3574
  971BOLB   GL223284  17.464  20.030  26.526  0.2461 -0.1367  0.1064
  971BOLB   C1A23285  17.986  20.335  26.169 -0.0442 -0.1621  0.0617
  971BOLB   C2A23286  18.171  20.702  26.016  0.0072  0.2952 -0.0378
  971BOLB   C3A23287  18.436  21.059  25.804  0.1791 -0.0528 -0.1911
  971BOLB   C4A23288  18.337  21.487  26.035  0.1713 -0.1333 -0.0619
  971BOLB   C1B23289  17.391  20.328  26.139 -0.0754 -0.3236 -0.0328
  971BOLB   C2B23290  17.180  20.612  25.849 -0.0024  0.2636  0.1827
  971BOLB   C3B23291  17.265  21.138  25.720  0.0538 -0.2462 -0.1268
  971BOLB   C4B23292  17.719  21.428  25.590  0.0834 -0.0010 -0.0024
  971BOLB   NC223293  15.909  20.393  25.422 -0.0161 -0.3400  0.3072
  971BOLB   PO223294  16.365  20.502  25.691  0.2033  0.4006  0.3009
  971BOLB   GL323295  16.600  20.745  25.727 -0.0129 -0.1151  0.5569
  971BOLB   GL423296  16.690  21.056  25.573 -0.2150 -0.1066 -0.4144
  971BOLB   C1C23297  16.932  20.961  26.037  0.0558 -0.1149  0.2177
  971BOLB   C2C23298  17.214  21.099  26.236  0.0298 -0.4335  0.5735
  971BOLB   C3C23299  17.535  21.356  26.251 -0.1410  0.3035  0.0145
  971BOLB   C4C23300  17.920  21.556  26.174 -0.0692 -0.0684  0.2128
  971BOLB   C1D23301  17.063  20.787  25.401  0.4566  0.0615 -0.0774
  971BOLB   C2D23302  17.325  21.035  25.170  0.0343  0.0971  0.2059
  971BOLB   C3D23303  17.609  21.304  25.099 -0.2944 -0.2305  0.0492
  971BOLB   C4D23304  17.861  21.777  25.175  0.1405  0.0157  0.1527
  972BOLB   NC123305  22.756  17.102   1.142 -0.2313  0.0412 -0.0875
  972BOLB   PO123306  22.482  17.063   0.698  0.1102  0.1083 -0.1638
  972BOLB   GL123307  22.500  17.447   0.700  0.1149 -0.0292 -0.3088
  972BOLB   GL223308  22.198  17.639   0.550 -0.1796 -0.2974  0.0208
  972BOLB   C1A23309  22.718  17.823   0.391  0.2494 -0.0854  0.2876
  972BOLB   C2A23310  22.864  18.216   0.574 -0.0829  0.0565 -0.0834
  972BOLB   C3A23311  23.195  18.371   0.797 -0.1666 -0.0892  0.1225
  972BOLB   C4A23312  23.397  18.334   1.049  0.3263 -0.1031 -0.0786
  972BOLB   C1B23313  22.264  18.074   0.495  0.0657 -0.1395  0.2792
  972BOLB   C2B23314  22.454  18.406   0.655 -0.1290 -0.1420 -0.1078
  972BOLB   C3B23315  22.803  18.697   0.781 -0.2560 -0.3230 -0.0472
  972BOLB   C4B23316  23.163  18.872   0.898  0.1008  0.1870 -0.1150
  972BOLB   NC223317  22.917  17.340   2.804  0.1701  0.1907  0.0881
  972BOLB   PO223318  22.581  17.340   2.517 -0.1537  0.2732 -0.0714
  972BOLB   GL323319  22.893  17.757   2.475 -0.2181 -0.0318 -0.0413
  972BOLB   GL423320  23.216  17.691   2.393 -0.1365  0.0460 -0.2157
  972BOLB   C1C23321  22.980  18.198   2.206  0.3464 -0.1012 -0.0314
  972BOLB   C2C23322  22.993  18.623   2.112  0.3638 -0.4224 -0.1724
  972BOLB   C3C23323  23.228  18.547   1.762 -0.0077  0.3901  0.0518
  972BOLB   C4C23324  23.392  18.320   1.412  0.1206 -0.1682 -0.2498
  972BOLB   C1D23325  23.689  17.743   2.435 -0.2329  0.0868 -0.0587
  972BOLB   C2D23326  23.978  18.142   2.551  0.3014 -0.0851 -0.0025
  972BOLB   C3D23327  24.411  18.372   2.560  0.2875  0.0114  0.1838
  972BOLB   C4D23328  24.623  18.634   2.227  0.0725  0.0673 -0.0954
  973BOLB   NC123329  20.192  32.246  19.668 -0.0443 -0.3609 -0.1692
  973BOLB   PO123330  20.152  32.422  19.246 -0.2392  0.1586 -0.1627
  973BOLB   GL123331  19.866  32.062  19.224  0.1288  0.2968 -0.0008
  973BOLB   GL223332  19.826  31.697  19.306  0.0459  0.4006  0.0763
  973BOLB   C1A23333  19.527  32.001  18.847  0.0760  0.1015  0.0146
  973BOLB   C2A23334  19.103  31.825  18.759  0.3255  0.1786  0.0612
  973BOLB   C3A23335  18.658  31.928  18.737 -0.0042  0.0218 -0.2516
  973BOLB   C4A23336  18.322  31.803  18.500 -0.2349 -0.2020  0.3039
  973BOLB   C1B23337  19.365  31.877  19.388  0.2915 -0.0060  0.1305
  973BOLB   C2B23338  18.969  31.782  19.214 -0.4256  0.0549  0.0199
  973BOLB   C3B23339  18.541  31.989  19.218 -0.0779  0.2916  0.0740
  973BOLB   C4B23340  18.303  32.307  19.335  0.1643 -0.2591  0.1401
  973BOLB   NC223341  16.168  32.062  16.958 -0.2525 -0.1839 -0.0441
  973BOLB   PO223342  16.384  32.522  16.997  0.2478 -0.2843 -0.1897
  973BOLB   GL323343  16.756  32.352  17.303  0.1008  0.2226  0.1811
  973BOLB   GL423344  17.097  32.270  17.228 -0.1296  0.1073  0.0518
  973BOLB   C1C23345  17.006  32.234  17.766 -0.1427  0.1138 -0.1394
  973BOLB   C2C23346  17.337  32.095  17.977 -0.3831  0.2255 -0.0532
  973BOLB   C3C23347  17.544  31.893  18.143  0.0836 -0.1149 -0.0893
  973BOLB   C4C23348  17.939  31.867  18.285  0.0758  0.2742 -0.0239
  973BOLB   C1D23349  17.520  32.148  17.470 -0.1376 -0.2741 -0.0710
  973BOLB   C2D23350  17.947  32.103  17.458 -0.0930  0.2951  0.0910
  973BOLB   C3D23351  18.319  32.349  17.619  0.1900 -0.0947  0.0888
  973BOLB   C4D23352  18.639  32.628  17.684 -0.2546  0.1037 -0.0045
  974BOLB   NC123353  29.638  29.851   3.030  0.0705  0.5526 -0.0155
  974BOLB   PO123354  29.223  30.057   2.872 -0.0726 -0.1224 -0.0751
  974BOLB   GL123355  29.199  30.181   3.304 -0.1514 -0.3484 -0.0049
  974BOLB   GL223356  28.951  29.983   3.539 -0.1180  0.1048 -0.0379
  974BOLB   C1A23357  29.264  30.372   3.781 -0.0195  0.1004  0.1207
  974BOLB   C2A23358  29.464  30.403   4.176 -0.0781 -0.1831 -0.0123
  974BOLB   C3A23359  29.594  30.101   4.464 -0.0576 -0.0088  0.1111
  974BOLB   C4A23360  29.535  29.736   4.840  0.2777 -0.0344 -0.0647
  974BOLB   C1B23361  28.768  29.646   3.879 -0.0095  0.3873  0.0311
  974BOLB   C2B23362  28.695  29.780   4.147  0.0091  0.0350  0.1111
  974BOLB   C3B23363  28.424  30.029   4.319  0.2968 -0.2186  0.0407
  974BOLB   C4B23364  28.141  30.334   4.494 -0.1878 -0.2411  0.3050
  974BOLB   NC223365  30.223  29.668   7.318  0.2713  0.1010  0.0126
  974BOLB   PO223366  30.564  29.398   7.117  0.1469  0.0271  0.0140
  974BOLB   GL323367  30.431  29.246   6.670  0.3882 -0.2458 -0.0566
  974BOLB   GL423368  30.695  29.295   6.479 -0.0448  0.3045  0.0326
  974BOLB   C1C23369  30.146  29.389   6.319  0.1095  0.2724  0.2355
  974BOLB   C2C23370  29.920  29.573   5.956 -0.0083 -0.1493 -0.0056
  974BOLB   C3C23371  29.706  29.603   5.704 -0.0980  0.0612 -0.3351
  974BOLB   C4C23372  29.632  29.601   5.276 -0.3023 -0.3259  0.1776
  974BOLB   C1D23373  30.574  29.326   6.055  0.0519  0.2920  0.0710
  974BOLB   C2D23374  30.291  29.283   5.763  0.1407 -0.1892  0.0723
  974BOLB   C3D23375  30.222  29.326   5.404  0.1034 -0.0570  0.0996
  974BOLB   C4D23376  30.124  29.199   5.016 -0.0890  0.3964 -0.1492
  975BOLB   NC123377  18.793  29.638   6.602 -0.1427  0.2113  0.0216
  975BOLB   PO123378  19.242  29.805   6.489 -0.2543 -0.0001  0.3422
  975BOLB   GL123379  19.684  29.674   6.378  0.2560 -0.0075 -0.2997
  975BOLB   GL223380  19.998  29.780   6.187 -0.0461 -0.0138 -0.0833
  975BOLB   C1A23381  20.027  29.295   6.257  0.2165 -0.2429  0.0502
  975BOLB   C2A23382  20.212  29.023   5.863  0.1130  0.2923  0.0695
  975BOLB   C3A23383  20.224  28.712   5.721 -0.2411  0.1084 -0.1781
  975BOLB   C4A23384  20.264  28.786   5.312  0.0982  0.0378  0.1521
  975BOLB   C1B23385  19.972  29.549   5.786  0.2135  0.0077  0.1311
  975BOLB   C2B23386  19.814  29.178   5.534 -0.1897 -0.1949 -0.1930
  975BOLB   C3B23387  19.733  28.775   5.510  0.0756 -0.2031 -0.2234
  975BOLB   C4B23388  19.713  28.299   5.749  0.1252  0.4997  0.0889
  975BOLB   NC223389  19.202  30.580   6.253  0.0116 -0.2496  0.0245
  975BOLB   PO223390  19.497  30.772   5.969 -0.1839 -0.0350 -0.0985
  975BOLB   GL323391  19.602  30.498   5.720 -0.0913 -0.1259 -0.0838
  975BOLB   GL423392  19.562  30.733   5.449  0.0185 -0.0068  0.2129
  975BOLB   C1C23393  19.506  30.006   5.695 -0.1070 -0.2373 -0.2840
  975BOLB   C2C23394  19.551  29.730   5.398  0.0171 -0.0180 -0.1398
  975BOLB   C3C23395  19.721  29.372   5.037  0.1755  0.2483  0.2567
  975BOLB   C4C23396  19.976  29.022   4.997  0.1968 -0.0703  0.3189
  975BOLB   C1D23397  19.713  30.728   5.061 -0.0487  0.2676  0.0487
  975BOLB   C2D23398  19.960  30.736   4.740  0.2424  0.0973  0.0996
  975BOLB   C3D23399  20.390  30.971   4.557  0.1561 -0.1604 -0.3921
  975BOLB   C4D23400  20.710  30.867   4.244  0.1568  0.0255  0.1931
  976BOLB   NC123401  31.977  23.038  25.095 -0.2514  0.5937 -0.1175
  976BOLB   PO123402  31.568  22.915  24.949 -0.1801  0.0248  0.0702
  976BOLB   GL123403  31.646  22.569  25.053 -0.2500 -0.2302 -0.3791
  976BOLB   GL223404  31.651  22.347  24.741 -0.0046 -0.1894 -0.3226
  976BOLB   C1A23405  31.854  22.270  25.318  0.6508 -0.3830  0.2162
  976BOLB   C2A23406  31.967  21.724  25.185  0.0925  0.2064  0.0887
  976BOLB   C3A23407  32.011  21.222  25.220  0.1848  0.0030 -0.1207
  976BOLB   C4A23408  32.088  20.882  25.507 -0.1895 -0.0216 -0.2097
  976BOLB   C1B23409  31.501  21.989  24.978 -0.0821 -0.0558  0.0797
  976BOLB   C2B23410  31.437  21.585  25.315  0.0912  0.1629  0.1475
  976BOLB   C3B23411  31.639  21.287  25.699  0.0062 -0.0756  0.1609
  976BOLB   C4B23412  31.765  21.509  26.107 -0.0556  0.1992  0.0208
  976BOLB   NC223413  34.171  20.087  26.785 -0.0539 -0.1361 -0.0166
  976BOLB   PO223414  33.905  19.937  26.594  0.1499  0.2465  0.1402
  976BOLB   GL323415  33.700  20.279  26.650  0.1105  0.1824 -0.0804
  976BOLB   GL423416  33.957  20.494  26.437 -0.0953 -0.3646 -0.1428
  976BOLB   C1C23417  33.341  20.426  26.405 -0.2293 -0.1487 -0.0968
  976BOLB   C2C23418  33.159  20.607  26.035  0.0323 -0.2136  0.1662
  976BOLB   C3C23419  32.783  20.696  25.799 -0.1561  0.0230  0.1000
  976BOLB   C4C23420  32.415  20.742  25.680  0.1016  0.0200  0.4549
  976BOLB   C1D23421  33.705  20.535  26.068  0.1880 -0.1230 -0.2641
  976BOLB   C2D23422  33.462  20.290  25.722  0.3959 -0.1088  0.1570
  976BOLB   C3D23423  33.117  20.487  25.533  0.0971  0.0766  0.1388
  976BOLB   C4D23424  32.911  20.914  25.329  0.0085 -0.0995 -0.1216
  977BOLB   NC123425  13.211  24.242  21.872  0.2050 -0.0411 -0.2193
  977BOLB   PO123426  13.349  24.613  22.110 -0.1067 -0.0381  0.0955
  977BOLB   GL123427  13.654  24.946  21.923  0.0807  0.3121 -0.1145
  977BOLB   GL223428  13.681  24.997  21.557  0.1669 -0.0988 -0.4591
  977BOLB   C1A23429  13.811  25.314  22.057  0.0902 -0.1970 -0.0672
  977BOLB   C2A23430  13.941  25.709  22.044  0.2359 -0.1587  0.2869
  977BOLB   C3A23431  13.703  26.125  21.941 -0.1750 -0.0374 -0.2754
  977BOLB   C4A23432  13.715  26.507  22.030  0.0767  0.2423  0.1142
  977BOLB   C1B23433  13.990  24.658  21.581 -0.1656  0.3769  0.0795
  977BOLB   C2B23434  14.413  24.594  21.813  0.0696 -0.3881 -0.5010
  977BOLB   C3B23435  14.813  24.548  21.905 -0.2709  0.0574 -0.1802
  977BOLB   C4B23436  15.174  24.364  21.897 -0.2725 -0.2909  0.1895
  977BOLB   NC223437  13.106  28.216  21.667  0.3166  0.1823  0.1249
  977BOLB   PO223438  12.816  28.273  22.077  0.1244  0.0168 -0.2065
  977BOLB   GL323439  13.218  28.305  22.136  0.0183 -0.1285  0.2859
  977BOLB   GL423440  13.178  28.119  22.449  0.0143 -0.2058 -0.1033
  977BOLB   C1C23441  13.537  28.040  22.070  0.0451 -0.2862 -0.1927
  977BOLB   C2C23442  13.702  27.665  22.211 -0.1154 -0.0646 -0.0848
  977BOLB   C3C23443  13.737  27.294  22.432 -0.1306  0.1639 -0.2336
  977BOLB   C4C23444  13.747  26.879  22.275  0.5690 -0.0898 -0.2732
  977BOLB   C1D23445  13.621  28.053  22.531  0.1802  0.2141 -0.0069
  977BOLB   C2D23446  14.086  27.941  22.410  0.0925 -0.3589  0.0528
  977BOLB   C3D23447  14.368  28.178  22.368 -0.1564 -0.0773  0.3979
  977BOLB   C4D23448  14.640  28.153  22.162 -0.0415 -0.1136 -0.1689
  978BOLB   NC123449  19.916  30.890  21.523  0.1457 -0.1302 -0.4820
  978BOLB   PO123450  19.651  30.900  21.885 -0.2193 -0.0035  0.2345
  978BOLB   GL123451  19.331  30.668  21.800  0.1467  0.4328 -0.1839
  978BOLB   GL223452  19.212  30.619  22.012 -0.0463 -0.0492 -0.2865
  978BOLB   C1A23453  18.779  30.631  21.596 -0.0292  0.0657  0.0244
  978BOLB   C2A23454  18.372  30.770  21.557 -0.0861 -0.1286  0.1231
  978BOLB   C3A23455  17.937  30.570  21.565 -0.2222  0.0667 -0.1620
  978BOLB   C4A23456  17.603  30.758  21.606 -0.1090 -0.1717  0.1115
  978BOLB   C1B23457  18.986  30.410  22.373 -0.0502 -0.1608 -0.3287
  978BOLB   C2B23458  18.690  30.276  22.430 -0.0342  0.3552  0.0683
  978BOLB   C3B23459  18.270  30.339  22.442 -0.0888  0.1714 -0.0285
  978BOLB   C4B23460  17.973  30.083  22.372  0.2024 -0.0526  0.2765
  978BOLB   NC223461  15.512  31.810  21.202  0.1858  0.0392  0.0738
  978BOLB   PO223462  15.594  31.843  21.745  0.2173  0.1035  0.1112
  978BOLB   GL323463  15.982  31.683  21.806 -0.0525 -0.2376  0.3957
  978BOLB   GL423464  15.985  31.572  21.568 -0.1834 -0.0061 -0.0714
  978BOLB   C1C23465  16.306  31.401  21.887  0.0601 -0.0542 -0.2668
  978BOLB   C2C23466  16.567  31.081  21.919 -0.3164  0.0115  0.3858
  978BOLB   C3C23467  16.841  31.045  21.608  0.0237  0.1695  0.1736
  978BOLB   C4C23468  17.211  30.908  21.452 -0.1732  0.1019  0.5391
  978BOLB   C1D23469  16.253  31.190  21.357 -0.2850  0.1880  0.1228
  978BOLB   C2D23470  16.359  30.828  21.503 -0.0120 -0.0920  0.3359
  978BOLB   C3D23471  16.415  30.557  21.911 -0.0872  0.3873  0.1538
  978BOLB   C4D23472  16.172  30.259  22.097 -0.2523 -0.3552  0.0488
  979BOLB   NC123473  20.785  18.787  16.187 -0.0386  0.0833 -0.1011
  979BOLB   PO123474  20.556  18.615  16.618  0.0540 -0.2476  0.0722
  979BOLB   GL123475  20.294  18.773  16.919  0.2471 -0.3403  0.0661
  979BOLB   GL223476  20.063  18.963  17.039  0.2998  0.2645  0.0483
  979BOLB   C1A23477  20.537  19.190  17.154  0.0618  0.1575 -0.0120
  979BOLB   C2A23478  20.999  19.188  17.344 -0.2953 -0.0621 -0.0796
  979BOLB   C3A23479  21.435  19.047  17.089  0.1451  0.0022 -0.0784
  979BOLB   C4A23480  21.773  18.988  17.194  0.2256 -0.1772  0.1994
  979BOLB   C1B23481  20.112  18.794  17.389  0.0554  0.3158 -0.1356
  979BOLB   C2B23482  19.871  18.404  17.622 -0.0990 -0.0398 -0.3528
  979BOLB   C3B23483  19.629  18.554  18.018  0.0949 -0.4322 -0.0021
  979BOLB   C4B23484  19.480  18.579  18.391  0.1892 -0.0552 -0.0822
  979BOLB   NC223485  21.186  17.258  18.415 -0.1215  0.0172  0.0448
  979BOLB   PO223486  21.497  17.441  18.162  0.1326  0.1749 -0.2302
  979BOLB   GL323487  21.397  17.876  18.077 -0.0937  0.0067  0.0525
  979BOLB   GL423488  21.405  17.885  18.405 -0.0466 -0.2321  0.2875
  979BOLB   C1C23489  21.766  18.212  17.849  0.0152 -0.0558  0.5022
  979BOLB   C2C23490  22.215  18.354  17.832  0.0905  0.2677  0.0471
  979BOLB   C3C23491  22.355  18.715  17.550 -0.2671 -0.1797 -0.0419
  979BOLB   C4C23492  22.087  18.982  17.347 -0.0981 -0.1658 -0.3011
  979BOLB   C1D23493  20.974  18.107  18.546  0.0178 -0.1139 -0.0725
  979BOLB   C2D23494  20.538  17.938  18.347  0.1027 -0.1320  0.0308
  979BOLB   C3D23495  19.998  17.992  18.506 -0.3369 -0.0452  0.1986
  979BOLB   C4D23496  19.609  18.130  18.323 -0.2386  0.1877  0.3022
  980BOLB   NC123497  22.431  25.323  17.776 -0.2042 -0.1621  0.3341
  980BOLB   PO123498  22.232  25.368  17.422 -0.2006  0.1099 -0.0169
  980BOLB   GL123499  22.005  25.069  17.367  0.0748  0.2045 -0.4111
  980BOLB   GL223500  21.927  24.764  17.598 -0.2967 -0.1060 -0.2806
  980BOLB   C1A23501  21.699  24.868  17.117 -0.2132  0.1014  0.1991
  980BOLB   C2A23502  21.514  24.726  16.765 -0.0896  0.0565 -0.0983
  980BOLB   C3A23503  21.345  24.932  16.394  0.0728 -0.1529  0.1991
  980BOLB   C4A23504  20.930  24.990  16.316  0.1244  0.1638 -0.0738
  980BOLB   C1B23505  21.415  24.737  17.645 -0.0672  0.1552  0.0303
  980BOLB   C2B23506  21.030  24.866  17.837  0.1182 -0.3340 -0.3068
  980BOLB   C3B23507  20.698  25.134  17.934  0.2869  0.1083 -0.0164
  980BOLB   C4B23508  20.369  25.277  18.108  0.0543 -0.2642  0.4519
  980BOLB   NC223509  19.560  23.999  14.629  0.4526 -0.0672  0.0420
  980BOLB   PO223510  19.298  24.346  14.782  0.2490  0.0172 -0.1466
  980BOLB   GL323511  19.513  24.439  15.146  0.0777 -0.3874  0.1147
  980BOLB   GL423512  19.373  24.282  15.375 -0.2234  0.0621 -0.3784
  980BOLB   C1C23513  19.721  24.468  15.628 -0.0059  0.2493  0.3456
  980BOLB   C2C23514  19.789  24.697  15.931  0.1409  0.1135 -0.2764
  980BOLB   C3C23515  20.193  24.792  15.967  0.0148 -0.0014 -0.0334
  980BOLB   C4C23516  20.474  24.868  16.325 -0.0135  0.1419  0.1225
  980BOLB   C1D23517  19.447  23.887  15.591 -0.1640 -0.3080  0.3082
  980BOLB   C2D23518  19.601  23.827  16.077 -0.2417  0.0890  0.1154
  980BOLB   C3D23519  19.679  23.846  16.469  0.1759 -0.1448  0.2383
  980BOLB   C4D23520  19.642  23.589  16.824 -0.1021  0.2528  0.0118
  981BOLB   NC123521  30.290  17.602  22.855  0.3919  0.2481 -0.1227
  981BOLB   PO123522  30.205  17.745  23.373 -0.0524  0.1605 -0.0095
  981BOLB   GL123523  30.127  18.203  23.351  0.1823  0.2337 -0.1251
  981BOLB   GL223524  30.260  18.216  23.676 -0.2353 -0.2459  0.0788
  981BOLB   C1A23525  30.069  18.684  23.313 -0.3208 -0.0081 -0.2142
  981BOLB   C2A23526  30.220  19.150  23.417  0.1614 -0.1769 -0.0987
  981BOLB   C3A23527  30.354  19.584  23.303  0.0092  0.4471 -0.0490
  981BOLB   C4A23528  30.497  19.802  23.608  0.2808 -0.0458 -0.0242
  981BOLB   C1B23529  29.994  18.462  23.854 -0.1113  0.0220 -0.3069
  981BOLB   C2B23530  29.926  18.901  23.726 -0.4808  0.2797 -0.1746
  981BOLB   C3B23531  29.750  19.269  23.442 -0.3410 -0.1240  0.3711
  981BOLB   C4B23532  29.893  19.699  23.481  0.4150 -0.1912  0.1345
  981BOLB   NC223533  31.948  18.650  24.766 -0.0389 -0.1468  0.2460
  981BOLB   PO223534  31.746  18.800  25.270 -0.3778 -0.1533 -0.0660
  981BOLB   GL323535  31.457  18.893  25.068  0.3159 -0.0946  0.1110
  981BOLB   GL423536  31.167  18.830  25.221 -0.2069 -0.1692 -0.2189
  981BOLB   C1C23537  31.280  19.238  24.844  0.2562  0.1236 -0.3188
  981BOLB   C2C23538  30.970  19.447  24.634 -0.3475  0.2365  0.0293
  981BOLB   C3C23539  30.850  19.792  24.470  0.2115  0.0760  0.1024
  981BOLB   C4C23540  30.600  19.871  24.061  0.1079 -0.1993  0.0992
  981BOLB   C1D23541  30.887  19.047  25.138 -0.1209  0.0442 -0.4095
  981BOLB   C2D23542  30.569  19.256  24.899  0.0242 -0.0404  0.1374
  981BOLB   C3D23543  30.407  19.673  24.838  0.1301 -0.6018 -0.1460
  981BOLB   C4D23544  29.964  19.904  24.833  0.0949  0.0849 -0.1557
  982BOLB   NC123545  12.846  26.287  24.107 -0.0246 -0.0976 -0.0421
  982BOLB   PO123546  13.077  26.615  24.391  0.2852  0.0009 -0.0144
  982BOLB   GL123547  13.426  26.800  24.231  0.0853  0.1509 -0.1204
  982BOLB   GL223548  13.604  26.736  24.595 -0.1066 -0.2549  0.3544
  982BOLB   C1A23549  13.599  26.924  23.835  0.0114 -0.1254  0.0876
  982BOLB   C2A23550  14.037  26.990  23.552 -0.1322  0.2646 -0.1967
  982BOLB   C3A23551  14.386  27.016  23.686  0.1353  0.0593  0.0633
  982BOLB   C4A23552  14.606  27.348  23.438  0.1797 -0.3333 -0.0021
  982BOLB   C1B23553  14.050  26.849  24.757 -0.0083 -0.2849 -0.1206
  982BOLB   C2B23554  14.262  27.122  25.016  0.1302 -0.1417 -0.2170
  982BOLB   C3B23555  14.464  27.267  25.377  0.2776 -0.4661 -0.1480
  982BOLB   C4B23556  14.396  27.660  25.552 -0.0275  0.2126  0.1890
  982BOLB   NC223557  13.177  28.666  23.796 -0.2577  0.3489  0.0448
  982BOLB   PO223558  13.412  28.870  24.078  0.0592 -0.2026  0.0067
  982BOLB   GL323559  13.747  28.809  23.950 -0.1113 -0.0081 -0.3457
  982BOLB   GL423560  13.776  28.471  24.089  0.1367  0.0590 -0.1345
  982BOLB   C1C23561  14.086  28.630  23.638  0.2178 -0.0268  0.0940
  982BOLB   C2C23562  14.284  28.368  23.362  0.1184  0.2491  0.3098
  982BOLB   C3C23563  14.687  28.170  23.251 -0.0331  0.3093 -0.1795
  982BOLB   C4C23564  14.798  27.697  23.328 -0.1764 -0.0383  0.1558
  982BOLB   C1D23565  14.104  28.245  23.921  0.2372  0.2308 -0.0570
  982BOLB   C2D23566  14.452  28.100  24.101 -0.2268  0.0582 -0.3487
  982BOLB   C3D23567  14.852  28.046  24.385  0.1160 -0.1578  0.1905
  982BOLB   C4D23568  15.191  28.218  24.189 -0.0148 -0.1774  0.0537
  983BOLB   NC123569  26.833  33.095  14.729 -0.0330  0.1822 -0.1079
  983BOLB   PO123570  27.071  33.233  14.342  0.0592 -0.2904 -0.0729
  983BOLB   GL123571  26.943  33.475  13.982 -0.1912  0.0384 -0.0792
  983BOLB   GL223572  27.236  33.623  13.782 -0.0661 -0.4358 -0.1163
  983BOLB   C1A23573  26.759  33.764  13.683  0.2259 -0.0176  0.1302
  983BOLB   C2A23574  26.676  34.013  13.372  0.1067 -0.1885  0.1101
  983BOLB   C3A23575  26.998  34.099  13.107  0.0397 -0.0528 -0.2516
  983BOLB   C4A23576  26.927  34.104  12.581  0.1790  0.0790 -0.2339
  983BOLB   C1B23577  27.275  33.659  13.417  0.2969  0.2333 -0.0827
  983BOLB   C2B23578  27.466  33.822  13.156 -0.0611  0.2676  0.1964
  983BOLB   C3B23579  27.786  33.997  12.985  0.0033 -0.4457 -0.0542
  983BOLB   C4B23580  27.886  34.321  12.583 -0.0839 -0.1805  0.1129
  983BOLB   NC223581  26.365  34.781  10.446 -0.0800  0.2613 -0.0242
  983BOLB   PO223582  26.528  34.441  10.284 -0.1605  0.2456  0.1788
  983BOLB   GL323583  26.598  34.269  10.730 -0.2175  0.0375 -0.1671
  983BOLB   GL423584  26.365  34.205  10.998 -0.1394  0.3479 -0.1845
  983BOLB   C1C23585  26.888  34.341  11.080  0.0165  0.2468  0.2961
  983BOLB   C2C23586  27.045  34.333  11.469  0.3435 -0.2110 -0.3980
  983BOLB   C3C23587  26.951  33.921  11.732  0.1178 -0.0624  0.0802
  983BOLB   C4C23588  26.985  33.881  12.096 -0.1240  0.1737 -0.2071
  983BOLB   C1D23589  26.547  33.850  11.127  0.0366  0.0370 -0.2242
  983BOLB   C2D23590  27.010  33.891  11.227 -0.0290 -0.1274 -0.2362
  983BOLB   C3D23591  27.439  34.051  11.413 -0.0197 -0.1758  0.0858
  983BOLB   C4D23592  27.821  34.178  11.607  0.1765  0.0138 -0.0738
  984BOLB   NC123593  13.236  24.606  22.736 -0.3085 -0.2630 -0.3056
  984BOLB   PO123594  13.377  24.105  22.796 -0.0160  0.0188  0.2663
  984BOLB   GL123595  13.827  24.324  22.985 -0.0315  0.0690 -0.0041
  984BOLB   GL223596  13.886  24.747  22.826 -0.0206  0.1321  0.0016
  984BOLB   C1A23597  13.952  24.581  23.299 -0.0970  0.1802 -0.0867
  984BOLB   C2A23598  14.216  24.913  23.245 -0.1750 -0.0916 -0.1955
  984BOLB   C3A23599  14.464  25.148  22.845 -0.1287 -0.1858 -0.0135
  984BOLB   C4A23600  14.693  25.550  22.552 -0.0855  0.2083 -0.1001
  984BOLB   C1B23601  14.298  24.754  22.606  0.2018  0.0207  0.1709
  984BOLB   C2B23602  14.554  24.901  22.252 -0.0410  0.2175 -0.0937
  984BOLB   C3B23603  14.375  25.374  22.081 -0.0087  0.0147 -0.2384
  984BOLB   C4B23604  14.398  25.827  22.104 -0.1505  0.0646  0.3311
  984BOLB   NC223605  13.360  25.392  21.435  0.1920 -0.2806  0.0467
  984BOLB   PO223606  13.158  25.743  21.470  0.0360  0.1544 -0.0573
  984BOLB   GL323607  13.598  25.929  21.359  0.1978  0.1849 -0.0466
  984BOLB   GL423608  13.799  25.631  21.530  0.1392 -0.0858 -0.2587
  984BOLB   C1C23609  13.962  26.097  21.459  0.1642  0.3037 -0.1650
  984BOLB   C2C23610  14.370  26.164  21.632 -0.2125  0.4992 -0.2194
  984BOLB   C3C23611  14.819  26.006  21.863  0.0504 -0.0272 -0.0264
  984BOLB   C4C23612  14.973  25.648  22.221  0.0619 -0.1268  0.0766
  984BOLB   C1D23613  14.254  25.644  21.551  0.1087 -0.4059 -0.1040
  984BOLB   C2D23614  14.662  25.652  21.336  0.0658 -0.2663  0.2252
  984BOLB   C3D23615  15.019  25.835  21.249  0.0491 -0.0446  0.1038
  984BOLB   C4D23616  15.483  25.733  21.023 -0.2233 -0.2296 -0.0104
  985BOLB   NC123617  25.035  22.726  12.505 -0.1264  0.0762  0.1594
  985BOLB   PO123618  25.191  22.799  12.102  0.2344 -0.1459 -0.2555
  985BOLB   GL123619  25.557  23.040  12.286  0.0734  0.0593 -0.2034
  985BOLB   GL223620  25.785  23.285  12.198  0.0619 -0.0707  0.1016
  985BOLB   C1A23621  25.600  23.301  12.663  0.1130 -0.2900  0.1601
  985BOLB   C2A23622  25.527  23.401  13.108  0.0207 -0.1272 -0.2664
  985BOLB   C3A23623  25.166  23.450  13.427 -0.1344 -0.0789  0.0403
  985BOLB   C4A23624  24.848  23.691  13.758  0.1089 -0.2693  0.1800
  985BOLB   C1B23625  25.773  23.681  12.323  0.2292  0.0892  0.2967
  985BOLB   C2B23626  25.910  23.918  12.746 -0.2320  0.0849  0.0792
  985BOLB   C3B23627  26.067  24.207  13.059  0.0454  0.0231 -0.2931
  985BOLB   C4B23628  26.089  24.264  13.450 -0.1701  0.2563 -0.2087
  985BOLB   NC223629  23.730  23.355  12.022  0.0257  0.0480  0.3173
  985BOLB   PO223630  23.385  23.463  12.167  0.0755  0.3776 -0.1647
  985BOLB   GL323631  23.552  23.501  12.537 -0.1977  0.2658 -0.0753
  985BOLB   GL423632  23.666  23.263  12.548 -0.1265  0.1006 -0.0276
  985BOLB   C1C23633  23.596  23.759  12.875 -0.1309 -0.1807  0.0175
  985BOLB   C2C23634  23.819  23.706  13.198  0.1125 -0.2218  0.2295
  985BOLB   C3C23635  24.097  23.887  13.417  0.0288 -0.1465 -0.0339
  985BOLB   C4C23636  24.498  23.756  13.475  0.1824  0.2563 -0.2713
  985BOLB   C1D23637  24.020  23.509  12.661 -0.1701 -0.0569  0.0080
  985BOLB   C2D23638  24.222  23.448  13.099 -0.0724  0.1479  0.2472
  985BOLB   C3D23639  24.468  23.243  13.307 -0.0346  0.3253  0.0271
  985BOLB   C4D23640  24.732  23.161  13.637  0.1381 -0.1917 -0.3003
  986BOLB   NC123641  25.229  24.583  16.304 -0.0152 -0.4330  0.0034
  986BOLB   PO123642  25.090  24.191  16.526  0.0670  0.0031 -0.0002
  986BOLB   GL123643  24.974  23.873  16.336 -0.1011 -0.0402 -0.0602
  986BOLB   GL223644  24.672  23.676  16.297  0.2713 -0.0601  0.0027
  986BOLB   C1A23645  25.027  23.616  15.973 -0.1669  0.2562 -0.0345
  986BOLB   C2A23646  24.961  23.232  15.735  0.3501 -0.1878  0.1608
  986BOLB   C3A23647  24.966  23.250  15.266  0.2118  0.1919 -0.3809
  986BOLB   C4A23648  25.035  23.048  15.011 -0.2215 -0.0861 -0.1232
  986BOLB   C1B23649  24.603  23.386  16.042 -0.1454  0.0289 -0.1941
  986BOLB   C2B23650  24.470  23.035  15.870 -0.2477 -0.1257 -0.1007
  986BOLB   C3B23651  24.121  22.854  15.658  0.0175  0.0051 -0.0453
  986BOLB   C4B23652  23.740  22.924  15.423  0.1533  0.1564  0.0804
  986BOLB   NC223653  24.731  20.214  13.567 -0.0186 -0.1781  0.4151
  986BOLB   PO223654  24.633  20.635  13.546  0.3400 -0.0268 -0.1094
  986BOLB   GL323655  24.751  21.038  13.841  0.0050 -0.0533  0.1981
  986BOLB   GL423656  24.725  21.009  14.076 -0.1875 -0.2273 -0.1463
  986BOLB   C1C23657  25.034  21.447  14.035  0.3422  0.2357 -0.2765
  986BOLB   C2C23658  25.124  21.804  14.369 -0.1911  0.0482  0.1937
  986BOLB   C3C23659  25.335  22.260  14.651 -0.1323 -0.3734 -0.0928
  986BOLB   C4C23660  25.222  22.626  14.890 -0.8144  0.1162 -0.4190
  986BOLB   C1D23661  25.205  20.873  14.155 -0.1002  0.2827  0.3341
  986BOLB   C2D23662  25.502  20.842  14.572 -0.0118  0.0301  0.2300
  986BOLB   C3D23663  25.551  20.509  14.871  0.0451 -0.1221 -0.1743
  986BOLB   C4D23664  25.767  20.734  15.196  0.1261  0.0634  0.2140
  987BOLB   NC123665  34.273  26.190  19.431 -0.3125 -0.1916 -0.1409
  987BOLB   PO123666  34.362  26.168  19.865  0.1596  0.0428 -0.3207
  987BOLB   GL123667  34.767  26.054  19.636  0.0652  0.0010 -0.2505
  987BOLB   GL223668  34.955  25.917  19.762 -0.0358  0.2101 -0.0997
  987BOLB   C1A23669  34.940  25.924  19.210  0.0615  0.4040  0.3570
  987BOLB   C2A23670  35.261  25.745  18.867 -0.2473  0.2188  0.1505
  987BOLB   C3A23671  35.461  25.380  18.721 -0.1503  0.0236  0.1145
  987BOLB   C4A23672  35.671  25.032  18.467 -0.0382  0.4079 -0.2045
  987BOLB   C1B23673  35.311  25.574  19.837 -0.0205  0.0573 -0.0982
  987BOLB   C2B23674  35.642  25.465  19.560 -0.3396  0.0412  0.1703
  987BOLB   C3B23675  35.968  25.316  19.305 -0.0284 -0.1555 -0.1504
  987BOLB   C4B23676  36.223  25.323  18.921 -0.0543 -0.1278 -0.0803
  987BOLB   NC223677  38.291  23.747  18.072  0.1387  0.4439 -0.1991
  987BOLB   PO223678  37.823  23.702  18.081  0.0631  0.0033  0.0320
  987BOLB   GL323679  37.370  23.774  18.017  0.3168  0.3994 -0.0374
  987BOLB   GL423680  37.474  24.112  18.089  0.3338 -0.1455  0.2029
  987BOLB   C1C23681  36.995  23.961  18.107  0.0857 -0.0408 -0.0065
  987BOLB   C2C23682  36.532  24.046  18.366  0.2927  0.1548  0.1645
  987BOLB   C3C23683  36.145  24.255  18.443 -0.2956 -0.1661  0.0957
  987BOLB   C4C23684  35.864  24.682  18.591  0.2683 -0.0602 -0.1633
  987BOLB   C1D23685  37.151  24.163  18.476 -0.3424  0.1285  0.2450
  987BOLB   C2D23686  36.972  23.976  18.717 -0.0629  0.2086 -0.1237
  987BOLB   C3D23687  36.665  23.772  18.715 -0.2038 -0.0714  0.2192
  987BOLB   C4D23688  36.217  23.873  18.854 -0.0534 -0.1546 -0.1350
  988BOLB   NC123689  16.752  19.066  18.489  0.0884 -0.0364 -0.1743
  988BOLB   PO123690  16.740  19.443  18.781  0.4053 -0.1574  0.2403
  988BOLB   GL123691  17.156  19.671  18.836 -0.0979  0.4289  0.3716
  988BOLB   GL223692  17.504  19.520  18.794  0.1112  0.2055  0.4091
  988BOLB   C1A23693  17.568  19.981  18.939  0.2030  0.0714 -0.1470
  988BOLB   C2A23694  17.783  20.231  19.178  0.2273  0.2198 -0.1558
  988BOLB   C3A23695  17.528  20.522  19.279  0.1590  0.2014  0.4917
  988BOLB   C4A23696  17.319  20.744  19.456 -0.0721  0.3008 -0.0633
  988BOLB   C1B23697  17.447  19.755  18.451  0.1011 -0.4484  0.0880
  988BOLB   C2B23698  17.758  19.977  18.254  0.0025  0.2943  0.0528
  988BOLB   C3B23699  18.136  20.025  18.197  0.0572 -0.3331 -0.3176
  988BOLB   C4B23700  18.246  20.383  17.903 -0.0469 -0.2711  0.1111
  988BOLB   NC223701  15.695  20.351  18.816  0.0265  0.0851  0.1615
  988BOLB   PO223702  15.433  20.627  18.582 -0.0282 -0.1471 -0.1514
  988BOLB   GL323703  15.715  20.892  18.809 -0.1950  0.1424 -0.1633
  988BOLB   GL423704  16.081  20.695  18.727  0.2188 -0.1709 -0.1943
  988BOLB   C1C23705  15.908  21.063  19.075  0.2345 -0.2814  0.2218
  988BOLB   C2C23706  16.332  20.907  19.155 -0.1261 -0.1007  0.2619
  988BOLB   C3C23707  16.701  21.151  19.214 -0.2426  0.0851  0.0798
  988BOLB   C4C23708  17.174  21.146  19.262  0.2846  0.0389  0.0102
  988BOLB   C1D23709  16.518  20.798  18.638  0.2941  0.1578 -0.1279
  988BOLB   C2D23710  16.771  21.126  18.699  0.2398  0.3376  0.0778
  988BOLB   C3D23711  16.850  21.491  18.851 -0.2228  0.2409  0.1049
  988BOLB   C4D23712  17.104  21.886  18.856 -0.1458  0.0268  0.1953
  989BOLB   NC123713  35.073  31.422  18.376  0.0879 -0.1425 -0.0283
  989BOLB   PO123714  35.307  31.843  18.359 -0.0211 -0.1056  0.1261
  989BOLB   GL123715  35.534  31.904  17.997  0.0257 -0.0901  0.5511
  989BOLB   GL223716  35.296  31.757  17.836 -0.2937  0.1868 -0.2322
  989BOLB   C1A23717  35.934  32.167  17.869  0.2616 -0.2644 -0.0852
  989BOLB   C2A23718  36.168  32.576  17.954  0.2298  0.0886 -0.0683
  989BOLB   C3A23719  36.406  32.900  17.716  0.0609  0.0106  0.3773
  989BOLB   C4A23720  36.680  33.219  17.809 -0.0496 -0.0581  0.0100
  989BOLB   C1B23721  35.688  31.545  17.628  0.0672  0.0578  0.0208
  989BOLB   C2B23722  36.034  31.285  17.243 -0.1894  0.0019 -0.0881
  989BOLB   C3B23723  36.440  31.164  17.112  0.1135  0.1388  0.1248
  989BOLB   C4B23724  36.778  31.364  17.029  0.0878 -0.1201  0.0702
  989BOLB   NC223725  38.803  34.265  18.108  0.1104 -0.1827 -0.1615
  989BOLB   PO223726  38.590  34.488  17.743  0.0132  0.1609 -0.2216
  989BOLB   GL323727  38.145  34.410  17.809 -0.1367 -0.0500 -0.3406
  989BOLB   GL423728  38.219  34.106  17.647  0.2970 -0.1739 -0.2987
  989BOLB   C1C23729  37.740  34.352  17.605 -0.0576 -0.1551 -0.1924
  989BOLB   C2C23730  37.348  34.219  17.596  0.1939  0.0145  0.0117
  989BOLB   C3C23731  37.083  33.868  17.701 -0.0271 -0.0777 -0.0130
  989BOLB   C4C23732  37.055  33.478  17.646 -0.0132 -0.1713 -0.0076
  989BOLB   C1D23733  37.888  33.895  17.945  0.4516 -0.1168  0.0229
  989BOLB   C2D23734  37.798  34.162  18.201  0.3096  0.0238  0.1782
  989BOLB   C3D23735  37.746  34.496  18.189  0.1657 -0.1165 -0.1943
  989BOLB   C4D23736  37.779  34.895  18.093  0.0384  0.3629 -0.1104
  990BOLB   NC123737  32.157  36.176  24.671  0.2893  0.0717 -0.1150
  990BOLB   PO123738  31.919  36.412  25.064 -0.0448  0.2109 -0.1102
  990BOLB   GL123739  31.939  36.740  25.102 -0.1489 -0.1010  0.0997
  990BOLB   GL223740  31.869  37.019  24.795  0.0220  0.0061  0.3508
  990BOLB   C1A23741  32.261  36.952  25.249 -0.2279  0.0654 -0.0286
  990BOLB   C2A23742  32.420  37.134  25.566  0.4468  0.1558 -0.1411
  990BOLB   C3A23743  32.717  37.359  25.887  0.1632  0.2515 -0.0956
  990BOLB   C4A23744  33.052  37.645  26.204 -0.1542 -0.0754  0.1379
  990BOLB   C1B23745  32.105  37.298  24.536  0.1694 -0.1272  0.1601
  990BOLB   C2B23746  32.325  37.643  24.788 -0.1734 -0.2586 -0.0721
  990BOLB   C3B23747  32.478  38.016  24.958  0.0019  0.0847  0.2452
  990BOLB   C4B23748  32.653  38.437  24.918  0.1321 -0.0555  0.0098
  990BOLB   NC223749  33.487  39.028   1.404 -0.1083  0.1490  0.0477
  990BOLB   PO223750  33.063  39.037   1.292  0.0908 -0.0475 -0.2058
  990BOLB   GL323751  32.924  38.675   1.074  0.2417 -0.4406  0.0991
  990BOLB   GL423752  33.089  38.301   0.995  0.1425 -0.0306  0.1613
  990BOLB   C1C23753  32.876  38.570   0.620 -0.2891  0.1668  0.5704
  990BOLB   C2C23754  32.801  38.296   0.143 -0.0112 -0.0032 -0.0761
  990BOLB   C3C23755  32.983  38.171  26.719  0.0108 -0.2213  0.0389
  990BOLB   C4C23756  33.194  37.941  26.492 -0.2254  0.1789  0.0403
  990BOLB   C1D23757  33.138  38.049   0.654  0.0495  0.2673  0.1648
  990BOLB   C2D23758  33.140  37.627   0.537  0.2091  0.1558  0.2845
  990BOLB   C3D23759  32.875  37.802   0.284 -0.2252 -0.2318 -0.1540
  990BOLB   C4D23760  32.896  37.643  26.724 -0.1231 -0.3101  0.0683
  991BOLB   NC123761  34.604  28.613  17.021 -0.3338  0.0215 -0.1659
  991BOLB   PO123762  34.831  28.266  17.351 -0.1581 -0.1050  0.1158
  991BOLB   GL123763  35.194  28.196  17.028  0.1077 -0.3661  0.2010
  991BOLB   GL223764  35.226  27.854  16.900  0.0170  0.2702  0.2607
  991BOLB   C1A23765  35.579  28.469  16.895  0.2427 -0.0532 -0.2767
  991BOLB   C2A23766  35.939  28.689  17.026 -0.3247 -0.0956 -0.2425
  991BOLB   C3A23767  36.231  28.930  16.824 -0.2325  0.0618 -0.0930
  991BOLB   C4A23768  36.517  29.005  16.461  0.2067  0.2654 -0.0147
  991BOLB   C1B23769  35.672  27.966  16.927 -0.0703 -0.1602  0.0375
  991BOLB   C2B23770  36.036  28.200  16.797 -0.1920  0.0496  0.0822
  991BOLB   C3B23771  36.354  28.475  16.674  0.0824  0.0444 -0.0466
  991BOLB   C4B23772  36.842  28.501  16.802  0.0651 -0.1899 -0.3287
  991BOLB   NC223773  38.996  29.835  16.098  0.2219  0.2633  0.0737
  991BOLB   PO223774  38.836  30.348  16.128  0.0881  0.3576 -0.2751
  991BOLB   GL323775  38.317  30.263  16.132  0.0846  0.2508 -0.1675
  991BOLB   GL423776  38.121  30.482  15.938 -0.0709 -0.0520 -0.0408
  991BOLB   C1C23777  37.811  30.074  16.096  0.2343  0.3952 -0.0741
  991BOLB   C2C23778  37.430  29.686  16.141 -0.0652  0.1880  0.1521
  991BOLB   C3C23779  37.205  29.197  16.103 -0.1937  0.0605 -0.3264
  991BOLB   C4C23780  36.853  28.968  16.275 -0.1439  0.1054 -0.1317
  991BOLB   C1D23781  37.872  30.809  15.965  0.4617 -0.3249  0.2030
  991BOLB   C2D23782  37.831  31.106  15.616 -0.1340 -0.2521  0.0809
  991BOLB   C3D23783  37.677  31.542  15.637 -0.1271 -0.3185 -0.1897
  991BOLB   C4D23784  37.489  31.792  15.559  0.1341  0.2288  0.1876
  992BOLB   NC123785  30.595  36.784  24.718 -0.0477 -0.0837 -0.0323
  992BOLB   PO123786  30.602  37.088  24.934  0.2932  0.1315 -0.0435
  992BOLB   GL123787  30.981  37.083  25.050  0.0389 -0.0358  0.2083
  992BOLB   GL223788  31.289  36.987  25.149  0.1363 -0.1298 -0.2007
  992BOLB   C1A23789  31.246  37.460  25.132 -0.3975  0.2084  0.0682
  992BOLB   C2A23790  31.460  37.791  25.098 -0.0290  0.5799  0.0545
  992BOLB   C3A23791  31.617  38.186  25.159 -0.0291 -0.2445 -0.1563
  992BOLB   C4A23792  31.756  38.521  25.389 -0.0868  0.1528  0.1197
  992BOLB   C1B23793  31.684  37.226  25.197  0.4985  0.0977 -0.1600
  992BOLB   C2B23794  32.018  37.389  25.193  0.1685  0.2535 -0.1069
  992BOLB   C3B23795  32.373  37.627  25.285  0.1214 -0.1208 -0.1784
  992BOLB   C4B23796  32.635  37.571  25.425  0.1207  0.0278  0.1698
  992BOLB   NC223797  32.407  39.994  26.764  0.1783 -0.0841  0.0436
  992BOLB   PO223798  32.034  40.176   0.066 -0.0930 -0.0933  0.1468
  992BOLB   GL323799  31.725  39.835   0.090  0.1815  0.2865  0.2012
  992BOLB   GL423800  31.694  39.483   0.198 -0.0661 -0.2073  0.1640
  992BOLB   C1C23801  31.624  39.602  26.560  0.0886 -0.3399 -0.1803
  992BOLB   C2C23802  31.469  39.231  26.384 -0.4064 -0.1910 -0.4324
  992BOLB   C3C23803  31.475  38.984  26.020 -0.0214  0.0758 -0.1116
  992BOLB   C4C23804  31.556  38.907  25.579 -0.3226 -0.2913 -0.0548
  992BOLB   C1D23805  31.635  39.139  26.873  0.0728 -0.0662 -0.2311
  992BOLB   C2D23806  31.474  38.809  26.644  0.5121  0.0508 -0.4376
  992BOLB   C3D23807  31.240  38.606  26.279 -0.1256  0.0683 -0.0164
  992BOLB   C4D23808  30.947  38.838  26.023 -0.2791 -0.4473 -0.2356
  993BOLB   NC123809  23.520  16.833   1.307  0.1226  0.1806  0.1509
  993BOLB   PO123810  23.143  16.925   1.386 -0.0282 -0.1193 -0.0110
  993BOLB   GL123811  23.245  17.247   1.045  0.0368  0.1171 -0.3555
  993BOLB   GL223812  23.392  17.386   1.208 -0.2871  0.4320  0.0597
  993BOLB   C1A23813  23.534  17.496   0.654 -0.0883 -0.0581 -0.2676
  993BOLB   C2A23814  23.731  17.578   0.312  0.1556 -0.3462  0.2358
  993BOLB   C3A23815  23.937  17.393  26.925  0.4083  0.2491 -0.1966
  993BOLB   C4A23816  24.045  17.206  26.524  0.1543 -0.2218  0.2554
  993BOLB   C1B23817  23.557  17.743   1.063  0.3405 -0.0406  0.0763
  993BOLB   C2B23818  23.740  17.978   0.909 -0.1755  0.3236  0.0695
  993BOLB   C3B23819  23.703  18.459   0.700 -0.1342 -0.3209  0.1657
  993BOLB   C4B23820  23.779  18.790   0.958  0.1173  0.4323  0.3027
  993BOLB   NC223821  22.974  15.461  24.565 -0.1583  0.0723 -0.0726
  993BOLB   PO223822  23.098  15.812  24.858 -0.0677  0.0395  0.0397
  993BOLB   GL323823  22.950  16.038  25.151  0.2152  0.0734 -0.3893
  993BOLB   GL423824  22.707  16.174  24.880  0.0748  0.0517 -0.1704
  993BOLB   C1C23825  23.063  16.492  25.158 -0.1950 -0.0128 -0.0359
  993BOLB   C2C23826  23.266  16.625  25.584  0.2414 -0.0562 -0.2959
  993BOLB   C3C23827  23.663  16.644  25.867 -0.0185 -0.1797  0.0050
  993BOLB   C4C23828  23.935  16.869  26.155 -0.1214 -0.0069 -0.1191
  993BOLB   C1D23829  22.813  16.563  24.717 -0.0584  0.1645  0.0295
  993BOLB   C2D23830  22.821  17.053  24.701  0.4575 -0.1975  0.0691
  993BOLB   C3D23831  23.010  17.369  25.032  0.0388  0.3576  0.0438
  993BOLB   C4D23832  23.231  17.844  25.097 -0.1618 -0.1583  0.0769
  994BOLB   NC123833  25.194  31.880   2.070  0.3915 -0.0055 -0.3302
  994BOLB   PO123834  25.355  31.942   2.609 -0.0829  0.0831 -0.3306
  994BOLB   GL123835  25.315  32.122   3.040 -0.0488 -0.2364  0.1821
  994BOLB   GL223836  25.087  31.921   3.206 -0.0799  0.3415  0.1873
  994BOLB   C1A23837  25.330  32.124   3.569 -0.3542 -0.0655  0.3726
  994BOLB   C2A23838  25.173  32.193   4.053 -0.0408 -0.0711 -0.0218
  994BOLB   C3A23839  25.068  32.306   4.523  0.1998 -0.2528 -0.0394
  994BOLB   C4A23840  24.846  32.632   4.688  0.2241 -0.0778 -0.0739
  994BOLB   C1B23841  24.971  31.798   3.661  0.0270 -0.0154 -0.1094
  994BOLB   C2B23842  24.884  31.733   4.105  0.2805  0.0779  0.2593
  994BOLB   C3B23843  25.126  31.820   4.544 -0.0441 -0.0669 -0.4809
  994BOLB   C4B23844  25.335  31.949   4.864  0.0717  0.2887  0.2528
  994BOLB   NC223845  24.593  33.815   6.440  0.1986 -0.2347  0.2247
  994BOLB   PO223846  24.258  33.681   6.192  0.3066  0.2031  0.0051
  994BOLB   GL323847  24.601  33.873   5.921 -0.2807  0.1090  0.1841
  994BOLB   GL423848  24.445  34.083   5.693  0.4572 -0.1541 -0.0093
  994BOLB   C1C23849  24.950  33.793   5.651  0.3431  0.0709  0.0893
  994BOLB   C2C23850  25.168  33.506   5.619  0.2294  0.2295 -0.0980
  994BOLB   C3C23851  25.081  33.346   5.114 -0.1824 -0.2444 -0.0803
  994BOLB   C4C23852  24.979  33.023   4.782  0.0178 -0.4407  0.0727
  994BOLB   C1D23853  24.488  33.759   5.371  0.5052 -0.0817  0.0176
  994BOLB   C2D23854  24.557  33.359   5.090  0.2453 -0.1168  0.0924
  994BOLB   C3D23855  24.474  32.951   4.862 -0.3746  0.0300 -0.0683
  994BOLB   C4D23856  24.416  32.837   4.476 -0.0139  0.0257 -0.2382
  995BOLB   NC123857  17.715  30.392   4.662  0.0637  0.1362  0.1019
  995BOLB   PO123858  17.255  30.174   4.822 -0.2917 -0.0135  0.3091
  995BOLB   GL123859  17.431  29.821   4.639  0.0226 -0.1598  0.0173
  995BOLB   GL223860  17.835  29.905   4.473  0.5280  0.1436  0.6195
  995BOLB   C1A23861  17.429  29.638   4.253  0.2357  0.0713 -0.3694
  995BOLB   C2A23862  17.486  29.188   4.106  0.0811 -0.0181 -0.1429
  995BOLB   C3A23863  17.570  28.893   3.749 -0.1240  0.0775  0.3033
  995BOLB   C4A23864  17.625  28.509   3.534 -0.3368 -0.0726 -0.1114
  995BOLB   C1B23865  17.927  29.868   4.013 -0.0453  0.1348 -0.1814
  995BOLB   C2B23866  18.109  29.789   3.585  0.1616 -0.0393 -0.1573
  995BOLB   C3B23867  18.418  29.849   3.243 -0.0868 -0.2180  0.0517
  995BOLB   C4B23868  18.404  29.846   2.783 -0.1538  0.1008 -0.1060
  995BOLB   NC223869  16.022  27.990   4.441 -0.1960 -0.2229  0.2038
  995BOLB   PO223870  16.358  28.249   4.650 -0.1220  0.0170  0.1167
  995BOLB   GL323871  16.799  28.167   4.749 -0.2009 -0.1996 -0.1055
  995BOLB   GL423872  16.961  27.916   5.022 -0.0572 -0.0257  0.0462
  995BOLB   C1C23873  17.230  28.337   4.715  0.4527 -0.1338  0.4002
  995BOLB   C2C23874  17.489  28.245   4.389 -0.0599 -0.0793 -0.1876
  995BOLB   C3C23875  17.668  28.031   4.094  0.0516  0.2153  0.1872
  995BOLB   C4C23876  17.652  28.177   3.770 -0.0433  0.1207 -0.0438
  995BOLB   C1D23877  17.204  27.845   4.553 -0.1357 -0.1333  0.1229
  995BOLB   C2D23878  17.320  27.712   4.154  0.1901  0.1220 -0.0257
  995BOLB   C3D23879  17.239  27.343   3.923 -0.1393  0.0049 -0.2792
  995BOLB   C4D23880  16.867  27.126   3.716 -0.2138 -0.1599  0.1021
  996BOLB   NC123881  30.504  37.815  22.867 -0.0349  0.1705 -0.1702
  996BOLB   PO123882  30.520  37.745  23.316 -0.0046 -0.0945 -0.0770
  996BOLB   GL123883  30.468  38.175  23.212 -0.3126  0.0500  0.0073
  996BOLB   GL223884  30.363  38.371  23.570  0.0409  0.2704  0.0365
  996BOLB   C1A23885  30.785  38.406  23.078 -0.0629 -0.3551 -0.0241
  996BOLB   C2A23886  31.084  38.499  22.819 -0.3218 -0.1129 -0.2844
  996BOLB   C3A23887  31.273  38.913  22.823 -0.1123 -0.2126 -0.0982
  996BOLB   C4A23888  31.737  39.126  22.771  0.0717  0.2679  0.0180
  996BOLB   C1B23889  30.462  38.752  23.940  0.2227  0.2294 -0.2340
  996BOLB   C2B23890  30.193  39.019  24.217 -0.0053 -0.4593  0.0457
  996BOLB   C3B23891  30.349  39.269  24.466  0.1513  0.5734  0.2349
  996BOLB   C4B23892  30.609  39.619  24.704 -0.0707 -0.0783 -0.1663
  996BOLB   NC223893  33.273  40.621  22.080 -0.2445 -0.1848 -0.3138
  996BOLB   PO223894  32.858  40.976  22.142  0.1317  0.1750  0.1575
  996BOLB   GL323895  32.453  40.767  22.066 -0.0904  0.1106 -0.0332
  996BOLB   GL423896  32.237  40.795  21.797 -0.0015 -0.1378 -0.3940
  996BOLB   C1C23897  32.303  40.503  22.355 -0.0644  0.2685  0.0041
  996BOLB   C2C23898  31.903  40.259  22.522 -0.2665  0.2520 -0.0654
  996BOLB   C3C23899  31.625  39.925  22.534  0.1474 -0.2457  0.0048
  996BOLB   C4C23900  31.760  39.423  22.457 -0.4712 -0.3082 -0.1266
  996BOLB   C1D23901  31.883  40.543  22.067 -0.2979 -0.0791  0.1162
  996BOLB   C2D23902  31.541  40.343  22.164 -0.1009  0.3099 -0.0514
  996BOLB   C3D23903  31.218  40.187  22.476  0.2893 -0.0441 -0.0097
  996BOLB   C4D23904  31.087  39.867  22.865  0.3352  0.2444  0.3772
  997BOLB   NC123905  14.975  29.166  19.047  0.0978  0.0233  0.1083
  997BOLB   PO123906  15.246  29.515  18.971 -0.0417  0.1778  0.1538
  997BOLB   GL123907  15.509  29.699  19.078  0.1259  0.0807 -0.1506
  997BOLB   GL223908  15.850  29.722  18.847  0.2213 -0.1864  0.2799
  997BOLB   C1A23909  15.601  29.856  19.502 -0.0076 -0.1830 -0.3262
  997BOLB   C2A23910  15.819  29.697  19.835  0.4749 -0.2789 -0.2411
  997BOLB   C3A23911  15.846  29.406  20.159  0.1154 -0.1519 -0.2736
  997BOLB   C4A23912  15.888  29.003  20.215 -0.2091 -0.2442 -0.0109
  997BOLB   C1B23913  16.193  29.491  19.032 -0.0797  0.0172 -0.3601
  997BOLB   C2B23914  16.646  29.277  19.056 -0.3367  0.0827  0.1308
  997BOLB   C3B23915  16.980  29.040  19.200 -0.4840 -0.0322  0.3785
  997BOLB   C4B23916  17.329  28.799  19.420 -0.0353 -0.1485  0.0039
  997BOLB   NC223917  14.159  29.074  20.480  0.0220 -0.3102 -0.0725
  997BOLB   PO223918  14.147  28.716  20.184  0.1103  0.2124  0.2459
  997BOLB   GL323919  14.464  28.639  20.342 -0.0407  0.0809  0.5580
  997BOLB   GL423920  14.420  28.374  20.607 -0.1975 -0.1850 -0.2613
  997BOLB   C1C23921  14.903  28.604  20.362 -0.3017 -0.2384 -0.0118
  997BOLB   C2C23922  15.084  28.368  20.522 -0.0144 -0.1465  0.1319
  997BOLB   C3C23923  15.465  28.417  20.622 -0.0091 -0.1351 -0.0533
  997BOLB   C4C23924  15.834  28.587  20.391  0.1209 -0.3615  0.0294
  997BOLB   C1D23925  14.731  28.018  20.653  0.3121  0.2731 -0.0114
  997BOLB   C2D23926  15.119  27.878  20.619  0.0740  0.0281  0.2305
  997BOLB   C3D23927  15.281  27.515  20.605 -0.0562  0.0226 -0.2395
  997BOLB   C4D23928  15.657  27.267  20.853  0.0193  0.2567  0.0479
  998BOLB   NC123929  35.889  29.998  20.986  0.1502 -0.0779 -0.2535
  998BOLB   PO123930  35.943  29.471  21.096  0.1941  0.0644 -0.1202
  998BOLB   GL123931  36.245  29.611  21.022  0.1418 -0.1136  0.0190
  998BOLB   GL223932  36.361  29.810  20.866 -0.1298 -0.2617 -0.2005
  998BOLB   C1A23933  36.586  29.649  21.241  0.0660  0.1897  0.0095
  998BOLB   C2A23934  37.026  29.777  21.220 -0.0435 -0.2655 -0.0732
  998BOLB   C3A23935  37.371  29.907  21.269  0.1517  0.1182 -0.1663
  998BOLB   C4A23936  37.848  29.932  21.334  0.1775  0.0291 -0.2093
  998BOLB   C1B23937  36.777  29.573  20.817 -0.2580 -0.2133  0.3300
  998BOLB   C2B23938  37.224  29.768  20.703 -0.0259  0.0637  0.1161
  998BOLB   C3B23939  37.704  29.942  20.702 -0.2916 -0.1038 -0.1453
  998BOLB   C4B23940  37.972  30.369  20.597  0.0361 -0.0999  0.0152
  998BOLB   NC223941  39.880  29.959  19.681 -0.1469 -0.0375 -0.1968
  998BOLB   PO223942  39.646  29.637  19.961  0.0500 -0.1322 -0.1200
  998BOLB   GL323943  39.252  29.484  20.158  0.0227 -0.0956  0.1900
  998BOLB   GL423944  39.265  29.562  20.436  0.0830 -0.0939 -0.0094
  998BOLB   C1C23945  38.892  29.603  20.117  0.3277  0.0165 -0.1683
  998BOLB   C2C23946  38.543  29.749  20.357  0.2392  0.2760 -0.1178
  998BOLB   C3C23947  38.258  29.897  20.625  0.1400 -0.0372 -0.2403
  998BOLB   C4C23948  38.049  30.035  21.014 -0.2439  0.0421 -0.1097
  998BOLB   C1D23949  38.961  29.803  20.542  0.2452  0.1646  0.0267
  998BOLB   C2D23950  38.723  29.983  20.789  0.1265 -0.1383  0.1103
  998BOLB   C3D23951  38.437  29.775  21.119  0.0933 -0.0616 -0.0959
  998BOLB   C4D23952  38.298  29.814  21.512 -0.0883  0.1386 -0.2636
  999BOLB   NC123953  23.617  39.483   1.186 -0.0134 -0.0755 -0.0941
  999BOLB   PO123954  23.596  39.182   1.398 -0.2422 -0.0926 -0.1480
  999BOLB   GL123955  23.907  38.909   1.492  0.2646  0.0990 -0.0517
  999BOLB   GL223956  23.924  38.645   1.721 -0.0656 -0.0093  0.1462
  999BOLB   C1A23957  24.053  38.466   1.238 -0.1779  0.1269 -0.1423
  999BOLB   C2A23958  24.368  38.225   1.412  0.3142  0.2017  0.7008
  999BOLB   C3A23959  24.719  37.916   1.495  0.1038  0.1935 -0.2499
  999BOLB   C4A23960  25.076  37.765   1.806 -0.0895  0.1741  0.1134
  999BOLB   C1B23961  23.925  38.167   1.646  0.4194 -0.0036  0.1992
  999BOLB   C2B23962  24.162  37.767   1.515 -0.0193  0.0741  0.1086
  999BOLB   C3B23963  24.460  37.565   1.213 -0.3687  0.1491  0.1622
  999BOLB   C4B23964  24.560  37.133   1.310 -0.0654 -0.0323  0.1368
  999BOLB   NC223965  25.000  37.940   4.094 -0.4074 -0.0511  0.4297
  999BOLB   PO223966  24.753  37.704   4.027 -0.0013 -0.1468 -0.0360
  999BOLB   GL323967  25.002  37.518   3.802  0.3727 -0.0555 -0.1782
  999BOLB   GL423968  25.368  37.542   3.869 -0.1941 -0.2157 -0.0590
  999BOLB   C1C23969  25.308  37.394   3.420 -0.2674  0.0761 -0.0618
  999BOLB   C2C23970  25.293  37.538   2.922 -0.2188  0.1629  0.0907
  999BOLB   C3C23971  25.048  37.446   2.593  0.1597 -0.0621  0.0647
  999BOLB   C4C23972  24.983  37.618   2.200 -0.2015 -0.2828  0.0614
  999BOLB   C1D23973  25.710  37.715   3.573  0.3071 -0.0655 -0.0652
  999BOLB   C2D23974  25.732  37.692   3.093 -0.4481 -0.0678 -0.0579
  999BOLB   C3D23975  25.794  37.410   2.710 -0.1378  0.1508  0.1248
  999BOLB   C4D23976  25.845  36.947   2.685 -0.2423 -0.1154  0.0738
 1000BOLB   NC123977  31.787  30.929   1.947  0.2797  0.3852 -0.0072
 1000BOLB   PO123978  31.950  30.723   2.190  0.2521  0.3101  0.0325
 1000BOLB   GL123979  32.245  30.798   2.339  0.0073  0.0119 -0.0770
 1000BOLB   GL223980  32.433  30.909   2.264  0.1334 -0.2572  0.1810
 1000BOLB   C1A23981  32.182  31.083   2.774 -0.2196 -0.1408 -0.1396
 1000BOLB   C2A23982  32.003  30.913   3.110  0.3231 -0.0559 -0.2071
 1000BOLB   C3A23983  32.154  30.908   3.517  0.1428  0.0911  0.0115
 1000BOLB   C4A23984  32.341  31.087   3.876 -0.1644 -0.0296  0.0886
 1000BOLB   C1B23985  32.656  31.000   2.674 -0.0655  0.3513 -0.2340
 1000BOLB   C2B23986  32.872  31.193   3.017 -0.0332  0.3444  0.1972
 1000BOLB   C3B23987  33.125  31.430   3.348 -0.3516 -0.4236 -0.1076
 1000BOLB   C4B23988  33.175  31.738   3.667  0.2777 -0.1792  0.0600
 1000BOLB   NC223989  33.258  31.007   6.208 -0.2394 -0.1759  0.1495
 1000BOLB   PO223990  33.090  31.491   6.052  0.2966 -0.1540 -0.1338
 1000BOLB   GL323991  32.915  31.200   5.770  0.3763  0.2730  0.0963
 1000BOLB   GL423992  33.079  30.998   5.573  0.1118 -0.2727  0.0796
 1000BOLB   C1C23993  32.637  31.326   5.385 -0.3292  0.0532  0.0682
 1000BOLB   C2C23994  32.630  31.195   5.015 -0.2980  0.0955  0.2189
 1000BOLB   C3C23995  32.698  31.300   4.605  0.1768 -0.1032 -0.1459
 1000BOLB   C4C23996  32.638  31.238   4.204  0.1640 -0.1475 -0.0564
 1000BOLB   C1D23997  33.089  31.203   5.106  0.1451  0.2193  0.1581
 1000BOLB   C2D23998  33.137  31.238   4.693 -0.1223 -0.0453 -0.0860
 1000BOLB   C3D23999  33.318  31.039   4.334 -0.0128  0.0655  0.2507
 1000BOLB   C4D24000  33.686  31.439   4.280  0.1949 -0.0037 -0.1949
 1001BOLB   NC124001  35.060  28.677  17.622 -0.2794  0.0160  0.1871
 1001BOLB   PO124002  34.853  28.972  17.314  0.0092  0.0653 -0.5187
 1001BOLB   GL124003  35.129  28.720  17.155 -0.0668 -0.3293 -0.3922
 1001BOLB   GL224004  35.450  28.832  17.339 -0.1117 -0.1244 -0.2931
 1001BOLB   C1A24005  35.342  28.953  16.677 -0.1338  0.1113  0.0459
 1001BOLB   C2A24006  35.027  28.974  16.229 -0.1636  0.1201 -0.1406
 1001BOLB   C3A24007  35.138  28.738  15.741  0.1227  0.4565  0.0467
 1001BOLB   C4A24008  35.169  28.710  15.185 -0.0252 -0.0685  0.1618
 1001BOLB   C1B24009  35.711  29.122  17.071  0.2301  0.2758 -0.0727
 1001BOLB   C2B24010  35.917  29.318  16.802  0.1608 -0.0455 -0.0373
 1001BOLB   C3B24011  36.189  29.763  16.710  0.1091  0.3381 -0.1391
 1001BOLB   C4B24012  36.635  29.747  16.631  0.2254  0.5052  0.0828
 1001BOLB   NC224013  37.466  27.433  14.293  0.0203  0.0239  0.0313
 1001BOLB   PO224014  37.068  27.682  14.277  0.1977 -0.0073  0.1428
 1001BOLB   GL324015  36.791  27.613  14.690 -0.1940 -0.1726  0.0631
 1001BOLB   GL424016  36.808  27.386  15.011 -0.0777  0.1362  0.3521
 1001BOLB   C1C24017  36.392  27.682  14.859  0.0834 -0.1734 -0.0630
 1001BOLB   C2C24018  36.077  27.885  15.106 -0.2308 -0.1225 -0.2701
 1001BOLB   C3C24019  35.682  28.116  14.869 -0.2410 -0.1056 -0.0084
 1001BOLB   C4C24020  35.374  28.408  14.944 -0.0817  0.0544 -0.3968
 1001BOLB   C1D24021  36.491  27.390  15.342 -0.1063 -0.1694 -0.0746
 1001BOLB   C2D24022  36.305  27.702  15.452  0.2198  0.0938  0.0388
 1001BOLB   C3D24023  36.136  28.087  15.545  0.2101  0.1120  0.1521
 1001BOLB   C4D24024  36.126  28.549  15.658  0.3536  0.3125 -0.2395
 1002BOLB   NC124025  24.340  25.001  15.962  0.0910 -0.0075  0.0053
 1002BOLB   PO124026  24.653  24.880  15.660  0.1036 -0.2097 -0.2806
 1002BOLB   GL124027  24.650  24.659  15.293 -0.0060  0.1257  0.1292
 1002BOLB   GL224028  24.903  24.575  15.155 -0.2995 -0.3646  0.0901
 1002BOLB   C1A24029  24.455  24.346  15.061  0.0644 -0.1544 -0.3690
 1002BOLB   C2A24030  24.277  24.075  14.843 -0.2267 -0.1881  0.0105
 1002BOLB   C3A24031  23.908  23.907  14.677 -0.0968 -0.2662  0.2010
 1002BOLB   C4A24032  23.589  23.935  14.377  0.0028  0.0905 -0.1331
 1002BOLB   C1B24033  24.972  24.180  14.995 -0.0074 -0.3095  0.1166
 1002BOLB   C2B24034  24.852  23.758  14.821 -0.3311 -0.2606 -0.1443
 1002BOLB   C3B24035  24.693  23.341  14.720  0.3176 -0.1098  0.0723
 1002BOLB   C4B24036  24.401  23.008  14.682 -0.2610  0.0034 -0.1622
 1002BOLB   NC224037  22.766  22.265  13.632  0.2265 -0.2247 -0.2056
 1002BOLB   PO224038  23.010  21.887  13.845  0.0002 -0.7799  0.0334
 1002BOLB   GL324039  23.070  22.356  14.037  0.2701 -0.1072 -0.1297
 1002BOLB   GL424040  22.698  22.366  14.108 -0.1050  0.1335  0.0204
 1002BOLB   C1C24041  23.364  22.661  13.839  0.0368  0.2871 -0.0900
 1002BOLB   C2C24042  23.173  22.943  13.671  0.0118 -0.0724  0.1689
 1002BOLB   C3C24043  23.086  23.418  13.859  0.3196  0.0789  0.0347
 1002BOLB   C4C24044  23.354  23.791  14.122 -0.1137  0.2871  0.3085
 1002BOLB   C1D24045  22.914  22.527  14.501  0.0155  0.1628 -0.1210
 1002BOLB   C2D24046  23.132  22.620  14.935 -0.2981  0.2288 -0.3801
 1002BOLB   C3D24047  23.331  22.677  15.364 -0.3996 -0.0057 -0.3645
 1002BOLB   C4D24048  23.775  22.450  15.554 -0.1585  0.0035  0.0587
 1003BOLB   NC124049  30.207  22.585  18.179 -0.1048  0.1504  0.1029
 1003BOLB   PO124050  30.271  22.962  18.283 -0.4011  0.2188 -0.0071
 1003BOLB   GL124051  30.679  22.700  18.238 -0.1112 -0.0367  0.0124
 1003BOLB   GL224052  30.972  22.788  18.273  0.1363 -0.1950 -0.2032
 1003BOLB   C1A24053  30.838  22.326  17.973  0.2731 -0.1766  0.2603
 1003BOLB   C2A24054  30.812  21.953  17.731 -0.1707 -0.1278  0.0667
 1003BOLB   C3A24055  31.144  21.636  17.589  0.3168 -0.0423  0.1314
 1003BOLB   C4A24056  31.469  21.495  17.351 -0.1438  0.0314  0.0055
 1003BOLB   C1B24057  31.227  22.378  18.197 -0.3199  0.0488  0.0635
 1003BOLB   C2B24058  31.246  21.973  17.985  0.3055  0.1975  0.1893
 1003BOLB   C3B24059  31.538  21.676  17.922 -0.0724  0.2311  0.0678
 1003BOLB   C4B24060  31.843  21.316  17.809  0.1223  0.2607  0.4165
 1003BOLB   NC224061  33.327  19.829  17.516 -0.1124 -0.4362  0.1560
 1003BOLB   PO224062  32.933  19.619  17.535  0.0852  0.0030  0.2150
 1003BOLB   GL324063  32.696  20.055  17.679 -0.2071  0.1984 -0.2140
 1003BOLB   GL424064  32.989  20.195  17.714  0.0354 -0.0607 -0.4026
 1003BOLB   C1C24065  32.302  20.251  17.575  0.4182 -0.1329 -0.1216
 1003BOLB   C2C24066  31.851  20.549  17.633  0.0577 -0.1808  0.1337
 1003BOLB   C3C24067  31.797  20.901  17.557  0.0569 -0.0464  0.0166
 1003BOLB   C4C24068  31.671  21.178  17.223 -0.0489  0.1494  0.2274
 1003BOLB   C1D24069  32.835  20.487  17.983  0.1502 -0.1797 -0.1354
 1003BOLB   C2D24070  32.830  20.871  18.276  0.0123 -0.0362 -0.0903
 1003BOLB   C3D24071  33.060  21.287  18.398 -0.1367 -0.1973 -0.0243
 1003BOLB   C4D24072  33.244  21.731  18.415  0.0893 -0.1492 -0.2667
 1004BOLB   NC124073  27.196  29.376   9.113 -0.1404 -0.2414  0.0529
 1004BOLB   PO124074  27.385  29.701   9.229  0.1060  0.0418 -0.3926
 1004BOLB   GL124075  27.318  29.518   9.575 -0.2407  0.1440  0.0546
 1004BOLB   GL224076  27.145  29.247   9.630 -0.1657 -0.3135  0.1533
 1004BOLB   C1A24077  27.175  29.624  10.017  0.0111 -0.1973  0.2844
 1004BOLB   C2A24078  26.914  30.069  10.076 -0.3028  0.1142 -0.3147
 1004BOLB   C3A24079  26.904  30.529  10.143 -0.2259  0.0906 -0.1152
 1004BOLB   C4A24080  26.537  30.712  10.360 -0.1747  0.0181  0.0977
 1004BOLB   C1B24081  27.310  29.174  10.115 -0.4060 -0.0427 -0.3007
 1004BOLB   C2B24082  27.451  28.922  10.483 -0.0067 -0.1477  0.0640
 1004BOLB   C3B24083  27.483  28.921  11.053 -0.1097 -0.2567  0.2111
 1004BOLB   C4B24084  27.502  28.987  11.472  0.2444 -0.1042 -0.1180
 1004BOLB   NC224085  25.894  30.139   9.541  0.1133  0.0178 -0.0558
 1004BOLB   PO224086  25.456  30.280   9.633  0.1545  0.0621 -0.1395
 1004BOLB   GL324087  25.435  30.283  10.059 -0.4244  0.1195  0.5332
 1004BOLB   GL424088  25.107  30.070  10.149  0.0611 -0.0622  0.0372
 1004BOLB   C1C24089  25.572  30.319  10.462  0.0293 -0.1047 -0.0404
 1004BOLB   C2C24090  25.920  30.448  10.772 -0.3085  0.1278  0.3358
 1004BOLB   C3C24091  26.230  30.629  10.975  0.0250 -0.3684  0.2517
 1004BOLB   C4C24092  26.590  30.810  10.814  0.2913 -0.1645 -0.0539
 1004BOLB   C1D24093  25.447  29.834  10.325  0.0781  0.1691 -0.0043
 1004BOLB   C2D24094  25.788  29.914  10.679 -0.1637 -0.0524  0.3355
 1004BOLB   C3D24095  25.995  29.871  11.020  0.0904  0.5052  0.1926
 1004BOLB   C4D24096  26.015  30.192  11.337 -0.2157 -0.2728 -0.0104
 1005BOLB   NC124097  23.702  34.269  16.450  0.0516 -0.1282 -0.0919
 1005BOLB   PO124098  23.278  34.050  16.444 -0.0206  0.1000  0.0525
 1005BOLB   GL124099  23.057  34.293  16.149 -0.1144 -0.1177 -0.0423
 1005BOLB   GL224100  22.717  34.330  16.128  0.3760 -0.0488 -0.2652
 1005BOLB   C1A24101  23.151  34.434  15.762  0.2978  0.1685 -0.1121
 1005BOLB   C2A24102  23.073  34.585  15.360  0.1777 -0.2154 -0.2981
 1005BOLB   C3A24103  23.030  34.777  14.975 -0.1768  0.0351 -0.0717
 1005BOLB   C4A24104  22.850  35.101  14.975  0.1148 -0.0551  0.3732
 1005BOLB   C1B24105  22.321  34.277  15.960 -0.3052 -0.2469 -0.2485
 1005BOLB   C2B24106  21.928  34.478  15.854  0.2300 -0.2089  0.3045
 1005BOLB   C3B24107  21.751  34.593  15.459 -0.0020  0.3408  0.2711
 1005BOLB   C4B24108  21.448  34.778  15.109  0.3045  0.2509  0.2020
 1005BOLB   NC224109  21.405  36.735  14.299 -0.2239 -0.0052 -0.3439
 1005BOLB   PO224110  21.309  37.015  14.624 -0.0094  0.2072  0.2015
 1005BOLB   GL324111  21.657  36.761  14.841 -0.0180 -0.1365 -0.1663
 1005BOLB   GL424112  21.924  36.820  14.957  0.0745  0.1291  0.2074
 1005BOLB   C1C24113  21.732  36.312  14.740 -0.0324  0.1108 -0.0902
 1005BOLB   C2C24114  21.750  35.835  14.643 -0.0673 -0.0264  0.0459
 1005BOLB   C3C24115  22.054  35.535  14.749  0.4652  0.1719 -0.2759
 1005BOLB   C4C24116  22.462  35.423  14.761  0.1734  0.3216 -0.0630
 1005BOLB   C1D24117  22.115  36.492  15.201  0.0226  0.0770  0.0077
 1005BOLB   C2D24118  22.244  36.154  15.473  0.2420 -0.0779  0.0983
 1005BOLB   C3D24119  22.416  35.955  15.790 -0.2557  0.0531  0.0689
 1005BOLB   C4D24120  22.711  35.996  16.060  0.2073  0.1473  0.0505
 1006BOLB   NC124121  23.896  23.505  17.538 -0.2405 -0.1988 -0.3168
 1006BOLB   PO124122  23.524  23.537  17.595 -0.1211 -0.3284 -0.0207
 1006BOLB   GL124123  23.215  23.324  17.398  0.0138 -0.2854  0.0915
 1006BOLB   GL224124  23.005  23.593  17.340 -0.0387  0.2873 -0.2314
 1006BOLB   C1A24125  22.787  23.196  17.458  0.1621 -0.0479 -0.0406
 1006BOLB   C2A24126  22.401  23.051  17.301 -0.1444 -0.0119 -0.0153
 1006BOLB   C3A24127  22.195  22.574  17.355  0.0296  0.1971  0.1265
 1006BOLB   C4A24128  22.261  22.041  17.203 -0.1487  0.0011  0.0631
 1006BOLB   C1B24129  22.843  23.290  16.946 -0.4470 -0.1142 -0.3327
 1006BOLB   C2B24130  22.551  23.191  16.537  0.0059 -0.0013 -0.1245
 1006BOLB   C3B24131  22.459  22.907  16.286 -0.1011  0.0533  0.2443
 1006BOLB   C4B24132  22.146  22.497  16.223  0.0270 -0.2402 -0.0833
 1006BOLB   NC224133  22.715  19.873  16.156  0.0896  0.2884 -0.1516
 1006BOLB   PO224134  22.537  20.059  15.719  0.0372  0.0077  0.0001
 1006BOLB   GL324135  22.581  20.401  15.925 -0.2208 -0.2158 -0.4369
 1006BOLB   GL424136  22.896  20.365  16.080 -0.0984  0.1025 -0.0442
 1006BOLB   C1C24137  22.228  20.703  16.234  0.0273  0.4377 -0.1262
 1006BOLB   C2C24138  22.207  21.026  16.561  0.0082 -0.0384  0.1646
 1006BOLB   C3C24139  22.432  21.287  16.792 -0.0072  0.0795  0.1116
 1006BOLB   C4C24140  22.386  21.648  17.042  0.0590 -0.2014 -0.2512
 1006BOLB   C1D24141  22.835  20.528  16.504  0.3152  0.1018  0.0426
 1006BOLB   C2D24142  22.727  20.824  16.719  0.0029  0.1752  0.0293
 1006BOLB   C3D24143  22.869  21.070  17.065 -0.0044  0.3108  0.0297
 1006BOLB   C4D24144  22.817  21.450  17.331 -0.0098  0.3926  0.5523
 1007BOLB   NC124145  29.534  18.560   1.629 -0.1482 -0.0532 -0.1475
 1007BOLB   PO124146  29.403  18.559   1.202 -0.2867  0.1388  0.0661
 1007BOLB   GL124147  29.335  18.923   1.358 -0.1251  0.0110  0.2072
 1007BOLB   GL224148  29.119  19.215   1.204 -0.1029  0.0519 -0.1123
 1007BOLB   C1A24149  29.219  19.241   1.693 -0.0817 -0.3354 -0.2594
 1007BOLB   C2A24150  28.881  19.577   1.845 -0.1320 -0.0013 -0.1171
 1007BOLB   C3A24151  28.758  19.793   2.188 -0.1052  0.4164 -0.0810
 1007BOLB   C4A24152  29.038  20.146   2.334  0.0558  0.0598 -0.1473
 1007BOLB   C1B24153  29.227  19.524   1.308  0.1195 -0.1639  0.1662
 1007BOLB   C2B24154  29.159  19.889   1.033  0.3688 -0.1641 -0.2248
 1007BOLB   C3B24155  28.773  20.066   0.791 -0.2033  0.0228  0.1937
 1007BOLB   C4B24156  28.701  20.475   0.679 -0.1028  0.5554 -0.0548
 1007BOLB   NC224157  29.982  19.509   2.925 -0.0404  0.5119  0.0208
 1007BOLB   PO224158  30.301  19.892   3.020 -0.0313  0.3748 -0.1120
 1007BOLB   GL324159  30.327  20.104   2.735 -0.1889 -0.1318 -0.0325
 1007BOLB   GL424160  30.545  20.038   2.480 -0.4868  0.1515 -0.1235
 1007BOLB   C1C24161  30.281  20.544   2.560  0.0059 -0.1732 -0.2262
 1007BOLB   C2C24162  29.975  20.770   2.397  0.0372  0.0277 -0.1653
 1007BOLB   C3C24163  29.599  20.635   2.357 -0.1536 -0.1557  0.0771
 1007BOLB   C4C24164  29.297  20.405   2.389  0.0498 -0.0094  0.1386
 1007BOLB   C1D24165  30.263  20.153   2.106 -0.0922  0.1294 -0.2087
 1007BOLB   C2D24166  29.906  20.296   1.977 -0.0023  0.0199  0.1946
 1007BOLB   C3D24167  29.472  20.454   1.911  0.2672 -0.0079 -0.0678
 1007BOLB   C4D24168  29.136  20.730   1.644 -0.1453 -0.0458  0.0436
 1008BOLB   NC124169  13.209  26.117  26.898 -0.0188  0.0379 -0.1604
 1008BOLB   PO124170  13.557  25.864  26.831 -0.1873 -0.0532 -0.0394
 1008BOLB   GL124171  13.931  25.903  26.678 -0.0395  0.1601  0.0372
 1008BOLB   GL224172  13.874  26.233  26.667  0.1410  0.1532  0.1530
 1008BOLB   C1A24173  14.379  26.241  26.658  0.2837 -0.0765 -0.4045
 1008BOLB   C2A24174  14.721  26.105  26.439  0.3996  0.1780  0.0866
 1008BOLB   C3A24175  15.065  26.103  26.221  0.1669  0.2293  0.2414
 1008BOLB   C4A24176  15.209  25.749  25.986  0.2302 -0.1763  0.0672
 1008BOLB   C1B24177  14.014  26.667  26.893 -0.1060  0.3742 -0.0099
 1008BOLB   C2B24178  14.170  27.043  26.795  0.1533  0.2841  0.1047
 1008BOLB   C3B24179  14.418  27.402  26.752  0.2495 -0.1574  0.2604
 1008BOLB   C4B24180  14.593  27.751  26.427  0.0682  0.0316 -0.1270
 1008BOLB   NC224181  13.800  23.789  26.437 -0.2310  0.2084  0.1603
 1008BOLB   PO224182  13.839  24.099  26.084 -0.1456  0.5648  0.0940
 1008BOLB   GL324183  14.107  24.406  25.830 -0.1601  0.0958  0.2440
 1008BOLB   GL424184  14.156  24.755  25.944 -0.0681  0.0464 -0.1491
 1008BOLB   C1C24185  14.467  24.370  25.494 -0.2336 -0.0007  0.0346
 1008BOLB   C2C24186  14.805  24.586  25.288 -0.3751  0.1334 -0.3223
 1008BOLB   C3C24187  14.990  25.062  25.354  0.0091  0.1623 -0.0716
 1008BOLB   C4C24188  15.121  25.419  25.676  0.1111 -0.1276  0.2292
 1008BOLB   C1D24189  14.580  24.669  25.998  0.3276  0.0599  0.0468
 1008BOLB   C2D24190  14.975  24.553  25.845 -0.1370  0.0364 -0.0128
 1008BOLB   C3D24191  15.195  24.933  25.818  0.1228 -0.2116  0.3626
 1008BOLB   C4D24192  15.538  25.158  25.666  0.2318 -0.2095  0.0538
 1009BOLB   NC124193  20.041  17.428  26.101  0.2086  0.0362 -0.1075
 1009BOLB   PO124194  19.978  17.517  25.643  0.3550 -0.3675  0.0691
 1009BOLB   GL124195  20.283  17.600  25.419  0.0173 -0.1323 -0.0776
 1009BOLB   GL224196  20.503  17.601  25.286  0.2430  0.3487 -0.4043
 1009BOLB   C1A24197  20.412  18.015  25.470  0.1861  0.1216 -0.0551
 1009BOLB   C2A24198  20.573  18.338  25.055 -0.2825 -0.0347  0.1428
 1009BOLB   C3A24199  20.749  18.200  24.626 -0.1803 -0.0372  0.1689
 1009BOLB   C4A24200  21.023  17.812  24.504 -0.0933  0.3115  0.2141
 1009BOLB   C1B24201  20.808  17.853  25.166  0.3157  0.2532  0.2245
 1009BOLB   C2B24202  21.083  18.138  25.009 -0.2811 -0.0909  0.1337
 1009BOLB   C3B24203  21.413  18.287  24.880  0.1888  0.0635  0.1262
 1009BOLB   C4B24204  21.274  18.420  24.475 -0.1245  0.0340 -0.1546
 1009BOLB   NC224205  22.224  15.955  24.891 -0.3183  0.2315  0.1859
 1009BOLB   PO224206  22.351  16.053  24.568 -0.1781  0.0250  0.0860
 1009BOLB   GL324207  22.445  16.491  24.428  0.0583  0.1075  0.0215
 1009BOLB   GL424208  22.617  16.483  24.130  0.0572  0.1195 -0.0515
 1009BOLB   C1C24209  22.254  16.894  24.582  0.1934  0.3430  0.0559
 1009BOLB   C2C24210  22.111  17.244  24.588 -0.5183 -0.2700 -0.3514
 1009BOLB   C3C24211  21.828  17.588  24.588  0.2346  0.1635  0.1154
 1009BOLB   C4C24212  21.406  17.607  24.492 -0.3695  0.0390 -0.0768
 1009BOLB   C1D24213  22.921  16.807  24.224 -0.1351 -0.2668  0.0161
 1009BOLB   C2D24214  23.107  17.177  24.212 -0.0339 -0.1407 -0.0326
 1009BOLB   C3D24215  22.907  17.487  24.020 -0.0903 -0.1254  0.0731
 1009BOLB   C4D24216  22.964  17.799  23.764  0.3543 -0.0203  0.3591
 1010BOLB   NC124217  30.938  37.490  20.620  0.1934  0.0438 -0.2833
 1010BOLB   PO124218  31.003  37.344  21.016 -0.1418 -0.0832 -0.0772
 1010BOLB   GL124219  30.999  37.870  20.956 -0.0564  0.0883 -0.0898
 1010BOLB   GL224220  31.275  37.918  20.809 -0.2155  0.2805  0.0105
 1010BOLB   C1A24221  30.819  38.245  20.738  0.1639 -0.0009 -0.0036
 1010BOLB   C2A24222  30.989  38.494  20.513 -0.0746  0.4740 -0.0466
 1010BOLB   C3A24223  31.233  38.674  20.182  0.2258 -0.2538  0.0397
 1010BOLB   C4A24224  31.406  38.835  19.704 -0.0917  0.0159 -0.1700
 1010BOLB   C1B24225  31.328  38.368  20.970  0.1538  0.1184 -0.0591
 1010BOLB   C2B24226  31.284  38.761  20.911 -0.0916  0.1876  0.1443
 1010BOLB   C3B24227  31.504  39.139  20.884  0.0933  0.1365 -0.0274
 1010BOLB   C4B24228  31.668  39.385  20.497 -0.0525  0.1149  0.1632
 1010BOLB   NC224229  31.750  41.228  18.458  0.1786 -0.0825  0.0041
 1010BOLB   PO224230  31.475  41.051  18.795  0.1262 -0.0080 -0.1150
 1010BOLB   GL324231  31.640  40.663  18.805 -0.1040  0.2060 -0.1877
 1010BOLB   GL424232  31.934  40.616  18.921  0.0537  0.2384 -0.2377
 1010BOLB   C1C24233  31.711  40.199  18.938 -0.0642  0.1182 -0.1330
 1010BOLB   C2C24234  31.561  39.763  19.059  0.1783 -0.1374 -0.0733
 1010BOLB   C3C24235  31.594  39.350  19.127 -0.2256 -0.1492 -0.0090
 1010BOLB   C4C24236  31.588  38.946  19.325  0.2468 -0.1631  0.1782
 1010BOLB   C1D24237  31.913  40.258  19.442 -0.1875  0.0004  0.0583
 1010BOLB   C2D24238  31.615  39.881  19.571 -0.1995  0.2051  0.0432
 1010BOLB   C3D24239  31.626  39.480  19.634 -0.4507  0.3645 -0.2103
 1010BOLB   C4D24240  31.918  39.085  19.738 -0.2422  0.1662 -0.0451
 1011BOLB   NC124241  20.687  31.861  24.729 -0.1050 -0.0383  0.1025
 1011BOLB   PO124242  20.282  31.934  24.802  0.0509 -0.0785  0.0929
 1011BOLB   GL124243  19.860  31.936  24.960 -0.3831 -0.3514 -0.0538
 1011BOLB   GL224244  19.680  31.702  24.892 -0.2842 -0.1617 -0.3540
 1011BOLB   C1A24245  19.630  32.259  25.178 -0.1846  0.2635 -0.1740
 1011BOLB   C2A24246  19.392  32.196  25.620  0.3134  0.1448  0.1264
 1011BOLB   C3A24247  18.985  31.970  25.671  0.1691  0.1124  0.2289
 1011BOLB   C4A24248  18.685  31.898  26.059 -0.0337 -0.2104  0.0348
 1011BOLB   C1B24249  19.419  31.400  25.041 -0.4404 -0.2161  0.1198
 1011BOLB   C2B24250  19.051  31.420  25.235 -0.0183 -0.0704 -0.2293
 1011BOLB   C3B24251  18.513  31.322  25.174  0.1402 -0.0336  0.0851
 1011BOLB   C4B24252  18.072  31.109  25.264 -0.2564 -0.1967  0.3414
 1011BOLB   NC224253  16.910  32.813   0.416  0.3583 -0.0343 -0.0403
 1011BOLB   PO224254  16.833  33.005  26.914 -0.1646 -0.1178 -0.2657
 1011BOLB   GL324255  16.753  32.671  26.778 -0.2166 -0.1879  0.4100
 1011BOLB   GL424256  16.948  32.422   0.032 -0.1213 -0.3923 -0.0573
 1011BOLB   C1C24257  17.058  32.508  26.444  0.0387 -0.0297  0.0136
 1011BOLB   C2C24258  17.444  32.323  26.354  0.0735 -0.0052  0.3134
 1011BOLB   C3C24259  17.805  32.255  26.119  0.3022 -0.3248  0.1570
 1011BOLB   C4C24260  18.150  31.969  26.126 -0.3051 -0.0342 -0.1741
 1011BOLB   C1D24261  17.370  32.472   0.022 -0.2105 -0.0424  0.0670
 1011BOLB   C2D24262  17.743  32.718  26.835  0.1760  0.0779 -0.0075
 1011BOLB   C3D24263  17.882  33.127  26.819 -0.0164  0.1577  0.1788
 1011BOLB   C4D24264  18.144  33.396  26.835 -0.2709  0.0729 -0.0021
 1012BOLB   NC124265  20.135  31.407  20.107 -0.0524  0.0128  0.3444
 1012BOLB   PO124266  20.151  31.058  19.876  0.0466  0.2192 -0.1338
 1012BOLB   GL124267  19.648  31.034  19.978  0.4204  0.1524  0.3401
 1012BOLB   GL224268  19.520  31.072  19.618  0.1142 -0.2038 -0.0647
 1012BOLB   C1A24269  19.169  31.006  19.936 -0.3895  0.0512  0.4240
 1012BOLB   C2A24270  18.781  31.161  19.931 -0.2534 -0.0396  0.0458
 1012BOLB   C3A24271  18.463  31.252  19.857  0.0210 -0.0563 -0.1377
 1012BOLB   C4A24272  18.062  31.288  20.065 -0.0197  0.1397  0.0316
 1012BOLB   C1B24273  19.285  31.384  19.540 -0.0443 -0.2951  0.1596
 1012BOLB   C2B24274  18.785  31.233  19.449 -0.1587 -0.1530 -0.1640
 1012BOLB   C3B24275  18.367  31.107  19.235 -0.1935  0.0445 -0.0491
 1012BOLB   C4B24276  17.989  31.107  19.138  0.3624  0.2575  0.3685
 1012BOLB   NC224277  16.010  32.790  20.588 -0.2333  0.1623 -0.1644
 1012BOLB   PO224278  15.860  32.369  20.677 -0.1760  0.0516  0.1185
 1012BOLB   GL324279  16.241  32.342  20.698 -0.0847 -0.0009  0.1348
 1012BOLB   GL424280  16.455  32.555  20.522  0.2939  0.0119 -0.0176
 1012BOLB   C1C24281  16.637  32.034  20.610  0.0027  0.1322 -0.0852
 1012BOLB   C2C24282  16.987  31.980  20.337 -0.1027  0.1468  0.2507
 1012BOLB   C3C24283  17.355  31.763  20.305 -0.1042 -0.1184 -0.1428
 1012BOLB   C4C24284  17.640  31.325  20.161 -0.2180  0.0129  0.0078
 1012BOLB   C1D24285  16.939  32.459  20.462 -0.2704 -0.1035  0.1113
 1012BOLB   C2D24286  17.336  32.338  20.516  0.0553 -0.0051  0.3191
 1012BOLB   C3D24287  17.718  32.315  20.290  0.2422  0.3763 -0.0000
 1012BOLB   C4D24288  18.231  32.244  20.348  0.3664  0.0793 -0.2388
 1013BOLB   NC124289  27.069  33.870   1.581  0.2201  0.2322 -0.0863
 1013BOLB   PO124290  27.515  33.985   1.791 -0.2343  0.2011  0.1638
 1013BOLB   GL124291  27.668  34.275   2.188  0.0753 -0.2199  0.1814
 1013BOLB   GL224292  27.666  34.080   2.494 -0.0977  0.1355 -0.1810
 1013BOLB   C1A24293  27.737  34.570   2.460 -0.0581  0.1433 -0.4607
 1013BOLB   C2A24294  27.695  34.581   2.939  0.0426 -0.3103 -0.1271
 1013BOLB   C3A24295  27.420  34.286   3.395 -0.2440  0.2247  0.0724
 1013BOLB   C4A24296  27.634  34.129   3.770  0.2720 -0.2932  0.3002
 1013BOLB   C1B24297  27.363  34.227   2.828  0.2148 -0.1773  0.1463
 1013BOLB   C2B24298  26.999  34.244   2.993  0.0921  0.0554 -0.1940
 1013BOLB   C3B24299  26.795  34.683   3.006  0.2141  0.1088 -0.1581
 1013BOLB   C4B24300  26.774  35.046   3.313 -0.1149 -0.0816  0.0065
 1013BOLB   NC224301  27.923  35.651   6.145  0.3327  0.0106  0.0429
 1013BOLB   PO224302  27.936  35.507   5.726 -0.2841 -0.0051  0.0198
 1013BOLB   GL324303  27.889  35.095   5.375 -0.3205 -0.3054  0.0371
 1013BOLB   GL424304  28.119  35.176   4.957  0.0574  0.2567 -0.2403
 1013BOLB   C1C24305  27.866  34.753   5.061  0.0451 -0.1471  0.2705
 1013BOLB   C2C24306  28.148  34.680   4.719 -0.1742 -0.0088  0.1402
 1013BOLB   C3C24307  27.944  34.491   4.364  0.1050  0.2118  0.1528
 1013BOLB   C4C24308  27.775  34.131   4.148 -0.0417 -0.2412 -0.3882
 1013BOLB   C1D24309  28.398  34.891   5.125  0.0816 -0.0008  0.0509
 1013BOLB   C2D24310  28.603  34.637   4.905 -0.2648 -0.2977 -0.0985
 1013BOLB   C3D24311  28.590  34.453   4.465  0.1232 -0.0409 -0.2353
 1013BOLB   C4D24312  28.335  34.223   4.194  0.0858 -0.1747  0.0236
 1014BOLB   NC124313  28.177  24.042   7.609  0.2275  0.1344  0.1228
 1014BOLB   PO124314  28.411  23.951   7.277  0.3805  0.2480  0.1838
 1014BOLB   GL124315  28.159  23.665   7.158  0.0937 -0.1193  0.1400
 1014BOLB   GL224316  27.819  23.715   7.295 -0.2182  0.2221 -0.1732
 1014BOLB   C1A24317  27.864  23.397   6.832 -0.0591 -0.3132  0.1237
 1014BOLB   C2A24318  27.731  23.197   6.515  0.2234  0.1770 -0.3725
 1014BOLB   C3A24319  27.475  23.197   6.129  0.4354  0.0514  0.0418
 1014BOLB   C4A24320  27.407  22.875   5.703 -0.2182  0.1034 -0.1463
 1014BOLB   C1B24321  27.517  23.876   7.104  0.0571  0.3193  0.1871
 1014BOLB   C2B24322  27.261  23.972   6.831  0.1383 -0.0194 -0.1683
 1014BOLB   C3B24323  27.133  24.134   6.502 -0.1420 -0.1953  0.0018
 1014BOLB   C4B24324  27.016  24.408   6.162  0.1934 -0.0019  0.0202
 1014BOLB   NC224325  28.736  20.969   6.633 -0.0528  0.1007  0.1220
 1014BOLB   PO224326  28.505  21.293   6.721 -0.0109 -0.7920 -0.0221
 1014BOLB   GL324327  28.352  21.480   6.389  0.0489 -0.2492  0.1870
 1014BOLB   GL424328  28.030  21.649   6.364 -0.1073 -0.0625  0.3438
 1014BOLB   C1C24329  28.409  21.932   6.185  0.1967  0.0054 -0.1125
 1014BOLB   C2C24330  28.359  22.182   5.834  0.0620 -0.3654  0.1592
 1014BOLB   C3C24331  28.028  22.513   5.616  0.1216 -0.0558 -0.0451
 1014BOLB   C4C24332  27.718  22.645   5.469 -0.2856 -0.0520 -0.1449
 1014BOLB   C1D24333  28.113  21.632   5.939 -0.2521 -0.3364 -0.2854
 1014BOLB   C2D24334  28.329  21.779   5.543 -0.0073  0.0417 -0.1017
 1014BOLB   C3D24335  28.561  22.089   5.364  0.4759  0.0304 -0.1837
 1014BOLB   C4D24336  28.516  22.597   5.474  0.1052  0.2615 -0.1625
 1015BOLB   NC124337  16.087  21.169   0.017 -0.0476 -0.0954  0.2048
 1015BOLB   PO124338  16.567  21.222   0.355  0.2105  0.0627 -0.0384
 1015BOLB   GL124339  16.728  21.247  26.852  0.1177  0.0662 -0.0325
 1015BOLB   GL224340  16.936  20.944  26.672  0.1279 -0.0045  0.0388
 1015BOLB   C1A24341  17.113  21.421  26.644 -0.3145 -0.0759 -0.1192
 1015BOLB   C2A24342  17.348  21.832  26.705  0.0575  0.0953  0.2145
 1015BOLB   C3A24343  17.523  22.130  26.528 -0.2294  0.0980 -0.1220
 1015BOLB   C4A24344  17.584  22.604  26.770  0.1291  0.2293 -0.0288
 1015BOLB   C1B24345  17.312  20.947  26.754 -0.0421  0.1759  0.2783
 1015BOLB   C2B24346  17.610  21.383  26.843  0.0348 -0.4142 -0.0120
 1015BOLB   C3B24347  17.865  21.703  26.669 -0.1860  0.1677  0.1162
 1015BOLB   C4B24348  18.019  22.171  26.709 -0.1809 -0.2078 -0.0030
 1015BOLB   NC224349  16.090  23.319   1.771 -0.0326  0.0177  0.1115
 1015BOLB   PO224350  15.963  23.070   1.543 -0.3465 -0.1093 -0.1094
 1015BOLB   GL324351  16.407  22.977   1.254 -0.1920 -0.1204  0.1373
 1015BOLB   GL424352  16.689  22.804   1.130  0.3828 -0.0377  0.2654
 1015BOLB   C1C24353  16.631  23.266   0.998 -0.2366 -0.0145 -0.1559
 1015BOLB   C2C24354  16.962  23.135   0.744  0.3110  0.0110  0.1315
 1015BOLB   C3C24355  17.029  22.974   0.400 -0.3737 -0.0620  0.2869
 1015BOLB   C4C24356  17.416  22.808   0.220  0.2297 -0.2022 -0.2285
 1015BOLB   C1D24357  17.067  22.790   1.092  0.1182 -0.2579 -0.2724
 1015BOLB   C2D24358  17.510  23.027   1.257  0.1233  0.0021  0.0291
 1015BOLB   C3D24359  17.846  23.240   0.979  0.2820  0.0610  0.2071
 1015BOLB   C4D24360  17.928  23.350   0.530 -0.2766 -0.1444 -0.1181
 1016BOLB   NC124361  21.269  35.318   4.046 -0.2073  0.1693  0.2724
 1016BOLB   PO124362  21.475  35.776   4.111 -0.2621  0.2027  0.0721
 1016BOLB   GL124363  21.396  35.724   3.740 -0.1063 -0.1189 -0.0490
 1016BOLB   GL224364  21.606  35.525   3.654  0.0944 -0.4849 -0.0899
 1016BOLB   C1A24365  21.253  35.607   3.232  0.2327  0.0492 -0.1661
 1016BOLB   C2A24366  21.456  35.423   2.963  0.0564  0.0559  0.0605
 1016BOLB   C3A24367  21.734  35.272   2.718  0.0136 -0.2704 -0.0451
 1016BOLB   C4A24368  22.136  35.111   2.679 -0.2487  0.0034  0.1088
 1016BOLB   C1B24369  22.055  35.318   3.690 -0.2195 -0.1709 -0.0771
 1016BOLB   C2B24370  22.618  35.230   3.933  0.2057  0.1666 -0.1033
 1016BOLB   C3B24371  22.837  35.023   3.726  0.0193 -0.0925  0.2968
 1016BOLB   C4B24372  22.585  34.674   3.612  0.1801 -0.1469 -0.2900
 1016BOLB   NC224373  22.637  36.409   3.886  0.1874 -0.1127 -0.0865
 1016BOLB   PO224374  22.374  36.775   3.707 -0.1586 -0.1421  0.2320
 1016BOLB   GL324375  22.700  36.479   3.420 -0.1097 -0.0020  0.0972
 1016BOLB   GL424376  22.515  36.489   3.216  0.2835  0.1280  0.0274
 1016BOLB   C1C24377  22.763  36.092   3.330  0.0890 -0.1494 -0.2843
 1016BOLB   C2C24378  22.878  35.824   3.199  0.0162 -0.0699 -0.2030
 1016BOLB   C3C24379  22.682  35.495   2.971 -0.0583 -0.1990  0.2723
 1016BOLB   C4C24380  22.480  35.236   2.628 -0.0081  0.4384 -0.2274
 1016BOLB   C1D24381  22.472  36.209   2.915 -0.0978 -0.0279  0.1854
 1016BOLB   C2D24382  22.678  36.081   2.787 -0.1749  0.1213  0.3504
 1016BOLB   C3D24383  22.957  35.943   2.469 -0.4075  0.0958 -0.0268
 1016BOLB   C4D24384  23.082  35.998   2.041  0.1100 -0.2029  0.1224
 1017BOLB   NC124385  28.722  28.114   3.273 -0.0897  0.0774  0.0020
 1017BOLB   PO124386  28.446  27.923   3.136 -0.1923 -0.0676 -0.1557
 1017BOLB   GL124387  28.173  27.748   3.330 -0.0146  0.1085 -0.0718
 1017BOLB   GL224388  27.838  27.828   3.186  0.3107 -0.0565 -0.0031
 1017BOLB   C1A24389  27.893  27.949   3.689 -0.2160  0.0743  0.3569
 1017BOLB   C2A24390  27.684  27.739   4.030 -0.4544  0.1375  0.0806
 1017BOLB   C3A24391  27.646  27.869   4.490  0.1007  0.1844 -0.1471
 1017BOLB   C4A24392  27.756  27.744   4.866 -0.1409 -0.0505  0.0648
 1017BOLB   C1B24393  27.670  27.462   3.361 -0.1145 -0.4035  0.1162
 1017BOLB   C2B24394  27.967  27.483   3.742 -0.4018 -0.0597  0.1684
 1017BOLB   C3B24395  28.453  27.442   3.810  0.2095  0.0623 -0.3183
 1017BOLB   C4B24396  28.660  27.604   4.251 -0.5060  0.3275 -0.1254
 1017BOLB   NC224397  27.788  27.587   7.631 -0.2419 -0.4425  0.2465
 1017BOLB   PO224398  27.863  27.252   7.315  0.0050  0.0356  0.5694
 1017BOLB   GL324399  27.563  27.217   7.028  0.0090 -0.1594  0.2430
 1017BOLB   GL424400  27.249  27.421   6.937  0.1338 -0.1877 -0.1285
 1017BOLB   C1C24401  27.646  27.367   6.594 -0.0022 -0.0564 -0.0628
 1017BOLB   C2C24402  27.631  27.702   6.273 -0.1742  0.3342 -0.2093
 1017BOLB   C3C24403  27.643  27.608   5.809  0.1141 -0.0004  0.1934
 1017BOLB   C4C24404  27.651  27.751   5.321  0.2987  0.0454 -0.1912
 1017BOLB   C1D24405  26.948  27.475   6.611  0.1114  0.1079  0.3261
 1017BOLB   C2D24406  27.106  27.777   6.370 -0.2108  0.0482 -0.5306
 1017BOLB   C3D24407  27.350  28.066   6.166  0.4208  0.0011 -0.0220
 1017BOLB   C4D24408  27.810  28.146   6.076  0.2382  0.0338 -0.2483
 1018BOLB   NC124409  22.540  31.469   7.102 -0.3014 -0.0807 -0.2600
 1018BOLB   PO124410  22.647  30.995   6.964 -0.2080  0.1387 -0.0771
 1018BOLB   GL124411  22.475  30.579   6.815 -0.2181  0.3274  0.0944
 1018BOLB   GL224412  22.816  30.234   6.912  0.2910  0.0750 -0.2419
 1018BOLB   C1A24413  22.341  30.145   6.726 -0.1333 -0.2640 -0.3148
 1018BOLB   C2A24414  22.645  29.894   6.550  0.0015 -0.0034 -0.1522
 1018BOLB   C3A24415  23.066  29.627   6.623 -0.1638 -0.3968 -0.0777
 1018BOLB   C4A24416  23.158  29.340   6.861  0.4560  0.0256 -0.1057
 1018BOLB   C1B24417  23.087  30.118   6.486 -0.0128 -0.1169  0.0036
 1018BOLB   C2B24418  23.484  29.959   6.508  0.0304  0.5834 -0.1230
 1018BOLB   C3B24419  23.886  30.028   6.228  0.2255  0.0816  0.1749
 1018BOLB   C4B24420  24.265  30.190   6.099  0.0116 -0.1773 -0.0028
 1018BOLB   NC224421  24.127  28.687   8.226 -0.0887 -0.1987 -0.0839
 1018BOLB   PO224422  23.921  28.201   8.381  0.0448  0.1237  0.0891
 1018BOLB   GL324423  24.196  28.169   8.144 -0.2580  0.0574  0.0821
 1018BOLB   GL424424  24.201  27.877   8.175  0.1192 -0.1140  0.4730
 1018BOLB   C1C24425  24.093  28.144   7.647 -0.0671 -0.0098  0.0000
 1018BOLB   C2C24426  23.626  28.229   7.418 -0.0412  0.2546 -0.1863
 1018BOLB   C3C24427  23.386  28.555   7.201 -0.1278 -0.1341  0.3421
 1018BOLB   C4C24428  23.141  28.901   7.034  0.0093  0.0064  0.2325
 1018BOLB   C1D24429  23.877  27.714   7.902 -0.2126  0.2342 -0.0778
 1018BOLB   C2D24430  23.802  27.751   7.433  0.0352  0.0861  0.3417
 1018BOLB   C3D24431  23.660  27.540   7.022  0.1414 -0.0809  0.0021
 1018BOLB   C4D24432  23.623  27.525   6.590 -0.0083  0.1926 -0.2069
 1019BOLB   NC124433  34.742  27.506  17.747  0.0147 -0.4264  0.0075
 1019BOLB   PO124434  34.954  27.764  18.069  0.2886  0.2016 -0.1375
 1019BOLB   GL124435  35.228  27.749  17.810  0.4239 -0.2228  0.0232
 1019BOLB   GL224436  35.086  27.911  17.552 -0.0957  0.0477 -0.2163
 1019BOLB   C1A24437  35.564  27.820  17.679  0.1127 -0.0572  0.2360
 1019BOLB   C2A24438  35.823  27.714  17.373 -0.2715  0.2126 -0.1665
 1019BOLB   C3A24439  36.096  27.808  17.037 -0.2147  0.0858 -0.0118
 1019BOLB   C4A24440  36.281  27.655  16.697 -0.3325  0.0338  0.1300
 1019BOLB   C1B24441  35.296  27.559  17.347 -0.1192  0.3602 -0.0813
 1019BOLB   C2B24442  35.529  27.478  17.096 -0.4374  0.2086  0.1106
 1019BOLB   C3B24443  35.590  27.582  16.553 -0.2668 -0.1317 -0.1467
 1019BOLB   C4B24444  35.894  27.858  16.461  0.3600  0.2097 -0.3021
 1019BOLB   NC224445  37.751  26.772  14.789  0.3250 -0.0448  0.1789
 1019BOLB   PO224446  37.690  27.196  14.923  0.1654 -0.0274 -0.0698
 1019BOLB   GL324447  37.310  27.133  15.096  0.0433  0.0691  0.1522
 1019BOLB   GL424448  37.000  26.970  14.947  0.2787  0.0166  0.4540
 1019BOLB   C1C24449  37.009  27.245  15.502  0.2378 -0.0840 -0.3132
 1019BOLB   C2C24450  36.861  27.620  15.629  0.1678 -0.0006  0.1390
 1019BOLB   C3C24451  36.608  27.670  15.951  0.1901 -0.2583  0.0068
 1019BOLB   C4C24452  36.397  27.576  16.306  0.1049  0.1997  0.0616
 1019BOLB   C1D24453  36.712  26.928  15.274 -0.0023 -0.2060 -0.0279
 1019BOLB   C2D24454  36.412  26.987  15.640  0.1198  0.1636 -0.1340
 1019BOLB   C3D24455  36.195  27.218  15.942 -0.2836  0.0830 -0.1693
 1019BOLB   C4D24456  35.902  27.399  16.243 -0.0727 -0.2393 -0.0364
 1020BOLB   NC124457  24.147  36.593  19.696 -0.0327  0.1792 -0.1139
 1020BOLB   PO124458  24.333  36.588  20.116 -0.0298  0.2040 -0.1489
 1020BOLB   GL124459  24.111  36.997  20.231  0.0053  0.3850 -0.1844
 1020BOLB   GL224460  23.988  37.056  20.590  0.1263  0.0505  0.1463
 1020BOLB   C1A24461  23.781  37.332  20.248  0.3042 -0.2324  0.0029
 1020BOLB   C2A24462  23.552  37.713  20.130 -0.3428 -0.5016 -0.1588
 1020BOLB   C3A24463  23.462  38.147  20.155  0.1773 -0.0482  0.0578
 1020BOLB   C4A24464  23.413  38.574  19.963 -0.0181  0.3824 -0.0523
 1020BOLB   C1B24465  23.519  37.254  20.669 -0.3738  0.0993 -0.1078
 1020BOLB   C2B24466  23.254  37.605  20.462 -0.0530 -0.0947  0.0840
 1020BOLB   C3B24467  23.039  38.040  20.407  0.1547 -0.0720  0.0863
 1020BOLB   C4B24468  22.940  38.565  20.362 -0.1441 -0.0182  0.1359
 1020BOLB   NC224469  21.796  40.588  19.796  0.3052 -0.0397 -0.1826
 1020BOLB   PO224470  22.028  40.546  19.415 -0.0046  0.1313  0.0865
 1020BOLB   GL324471  22.287  40.258  19.375  0.0257 -0.1636  0.2930
 1020BOLB   GL424472  22.348  40.067  19.080 -0.0836 -0.0896  0.0531
 1020BOLB   C1C24473  22.549  40.009  19.537 -0.3310 -0.1136  0.0918
 1020BOLB   C2C24474  22.550  39.569  19.648 -0.1504  0.2351 -0.1999
 1020BOLB   C3C24475  22.835  39.147  19.638  0.1450 -0.3848 -0.2914
 1020BOLB   C4C24476  23.300  39.010  19.724  0.1792  0.2834 -0.1335
 1020BOLB   C1D24477  22.548  39.654  19.133 -0.1706 -0.0828  0.0050
 1020BOLB   C2D24478  22.725  39.277  19.093  0.1097  0.0471  0.0167
 1020BOLB   C3D24479  22.723  38.841  19.149  0.1899 -0.0799  0.1536
 1020BOLB   C4D24480  22.855  38.318  19.242  0.1630  0.3099  0.2098
 1021BOLB   NC124481  23.412  18.679  16.346 -0.1901  0.2145 -0.2188
 1021BOLB   PO124482  23.048  18.534  16.650 -0.2563 -0.0785  0.0592
 1021BOLB   GL124483  23.033  18.784  16.979  0.0636 -0.1628 -0.1545
 1021BOLB   GL224484  22.614  18.864  17.089  0.1187 -0.1095 -0.2858
 1021BOLB   C1A24485  23.306  18.781  17.302 -0.0248  0.0239 -0.3682
 1021BOLB   C2A24486  23.405  19.049  17.635 -0.0602  0.2073  0.0437
 1021BOLB   C3A24487  23.713  19.294  17.800  0.3124  0.1265  0.1981
 1021BOLB   C4A24488  23.848  19.589  18.164 -0.3957  0.3677  0.1524
 1021BOLB   C1B24489  22.892  19.195  16.908 -0.3435 -0.0765  0.0034
 1021BOLB   C2B24490  23.109  19.339  17.241 -0.1886  0.2446 -0.0003
 1021BOLB   C3B24491  23.354  19.566  17.579 -0.0420 -0.1187 -0.1367
 1021BOLB   C4B24492  23.520  19.957  17.809  0.1378  0.0150  0.1253
 1021BOLB   NC224493  25.181  21.665  19.117 -0.0387 -0.0233  0.0185
 1021BOLB   PO224494  24.767  21.828  18.969  0.1125  0.0263 -0.0615
 1021BOLB   GL324495  24.450  21.506  19.012  0.2302 -0.2072 -0.2834
 1021BOLB   GL424496  24.368  21.548  18.618  0.1959  0.2588  0.1310
 1021BOLB   C1C24497  24.279  21.123  18.876 -0.0122  0.3166 -0.1009
 1021BOLB   C2C24498  24.099  20.830  18.602 -0.0695 -0.2387 -0.2008
 1021BOLB   C3C24499  23.887  20.389  18.489 -0.0803 -0.3312  0.2767
 1021BOLB   C4C24500  23.880  19.964  18.272 -0.0027 -0.0713  0.0948
 1021BOLB   C1D24501  23.897  21.333  18.561 -0.1802 -0.0069 -0.1264
 1021BOLB   C2D24502  23.673  21.012  18.453  0.0724 -0.3719 -0.1886
 1021BOLB   C3D24503  23.427  20.715  18.328  0.0489  0.1526  0.2447
 1021BOLB   C4D24504  23.499  20.332  18.212  0.1413  0.0261  0.0068
 1022BOLB   NC124505  30.723  29.587  14.511  0.1400 -0.3141 -0.1584
 1022BOLB   PO124506  30.993  29.354  14.438 -0.4757  0.0737 -0.1116
 1022BOLB   GL124507  31.310  29.157  14.161 -0.3188  0.0776  0.0025
 1022BOLB   GL224508  31.618  29.281  14.160 -0.0883  0.1708  0.0854
 1022BOLB   C1A24509  31.380  28.967  13.821  0.3013  0.1484  0.1717
 1022BOLB   C2A24510  31.564  28.810  13.386 -0.2235  0.0137 -0.0368
 1022BOLB   C3A24511  31.891  28.760  13.086  0.0222  0.0152  0.0582
 1022BOLB   C4A24512  31.906  28.449  12.781 -0.0755  0.1664  0.0033
 1022BOLB   C1B24513  31.786  29.276  13.745 -0.0466  0.0645  0.0454
 1022BOLB   C2B24514  31.954  29.262  13.443  0.1630  0.0698 -0.0196
 1022BOLB   C3B24515  32.334  29.232  13.399  0.1612 -0.3649 -0.0675
 1022BOLB   C4B24516  32.743  29.026  13.211 -0.0460  0.3043 -0.0706
 1022BOLB   NC224517  32.530  28.283  10.231 -0.1363  0.0178 -0.1805
 1022BOLB   PO224518  32.208  28.007  10.518  0.1276  0.0259 -0.4249
 1022BOLB   GL324519  32.185  27.904  10.979  0.0379 -0.1755 -0.2170
 1022BOLB   GL424520  32.083  28.181  11.172  0.0221 -0.1508  0.0664
 1022BOLB   C1C24521  32.005  27.720  11.358 -0.2419  0.2634 -0.2599
 1022BOLB   C2C24522  31.898  27.751  11.776 -0.0681  0.0805  0.2092
 1022BOLB   C3C24523  31.869  27.886  12.189  0.1842 -0.0332 -0.1648
 1022BOLB   C4C24524  31.840  28.132  12.453 -0.3213  0.1101 -0.6316
 1022BOLB   C1D24525  31.969  28.337  11.535  0.1418 -0.1273 -0.0689
 1022BOLB   C2D24526  31.863  28.419  11.974 -0.1131  0.2240  0.1317
 1022BOLB   C3D24527  31.639  28.584  12.401  0.1028 -0.1760 -0.0650
 1022BOLB   C4D24528  31.452  29.017  12.561  0.2610  0.0083 -0.1852
 1023BOLB   NC124529  19.728  20.938   4.065 -0.1102 -0.2097 -0.3796
 1023BOLB   PO124530  19.768  21.336   4.137  0.1993  0.1807  0.0547
 1023BOLB   GL124531  19.937  21.742   4.088  0.2345  0.0305 -0.0879
 1023BOLB   GL224532  19.731  22.058   3.958  0.0471 -0.3654  0.0741
 1023BOLB   C1A24533  20.238  21.966   3.955  0.2282 -0.1191 -0.1252
 1023BOLB   C2A24534  20.674  22.062   3.961 -0.0173  0.2245 -0.1290
 1023BOLB   C3A24535  21.015  22.030   3.740  0.0420 -0.1176  0.0985
 1023BOLB   C4A24536  21.197  21.728   3.614  0.1828  0.0700 -0.0248
 1023BOLB   C1B24537  19.725  22.580   3.939 -0.1351 -0.0014  0.1219
 1023BOLB   C2B24538  19.657  22.951   3.707 -0.0460  0.0792  0.1810
 1023BOLB   C3B24539  19.646  23.314   3.553  0.1674 -0.2073 -0.2238
 1023BOLB   C4B24540  19.626  23.555   3.238 -0.3250 -0.0749  0.0523
 1023BOLB   NC224541  21.347  19.416   3.918 -0.2003 -0.0846 -0.0975
 1023BOLB   PO224542  21.031  19.550   4.196 -0.0086  0.0637  0.0894
 1023BOLB   GL324543  21.153  19.896   3.938 -0.0370  0.2809 -0.1254
 1023BOLB   GL424544  21.449  19.809   3.645 -0.3902  0.1695  0.1573
 1023BOLB   C1C24545  21.246  20.240   3.735  0.0816 -0.1800  0.2102
 1023BOLB   C2C24546  21.436  20.606   3.551 -0.2066  0.2036 -0.1498
 1023BOLB   C3C24547  21.366  21.048   3.474 -0.0895 -0.1473 -0.0064
 1023BOLB   C4C24548  21.372  21.420   3.641 -0.3412 -0.0950  0.0538
 1023BOLB   C1D24549  21.769  20.100   3.353  0.1060  0.2129 -0.4900
 1023BOLB   C2D24550  21.845  20.514   3.152 -0.0834 -0.0439 -0.0014
 1023BOLB   C3D24551  21.761  20.916   3.244  0.0417 -0.0919 -0.0198
 1023BOLB   C4D24552  21.729  21.146   2.956  0.2487 -0.3117  0.0333
 1024BOLB   NC124553  29.551  18.843   2.366 -0.0619  0.1802  0.0457
 1024BOLB   PO124554  29.429  18.467   2.104 -0.0630 -0.3763  0.1651
 1024BOLB   GL124555  29.173  18.813   1.943  0.1110  0.2768 -0.0426
 1024BOLB   GL224556  29.024  18.648   1.666 -0.0581 -0.0928 -0.1336
 1024BOLB   C1A24557  28.747  19.081   1.794 -0.1473  0.2706 -0.0956
 1024BOLB   C2A24558  28.661  19.400   1.463  0.0945  0.0059 -0.0454
 1024BOLB   C3A24559  28.727  19.638   1.115  0.0062 -0.5107 -0.2001
 1024BOLB   C4A24560  28.903  19.569   0.689 -0.5858 -0.0422 -0.2797
 1024BOLB   C1B24561  28.687  18.835   1.307 -0.4008 -0.2072 -0.3228
 1024BOLB   C2B24562  28.266  18.923   1.142  0.0734  0.1550 -0.0404
 1024BOLB   C3B24563  28.104  19.129   0.815  0.1167  0.0940 -0.3528
 1024BOLB   C4B24564  27.791  19.305   0.521 -0.2812  0.0118  0.2366
 1024BOLB   NC224565  29.884  17.753  26.246 -0.2332  0.2932  0.0334
 1024BOLB   PO224566  29.375  17.871  26.279  0.1786  0.2075  0.0787
 1024BOLB   GL324567  29.150  18.121  26.371  0.1123  0.5842  0.0110
 1024BOLB   GL424568  29.204  18.390  26.054  0.1386  0.0802  0.1423
 1024BOLB   C1C24569  29.114  18.527  26.486 -0.0321 -0.0242 -0.2956
 1024BOLB   C2C24570  29.011  18.982  26.562  0.1841 -0.1488 -0.1685
 1024BOLB   C3C24571  29.055  19.291  26.913  0.2229 -0.0429  0.0481
 1024BOLB   C4C24572  28.948  19.376   0.417  0.0354  0.0120 -0.0888
 1024BOLB   C1D24573  29.073  18.730  26.055 -0.1360  0.2300 -0.1143
 1024BOLB   C2D24574  28.876  19.086  26.118  0.0571 -0.4035  0.1245
 1024BOLB   C3D24575  28.705  19.459  26.284  0.0178 -0.1728  0.0890
 1024BOLB   C4D24576  28.882  19.798  26.592  0.1914 -0.0977 -0.1708
 1025BOLB   NC124577  32.518  24.750  26.620 -0.0186 -0.1918 -0.2193
 1025BOLB   PO124578  32.789  24.771  26.316  0.1065 -0.2172  0.0375
 1025BOLB   GL124579  32.956  24.417  26.590 -0.1016 -0.1371 -0.0589
 1025BOLB   GL224580  32.680  24.228  26.684  0.4007  0.4401  0.1756
 1025BOLB   C1A24581  33.168  24.042  26.552  0.0983  0.0790  0.1593
 1025BOLB   C2A24582  33.577  23.815  26.577 -0.0762  0.4167 -0.3311
 1025BOLB   C3A24583  33.961  23.524  26.459 -0.2243  0.1219  0.0570
 1025BOLB   C4A24584  34.200  23.202  26.570  0.0723 -0.1974 -0.4216
 1025BOLB   C1B24585  32.980  24.042   0.062 -0.6619 -0.1866  0.2198
 1025BOLB   C2B24586  33.117  24.268   0.285 -0.2627 -0.1701 -0.0480
 1025BOLB   C3B24587  33.120  24.317   0.673 -0.0615 -0.3717  0.0402
 1025BOLB   C4B24588  33.337  24.113   1.031  0.1024  0.0575 -0.2297
 1025BOLB   NC224589  35.371  22.771   1.919  0.1473  0.2049  0.1666
 1025BOLB   PO224590  35.315  22.665   1.449  0.1990 -0.4243  0.2985
 1025BOLB   GL324591  35.215  23.053   1.094  0.0632 -0.1654 -0.2713
 1025BOLB   GL424592  35.295  23.295   1.137 -0.0268  0.2296  0.1568
 1025BOLB   C1C24593  34.922  23.154   0.791  0.1633  0.0484  0.0128
 1025BOLB   C2C24594  34.667  23.037   0.469 -0.0912 -0.1400 -0.1204
 1025BOLB   C3C24595  34.381  22.754   0.297 -0.0769 -0.1084 -0.0107
 1025BOLB   C4C24596  34.314  22.851  26.829 -0.3183  0.1409 -0.0194
 1025BOLB   C1D24597  35.223  23.688   0.925  0.1344 -0.0483  0.3612
 1025BOLB   C2D24598  34.959  24.047   0.801  0.1952  0.1232 -0.0986
 1025BOLB   C3D24599  34.767  24.268   0.678  0.1981 -0.0795  0.0784
 1025BOLB   C4D24600  34.430  24.317   0.420 -0.1433  0.0897 -0.1033
 1026BOLB   NC124601  20.390  16.391  18.879  0.1996 -0.3152 -0.1384
 1026BOLB   PO124602  19.995  16.517  18.678 -0.1075 -0.2236 -0.1820
 1026BOLB   GL124603  20.077  16.834  19.036  0.2474 -0.1189 -0.0477
 1026BOLB   GL224604  19.903  16.782  19.360 -0.2689  0.4583 -0.0975
 1026BOLB   C1A24605  20.421  17.183  19.001 -0.1879  0.1904 -0.0847
 1026BOLB   C2A24606  20.511  17.446  19.336 -0.4820  0.1093 -0.1308
 1026BOLB   C3A24607  20.736  17.783  19.531  0.0808  0.1887  0.1314
 1026BOLB   C4A24608  20.637  17.974  19.962 -0.3441  0.0994  0.0856
 1026BOLB   C1B24609  19.941  17.217  19.481 -0.4687  0.1131 -0.0927
 1026BOLB   C2B24610  19.826  17.495  19.699  0.0072  0.2405  0.0349
 1026BOLB   C3B24611  19.742  17.827  19.914 -0.0389  0.2364  0.2802
 1026BOLB   C4B24612  20.057  18.158  19.999  0.0217  0.0372 -0.4980
 1026BOLB   NC224613  18.674  16.647  20.905  0.1616 -0.1056 -0.2001
 1026BOLB   PO224614  19.001  16.770  21.257  0.0949  0.3953  0.3666
 1026BOLB   GL324615  19.192  17.017  21.055 -0.1963 -0.2735 -0.0227
 1026BOLB   GL424616  19.465  17.020  21.353  0.0470 -0.1048  0.1218
 1026BOLB   C1C24617  19.475  17.337  20.887 -0.2317  0.0388 -0.0739
 1026BOLB   C2C24618  19.780  17.523  20.691 -0.0321 -0.0420 -0.1349
 1026BOLB   C3C24619  19.972  17.887  20.391 -0.1812  0.4728  0.1666
 1026BOLB   C4C24620  20.425  18.133  20.382  0.1937  0.0347  0.1073
 1026BOLB   C1D24621  19.816  17.128  21.393 -0.0902  0.2577 -0.0562
 1026BOLB   C2D24622  20.144  17.134  21.563 -0.1036  0.2445  0.2164
 1026BOLB   C3D24623  20.654  17.060  21.608  0.0710 -0.0238 -0.2747
 1026BOLB   C4D24624  21.101  16.784  21.892  0.0281 -0.1558 -0.3087
 1027BOLB   NC124625  13.871  25.710   0.324 -0.2177 -0.0802  0.0891
 1027BOLB   PO124626  13.881  25.888   0.644 -0.1561  0.1457 -0.0639
 1027BOLB   GL124627  14.276  26.053   0.453 -0.0802  0.2586 -0.0013
 1027BOLB   GL224628  14.160  26.231   0.218 -0.1511  0.0144  0.0504
 1027BOLB   C1A24629  14.690  26.041   0.473  0.1693 -0.1460 -0.2305
 1027BOLB   C2A24630  15.126  25.981   0.367  0.2444 -0.0400 -0.0485
 1027BOLB   C3A24631  15.492  25.657   0.507 -0.0208 -0.3374 -0.2682
 1027BOLB   C4A24632  15.864  25.561   0.710  0.1585 -0.0655 -0.1484
 1027BOLB   C1B24633  14.535  26.468   0.184 -0.1275  0.1435 -0.0365
 1027BOLB   C2B24634  14.854  26.505   0.090 -0.2327  0.4650 -0.3947
 1027BOLB   C3B24635  14.891  26.539  26.590  0.0440  0.0065  0.0467
 1027BOLB   C4B24636  14.906  26.601  26.152 -0.2297 -0.0027 -0.3666
 1027BOLB   NC224637  14.916  24.372   0.950  0.3685  0.2525  0.1768
 1027BOLB   PO224638  14.900  23.902   1.024 -0.0826 -0.0709 -0.1218
 1027BOLB   GL324639  15.222  24.039   0.665 -0.2979 -0.2875  0.0635
 1027BOLB   GL424640  15.211  23.904   0.370  0.1056  0.0648 -0.2791
 1027BOLB   C1C24641  15.646  24.057   0.706 -0.1624 -0.0730 -0.2551
 1027BOLB   C2C24642  15.861  24.441   0.919 -0.2805 -0.0451 -0.1630
 1027BOLB   C3C24643  16.062  24.812   0.797  0.3439 -0.0064  0.0565
 1027BOLB   C4C24644  16.116  25.277   0.761  0.3415 -0.0189 -0.2381
 1027BOLB   C1D24645  15.572  24.106   0.208  0.1873 -0.5073  0.0299
 1027BOLB   C2D24646  15.946  24.295   0.399 -0.0544  0.0213  0.0354
 1027BOLB   C3D24647  16.306  24.420   0.581  0.3616  0.0540  0.0965
 1027BOLB   C4D24648  16.546  24.715   0.950  0.2172 -0.1819 -0.1499
 1028BOLB   NC124649  26.639  36.977   4.880  0.4044 -0.1292  0.1944
 1028BOLB   PO124650  27.030  36.923   5.152 -0.1159  0.1056  0.1653
 1028BOLB   GL124651  26.941  36.654   4.662 -0.0298  0.0069  0.1317
 1028BOLB   GL224652  27.168  36.581   4.509  0.2118 -0.1078  0.0953
 1028BOLB   C1A24653  26.708  36.569   4.352 -0.0340 -0.1078  0.1851
 1028BOLB   C2A24654  26.736  36.399   3.869 -0.2682  0.2034  0.0795
 1028BOLB   C3A24655  26.608  36.275   3.498 -0.0407 -0.1494 -0.2947
 1028BOLB   C4A24656  26.594  36.215   3.160 -0.0008 -0.1776  0.1383
 1028BOLB   C1B24657  27.038  36.216   4.487  0.1371 -0.0220 -0.1756
 1028BOLB   C2B24658  26.728  35.978   4.307  0.0276  0.0020 -0.1614
 1028BOLB   C3B24659  26.396  35.745   4.469  0.1923 -0.1091 -0.0575
 1028BOLB   C4B24660  25.995  35.498   4.620  0.0751  0.5070  0.1533
 1028BOLB   NC224661  26.637  35.569   1.199 -0.0580 -0.0444 -0.0942
 1028BOLB   PO224662  26.428  35.256   1.326  0.0676 -0.3010 -0.0292
 1028BOLB   GL324663  26.419  35.554   1.704  0.1249 -0.1266  0.1311
 1028BOLB   GL424664  26.094  35.438   1.738 -0.2303  0.1618 -0.1093
 1028BOLB   C1C24665  26.292  35.924   1.745 -0.0778  0.1941  0.0703
 1028BOLB   C2C24666  26.548  36.325   1.901  0.0936  0.0017 -0.2285
 1028BOLB   C3C24667  26.654  36.400   2.285 -0.1406  0.5054  0.0463
 1028BOLB   C4C24668  26.500  36.223   2.693  0.3151  0.3707 -0.0829
 1028BOLB   C1D24669  26.031  35.653   2.103 -0.2158  0.2974  0.0490
 1028BOLB   C2D24670  25.671  35.912   2.295 -0.3830  0.0524  0.3524
 1028BOLB   C3D24671  25.285  36.036   2.364 -0.0425  0.2186 -0.0814
 1028BOLB   C4D24672  24.907  35.988   2.708  0.2157 -0.0809  0.1415
 1029BOLB   NC124673  26.178  21.355  21.252 -0.1642  0.2896  0.2023
 1029BOLB   PO124674  26.604  21.257  21.460  0.0934 -0.0539  0.0534
 1029BOLB   GL124675  26.749  20.773  21.302  0.1995  0.0375  0.0707
 1029BOLB   GL224676  26.718  20.659  21.009  0.0237  0.2378 -0.0750
 1029BOLB   C1A24677  26.815  20.335  21.378 -0.1236  0.1369  0.1917
 1029BOLB   C2A24678  26.922  19.845  21.205 -0.2060 -0.0391 -0.1428
 1029BOLB   C3A24679  27.228  19.529  21.377 -0.0123  0.2874  0.3346
 1029BOLB   C4A24680  27.268  19.030  21.462 -0.0590  0.1886  0.1998
 1029BOLB   C1B24681  26.528  20.135  21.008 -0.1009  0.0655  0.1526
 1029BOLB   C2B24682  26.419  19.797  21.137  0.0171  0.2196 -0.4191
 1029BOLB   C3B24683  26.303  19.611  21.538 -0.0829  0.1767 -0.0092
 1029BOLB   C4B24684  26.151  19.465  21.859 -0.1436 -0.0273  0.0177
 1029BOLB   NC224685  26.862  17.029  20.797 -0.0534 -0.4587  0.0832
 1029BOLB   PO224686  27.301  16.981  20.952  0.0426  0.0488  0.2422
 1029BOLB   GL324687  26.981  17.083  21.352 -0.0468 -0.2589 -0.0242
 1029BOLB   GL424688  27.318  17.271  21.531 -0.0904  0.1412  0.0452
 1029BOLB   C1C24689  26.866  17.388  21.689 -0.1948  0.2602 -0.2631
 1029BOLB   C2C24690  26.657  17.906  21.734 -0.0302 -0.1011 -0.1753
 1029BOLB   C3C24691  26.884  18.269  21.591  0.3312  0.1521 -0.0157
 1029BOLB   C4C24692  26.924  18.747  21.585 -0.4547 -0.0393  0.1493
 1029BOLB   C1D24693  27.469  17.639  21.262  0.0756  0.1563 -0.1333
 1029BOLB   C2D24694  27.302  18.011  21.194 -0.4216  0.3364 -0.3477
 1029BOLB   C3D24695  27.428  18.242  20.930 -0.0086  0.2705 -0.0351
 1029BOLB   C4D24696  27.308  18.468  20.543 -0.1345  0.1680  0.4171
 1030BOLB   NC124697  32.188  28.560   1.669  0.2714 -0.0226 -0.0656
 1030BOLB   PO124698  32.223  28.585   2.046 -0.2036 -0.0730 -0.0594
 1030BOLB   GL124699  32.405  28.437   2.404 -0.1749  0.5564 -0.5438
 1030BOLB   GL224700  32.488  28.743   2.411  0.1472 -0.1066 -0.0768
 1030BOLB   C1A24701  32.609  28.254   2.788  0.0076 -0.2172 -0.0852
 1030BOLB   C2A24702  32.513  28.128   3.196 -0.5054 -0.0302  0.1617
 1030BOLB   C3A24703  32.787  28.087   3.546 -0.0156 -0.2384 -0.3380
 1030BOLB   C4A24704  32.845  27.848   3.910 -0.2454  0.1834 -0.0987
 1030BOLB   C1B24705  32.864  28.674   2.645  0.0872  0.1012 -0.0379
 1030BOLB   C2B24706  33.214  28.768   2.916  0.2157 -0.2458 -0.1715
 1030BOLB   C3B24707  33.601  28.791   2.888 -0.0957  0.1026 -0.0885
 1030BOLB   C4B24708  33.991  28.906   2.668  0.3402  0.1271 -0.0034
 1030BOLB   NC224709  33.181  27.442   5.780  0.2214  0.1847 -0.4515
 1030BOLB   PO224710  33.081  27.059   5.775 -0.0804 -0.1449  0.2094
 1030BOLB   GL324711  32.752  27.001   5.398 -0.1272 -0.0076  0.0092
 1030BOLB   GL424712  32.530  26.885   5.363  0.1430 -0.0226  0.0079
 1030BOLB   C1C24713  32.759  27.124   5.059 -0.0745 -0.1979  0.1725
 1030BOLB   C2C24714  32.976  27.375   4.823 -0.0575  0.4091 -0.4832
 1030BOLB   C3C24715  32.886  27.586   4.437  0.1326 -0.0157  0.2728
 1030BOLB   C4C24716  32.976  27.767   4.193 -0.0611 -0.0373 -0.0382
 1030BOLB   C1D24717  32.340  27.312   5.334  0.0749  0.3882 -0.2111
 1030BOLB   C2D24718  32.450  27.477   4.946  0.0726 -0.1417  0.0955
 1030BOLB   C3D24719  32.375  27.553   4.565  0.3956 -0.1545  0.1496
 1030BOLB   C4D24720  32.421  27.793   4.186  0.2267 -0.0818 -0.2716
 1031BOLB   NC124721  24.513  30.604  13.929 -0.2271 -0.0776 -0.2448
 1031BOLB   PO124722  24.815  30.551  13.598 -0.0275  0.1306 -0.0396
 1031BOLB   GL124723  24.555  30.772  13.217  0.3192  0.1472 -0.0173
 1031BOLB   GL224724  24.433  31.094  13.153  0.1979  0.1702  0.1905
 1031BOLB   C1A24725  24.218  30.603  13.051 -0.0895  0.3737 -0.1449
 1031BOLB   C2A24726  24.053  30.369  12.714  0.2493  0.0475  0.0745
 1031BOLB   C3A24727  24.177  30.108  12.391 -0.1208  0.1810 -0.2639
 1031BOLB   C4A24728  24.137  29.842  12.189 -0.1014  0.0184  0.0426
 1031BOLB   C1B24729  24.099  31.122  12.976  0.1319  0.2144  0.1601
 1031BOLB   C2B24730  23.792  30.991  12.718  0.0063 -0.0192 -0.1574
 1031BOLB   C3B24731  23.776  30.685  12.355 -0.0982 -0.0509 -0.1785
 1031BOLB   C4B24732  23.406  30.537  12.133  0.1262  0.0997  0.1172
 1031BOLB   NC224733  24.313  30.550   9.835  0.1562  0.0163  0.3464
 1031BOLB   PO224734  24.673  30.307   9.618  0.2066  0.1478  0.0950
 1031BOLB   GL324735  24.757  30.449  10.072 -0.2835 -0.0941 -0.3496
 1031BOLB   GL424736  24.733  30.788  10.188  0.0914  0.2922 -0.2147
 1031BOLB   C1C24737  24.687  30.200  10.492  0.2776 -0.3924 -0.2207
 1031BOLB   C2C24738  24.572  30.138  10.961 -0.0992 -0.0556  0.0008
 1031BOLB   C3C24739  24.277  29.884  11.345 -0.2784 -0.0034  0.0717
 1031BOLB   C4C24740  24.136  29.862  11.741  0.2288 -0.1863 -0.3187
 1031BOLB   C1D24741  24.905  31.017  10.569  0.3091  0.1420 -0.0445
 1031BOLB   C2D24742  24.995  30.960  10.994 -0.1178  0.1553 -0.1189
 1031BOLB   C3D24743  24.896  31.153  11.431 -0.3254 -0.2267 -0.0892
 1031BOLB   C4D24744  24.845  31.389  11.759 -0.0778 -0.0724 -0.0858
 1032BOLB   NC124745  37.085  27.719   1.953  0.2212  0.2016 -0.1849
 1032BOLB   PO124746  36.980  28.098   2.017  0.1388 -0.0778 -0.2712
 1032BOLB   GL124747  36.608  28.312   1.889 -0.2069  0.1694  0.0267
 1032BOLB   GL224748  36.653  28.661   1.938  0.0553 -0.0399 -0.2885
 1032BOLB   C1A24749  36.545  28.468   1.478 -0.1588  0.3463 -0.0380
 1032BOLB   C2A24750  36.218  28.359   1.188  0.1629  0.1737 -0.3285
 1032BOLB   C3A24751  36.038  28.525   0.835 -0.0745 -0.0569 -0.1585
 1032BOLB   C4A24752  35.697  28.718   0.735 -0.3604  0.0102 -0.1865
 1032BOLB   C1B24753  36.393  28.881   2.220 -0.1694  0.1137  0.0060
 1032BOLB   C2B24754  36.259  29.206   2.434  0.1914  0.3291 -0.0566
 1032BOLB   C3B24755  35.880  29.503   2.321  0.2063 -0.2550 -0.0396
 1032BOLB   C4B24756  35.473  29.374   2.299  0.1819  0.2046 -0.1355
 1032BOLB   NC224757  33.330  28.912  25.901  0.1595  0.2158 -0.1886
 1032BOLB   PO224758  33.642  29.016  26.292 -0.0820  0.0073 -0.1698
 1032BOLB   GL324759  33.937  29.223  26.560  0.1289 -0.1971  0.2245
 1032BOLB   GL424760  34.017  29.567  26.645 -0.2950 -0.2135  0.2594
 1032BOLB   C1C24761  34.202  29.097  26.872 -0.1760  0.2172  0.2635
 1032BOLB   C2C24762  34.595  29.119   0.227  0.3285 -0.4231 -0.1209
 1032BOLB   C3C24763  35.031  29.096   0.297  0.1413  0.1235  0.0836
 1032BOLB   C4C24764  35.400  29.021   0.592 -0.0455  0.1138 -0.1413
 1032BOLB   C1D24765  34.435  29.583  26.810 -0.0482 -0.0662 -0.0145
 1032BOLB   C2D24766  34.821  29.578   0.067  0.0478  0.1146 -0.1094
 1032BOLB   C3D24767  35.145  29.544   0.330 -0.1451  0.0136  0.3393
 1032BOLB   C4D24768  35.483  29.531   0.510 -0.0703 -0.0558 -0.4877
 1033BOLB   NC124769  31.857  23.683  25.206  0.4908 -0.0016 -0.0777
 1033BOLB   PO124770  31.898  23.384  25.449  0.2200  0.3237  0.0289
 1033BOLB   GL124771  32.204  23.085  25.546  0.1125 -0.1506  0.0869
 1033BOLB   GL224772  32.303  23.081  25.825  0.0839 -0.1819  0.3106
 1033BOLB   C1A24773  32.286  22.620  25.557  0.0371  0.1560  0.1793
 1033BOLB   C2A24774  32.295  22.194  25.594  0.1397 -0.0780  0.1042
 1033BOLB   C3A24775  32.423  21.905  25.976 -0.0607 -0.1373 -0.1583
 1033BOLB   C4A24776  32.715  21.704  26.273 -0.1394 -0.0175  0.0954
 1033BOLB   C1B24777  32.343  22.713  26.047  0.2883  0.1488 -0.2473
 1033BOLB   C2B24778  32.589  22.392  25.921 -0.2925  0.0015  0.3790
 1033BOLB   C3B24779  33.037  22.575  26.059 -0.2041  0.0158  0.3432
 1033BOLB   C4B24780  33.452  22.517  26.352 -0.1956 -0.2526 -0.0459
 1033BOLB   NC224781  34.600  20.844   0.487 -0.1594  0.0418 -0.0739
 1033BOLB   PO224782  34.802  20.662   0.082  0.0790  0.1320 -0.2147
 1033BOLB   GL324783  34.531  21.036   0.017  0.2746  0.2827  0.0200
 1033BOLB   GL424784  34.769  21.198  26.729  0.0378 -0.0346  0.2094
 1033BOLB   C1C24785  34.189  21.112  26.713 -0.3368  0.0691  0.1003
 1033BOLB   C2C24786  33.993  21.365  26.509 -0.1043 -0.1618 -0.0670
 1033BOLB   C3C24787  33.633  21.524  26.283 -0.3795  0.1982  0.1307
 1033BOLB   C4C24788  33.202  21.642  26.080  0.1168  0.0097  0.0027
 1033BOLB   C1D24789  34.631  21.521  26.546 -0.0210 -0.2327 -0.4798
 1033BOLB   C2D24790  34.289  21.749  26.363  0.0061  0.0598 -0.0555
 1033BOLB   C3D24791  33.930  21.958  26.097  0.1184 -0.0447  0.0166
 1033BOLB   C4D24792  33.542  22.143  25.985  0.0076 -0.0057  0.0974
 1034BOLB   NC124793  30.003  23.975  16.588 -0.2836 -0.1477  0.1768
 1034BOLB   PO124794  29.645  23.765  16.445  0.0759 -0.0365 -0.2409
 1034BOLB   GL124795  29.744  23.550  16.116  0.1972  0.0409  0.3791
 1034BOLB   GL224796  30.025  23.718  16.099  0.0709  0.3895  0.2095
 1034BOLB   C1A24797  29.941  23.355  15.834  0.0312 -0.2058 -0.0108
 1034BOLB   C2A24798  30.121  23.146  15.457  0.1025  0.4159 -0.1209
 1034BOLB   C3A24799  30.295  22.800  15.190  0.1042 -0.2044 -0.2475
 1034BOLB   C4A24800  30.313  22.524  14.872  0.2448 -0.1382 -0.0987
 1034BOLB   C1B24801  30.333  23.427  16.351 -0.0293  0.1969 -0.0214
 1034BOLB   C2B24802  30.696  23.165  16.341  0.2668  0.1477 -0.1189
 1034BOLB   C3B24803  30.937  22.960  15.940  0.0401 -0.0218 -0.0114
 1034BOLB   C4B24804  31.011  23.000  15.443  0.0229 -0.1083 -0.1568
 1034BOLB   NC224805  31.049  21.667  12.788 -0.0291  0.4605 -0.1839
 1034BOLB   PO224806  30.975  21.459  13.196  0.0993 -0.1116  0.2174
 1034BOLB   GL324807  31.065  21.593  13.541 -0.2637 -0.1446 -0.1559
 1034BOLB   GL424808  31.250  21.857  13.637 -0.1374 -0.0595 -0.3031
 1034BOLB   C1C24809  30.925  21.639  13.906 -0.0717  0.3868  0.1894
 1034BOLB   C2C24810  30.969  21.787  14.269 -0.0856 -0.1243  0.1126
 1034BOLB   C3C24811  30.856  22.104  14.559  0.1342 -0.1486  0.1517
 1034BOLB   C4C24812  30.562  22.334  14.718  0.1174  0.0515 -0.2776
 1034BOLB   C1D24813  30.778  21.987  13.563 -0.4597 -0.0772 -0.2816
 1034BOLB   C2D24814  30.712  22.336  13.498  0.1707  0.2642  0.2048
 1034BOLB   C3D24815  30.364  22.771  13.517 -0.1161 -0.0663 -0.3143
 1034BOLB   C4D24816  30.256  23.122  13.213  0.0932 -0.0871  0.3415
 1035BOLB   NC124817  32.571  23.483  18.854  0.0693  0.3443  0.0776
 1035BOLB   PO124818  32.750  23.747  18.647 -0.0109 -0.4027  0.3341
 1035BOLB   GL124819  33.030  23.511  18.432 -0.0606 -0.0379 -0.0115
 1035BOLB   GL224820  33.097  23.306  18.605 -0.0006  0.1989  0.0628
 1035BOLB   C1A24821  33.218  23.154  18.138 -0.3008  0.1725  0.0692
 1035BOLB   C2A24822  33.570  22.915  18.051 -0.0494  0.0184  0.2364
 1035BOLB   C3A24823  34.008  22.825  17.962 -0.0139  0.0087 -0.1793
 1035BOLB   C4A24824  34.183  22.401  18.048 -0.2079 -0.0316  0.0243
 1035BOLB   C1B24825  33.301  22.937  18.618  0.5053 -0.1343 -0.0564
 1035BOLB   C2B24826  33.437  22.539  18.794 -0.2873 -0.3393  0.0615
 1035BOLB   C3B24827  33.547  22.303  19.173  0.1350  0.0464 -0.2260
 1035BOLB   C4B24828  33.847  22.080  19.138  0.1141  0.3487  0.3025
 1035BOLB   NC224829  36.332  22.228  18.072  0.0480 -0.0085  0.0646
 1035BOLB   PO224830  36.100  21.807  18.143  0.2451 -0.0092 -0.0829
 1035BOLB   GL324831  35.952  22.106  18.462  0.0146  0.1298 -0.0127
 1035BOLB   GL424832  36.205  22.281  18.525  0.0256  0.1918 -0.3797
 1035BOLB   C1C24833  35.512  22.240  18.568 -0.1064 -0.0407  0.3509
 1035BOLB   C2C24834  35.141  21.960  18.478 -0.1048 -0.2232  0.1558
 1035BOLB   C3C24835  34.666  21.822  18.501 -0.2222  0.3169 -0.0465
 1035BOLB   C4C24836  34.327  22.042  18.325  0.1755  0.2162  0.2571
 1035BOLB   C1D24837  35.994  22.471  18.924  0.2742  0.0651  0.1158
 1035BOLB   C2D24838  35.683  22.479  19.094  0.2237 -0.1119 -0.3506
 1035BOLB   C3D24839  35.224  22.517  19.374  0.0716  0.2971 -0.0897
 1035BOLB   C4D24840  35.119  22.543  19.813  0.0160  0.1164  0.2412
 1036BOLB   NC124841  29.865  37.119  24.241 -0.2899 -0.0437  0.3837
 1036BOLB   PO124842  30.011  37.524  24.167 -0.2991  0.0754 -0.0232
 1036BOLB   GL124843  30.194  38.028  24.213  0.1006 -0.0364 -0.1077
 1036BOLB   GL224844  29.991  38.248  24.002  0.1666  0.2163  0.0637
 1036BOLB   C1A24845  30.477  38.288  24.080 -0.1738 -0.0518  0.1082
 1036BOLB   C2A24846  30.794  38.627  24.208  0.0269 -0.2129 -0.0840
 1036BOLB   C3A24847  31.125  38.680  24.274 -0.0634 -0.2913  0.4648
 1036BOLB   C4A24848  31.357  38.928  24.552 -0.0823 -0.0870  0.1383
 1036BOLB   C1B24849  30.080  38.547  24.272 -0.2491 -0.1125 -0.0597
 1036BOLB   C2B24850  30.373  38.532  24.524  0.0342  0.2606 -0.1824
 1036BOLB   C3B24851  30.410  38.828  24.806  0.0591  0.1523 -0.1738
 1036BOLB   C4B24852  30.708  39.130  25.037  0.0552  0.2105 -0.2185
 1036BOLB   NC224853  32.482  40.741  25.741  0.1804 -0.0963 -0.1963
 1036BOLB   PO224854  32.752  40.540  25.555 -0.1637  0.1212  0.0294
 1036BOLB   GL324855  32.553  40.154  25.578 -0.0817 -0.1462  0.0327
 1036BOLB   GL424856  32.207  40.268  25.780 -0.0885 -0.2233  0.0817
 1036BOLB   C1C24857  32.523  39.811  25.228 -0.1678  0.1368 -0.0684
 1036BOLB   C2C24858  32.195  39.610  25.108 -0.2129  0.0378 -0.0017
 1036BOLB   C3C24859  32.065  39.413  24.718 -0.0513  0.1903  0.1483
 1036BOLB   C4C24860  31.686  39.280  24.528 -0.2051 -0.2467  0.2363
 1036BOLB   C1D24861  31.875  39.987  25.755 -0.0176 -0.0750 -0.2511
 1036BOLB   C2D24862  31.460  40.000  25.773  0.2585  0.2459  0.1254
 1036BOLB   C3D24863  31.049  40.137  25.978 -0.0027  0.1001 -0.1221
 1036BOLB   C4D24864  30.707  40.205  26.004 -0.0836  0.0288  0.0472
 1037BOLB   NC124865  33.589  32.344  16.761 -0.2686 -0.0864  0.1008
 1037BOLB   PO124866  33.690  32.837  16.605  0.1610 -0.1337  0.0431
 1037BOLB   GL124867  33.831  33.029  16.244  0.1390  0.0110  0.0078
 1037BOLB   GL224868  33.767  32.998  15.871  0.0454 -0.1716 -0.0299
 1037BOLB   C1A24869  34.160  33.365  16.187  0.3956 -0.1523  0.3157
 1037BOLB   C2A24870  34.387  33.565  16.025 -0.3237 -0.1370  0.0753
 1037BOLB   C3A24871  34.812  33.817  15.861  0.0389 -0.1957 -0.0409
 1037BOLB   C4A24872  35.052  33.761  15.543  0.3194  0.0153 -0.4130
 1037BOLB   C1B24873  33.916  33.408  15.757  0.1104 -0.0961  0.1432
 1037BOLB   C2B24874  34.156  33.597  15.479  0.1426 -0.2466  0.0009
 1037BOLB   C3B24875  34.414  33.960  15.512 -0.0120 -0.0087  0.3218
 1037BOLB   C4B24876  34.718  33.970  15.218 -0.0121 -0.0014  0.1351
 1037BOLB   NC224877  36.210  34.716  13.479 -0.1699 -0.2305  0.0795
 1037BOLB   PO224878  36.064  34.709  13.811  0.0615 -0.2080 -0.0173
 1037BOLB   GL324879  35.934  34.512  14.086  0.2254 -0.0610 -0.1634
 1037BOLB   GL424880  35.636  34.460  13.896 -0.0653 -0.0135  0.0080
 1037BOLB   C1C24881  35.881  34.316  14.443  0.2701 -0.1203  0.0001
 1037BOLB   C2C24882  35.633  34.226  14.761  0.0589 -0.1829  0.1479
 1037BOLB   C3C24883  35.441  33.934  15.049 -0.1460 -0.3604  0.1035
 1037BOLB   C4C24884  35.190  33.818  15.192  0.0920  0.3557  0.1169
 1037BOLB   C1D24885  35.238  34.535  13.944  0.1250 -0.0407  0.0985
 1037BOLB   C2D24886  34.868  34.489  14.054  0.2221 -0.1199  0.0492
 1037BOLB   C3D24887  34.612  34.505  14.434 -0.0688  0.2841  0.0237
 1037BOLB   C4D24888  34.302  34.197  14.683 -0.0404  0.0244  0.1501
 1038BOLB   NC124889  23.148  35.806  21.240  0.1838  0.1509  0.1046
 1038BOLB   PO124890  22.918  36.078  21.027  0.2412 -0.1346  0.2571
 1038BOLB   GL124891  22.769  36.438  21.144 -0.0505  0.1370 -0.2916
 1038BOLB   GL224892  22.992  36.638  21.336 -0.2861  0.1096 -0.2694
 1038BOLB   C1A24893  22.299  36.623  21.222 -0.0655  0.0405  0.2806
 1038BOLB   C2A24894  21.894  36.777  21.246 -0.2755 -0.4448 -0.1002
 1038BOLB   C3A24895  21.689  37.075  21.442 -0.0384  0.0449 -0.5607
 1038BOLB   C4A24896  21.465  37.318  21.746 -0.0448  0.0541  0.0465
 1038BOLB   C1B24897  22.760  37.081  21.414 -0.2790  0.0630  0.1812
 1038BOLB   C2B24898  22.526  37.412  21.611 -0.1369  0.3240  0.1396
 1038BOLB   C3B24899  22.421  37.790  21.787 -0.0007 -0.1430 -0.1538
 1038BOLB   C4B24900  22.240  38.205  21.653  0.0612 -0.3274  0.0279
 1038BOLB   NC224901  19.926  39.131  22.089 -0.2523 -0.1546  0.2105
 1038BOLB   PO224902  20.437  39.343  21.972 -0.0719  0.1913 -0.0680
 1038BOLB   GL324903  20.382  38.892  22.200 -0.2722  0.2481  0.0499
 1038BOLB   GL424904  20.599  38.954  22.445  0.0392  0.1268  0.0840
 1038BOLB   C1C24905  20.509  38.428  22.288  0.1645  0.1897  0.2162
 1038BOLB   C2C24906  20.673  38.024  22.258  0.3385  0.1621 -0.0447
 1038BOLB   C3C24907  20.993  37.769  22.308  0.0498 -0.1924  0.0857
 1038BOLB   C4C24908  21.288  37.561  22.117  0.1166  0.1087  0.2947
 1038BOLB   C1D24909  20.999  38.803  22.692  0.1075 -0.1466 -0.0099
 1038BOLB   C2D24910  21.430  38.770  22.664 -0.0854 -0.0059  0.1562
 1038BOLB   C3D24911  21.863  38.767  22.622 -0.0783  0.1316 -0.0083
 1038BOLB   C4D24912  22.164  38.528  22.330 -0.1242 -0.3131  0.2372
 1039BOLB   NC124913  23.555  34.585  26.895  0.1336 -0.2256  0.2339
 1039BOLB   PO124914  23.321  34.658   0.315  0.0688  0.0864  0.1912
 1039BOLB   GL124915  23.410  35.011   0.415  0.0632 -0.2535  0.2217
 1039BOLB   GL224916  23.227  35.251   0.244 -0.0755  0.3291 -0.2670
 1039BOLB   C1A24917  23.590  35.536   0.273 -0.0012 -0.0885  0.0724
 1039BOLB   C2A24918  23.454  35.864   0.596  0.0354 -0.2257 -0.1061
 1039BOLB   C3A24919  23.229  36.197   0.824  0.0704 -0.0158  0.1540
 1039BOLB   C4A24920  23.001  36.485   1.048 -0.2574  0.1530  0.0280
 1039BOLB   C1B24921  23.036  35.618   0.425  0.0103 -0.1431  0.1722
 1039BOLB   C2B24922  22.833  35.907   0.682 -0.4234 -0.2258  0.0933
 1039BOLB   C3B24923  22.615  36.012   1.117 -0.0331  0.0917 -0.2712
 1039BOLB   C4B24924  22.126  36.071   1.461 -0.0129  0.0318 -0.1139
 1039BOLB   NC224925  22.250  37.891   2.632  0.0504 -0.2444  0.1923
 1039BOLB   PO224926  22.239  38.202   2.399 -0.2211 -0.0054 -0.2012
 1039BOLB   GL324927  22.259  37.795   2.093 -0.0143 -0.0026 -0.0183
 1039BOLB   GL424928  22.058  37.761   1.811 -0.1217  0.0175  0.2291
 1039BOLB   C1C24929  22.579  37.419   1.899  0.2106  0.2309  0.3058
 1039BOLB   C2C24930  22.835  37.383   1.558  0.0901  0.2458 -0.0395
 1039BOLB   C3C24931  22.986  37.235   1.161 -0.1604 -0.2592  0.0875
 1039BOLB   C4C24932  22.976  36.920   0.962  0.0042 -0.1139 -0.1097
 1039BOLB   C1D24933  22.025  37.477   1.475  0.3005  0.1857 -0.2470
 1039BOLB   C2D24934  22.244  37.115   1.219  0.0138  0.0698 -0.3930
 1039BOLB   C3D24935  22.476  36.883   0.932  0.1004 -0.0129  0.0535
 1039BOLB   C4D24936  22.364  36.661   0.586 -0.2303 -0.0703  0.1314
 1040BOLB   NC124937  35.182  26.260  12.435  0.2921 -0.1184  0.0191
 1040BOLB   PO124938  35.347  26.168  12.795  0.1269 -0.0521 -0.5113
 1040BOLB   GL124939  35.386  26.505  13.115 -0.0128 -0.1869  0.2568
 1040BOLB   GL224940  35.107  26.593  13.216 -0.0946 -0.2782  0.0054
 1040BOLB   C1A24941  35.516  26.660  13.529  0.0140 -0.1779 -0.1708
 1040BOLB   C2A24942  35.831  27.058  13.658  0.0889 -0.0946 -0.3611
 1040BOLB   C3A24943  35.781  27.361  13.874  0.1768  0.3142 -0.2086
 1040BOLB   C4A24944  35.704  27.732  13.773 -0.3601 -0.3422 -0.3495
 1040BOLB   C1B24945  35.107  26.350  13.561  0.0015  0.4107  0.3479
 1040BOLB   C2B24946  35.432  26.385  14.004  0.0425  0.0446 -0.2933
 1040BOLB   C3B24947  35.774  26.234  14.365 -0.0850  0.2078  0.1330
 1040BOLB   C4B24948  36.040  25.974  14.673  0.2594 -0.2440  0.0958
 1040BOLB   NC224949  36.028  30.144  12.428  0.0384 -0.1911 -0.0111
 1040BOLB   PO224950  36.066  29.910  12.793 -0.0448  0.1503  0.1269
 1040BOLB   GL324951  35.700  29.706  12.934 -0.0314 -0.0405 -0.3588
 1040BOLB   GL424952  35.615  29.777  13.275  0.2903 -0.1033  0.3753
 1040BOLB   C1C24953  35.575  29.289  13.061 -0.1729 -0.0632  0.0206
 1040BOLB   C2C24954  35.721  28.885  13.288  0.1517  0.1600 -0.0768
 1040BOLB   C3C24955  35.717  28.672  13.755  0.1876 -0.0791 -0.0073
 1040BOLB   C4C24956  35.672  28.199  13.884  0.1852 -0.1602 -0.0942
 1040BOLB   C1D24957  35.237  29.595  13.308 -0.1688 -0.1633  0.1645
 1040BOLB   C2D24958  34.858  29.482  13.145  0.1014 -0.2322  0.2136
 1040BOLB   C3D24959  34.459  29.404  12.900  0.2323 -0.0024  0.0609
 1040BOLB   C4D24960  34.102  29.600  12.786  0.1484 -0.2965  0.1232
 1041BOLB   NC124961  21.577  29.305  15.949  0.2446  0.5062 -0.0921
 1041BOLB   PO124962  21.243  29.290  16.156  0.2421 -0.1479  0.1497
 1041BOLB   GL124963  21.032  29.330  15.756 -0.1312  0.1849  0.0280
 1041BOLB   GL224964  20.862  29.554  15.828  0.4068  0.0479  0.4627
 1041BOLB   C1A24965  20.955  29.345  15.299  0.1440 -0.0876 -0.1857
 1041BOLB   C2A24966  20.682  29.316  15.064  0.3611 -0.0748  0.1444
 1041BOLB   C3A24967  20.306  29.221  14.992  0.0218  0.0393  0.0611
 1041BOLB   C4A24968  19.926  29.209  14.857 -0.3147  0.0337  0.2108
 1041BOLB   C1B24969  20.568  29.569  15.485 -0.1822 -0.0007  0.0300
 1041BOLB   C2B24970  20.053  29.494  15.395  0.2404 -0.0653  0.2454
 1041BOLB   C3B24971  19.585  29.468  15.502 -0.1012  0.0640  0.0233
 1041BOLB   C4B24972  19.114  29.501  15.446 -0.0854 -0.0507 -0.2550
 1041BOLB   NC224973  17.577  29.596  14.057 -0.0925 -0.0402 -0.0883
 1041BOLB   PO224974  17.729  30.013  14.346 -0.0389  0.0884  0.0695
 1041BOLB   GL324975  18.055  29.738  14.508 -0.2100  0.3509  0.0276
 1041BOLB   GL424976  18.014  29.453  14.432 -0.0751  0.1592  0.1465
 1041BOLB   C1C24977  18.400  29.578  14.768 -0.3716 -0.1952  0.0785
 1041BOLB   C2C24978  18.604  29.182  14.809 -0.0605  0.3728 -0.2552
 1041BOLB   C3C24979  19.001  28.906  14.694  0.1575  0.2043 -0.0137
 1041BOLB   C4C24980  19.457  29.013  14.764  0.1765  0.1053  0.0131
 1041BOLB   C1D24981  18.452  29.421  14.309 -0.3597 -0.1892  0.1317
 1041BOLB   C2D24982  18.865  29.340  14.458 -0.0944 -0.0198 -0.1067
 1041BOLB   C3D24983  19.128  29.433  14.627 -0.3485  0.2227  0.0328
 1041BOLB   C4D24984  19.372  29.465  14.984 -0.0059  0.1182 -0.1942
 1042BOLB   NC124985  28.503  35.883  26.547 -0.3954  0.0955  0.1513
 1042BOLB   PO124986  28.288  36.217  26.779  0.0161  0.3317  0.1016
 1042BOLB   GL124987  28.357  36.446   0.166  0.1689  0.0388 -0.0531
 1042BOLB   GL224988  28.064  36.631   0.141  0.2346  0.0475 -0.0323
 1042BOLB   C1A24989  28.422  36.676   0.484 -0.1893 -0.2823  0.1446
 1042BOLB   C2A24990  28.279  37.109   0.733  0.3344  0.0887 -0.3142
 1042BOLB   C3A24991  28.225  37.463   0.921  0.0235 -0.0811 -0.1372
 1042BOLB   C4A24992  28.293  37.836   1.207  0.1861 -0.2226  0.1188
 1042BOLB   C1B24993  27.915  36.949   0.387 -0.3081 -0.1316 -0.2969
 1042BOLB   C2B24994  27.834  37.334   0.621  0.0773 -0.2314 -0.1289
 1042BOLB   C3B24995  27.742  37.715   0.997 -0.0539  0.1465 -0.1761
 1042BOLB   C4B24996  27.840  38.033   1.347 -0.2621 -0.2867  0.0365
 1042BOLB   NC224997  28.525  39.466   3.166 -0.1512 -0.0583  0.0712
 1042BOLB   PO224998  28.615  39.529   2.677 -0.1096 -0.0123  0.1490
 1042BOLB   GL324999  28.727  39.119   2.478 -0.3108 -0.1195  0.2117
 1042BOLB   GL425000  28.609  38.932   2.823  0.4128  0.1440 -0.3154
 1042BOLB   C1C25001  28.778  38.768   2.084 -0.0663  0.2898  0.0285
 1042BOLB   C2C25002  28.469  38.538   1.914  0.0057  0.0426  0.1073
 1042BOLB   C3C25003  28.248  38.588   1.494  0.2997  0.1363 -0.0479
 1042BOLB   C4C25004  28.328  38.361   1.159 -0.0201  0.0952  0.1190
 1042BOLB   C1D25005  28.808  38.662   2.578 -0.1268 -0.3360 -0.2378
 1042BOLB   C2D25006  28.690  38.367   2.349 -0.0514 -0.0624 -0.1488
 1042BOLB   C3D25007  28.753  38.179   2.054  0.2533  0.0625 -0.0161
 1042BOLB   C4D25008  28.898  37.830   1.941 -0.1682  0.0850 -0.0623
 1043BOLB   NC125009  29.275  27.319   2.393 -0.2977 -0.3204 -0.1031
 1043BOLB   PO125010  29.111  27.431   2.792  0.0104  0.1297 -0.0040
 1043BOLB   GL125011  29.438  27.146   3.005  0.0367 -0.0437  0.2329
 1043BOLB   GL225012  29.559  26.922   2.832  0.1248  0.0310  0.2012
 1043BOLB   C1A25013  29.603  27.131   3.462  0.1378  0.1936  0.1684
 1043BOLB   C2A25014  29.982  26.991   3.638  0.0263 -0.1826  0.1102
 1043BOLB   C3A25015  30.430  26.847   3.781  0.0562 -0.0616 -0.0812
 1043BOLB   C4A25016  30.862  26.684   3.916 -0.0116  0.2258 -0.2244
 1043BOLB   C1B25017  29.381  26.533   3.054  0.2400  0.3150  0.0674
 1043BOLB   C2B25018  29.070  26.378   3.220 -0.2216  0.1140  0.2193
 1043BOLB   C3B25019  28.990  26.149   3.568  0.1576  0.0647 -0.1355
 1043BOLB   C4B25020  28.796  25.972   3.897 -0.6349  0.2201 -0.0492
 1043BOLB   NC225021  32.696  25.510   4.890  0.2735 -0.1023  0.3274
 1043BOLB   PO225022  32.319  25.487   5.193 -0.1781  0.0520 -0.0926
 1043BOLB   GL325023  32.101  25.721   4.907 -0.3038 -0.0046  0.1306
 1043BOLB   GL425024  32.259  25.554   4.634 -0.1149 -0.1010 -0.0637
 1043BOLB   C1C25025  31.991  26.084   4.687  0.1579 -0.0232 -0.4921
 1043BOLB   C2C25026  31.852  26.357   4.332 -0.0572 -0.0541 -0.0994
 1043BOLB   C3C25027  31.632  26.604   4.111 -0.0428 -0.1631  0.0511
 1043BOLB   C4C25028  31.252  26.768   4.125 -0.0257  0.2857  0.0906
 1043BOLB   C1D25029  32.463  25.803   4.281 -0.1537 -0.0670 -0.0207
 1043BOLB   C2D25030  32.252  25.741   3.859  0.1574 -0.0104 -0.0099
 1043BOLB   C3D25031  32.009  25.463   3.607 -0.0910 -0.1980 -0.2242
 1043BOLB   C4D25032  31.791  25.159   3.453  0.2637 -0.0039 -0.2108
 1044BOLB   NC125033  31.684  24.836   0.123  0.0366 -0.0906 -0.0836
 1044BOLB   PO125034  31.839  25.224   0.323  0.4455 -0.0297  0.4367
 1044BOLB   GL125035  31.999  24.990   0.604  0.1091 -0.4292 -0.0919
 1044BOLB   GL225036  31.776  24.821   0.636  0.0588  0.1747 -0.0128
 1044BOLB   C1A25037  32.081  24.696   1.000 -0.2636  0.1623  0.3526
 1044BOLB   C2A25038  32.277  24.783   1.329 -0.1761 -0.2960  0.1929
 1044BOLB   C3A25039  32.631  24.962   1.565  0.3106 -0.1018  0.0089
 1044BOLB   C4A25040  32.775  24.870   1.976 -0.2672  0.1862 -0.0206
 1044BOLB   C1B25041  31.790  24.411   0.749 -0.2197 -0.1426  0.0455
 1044BOLB   C2B25042  32.067  24.135   1.005  0.0610 -0.3114  0.3037
 1044BOLB   C3B25043  32.391  24.305   1.215 -0.2032  0.3026  0.0486
 1044BOLB   C4B25044  32.702  24.459   1.616 -0.0139 -0.0130  0.0836
 1044BOLB   NC225045  34.257  24.925   3.920  0.0028  0.3621 -0.2817
 1044BOLB   PO225046  34.111  24.475   4.000  0.2467  0.1382  0.1056
 1044BOLB   GL325047  33.777  24.701   3.738 -0.0228  0.0274 -0.0913
 1044BOLB   GL425048  33.866  24.985   3.625 -0.0728 -0.1155 -0.0764
 1044BOLB   C1C25049  33.628  24.666   3.293  0.1920 -0.2811 -0.0339
 1044BOLB   C2C25050  33.365  24.722   2.966  0.1662  0.2863 -0.0113
 1044BOLB   C3C25051  33.071  24.773   2.697 -0.0224 -0.0553 -0.2398
 1044BOLB   C4C25052  32.826  24.876   2.396 -0.0606 -0.3399  0.0156
 1044BOLB   C1D25053  33.515  25.176   3.358 -0.2857 -0.2100 -0.0689
 1044BOLB   C2D25054  33.263  25.265   2.982  0.2161  0.0376 -0.1092
 1044BOLB   C3D25055  33.252  25.287   2.566 -0.1581  0.1808 -0.1531
 1044BOLB   C4D25056  33.004  25.329   2.133 -0.1944 -0.1158  0.1429
 1045BOLB   NC125057  34.299  19.904  17.387 -0.2552  0.0701 -0.0375
 1045BOLB   PO125058  33.785  20.071  17.382 -0.1520  0.3552 -0.1575
 1045BOLB   GL125059  33.442  20.426  17.355  0.1506 -0.0030 -0.0350
 1045BOLB   GL225060  33.105  20.425  17.063 -0.1222  0.3410 -0.1200
 1045BOLB   C1A25061  33.322  20.783  17.521 -0.3345  0.2015 -0.1775
 1045BOLB   C2A25062  32.909  20.901  17.730 -0.1198  0.1734 -0.5462
 1045BOLB   C3A25063  32.591  21.141  17.914  0.2270  0.0511  0.1717
 1045BOLB   C4A25064  32.378  21.511  18.161  0.0962 -0.2689 -0.2785
 1045BOLB   C1B25065  32.866  20.798  17.094 -0.2194 -0.0805  0.1663
 1045BOLB   C2B25066  32.611  21.241  17.061 -0.0297  0.0708  0.2979
 1045BOLB   C3B25067  32.448  21.697  17.148 -0.0677  0.2675  0.4305
 1045BOLB   C4B25068  32.344  22.085  17.345  0.0051 -0.2438 -0.0203
 1045BOLB   NC225069  30.513  23.910  18.235  0.0243  0.0745  0.1612
 1045BOLB   PO225070  30.874  23.664  18.003  0.0125  0.2389  0.0742
 1045BOLB   GL325071  31.196  23.263  17.915  0.2073 -0.1752  0.2957
 1045BOLB   GL425072  31.567  23.270  17.905 -0.0021  0.1738 -0.0313
 1045BOLB   C1C25073  31.464  22.825  18.057  0.1740  0.1871 -0.1764
 1045BOLB   C2C25074  31.673  22.417  18.007 -0.1411  0.1147 -0.0560
 1045BOLB   C3C25075  31.728  22.018  18.184  0.0456  0.1819  0.2058
 1045BOLB   C4C25076  31.998  21.750  18.128 -0.1241  0.0092 -0.0692
 1045BOLB   C1D25077  31.992  23.038  17.754  0.1540  0.2973 -0.1281
 1045BOLB   C2D25078  32.078  22.662  17.611 -0.0837 -0.3165  0.2134
 1045BOLB   C3D25079  31.933  22.254  17.539 -0.2123 -0.1745  0.0767
 1045BOLB   C4D25080  31.902  21.759  17.592 -0.1575 -0.2466 -0.0443
 1046BOLB   NC125081  30.772  17.693  18.176  0.1243 -0.2244  0.1772
 1046BOLB   PO125082  30.904  17.917  18.527  0.0042 -0.1014 -0.2104
 1046BOLB   GL125083  30.963  18.409  18.563  0.0672 -0.0101 -0.1587
 1046BOLB   GL225084  31.260  18.616  18.582 -0.2549  0.1107 -0.1599
 1046BOLB   C1A25085  30.775  18.727  18.836 -0.2245 -0.1268 -0.2004
 1046BOLB   C2A25086  30.642  18.935  19.159  0.4360  0.0514  0.1329
 1046BOLB   C3A25087  30.670  19.109  19.584 -0.2405 -0.2584  0.2257
 1046BOLB   C4A25088  30.471  19.515  19.706  0.1258 -0.1016  0.2188
 1046BOLB   C1B25089  31.344  18.971  18.805 -0.1916 -0.0423 -0.0184
 1046BOLB   C2B25090  31.372  19.430  18.960  0.2737 -0.0069 -0.0323
 1046BOLB   C3B25091  31.220  19.769  19.112 -0.0502 -0.0399  0.0918
 1046BOLB   C4B25092  30.905  19.917  19.255  0.1416  0.2999 -0.1394
 1046BOLB   NC225093  29.649  21.704  19.808  0.3485  0.0764  0.3663
 1046BOLB   PO225094  29.940  21.865  20.018  0.4647  0.0861  0.0427
 1046BOLB   GL325095  30.155  21.524  19.682  0.1064 -0.1076 -0.1133
 1046BOLB   GL425096  29.950  21.395  19.473  0.2833  0.1296  0.0981
 1046BOLB   C1C25097  30.542  21.205  19.731  0.0167 -0.2974  0.1704
 1046BOLB   C2C25098  30.689  20.787  19.738  0.0538 -0.0817  0.0381
 1046BOLB   C3C25099  30.588  20.359  19.680  0.3132 -0.1934 -0.0783
 1046BOLB   C4C25100  30.397  19.887  19.619 -0.0680  0.0496  0.1145
 1046BOLB   C1D25101  30.175  21.152  19.271 -0.2139 -0.2808  0.0920
 1046BOLB   C2D25102  30.476  20.744  19.259 -0.0388  0.3164 -0.1408
 1046BOLB   C3D25103  30.414  20.316  19.251 -0.1341 -0.5187  0.0271
 1046BOLB   C4D25104  30.221  19.971  19.119  0.1475 -0.0146  0.2320
 1047BOLB   NC125105  27.813  26.648  14.662 -0.3528  0.0106 -0.1976
 1047BOLB   PO125106  27.574  26.211  14.670  0.1814  0.0646  0.0456
 1047BOLB   GL125107  27.454  25.986  14.242  0.0781 -0.1541  0.1726
 1047BOLB   GL225108  27.658  25.833  14.269 -0.1580  0.1370 -0.0410
 1047BOLB   C1A25109  27.666  25.722  13.762  0.0975  0.2351  0.1497
 1047BOLB   C2A25110  27.625  25.368  13.481  0.4677 -0.1818 -0.2088
 1047BOLB   C3A25111  27.707  25.147  13.061  0.0115  0.2028 -0.2937
 1047BOLB   C4A25112  27.577  24.958  12.722 -0.2763 -0.1624 -0.0302
 1047BOLB   C1B25113  27.353  25.501  14.109 -0.1091 -0.2524 -0.2908
 1047BOLB   C2B25114  27.067  25.146  13.881 -0.1509  0.0866 -0.0559
 1047BOLB   C3B25115  27.229  24.945  13.554 -0.1464 -0.3957  0.0137
 1047BOLB   C4B25116  27.533  24.771  13.275  0.3462  0.0112 -0.3038
 1047BOLB   NC225117  27.345  23.188  11.659 -0.3513  0.2636 -0.1204
 1047BOLB   PO225118  27.142  23.326  11.349 -0.0173  0.2756 -0.0968
 1047BOLB   GL325119  27.389  23.660  11.530  0.3776  0.1735  0.0211
 1047BOLB   GL425120  27.778  23.786  11.563  0.0335 -0.2898  0.0723
 1047BOLB   C1C25121  27.167  23.943  11.744  0.0512 -0.0683  0.1259
 1047BOLB   C2C25122  27.061  24.197  12.028  0.1311 -0.2746  0.1164
 1047BOLB   C3C25123  27.104  24.359  12.300  0.1478 -0.0651  0.0680
 1047BOLB   C4C25124  27.244  24.738  12.475  0.0907 -0.1953  0.1706
 1047BOLB   C1D25125  27.619  24.089  11.813  0.1266 -0.1959 -0.0442
 1047BOLB   C2D25126  27.571  24.433  12.138  0.0659  0.2012  0.2749
 1047BOLB   C3D25127  27.791  24.496  12.540 -0.0078  0.1725  0.5014
 1047BOLB   C4D25128  27.916  24.694  12.955 -0.0340  0.3445 -0.1219
 1048BOLB   NC125129  32.363  32.725   1.626 -0.2578  0.1987  0.1219
 1048BOLB   PO125130  32.755  32.927   1.717 -0.0387  0.3437  0.5966
 1048BOLB   GL125131  32.869  33.216   2.022 -0.0143  0.4083  0.1350
 1048BOLB   GL225132  33.077  32.964   2.110  0.1858 -0.1718  0.0549
 1048BOLB   C1A25133  33.034  33.640   1.922  0.0536 -0.2474  0.1707
 1048BOLB   C2A25134  32.894  34.125   1.917  0.0581  0.2310  0.1413
 1048BOLB   C3A25135  33.037  34.428   2.174 -0.2138  0.4866  0.0790
 1048BOLB   C4A25136  33.184  34.856   2.292 -0.2259 -0.2638 -0.0616
 1048BOLB   C1B25137  33.552  32.871   2.138  0.2407  0.1513 -0.1551
 1048BOLB   C2B25138  33.992  32.819   2.139  0.3525 -0.0184 -0.1918
 1048BOLB   C3B25139  34.196  32.895   1.769 -0.4067 -0.1025  0.1187
 1048BOLB   C4B25140  34.240  32.938   1.288  0.0316  0.0916  0.3028
 1048BOLB   NC225141  34.247  37.083   3.185  0.1668  0.3132 -0.0563
 1048BOLB   PO225142  33.895  37.161   2.895 -0.3007 -0.0683 -0.0333
 1048BOLB   GL325143  33.795  36.786   2.671 -0.0550  0.2695  0.0293
 1048BOLB   GL425144  33.560  36.938   2.624 -0.2305  0.3851  0.1042
 1048BOLB   C1C25145  33.833  36.341   2.616 -0.4920  0.0335 -0.1361
 1048BOLB   C2C25146  33.621  36.022   2.441  0.0222 -0.0206 -0.2497
 1048BOLB   C3C25147  33.359  35.670   2.433  0.0018 -0.1325  0.0451
 1048BOLB   C4C25148  33.411  35.209   2.403 -0.1063  0.1553 -0.0271
 1048BOLB   C1D25149  33.308  36.671   2.297  0.1572 -0.2007  0.4211
 1048BOLB   C2D25150  32.993  36.730   2.026  0.1263  0.1310 -0.1703
 1048BOLB   C3D25151  32.644  36.472   1.872 -0.2385  0.1869  0.1312
 1048BOLB   C4D25152  32.463  36.015   1.798  0.1367 -0.0924  0.3051
 1049BOLB   NC125153  37.662  37.711  19.011 -0.0181  0.0071  0.2300
 1049BOLB   PO125154  37.359  37.922  19.044 -0.0279 -0.2037 -0.0224
 1049BOLB   GL125155  37.110  37.538  19.169  0.1748  0.1569  0.4610
 1049BOLB   GL225156  37.316  37.233  19.159  0.1309  0.0643  0.1117
 1049BOLB   C1A25157  36.786  37.356  19.231 -0.0070  0.0446 -0.4118
 1049BOLB   C2A25158  36.600  36.981  19.385  0.2235 -0.3022 -0.1822
 1049BOLB   C3A25159  36.235  36.732  19.518 -0.0806  0.0549 -0.0675
 1049BOLB   C4A25160  36.300  36.267  19.626  0.1207 -0.1278  0.2547
 1049BOLB   C1B25161  37.092  37.199  19.580  0.0703 -0.0664 -0.1107
 1049BOLB   C2B25162  36.981  36.976  19.983  0.0121  0.0565 -0.1906
 1049BOLB   C3B25163  36.995  36.615  20.157 -0.0161  0.2890  0.0232
 1049BOLB   C4B25164  37.281  36.360  20.032 -0.1739 -0.2333 -0.0044
 1049BOLB   NC225165  38.650  35.238  19.453  0.2115 -0.0504  0.1570
 1049BOLB   PO225166  38.333  35.471  19.261 -0.4145 -0.0578  0.0440
 1049BOLB   GL325167  37.918  35.376  19.345  0.1037 -0.2752 -0.2056
 1049BOLB   GL425168  37.888  35.248  19.622  0.1019  0.2907 -0.0236
 1049BOLB   C1C25169  37.538  35.285  19.062  0.1286 -0.2840 -0.0335
 1049BOLB   C2C25170  37.091  35.372  19.173 -0.1028  0.0679  0.1766
 1049BOLB   C3C25171  36.936  35.733  19.469 -0.0927  0.0709  0.0809
 1049BOLB   C4C25172  36.458  35.866  19.582 -0.2906  0.0903 -0.2368
 1049BOLB   C1D25173  37.769  35.536  19.922 -0.2180  0.2434  0.0348
 1049BOLB   C2D25174  37.640  35.550  20.311  0.1178 -0.0701  0.0586
 1049BOLB   C3D25175  37.984  35.649  20.525 -0.1819  0.0099 -0.0814
 1049BOLB   C4D25176  37.901  35.989  20.877 -0.0095  0.0557  0.0949
 1050BOLB   NC125177  22.439  18.239   2.981  0.1518  0.0831  0.4177
 1050BOLB   PO125178  22.472  18.711   3.048 -0.0925  0.0838  0.2724
 1050BOLB   GL125179  22.657  18.942   2.731 -0.0614 -0.0939  0.1433
 1050BOLB   GL225180  22.541  19.216   2.763  0.0459  0.2255 -0.0274
 1050BOLB   C1A25181  23.098  19.190   2.570 -0.4547 -0.4772  0.0456
 1050BOLB   C2A25182  23.417  19.338   2.776 -0.1543  0.2059  0.2867
 1050BOLB   C3A25183  23.632  19.356   3.133  0.0216  0.0203  0.0828
 1050BOLB   C4A25184  23.858  19.698   3.127  0.1276 -0.0970  0.0469
 1050BOLB   C1B25185  22.540  19.736   2.775  0.2713  0.2075 -0.2406
 1050BOLB   C2B25186  22.738  20.157   2.847  0.0456 -0.1434 -0.0695
 1050BOLB   C3B25187  22.947  20.374   3.192 -0.1332  0.0762 -0.2198
 1050BOLB   C4B25188  22.960  20.549   3.562  0.0238  0.2577 -0.2905
 1050BOLB   NC225189  25.188  17.594   4.158 -0.0282 -0.0097 -0.1048
 1050BOLB   PO225190  24.830  17.875   4.025  0.0978  0.4492 -0.1154
 1050BOLB   GL325191  24.585  18.231   3.929 -0.0503 -0.0339  0.2126
 1050BOLB   GL425192  24.538  18.399   4.257  0.2145 -0.1684 -0.3969
 1050BOLB   C1C25193  24.685  18.490   3.772 -0.2266 -0.0280  0.1643
 1050BOLB   C2C25194  24.747  19.022   3.735  0.0273 -0.0116 -0.1470
 1050BOLB   C3C25195  24.556  19.386   3.481  0.1339  0.1947 -0.1568
 1050BOLB   C4C25196  24.260  19.723   3.338 -0.0864  0.0899  0.0445
 1050BOLB   C1D25197  24.544  18.867   4.171  0.2309 -0.0202 -0.0109
 1050BOLB   C2D25198  24.574  19.277   4.147  0.4948  0.0359 -0.3442
 1050BOLB   C3D25199  24.570  19.601   3.980  0.0304  0.1056 -0.2212
 1050BOLB   C4D25200  24.533  20.023   3.688 -0.1970  0.2607 -0.0519
 1051BOLB   NC125201  32.301  23.248  20.764 -0.1358  0.0252  0.1285
 1051BOLB   PO125202  32.095  22.875  20.572 -0.1333 -0.1027  0.2505
 1051BOLB   GL125203  32.528  22.885  20.465 -0.2820 -0.0202 -0.1024
 1051BOLB   GL225204  32.583  22.815  20.044 -0.3942  0.1037 -0.0298
 1051BOLB   C1A25205  32.901  22.596  20.390  0.3059 -0.1507  0.0378
 1051BOLB   C2A25206  33.303  22.568  20.298  0.2567 -0.3864  0.1763
 1051BOLB   C3A25207  33.578  22.188  20.150  0.2424  0.3602 -0.2443
 1051BOLB   C4A25208  33.979  21.969  20.058  0.3262  0.4624  0.5076
 1051BOLB   C1B25209  32.691  22.402  19.872  0.0614  0.2292 -0.3457
 1051BOLB   C2B25210  32.623  22.094  19.499  0.0994  0.0606  0.4572
 1051BOLB   C3B25211  32.819  21.947  19.107 -0.1216 -0.4322  0.3630
 1051BOLB   C4B25212  33.188  22.086  18.800 -0.2019 -0.0366  0.0837
 1051BOLB   NC225213  36.127  21.051  20.406  0.5241  0.0237  0.2851
 1051BOLB   PO225214  35.939  20.696  20.688 -0.1644 -0.0879 -0.2033
 1051BOLB   GL325215  35.602  21.024  20.552 -0.0717  0.0025  0.0906
 1051BOLB   GL425216  35.789  21.397  20.642 -0.1410  0.0302 -0.1151
 1051BOLB   C1C25217  35.145  21.030  20.367 -0.1137  0.1183 -0.0329
 1051BOLB   C2C25218  34.723  21.091  20.190 -0.2154 -0.0329 -0.1425
 1051BOLB   C3C25219  34.456  21.354  19.918  0.2077  0.0030  0.0091
 1051BOLB   C4C25220  34.232  21.676  20.052 -0.0380  0.2379 -0.1899
 1051BOLB   C1D25221  35.504  21.699  20.813 -0.1180  0.0666  0.2758
 1051BOLB   C2D25222  35.446  22.183  20.720 -0.2075 -0.2020 -0.1107
 1051BOLB   C3D25223  35.539  22.580  20.717  0.1977  0.0612  0.2258
 1051BOLB   C4D25224  35.661  22.738  21.124 -0.2343  0.0525 -0.0296
 1052BOLB   NC125225  21.036  33.805  21.378 -0.1448  0.1042 -0.2548
 1052BOLB   PO125226  21.052  34.240  21.295  0.2925  0.2753  0.0895
 1052BOLB   GL125227  20.580  34.252  21.236 -0.4517 -0.1216  0.1019
 1052BOLB   GL225228  20.477  34.617  21.167  0.0673 -0.1802  0.0980
 1052BOLB   C1A25229  20.109  34.229  21.185  0.3059  0.0625  0.0941
 1052BOLB   C2A25230  19.722  34.311  21.567 -0.0188  0.0784  0.3205
 1052BOLB   C3A25231  19.618  34.755  21.808 -0.3380 -0.0505  0.0968
 1052BOLB   C4A25232  19.520  35.080  22.155  0.0287  0.0877 -0.0956
 1052BOLB   C1B25233  20.316  34.912  21.066 -0.1284  0.0166 -0.0147
 1052BOLB   C2B25234  20.065  35.007  20.650 -0.1433 -0.0716 -0.0050
 1052BOLB   C3B25235  20.114  35.407  20.463  0.1032  0.3582 -0.0948
 1052BOLB   C4B25236  19.861  35.639  20.285 -0.4016  0.2112 -0.1240
 1052BOLB   NC225237  17.184  35.952  22.468  0.0840  0.3172  0.1664
 1052BOLB   PO225238  17.496  36.385  22.486  0.0869  0.1410  0.0976
 1052BOLB   GL325239  17.691  35.917  22.403 -0.2056  0.0587  0.1036
 1052BOLB   GL425240  17.458  35.582  22.268 -0.0996 -0.0525 -0.1185
 1052BOLB   C1C25241  18.054  35.639  22.306  0.2673 -0.1018 -0.1842
 1052BOLB   C2C25242  18.399  35.389  22.261 -0.0095 -0.0915  0.2901
 1052BOLB   C3C25243  18.852  35.361  22.287  0.3703 -0.0455 -0.2333
 1052BOLB   C4C25244  19.109  35.134  22.435  0.1626 -0.3757 -0.1375
 1052BOLB   C1D25245  17.670  35.352  22.414 -0.2828  0.1024 -0.3068
 1052BOLB   C2D25246  17.977  35.005  22.580 -0.0161  0.0374  0.4896
 1052BOLB   C3D25247  18.335  34.743  22.817 -0.0334 -0.1889  0.3019
 1052BOLB   C4D25248  18.739  34.708  23.087  0.0733  0.3778  0.2287
 1053BOLB   NC125249  27.771  21.956  17.801 -0.2273  0.0796 -0.1781
 1053BOLB   PO125250  28.103  22.229  18.017 -0.2190  0.1107  0.0530
 1053BOLB   GL125251  28.261  21.820  17.714 -0.0406  0.1935 -0.0065
 1053BOLB   GL225252  28.326  21.761  17.366 -0.0115  0.1109  0.0608
 1053BOLB   C1A25253  28.520  21.461  17.818 -0.0810 -0.1244  0.0654
 1053BOLB   C2A25254  28.695  21.109  17.647 -0.1501 -0.1409  0.2295
 1053BOLB   C3A25255  28.888  20.839  17.377 -0.0464  0.1891  0.3877
 1053BOLB   C4A25256  29.214  20.676  17.160  0.1790 -0.0932  0.1977
 1053BOLB   C1B25257  28.275  21.221  17.402  0.1799  0.0673  0.1633
 1053BOLB   C2B25258  28.428  20.885  17.223 -0.2356  0.3477  0.4225
 1053BOLB   C3B25259  28.517  20.477  17.198 -0.2265 -0.1871 -0.1883
 1053BOLB   C4B25260  28.269  20.152  17.016 -0.3234 -0.2991  0.0563
 1053BOLB   NC225261  29.318  18.700  15.940  0.2020 -0.0022 -0.1683
 1053BOLB   PO225262  29.525  18.992  15.737 -0.0222  0.0736  0.2238
 1053BOLB   GL325263  29.479  19.259  16.144  0.2540  0.0907 -0.1310
 1053BOLB   GL425264  29.814  19.205  16.184 -0.0185 -0.1929 -0.1906
 1053BOLB   C1C25265  29.127  19.411  16.352 -0.1721  0.1110 -0.1948
 1053BOLB   C2C25266  28.965  19.816  16.458  0.0842 -0.3597  0.1946
 1053BOLB   C3C25267  29.193  20.157  16.664 -0.0908  0.2923 -0.0534
 1053BOLB   C4C25268  29.321  20.469  16.885 -0.1856  0.0033 -0.0093
 1053BOLB   C1D25269  29.979  19.519  16.173 -0.1458 -0.0356  0.2216
 1053BOLB   C2D25270  29.900  19.882  16.272 -0.2705 -0.0982 -0.2238
 1053BOLB   C3D25271  29.679  20.332  16.427  0.1652  0.1577 -0.0123
 1053BOLB   C4D25272  29.340  20.623  16.345 -0.0051 -0.3070  0.1964
 1054BOLB   NC125273  34.966  28.556  20.616  0.0963  0.5615 -0.0454
 1054BOLB   PO125274  35.386  28.367  20.475  0.3117  0.2540  0.3065
 1054BOLB   GL125275  35.848  28.286  20.374 -0.1452 -0.0016  0.2274
 1054BOLB   GL225276  36.091  28.050  20.572 -0.2720 -0.1304 -0.0470
 1054BOLB   C1A25277  36.258  28.184  20.060  0.3016  0.3970 -0.1774
 1054BOLB   C2A25278  36.380  27.979  19.823  0.0454  0.5087  0.1364
 1054BOLB   C3A25279  36.713  27.647  19.610  0.1467 -0.0998  0.2958
 1054BOLB   C4A25280  36.989  27.727  19.397  0.1250 -0.0903  0.4475
 1054BOLB   C1B25281  36.553  27.901  20.417 -0.1730  0.1495 -0.1795
 1054BOLB   C2B25282  36.795  27.838  20.065 -0.1237  0.2045 -0.3276
 1054BOLB   C3B25283  37.131  27.561  19.992  0.2045  0.0184 -0.0956
 1054BOLB   C4B25284  37.407  27.297  19.818 -0.0302 -0.3346  0.3232
 1054BOLB   NC225285  39.013  27.274  18.304 -0.1175  0.2823 -0.1199
 1054BOLB   PO225286  39.056  26.890  18.467 -0.3343  0.1661  0.0835
 1054BOLB   GL325287  38.738  27.213  18.719 -0.1890  0.0268  0.0073
 1054BOLB   GL425288  38.861  27.149  19.021 -0.1755  0.1167  0.2858
 1054BOLB   C1C25289  38.365  27.310  18.953  0.1137  0.4226  0.1546
 1054BOLB   C2C25290  38.047  27.454  18.858 -0.0528  0.0114  0.0653
 1054BOLB   C3C25291  37.728  27.705  19.089 -0.0369  0.2777 -0.2086
 1054BOLB   C4C25292  37.341  27.655  19.270  0.1214 -0.0147 -0.1422
 1054BOLB   C1D25293  38.765  27.572  19.189 -0.1231 -0.0802 -0.0607
 1054BOLB   C2D25294  38.568  27.763  19.551  0.0732 -0.3536 -0.2826
 1054BOLB   C3D25295  38.360  27.998  19.800  0.1576  0.1211 -0.0144
 1054BOLB   C4D25296  37.906  28.084  20.054 -0.1913 -0.2223 -0.1196
 1055BOLB   NC125297  36.646  23.105  16.794 -0.2280 -0.0568  0.1606
 1055BOLB   PO125298  36.331  23.281  16.421 -0.1783 -0.1067 -0.0503
 1055BOLB   GL125299  36.089  23.648  16.564  0.0210 -0.0905 -0.1040
 1055BOLB   GL225300  36.068  23.936  16.524 -0.0845  0.0819  0.1757
 1055BOLB   C1A25301  35.976  23.720  17.009  0.2678 -0.0479  0.1531
 1055BOLB   C2A25302  35.779  23.583  17.338  0.0423 -0.1413  0.2385
 1055BOLB   C3A25303  35.623  23.592  17.750 -0.2581 -0.0230  0.0359
 1055BOLB   C4A25304  35.481  23.826  18.108 -0.3777  0.1170  0.0308
 1055BOLB   C1B25305  35.734  23.996  16.735 -0.1358 -0.1449 -0.2617
 1055BOLB   C2B25306  35.367  24.056  17.081 -0.0387 -0.0549  0.2571
 1055BOLB   C3B25307  34.956  23.991  17.141 -0.1686  0.2665 -0.0964
 1055BOLB   C4B25308  34.495  23.922  17.159  0.2759  0.2258  0.1493
 1055BOLB   NC225309  33.637  25.634  19.166  0.1305 -0.1464 -0.1851
 1055BOLB   PO225310  33.743  25.314  19.104 -0.1777 -0.0113 -0.0003
 1055BOLB   GL325311  34.137  25.036  19.025  0.0351 -0.3726  0.1511
 1055BOLB   GL425312  34.243  25.113  18.730  0.0358  0.1860 -0.0513
 1055BOLB   C1C25313  34.653  24.889  18.954 -0.1718 -0.1884 -0.2104
 1055BOLB   C2C25314  34.875  24.727  18.633 -0.0604 -0.2437  0.1693
 1055BOLB   C3C25315  34.993  24.344  18.517 -0.1906  0.2286 -0.1314
 1055BOLB   C4C25316  35.206  24.143  18.249 -0.0326  0.0786 -0.1936
 1055BOLB   C1D25317  34.364  24.728  18.544  0.3568 -0.2633 -0.2493
 1055BOLB   C2D25318  34.496  24.353  18.547 -0.1949  0.1686  0.2703
 1055BOLB   C3D25319  34.526  23.966  18.680 -0.0699  0.3248 -0.1452
 1055BOLB   C4D25320  34.674  23.501  18.643  0.0895 -0.0528 -0.2669
 1056BOLB   NC125321  29.165  35.406   1.119 -0.0830  0.2566 -0.0144
 1056BOLB   PO125322  28.792  35.544   0.871 -0.0820  0.2245  0.2278
 1056BOLB   GL125323  28.838  35.904   0.901  0.0303 -0.0157 -0.5404
 1056BOLB   GL225324  28.830  36.227   0.704  0.1039  0.1580 -0.1948
 1056BOLB   C1A25325  29.042  36.167   1.155  0.2291 -0.1381  0.1338
 1056BOLB   C2A25326  29.008  36.464   1.392  0.0284  0.1123 -0.1125
 1056BOLB   C3A25327  29.408  36.584   1.572 -0.3118  0.2671 -0.0414
 1056BOLB   C4A25328  29.703  36.887   1.630  0.0078 -0.3107 -0.2469
 1056BOLB   C1B25329  29.055  36.590   0.865 -0.3695  0.4661 -0.0510
 1056BOLB   C2B25330  29.053  36.908   1.120  0.2246 -0.0081 -0.0867
 1056BOLB   C3B25331  29.180  37.299   1.245  0.0654  0.2570  0.2420
 1056BOLB   C4B25332  29.081  37.688   1.440  0.3632 -0.0627  0.0323
 1056BOLB   NC225333  29.968  38.630   3.331  0.0596  0.3853  0.0077
 1056BOLB   PO225334  30.276  38.697   2.938  0.1542 -0.0571 -0.0041
 1056BOLB   GL325335  30.309  38.243   3.084  0.3491 -0.1688 -0.2032
 1056BOLB   GL425336  30.067  38.011   3.296  0.0366 -0.2947  0.0450
 1056BOLB   C1C25337  30.340  37.875   2.723 -0.2036 -0.0125  0.0884
 1056BOLB   C2C25338  30.286  37.733   2.289 -0.2763  0.0754 -0.0003
 1056BOLB   C3C25339  30.135  37.606   1.893 -0.1621 -0.0568  0.0787
 1056BOLB   C4C25340  29.912  37.324   1.792  0.2148 -0.3044 -0.1447
 1056BOLB   C1D25341  29.875  37.778   2.954 -0.1938  0.0090  0.1676
 1056BOLB   C2D25342  29.797  37.704   2.518  0.2234  0.0441 -0.0404
 1056BOLB   C3D25343  29.662  37.317   2.437 -0.2179 -0.0686 -0.2597
 1056BOLB   C4D25344  29.771  36.868   2.403 -0.0516 -0.0075  0.1352
 1057BOLB   NC125345  25.822  37.172  19.150 -0.3632  0.0106  0.0149
 1057BOLB   PO125346  25.329  37.191  19.437  0.2570 -0.0889  0.2487
 1057BOLB   GL125347  25.339  37.612  19.225 -0.0394  0.0762  0.3148
 1057BOLB   GL225348  25.584  37.560  18.910  0.1598  0.0766 -0.0192
 1057BOLB   C1A25349  25.117  38.006  19.230  0.1791 -0.2495 -0.0454
 1057BOLB   C2A25350  25.055  38.500  19.034 -0.0938  0.2180  0.0097
 1057BOLB   C3A25351  24.918  38.934  18.943  0.1474 -0.0469 -0.3188
 1057BOLB   C4A25352  24.643  39.282  19.040  0.0019 -0.2938  0.0973
 1057BOLB   C1B25353  25.439  37.948  18.765  0.0949  0.3668  0.2775
 1057BOLB   C2B25354  25.341  38.280  18.637  0.1672 -0.4159 -0.2654
 1057BOLB   C3B25355  24.931  38.519  18.483 -0.1221 -0.1493  0.1063
 1057BOLB   C4B25356  24.662  38.733  18.217 -0.1489 -0.0069 -0.1929
 1057BOLB   NC225357  24.426  41.318  18.454  0.2107  0.1088 -0.0871
 1057BOLB   PO225358  24.151  41.265  18.773  0.2795  0.2043  0.0814
 1057BOLB   GL325359  24.405  40.887  18.690  0.3647  0.0679 -0.1836
 1057BOLB   GL425360  24.183  40.701  18.564 -0.1449  0.0228  0.0444
 1057BOLB   C1C25361  24.692  40.617  18.845 -0.2566 -0.2026 -0.1418
 1057BOLB   C2C25362  24.804  40.211  18.811 -0.1734 -0.1436  0.0352
 1057BOLB   C3C25363  24.546  39.869  18.568 -0.1633 -0.0687  0.1345
 1057BOLB   C4C25364  24.462  39.494  18.791 -0.2955 -0.1083 -0.0004
 1057BOLB   C1D25365  24.327  40.285  18.636 -0.2338 -0.0111 -0.3013
 1057BOLB   C2D25366  24.089  39.878  18.762 -0.0165  0.0559 -0.1779
 1057BOLB   C3D25367  24.008  39.451  18.995  0.0359 -0.2091 -0.0398
 1057BOLB   C4D25368  24.140  39.047  19.017 -0.1027  0.1707  0.1059
 1058BOLB   NC125369  23.404  33.728   0.995  0.1245 -0.0210 -0.0441
 1058BOLB   PO125370  23.090  34.028   0.685 -0.0088  0.0566  0.1032
 1058BOLB   GL125371  22.756  34.218   0.935  0.0703  0.1586 -0.3465
 1058BOLB   GL225372  22.491  34.007   0.962 -0.0898 -0.1389  0.1201
 1058BOLB   C1A25373  22.644  34.722   1.080  0.3096  0.0861 -0.0438
 1058BOLB   C2A25374  22.301  35.103   0.994  0.0035  0.0324 -0.2495
 1058BOLB   C3A25375  22.278  35.542   0.871  0.1864 -0.2916 -0.0789
 1058BOLB   C4A25376  22.248  36.017   0.757 -0.4089 -0.2635  0.0839
 1058BOLB   C1B25377  22.260  34.390   1.084  0.0563  0.1202  0.0791
 1058BOLB   C2B25378  21.943  34.350   1.471 -0.1957  0.0026  0.0754
 1058BOLB   C3B25379  21.665  34.579   1.751  0.1423 -0.3144  0.0576
 1058BOLB   C4B25380  21.567  34.996   1.592 -0.0172 -0.1831  0.0488
 1058BOLB   NC225381  21.804  38.149   1.992  0.1344  0.0337 -0.0275
 1058BOLB   PO225382  21.787  37.914   2.401 -0.0145  0.1913  0.0888
 1058BOLB   GL325383  21.837  37.572   2.283 -0.1889 -0.1927 -0.1741
 1058BOLB   GL425384  21.954  37.386   2.439 -0.1263 -0.1025  0.0159
 1058BOLB   C1C25385  21.856  37.280   1.931 -0.0473  0.1365 -0.1178
 1058BOLB   C2C25386  21.995  36.916   1.613  0.1081  0.3072 -0.0224
 1058BOLB   C3C25387  22.165  36.561   1.357 -0.2266  0.1752  0.0760
 1058BOLB   C4C25388  22.165  36.340   0.978  0.0815  0.3410  0.0867
 1058BOLB   C1D25389  22.029  36.987   2.330 -0.1653  0.2319 -0.1694
 1058BOLB   C2D25390  22.119  36.653   2.125 -0.0332 -0.0137  0.0770
 1058BOLB   C3D25391  22.246  36.488   1.839  0.0126 -0.0308 -0.4475
 1058BOLB   C4D25392  22.574  36.292   1.569 -0.2271  0.3081  0.0115
 1059BOLB   NC125393  16.241  19.933  19.524  0.0723 -0.0407  0.0480
 1059BOLB   PO125394  15.906  20.005  19.846  0.0425  0.0782  0.0784
 1059BOLB   GL125395  16.354  20.051  20.048  0.2926  0.0123 -0.0619
 1059BOLB   GL225396  16.589  19.912  19.887 -0.0314  0.2112  0.0899
 1059BOLB   C1A25397  16.483  20.230  20.352 -0.0877 -0.1222  0.0978
 1059BOLB   C2A25398  16.208  20.366  20.699 -0.0248 -0.1566 -0.2578
 1059BOLB   C3A25399  16.179  20.125  21.118 -0.0240 -0.1291 -0.0940
 1059BOLB   C4A25400  16.604  20.179  21.368 -0.2421  0.0063 -0.1013
 1059BOLB   C1B25401  16.677  20.378  19.829  0.2316  0.1728 -0.3009
 1059BOLB   C2B25402  16.983  20.772  19.844 -0.1314  0.1053  0.2199
 1059BOLB   C3B25403  17.248  21.127  20.119 -0.0075  0.0348 -0.1430
 1059BOLB   C4B25404  17.666  21.187  20.151  0.2883 -0.2544  0.0722
 1059BOLB   NC225405  16.267  18.601  19.908 -0.3492 -0.0375 -0.0492
 1059BOLB   PO225406  16.396  18.797  20.353  0.0215 -0.0862 -0.4876
 1059BOLB   GL325407  16.633  18.917  20.704  0.3256  0.0852  0.3144
 1059BOLB   GL425408  16.665  19.278  20.675  0.0987 -0.1387 -0.0018
 1059BOLB   C1C25409  17.048  18.978  20.932  0.0026 -0.0898 -0.1641
 1059BOLB   C2C25410  17.291  19.266  20.934  0.0507  0.1748 -0.4666
 1059BOLB   C3C25411  17.205  19.733  20.988  0.0280 -0.4790  0.0492
 1059BOLB   C4C25412  17.051  20.134  21.161 -0.2280 -0.0627 -0.0082
 1059BOLB   C1D25413  16.920  19.628  20.571  0.2302 -0.0560  0.2328
 1059BOLB   C2D25414  17.113  20.117  20.649  0.3737  0.1257  0.2562
 1059BOLB   C3D25415  17.378  20.421  20.836 -0.0182  0.0929  0.0329
 1059BOLB   C4D25416  17.502  20.388  21.279 -0.1658  0.2546 -0.2137
 1060BOLB   NC125417  13.667  27.554   0.857 -0.0782  0.2616  0.3021
 1060BOLB   PO125418  13.488  27.923   1.085 -0.3713  0.1877 -0.2776
 1060BOLB   GL125419  13.961  28.008   0.892 -0.1471 -0.0932  0.1914
 1060BOLB   GL225420  13.985  28.244   0.593  0.1402 -0.1783 -0.0373
 1060BOLB   C1A25421  14.455  28.069   0.943 -0.0173 -0.1511  0.0071
 1060BOLB   C2A25422  14.936  28.008   1.091  0.1666  0.1572 -0.0554
 1060BOLB   C3A25423  15.313  27.918   0.848  0.1400 -0.0683 -0.0512
 1060BOLB   C4A25424  15.701  28.154   0.802 -0.3116 -0.0931 -0.0697
 1060BOLB   C1B25425  14.177  28.368   0.266 -0.0299 -0.0796 -0.0505
 1060BOLB   C2B25426  14.512  28.357   0.020 -0.0191  0.0524  0.3240
 1060BOLB   C3B25427  14.816  28.190  26.555  0.0493 -0.2206  0.0132
 1060BOLB   C4B25428  15.012  28.067  26.195 -0.2950 -0.3471  0.1054
 1060BOLB   NC225429  14.028  28.475   1.060  0.2368  0.0667  0.3937
 1060BOLB   PO225430  13.901  28.446   1.473 -0.1610  0.0340 -0.2138
 1060BOLB   GL325431  14.234  28.161   1.388  0.1769 -0.0326 -0.1934
 1060BOLB   GL425432  14.299  27.878   1.560  0.1634  0.1253  0.2345
 1060BOLB   C1C25433  14.635  28.461   1.304 -0.0407 -0.0270  0.1408
 1060BOLB   C2C25434  15.015  28.736   1.291 -0.0637 -0.0831  0.1219
 1060BOLB   C3C25435  15.484  28.824   1.320  0.0540  0.2316  0.3453
 1060BOLB   C4C25436  15.800  28.474   1.101 -0.1332 -0.2097 -0.1762
 1060BOLB   C1D25437  14.590  27.671   1.236 -0.1011  0.0155 -0.1096
 1060BOLB   C2D25438  15.023  27.467   1.212 -0.2692 -0.0825 -0.0816
 1060BOLB   C3D25439  15.473  27.146   1.141  0.0138  0.0025 -0.2835
 1060BOLB   C4D25440  15.875  27.018   1.338 -0.0974 -0.0521 -0.0500
 1061BOLB   NC125441  31.845  35.396  26.411  0.1279  0.0583 -0.1016
 1061BOLB   PO125442  31.940  35.426  25.978 -0.0066 -0.2110  0.0670
 1061BOLB   GL125443  32.105  35.791  26.062 -0.2166 -0.2887  0.2815
 1061BOLB   GL225444  31.790  36.024  26.056 -0.1438  0.0979 -0.1932
 1061BOLB   C1A25445  32.348  36.101  25.964  0.4558  0.0647  0.0950
 1061BOLB   C2A25446  32.607  36.492  26.165  0.3060  0.0975 -0.0342
 1061BOLB   C3A25447  33.017  36.745  26.375  0.0766 -0.0936 -0.3605
 1061BOLB   C4A25448  33.295  37.064  26.481  0.1502  0.1443 -0.3970
 1061BOLB   C1B25449  32.032  36.442  26.085  0.0830  0.0059 -0.0612
 1061BOLB   C2B25450  32.328  36.864  26.105 -0.4804 -0.2952 -0.0264
 1061BOLB   C3B25451  32.630  37.017  26.310 -0.1958 -0.1437 -0.1533
 1061BOLB   C4B25452  32.833  37.200  26.506 -0.2477 -0.2386 -0.0558
 1061BOLB   NC225453  34.037  38.536   1.188  0.1861 -0.0441  0.2448
 1061BOLB   PO225454  33.557  38.165   1.190 -0.2912 -0.3177 -0.3334
 1061BOLB   GL325455  33.794  38.050   0.857 -0.3923  0.2073  0.2626
 1061BOLB   GL425456  34.062  38.352   0.703  0.2611 -0.0573 -0.0503
 1061BOLB   C1C25457  33.691  38.043   0.469  0.3739  0.0944 -0.2551
 1061BOLB   C2C25458  33.775  37.911   0.109  0.1229  0.0425 -0.2749
 1061BOLB   C3C25459  33.671  37.913  26.737  0.0722 -0.2396 -0.1449
 1061BOLB   C4C25460  33.438  37.497  26.498  0.0468  0.1893  0.0438
 1061BOLB   C1D25461  33.620  38.548   0.612 -0.2135 -0.1928 -0.0654
 1061BOLB   C2D25462  33.440  38.644   0.240  0.2446  0.4374  0.1328
 1061BOLB   C3D25463  33.349  38.197   0.127  0.1740 -0.1169  0.1529
 1061BOLB   C4D25464  33.281  37.781   0.033  0.1456  0.0350 -0.3188
 1062BOLB   NC125465  31.946  30.921  15.475 -0.1671 -0.1010  0.1289
 1062BOLB   PO125466  31.953  31.159  15.069  0.2872  0.5080 -0.0556
 1062BOLB   GL125467  32.115  31.010  14.629  0.2927  0.0158  0.0021
 1062BOLB   GL225468  31.810  30.949  14.397 -0.0653  0.2279 -0.0970
 1062BOLB   C1A25469  32.518  30.989  14.375  0.0591 -0.0624 -0.0356
 1062BOLB   C2A25470  32.704  30.629  14.149  0.1436  0.4513  0.1018
 1062BOLB   C3A25471  32.778  30.466  13.715  0.0713  0.1871 -0.1694
 1062BOLB   C4A25472  32.941  30.593  13.267 -0.1109  0.2488 -0.4763
 1062BOLB   C1B25473  32.024  30.963  13.977  0.1237  0.0559  0.2258
 1062BOLB   C2B25474  32.484  31.018  13.860 -0.0365  0.0911 -0.3685
 1062BOLB   C3B25475  32.952  30.931  13.743 -0.0570 -0.0161  0.0283
 1062BOLB   C4B25476  33.268  30.623  13.616 -0.1052 -0.3085 -0.3579
 1062BOLB   NC225477  33.567  30.761  11.050  0.0832 -0.3385  0.1760
 1062BOLB   PO225478  33.604  31.161  11.085 -0.4247  0.1310  0.2032
 1062BOLB   GL325479  33.334  31.153  11.443  0.1135 -0.0884  0.1384
 1062BOLB   GL425480  33.488  30.872  11.593  0.0287  0.2576  0.1990
 1062BOLB   C1C25481  32.989  30.979  11.614 -0.1046 -0.4223  0.2071
 1062BOLB   C2C25482  32.769  30.797  11.985 -0.1245  0.1341 -0.0623
 1062BOLB   C3C25483  32.712  30.532  12.381  0.1933 -0.0314 -0.2350
 1062BOLB   C4C25484  32.804  30.497  12.748  0.3142  0.3180  0.0010
 1062BOLB   C1D25485  33.388  31.009  11.986  0.0100  0.2545  0.2978
 1062BOLB   C2D25486  33.641  31.083  12.292 -0.2275 -0.0867  0.2207
 1062BOLB   C3D25487  33.604  31.053  12.615  0.1518  0.0250 -0.0855
 1062BOLB   C4D25488  33.409  31.264  12.841 -0.2267 -0.1367  0.0113
 1063BOLB   NC125489  29.965  21.744  20.605 -0.0027  0.3823  0.0913
 1063BOLB   PO125490  30.057  21.485  20.985 -0.2386  0.0787  0.1283
 1063BOLB   GL125491  30.144  21.223  20.848 -0.2028  0.1366 -0.1003
 1063BOLB   GL225492  30.407  21.271  20.625  0.1670 -0.3329  0.1747
 1063BOLB   C1A25493  30.278  20.845  20.953 -0.0785 -0.2955  0.0958
 1063BOLB   C2A25494  30.630  20.582  20.986  0.1884 -0.0723  0.4438
 1063BOLB   C3A25495  30.755  20.139  21.004  0.0064 -0.0260  0.2783
 1063BOLB   C4A25496  30.710  19.877  21.260  0.4120 -0.1459 -0.0927
 1063BOLB   C1B25497  30.697  21.001  20.750  0.0065 -0.2615 -0.1987
 1063BOLB   C2B25498  31.060  20.835  20.717 -0.0126 -0.2855  0.0117
 1063BOLB   C3B25499  31.336  20.690  20.449 -0.3802 -0.1123  0.1836
 1063BOLB   C4B25500  31.450  20.318  20.324 -0.0112  0.2459 -0.1755
 1063BOLB   NC225501  31.386  17.290  21.623  0.2668 -0.1170 -0.0650
 1063BOLB   PO225502  31.252  17.718  21.545 -0.0454  0.1315  0.2060
 1063BOLB   GL325503  31.331  18.094  21.427  0.4294  0.1336 -0.0431
 1063BOLB   GL425504  31.096  18.346  21.250  0.0320 -0.1377  0.1222
 1063BOLB   C1C25505  31.487  18.521  21.505  0.3105  0.0874 -0.4284
 1063BOLB   C2C25506  31.490  18.909  21.641 -0.2581 -0.1973 -0.2394
 1063BOLB   C3C25507  31.096  19.239  21.646  0.2854  0.2338  0.0720
 1063BOLB   C4C25508  30.873  19.659  21.540  0.0558 -0.1502 -0.4552
 1063BOLB   C1D25509  31.042  18.796  21.257 -0.2776  0.1435 -0.1440
 1063BOLB   C2D25510  30.783  19.129  21.266 -0.2832  0.1213  0.1794
 1063BOLB   C3D25511  30.761  19.416  20.984  0.2544 -0.0522 -0.1625
 1063BOLB   C4D25512  30.429  19.710  20.875  0.4064 -0.2565 -0.0155
 1064BOLB   NC125513  31.919  25.560  15.602  0.1110 -0.1328 -0.1232
 1064BOLB   PO125514  31.527  25.437  15.769  0.0811 -0.2601  0.0257
 1064BOLB   GL125515  31.735  25.084  15.527  0.1761  0.1752  0.1419
 1064BOLB   GL225516  31.902  25.170  15.213  0.1756 -0.1245 -0.0932
 1064BOLB   C1A25517  32.082  24.766  15.471  0.0232 -0.0660 -0.0795
 1064BOLB   C2A25518  32.312  24.348  15.424  0.2100 -0.0111  0.5422
 1064BOLB   C3A25519  32.613  24.045  15.644 -0.3378 -0.0220 -0.0095
 1064BOLB   C4A25520  32.736  23.702  15.425 -0.1054  0.3235  0.1382
 1064BOLB   C1B25521  32.150  25.010  14.874  0.2413  0.1515 -0.1440
 1064BOLB   C2B25522  32.357  24.974  14.549 -0.1891 -0.5373  0.2447
 1064BOLB   C3B25523  32.277  24.677  14.099 -0.0907  0.1906  0.3526
 1064BOLB   C4B25524  32.479  24.681  13.778  0.0648 -0.0912 -0.0994
 1064BOLB   NC225525  34.248  21.364  15.230 -0.0792  0.1444 -0.1318
 1064BOLB   PO225526  34.169  21.722  14.969  0.1889  0.2058 -0.2205
 1064BOLB   GL325527  34.052  22.193  15.071 -0.0643 -0.1452 -0.0267
 1064BOLB   GL425528  34.296  22.370  15.253 -0.0685 -0.2053  0.2955
 1064BOLB   C1C25529  33.796  22.500  15.096  0.2354  0.2417 -0.0914
 1064BOLB   C2C25530  33.350  22.806  15.055 -0.1307 -0.1546 -0.2579
 1064BOLB   C3C25531  32.982  23.006  15.211  0.4459  0.1539  0.1189
 1064BOLB   C4C25532  32.743  23.223  15.463 -0.3835 -0.5547  0.2829
 1064BOLB   C1D25533  34.213  22.683  15.549 -0.2636 -0.0612  0.0377
 1064BOLB   C2D25534  34.030  22.992  15.910  0.1591 -0.0366 -0.2754
 1064BOLB   C3D25535  33.547  23.040  15.958  0.1823 -0.1210  0.0772
 1064BOLB   C4D25536  33.376  23.359  16.293  0.0320  0.0300 -0.0664
 1065BOLB   NC125537  29.790  22.328  25.280  0.3695 -0.1690  0.1497
 1065BOLB   PO125538  29.584  22.477  25.548 -0.2178 -0.4021  0.0902
 1065BOLB   GL125539  29.605  22.262  25.990  0.0022  0.1002  0.0362
 1065BOLB   GL225540  29.843  22.224  26.246 -0.0294 -0.1523  0.1408
 1065BOLB   C1A25541  29.597  21.756  26.199 -0.0013 -0.1885  0.2802
 1065BOLB   C2A25542  29.495  21.560  26.644 -0.2546  0.0497  0.1283
 1065BOLB   C3A25543  29.607  21.201  26.906 -0.0302 -0.1839  0.1355
 1065BOLB   C4A25544  29.641  21.145   0.403 -0.1770  0.0250  0.1820
 1065BOLB   C1B25545  29.976  21.774  26.508 -0.0801  0.1231  0.3382
 1065BOLB   C2B25546  29.898  21.323  26.435 -0.1459  0.0046  0.0588
 1065BOLB   C3B25547  29.990  21.060  26.084  0.1884  0.0368  0.1999
 1065BOLB   C4B25548  29.962  20.561  26.137  0.3034 -0.1297  0.3895
 1065BOLB   NC225549  30.239  18.799   0.263  0.3740 -0.2378  0.1976
 1065BOLB   PO225550  30.451  19.053   0.545  0.2262 -0.1379 -0.5093
 1065BOLB   GL325551  30.347  19.414   0.526  0.0592 -0.2918  0.2189
 1065BOLB   GL425552  30.348  19.457   0.182  0.0820 -0.1329 -0.0805
 1065BOLB   C1C25553  29.917  19.555   0.577 -0.0918 -0.1246  0.0702
 1065BOLB   C2C25554  29.802  20.018   0.553  0.0232 -0.0894 -0.0791
 1065BOLB   C3C25555  29.690  20.406   0.692  0.0124 -0.2231 -0.1971
 1065BOLB   C4C25556  29.476  20.860   0.695 -0.1485 -0.1411 -0.1509
 1065BOLB   C1D25557  30.473  19.730  26.762  0.2066 -0.3498  0.3879
 1065BOLB   C2D25558  30.582  20.101  26.689 -0.0958 -0.2233 -0.3107
 1065BOLB   C3D25559  30.277  20.469  26.872  0.4326  0.0729  0.1668
 1065BOLB   C4D25560  29.890  20.379   0.187 -0.1270 -0.2674 -0.1128
 1066BOLB   NC125561  35.692  30.546  23.815  0.0147 -0.0283  0.4089
 1066BOLB   PO125562  35.816  30.073  23.806 -0.2505  0.2189 -0.1859
 1066BOLB   GL125563  36.255  30.122  23.903 -0.3010  0.3495  0.1433
 1066BOLB   GL225564  36.271  30.567  23.901  0.0754  0.0765 -0.1518
 1066BOLB   C1A25565  36.509  29.991  23.600 -0.0907 -0.1656  0.2514
 1066BOLB   C2A25566  36.823  30.019  23.393 -0.0289 -0.0758 -0.1703
 1066BOLB   C3A25567  37.304  30.048  23.197 -0.1564  0.1563 -0.1564
 1066BOLB   C4A25568  37.715  29.973  23.458 -0.1120  0.0322 -0.0335
 1066BOLB   C1B25569  36.693  30.346  23.986 -0.3238  0.0164  0.1537
 1066BOLB   C2B25570  37.112  30.176  23.879  0.0595  0.0549 -0.1795
 1066BOLB   C3B25571  37.273  29.841  23.649  0.1840 -0.1414 -0.1325
 1066BOLB   C4B25572  37.554  29.547  23.739 -0.1150 -0.0187 -0.3725
 1066BOLB   NC225573  39.916  29.015  22.807 -0.2609 -0.1121 -0.1899
 1066BOLB   PO225574  39.594  29.351  22.958 -0.0258  0.0893 -0.1139
 1066BOLB   GL325575  39.233  29.531  23.016  0.0478 -0.0040 -0.0171
 1066BOLB   GL425576  39.041  29.431  22.719  0.0218  0.0105 -0.0203
 1066BOLB   C1C25577  39.043  29.865  23.227  0.3327  0.0156 -0.0082
 1066BOLB   C2C25578  38.881  30.236  23.555 -0.2003  0.1097 -0.0512
 1066BOLB   C3C25579  38.472  30.377  23.590 -0.0008 -0.1232 -0.0626
 1066BOLB   C4C25580  38.089  30.240  23.542  0.1428  0.1829 -0.2909
 1066BOLB   C1D25581  38.748  29.587  22.761  0.5172  0.0299  0.0339
 1066BOLB   C2D25582  38.447  29.672  22.578 -0.0417  0.1951  0.2160
 1066BOLB   C3D25583  38.155  29.852  22.825 -0.0417 -0.2832 -0.1428
 1066BOLB   C4D25584  38.556  30.069  23.139 -0.2088 -0.0298 -0.0171
 1067BOLB   NC125585  19.838  31.773  20.246 -0.1588  0.2564 -0.0973
 1067BOLB   PO125586  19.915  32.150  20.016  0.1041  0.1054 -0.0300
 1067BOLB   GL125587  19.810  32.500  20.151 -0.1940  0.0563  0.2336
 1067BOLB   GL225588  19.862  32.689  20.478  0.1202  0.1013 -0.0287
 1067BOLB   C1A25589  19.432  32.606  19.947 -0.0833 -0.1249 -0.0881
 1067BOLB   C2A25590  19.063  32.591  19.589 -0.0280  0.2513  0.2650
 1067BOLB   C3A25591  19.067  32.945  19.292  0.0483  0.2553  0.1443
 1067BOLB   C4A25592  18.807  33.286  19.134 -0.1305 -0.1090  0.0765
 1067BOLB   C1B25593  19.374  32.573  20.629  0.0668 -0.1336  0.0002
 1067BOLB   C2B25594  18.954  32.809  20.591  0.2808  0.0457 -0.0515
 1067BOLB   C3B25595  18.640  32.899  20.307  0.2008 -0.0478 -0.0647
 1067BOLB   C4B25596  18.185  32.725  20.308  0.0686  0.1887  0.0097
 1067BOLB   NC225597  16.861  34.570  18.107  0.1405  0.2377  0.0390
 1067BOLB   PO225598  17.205  34.876  18.142  0.1531 -0.1649  0.0868
 1067BOLB   GL325599  17.374  34.510  18.380  0.2668  0.2890 -0.2957
 1067BOLB   GL425600  17.125  34.149  18.428  0.2706  0.0263 -0.1611
 1067BOLB   C1C25601  17.454  34.198  18.848 -0.1252 -0.0594  0.0054
 1067BOLB   C2C25602  17.600  33.833  19.018 -0.2334  0.2184 -0.1995
 1067BOLB   C3C25603  18.047  33.702  19.128  0.3947 -0.3062  0.1476
 1067BOLB   C4C25604  18.407  33.579  19.201  0.2319 -0.1563 -0.0846
 1067BOLB   C1D25605  17.494  34.010  18.309 -0.0212  0.1023 -0.1081
 1067BOLB   C2D25606  17.882  33.994  18.598 -0.1505 -0.3317 -0.0174
 1067BOLB   C3D25607  18.364  33.843  18.616 -0.2613  0.2039  0.0326
 1067BOLB   C4D25608  18.633  33.631  18.210  0.3486  0.2752  0.0524
 1068BOLB   NC125609  24.868  35.245   0.867  0.2188  0.0395 -0.2547
 1068BOLB   PO125610  24.430  35.320   0.643  0.0179  0.2534  0.0767
 1068BOLB   GL125611  24.330  35.448   0.932  0.0874  0.1683 -0.0406
 1068BOLB   GL225612  24.028  35.314   1.061 -0.1822 -0.0138 -0.0166
 1068BOLB   C1A25613  24.247  35.747   1.278 -0.1906  0.3422 -0.1194
 1068BOLB   C2A25614  24.015  35.770   1.647 -0.1156  0.3878 -0.1485
 1068BOLB   C3A25615  24.036  36.034   1.918 -0.0051  0.1887 -0.0250
 1068BOLB   C4A25616  24.317  36.380   1.894 -0.0000  0.2535  0.1010
 1068BOLB   C1B25617  23.767  35.559   1.205  0.1646 -0.2325 -0.2189
 1068BOLB   C2B25618  23.510  35.678   1.507 -0.1035 -0.1335 -0.0861
 1068BOLB   C3B25619  23.537  35.737   1.941 -0.0338 -0.1943  0.1885
 1068BOLB   C4B25620  23.255  35.584   2.290 -0.1126 -0.2213 -0.0723
 1068BOLB   NC225621  23.046  37.739   3.108 -0.2536 -0.0241 -0.1516
 1068BOLB   PO225622  23.304  38.071   3.191  0.2044  0.1504  0.0796
 1068BOLB   GL325623  23.494  37.889   2.826  0.2246  0.1189  0.3752
 1068BOLB   GL425624  23.986  37.840   2.841  0.1799  0.3014 -0.0696
 1068BOLB   C1C25625  23.589  37.809   2.341 -0.0131 -0.0574 -0.0021
 1068BOLB   C2C25626  23.627  37.378   2.175  0.1242 -0.1649  0.0086
 1068BOLB   C3C25627  23.936  36.995   2.221 -0.1339 -0.1951  0.0179
 1068BOLB   C4C25628  24.314  36.773   2.148 -0.1794 -0.1136  0.1696
 1068BOLB   C1D25629  24.258  37.496   3.006  0.0758 -0.0490  0.0951
 1068BOLB   C2D25630  24.535  37.256   2.749  0.1626 -0.0720  0.2333
 1068BOLB   C3D25631  24.758  37.043   2.406 -0.2923 -0.0702  0.2553
 1068BOLB   C4D25632  24.857  36.673   2.095 -0.1131 -0.4265  0.2153
 1069BOLB   NC125633  20.490  32.069  23.945  0.1969  0.1866  0.1878
 1069BOLB   PO125634  20.120  31.851  23.699 -0.3475  0.0721  0.1175
 1069BOLB   GL125635  19.660  31.947  23.728  0.2309  0.2140 -0.2606
 1069BOLB   GL225636  19.672  32.315  23.598  0.0435  0.2245  0.0179
 1069BOLB   C1A25637  19.411  31.813  24.076  0.1005  0.0533  0.0701
 1069BOLB   C2A25638  19.005  31.983  24.026 -0.3606  0.1939 -0.3311
 1069BOLB   C3A25639  18.633  31.963  23.976  0.0990  0.2750  0.0314
 1069BOLB   C4A25640  18.215  31.968  24.059  0.0884 -0.1873 -0.0111
 1069BOLB   C1B25641  19.173  32.322  23.696 -0.0624 -0.0235  0.2595
 1069BOLB   C2B25642  18.799  32.422  23.836 -0.2910  0.0370 -0.0574
 1069BOLB   C3B25643  18.576  32.452  24.224 -0.0572  0.1838  0.0598
 1069BOLB   C4B25644  18.486  32.190  24.637 -0.0700  0.2182 -0.2023
 1069BOLB   NC225645  16.036  33.392  24.601 -0.0811 -0.0832 -0.1540
 1069BOLB   PO225646  16.324  33.216  24.798  0.2716 -0.0546 -0.1977
 1069BOLB   GL325647  16.637  33.143  24.609 -0.1288 -0.1094 -0.1070
 1069BOLB   GL425648  16.628  33.307  24.319  0.1499 -0.1200  0.2866
 1069BOLB   C1C25649  16.921  32.940  24.313  0.0234  0.0931 -0.0295
 1069BOLB   C2C25650  17.067  32.674  24.014 -0.0313  0.0269  0.2095
 1069BOLB   C3C25651  17.355  32.356  23.828  0.0345 -0.2597  0.0340
 1069BOLB   C4C25652  17.797  32.172  23.885  0.1267  0.0918 -0.0023
 1069BOLB   C1D25653  17.055  33.425  24.335  0.2103 -0.1423 -0.0748
 1069BOLB   C2D25654  17.362  33.531  24.518 -0.2921 -0.1586 -0.0995
 1069BOLB   C3D25655  17.715  33.651  24.821  0.2641 -0.3933 -0.2176
 1069BOLB   C4D25656  18.092  33.713  24.953  0.1544  0.0096  0.0419
 1070BOLB   NC125657  33.828  38.065  14.802 -0.2009 -0.0738  0.1081
 1070BOLB   PO125658  34.235  38.310  14.876 -0.1908  0.2946  0.1986
 1070BOLB   GL125659  33.942  38.185  15.298 -0.3834  0.3592  0.1310
 1070BOLB   GL225660  33.906  38.411  15.543  0.3989  0.0334 -0.1688
 1070BOLB   C1A25661  33.741  38.040  15.731 -0.1027 -0.1394 -0.2823
 1070BOLB   C2A25662  33.442  37.972  16.024  0.2317  0.1154 -0.0403
 1070BOLB   C3A25663  33.166  37.658  16.044 -0.1879  0.3056 -0.0207
 1070BOLB   C4A25664  33.187  37.226  15.944  0.2328  0.1676 -0.0412
 1070BOLB   C1B25665  33.673  38.538  15.880 -0.1994 -0.0322 -0.1168
 1070BOLB   C2B25666  33.243  38.423  15.913 -0.0175  0.1756 -0.0382
 1070BOLB   C3B25667  32.985  38.180  15.674 -0.0418  0.0896  0.1876
 1070BOLB   C4B25668  32.608  37.972  15.710  0.0495  0.1148 -0.1625
 1070BOLB   NC225669  34.413  37.272  13.678 -0.0897  0.0507 -0.1614
 1070BOLB   PO225670  34.400  37.523  14.075 -0.0415  0.1166 -0.0280
 1070BOLB   GL325671  34.286  37.405  14.514 -0.2522 -0.2650  0.0348
 1070BOLB   GL425672  33.905  37.386  14.609  0.1132 -0.0547 -0.1375
 1070BOLB   C1C25673  34.393  37.302  14.977  0.1527  0.1000  0.0829
 1070BOLB   C2C25674  34.144  37.179  15.364  0.0677 -0.3254  0.0265
 1070BOLB   C3C25675  33.759  36.973  15.531  0.0017 -0.0191 -0.1020
 1070BOLB   C4C25676  33.535  36.923  15.848  0.1353  0.1613  0.1641
 1070BOLB   C1D25677  33.721  37.470  15.089  0.2287 -0.1874 -0.0703
 1070BOLB   C2D25678  33.339  37.357  15.408  0.1068  0.0806 -0.0055
 1070BOLB   C3D25679  32.973  37.013  15.540  0.1058  0.0902  0.0336
 1070BOLB   C4D25680  32.773  36.655  15.440 -0.2613  0.1451 -0.1980
 1071BOLB   NC125681  33.569  23.951  20.907  0.0264 -0.2025  0.0484
 1071BOLB   PO125682  33.458  23.553  21.181 -0.1125 -0.2331 -0.1222
 1071BOLB   GL125683  33.603  23.059  21.164  0.0779 -0.0416 -0.0450
 1071BOLB   GL225684  33.601  22.957  21.482 -0.0673 -0.2637  0.2586
 1071BOLB   C1A25685  33.796  22.765  20.972  0.0567  0.2118 -0.0432
 1071BOLB   C2A25686  34.074  22.510  21.001  0.0631 -0.3817 -0.0698
 1071BOLB   C3A25687  34.325  22.295  21.291 -0.1170 -0.1736  0.2457
 1071BOLB   C4A25688  34.706  22.142  21.380  0.0174 -0.3030 -0.2031
 1071BOLB   C1B25689  34.036  22.691  21.498  0.1655 -0.1417 -0.0197
 1071BOLB   C2B25690  34.375  22.398  21.857 -0.0794 -0.2270 -0.0085
 1071BOLB   C3B25691  34.443  22.023  22.120  0.3607  0.1318 -0.1302
 1071BOLB   C4B25692  34.414  21.666  22.383 -0.2595 -0.1185 -0.5279
 1071BOLB   NC225693  36.707  20.832  20.951  0.0489 -0.0952 -0.1829
 1071BOLB   PO225694  36.775  21.259  20.919 -0.1231  0.0436 -0.4171
 1071BOLB   GL325695  36.455  21.595  21.002  0.1266  0.0766 -0.1927
 1071BOLB   GL425696  36.191  21.483  21.303 -0.0547  0.0464 -0.0218
 1071BOLB   C1C25697  36.041  21.789  20.904 -0.0275  0.1428  0.1263
 1071BOLB   C2C25698  35.819  22.122  21.104  0.0805  0.1384  0.4484
 1071BOLB   C3C25699  35.550  22.296  21.372 -0.0974  0.1616 -0.3140
 1071BOLB   C4C25700  35.131  22.340  21.464 -0.0700 -0.3229 -0.3581
 1071BOLB   C1D25701  36.086  21.889  21.447 -0.0028 -0.0297 -0.0483
 1071BOLB   C2D25702  36.074  22.303  21.485 -0.0603  0.0674  0.3534
 1071BOLB   C3D25703  35.960  22.609  21.632  0.0061 -0.0914  0.0027
 1071BOLB   C4D25704  35.539  22.939  21.574 -0.0331  0.2459  0.0133
 1072BOLB   NC125705  26.783  31.604   9.648  0.1031  0.0571  0.0435
 1072BOLB   PO125706  26.532  31.878   9.493 -0.2860 -0.0990  0.0943
 1072BOLB   GL125707  26.509  32.015  10.015  0.1841 -0.0880 -0.3821
 1072BOLB   GL225708  26.733  32.199   9.999 -0.0106 -0.1686  0.2407
 1072BOLB   C1A25709  26.323  32.356  10.253 -0.0577 -0.2937  0.2058
 1072BOLB   C2A25710  26.345  32.452  10.682  0.2515  0.2849 -0.1482
 1072BOLB   C3A25711  26.480  32.348  11.060 -0.1526  0.0031  0.3811
 1072BOLB   C4A25712  26.639  32.390  11.516 -0.2640 -0.1799  0.1738
 1072BOLB   C1B25713  26.823  32.401  10.411  0.0899 -0.1691 -0.0125
 1072BOLB   C2B25714  27.067  32.517  10.751 -0.1297 -0.0532 -0.1399
 1072BOLB   C3B25715  26.965  32.586  11.165 -0.3335  0.1038 -0.4230
 1072BOLB   C4B25716  27.166  32.647  11.475  0.1355 -0.2889 -0.4085
 1072BOLB   NC225717  27.353  32.432  14.246  0.1239 -0.2953 -0.1367
 1072BOLB   PO225718  26.968  32.293  14.169  0.2695  0.0683 -0.1510
 1072BOLB   GL325719  26.857  32.269  13.753  0.1758 -0.2537 -0.0743
 1072BOLB   GL425720  27.028  32.554  13.624 -0.2298 -0.0309  0.0795
 1072BOLB   C1C25721  26.759  32.056  13.259 -0.0288 -0.1178  0.0377
 1072BOLB   C2C25722  26.561  32.176  12.893 -0.1668  0.3346  0.0065
 1072BOLB   C3C25723  26.464  32.258  12.465 -0.0112 -0.0064  0.0189
 1072BOLB   C4C25724  26.570  32.260  12.041  0.1235  0.1016  0.0030
 1072BOLB   C1D25725  26.856  32.656  13.164  0.0244  0.2574 -0.0914
 1072BOLB   C2D25726  26.717  32.660  12.742 -0.0936 -0.0070 -0.1099
 1072BOLB   C3D25727  26.716  32.669  12.268 -0.3618 -0.1098  0.1833
 1072BOLB   C4D25728  26.925  32.588  11.942  0.1776  0.1177 -0.0908
 1073BOLB   NC125729  32.896  26.805   0.554  0.1629  0.1499  0.2196
 1073BOLB   PO125730  32.812  27.028   0.942 -0.0554 -0.2098  0.1619
 1073BOLB   GL125731  33.034  26.568   1.105 -0.0697  0.1371  0.1536
 1073BOLB   GL225732  33.159  26.427   0.783 -0.0232  0.1320 -0.1100
 1073BOLB   C1A25733  33.178  26.180   1.215  0.0303 -0.1501 -0.0811
 1073BOLB   C2A25734  33.261  25.751   1.306  0.3107 -0.0021 -0.1035
 1073BOLB   C3A25735  33.363  25.388   1.594  0.1184  0.1293 -0.0891
 1073BOLB   C4A25736  33.304  25.044   1.752  0.2600  0.2088 -0.2034
 1073BOLB   C1B25737  33.574  26.428   1.078 -0.1891  0.0222 -0.1232
 1073BOLB   C2B25738  33.885  26.254   1.398 -0.2231 -0.1387 -0.1719
 1073BOLB   C3B25739  34.006  26.305   1.793  0.2086  0.0869 -0.1278
 1073BOLB   C4B25740  34.128  26.428   2.071  0.2565 -0.2599  0.2454
 1073BOLB   NC225741  34.337  23.981   3.662  0.1535 -0.1973  0.1131
 1073BOLB   PO225742  34.546  24.210   3.491  0.1910 -0.0426 -0.0359
 1073BOLB   GL325743  34.646  24.502   3.095  0.2334 -0.1362 -0.0166
 1073BOLB   GL425744  34.413  24.312   2.910 -0.0648  0.0281 -0.1290
 1073BOLB   C1C25745  34.493  24.835   2.909  0.2172 -0.2152 -0.2010
 1073BOLB   C2C25746  34.099  24.905   2.621  0.0325  0.0965  0.5750
 1073BOLB   C3C25747  33.631  24.914   2.578 -0.0180  0.0092 -0.0195
 1073BOLB   C4C25748  33.308  24.887   2.234  0.0724 -0.3590 -0.1278
 1073BOLB   C1D25749  34.200  24.403   2.554  0.2149  0.0933 -0.2018
 1073BOLB   C2D25750  33.914  24.484   2.426 -0.1407  0.0055  0.0879
 1073BOLB   C3D25751  33.865  24.793   2.120  0.2670  0.2224  0.0070
 1073BOLB   C4D25752  33.795  24.906   1.813 -0.0865 -0.2049  0.0498
 1074BOLB   NC125753  35.441  32.468  19.928  0.0157  0.0049 -0.0056
 1074BOLB   PO125754  35.343  32.247  19.530 -0.1843 -0.3818  0.0332
 1074BOLB   GL125755  35.747  32.264  19.473 -0.0918 -0.1963  0.4538
 1074BOLB   GL225756  35.850  32.393  19.095 -0.0670  0.2494 -0.2315
 1074BOLB   C1A25757  36.154  32.230  19.475 -0.0223  0.2041  0.1178
 1074BOLB   C2A25758  36.527  31.927  19.134 -0.1531 -0.0600 -0.1199
 1074BOLB   C3A25759  36.886  31.870  19.329  0.1469  0.3416  0.1311
 1074BOLB   C4A25760  37.336  31.714  19.479  0.1252 -0.3039  0.0801
 1074BOLB   C1B25761  36.367  32.460  19.091 -0.3450 -0.0605 -0.5309
 1074BOLB   C2B25762  36.731  32.502  19.027  0.0627  0.0695  0.0358
 1074BOLB   C3B25763  37.105  32.719  19.001  0.2301  0.1774  0.1542
 1074BOLB   C4B25764  37.458  32.529  18.828 -0.2975 -0.2509  0.3795
 1074BOLB   NC225765  39.840  32.368  19.276 -0.0276 -0.1724 -0.1083
 1074BOLB   PO225766  39.634  32.132  18.914 -0.0399 -0.0081 -0.0154
 1074BOLB   GL325767  39.320  31.907  18.894 -0.0025  0.2191 -0.1665
 1074BOLB   GL425768  39.327  31.556  18.852 -0.1929  0.1282 -0.1417
 1074BOLB   C1C25769  38.873  31.862  18.940 -0.2563 -0.3284  0.2216
 1074BOLB   C2C25770  38.362  31.940  19.039 -0.0070  0.2012 -0.2126
 1074BOLB   C3C25771  38.100  31.991  19.317  0.2714  0.3469  0.0698
 1074BOLB   C4C25772  37.769  31.883  19.528  0.0427 -0.1484 -0.1738
 1074BOLB   C1D25773  38.959  31.328  18.730  0.0687 -0.0518 -0.0612
 1074BOLB   C2D25774  38.635  31.472  18.792  0.1305  0.0951 -0.2456
 1074BOLB   C3D25775  38.208  31.557  18.725 -0.3275 -0.1778  0.0378
 1074BOLB   C4D25776  37.835  31.731  18.764  0.0329 -0.0865  0.3460
 1075BOLB   NC125777  24.808  31.777   7.106  0.2039  0.0261  0.0171
 1075BOLB   PO125778  25.026  31.744   6.776  0.5491 -0.0152 -0.0522
 1075BOLB   GL125779  24.841  31.903   6.398  0.0381 -0.1588 -0.2550
 1075BOLB   GL225780  24.856  32.174   6.386  0.1005  0.1714 -0.0925
 1075BOLB   C1A25781  25.026  31.946   5.932 -0.1078  0.0536  0.0539
 1075BOLB   C2A25782  25.160  31.851   5.561  0.1012  0.1731 -0.0160
 1075BOLB   C3A25783  25.035  31.711   5.143 -0.1111 -0.3083  0.0780
 1075BOLB   C4A25784  24.702  31.477   4.859 -0.0037 -0.2034 -0.0290
 1075BOLB   C1B25785  24.713  32.384   6.039 -0.0106 -0.1692 -0.0319
 1075BOLB   C2B25786  24.622  32.205   5.618  0.0740  0.0548 -0.1680
 1075BOLB   C3B25787  24.572  31.912   5.268  0.3766  0.1899  0.0239
 1075BOLB   C4B25788  24.344  31.649   5.172  0.0533 -0.0810 -0.1893
 1075BOLB   NC225789  23.264  32.060   6.342  0.1150  0.1979 -0.2551
 1075BOLB   PO225790  23.532  32.326   6.193  0.2201 -0.3871  0.1072
 1075BOLB   GL325791  23.428  32.059   5.792 -0.1292  0.2051 -0.3344
 1075BOLB   GL425792  23.132  32.174   5.549  0.2123  0.1358  0.2575
 1075BOLB   C1C25793  23.539  31.798   5.448 -0.1969 -0.0269 -0.2374
 1075BOLB   C2C25794  23.857  31.677   5.140 -0.1138  0.2560 -0.2518
 1075BOLB   C3C25795  24.043  31.287   5.012 -0.2323  0.3472 -0.0115
 1075BOLB   C4C25796  24.263  31.295   4.761 -0.0801  0.0423 -0.0071
 1075BOLB   C1D25797  23.169  32.008   5.121  0.0294  0.3026 -0.2101
 1075BOLB   C2D25798  23.114  31.786   4.756 -0.1522  0.0820  0.0396
 1075BOLB   C3D25799  22.898  31.877   4.307 -0.0396  0.1649  0.1559
 1075BOLB   C4D25800  22.927  32.175   3.890  0.0955 -0.1404 -0.1266
 1076BOLB   NC125801  39.178  27.042  17.432  0.2445  0.1574 -0.0251
 1076BOLB   PO125802  39.025  27.459  17.257 -0.0241 -0.1387  0.0300
 1076BOLB   GL125803  38.706  27.617  17.407  0.1151 -0.1334 -0.1405
 1076BOLB   GL225804  38.654  27.736  17.645  0.2030 -0.1929 -0.0501
 1076BOLB   C1A25805  38.232  27.825  17.290  0.0967  0.2895 -0.1904
 1076BOLB   C2A25806  37.954  28.084  17.466 -0.0634  0.3810  0.0855
 1076BOLB   C3A25807  37.753  28.321  17.722  0.1538 -0.1469  0.0750
 1076BOLB   C4A25808  37.393  28.442  17.896 -0.0267 -0.1866  0.2763
 1076BOLB   C1B25809  38.253  28.003  17.834 -0.1053 -0.1346  0.1452
 1076BOLB   C2B25810  37.882  27.906  18.013 -0.2794 -0.0155  0.0926
 1076BOLB   C3B25811  37.434  27.772  18.243 -0.4227 -0.2856  0.1451
 1076BOLB   C4B25812  37.034  27.771  18.470  0.0617  0.0259 -0.0855
 1076BOLB   NC225813  34.717  28.276  19.193  0.1629  0.3680 -0.1605
 1076BOLB   PO225814  35.051  28.256  18.899  0.6918 -0.0821  0.0724
 1076BOLB   GL325815  35.401  28.259  18.911 -0.4837  0.0176 -0.1722
 1076BOLB   GL425816  35.444  28.033  18.643 -0.3307 -0.1019  0.0680
 1076BOLB   C1C25817  35.962  28.299  18.607 -0.0078  0.2267  0.1031
 1076BOLB   C2C25818  36.241  28.337  18.387 -0.2123  0.2552 -0.1131
 1076BOLB   C3C25819  36.577  28.310  18.083  0.1351  0.1758 -0.0524
 1076BOLB   C4C25820  37.008  28.348  17.980  0.3049  0.1063  0.1080
 1076BOLB   C1D25821  35.825  27.832  18.635 -0.0694 -0.2478  0.0716
 1076BOLB   C2D25822  36.215  27.766  18.462 -0.0547  0.3723  0.1042
 1076BOLB   C3D25823  36.569  27.873  18.396 -0.2183  0.2051  0.1945
 1076BOLB   C4D25824  36.776  27.842  17.945 -0.2255 -0.1404 -0.1544
 1077BOLB   NC125825  34.914  33.502  21.065  0.2467  0.1523  0.0320
 1077BOLB   PO125826  35.067  33.964  21.112 -0.0338  0.0489 -0.0276
 1077BOLB   GL125827  35.477  34.202  20.980  0.2081  0.1474  0.1280
 1077BOLB   GL225828  35.688  33.960  20.839 -0.0887  0.3675 -0.0396
 1077BOLB   C1A25829  35.899  34.408  21.190  0.2953 -0.0336 -0.2929
 1077BOLB   C2A25830  36.267  34.371  20.959 -0.0485 -0.0259 -0.0308
 1077BOLB   C3A25831  36.613  34.078  21.001 -0.2168 -0.2766  0.0051
 1077BOLB   C4A25832  36.998  33.894  21.060  0.1571 -0.1700 -0.0420
 1077BOLB   C1B25833  36.128  33.866  20.981  0.0620  0.2667 -0.1560
 1077BOLB   C2B25834  36.506  33.580  21.156 -0.2293 -0.1298  0.2491
 1077BOLB   C3B25835  36.878  33.454  21.233  0.0053 -0.2716 -0.0921
 1077BOLB   C4B25836  37.247  33.598  21.385  0.1234  0.1073  0.2835
 1077BOLB   NC225837  39.001  33.353  19.997  0.1136  0.2038  0.0334
 1077BOLB   PO225838  38.761  33.397  19.677  0.2472 -0.3319 -0.4356
 1077BOLB   GL325839  38.490  33.233  19.917 -0.1336 -0.0292  0.1465
 1077BOLB   GL425840  38.169  33.371  19.810 -0.0934  0.0812  0.2833
 1077BOLB   C1C25841  38.239  33.154  20.351  0.0036  0.3272  0.0277
 1077BOLB   C2C25842  37.845  33.282  20.325  0.2442 -0.0657 -0.0245
 1077BOLB   C3C25843  37.505  33.593  20.484 -0.1315  0.2496  0.0703
 1077BOLB   C4C25844  37.309  33.741  20.845  0.0576 -0.0229  0.3797
 1077BOLB   C1D25845  37.731  33.533  19.854 -0.1517  0.0425  0.2485
 1077BOLB   C2D25846  37.384  33.349  19.986  0.1418  0.0614  0.3322
 1077BOLB   C3D25847  36.961  33.417  20.161 -0.1328  0.0455 -0.2647
 1077BOLB   C4D25848  36.524  33.318  20.257  0.1646  0.1891 -0.3129
 1078BOLB   NC125849  25.181  36.594  24.899 -0.0597  0.2786 -0.0998
 1078BOLB   PO125850  24.730  36.570  24.906 -0.1324  0.0890 -0.0065
 1078BOLB   GL125851  24.535  36.929  24.992  0.0103  0.2102 -0.2619
 1078BOLB   GL225852  24.278  36.878  24.801  0.1529 -0.2210  0.0405
 1078BOLB   C1A25853  24.462  37.028  25.447 -0.2144 -0.0371 -0.1890
 1078BOLB   C2A25854  24.461  37.325  25.823  0.0821 -0.3100 -0.0551
 1078BOLB   C3A25855  24.104  37.408  25.883 -0.0607  0.1128 -0.1941
 1078BOLB   C4A25856  23.937  37.619  26.157  0.0899  0.2363 -0.0660
 1078BOLB   C1B25857  24.032  37.044  25.166 -0.0810 -0.2512  0.1748
 1078BOLB   C2B25858  24.143  37.365  25.356  0.1799  0.1391  0.2252
 1078BOLB   C3B25859  24.101  37.878  25.345  0.1860 -0.1022 -0.2480
 1078BOLB   C4B25860  24.479  38.217  25.430  0.2249  0.1977  0.0573
 1078BOLB   NC225861  22.904  39.680  26.500 -0.1148  0.2325  0.1345
 1078BOLB   PO225862  23.171  39.579  26.761  0.2608 -0.2467  0.0776
 1078BOLB   GL325863  23.475  39.381  26.622  0.1696 -0.1297  0.0569
 1078BOLB   GL425864  23.915  39.555  26.748  0.2303 -0.0146 -0.0226
 1078BOLB   C1C25865  23.751  39.017  26.704  0.2104  0.0675 -0.0405
 1078BOLB   C2C25866  23.858  38.578  26.608  0.1774 -0.0017 -0.0668
 1078BOLB   C3C25867  23.900  38.172  26.522  0.0619  0.0957  0.2094
 1078BOLB   C4C25868  23.884  37.855  26.422 -0.1553 -0.3435 -0.0336
 1078BOLB   C1D25869  24.100  39.214  26.479  0.2338  0.0381 -0.1355
 1078BOLB   C2D25870  24.572  39.068  26.449  0.2668 -0.0418  0.0267
 1078BOLB   C3D25871  24.732  38.744  26.806 -0.1765  0.1506 -0.0094
 1078BOLB   C4D25872  24.909  38.372  26.631  0.1833 -0.1056 -0.0894
 1079BOLB   NC125873  32.724  23.741  24.202 -0.3035 -0.0979  0.0614
 1079BOLB   PO125874  33.150  23.566  24.362  0.0556 -0.0841 -0.1132
 1079BOLB   GL125875  33.271  23.268  24.119 -0.3337 -0.2154 -0.1801
 1079BOLB   GL225876  33.112  23.026  24.381  0.1856  0.0457 -0.0967
 1079BOLB   C1A25877  33.630  23.192  23.846  0.0125  0.1969 -0.2155
 1079BOLB   C2A25878  34.090  22.988  23.749  0.0620 -0.2321 -0.1673
 1079BOLB   C3A25879  34.592  22.974  23.603  0.0652 -0.0022 -0.0664
 1079BOLB   C4A25880  34.962  22.887  23.862 -0.0989  0.3213  0.0720
 1079BOLB   C1B25881  33.511  22.763  24.513 -0.0599  0.2765  0.1988
 1079BOLB   C2B25882  33.811  22.590  24.336 -0.0299  0.1993  0.0977
 1079BOLB   C3B25883  34.277  22.550  24.104 -0.0541 -0.0073 -0.1116
 1079BOLB   C4B25884  34.621  22.536  23.817  0.0547  0.0765  0.3480
 1079BOLB   NC225885  36.733  21.881  25.180  0.0745  0.0392  0.3607
 1079BOLB   PO225886  36.588  21.776  24.742 -0.3999 -0.2367 -0.1240
 1079BOLB   GL325887  36.137  21.887  24.840 -0.6206 -0.0745  0.1741
 1079BOLB   GL425888  36.170  21.970  25.148 -0.2637  0.0333  0.0549
 1079BOLB   C1C25889  35.621  22.027  24.896 -0.2092 -0.0641  0.3796
 1079BOLB   C2C25890  35.573  22.456  24.641  0.0159 -0.3143 -0.2947
 1079BOLB   C3C25891  35.486  22.477  24.299  0.3402 -0.0485  0.3444
 1079BOLB   C4C25892  35.304  22.760  24.001  0.4241 -0.3375 -0.1217
 1079BOLB   C1D25893  35.825  22.236  25.281  0.2911  0.0668 -0.1488
 1079BOLB   C2D25894  35.416  22.461  25.186  0.1813  0.0356 -0.2520
 1079BOLB   C3D25895  35.061  22.731  25.178 -0.3935  0.2154  0.1271
 1079BOLB   C4D25896  34.643  22.924  25.238  0.0770 -0.3595  0.0773
 1080BOLB   NC125897  15.131  22.790  26.919 -0.2316  0.1021 -0.2752
 1080BOLB   PO125898  14.965  22.709  26.427  0.2437 -0.0986 -0.1345
 1080BOLB   GL125899  15.221  23.047  26.299 -0.0801 -0.1923  0.3133
 1080BOLB   GL225900  15.522  22.913  26.160 -0.1895 -0.1105 -0.1488
 1080BOLB   C1A25901  15.337  23.351  25.927  0.1132  0.0854  0.3624
 1080BOLB   C2A25902  15.481  23.659  25.734  0.1386  0.1642  0.3420
 1080BOLB   C3A25903  15.404  23.814  25.330 -0.0927  0.0520  0.1026
 1080BOLB   C4A25904  15.087  23.661  25.003 -0.4206  0.1082  0.2846
 1080BOLB   C1B25905  15.823  22.969  25.744 -0.0481 -0.1668  0.1939
 1080BOLB   C2B25906  15.921  23.413  25.609 -0.0818 -0.2132 -0.0750
 1080BOLB   C3B25907  15.996  23.803  25.826  0.0811 -0.0083 -0.0193
 1080BOLB   C4B25908  15.817  24.202  25.870 -0.0560  0.1647 -0.6155
 1080BOLB   NC225909  15.135  22.236  24.808 -0.0751 -0.0465  0.0082
 1080BOLB   PO225910  14.804  22.255  24.566 -0.0063  0.0353  0.0476
 1080BOLB   GL325911  14.664  22.621  24.491 -0.0039 -0.2323  0.1138
 1080BOLB   GL425912  14.926  22.714  24.647 -0.2769 -0.2208 -0.1276
 1080BOLB   C1C25913  14.818  22.989  24.213  0.2128 -0.0968  0.1082
 1080BOLB   C2C25914  14.730  23.331  24.026  0.1703  0.0296  0.1135
 1080BOLB   C3C25915  14.601  23.722  24.341 -0.0344  0.0946 -0.1215
 1080BOLB   C4C25916  14.791  23.847  24.728 -0.1216  0.1460  0.2610
 1080BOLB   C1D25917  15.321  22.757  24.378  0.0055 -0.4260  0.0262
 1080BOLB   C2D25918  15.772  22.781  24.258 -0.1412 -0.0440  0.1684
 1080BOLB   C3D25919  16.087  23.265  24.173 -0.2434 -0.0049 -0.2429
 1080BOLB   C4D25920  16.377  23.418  23.927 -0.2610  0.2359  0.0590
 1081BOLB   NC125921  23.100  37.073   4.449 -0.3754  0.1931 -0.0595
 1081BOLB   PO125922  23.533  37.279   4.309  0.1238 -0.0547 -0.1599
 1081BOLB   GL125923  23.685  37.032   3.951 -0.2271  0.0393 -0.1955
 1081BOLB   GL225924  23.547  37.071   3.576 -0.2952  0.1227 -0.2306
 1081BOLB   C1A25925  24.020  36.776   3.707 -0.0726  0.0680 -0.0244
 1081BOLB   C2A25926  24.009  36.680   3.229  0.2660 -0.0561 -0.0172
 1081BOLB   C3A25927  23.949  36.503   2.869 -0.1363  0.2485  0.1105
 1081BOLB   C4A25928  24.030  36.456   2.446 -0.1536 -0.3636 -0.2761
 1081BOLB   C1B25929  23.606  36.699   3.450 -0.1756  0.1420  0.3780
 1081BOLB   C2B25930  23.564  36.483   3.750 -0.0650 -0.1244  0.3112
 1081BOLB   C3B25931  23.634  36.036   3.768  0.1261 -0.5223  0.0717
 1081BOLB   C4B25932  23.635  35.623   3.653  0.1395 -0.2028  0.0987
 1081BOLB   NC225933  22.892  38.764   2.130  0.0115  0.1138  0.1566
 1081BOLB   PO225934  22.897  38.322   1.845  0.1182 -0.0099 -0.3393
 1081BOLB   GL325935  23.195  38.004   1.758 -0.3316  0.0423  0.3796
 1081BOLB   GL425936  23.452  38.026   1.877 -0.0834  0.2680  0.1656
 1081BOLB   C1C25937  23.263  37.557   1.745 -0.2066  0.1896 -0.2562
 1081BOLB   C2C25938  23.555  37.249   1.693  0.0362 -0.1827  0.2449
 1081BOLB   C3C25939  23.637  36.805   1.892  0.1272  0.0080  0.0143
 1081BOLB   C4C25940  23.835  36.489   2.102 -0.0527 -0.1026  0.0295
 1081BOLB   C1D25941  23.659  37.713   1.515 -0.1355 -0.2213  0.1885
 1081BOLB   C2D25942  23.887  37.394   1.276 -0.0104  0.0457  0.2534
 1081BOLB   C3D25943  23.921  36.937   1.167  0.0198  0.3576 -0.0558
 1081BOLB   C4D25944  23.831  36.526   0.953  0.0595 -0.2679  0.0057
 1082BOLB   NC125945  27.051  21.894  19.675  0.1717 -0.0948 -0.0121
 1082BOLB   PO125946  27.370  21.728  19.440 -0.4016  0.1774  0.2133
 1082BOLB   GL125947  27.732  21.507  19.246  0.0621 -0.0356 -0.1246
 1082BOLB   GL225948  27.647  21.314  18.937  0.0621 -0.1088  0.5739
 1082BOLB   C1A25949  27.962  21.169  19.291 -0.1147 -0.0407  0.2360
 1082BOLB   C2A25950  28.046  20.739  19.118 -0.0606  0.0844  0.1152
 1082BOLB   C3A25951  28.057  20.401  18.969 -0.0276  0.0148 -0.0086
 1082BOLB   C4A25952  27.823  20.069  18.784 -0.1294  0.1292  0.1307
 1082BOLB   C1B25953  27.723  20.912  18.753 -0.3630 -0.2675  0.1996
 1082BOLB   C2B25954  27.550  20.554  18.855 -0.0418 -0.0706  0.1833
 1082BOLB   C3B25955  27.484  20.182  19.127 -0.0713 -0.0141 -0.1548
 1082BOLB   C4B25956  27.312  20.105  19.584 -0.0410 -0.1928 -0.1177
 1082BOLB   NC225957  28.062  17.903  16.816  0.3178 -0.1669  0.0052
 1082BOLB   PO225958  28.286  17.919  17.227  0.1199 -0.2344  0.1544
 1082BOLB   GL325959  28.213  18.278  17.465 -0.1485  0.2129  0.0127
 1082BOLB   GL425960  28.566  18.377  17.645  0.4194 -0.1526 -0.1215
 1082BOLB   C1C25961  27.997  18.622  17.645 -0.1711  0.3330  0.0106
 1082BOLB   C2C25962  27.885  18.924  17.992 -0.0156  0.1122  0.3651
 1082BOLB   C3C25963  27.696  19.308  18.281 -0.1967 -0.1855 -0.2657
 1082BOLB   C4C25964  27.624  19.650  18.536 -0.3067  0.2278 -0.1438
 1082BOLB   C1D25965  28.422  18.716  17.293  0.0664 -0.0370 -0.1089
 1082BOLB   C2D25966  28.676  19.134  17.223  0.0208 -0.1488  0.0949
 1082BOLB   C3D25967  28.761  19.569  17.275  0.1827  0.1184 -0.0551
 1082BOLB   C4D25968  28.722  19.892  16.885 -0.1626 -0.2221 -0.3201
 1083BOLB   NC125969  25.831  35.259   5.155  0.0224 -0.3059 -0.3250
 1083BOLB   PO125970  26.091  35.625   5.233 -0.1093  0.0971  0.1826
 1083BOLB   GL125971  26.516  35.568   5.119 -0.3225 -0.1948 -0.1466
 1083BOLB   GL225972  26.650  35.331   5.255 -0.3354  0.0339 -0.0059
 1083BOLB   C1A25973  26.761  35.420   4.734  0.0638 -0.0881 -0.1326
 1083BOLB   C2A25974  26.636  35.363   4.327 -0.4826 -0.0765  0.1861
 1083BOLB   C3A25975  26.857  35.294   3.905 -0.0376  0.1184  0.2326
 1083BOLB   C4A25976  27.052  35.469   3.504 -0.0324  0.1448 -0.1707
 1083BOLB   C1B25977  26.398  34.963   5.182 -0.1130 -0.2772 -0.1643
 1083BOLB   C2B25978  26.500  34.510   5.178  0.1496 -0.4183 -0.1589
 1083BOLB   C3B25979  26.609  34.229   4.815 -0.2731 -0.0312 -0.0075
 1083BOLB   C4B25980  26.831  33.844   4.580  0.1738 -0.2486  0.0432
 1083BOLB   NC225981  27.413  37.013   4.807 -0.3056  0.2105 -0.3168
 1083BOLB   PO225982  27.685  36.678   4.638 -0.0217  0.2282 -0.1141
 1083BOLB   GL325983  27.881  36.588   4.347  0.0127  0.1518  0.2126
 1083BOLB   GL425984  28.172  36.488   4.467 -0.1372 -0.0101 -0.2792
 1083BOLB   C1C25985  27.766  36.451   3.953  0.2259 -0.1480 -0.0582
 1083BOLB   C2C25986  27.575  36.225   3.692  0.0086  0.3118  0.2068
 1083BOLB   C3C25987  27.554  36.109   3.279  0.3203  0.1159  0.0151
 1083BOLB   C4C25988  27.336  35.778   3.154 -0.0275 -0.1841  0.2467
 1083BOLB   C1D25989  28.180  36.103   4.487  0.2319 -0.2418  0.2435
 1083BOLB   C2D25990  28.151  35.766   4.402 -0.1773 -0.0044  0.1694
 1083BOLB   C3D25991  28.143  35.219   4.319  0.2395  0.1751  0.0454
 1083BOLB   C4D25992  28.307  34.829   4.254  0.0002 -0.0244 -0.2012
 1084BOLB   NC125993  23.462  33.503  15.402 -0.0839 -0.1863  0.2713
 1084BOLB   PO125994  23.486  33.811  15.649  0.0022  0.0900 -0.1183
 1084BOLB   GL125995  23.127  33.859  15.541  0.1034  0.3023 -0.0878
 1084BOLB   GL225996  22.823  34.018  15.723 -0.1347 -0.2301 -0.1806
 1084BOLB   C1A25997  22.937  33.933  15.132 -0.3755 -0.2296 -0.0924
 1084BOLB   C2A25998  22.844  34.287  14.956  0.3488 -0.0897 -0.2068
 1084BOLB   C3A25999  22.878  34.426  14.549 -0.2291 -0.0863  0.0379
 1084BOLB   C4A26000  22.879  34.617  14.188  0.0758 -0.3363 -0.1060
 1084BOLB   C1B26001  22.649  34.352  15.525 -0.0374  0.0091 -0.1006
 1084BOLB   C2B26002  22.534  34.642  15.194  0.1574 -0.3842 -0.1201
 1084BOLB   C3B26003  22.430  34.546  14.848  0.4253  0.0591  0.0671
 1084BOLB   C4B26004  22.471  34.695  14.475  0.2431  0.1541  0.3848
 1084BOLB   NC226005  22.106  35.806  12.590 -0.0938 -0.0289 -0.3205
 1084BOLB   PO226006  21.651  35.828  12.558  0.1072 -0.1720 -0.3586
 1084BOLB   GL326007  21.658  35.633  12.979 -0.0825  0.0170 -0.1564
 1084BOLB   GL426008  22.059  35.642  13.072  0.1263 -0.0522 -0.1886
 1084BOLB   C1C26009  21.691  35.689  13.404  0.0360  0.1579 -0.3259
 1084BOLB   C2C26010  21.970  35.629  13.760  0.1847 -0.0914  0.4890
 1084BOLB   C3C26011  22.222  35.218  13.839 -0.0285 -0.2053  0.0202
 1084BOLB   C4C26012  22.657  34.933  13.934  0.0365 -0.1392  0.2114
 1084BOLB   C1D26013  22.394  35.549  13.393  0.1126 -0.1022 -0.0539
 1084BOLB   C2D26014  22.630  35.464  13.734  0.0058  0.0237 -0.2887
 1084BOLB   C3D26015  22.945  35.344  14.019 -0.1162 -0.1665  0.3896
 1084BOLB   C4D26016  23.148  34.986  13.939 -0.2287  0.0398  0.2668
 1085BOLB   NC126017  28.618  38.052  24.096  0.1317  0.0963 -0.2027
 1085BOLB   PO126018  28.677  38.083  24.472 -0.1032 -0.0256 -0.0579
 1085BOLB   GL126019  28.454  38.581  24.554  0.0057  0.0991  0.1069
 1085BOLB   GL226020  28.536  38.518  24.882 -0.0715  0.1886  0.3242
 1085BOLB   C1A26021  28.427  38.918  24.551  0.2362 -0.0671 -0.3600
 1085BOLB   C2A26022  28.543  39.017  24.110  0.0624 -0.0193  0.0494
 1085BOLB   C3A26023  28.397  39.177  23.740  0.0361  0.0538 -0.2101
 1085BOLB   C4A26024  28.032  39.439  23.659  0.0300  0.2697 -0.0698
 1085BOLB   C1B26025  28.500  38.980  25.083 -0.2331 -0.0142  0.0840
 1085BOLB   C2B26026  28.768  39.456  25.144  0.0626 -0.1477 -0.0411
 1085BOLB   C3B26027  28.880  39.844  25.149 -0.1808  0.1068 -0.2465
 1085BOLB   C4B26028  29.378  39.961  25.245 -0.1833 -0.2132  0.1119
 1085BOLB   NC226029  26.954  41.812  24.709  0.0633 -0.1763  0.0396
 1085BOLB   PO226030  27.071  41.574  24.426  0.0522 -0.2449 -0.2505
 1085BOLB   GL326031  27.350  41.215  24.374 -0.0535 -0.0150  0.0356
 1085BOLB   GL426032  27.546  41.316  24.170 -0.1634  0.1227 -0.1688
 1085BOLB   C1C26033  27.675  40.828  24.182  0.0324  0.0646 -0.1028
 1085BOLB   C2C26034  27.932  40.544  24.080 -0.1138  0.0444  0.0078
 1085BOLB   C3C26035  27.925  40.098  23.987  0.1747 -0.1243 -0.0173
 1085BOLB   C4C26036  27.780  39.775  23.659  0.2876 -0.1784 -0.1517
 1085BOLB   C1D26037  27.803  41.336  24.617  0.0864 -0.0406  0.1279
 1085BOLB   C2D26038  28.198  41.119  24.867  0.2641  0.0770  0.1069
 1085BOLB   C3D26039  28.535  41.080  25.110  0.1130  0.1621 -0.0809
 1085BOLB   C4D26040  28.806  41.227  25.408 -0.2965  0.2087  0.0412
 1086BOLB   NC126041  28.500  26.929  14.123 -0.4992 -0.1819  0.0216
 1086BOLB   PO126042  28.154  26.685  14.196 -0.1340 -0.1495  0.3498
 1086BOLB   GL126043  28.044  26.403  13.788  0.0466  0.0456  0.3814
 1086BOLB   GL226044  28.010  26.096  13.889  0.3248  0.1950 -0.1701
 1086BOLB   C1A26045  28.178  26.321  13.372  0.1191 -0.1645  0.2134
 1086BOLB   C2A26046  28.142  26.035  13.107 -0.2121  0.0038  0.2553
 1086BOLB   C3A26047  28.266  25.599  12.906 -0.2357  0.0521 -0.0114
 1086BOLB   C4A26048  28.178  25.275  12.537  0.2668 -0.0908  0.3272
 1086BOLB   C1B26049  28.170  25.814  13.526 -0.1627 -0.4562  0.0360
 1086BOLB   C2B26050  28.476  25.627  13.433  0.1012 -0.2517 -0.1422
 1086BOLB   C3B26051  28.754  25.457  13.086 -0.0543  0.0284  0.0144
 1086BOLB   C4B26052  28.639  25.216  12.655 -0.1054  0.0554 -0.0206
 1086BOLB   NC226053  28.808  23.261  11.772  0.1534 -0.0551 -0.0349
 1086BOLB   PO226054  28.574  22.852  11.948 -0.5404  0.2423 -0.1353
 1086BOLB   GL326055  28.552  23.181  12.191 -0.0881  0.0170  0.1334
 1086BOLB   GL426056  28.898  23.173  12.329 -0.1451  0.1704 -0.1160
 1086BOLB   C1C26057  28.440  23.615  12.170 -0.2763 -0.4986  0.0452
 1086BOLB   C2C26058  28.368  23.928  12.472 -0.2167 -0.0547 -0.2932
 1086BOLB   C3C26059  28.327  24.416  12.537 -0.0611  0.2352  0.5483
 1086BOLB   C4C26060  28.236  24.935  12.536 -0.0889 -0.1646 -0.3721
 1086BOLB   C1D26061  28.748  23.462  12.609  0.0037 -0.0004  0.0754
 1086BOLB   C2D26062  28.690  23.291  12.993  0.1599 -0.1568  0.0288
 1086BOLB   C3D26063  28.887  23.088  13.326 -0.0445  0.3400 -0.2178
 1086BOLB   C4D26064  29.209  23.394  13.578 -0.4165  0.3036  0.0214
 1087BOLB   NC126065  34.579  31.642   4.548 -0.2670 -0.0599  0.0879
 1087BOLB   PO126066  34.959  31.890   4.510 -0.1175 -0.2629  0.2689
 1087BOLB   GL126067  34.804  31.970   4.203  0.1977  0.0609 -0.1522
 1087BOLB   GL226068  34.444  31.822   4.091  0.1052  0.1589 -0.0644
 1087BOLB   C1A26069  34.749  32.051   3.773 -0.1136 -0.0852  0.0531
 1087BOLB   C2A26070  34.574  31.965   3.342  0.0193 -0.0340 -0.0336
 1087BOLB   C3A26071  34.246  31.879   3.237 -0.0306 -0.0449 -0.0012
 1087BOLB   C4A26072  33.871  32.127   3.278  0.2662 -0.3252  0.1778
 1087BOLB   C1B26073  34.030  31.723   3.969 -0.1384  0.1342  0.1157
 1087BOLB   C2B26074  33.687  31.541   3.762 -0.1528 -0.1986  0.1384
 1087BOLB   C3B26075  33.567  31.180   3.483 -0.0222 -0.4162  0.3152
 1087BOLB   C4B26076  33.410  31.119   3.085  0.1686  0.1542 -0.3767
 1087BOLB   NC226077  34.702  33.674   5.165 -0.3744  0.2138 -0.0531
 1087BOLB   PO226078  34.705  33.428   4.847 -0.2708  0.0831 -0.0201
 1087BOLB   GL326079  34.538  33.294   4.461  0.0695 -0.2329  0.1345
 1087BOLB   GL426080  34.512  32.969   4.357 -0.1503 -0.0560 -0.0814
 1087BOLB   C1C26081  34.066  33.215   4.182 -0.0425 -0.3574  0.0729
 1087BOLB   C2C26082  34.068  32.944   3.773 -0.0830  0.1152 -0.1073
 1087BOLB   C3C26083  33.889  32.819   3.468 -0.3487 -0.0949 -0.1488
 1087BOLB   C4C26084  33.653  32.512   3.333  0.4784 -0.2609 -0.1327
 1087BOLB   C1D26085  34.563  32.735   3.987 -0.0296  0.0536  0.0999
 1087BOLB   C2D26086  34.850  32.522   3.653  0.0944  0.1525  0.0967
 1087BOLB   C3D26087  35.235  32.493   3.487  0.0875 -0.2371  0.0300
 1087BOLB   C4D26088  35.619  32.789   3.332 -0.1267  0.2749 -0.3127
 1088BOLB   NC126089  34.234  33.668  23.852  0.1796  0.2347 -0.0283
 1088BOLB   PO126090  34.281  34.013  24.236  0.1669  0.0409 -0.2966
 1088BOLB   GL126091  34.659  34.295  24.183 -0.1154 -0.0095  0.0282
 1088BOLB   GL226092  34.588  34.447  23.938 -0.0837 -0.0123  0.0295
 1088BOLB   C1A26093  34.988  34.618  24.312 -0.0530  0.0859 -0.0273
 1088BOLB   C2A26094  35.342  34.734  24.368 -0.0455  0.1511  0.0891
 1088BOLB   C3A26095  35.557  35.025  24.363 -0.2074 -0.0074 -0.0048
 1088BOLB   C4A26096  35.728  35.414  24.337 -0.2151  0.0224 -0.0747
 1088BOLB   C1B26097  34.946  34.603  23.803  0.1698  0.3462 -0.0087
 1088BOLB   C2B26098  35.288  34.830  23.832 -0.0926 -0.1752  0.0936
 1088BOLB   C3B26099  35.637  35.032  23.887  0.2548  0.0513 -0.2910
 1088BOLB   C4B26100  35.962  35.310  23.897  0.1700 -0.0081 -0.1518
 1088BOLB   NC226101  36.836  36.755  25.762  0.1761 -0.1396 -0.0523
 1088BOLB   PO226102  37.004  36.304  25.773 -0.1710 -0.2402  0.2450
 1088BOLB   GL326103  36.792  36.286  25.403  0.3378  0.2247 -0.1943
 1088BOLB   GL426104  36.631  36.029  25.520 -0.3630  0.0545  0.1142
 1088BOLB   C1C26105  36.740  36.289  25.001 -0.1221  0.1066 -0.2012
 1088BOLB   C2C26106  36.500  36.061  24.704  0.1179  0.0756  0.1609
 1088BOLB   C3C26107  36.189  35.813  24.530 -0.2390 -0.2901  0.1171
 1088BOLB   C4C26108  35.956  35.614  24.508 -0.1578 -0.2188  0.0095
 1088BOLB   C1D26109  36.555  35.804  25.808 -0.0073  0.2637 -0.1130
 1088BOLB   C2D26110  36.204  35.753  26.045  0.0927  0.0221  0.1480
 1088BOLB   C3D26111  36.076  35.297  26.079  0.0299 -0.0004  0.0228
 1088BOLB   C4D26112  35.847  35.000  25.734 -0.0966  0.2171 -0.0628
 1089BOLB   NC126113  29.489  23.710  26.092  0.0707 -0.1197  0.3836
 1089BOLB   PO126114  29.832  23.634  26.405  0.0932  0.3956 -0.2106
 1089BOLB   GL126115  29.712  23.446  26.820 -0.0266  0.0622 -0.1623
 1089BOLB   GL226116  29.933  23.163  26.773  0.0377 -0.0544  0.2640
 1089BOLB   C1A26117  29.664  23.167   0.234  0.2031  0.1331  0.1442
 1089BOLB   C2A26118  29.874  22.872   0.491 -0.0957 -0.2421  0.1684
 1089BOLB   C3A26119  29.826  22.490   0.783  0.0929 -0.0896  0.1018
 1089BOLB   C4A26120  29.908  22.120   1.101 -0.1850 -0.1383 -0.0619
 1089BOLB   C1B26121  30.235  22.831  26.906  0.1734  0.2040 -0.0170
 1089BOLB   C2B26122  30.388  22.437   0.264 -0.1728  0.0221  0.2564
 1089BOLB   C3B26123  30.287  22.331   0.700 -0.1359 -0.0098 -0.3081
 1089BOLB   C4B26124  30.345  22.038   0.912 -0.1601 -0.2564  0.0659
 1089BOLB   NC226125  31.250  19.509   2.390  0.0280 -0.3557 -0.2939
 1089BOLB   PO226126  31.033  19.892   2.326 -0.1401 -0.0734 -0.0536
 1089BOLB   GL326127  30.852  20.277   2.063 -0.2550 -0.1111 -0.4698
 1089BOLB   GL426128  30.867  20.592   2.278 -0.1203  0.2607 -0.2347
 1089BOLB   C1C26129  30.816  20.724   1.786  0.0061  0.4280 -0.3997
 1089BOLB   C2C26130  30.679  21.013   1.486  0.0985 -0.0349  0.0245
 1089BOLB   C3C26131  30.450  21.435   1.417  0.1599 -0.2715 -0.0475
 1089BOLB   C4C26132  30.123  21.771   1.421 -0.2454 -0.1779  0.2404
 1089BOLB   C1D26133  30.653  21.004   2.213 -0.0634 -0.1322  0.1587
 1089BOLB   C2D26134  30.410  21.126   1.833  0.1008  0.2481 -0.0470
 1089BOLB   C3D26135  30.181  21.545   1.833 -0.2740  0.2369  0.0914
 1089BOLB   C4D26136  29.728  21.664   1.962 -0.0538 -0.2904 -0.0577
 1090BOLB   NC126137  35.097  31.527  24.148  0.0281  0.3549 -0.0007
 1090BOLB   PO126138  35.251  31.375  24.391  0.0142 -0.2635 -0.3827
 1090BOLB   GL126139  35.674  31.438  24.743 -0.2078  0.0213 -0.3631
 1090BOLB   GL226140  35.660  31.158  24.896  0.0100 -0.2299  0.0815
 1090BOLB   C1A26141  35.786  31.664  25.050 -0.2400  0.2737 -0.1343
 1090BOLB   C2A26142  36.113  31.524  25.335  0.0295 -0.2430 -0.3590
 1090BOLB   C3A26143  36.406  31.218  25.554 -0.2213 -0.0019  0.0893
 1090BOLB   C4A26144  36.374  30.832  25.794  0.0708  0.0510 -0.0314
 1090BOLB   C1B26145  36.139  31.105  24.955 -0.1133 -0.2443  0.1505
 1090BOLB   C2B26146  36.573  31.140  25.054  0.0166  0.0055 -0.0270
 1090BOLB   C3B26147  36.883  31.325  25.411  0.1534 -0.0861 -0.0110
 1090BOLB   C4B26148  37.025  31.144  25.787 -0.0924 -0.0053  0.1764
 1090BOLB   NC226149  38.314  31.923   0.409  0.0806  0.4159  0.2282
 1090BOLB   PO226150  38.461  31.775  26.897 -0.0205 -0.0193  0.2184
 1090BOLB   GL326151  38.057  31.528   0.038 -0.0972 -0.1644  0.2339
 1090BOLB   GL426152  37.752  31.625   0.296 -0.0873  0.0786  0.4338
 1090BOLB   C1C26153  37.700  31.544  26.703 -0.1723  0.1931  0.2773
 1090BOLB   C2C26154  37.293  31.349  26.595 -0.3208  0.1276 -0.0302
 1090BOLB   C3C26155  37.037  31.160  26.284  0.1707  0.1843  0.1698
 1090BOLB   C4C26156  36.655  30.993  26.179  0.2152 -0.1070 -0.4241
 1090BOLB   C1D26157  37.281  31.696   0.171 -0.3002 -0.3249 -0.3294
 1090BOLB   C2D26158  37.200  31.907  26.669 -0.1598 -0.1397  0.0185
 1090BOLB   C3D26159  37.069  32.158  26.272  0.1234 -0.0552 -0.0296
 1090BOLB   C4D26160  36.567  32.323  26.287  0.3127  0.0181 -0.0630
 1091BOLB   NC126161  22.564  36.082  24.205 -0.0072  0.1042  0.1630
 1091BOLB   PO126162  22.269  35.983  23.951  0.0315 -0.2271  0.0120
 1091BOLB   GL126163  22.015  36.236  24.201 -0.1926 -0.2670  0.2211
 1091BOLB   GL226164  21.741  36.362  23.965  0.1416 -0.0499 -0.0181
 1091BOLB   C1A26165  22.104  36.653  24.359 -0.1006 -0.0045 -0.1121
 1091BOLB   C2A26166  22.307  36.833  24.740  0.0777  0.1220 -0.1703
 1091BOLB   C3A26167  22.463  37.078  25.008  0.0854 -0.3588 -0.0628
 1091BOLB   C4A26168  22.231  37.315  25.213  0.2510 -0.0557  0.1619
 1091BOLB   C1B26169  21.357  36.341  24.199 -0.2708 -0.1292 -0.2825
 1091BOLB   C2B26170  21.012  36.359  24.515  0.0239  0.6138 -0.0111
 1091BOLB   C3B26171  20.923  36.504  24.949 -0.0578  0.1478 -0.0262
 1091BOLB   C4B26172  20.764  36.757  25.223 -0.2157  0.0393 -0.0134
 1091BOLB   NC226173  20.106  38.577  25.275  0.1359  0.1096 -0.2874
 1091BOLB   PO226174  20.436  38.605  25.710  0.0223 -0.0140  0.1983
 1091BOLB   GL326175  20.755  38.233  25.891 -0.3446  0.6349 -0.0256
 1091BOLB   GL426176  20.789  38.053  26.203  0.1798 -0.0072  0.0386
 1091BOLB   C1C26177  21.038  38.005  25.730  0.0625 -0.1215  0.0957
 1091BOLB   C2C26178  21.250  37.923  25.377  0.2353 -0.1846  0.2070
 1091BOLB   C3C26179  21.592  37.892  25.078 -0.2896 -0.0114  0.1928
 1091BOLB   C4C26180  22.027  37.725  25.045 -0.2042 -0.1357 -0.4287
 1091BOLB   C1D26181  21.220  37.886  26.177  0.2775 -0.1078  0.0054
 1091BOLB   C2D26182  21.394  37.547  26.269 -0.2684 -0.0231 -0.0069
 1091BOLB   C3D26183  21.140  37.256  26.121 -0.1085  0.1300 -0.2219
 1091BOLB   C4D26184  21.150  36.913  25.887 -0.0149 -0.2326 -0.1133
 1092BOLB   NC126185  36.731  35.812  14.800 -0.0240 -0.1282  0.0769
 1092BOLB   PO126186  36.396  35.909  14.699 -0.0613  0.3615 -0.1755
 1092BOLB   GL126187  36.028  35.815  14.983  0.0077 -0.2857  0.2365
 1092BOLB   GL226188  35.977  35.972  15.205 -0.3591 -0.1784  0.1554
 1092BOLB   C1A26189  35.631  35.532  15.046 -0.0936 -0.1291 -0.2883
 1092BOLB   C2A26190  35.299  35.372  15.399 -0.1303  0.3327  0.0284
 1092BOLB   C3A26191  35.308  35.215  15.788 -0.2369 -0.3758 -0.3392
 1092BOLB   C4A26192  35.355  35.026  16.214  0.0317  0.1439 -0.1561
 1092BOLB   C1B26193  35.701  35.926  15.495  0.0765  0.1750  0.2644
 1092BOLB   C2B26194  35.317  35.911  15.595 -0.3861  0.0498  0.0733
 1092BOLB   C3B26195  35.085  35.686  15.883 -0.2426 -0.0073  0.0330
 1092BOLB   C4B26196  35.070  35.469  16.332  0.1271  0.1777 -0.1691
 1092BOLB   NC226197  36.474  37.327  15.509 -0.2193  0.0413  0.0112
 1092BOLB   PO226198  36.228  36.941  15.442 -0.0043 -0.2130 -0.1923
 1092BOLB   GL326199  36.079  36.588  15.828  0.0182  0.1251 -0.2369
 1092BOLB   GL426200  35.802  36.662  16.043  0.1927  0.3192 -0.2163
 1092BOLB   C1C26201  35.934  36.176  15.925  0.0027 -0.2924 -0.3118
 1092BOLB   C2C26202  35.697  36.025  16.346 -0.0284  0.0294  0.0593
 1092BOLB   C3C26203  35.459  35.709  16.426 -0.1483 -0.3973  0.4284
 1092BOLB   C4C26204  35.499  35.278  16.451 -0.4896  0.0265 -0.0001
 1092BOLB   C1D26205  35.655  36.478  16.409  0.0786 -0.3592  0.1026
 1092BOLB   C2D26206  35.337  36.267  16.702 -0.3005  0.1452 -0.0044
 1092BOLB   C3D26207  35.384  35.888  16.952 -0.0824  0.1392  0.0655
 1092BOLB   C4D26208  35.228  35.433  17.094 -0.1826  0.1391  0.0149
 1093BOLB   NC126209  23.649  36.619  22.605  0.1726 -0.0409 -0.1555
 1093BOLB   PO126210  23.918  37.015  22.464 -0.0833 -0.0868  0.0720
 1093BOLB   GL126211  23.773  37.229  22.747  0.0425 -0.1622 -0.2748
 1093BOLB   GL226212  23.797  37.161  23.105 -0.1383  0.0956 -0.0369
 1093BOLB   C1A26213  23.557  37.638  22.798  0.2296 -0.0182  0.1245
 1093BOLB   C2A26214  23.309  37.948  22.987  0.2284  0.0559  0.1576
 1093BOLB   C3A26215  23.156  38.326  22.975  0.1311  0.1838  0.3696
 1093BOLB   C4A26216  23.293  38.819  23.017  0.1920  0.0274 -0.1464
 1093BOLB   C1B26217  23.789  37.578  23.274  0.1259  0.0237 -0.2861
 1093BOLB   C2B26218  23.522  37.737  23.493 -0.0864 -0.0122 -0.0586
 1093BOLB   C3B26219  23.491  38.205  23.464 -0.4130  0.2968  0.1731
 1093BOLB   C4B26220  23.227  38.542  23.686 -0.1617 -0.1072  0.0548
 1093BOLB   NC226221  23.022  41.400  22.620  0.0307  0.0271 -0.2459
 1093BOLB   PO226222  22.656  41.290  22.867 -0.0914  0.1468 -0.3872
 1093BOLB   GL326223  22.792  40.801  22.706 -0.0118 -0.5558  0.1213
 1093BOLB   GL426224  23.156  40.878  22.547  0.1520  0.2444 -0.0380
 1093BOLB   C1C26225  23.021  40.366  22.940 -0.0405  0.1847  0.0462
 1093BOLB   C2C26226  23.264  40.006  23.168 -0.0022  0.0187  0.0854
 1093BOLB   C3C26227  23.305  39.571  23.152  0.2434  0.1883  0.2711
 1093BOLB   C4C26228  23.500  39.150  23.170 -0.0782 -0.0709 -0.0861
 1093BOLB   C1D26229  23.436  40.613  22.747 -0.0453  0.2375 -0.1371
 1093BOLB   C2D26230  23.507  40.517  23.090 -0.0127  0.2720 -0.2439
 1093BOLB   C3D26231  23.564  40.193  23.490  0.1567 -0.0424 -0.2074
 1093BOLB   C4D26232  23.608  40.079  23.836 -0.3071 -0.2994  0.0393
 1094BOLB   NC126233  26.795  35.487  15.750 -0.0256  0.2537  0.1545
 1094BOLB   PO126234  27.053  35.656  15.920 -0.1817  0.0956  0.2919
 1094BOLB   GL126235  27.169  36.044  15.766 -0.1515  0.1078  0.0282
 1094BOLB   GL226236  27.419  36.245  15.797 -0.2243 -0.0807  0.0239
 1094BOLB   C1A26237  27.097  36.339  15.437 -0.2963 -0.2365 -0.1285
 1094BOLB   C2A26238  26.920  36.591  15.144 -0.2383 -0.0114 -0.0288
 1094BOLB   C3A26239  26.720  36.678  14.754 -0.2079  0.0956  0.0404
 1094BOLB   C4A26240  26.459  36.879  14.498  0.0459 -0.0264 -0.0525
 1094BOLB   C1B26241  27.487  36.674  15.655  0.1474 -0.2248 -0.1539
 1094BOLB   C2B26242  27.467  37.055  15.404  0.3874 -0.2670 -0.1951
 1094BOLB   C3B26243  27.397  37.291  15.029 -0.0507  0.0156  0.0555
 1094BOLB   C4B26244  27.512  37.567  14.642 -0.0815 -0.3184 -0.1762
 1094BOLB   NC226245  25.284  38.200  13.194 -0.5920  0.0607 -0.1464
 1094BOLB   PO226246  25.417  38.529  13.483  0.2342  0.1253 -0.0201
 1094BOLB   GL326247  25.276  38.249  13.734 -0.0389  0.3321  0.1431
 1094BOLB   GL426248  24.989  38.323  13.769  0.0622 -0.3628 -0.2054
 1094BOLB   C1C26249  25.478  37.975  13.993  0.4637 -0.0238  0.0212
 1094BOLB   C2C26250  25.526  37.722  14.280 -0.2596 -0.0787 -0.0129
 1094BOLB   C3C26251  25.766  37.322  14.456  0.1881 -0.4015 -0.2896
 1094BOLB   C4C26252  26.040  37.005  14.408 -0.1108 -0.0823  0.0602
 1094BOLB   C1D26253  25.017  38.020  14.137 -0.2827  0.0236 -0.1917
 1094BOLB   C2D26254  25.202  38.045  14.492 -0.1442  0.0069 -0.0496
 1094BOLB   C3D26255  25.433  37.843  14.717  0.1967 -0.2831  0.0192
 1094BOLB   C4D26256  25.636  38.094  15.043  0.2273  0.1573  0.0628
 1095BOLB   NC126257  25.703  23.268   8.420  0.1303 -0.0560 -0.1065
 1095BOLB   PO126258  26.052  23.110   8.369 -0.0692  0.2340  0.0528
 1095BOLB   GL126259  25.954  23.061   8.004 -0.0767 -0.0598  0.0595
 1095BOLB   GL226260  26.228  23.091   7.853 -0.1288 -0.0536  0.3764
 1095BOLB   C1A26261  25.690  23.267   7.654  0.0365  0.4757  0.2392
 1095BOLB   C2A26262  25.531  23.689   7.491 -0.0714 -0.0189 -0.1112
 1095BOLB   C3A26263  25.515  23.926   7.242  0.1262 -0.2197  0.3111
 1095BOLB   C4A26264  25.450  24.366   7.347 -0.2341  0.2510  0.1521
 1095BOLB   C1B26265  26.023  23.056   7.354  0.1617  0.3193  0.4030
 1095BOLB   C2B26266  26.133  22.996   6.953 -0.0911 -0.0049  0.1240
 1095BOLB   C3B26267  26.203  22.991   6.513 -0.4355  0.3598  0.3171
 1095BOLB   C4B26268  26.235  22.559   6.246 -0.0571 -0.0171  0.3625
 1095BOLB   NC226269  25.254  25.401   8.588  0.0050 -0.1711 -0.1729
 1095BOLB   PO226270  25.616  25.547   8.715  0.0176  0.3909  0.1055
 1095BOLB   GL326271  25.612  25.688   8.343 -0.0823  0.1930 -0.1833
 1095BOLB   GL426272  25.327  25.966   8.209 -0.3522 -0.1621 -0.0186
 1095BOLB   C1C26273  25.589  25.526   7.953 -0.0560  0.0906  0.2271
 1095BOLB   C2C26274  25.467  25.120   8.036 -0.1231  0.0769 -0.0132
 1095BOLB   C3C26275  25.721  24.742   7.828 -0.0077 -0.2273 -0.0001
 1095BOLB   C4C26276  25.805  24.597   7.328 -0.3572  0.1097 -0.0130
 1095BOLB   C1D26277  25.180  25.858   7.842 -0.1288 -0.0166  0.0851
 1095BOLB   C2D26278  24.858  25.743   7.527 -0.0801 -0.0049  0.1718
 1095BOLB   C3D26279  24.610  25.911   7.266  0.5862 -0.0051  0.3077
 1095BOLB   C4D26280  24.490  26.119   6.835  0.2152 -0.3269  0.2183
 1096BOLB   NC126281  23.312  30.823   1.964  0.4902 -0.3799 -0.0618
 1096BOLB   PO126282  23.755  30.723   2.103 -0.1182  0.2380 -0.1665
 1096BOLB   GL126283  23.908  30.831   2.565 -0.2305  0.1532 -0.0964
 1096BOLB   GL226284  23.733  30.476   2.598 -0.2456 -0.2503 -0.1034
 1096BOLB   C1A26285  23.744  30.845   3.025  0.1222  0.2051 -0.1056
 1096BOLB   C2A26286  23.877  30.829   3.557  0.0644 -0.3567 -0.0929
 1096BOLB   C3A26287  23.904  30.588   3.902  0.3329  0.2536 -0.0964
 1096BOLB   C4A26288  23.756  30.563   4.279  0.3202  0.1865 -0.1389
 1096BOLB   C1B26289  23.430  30.217   2.466  0.3930 -0.2720  0.2248
 1096BOLB   C2B26290  23.029  29.908   2.516  0.1644 -0.2478  0.0063
 1096BOLB   C3B26291  22.947  29.545   2.203 -0.2554  0.0577 -0.3163
 1096BOLB   C4B26292  23.012  29.136   1.889 -0.3160 -0.2910 -0.1960
 1096BOLB   NC226293  23.482  31.685   6.119  0.1638 -0.2192  0.0273
 1096BOLB   PO226294  23.055  31.596   6.206  0.2435  0.0344 -0.0209
 1096BOLB   GL326295  23.147  31.591   5.802 -0.3317  0.1445 -0.1886
 1096BOLB   GL426296  22.985  31.647   5.449  0.1559  0.0753 -0.2311
 1096BOLB   C1C26297  23.273  31.249   5.561 -0.0198 -0.1652 -0.0420
 1096BOLB   C2C26298  23.589  31.101   5.325  0.0376 -0.0313 -0.2889
 1096BOLB   C3C26299  23.727  30.979   4.871  0.3442  0.2804  0.0819
 1096BOLB   C4C26300  23.568  30.833   4.586 -0.1091 -0.1234  0.0041
 1096BOLB   C1D26301  23.225  31.465   5.103 -0.1004  0.1763  0.0104
 1096BOLB   C2D26302  23.633  31.451   4.778  0.2966  0.2039 -0.3232
 1096BOLB   C3D26303  23.839  31.228   4.427 -0.0250 -0.1311 -0.1161
 1096BOLB   C4D26304  23.823  31.143   3.973  0.0152 -0.0481 -0.0054
 1097BOLB   NC126305  18.235  36.242  17.350 -0.5390  0.0905 -0.1719
 1097BOLB   PO126306  17.968  36.052  17.663  0.2767 -0.0040  0.1161
 1097BOLB   GL126307  18.362  35.865  17.751  0.0731 -0.2011 -0.2348
 1097BOLB   GL226308  18.580  36.131  17.879 -0.1576 -0.0700  0.0760
 1097BOLB   C1A26309  18.612  35.500  17.902 -0.1457 -0.0690 -0.2391
 1097BOLB   C2A26310  18.998  35.249  17.866 -0.5957 -0.1953  0.1187
 1097BOLB   C3A26311  19.155  35.053  17.513  0.1119  0.2081 -0.1734
 1097BOLB   C4A26312  19.420  34.877  17.285 -0.1581  0.1663 -0.1824
 1097BOLB   C1B26313  18.800  35.902  18.213  0.0601 -0.0896 -0.2647
 1097BOLB   C2B26314  19.079  35.593  18.432  0.3747  0.0972 -0.0023
 1097BOLB   C3B26315  19.317  35.242  18.430  0.2830 -0.0150  0.0550
 1097BOLB   C4B26316  19.442  34.820  18.153 -0.1589  0.0794  0.1363
 1097BOLB   NC226317  18.588  35.377  15.693 -0.2824  0.3641  0.0198
 1097BOLB   PO226318  18.903  35.403  15.362 -0.0845  0.2929  0.1019
 1097BOLB   GL326319  19.068  35.071  15.720  0.0559 -0.0252  0.0426
 1097BOLB   GL426320  18.912  35.109  16.037  0.5149  0.2435  0.0372
 1097BOLB   C1C26321  19.560  34.928  15.866 -0.1910 -0.0831  0.3498
 1097BOLB   C2C26322  19.772  35.026  16.241  0.0438  0.2934 -0.5741
 1097BOLB   C3C26323  19.760  34.821  16.616 -0.1235  0.0121  0.2349
 1097BOLB   C4C26324  19.541  34.682  16.958  0.1445  0.2517 -0.2857
 1097BOLB   C1D26325  19.185  34.821  16.195  0.0449  0.0665  0.2468
 1097BOLB   C2D26326  19.490  34.544  16.378 -0.1548 -0.1055  0.2318
 1097BOLB   C3D26327  19.712  34.215  16.498 -0.0770  0.1845  0.0173
 1097BOLB   C4D26328  19.487  33.884  16.487 -0.1917  0.0743 -0.1278
 1098BOLB   NC126329  29.960  25.121  15.157  0.1892 -0.2059  0.0689
 1098BOLB   PO126330  30.160  25.396  14.943  0.2943 -0.1961 -0.0481
 1098BOLB   GL126331  30.134  25.043  14.710 -0.0102 -0.0903  0.1039
 1098BOLB   GL226332  29.979  24.827  14.755  0.2909  0.2876  0.3315
 1098BOLB   C1A26333  30.424  24.991  14.412 -0.1311  0.2336 -0.1924
 1098BOLB   C2A26334  30.677  24.745  14.157 -0.0468 -0.3405  0.3341
 1098BOLB   C3A26335  30.761  24.404  13.972  0.0636 -0.0111  0.0887
 1098BOLB   C4A26336  30.794  23.985  13.960  0.2362 -0.2908 -0.0807
 1098BOLB   C1B26337  30.118  24.619  14.418 -0.0341  0.1776  0.3445
 1098BOLB   C2B26338  30.239  24.303  14.199  0.2807  0.0209  0.0954
 1098BOLB   C3B26339  30.318  23.892  13.963  0.0215  0.0357 -0.0251
 1098BOLB   C4B26340  30.360  23.540  13.647 -0.0470  0.2691 -0.2039
 1098BOLB   NC226341  32.090  21.865  13.348  0.0141  0.0812  0.0500
 1098BOLB   PO226342  31.900  21.925  13.073 -0.0417  0.3852 -0.2617
 1098BOLB   GL326343  31.517  22.164  13.273 -0.0805 -0.0763 -0.0281
 1098BOLB   GL426344  31.174  22.126  13.259  0.0772  0.0231 -0.1745
 1098BOLB   C1C26345  31.570  22.562  13.379 -0.0121  0.0620 -0.2985
 1098BOLB   C2C26346  31.513  22.945  13.457 -0.0181 -0.1156  0.0490
 1098BOLB   C3C26347  31.273  23.316  13.658 -0.2724  0.1203 -0.1176
 1098BOLB   C4C26348  31.177  23.568  14.023 -0.1470 -0.0996  0.0666
 1098BOLB   C1D26349  31.199  22.373  13.659  0.0722 -0.0137  0.0313
 1098BOLB   C2D26350  31.458  22.604  13.922 -0.2349 -0.3020 -0.2074
 1098BOLB   C3D26351  31.802  22.681  14.053  0.1748  0.0944 -0.1519
 1098BOLB   C4D26352  31.870  23.020  13.806 -0.0475  0.2804  0.0672
 1099BOLB   NC126353  18.938  19.015   0.412 -0.0024  0.1301 -0.2429
 1099BOLB   PO126354  18.694  18.942   0.079  0.0311 -0.1958  0.1587
 1099BOLB   GL126355  19.109  19.103  26.914  0.0844  0.1663  0.0810
 1099BOLB   GL226356  19.112  19.254  26.586 -0.0409 -0.1164  0.3005
 1099BOLB   C1A26357  19.383  19.437   0.090  0.2213  0.1976 -0.0924
 1099BOLB   C2A26358  19.734  19.777   0.080  0.2679 -0.1319  0.0499
 1099BOLB   C3A26359  20.042  20.221   0.103  0.0649 -0.0938 -0.0072
 1099BOLB   C4A26360  19.826  20.663   0.143 -0.0865 -0.0564 -0.2318
 1099BOLB   C1B26361  19.543  19.335  26.601 -0.1913  0.1439 -0.3376
 1099BOLB   C2B26362  19.882  19.670  26.545 -0.1057  0.0253  0.2508
 1099BOLB   C3B26363  20.092  20.010  26.449  0.2070  0.0525  0.0042
 1099BOLB   C4B26364  20.379  20.159  26.233 -0.2268 -0.2034  0.0058
 1099BOLB   NC226365  17.181  20.807   1.609 -0.0958 -0.1961 -0.0238
 1099BOLB   PO226366  17.528  21.055   1.567 -0.0379  0.0783 -0.2283
 1099BOLB   GL326367  17.932  21.270   1.530  0.3428 -0.1932  0.2635
 1099BOLB   GL426368  17.785  21.528   1.442 -0.1296  0.0922 -0.2113
 1099BOLB   C1C26369  18.300  21.179   1.260 -0.3761  0.2020 -0.1448
 1099BOLB   C2C26370  18.796  21.078   1.093 -0.1565  0.3693  0.0798
 1099BOLB   C3C26371  19.002  20.992   0.686  0.2218 -0.2117  0.0051
 1099BOLB   C4C26372  19.422  20.869   0.450 -0.2002 -0.0919 -0.2813
 1099BOLB   C1D26373  18.181  21.678   1.253  0.0767  0.0526  0.1107
 1099BOLB   C2D26374  18.609  21.588   0.991  0.0749  0.0793  0.2086
 1099BOLB   C3D26375  19.020  21.472   0.817 -0.2126 -0.1075 -0.0606
 1099BOLB   C4D26376  19.273  21.355   0.427 -0.1095  0.0050  0.2368
 1100BOLB   NC126377  26.973  29.089  13.697  0.2093 -0.3528  0.0754
 1100BOLB   PO126378  27.366  28.874  13.550 -0.1663 -0.2242  0.0388
 1100BOLB   GL126379  27.528  28.795  13.195 -0.0782  0.0795 -0.1577
 1100BOLB   GL226380  27.823  28.962  13.127 -0.1352  0.2015  0.2489
 1100BOLB   C1A26381  27.608  28.786  12.664 -0.0881  0.1114 -0.2784
 1100BOLB   C2A26382  27.878  28.595  12.373 -0.0165  0.3062 -0.2444
 1100BOLB   C3A26383  27.946  28.536  11.950 -0.0845  0.1556  0.2946
 1100BOLB   C4A26384  28.405  28.582  11.771  0.0489  0.0091  0.0942
 1100BOLB   C1B26385  27.913  28.477  12.975  0.2534  0.2492  0.2139
 1100BOLB   C2B26386  27.798  28.212  12.674  0.0015 -0.1508  0.0136
 1100BOLB   C3B26387  27.766  28.140  12.168 -0.0289  0.1757 -0.3595
 1100BOLB   C4B26388  27.631  28.231  11.742 -0.0412 -0.1566 -0.0807
 1100BOLB   NC226389  28.620  27.109   9.575  0.0370 -0.1012  0.1542
 1100BOLB   PO226390  28.465  27.470   9.805  0.2161  0.2559  0.0268
 1100BOLB   GL326391  28.494  27.630  10.226  0.1877 -0.0771 -0.2415
 1100BOLB   GL426392  28.608  27.428  10.503 -0.0467 -0.0341  0.0415
 1100BOLB   C1C26393  28.638  27.963  10.592 -0.1770  0.0191 -0.0900
 1100BOLB   C2C26394  28.824  28.088  10.955  0.0296 -0.2881  0.1345
 1100BOLB   C3C26395  28.668  28.039  11.335 -0.0827  0.0242 -0.1986
 1100BOLB   C4C26396  28.630  28.331  11.541 -0.2639 -0.2739 -0.0543
 1100BOLB   C1D26397  28.678  27.581  10.922  0.2665  0.3565  0.0605
 1100BOLB   C2D26398  28.928  27.555  11.298 -0.0702 -0.1638 -0.0698
 1100BOLB   C3D26399  29.226  27.337  11.589  0.3538  0.1013 -0.2338
 1100BOLB   C4D26400  29.561  27.472  11.947  0.1983 -0.1462 -0.0195
 1101BOLB   NC126401  27.280  36.235  16.562  0.1623 -0.0686 -0.1300
 1101BOLB   PO126402  27.611  36.419  16.804 -0.0469  0.1137  0.0990
 1101BOLB   GL126403  27.506  36.829  16.482 -0.3438 -0.1821  0.2430
 1101BOLB   GL226404  27.349  36.656  16.153 -0.1248 -0.1846  0.2213
 1101BOLB   C1A26405  27.555  37.274  16.258  0.0318 -0.1948  0.0384
 1101BOLB   C2A26406  27.335  37.573  15.851  0.0501 -0.1362  0.1605
 1101BOLB   C3A26407  26.952  37.885  15.730 -0.3455 -0.2040 -0.2313
 1101BOLB   C4A26408  26.717  38.283  15.740 -0.0394 -0.3528 -0.1349
 1101BOLB   C1B26409  27.233  37.038  15.899 -0.0531  0.1170 -0.1415
 1101BOLB   C2B26410  27.071  37.323  15.495 -0.2267 -0.0079 -0.0238
 1101BOLB   C3B26411  27.087  37.702  15.276  0.0156 -0.3217  0.1717
 1101BOLB   C4B26412  27.461  37.841  15.073  0.0291  0.0814 -0.2968
 1101BOLB   NC226413  26.923  40.467  14.155  0.1054 -0.0419 -0.2316
 1101BOLB   PO226414  26.577  40.181  14.139  0.2272  0.1938 -0.2442
 1101BOLB   GL326415  26.536  39.825  14.516  0.3080 -0.2760 -0.0021
 1101BOLB   GL426416  26.757  39.516  14.516 -0.0285 -0.2734 -0.0747
 1101BOLB   C1C26417  26.537  39.874  14.970  0.1904 -0.1166  0.1791
 1101BOLB   C2C26418  26.519  39.627  15.277  0.3990  0.1287 -0.0949
 1101BOLB   C3C26419  26.539  39.176  15.489 -0.4377 -0.3145  0.0763
 1101BOLB   C4C26420  26.629  38.721  15.633 -0.0208 -0.1037 -0.0697
 1101BOLB   C1D26421  26.633  39.079  14.578  0.2081 -0.1239 -0.1221
 1101BOLB   C2D26422  26.334  38.822  14.770  0.1599  0.0119 -0.0973
 1101BOLB   C3D26423  25.905  38.770  14.647 -0.0873 -0.2403  0.2973
 1101BOLB   C4D26424  25.700  39.100  14.617 -0.0131 -0.1715 -0.0292
 1102BOLB   NC126425  32.855  35.589  23.362  0.1193  0.1165 -0.0603
 1102BOLB   PO126426  33.263  35.571  23.167 -0.0441  0.2379 -0.0983
 1102BOLB   GL126427  33.539  35.821  23.131 -0.1024  0.0346 -0.1320
 1102BOLB   GL226428  33.761  35.624  23.374  0.1851  0.0858  0.1747
 1102BOLB   C1A26429  33.839  36.001  22.872  0.1869  0.0293  0.0113
 1102BOLB   C2A26430  34.233  36.208  22.955  0.3726  0.2292 -0.1052
 1102BOLB   C3A26431  34.637  36.485  23.024 -0.2942  0.1464 -0.4267
 1102BOLB   C4A26432  34.757  36.940  23.036 -0.0677  0.3044 -0.0339
 1102BOLB   C1B26433  34.023  35.945  23.421  0.2542  0.1510  0.2257
 1102BOLB   C2B26434  34.279  36.267  23.514 -0.1376  0.0127  0.0577
 1102BOLB   C3B26435  34.362  36.666  23.537  0.1694  0.0069  0.0300
 1102BOLB   C4B26436  34.539  37.105  23.506 -0.0278 -0.0605 -0.3618
 1102BOLB   NC226437  35.335  39.504  22.928 -0.2602 -0.0615  0.0428
 1102BOLB   PO226438  35.691  39.155  23.136 -0.3431  0.0926 -0.0932
 1102BOLB   GL326439  35.502  38.869  23.077 -0.0406  0.3153  0.5265
 1102BOLB   GL426440  35.153  38.841  23.062 -0.1373 -0.1137 -0.2413
 1102BOLB   C1C26441  35.473  38.460  23.128  0.1134  0.4872  0.0366
 1102BOLB   C2C26442  35.270  38.005  23.239 -0.1775  0.0557  0.0465
 1102BOLB   C3C26443  34.994  37.660  23.228  0.0123 -0.3485 -0.0359
 1102BOLB   C4C26444  34.680  37.424  23.146 -0.0157  0.3788 -0.1524
 1102BOLB   C1D26445  34.932  38.441  23.057 -0.0757 -0.3957 -0.0871
 1102BOLB   C2D26446  34.733  38.095  22.933  0.1553 -0.0101  0.2503
 1102BOLB   C3D26447  34.561  37.734  22.706 -0.2095  0.0689  0.0937
 1102BOLB   C4D26448  34.312  37.482  22.413  0.1002  0.1416  0.3138
 1103BOLB   NC126449  27.322  25.935   7.835  0.1305  0.2833 -0.0250
 1103BOLB   PO126450  27.035  26.298   7.881 -0.3961 -0.2133 -0.0206
 1103BOLB   GL126451  26.977  26.455   7.452  0.1144  0.0984  0.0906
 1103BOLB   GL226452  27.064  26.803   7.476  0.0317 -0.1375  0.1728
 1103BOLB   C1A26453  27.120  26.336   7.055  0.1165  0.2264 -0.0740
 1103BOLB   C2A26454  27.044  26.459   6.769  0.1678  0.3093  0.2932
 1103BOLB   C3A26455  27.169  26.465   6.255 -0.1110 -0.1270 -0.2165
 1103BOLB   C4A26456  27.440  26.271   5.943  0.0467 -0.1936 -0.1128
 1103BOLB   C1B26457  27.172  26.885   7.063 -0.3614 -0.1169  0.1932
 1103BOLB   C2B26458  27.389  26.955   6.655 -0.2166 -0.2265  0.2227
 1103BOLB   C3B26459  27.335  27.188   6.253  0.1078  0.1803  0.0539
 1103BOLB   C4B26460  27.216  27.255   5.786 -0.2327  0.2951  0.0242
 1103BOLB   NC226461  27.997  25.246   7.974 -0.1609 -0.0852  0.3509
 1103BOLB   PO226462  27.832  24.942   7.718 -0.2304 -0.0285  0.0607
 1103BOLB   GL326463  27.928  24.716   7.433 -0.1932 -0.2774 -0.0401
 1103BOLB   GL426464  27.789  24.438   7.413  0.0505  0.0562 -0.1219
 1103BOLB   C1C26465  27.846  24.842   6.986 -0.1400  0.1394 -0.1025
 1103BOLB   C2C26466  27.679  25.174   6.640  0.0247 -0.4109  0.2245
 1103BOLB   C3C26467  27.870  25.542   6.316  0.3807 -0.0763 -0.0242
 1103BOLB   C4C26468  27.785  25.926   6.014 -0.3780  0.2145 -0.4234
 1103BOLB   C1D26469  27.603  24.411   7.011 -0.0134 -0.0794 -0.0341
 1103BOLB   C2D26470  27.177  24.460   6.841 -0.0284 -0.0782  0.0213
 1103BOLB   C3D26471  26.712  24.569   6.622 -0.0489  0.3320  0.1126
 1103BOLB   C4D26472  26.399  24.547   6.427 -0.2445 -0.1232  0.0515
 1104BOLB   NC126473  20.865  28.442  11.508 -0.1792 -0.0904  0.0991
 1104BOLB   PO126474  20.569  28.192  11.855  0.0148  0.3359 -0.0090
 1104BOLB   GL126475  20.674  28.237  12.333 -0.2323 -0.0889 -0.1558
 1104BOLB   GL226476  20.836  27.913  12.230 -0.1103 -0.0664  0.0445
 1104BOLB   C1A26477  21.086  28.269  12.661  0.2548  0.2625 -0.3174
 1104BOLB   C2A26478  21.424  28.219  12.597 -0.0732 -0.1465  0.3179
 1104BOLB   C3A26479  21.851  28.212  12.601  0.2019 -0.0547  0.0393
 1104BOLB   C4A26480  22.235  28.074  12.558  0.1196  0.2328  0.1231
 1104BOLB   C1B26481  21.359  27.905  12.158 -0.0785 -0.0092 -0.1919
 1104BOLB   C2B26482  21.854  28.004  12.037 -0.0900  0.0967  0.0492
 1104BOLB   C3B26483  22.184  28.280  12.090 -0.0924  0.2219 -0.1692
 1104BOLB   C4B26484  22.575  28.499  12.163 -0.1587  0.0661 -0.2333
 1104BOLB   NC226485  21.543  28.287  10.903 -0.1867 -0.0176  0.2522
 1104BOLB   PO226486  21.870  28.346  10.627  0.1966  0.0300  0.1907
 1104BOLB   GL326487  22.153  28.221  10.794  0.4364 -0.0210  0.0441
 1104BOLB   GL426488  22.392  28.518  10.905  0.0517 -0.2031 -0.1826
 1104BOLB   C1C26489  22.249  28.012  11.121  0.2426  0.0707 -0.0652
 1104BOLB   C2C26490  22.453  27.977  11.453  0.2799 -0.1895 -0.1771
 1104BOLB   C3C26491  22.641  27.926  11.768 -0.0722  0.0670 -0.0805
 1104BOLB   C4C26492  22.615  27.951  12.199 -0.1959 -0.1046  0.0509
 1104BOLB   C1D26493  22.340  28.856  11.132 -0.4491 -0.0544 -0.0399
 1104BOLB   C2D26494  22.521  29.080  11.451  0.0503  0.2862 -0.0815
 1104BOLB   C3D26495  22.555  29.003  11.865 -0.0869  0.0219 -0.0105
 1104BOLB   C4D26496  22.549  29.020  12.282 -0.2653 -0.1122  0.1774
 1105BOLB   NC126497  35.837  30.945  18.966  0.2949  0.0414  0.0092
 1105BOLB   PO126498  35.613  31.027  18.676  0.1329 -0.0245 -0.1858
 1105BOLB   GL126499  35.821  31.049  18.410 -0.1186 -0.1916 -0.1088
 1105BOLB   GL226500  35.939  30.775  18.239 -0.1505  0.0777 -0.2527
 1105BOLB   C1A26501  36.098  31.344  18.177 -0.0526 -0.0609  0.1772
 1105BOLB   C2A26502  36.161  31.706  17.858 -0.0899  0.3463  0.1301
 1105BOLB   C3A26503  36.385  32.071  17.760 -0.2571 -0.1559  0.0649
 1105BOLB   C4A26504  36.578  32.433  17.701  0.0619  0.2085 -0.0979
 1105BOLB   C1B26505  36.285  30.950  18.021 -0.2895  0.3402 -0.0409
 1105BOLB   C2B26506  36.781  30.971  17.929  0.0517 -0.0117 -0.1165
 1105BOLB   C3B26507  37.146  31.257  17.908 -0.3267 -0.4191  0.1168
 1105BOLB   C4B26508  37.487  31.395  17.714  0.1161  0.3248  0.0448
 1105BOLB   NC226509  38.648  33.409  16.759  0.2444 -0.3734 -0.1573
 1105BOLB   PO226510  38.443  33.792  16.830 -0.0668 -0.2789  0.0356
 1105BOLB   GL326511  38.067  33.757  16.886 -0.3129 -0.1225 -0.0024
 1105BOLB   GL426512  38.087  33.905  17.215  0.2602 -0.0134 -0.0602
 1105BOLB   C1C26513  37.768  33.450  17.010 -0.1625  0.1582 -0.1142
 1105BOLB   C2C26514  37.583  33.304  17.319 -0.6138  0.2027 -0.2740
 1105BOLB   C3C26515  37.278  32.975  17.497 -0.2001 -0.0248 -0.0063
 1105BOLB   C4C26516  36.914  32.740  17.717  0.2860 -0.2745  0.0760
 1105BOLB   C1D26517  37.827  33.750  17.439 -0.0367  0.2364  0.1381
 1105BOLB   C2D26518  37.562  33.668  17.672 -0.0973  0.2358 -0.0640
 1105BOLB   C3D26519  37.417  33.861  18.053 -0.1775  0.0677 -0.0024
 1105BOLB   C4D26520  37.111  33.922  18.442 -0.0003 -0.1327 -0.1314
 1106BOLB   NC126521  18.063  18.151  25.462  0.0726 -0.2183  0.1010
 1106BOLB   PO126522  18.225  18.370  25.240 -0.0562  0.2351 -0.1596
 1106BOLB   GL126523  18.640  18.415  25.149 -0.1018  0.2451 -0.0446
 1106BOLB   GL226524  18.883  18.289  25.079 -0.0939  0.1125 -0.1776
 1106BOLB   C1A26525  19.020  18.782  24.998 -0.1533  0.1582  0.1630
 1106BOLB   C2A26526  19.493  18.819  24.966 -0.1986 -0.3005  0.3097
 1106BOLB   C3A26527  19.687  19.087  25.137  0.2111  0.0433 -0.2542
 1106BOLB   C4A26528  19.616  19.351  25.413 -0.0088  0.3311  0.1267
 1106BOLB   C1B26529  19.249  18.435  24.765 -0.1691  0.3147 -0.0988
 1106BOLB   C2B26530  19.652  18.240  24.516  0.0948  0.0712  0.2111
 1106BOLB   C3B26531  19.924  18.051  24.160 -0.2925 -0.1621 -0.1991
 1106BOLB   C4B26532  20.234  17.928  23.893  0.1797 -0.3251 -0.2214
 1106BOLB   NC226533  18.346  19.277   0.494  0.1986 -0.1347 -0.4264
 1106BOLB   PO226534  18.681  19.491   0.672 -0.1335 -0.0895  0.0377
 1106BOLB   GL326535  18.859  19.811   0.455  0.3365  0.2615 -0.0573
 1106BOLB   GL426536  18.586  19.977   0.304 -0.2123 -0.1097 -0.0759
 1106BOLB   C1C26537  19.054  19.802   0.051  0.0247 -0.2793  0.2492
 1106BOLB   C2C26538  19.296  19.810  26.516 -0.1665 -0.4008  0.0054
 1106BOLB   C3C26539  19.328  19.900  26.038 -0.0417  0.1992  0.0302
 1106BOLB   C4C26540  19.374  19.566  25.728  0.0954 -0.2840  0.0302
 1106BOLB   C1D26541  18.474  20.286   0.416  0.0253  0.1555 -0.2137
 1106BOLB   C2D26542  18.531  20.714   0.354  0.0960  0.0721 -0.2085
 1106BOLB   C3D26543  18.821  20.973   0.235 -0.1251  0.2564 -0.1144
 1106BOLB   C4D26544  19.113  21.061   0.016 -0.0135  0.1171 -0.0406
 1107BOLB   NC126545  28.521  36.746  17.113  0.1412  0.1682 -0.0152
 1107BOLB   PO126546  28.290  37.052  16.961  0.3899  0.0508 -0.0376
 1107BOLB   GL126547  28.540  37.132  16.599 -0.1512 -0.0139 -0.2441
 1107BOLB   GL226548  28.458  37.308  16.303  0.2754  0.1622  0.2344
 1107BOLB   C1A26549  28.868  37.424  16.526  0.2638  0.2750  0.1921
 1107BOLB   C2A26550  29.147  37.745  16.279  0.1233  0.0848  0.1850
 1107BOLB   C3A26551  29.560  38.070  16.375  0.4050  0.1161  0.1816
 1107BOLB   C4A26552  29.899  38.351  16.627  0.0062  0.2870  0.4263
 1107BOLB   C1B26553  28.449  37.663  16.411  0.2225 -0.1531 -0.3855
 1107BOLB   C2B26554  28.493  38.038  16.240  0.0290 -0.0688 -0.3288
 1107BOLB   C3B26555  28.546  38.393  16.015  0.0990  0.0542  0.1465
 1107BOLB   C4B26556  28.326  38.740  15.858  0.0167 -0.0351  0.1503
 1107BOLB   NC226557  31.390  40.906  16.798 -0.0215  0.0955  0.1221
 1107BOLB   PO226558  31.031  40.569  16.695 -0.0133 -0.1636 -0.1361
 1107BOLB   GL326559  31.019  40.168  16.682  0.1881 -0.1894 -0.1096
 1107BOLB   GL426560  31.044  40.058  16.937  0.1340 -0.0666 -0.1952
 1107BOLB   C1C26561  30.805  39.658  16.676 -0.1174 -0.1236 -0.1616
 1107BOLB   C2C26562  30.522  39.256  16.602 -0.1720 -0.1482  0.1440
 1107BOLB   C3C26563  30.401  38.893  16.409  0.3054  0.4325  0.0699
 1107BOLB   C4C26564  30.230  38.619  16.585  0.1354 -0.0542 -0.1574
 1107BOLB   C1D26565  31.223  39.705  16.976 -0.2222  0.1185 -0.3012
 1107BOLB   C2D26566  31.170  39.383  17.047 -0.2776  0.0258  0.0194
 1107BOLB   C3D26567  31.414  38.851  16.996  0.0942 -0.1253 -0.2259
 1107BOLB   C4D26568  31.658  38.605  17.111 -0.0589 -0.1067  0.0312
 1108BOLB   NC126569  31.263  22.847  19.307  0.1619  0.3718 -0.0619
 1108BOLB   PO126570  31.203  22.598  19.744 -0.1396  0.0527 -0.0966
 1108BOLB   GL126571  31.432  22.356  19.503 -0.0316  0.1437 -0.0342
 1108BOLB   GL226572  31.818  22.214  19.550  0.1773 -0.1788  0.1419
 1108BOLB   C1A26573  31.283  22.089  19.164  0.0985  0.1400 -0.1314
 1108BOLB   C2A26574  31.318  21.627  18.956 -0.0500 -0.1474  0.1409
 1108BOLB   C3A26575  31.449  21.218  18.869 -0.1072  0.0261  0.1769
 1108BOLB   C4A26576  31.686  20.919  18.678 -0.2100 -0.4364 -0.5756
 1108BOLB   C1B26577  32.126  21.915  19.432  0.5557 -0.0355 -0.2721
 1108BOLB   C2B26578  32.489  21.595  19.513 -0.4419  0.3257  0.1144
 1108BOLB   C3B26579  32.774  21.417  19.258  0.2027 -0.1729 -0.2941
 1108BOLB   C4B26580  32.883  21.170  18.862  0.4599  0.0806 -0.0130
 1108BOLB   NC226581  32.275  19.561  16.928  0.0122 -0.1491  0.2383
 1108BOLB   PO226582  32.504  19.323  17.306  0.4221  0.2645  0.1180
 1108BOLB   GL326583  32.376  19.658  17.568  0.1614  0.0213  0.2536
 1108BOLB   GL426584  32.468  19.881  17.263  0.0674  0.1433  0.2073
 1108BOLB   C1C26585  32.135  19.789  17.848  0.0385  0.0483 -0.1946
 1108BOLB   C2C26586  31.879  20.156  17.914 -0.0637  0.3116 -0.3298
 1108BOLB   C3C26587  31.883  20.516  18.153 -0.2657 -0.0194 -0.1101
 1108BOLB   C4C26588  31.846  20.725  18.473  0.0543 -0.1344 -0.0669
 1108BOLB   C1D26589  32.586  20.351  17.186 -0.1640 -0.0216  0.1706
 1108BOLB   C2D26590  32.595  20.680  17.480  0.0658 -0.0298 -0.1488
 1108BOLB   C3D26591  32.288  21.043  17.526  0.0699  0.0699 -0.3737
 1108BOLB   C4D26592  32.109  21.369  17.359  0.2891  0.1184 -0.3386
 1109BOLB   NC126593  22.617  34.195  18.005 -0.0426 -0.0426  0.0408
 1109BOLB   PO126594  22.462  34.290  17.564  0.0967  0.1264 -0.0886
 1109BOLB   GL126595  22.205  34.471  17.252  0.0973 -0.2608 -0.1517
 1109BOLB   GL226596  22.330  34.643  17.037  0.3413  0.1135  0.0143
 1109BOLB   C1A26597  21.864  34.661  17.218 -0.3532  0.2336 -0.0188
 1109BOLB   C2A26598  21.723  35.017  17.045 -0.1303 -0.1319 -0.1079
 1109BOLB   C3A26599  21.489  35.433  16.820 -0.0123  0.2282 -0.3259
 1109BOLB   C4A26600  21.135  35.704  16.898 -0.3924  0.0704  0.0511
 1109BOLB   C1B26601  22.082  34.892  16.712  0.3143 -0.3333  0.1999
 1109BOLB   C2B26602  22.255  35.060  16.395 -0.1548 -0.3813 -0.0996
 1109BOLB   C3B26603  22.451  35.121  16.033  0.0001  0.2497  0.1557
 1109BOLB   C4B26604  22.671  35.469  15.809  0.0426 -0.3713  0.3144
 1109BOLB   NC226605  19.886  38.013  16.647  0.1464  0.2177  0.2017
 1109BOLB   PO226606  20.233  37.824  16.363 -0.1053 -0.2871  0.1829
 1109BOLB   GL326607  20.210  37.502  16.683  0.0620 -0.1640  0.1489
 1109BOLB   GL426608  20.237  37.501  17.081 -0.1075 -0.1595 -0.2474
 1109BOLB   C1C26609  20.566  37.193  16.641  0.1326 -0.2913 -0.2344
 1109BOLB   C2C26610  20.600  36.816  16.783  0.1470 -0.2160 -0.0421
 1109BOLB   C3C26611  20.750  36.326  16.835  0.1115  0.1189  0.1416
 1109BOLB   C4C26612  20.908  35.940  16.793 -0.1246 -0.0655  0.2959
 1109BOLB   C1D26613  20.596  37.372  17.199 -0.1667  0.0667  0.0334
 1109BOLB   C2D26614  20.904  37.269  17.547 -0.2102 -0.1777 -0.0009
 1109BOLB   C3D26615  21.001  36.902  17.630  0.1438 -0.2313  0.0849
 1109BOLB   C4D26616  21.072  36.614  17.852 -0.0231 -0.0290  0.1928
 1110BOLB   NC126617  32.754  26.088  16.600  0.0985 -0.1973  0.1827
 1110BOLB   PO126618  32.915  26.225  16.249  0.1020  0.1064 -0.0692
 1110BOLB   GL126619  33.212  26.022  16.150 -0.0001 -0.0312 -0.1590
 1110BOLB   GL226620  33.207  25.806  16.445 -0.0893  0.1701 -0.0071
 1110BOLB   C1A26621  33.612  25.722  16.004  0.0181 -0.1853  0.0873
 1110BOLB   C2A26622  33.844  25.375  16.015 -0.2205 -0.3826  0.1942
 1110BOLB   C3A26623  33.996  24.987  16.059  0.1759  0.0736  0.0705
 1110BOLB   C4A26624  34.242  24.675  15.832 -0.0206  0.2275  0.3075
 1110BOLB   C1B26625  33.526  25.578  16.460  0.1349  0.0107  0.0238
 1110BOLB   C2B26626  33.943  25.304  16.577  0.0716  0.0477 -0.3412
 1110BOLB   C3B26627  33.966  24.922  16.643 -0.0250  0.3467  0.1409
 1110BOLB   C4B26628  33.886  24.701  16.994  0.2207  0.3426 -0.3054
 1110BOLB   NC226629  35.531  24.075  14.109 -0.3839 -0.0078 -0.1327
 1110BOLB   PO226630  35.777  24.242  14.393 -0.0235  0.2436  0.1336
 1110BOLB   GL326631  35.702  24.535  14.665  0.3582  0.2906  0.1311
 1110BOLB   GL426632  35.867  24.415  14.913  0.0386 -0.3287 -0.3892
 1110BOLB   C1C26633  35.501  24.733  14.858 -0.0055 -0.0700 -0.5417
 1110BOLB   C2C26634  35.120  24.604  14.940 -0.0892 -0.4497 -0.1415
 1110BOLB   C3C26635  34.765  24.639  15.102 -0.5600 -0.3064 -0.1536
 1110BOLB   C4C26636  34.585  24.630  15.422  0.2930 -0.3492  0.0215
 1110BOLB   C1D26637  35.502  24.383  15.184 -0.0911  0.3915 -0.0119
 1110BOLB   C2D26638  35.141  24.286  15.357 -0.0160 -0.0631  0.1223
 1110BOLB   C3D26639  34.954  24.296  15.661 -0.6353 -0.0647 -0.0137
 1110BOLB   C4D26640  34.623  24.324  15.893 -0.3030 -0.2113 -0.2064
 1111BOLB   NC126641  24.592  31.730   3.118  0.1403  0.0222 -0.1866
 1111BOLB   PO126642  24.507  32.052   3.170 -0.1435 -0.2503  0.2044
 1111BOLB   GL126643  24.533  32.401   3.428  0.2611 -0.0792  0.0093
 1111BOLB   GL226644  24.747  32.230   3.760  0.0569 -0.0587  0.3106
 1111BOLB   C1A26645  24.312  32.505   3.768 -0.0499 -0.3750 -0.2734
 1111BOLB   C2A26646  24.178  32.830   4.021  0.0364 -0.3305 -0.4789
 1111BOLB   C3A26647  24.478  33.177   4.004 -0.4532 -0.0474 -0.2550
 1111BOLB   C4A26648  24.539  33.531   4.044 -0.0037  0.1075  0.1600
 1111BOLB   C1B26649  24.481  31.867   3.783  0.2084  0.0028 -0.3627
 1111BOLB   C2B26650  24.065  31.774   3.951  0.1287 -0.1768 -0.2268
 1111BOLB   C3B26651  23.870  31.866   4.278  0.1262 -0.1884  0.1543
 1111BOLB   C4B26652  23.989  31.784   4.653 -0.0111 -0.0034  0.1915
 1111BOLB   NC226653  23.525  35.878   5.638 -0.0113  0.1948 -0.1167
 1111BOLB   PO226654  23.931  35.709   5.411 -0.0243 -0.1702  0.0113
 1111BOLB   GL326655  23.975  35.262   5.235  0.3439 -0.1983 -0.1430
 1111BOLB   GL426656  23.741  35.159   4.950  0.0938  0.0063  0.0858
 1111BOLB   C1C26657  24.176  34.955   4.921  0.0718 -0.3431  0.2488
 1111BOLB   C2C26658  24.189  34.462   4.875 -0.1450 -0.0662  0.2196
 1111BOLB   C3C26659  24.377  34.250   4.641 -0.2486 -0.1082 -0.1394
 1111BOLB   C4C26660  24.503  33.991   4.307 -0.2156  0.1789 -0.0266
 1111BOLB   C1D26661  24.060  35.338   4.586 -0.2783  0.1313  0.0255
 1111BOLB   C2D26662  24.248  35.198   4.216 -0.1496  0.1633 -0.0995
 1111BOLB   C3D26663  24.289  34.899   3.924 -0.1625 -0.3119  0.2878
 1111BOLB   C4D26664  24.338  34.814   3.516 -0.0795  0.0095 -0.3770
 1112BOLB   NC126665  34.905  30.368  25.681  0.2643  0.2080 -0.1599
 1112BOLB   PO126666  35.061  30.655  25.909 -0.2934 -0.0301 -0.1612
 1112BOLB   GL126667  35.310  30.659  26.288 -0.1577 -0.1526 -0.2043
 1112BOLB   GL226668  35.242  30.761  26.752  0.0473 -0.0675 -0.1991
 1112BOLB   C1A26669  35.702  30.586  26.481  0.0994 -0.1093 -0.1176
 1112BOLB   C2A26670  35.844  30.726  26.858  0.2655  0.1220 -0.1686
 1112BOLB   C3A26671  36.309  30.789  26.905 -0.0360 -0.1552 -0.1705
 1112BOLB   C4A26672  36.658  30.618   0.292  0.1286  0.0837  0.1593
 1112BOLB   C1B26673  35.320  30.413   0.139  0.0974  0.1165  0.4036
 1112BOLB   C2B26674  35.654  30.531   0.331 -0.1498  0.0470 -0.5507
 1112BOLB   C3B26675  36.107  30.552   0.357 -0.0387  0.0462  0.2803
 1112BOLB   C4B26676  36.382  30.166   0.522  0.0427 -0.1095 -0.2519
 1112BOLB   NC226677  37.485  31.192   2.208 -0.0952  0.1395  0.0385
 1112BOLB   PO226678  37.490  31.706   2.074 -0.0785  0.1067 -0.3028
 1112BOLB   GL326679  37.321  31.770   1.722  0.0606  0.2438  0.1068
 1112BOLB   GL426680  37.198  31.995   1.535 -0.0775 -0.2670  0.2746
 1112BOLB   C1C26681  37.067  31.242   1.661 -0.2680 -0.1220 -0.1416
 1112BOLB   C2C26682  36.715  31.086   1.428  0.0832 -0.2237  0.0820
 1112BOLB   C3C26683  36.669  30.840   1.111 -0.3292  0.0364 -0.1010
 1112BOLB   C4C26684  36.787  30.541   0.761 -0.2628 -0.0009 -0.4585
 1112BOLB   C1D26685  37.248  31.978   1.109 -0.1075  0.2118 -0.0801
 1112BOLB   C2D26686  37.116  32.063   0.668 -0.0083  0.1751  0.1226
 1112BOLB   C3D26687  36.839  32.389   0.510  0.1069  0.1922  0.0882
 1112BOLB   C4D26688  36.426  32.647   0.383  0.1509 -0.0472 -0.0566
 1113BOLB   NC126689  36.534  28.632   3.123 -0.2305 -0.0611  0.3379
 1113BOLB   PO126690  36.699  28.290   2.950 -0.2109  0.4646 -0.2859
 1113BOLB   GL126691  36.255  28.316   2.838 -0.1100  0.0747 -0.2756
 1113BOLB   GL226692  36.277  28.690   2.681  0.2291 -0.0046  0.2125
 1113BOLB   C1A26693  36.245  28.257   2.362  0.0466  0.1093 -0.2563
 1113BOLB   C2A26694  36.110  28.550   2.076  0.0776  0.2526 -0.0448
 1113BOLB   C3A26695  36.069  28.552   1.661  0.0412 -0.0328 -0.0945
 1113BOLB   C4A26696  35.765  28.524   1.324 -0.2796  0.3417 -0.1012
 1113BOLB   C1B26697  35.846  28.635   2.679  0.1457  0.1994  0.1339
 1113BOLB   C2B26698  35.574  28.497   2.313  0.0208 -0.3947  0.0853
 1113BOLB   C3B26699  35.205  28.510   1.970 -0.0871 -0.2858 -0.1980
 1113BOLB   C4B26700  34.994  28.450   2.340 -0.2235 -0.1341 -0.4079
 1113BOLB   NC226701  33.875  28.603  26.488 -0.0235 -0.1624 -0.3198
 1113BOLB   PO226702  34.176  28.457  26.173 -0.3822  0.1403  0.4240
 1113BOLB   GL326703  34.458  28.618  26.495  0.3039  0.1485  0.0281
 1113BOLB   GL426704  34.258  28.357  26.742 -0.0280 -0.0386  0.0334
 1113BOLB   C1C26705  34.659  28.710  26.850 -0.2716  0.0195  0.0988
 1113BOLB   C2C26706  34.947  28.616   0.188  0.0342 -0.0148 -0.0500
 1113BOLB   C3C26707  35.231  28.510   0.560  0.0387  0.0111 -0.1706
 1113BOLB   C4C26708  35.409  28.444   0.985  0.0212  0.0633 -0.1451
 1113BOLB   C1D26709  34.466  28.322   0.296 -0.0230  0.2811  0.3192
 1113BOLB   C2D26710  34.841  28.130   0.443  0.2308  0.2093 -0.0049
 1113BOLB   C3D26711  35.262  28.006   0.380 -0.1276  0.2086  0.1243
 1113BOLB   C4D26712  35.620  28.107   0.071  0.1358  0.0186  0.0750
 1114BOLB   NC126713  32.070  23.497  24.306 -0.0105  0.0141 -0.2980
 1114BOLB   PO126714  32.163  23.541  24.766 -0.1811  0.1542  0.1375
 1114BOLB   GL126715  32.446  23.216  24.830  0.1810 -0.3813 -0.1861
 1114BOLB   GL226716  32.553  23.114  25.163 -0.0019  0.2173  0.2496
 1114BOLB   C1A26717  32.665  22.824  24.769 -0.3551 -0.0141 -0.0575
 1114BOLB   C2A26718  32.804  22.511  24.573 -0.0066  0.1319 -0.3190
 1114BOLB   C3A26719  33.157  22.333  24.562  0.2885 -0.0004 -0.2693
 1114BOLB   C4A26720  33.521  22.171  24.531  0.2640  0.1998 -0.0098
 1114BOLB   C1B26721  32.796  22.799  25.257  0.1040  0.0592 -0.1036
 1114BOLB   C2B26722  32.989  22.500  25.120 -0.1844 -0.1292  0.0928
 1114BOLB   C3B26723  32.971  22.142  24.997  0.0246  0.0842  0.1199
 1114BOLB   C4B26724  33.217  21.809  24.794 -0.0926 -0.0310 -0.0508
 1114BOLB   NC226725  36.155  20.863  24.518  0.0771  0.0616 -0.0875
 1114BOLB   PO226726  35.869  20.763  24.818 -0.0857  0.0627  0.0027
 1114BOLB   GL326727  35.687  21.197  24.686  0.1241  0.1582  0.0694
 1114BOLB   GL426728  35.704  21.491  24.821 -0.1674  0.3130 -0.3525
 1114BOLB   C1C26729  35.290  21.436  24.614 -0.0014 -0.1590 -0.2042
 1114BOLB   C2C26730  34.850  21.556  24.650  0.1698  0.2330 -0.1858
 1114BOLB   C3C26731  34.412  21.744  24.696 -0.2572 -0.1383 -0.2239
 1114BOLB   C4C26732  33.899  21.849  24.623 -0.0835  0.1762  0.2021
 1114BOLB   C1D26733  35.543  21.681  25.306  0.1260  0.2961 -0.1198
 1114BOLB   C2D26734  35.282  21.981  25.408 -0.0261  0.3017  0.1509
 1114BOLB   C3D26735  34.949  22.215  25.211 -0.0560  0.0484 -0.4214
 1114BOLB   C4D26736  34.514  22.058  25.349 -0.1597 -0.2907  0.0882
 1115BOLB   NC126737  31.295  37.032  24.185 -0.0169 -0.0996 -0.3035
 1115BOLB   PO126738  31.153  36.818  24.683  0.1896  0.0542 -0.1416
 1115BOLB   GL126739  31.370  37.250  24.639 -0.0803  0.1275  0.1410
 1115BOLB   GL226740  31.515  37.429  24.353 -0.0436 -0.2430 -0.1628
 1115BOLB   C1A26741  31.737  37.518  24.794 -0.0244 -0.2112  0.1220
 1115BOLB   C2A26742  31.910  37.888  24.799  0.0068  0.0364  0.1469
 1115BOLB   C3A26743  32.102  37.998  25.259  0.1023 -0.0975 -0.0274
 1115BOLB   C4A26744  32.417  38.213  25.413  0.4654  0.1195  0.3209
 1115BOLB   C1B26745  31.611  37.851  24.332 -0.0608  0.2021  0.1805
 1115BOLB   C2B26746  31.891  38.143  24.335  0.1365  0.2200 -0.0061
 1115BOLB   C3B26747  32.176  38.315  24.625  0.0754 -0.1156 -0.2348
 1115BOLB   C4B26748  32.158  38.426  25.011  0.1487  0.1577  0.1981
 1115BOLB   NC226749  33.709  39.586  25.682 -0.4058 -0.3985  0.0144
 1115BOLB   PO226750  33.560  39.972  25.909 -0.2767  0.1012  0.2125
 1115BOLB   GL326751  33.221  39.772  25.904 -0.1203 -0.0230  0.0280
 1115BOLB   GL426752  33.268  39.441  25.756  0.2631  0.0506  0.0097
 1115BOLB   C1C26753  32.841  39.671  25.576 -0.2338  0.2059  0.1275
 1115BOLB   C2C26754  32.508  39.348  25.396  0.3468 -0.0888  0.3700
 1115BOLB   C3C26755  32.516  38.866  25.204 -0.0862  0.2641  0.0073
 1115BOLB   C4C26756  32.684  38.516  25.446  0.0422  0.2116 -0.0085
 1115BOLB   C1D26757  33.097  39.223  26.054 -0.1846 -0.1235 -0.0509
 1115BOLB   C2D26758  32.862  38.903  26.208  0.0516 -0.1298  0.0184
 1115BOLB   C3D26759  32.805  38.652  25.915 -0.0499 -0.1476 -0.5454
 1115BOLB   C4D26760  32.552  38.300  25.921 -0.2043 -0.4468  0.1752
 1116BOLB   NC126761  35.236  22.146   1.271 -0.0445 -0.1141 -0.2229
 1116BOLB   PO126762  35.114  22.333   0.875  0.1626 -0.0180  0.1693
 1116BOLB   GL126763  34.870  22.730   0.920 -0.1749  0.1958  0.3352
 1116BOLB   GL226764  34.902  22.703   1.210  0.0174 -0.0904 -0.1004
 1116BOLB   C1A26765  34.745  23.115   1.268 -0.0129  0.0018 -0.2443
 1116BOLB   C2A26766  34.419  23.278   1.304  0.2064 -0.1805  0.4862
 1116BOLB   C3A26767  34.054  23.674   1.116 -0.2889  0.1208  0.0023
 1116BOLB   C4A26768  33.865  24.053   1.095 -0.1149  0.3883 -0.0151
 1116BOLB   C1B26769  34.480  22.940   0.921 -0.1030 -0.2447  0.0813
 1116BOLB   C2B26770  33.935  23.102   1.085 -0.1165 -0.1456 -0.3366
 1116BOLB   C3B26771  33.625  23.374   1.184  0.0613  0.1578 -0.4887
 1116BOLB   C4B26772  33.426  23.399   0.916  0.0850 -0.0253 -0.1773
 1116BOLB   NC226773  36.198  24.130   1.072 -0.3153 -0.0968  0.0534
 1116BOLB   PO226774  35.902  24.043   1.368  0.2010  0.2263 -0.0668
 1116BOLB   GL326775  35.507  24.105   1.340  0.1263  0.2942  0.0303
 1116BOLB   GL426776  35.291  23.888   1.324  0.1726  0.1187 -0.0934
 1116BOLB   C1C26777  35.117  24.450   1.282  0.0494 -0.2334  0.0703
 1116BOLB   C2C26778  34.779  24.358   1.225  0.1281 -0.4015 -0.1257
 1116BOLB   C3C26779  34.416  24.366   1.234  0.0096 -0.1725  0.2121
 1116BOLB   C4C26780  34.020  24.384   1.312  0.5480 -0.0013 -0.0378
 1116BOLB   C1D26781  34.866  23.644   1.269 -0.1091  0.1113  0.3443
 1116BOLB   C2D26782  34.639  23.588   0.865  0.1840 -0.0852  0.1967
 1116BOLB   C3D26783  34.206  23.339   0.802  0.2007 -0.3879 -0.1406
 1116BOLB   C4D26784  34.118  22.942   0.645 -0.1281  0.0960  0.0569
 1117BOLB   NC126785  32.631  31.515  15.281  0.1352  0.1785 -0.1466
 1117BOLB   PO126786  32.750  31.888  15.386  0.0646 -0.1228 -0.1776
 1117BOLB   GL126787  33.167  32.041  15.284  0.1552  0.0106  0.0759
 1117BOLB   GL226788  33.424  31.801  15.261 -0.1085  0.1466 -0.4830
 1117BOLB   C1A26789  33.405  32.189  14.928  0.1102 -0.0379  0.0835
 1117BOLB   C2A26790  33.679  32.252  14.589 -0.0915 -0.2516  0.1667
 1117BOLB   C3A26791  33.765  32.545  14.253 -0.2133  0.0228  0.1166
 1117BOLB   C4A26792  33.958  32.866  14.046  0.0765  0.4843  0.2467
 1117BOLB   C1B26793  33.736  31.788  15.017 -0.1111  0.0198  0.1321
 1117BOLB   C2B26794  33.999  31.867  14.626 -0.1520  0.3189  0.0016
 1117BOLB   C3B26795  34.049  32.139  14.216  0.0102  0.5222 -0.1111
 1117BOLB   C4B26796  34.154  32.402  14.018 -0.3451 -0.0595 -0.1803
 1117BOLB   NC226797  34.534  33.578  12.155  0.1871  0.1826  0.3416
 1117BOLB   PO226798  34.659  33.975  12.428  0.1195  0.3062 -0.1584
 1117BOLB   GL326799  34.496  33.720  12.741 -0.0758  0.1075 -0.0121
 1117BOLB   GL426800  34.267  33.480  12.632 -0.1141 -0.0675 -0.3011
 1117BOLB   C1C26801  34.273  33.579  13.106 -0.0955 -0.2572  0.2129
 1117BOLB   C2C26802  34.119  33.618  13.402 -0.0402 -0.0572  0.0246
 1117BOLB   C3C26803  34.196  33.411  13.755  0.0364 -0.0074  0.3882
 1117BOLB   C4C26804  34.118  33.256  13.967 -0.0246 -0.0310  0.1372
 1117BOLB   C1D26805  34.009  33.125  12.846  0.0572 -0.3688 -0.2378
 1117BOLB   C2D26806  33.970  33.135  13.331 -0.1328 -0.2556  0.0017
 1117BOLB   C3D26807  33.765  32.927  13.558 -0.0552 -0.0266 -0.2523
 1117BOLB   C4D26808  33.545  32.638  13.741 -0.0591  0.1333 -0.5323
 1118BOLB   NC126809  27.909  33.137  14.106  0.0385  0.1443 -0.1855
 1118BOLB   PO126810  27.825  32.670  14.098  0.5554  0.0644 -0.0775
 1118BOLB   GL126811  28.031  32.722  13.693  0.2184 -0.1785  0.0715
 1118BOLB   GL226812  27.926  32.527  13.424  0.0620  0.3799  0.0111
 1118BOLB   C1A26813  28.192  32.928  13.259  0.1830 -0.0976  0.2053
 1118BOLB   C2A26814  28.210  33.156  12.878  0.2968 -0.0272  0.1461
 1118BOLB   C3A26815  28.110  33.309  12.391 -0.2935  0.0882 -0.1165
 1118BOLB   C4A26816  28.348  33.566  12.249 -0.1215 -0.1084 -0.1957
 1118BOLB   C1B26817  27.742  32.752  13.077 -0.0719 -0.1102  0.3115
 1118BOLB   C2B26818  27.783  32.946  12.667 -0.0424  0.0623 -0.2147
 1118BOLB   C3B26819  27.745  32.966  12.327  0.0187  0.0730 -0.1126
 1118BOLB   C4B26820  27.499  32.974  12.035 -0.2058  0.2121  0.0337
 1118BOLB   NC226821  29.770  34.209  10.809  0.2545 -0.1862 -0.0744
 1118BOLB   PO226822  30.077  33.946  11.085 -0.0758 -0.0083 -0.0614
 1118BOLB   GL326823  29.765  33.741  11.202 -0.1253  0.0634 -0.1580
 1118BOLB   GL426824  29.926  33.385  11.300  0.2843 -0.0578  0.0532
 1118BOLB   C1C26825  29.439  33.896  11.336  0.0908  0.1725  0.0729
 1118BOLB   C2C26826  29.035  33.815  11.300 -0.1803 -0.2228 -0.2366
 1118BOLB   C3C26827  28.712  33.643  11.582 -0.0082  0.3074 -0.1319
 1118BOLB   C4C26828  28.697  33.451  11.982  0.0863 -0.1286  0.0012
 1118BOLB   C1D26829  29.513  33.425  11.583  0.0902  0.0171  0.1083
 1118BOLB   C2D26830  29.151  33.356  11.706 -0.2572  0.2678 -0.0606
 1118BOLB   C3D26831  28.802  33.101  11.579  0.3805  0.0430 -0.0020
 1118BOLB   C4D26832  28.801  32.828  11.181  0.1374 -0.0781  0.3521
 1119BOLB   NC126833  33.860  35.123  19.977  0.1266 -0.0380 -0.2309
 1119BOLB   PO126834  33.832  35.528  20.169  0.0850 -0.3779 -0.0142
 1119BOLB   GL126835  34.046  35.871  20.154 -0.3159 -0.1599 -0.0023
 1119BOLB   GL226836  34.268  35.932  20.270 -0.1558  0.1775  0.2599
 1119BOLB   C1A26837  33.996  36.282  19.921 -0.2593  0.1715  0.0061
 1119BOLB   C2A26838  34.158  36.657  19.742  0.0165 -0.0874  0.2814
 1119BOLB   C3A26839  34.488  36.909  19.696  0.0005  0.0843 -0.0734
 1119BOLB   C4A26840  34.597  37.237  19.838  0.1751 -0.1991  0.5305
 1119BOLB   C1B26841  34.561  36.084  19.967  0.1368 -0.0384 -0.0416
 1119BOLB   C2B26842  34.643  36.372  19.666 -0.0379  0.1718  0.0849
 1119BOLB   C3B26843  34.851  36.656  19.529  0.2790  0.1966  0.5082
 1119BOLB   C4B26844  34.926  37.000  19.507 -0.4459 -0.0549  0.2122
 1119BOLB   NC226845  35.490  39.096  19.974  0.0909 -0.0219  0.0684
 1119BOLB   PO226846  35.644  39.335  19.623 -0.1577  0.0630 -0.0728
 1119BOLB   GL326847  35.297  39.034  19.493 -0.3619  0.1671 -0.2458
 1119BOLB   GL426848  35.255  39.121  19.184 -0.0948  0.0346 -0.3563
 1119BOLB   C1C26849  35.278  38.520  19.490  0.1019  0.1287 -0.1057
 1119BOLB   C2C26850  34.876  38.300  19.636 -0.0928  0.3199  0.1671
 1119BOLB   C3C26851  34.448  38.045  19.686 -0.2637 -0.2463  0.0184
 1119BOLB   C4C26852  34.311  37.672  19.792  0.2980  0.1694 -0.0202
 1119BOLB   C1D26853  35.058  38.779  19.069  0.0659  0.2574 -0.0412
 1119BOLB   C2D26854  34.868  38.489  19.113  0.3115  0.2983  0.0934
 1119BOLB   C3D26855  34.441  38.283  19.078 -0.1210  0.3617 -0.0529
 1119BOLB   C4D26856  34.017  38.109  18.935 -0.0010 -0.3365 -0.0180
 1120BOLB   NC126857  27.036  37.854  19.852 -0.2926  0.1808  0.1034
 1120BOLB   PO126858  26.818  37.599  19.640 -0.0179  0.0536  0.0075
 1120BOLB   GL126859  26.682  38.055  19.498 -0.0838  0.2058 -0.0283
 1120BOLB   GL226860  26.865  38.315  19.564 -0.1527  0.0202  0.1257
 1120BOLB   C1A26861  26.517  38.447  19.273  0.1068 -0.2120  0.2617
 1120BOLB   C2A26862  26.555  38.686  18.983  0.0854 -0.0983 -0.4408
 1120BOLB   C3A26863  26.320  38.992  18.763  0.3958  0.2961 -0.4318
 1120BOLB   C4A26864  25.877  39.190  18.644 -0.0212  0.3515 -0.0335
 1120BOLB   C1B26865  26.898  38.745  19.341  0.1369  0.1925  0.0577
 1120BOLB   C2B26866  27.033  39.171  19.183  0.4319  0.3071  0.0585
 1120BOLB   C3B26867  27.199  39.431  18.982 -0.1031  0.2137  0.0038
 1120BOLB   C4B26868  27.167  39.906  18.910  0.0890 -0.1378 -0.0315
 1120BOLB   NC226869  25.024  41.728  18.447  0.3472 -0.3943 -0.0245
 1120BOLB   PO226870  25.182  41.398  18.224 -0.0175 -0.0239 -0.1410
 1120BOLB   GL326871  25.465  41.163  18.330  0.2033  0.2838  0.2795
 1120BOLB   GL426872  25.728  41.280  18.524 -0.1719 -0.1851 -0.0406
 1120BOLB   C1C26873  25.414  40.697  18.407 -0.3408  0.1930 -0.2423
 1120BOLB   C2C26874  25.410  40.227  18.650  0.1386 -0.1628  0.1423
 1120BOLB   C3C26875  25.385  39.752  18.781 -0.1972 -0.0532 -0.0389
 1120BOLB   C4C26876  25.475  39.318  18.601  0.1134 -0.1246 -0.0672
 1120BOLB   C1D26877  25.841  40.822  18.590 -0.1285  0.3830 -0.1681
 1120BOLB   C2D26878  25.870  40.395  18.617 -0.0472  0.0454 -0.0231
 1120BOLB   C3D26879  26.053  40.038  18.334 -0.0063 -0.0183 -0.3361
 1120BOLB   C4D26880  25.834  39.759  17.910 -0.0200  0.2969 -0.1378
 1121BOLB   NC126881  23.419  35.910  21.996 -0.4953 -0.0908 -0.0643
 1121BOLB   PO126882  23.098  36.144  22.084 -0.0163  0.0278 -0.5434
 1121BOLB   GL126883  22.850  36.599  22.073 -0.2206  0.0542 -0.0209
 1121BOLB   GL226884  23.108  36.761  21.802 -0.2034  0.1906 -0.0262
 1121BOLB   C1A26885  22.596  36.995  22.130 -0.1027  0.0606  0.1053
 1121BOLB   C2A26886  22.342  37.281  22.298  0.0209 -0.0383  0.0490
 1121BOLB   C3A26887  22.116  37.632  22.279  0.3119  0.2136  0.1711
 1121BOLB   C4A26888  21.944  38.058  22.317  0.0584  0.1343  0.0740
 1121BOLB   C1B26889  22.615  36.689  21.676  0.0782  0.1304 -0.0657
 1121BOLB   C2B26890  22.320  37.005  21.536 -0.1372 -0.0084  0.4476
 1121BOLB   C3B26891  22.066  37.383  21.811  0.0100 -0.0322  0.3449
 1121BOLB   C4B26892  21.752  37.698  21.941  0.0758 -0.3415  0.0771
 1121BOLB   NC226893  21.932  40.692  21.513  0.1301  0.2192  0.1135
 1121BOLB   PO226894  21.941  40.241  21.710 -0.1044  0.0886  0.0257
 1121BOLB   GL326895  22.277  39.902  21.465 -0.2289 -0.1141  0.1199
 1121BOLB   GL426896  22.539  39.998  21.478 -0.0143  0.0368 -0.0018
 1121BOLB   C1C26897  22.396  39.531  21.257 -0.0469 -0.2895  0.1789
 1121BOLB   C2C26898  22.276  39.104  21.485 -0.1706 -0.2555  0.0621
 1121BOLB   C3C26899  22.094  38.766  21.684  0.2940  0.0402  0.1258
 1121BOLB   C4C26900  21.855  38.391  21.923  0.1782 -0.2490  0.2696
 1121BOLB   C1D26901  22.938  39.842  21.668 -0.0475 -0.2729  0.3789
 1121BOLB   C2D26902  23.391  39.578  21.736 -0.0875 -0.0537  0.4466
 1121BOLB   C3D26903  23.812  39.358  21.689  0.1603  0.1747  0.2769
 1121BOLB   C4D26904  24.189  39.140  21.531  0.1004 -0.0031 -0.4183
 1122BOLB   NC126905  34.740  28.441   5.378 -0.2623 -0.0334  0.2110
 1122BOLB   PO126906  34.953  28.320   5.007  0.1144 -0.1249 -0.2024
 1122BOLB   GL126907  34.956  28.525   4.607  0.1401 -0.1286  0.1361
 1122BOLB   GL226908  34.685  28.283   4.519 -0.0946  0.1388  0.0951
 1122BOLB   C1A26909  34.759  28.753   4.245 -0.3176 -0.1328  0.2297
 1122BOLB   C2A26910  34.455  28.864   3.865  0.4370 -0.1223  0.1985
 1122BOLB   C3A26911  34.166  28.939   3.569  0.0487  0.4087  0.1993
 1122BOLB   C4A26912  33.896  29.060   3.211  0.1933  0.1843 -0.0643
 1122BOLB   C1B26913  34.345  28.436   4.222 -0.0702  0.2481 -0.1819
 1122BOLB   C2B26914  34.022  28.331   3.913 -0.0905  0.0125  0.0240
 1122BOLB   C3B26915  33.706  28.213   3.637 -0.0697 -0.0530 -0.1680
 1122BOLB   C4B26916  33.340  28.122   3.433 -0.4294 -0.0741  0.5316
 1122BOLB   NC226917  35.195  29.557   4.494  0.3234 -0.0541 -0.1664
 1122BOLB   PO226918  35.595  29.314   4.429 -0.1536  0.1719  0.2457
 1122BOLB   GL326919  35.382  29.233   4.116  0.1701  0.0330 -0.3508
 1122BOLB   GL426920  35.243  28.978   4.078 -0.0826  0.1651 -0.0918
 1122BOLB   C1C26921  35.173  29.559   3.835 -0.0218 -0.0431  0.0432
 1122BOLB   C2C26922  34.745  29.667   3.677  0.1636 -0.0511 -0.2673
 1122BOLB   C3C26923  34.424  29.669   3.139 -0.0447 -0.0209  0.2054
 1122BOLB   C4C26924  34.099  29.335   3.010 -0.3471 -0.3480 -0.0136
 1122BOLB   C1D26925  34.837  29.162   3.847 -0.0785 -0.2884  0.2316
 1122BOLB   C2D26926  34.554  29.209   3.448  0.0453  0.0910  0.2313
 1122BOLB   C3D26927  34.549  29.250   2.893  0.1794 -0.1175  0.1559
 1122BOLB   C4D26928  34.629  29.674   2.665  0.0432 -0.0043 -0.1590
 1123BOLB   NC126929  33.313  35.468  23.624 -0.3326  0.2075 -0.0944
 1123BOLB   PO126930  32.984  35.710  23.861 -0.0347 -0.1867 -0.0615
 1123BOLB   GL126931  33.136  36.135  24.032  0.1854  0.2682 -0.0351
 1123BOLB   GL226932  32.985  36.118  24.302  0.1329 -0.3026  0.0092
 1123BOLB   C1A26933  33.486  36.456  24.091 -0.0768 -0.3161 -0.0873
 1123BOLB   C2A26934  33.709  36.739  24.146 -0.0123  0.0823  0.3246
 1123BOLB   C3A26935  33.987  37.019  24.488 -0.0081 -0.0482  0.0319
 1123BOLB   C4A26936  34.046  37.297  24.750 -0.1247 -0.3178  0.3417
 1123BOLB   C1B26937  33.242  36.403  24.527  0.1371 -0.2876 -0.0395
 1123BOLB   C2B26938  33.605  36.599  24.759 -0.0009 -0.1195 -0.1575
 1123BOLB   C3B26939  33.965  36.812  25.053  0.2822  0.0372 -0.2069
 1123BOLB   C4B26940  33.888  37.146  25.349  0.1545  0.0573  0.0472
 1123BOLB   NC226941  35.339  39.298  25.863 -0.0909 -0.2721 -0.3861
 1123BOLB   PO226942  35.453  38.890  25.929 -0.2145  0.1931 -0.2036
 1123BOLB   GL326943  35.113  38.532  25.904  0.0921  0.0365  0.1419
 1123BOLB   GL426944  35.269  38.297  25.745  0.1410  0.2503  0.2343
 1123BOLB   C1C26945  34.821  38.341  25.597  0.2747  0.4789  0.2066
 1123BOLB   C2C26946  34.506  38.012  25.617 -0.1998  0.4810  0.0189
 1123BOLB   C3C26947  34.131  37.702  25.471 -0.2241 -0.0056  0.1678
 1123BOLB   C4C26948  33.837  37.605  25.116  0.2577  0.0228 -0.1234
 1123BOLB   C1D26949  35.192  38.146  25.374 -0.0885  0.0850  0.2085
 1123BOLB   C2D26950  34.866  37.905  25.323  0.0940  0.2785  0.1577
 1123BOLB   C3D26951  34.562  37.566  25.249 -0.0612 -0.2277  0.1619
 1123BOLB   C4D26952  34.330  37.201  25.163  0.3266  0.0547 -0.1618
 1124BOLB   NC126953  30.968  33.356   1.943 -0.0457  0.1952 -0.1012
 1124BOLB   PO126954  31.426  33.309   1.774 -0.1600 -0.0820  0.0842
 1124BOLB   GL126955  31.392  33.621   2.154 -0.0918 -0.1110 -0.1325
 1124BOLB   GL226956  31.223  33.875   2.004 -0.2067 -0.2930 -0.2954
 1124BOLB   C1A26957  31.704  33.701   2.443 -0.2313  0.1566  0.0882
 1124BOLB   C2A26958  31.914  33.843   2.873 -0.0874  0.2058 -0.0236
 1124BOLB   C3A26959  31.898  34.100   3.285  0.1185  0.3514 -0.5077
 1124BOLB   C4A26960  31.893  34.360   3.614 -0.1710 -0.3701  0.4009
 1124BOLB   C1B26961  30.955  34.170   2.169  0.2623  0.0321  0.0431
 1124BOLB   C2B26962  30.751  34.497   2.151 -0.2226  0.1687  0.1271
 1124BOLB   C3B26963  30.872  34.835   2.346  0.2805 -0.0176 -0.0252
 1124BOLB   C4B26964  30.962  35.301   2.190  0.0928  0.1643 -0.1487
 1124BOLB   NC226965  31.731  35.195   5.602  0.1097 -0.2360  0.0183
 1124BOLB   PO226966  32.113  35.134   5.456 -0.1775  0.3459 -0.1852
 1124BOLB   GL326967  31.953  34.801   5.092  0.0426 -0.1612  0.1605
 1124BOLB   GL426968  32.006  34.551   5.008 -0.3833  0.0849 -0.3124
 1124BOLB   C1C26969  31.562  34.691   5.040 -0.2403 -0.1677  0.1183
 1124BOLB   C2C26970  31.429  34.617   4.673 -0.0389 -0.1274  0.0417
 1124BOLB   C3C26971  31.460  34.488   4.287  0.2733 -0.1401  0.2431
 1124BOLB   C4C26972  31.570  34.530   3.867  0.0633  0.0604 -0.0046
 1124BOLB   C1D26973  31.804  34.282   4.685 -0.0929  0.1935  0.2762
 1124BOLB   C2D26974  31.468  34.000   4.623 -0.1226  0.3428  0.3421
 1124BOLB   C3D26975  31.180  33.842   4.296 -0.1028 -0.2072  0.3071
 1124BOLB   C4D26976  30.817  33.924   4.075 -0.0206 -0.1586 -0.1668
 1125BOLB   NC126977  30.593  30.101  14.164 -0.0787 -0.0750 -0.0988
 1125BOLB   PO126978  30.198  30.067  13.877 -0.0448 -0.0770  0.1763
 1125BOLB   GL126979  30.553  29.959  13.639 -0.0638  0.1217  0.0003
 1125BOLB   GL226980  30.930  30.098  13.721  0.2172  0.1313 -0.0507
 1125BOLB   C1A26981  30.639  30.030  13.264 -0.0407  0.2002  0.1140
 1125BOLB   C2A26982  30.681  30.038  12.841  0.2950  0.0115  0.0901
 1125BOLB   C3A26983  30.818  30.037  12.400 -0.1477  0.0928  0.0274
 1125BOLB   C4A26984  30.882  29.940  12.036  0.0879 -0.0912 -0.3084
 1125BOLB   C1B26985  31.082  30.282  13.342  0.2336 -0.1800  0.1865
 1125BOLB   C2B26986  31.084  30.290  12.949 -0.2038  0.2822  0.2541
 1125BOLB   C3B26987  31.150  30.408  12.464 -0.1385  0.0530  0.1491
 1125BOLB   C4B26988  31.314  30.460  12.029  0.1209  0.0179 -0.1712
 1125BOLB   NC226989  31.817  30.220  10.095  0.1687 -0.3486 -0.3047
 1125BOLB   PO226990  32.258  30.367  10.108  0.2251 -0.0230  0.0220
 1125BOLB   GL326991  32.101  30.242  10.583  0.1635 -0.0340  0.1651
 1125BOLB   GL426992  32.393  30.244  10.690 -0.0226  0.2909 -0.1845
 1125BOLB   C1C26993  31.959  30.032  10.924  0.3700 -0.3096 -0.0224
 1125BOLB   C2C26994  31.694  30.251  11.317  0.3188  0.0223 -0.0393
 1125BOLB   C3C26995  31.345  30.498  11.462 -0.0344 -0.0888  0.5164
 1125BOLB   C4C26996  30.978  30.222  11.670  0.2673  0.2068  0.0709
 1125BOLB   C1D26997  32.459  30.240  11.147 -0.2466 -0.0903 -0.1998
 1125BOLB   C2D26998  32.164  30.280  11.471 -0.0346 -0.1551 -0.3133
 1125BOLB   C3D26999  31.894  30.485  11.745 -0.2547  0.1770 -0.2339
 1125BOLB   C4D27000  31.668  30.820  11.857  0.2172  0.1352  0.0617
 1126BOLB   NC127001  34.229  35.524  20.546  0.5496  0.2249  0.1708
 1126BOLB   PO127002  34.432  35.198  20.619  0.0408  0.2099 -0.0209
 1126BOLB   GL127003  34.725  35.410  20.751  0.0591  0.0346 -0.0228
 1126BOLB   GL227004  34.634  35.692  20.702 -0.2792  0.2125  0.0589
 1126BOLB   C1A27005  35.111  35.671  20.855  0.0045 -0.1816  0.1415
 1126BOLB   C2A27006  35.257  36.119  20.960 -0.0454 -0.0296  0.0091
 1126BOLB   C3A27007  35.283  36.491  20.602  0.0154  0.3004 -0.0163
 1126BOLB   C4A27008  35.206  36.984  20.479  0.3637  0.1869 -0.0205
 1126BOLB   C1B27009  34.751  35.962  20.418  0.2937  0.3784 -0.0783
 1126BOLB   C2B27010  34.950  36.291  20.276  0.0065 -0.0766 -0.2638
 1126BOLB   C3B27011  35.383  36.434  20.099 -0.1534  0.0754  0.2158
 1126BOLB   C4B27012  35.623  36.679  20.195  0.0699  0.1749 -0.0218
 1126BOLB   NC227013  37.670  37.839  19.922  0.1003 -0.2343  0.2593
 1126BOLB   PO227014  37.240  37.719  19.942  0.1453  0.0454  0.1666
 1126BOLB   GL327015  36.762  37.934  19.904 -0.0526 -0.0407 -0.0750
 1126BOLB   GL427016  36.770  37.635  19.716  0.0065  0.0943 -0.1240
 1126BOLB   C1C27017  36.354  37.744  20.024  0.1030  0.1766 -0.4310
 1126BOLB   C2C27018  36.074  37.660  20.345  0.0152  0.1938  0.3719
 1126BOLB   C3C27019  35.741  37.609  20.592 -0.1408  0.0777  0.2145
 1126BOLB   C4C27020  35.398  37.379  20.725 -0.1014  0.0514 -0.0459
 1126BOLB   C1D27021  36.524  37.248  19.863 -0.0487  0.1413 -0.0302
 1126BOLB   C2D27022  36.202  37.210  20.248  0.1009 -0.0670 -0.0614
 1126BOLB   C3D27023  36.103  37.236  20.696 -0.1337  0.0002  0.1286
 1126BOLB   C4D27024  36.238  37.443  21.069 -0.1020 -0.2064 -0.0193
 1127BOLB   NC127025  24.281  35.867  24.787  0.1374  0.2433 -0.3972
 1127BOLB   PO127026  24.012  36.024  24.993  0.2413  0.0957  0.1158
 1127BOLB   GL127027  23.766  36.393  24.956 -0.1302  0.0119  0.0348
 1127BOLB   GL227028  23.870  36.550  25.181  0.0226 -0.0877 -0.3691
 1127BOLB   C1A27029  23.455  36.619  24.806  0.1116  0.4225  0.3619
 1127BOLB   C2A27030  23.126  36.988  25.000  0.1658  0.0675  0.0970
 1127BOLB   C3A27031  23.001  37.334  25.081 -0.0554 -0.3688  0.5629
 1127BOLB   C4A27032  22.659  37.553  25.130  0.3965  0.3137 -0.0702
 1127BOLB   C1B27033  23.605  36.797  25.220  0.0988 -0.0647  0.1615
 1127BOLB   C2B27034  23.621  37.060  25.561  0.1419  0.1150  0.0498
 1127BOLB   C3B27035  23.601  37.320  25.886  0.0756 -0.1847  0.1437
 1127BOLB   C4B27036  23.441  37.571  26.323 -0.1869 -0.0120 -0.4842
 1127BOLB   NC227037  21.085  39.431  25.334  0.0668  0.4197 -0.0497
 1127BOLB   PO227038  20.874  39.197  25.333  0.0959 -0.0799  0.0761
 1127BOLB   GL327039  21.042  38.853  25.482 -0.2274  0.0583 -0.2316
 1127BOLB   GL427040  20.957  38.666  25.770  0.2882 -0.2739 -0.1319
 1127BOLB   C1C27041  21.434  38.608  25.695  0.2584 -0.2106 -0.0191
 1127BOLB   C2C27042  21.662  38.259  25.468 -0.2024  0.0717  0.0871
 1127BOLB   C3C27043  22.044  38.066  25.454 -0.0038 -0.2777  0.0239
 1127BOLB   C4C27044  22.507  37.928  25.333  0.3454  0.2308  0.0859
 1127BOLB   C1D27045  20.991  38.396  25.420 -0.1379 -0.0200  0.0002
 1127BOLB   C2D27046  21.351  38.505  25.200  0.1762  0.2055  0.2607
 1127BOLB   C3D27047  21.594  38.376  24.895  0.2401  0.0550 -0.2047
 1127BOLB   C4D27048  21.688  38.160  24.435 -0.0937  0.1174  0.3854
 1128BOLB   NC127049  34.098  33.937  25.116  0.1824 -0.0647  0.2970
 1128BOLB   PO127050  34.106  33.519  25.192  0.1604  0.1111  0.1640
 1128BOLB   GL127051  34.389  33.613  25.483  0.2187  0.2856  0.2421
 1128BOLB   GL227052  34.351  33.941  25.538 -0.1081 -0.6493 -0.0548
 1128BOLB   C1A27053  34.741  33.832  25.763 -0.1677 -0.2708  0.1145
 1128BOLB   C2A27054  34.897  34.261  25.926 -0.0563 -0.0871 -0.0539
 1128BOLB   C3A27055  35.104  34.606  25.820 -0.2861 -0.3274 -0.4694
 1128BOLB   C4A27056  35.473  34.705  26.097 -0.1225  0.0237  0.0974
 1128BOLB   C1B27057  34.499  34.296  25.538 -0.6133  0.3429  0.0407
 1128BOLB   C2B27058  34.546  34.679  25.675 -0.0279  0.1161  0.2713
 1128BOLB   C3B27059  34.685  35.020  25.968 -0.0933  0.0345 -0.1697
 1128BOLB   C4B27060  35.098  35.007  26.185 -0.1328  0.1035 -0.0338
 1128BOLB   NC227061  37.374  35.235   0.850  0.0572  0.2945  0.2435
 1128BOLB   PO227062  37.086  35.615   0.667  0.2349  0.0083  0.1559
 1128BOLB   GL327063  36.761  35.610   0.280  0.2477 -0.0159  0.0585
 1128BOLB   GL427064  36.672  35.881   0.173 -0.0037  0.1890  0.3382
 1128BOLB   C1C27065  36.699  35.394  26.851  0.1774  0.0498 -0.3556
 1128BOLB   C2C27066  36.598  35.050  26.623 -0.0634 -0.1636  0.1811
 1128BOLB   C3C27067  36.246  34.934  26.464 -0.1194  0.0076  0.1796
 1128BOLB   C4C27068  35.855  34.883  26.252  0.2165  0.2383  0.1829
 1128BOLB   C1D27069  36.260  35.734   0.067  0.0348 -0.0235  0.3200
 1128BOLB   C2D27070  35.857  35.659   0.114  0.2852  0.0479 -0.1987
 1128BOLB   C3D27071  35.568  35.455  26.904  0.1956  0.0464 -0.4530
 1128BOLB   C4D27072  35.305  35.351  26.639 -0.0127 -0.3966  0.2405
 1129BOLB   NC127073  28.635  31.031   2.954  0.0290  0.0725  0.1828
 1129BOLB   PO127074  28.967  30.731   3.226 -0.0782 -0.3038 -0.0044
 1129BOLB   GL127075  28.832  30.592   3.533  0.2866 -0.1980 -0.2188
 1129BOLB   GL227076  28.621  30.385   3.583  0.3666 -0.2837 -0.0462
 1129BOLB   C1A27077  28.842  30.728   4.032  0.3537 -0.2347  0.2128
 1129BOLB   C2A27078  28.968  30.814   4.341 -0.2962 -0.3578 -0.1766
 1129BOLB   C3A27079  28.830  30.914   4.668 -0.0708 -0.2125 -0.1432
 1129BOLB   C4A27080  28.945  31.072   5.130  0.2119 -0.0413  0.1300
 1129BOLB   C1B27081  28.816  30.194   3.946  0.1445 -0.0299 -0.0572
 1129BOLB   C2B27082  29.056  30.159   4.205  0.3117 -0.2402 -0.1330
 1129BOLB   C3B27083  29.112  30.428   4.606 -0.0880 -0.0144  0.1488
 1129BOLB   C4B27084  29.149  30.527   5.091 -0.0947 -0.0597  0.0311
 1129BOLB   NC227085  28.410  30.687   7.532 -0.0174 -0.1374 -0.0045
 1129BOLB   PO227086  28.222  31.002   7.316 -0.2673  0.1496  0.0935
 1129BOLB   GL327087  28.257  30.885   6.833 -0.3918  0.0627 -0.2202
 1129BOLB   GL427088  27.952  30.806   6.566  0.0331  0.1023 -0.0427
 1129BOLB   C1C27089  28.500  30.611   6.677 -0.0899  0.1222 -0.1871
 1129BOLB   C2C27090  28.734  30.680   6.306  0.1518  0.6506 -0.2165
 1129BOLB   C3C27091  28.882  30.568   5.884  0.0243 -0.2587 -0.1558
 1129BOLB   C4C27092  28.909  30.750   5.478  0.0294  0.0418 -0.0682
 1129BOLB   C1D27093  28.256  30.738   6.245 -0.1679 -0.1688 -0.1683
 1129BOLB   C2D27094  28.301  30.655   5.840  0.0827  0.0746  0.1628
 1129BOLB   C3D27095  28.153  30.723   5.394  0.0446  0.1330 -0.1187
 1129BOLB   C4D27096  28.222  30.514   4.943  0.0427  0.0530  0.1240
 1130BOLB   NC127097  28.758  36.358  16.392  0.1003  0.1633 -0.1997
 1130BOLB   PO127098  29.072  36.155  16.050  0.0389 -0.5308  0.0411
 1130BOLB   GL127099  29.022  36.282  15.676 -0.0210 -0.0389  0.1064
 1130BOLB   GL227100  29.105  36.096  15.357  0.0120  0.2274 -0.1836
 1130BOLB   C1A27101  28.924  36.652  15.346 -0.0695  0.1526 -0.1293
 1130BOLB   C2A27102  28.679  36.986  15.307 -0.2482  0.3324 -0.1599
 1130BOLB   C3A27103  28.335  37.214  15.138  0.2190  0.1838  0.3559
 1130BOLB   C4A27104  28.225  37.352  14.617 -0.3377 -0.0434  0.1363
 1130BOLB   C1B27105  29.309  36.340  15.197 -0.0616 -0.2297 -0.2546
 1130BOLB   C2B27106  29.544  36.609  14.812  0.4241  0.1358  0.0530
 1130BOLB   C3B27107  29.778  36.962  14.694  0.2557 -0.0726  0.3391
 1130BOLB   C4B27108  30.169  37.057  14.754 -0.1851 -0.1439  0.1392
 1130BOLB   NC227109  27.468  38.668  12.945  0.1807  0.4106 -0.1336
 1130BOLB   PO227110  27.112  38.858  13.113 -0.1593  0.1998 -0.0126
 1130BOLB   GL327111  27.214  38.581  13.423 -0.2834 -0.1202 -0.2937
 1130BOLB   GL427112  26.988  38.666  13.638  0.1152 -0.0995  0.0187
 1130BOLB   C1C27113  27.253  38.220  13.621  0.2173  0.1030  0.3184
 1130BOLB   C2C27114  27.514  38.114  13.896  0.0779 -0.0077 -0.0027
 1130BOLB   C3C27115  27.774  37.824  14.164 -0.2142  0.0119 -0.0066
 1130BOLB   C4C27116  28.020  37.747  14.445  0.0056  0.2168  0.2857
 1130BOLB   C1D27117  26.768  38.209  13.786 -0.0297 -0.1090 -0.0388
 1130BOLB   C2D27118  26.348  38.219  13.967  0.2325  0.0770 -0.6982
 1130BOLB   C3D27119  25.998  38.011  14.095 -0.2316 -0.1935 -0.0406
 1130BOLB   C4D27120  25.987  37.626  14.103 -0.2625 -0.1481  0.1807
 1131BOLB   NC127121  25.267  35.434  26.625 -0.1156 -0.1056 -0.0677
 1131BOLB   PO127122  25.094  35.800  26.834 -0.1855 -0.1555  0.1755
 1131BOLB   GL127123  24.924  36.212   0.050 -0.0560 -0.3206 -0.2038
 1131BOLB   GL227124  25.120  36.345   0.186 -0.2347  0.2029 -0.1634
 1131BOLB   C1A27125  24.564  36.368   0.247 -0.0450 -0.3571 -0.3405
 1131BOLB   C2A27126  24.457  36.737   0.291 -0.0903 -0.0343 -0.1145
 1131BOLB   C3A27127  24.253  37.180   0.374 -0.0683  0.1678  0.1766
 1131BOLB   C4A27128  23.992  37.512   0.306 -0.1322 -0.1769  0.3618
 1131BOLB   C1B27129  25.318  36.768   0.212  0.0872  0.0919 -0.0695
 1131BOLB   C2B27130  25.291  37.177   0.505 -0.0950  0.2522  0.3291
 1131BOLB   C3B27131  25.368  37.537   0.652 -0.2635  0.1543 -0.1661
 1131BOLB   C4B27132  25.255  37.766   0.810 -0.1376  0.1445  0.1079
 1131BOLB   NC227133  22.288  39.254   0.334 -0.0863  0.2352 -0.1480
 1131BOLB   PO227134  22.365  38.971   0.729 -0.1130  0.0736  0.1912
 1131BOLB   GL327135  22.439  38.551   0.684 -0.2668 -0.0264  0.3440
 1131BOLB   GL427136  22.710  38.388   0.909 -0.1069  0.0593  0.1161
 1131BOLB   C1C27137  22.781  38.342   0.398 -0.2667  0.0836  0.0043
 1131BOLB   C2C27138  23.225  38.221   0.295 -0.0421  0.0936 -0.2052
 1131BOLB   C3C27139  23.585  38.250   0.268  0.2782  0.0810  0.0258
 1131BOLB   C4C27140  23.900  37.931   0.485  0.0789 -0.0057  0.0773
 1131BOLB   C1D27141  22.963  38.032   0.844 -0.1048 -0.1095 -0.4378
 1131BOLB   C2D27142  23.106  37.601   0.741 -0.2331  0.2842  0.0769
 1131BOLB   C3D27143  23.063  37.297   0.486 -0.0216  0.0553 -0.2511
 1131BOLB   C4D27144  22.704  37.271   0.212  0.1999  0.1084  0.0280
 1132BOLB   NC127145  29.359  22.309  24.990 -0.1308  0.5285 -0.0099
 1132BOLB   PO127146  29.568  21.850  25.105  0.3402 -0.1233 -0.0090
 1132BOLB   GL127147  29.667  21.610  25.379  0.1610  0.1464  0.2171
 1132BOLB   GL227148  29.381  21.617  25.504  0.1792  0.1125 -0.0004
 1132BOLB   C1A27149  29.905  21.745  25.810  0.0726  0.4028  0.1692
 1132BOLB   C2A27150  30.204  21.798  26.044  0.3287  0.1639 -0.0538
 1132BOLB   C3A27151  30.299  21.470  26.155  0.0128 -0.0285  0.3025
 1132BOLB   C4A27152  30.516  21.077  26.210  0.4374 -0.0624  0.2583
 1132BOLB   C1B27153  29.627  21.267  25.828 -0.0028  0.3177 -0.2874
 1132BOLB   C2B27154  29.556  20.812  26.009 -0.4314 -0.3191 -0.3277
 1132BOLB   C3B27155  29.566  20.373  25.853  0.3473  0.2316  0.1327
 1132BOLB   C4B27156  29.721  20.135  26.120 -0.4193 -0.3180  0.0061
 1132BOLB   NC227157  32.331  19.474  26.383 -0.0847 -0.0773 -0.1553
 1132BOLB   PO227158  32.573  19.572  26.047  0.2677 -0.0647  0.0800
 1132BOLB   GL327159  32.292  19.859  25.994 -0.1096  0.0152 -0.0725
 1132BOLB   GL427160  32.088  19.618  25.848  0.1056 -0.2316 -0.0957
 1132BOLB   C1C27161  31.967  20.188  25.926 -0.0025  0.0044  0.3282
 1132BOLB   C2C27162  31.532  20.225  26.036 -0.0724  0.3418 -0.0051
 1132BOLB   C3C27163  31.375  20.529  26.337 -0.1453  0.0231 -0.1032
 1132BOLB   C4C27164  30.965  20.908  26.282 -0.1306  0.0586  0.0048
 1132BOLB   C1D27165  32.039  19.835  25.480 -0.0532 -0.0052  0.0118
 1132BOLB   C2D27166  31.924  19.717  25.116  0.0215 -0.0430 -0.0713
 1132BOLB   C3D27167  31.763  19.428  24.858  0.1977  0.0087  0.0602
 1132BOLB   C4D27168  31.468  19.656  24.561  0.3859  0.4104 -0.1510
 1133BOLB   NC127169  24.623  15.576  26.219 -0.1286 -0.1049 -0.0027
 1133BOLB   PO127170  25.072  15.566  26.363 -0.0882  0.0510 -0.1430
 1133BOLB   GL127171  25.070  15.990  26.378  0.3163 -0.4411 -0.0538
 1133BOLB   GL227172  24.853  16.125  26.181  0.2372  0.3188  0.0242
 1133BOLB   C1A27173  25.218  16.430  26.428  0.1217  0.1597  0.1161
 1133BOLB   C2A27174  25.682  16.519  26.595  0.1658  0.2388  0.0346
 1133BOLB   C3A27175  25.817  16.911  26.703 -0.0980 -0.1331 -0.1998
 1133BOLB   C4A27176  25.588  17.241  26.859 -0.3118 -0.2270 -0.1766
 1133BOLB   C1B27177  24.413  16.293  26.263  0.3795 -0.0711 -0.2962
 1133BOLB   C2B27178  24.165  16.632  26.553 -0.0000  0.2231 -0.0738
 1133BOLB   C3B27179  23.872  16.673  26.663  0.0770  0.1898  0.1332
 1133BOLB   C4B27180  23.555  16.987  26.447  0.0074 -0.4263 -0.3704
 1133BOLB   NC227181  24.505  15.877   1.686  0.1717 -0.0203  0.2143
 1133BOLB   PO227182  24.786  16.093   1.227 -0.0661  0.1231  0.1963
 1133BOLB   GL327183  24.912  16.513   1.196  0.2520 -0.1571  0.2389
 1133BOLB   GL427184  25.170  16.622   1.236  0.1253  0.1379  0.1162
 1133BOLB   C1C27185  24.827  16.986   1.178 -0.3156 -0.2594 -0.1131
 1133BOLB   C2C27186  25.097  17.323   0.922  0.0554 -0.3775 -0.2892
 1133BOLB   C3C27187  25.103  17.166   0.476 -0.2750 -0.0747 -0.1408
 1133BOLB   C4C27188  25.293  17.119   0.131  0.2200  0.2833 -0.0151
 1133BOLB   C1D27189  25.443  17.006   1.109  0.1317 -0.1988  0.1157
 1133BOLB   C2D27190  25.697  17.277   0.821  0.2433 -0.2813  0.1784
 1133BOLB   C3D27191  25.367  17.589   0.585  0.0588  0.1520 -0.0209
 1133BOLB   C4D27192  25.023  17.711   0.336 -0.1042  0.6806 -0.3866
 1134BOLB   NC127193  23.818  36.456  21.274  0.1950 -0.2107 -0.0776
 1134BOLB   PO127194  23.522  36.691  21.376  0.1435 -0.0060  0.0421
 1134BOLB   GL127195  23.367  36.932  21.201  0.0528 -0.2791  0.0239
 1134BOLB   GL227196  23.530  37.213  21.141 -0.1139  0.2514 -0.0367
 1134BOLB   C1A27197  23.019  37.290  21.059  0.0933  0.0515  0.0267
 1134BOLB   C2A27198  22.744  37.413  20.737  0.0067 -0.0775 -0.0869
 1134BOLB   C3A27199  22.750  37.649  20.354 -0.0719  0.1260  0.2515
 1134BOLB   C4A27200  22.593  38.067  20.199 -0.0764 -0.2941 -0.2511
 1134BOLB   C1B27201  23.400  37.609  21.097 -0.3056  0.2744  0.2234
 1134BOLB   C2B27202  23.019  37.797  21.016 -0.1861  0.0017 -0.2223
 1134BOLB   C3B27203  22.931  38.242  20.984 -0.0702 -0.0521 -0.1846
 1134BOLB   C4B27204  22.745  38.659  20.898 -0.1911 -0.0595  0.3134
 1134BOLB   NC227205  21.108  39.878  20.796 -0.1573 -0.2666  0.1838
 1134BOLB   PO227206  20.886  39.641  20.568  0.0113  0.2165  0.1725
 1134BOLB   GL327207  21.352  39.459  20.679  0.0982  0.0733 -0.0575
 1134BOLB   GL427208  21.608  39.123  20.770 -0.1549 -0.0172  0.1254
 1134BOLB   C1C27209  21.709  39.410  20.343  0.1274  0.1774  0.3328
 1134BOLB   C2C27210  22.090  39.200  20.524  0.1948  0.2086 -0.0491
 1134BOLB   C3C27211  22.217  38.766  20.579  0.1820  0.0276  0.1332
 1134BOLB   C4C27212  22.431  38.416  20.426 -0.0379  0.2335 -0.0102
 1134BOLB   C1D27213  21.779  38.692  20.762 -0.2190 -0.2064 -0.0246
 1134BOLB   C2D27214  21.915  38.385  20.469  0.1374  0.2300  0.0057
 1134BOLB   C3D27215  22.138  38.027  20.533 -0.1172  0.3080  0.0905
 1134BOLB   C4D27216  22.569  37.866  20.740  0.1421  0.2612  0.0098
 1135BOLB   NC127217  23.759  34.805  15.939  0.1893 -0.0173  0.0277
 1135BOLB   PO127218  23.535  34.758  16.273 -0.1050  0.1253 -0.1460
 1135BOLB   GL127219  23.155  34.795  16.064 -0.1489  0.0787  0.0720
 1135BOLB   GL227220  23.304  34.915  15.779 -0.0579  0.2876  0.0142
 1135BOLB   C1A27221  22.807  34.762  15.844  0.1959  0.0335  0.0601
 1135BOLB   C2A27222  22.365  34.687  15.746 -0.2035  0.0510  0.2734
 1135BOLB   C3A27223  21.951  34.945  15.900  0.0437  0.2492 -0.1318
 1135BOLB   C4A27224  21.793  35.352  15.870 -0.2588  0.2369 -0.1110
 1135BOLB   C1B27225  23.058  35.127  15.559  0.0022  0.3539 -0.0279
 1135BOLB   C2B27226  22.653  35.032  15.448  0.3803  0.1043 -0.2325
 1135BOLB   C3B27227  22.214  35.168  15.409  0.0973  0.1108 -0.0984
 1135BOLB   C4B27228  21.786  35.112  15.307 -0.0220 -0.4191 -0.2384
 1135BOLB   NC227229  20.134  35.876  14.138 -0.2371 -0.1698 -0.1731
 1135BOLB   PO227230  20.394  36.160  14.254 -0.0440  0.0704 -0.1902
 1135BOLB   GL327231  20.613  36.163  14.625  0.2671  0.0993  0.1130
 1135BOLB   GL427232  20.541  36.421  14.932 -0.1894  0.0700 -0.0837
 1135BOLB   C1C27233  20.998  36.121  14.795  0.2127 -0.4352  0.3246
 1135BOLB   C2C27234  21.306  35.874  14.828  0.1024 -0.1060  0.1015
 1135BOLB   C3C27235  21.573  35.639  15.110  0.1338 -0.3238  0.3107
 1135BOLB   C4C27236  21.894  35.561  15.454 -0.0920  0.1016 -0.1798
 1135BOLB   C1D27237  20.460  35.889  15.017 -0.1525  0.0271 -0.2066
 1135BOLB   C2D27238  20.746  35.617  15.182  0.1219 -0.0921  0.0265
 1135BOLB   C3D27239  20.775  35.218  15.503 -0.1590  0.1997  0.1371
 1135BOLB   C4D27240  20.942  34.878  15.607 -0.4718 -0.1320  0.2053
 1136BOLB   NC127241  28.352  37.408   4.536 -0.3066  0.0457  0.2402
 1136BOLB   PO127242  28.154  37.089   4.584  0.2804  0.0134 -0.1244
 1136BOLB   GL127243  28.197  37.008   4.234  0.0001  0.0765 -0.2219
 1136BOLB   GL227244  28.548  37.020   4.236  0.3259  0.4010  0.1330
 1136BOLB   C1A27245  27.954  36.905   3.856  0.2862 -0.0252 -0.1509
 1136BOLB   C2A27246  27.562  36.788   3.547  0.0397  0.1599 -0.3715
 1136BOLB   C3A27247  27.131  36.478   3.514 -0.0324  0.2625 -0.0963
 1136BOLB   C4A27248  27.016  36.039   3.584  0.3284  0.1460  0.1378
 1136BOLB   C1B27249  28.451  36.653   3.970  0.0566  0.2819  0.2092
 1136BOLB   C2B27250  28.189  36.224   4.012 -0.2855 -0.2433  0.1625
 1136BOLB   C3B27251  27.792  36.015   4.117 -0.0363  0.0536  0.3239
 1136BOLB   C4B27252  27.478  36.025   4.440 -0.2171  0.0648  0.0087
 1136BOLB   NC227253  25.792  36.266   5.279  0.1917  0.0854 -0.1667
 1136BOLB   PO227254  25.390  36.093   5.344 -0.4487 -0.2024  0.2852
 1136BOLB   GL327255  25.473  36.020   4.916 -0.0993  0.1306 -0.1850
 1136BOLB   GL427256  25.702  35.762   4.984  0.0420 -0.1338 -0.0326
 1136BOLB   C1C27257  25.865  36.041   4.576 -0.0483 -0.4593  0.1669
 1136BOLB   C2C27258  26.057  35.897   4.173  0.2133  0.2405 -0.2991
 1136BOLB   C3C27259  26.400  35.717   4.005  0.3362  0.1101  0.3354
 1136BOLB   C4C27260  26.750  35.871   3.872 -0.1919  0.2230  0.0733
 1136BOLB   C1D27261  25.503  35.569   4.711  0.0185  0.3202 -0.0397
 1136BOLB   C2D27262  25.591  35.185   4.514 -0.0466  0.1617 -0.2406
 1136BOLB   C3D27263  26.028  35.000   4.383  0.1404 -0.1856  0.0875
 1136BOLB   C4D27264  26.385  35.036   4.057 -0.1309 -0.6065 -0.3595
 1137BOLB   NC127265  28.527  22.105  19.252 -0.0905  0.0125  0.0900
 1137BOLB   PO127266  28.175  21.919  19.412  0.2127 -0.1363 -0.1632
 1137BOLB   GL127267  28.213  21.569  19.093 -0.2361 -0.1451  0.1288
 1137BOLB   GL227268  28.580  21.622  18.900  0.0593 -0.1082 -0.0841
 1137BOLB   C1A27269  28.202  21.178  18.824  0.0288 -0.0746  0.1035
 1137BOLB   C2A27270  28.155  20.761  18.625  0.1468 -0.4429 -0.1430
 1137BOLB   C3A27271  27.817  20.496  18.454 -0.0699  0.2164  0.0895
 1137BOLB   C4A27272  27.677  20.077  18.282 -0.0914  0.0666  0.0494
 1137BOLB   C1B27273  28.688  21.266  18.672  0.1374 -0.2647  0.4271
 1137BOLB   C2B27274  28.921  20.890  18.526  0.2677  0.1080 -0.1311
 1137BOLB   C3B27275  28.868  20.537  18.308 -0.0420  0.0574  0.2110
 1137BOLB   C4B27276  28.759  20.069  18.371  0.0514 -0.0244 -0.0910
 1137BOLB   NC227277  27.487  17.896  15.969  0.4324  0.3137  0.0381
 1137BOLB   PO227278  27.889  18.168  16.322  0.0144  0.0113 -0.3416
 1137BOLB   GL327279  27.839  18.461  16.716 -0.1850  0.0220  0.2519
 1137BOLB   GL427280  27.506  18.580  16.781  0.4267 -0.0315 -0.0462
 1137BOLB   C1C27281  27.948  18.668  17.094  0.0030 -0.2526  0.0150
 1137BOLB   C2C27282  27.831  19.049  17.391  0.3522 -0.0577  0.2280
 1137BOLB   C3C27283  27.717  19.358  17.691  0.0274  0.0710  0.0424
 1137BOLB   C4C27284  27.662  19.713  17.966 -0.0896  0.6496  0.0302
 1137BOLB   C1D27285  27.415  18.655  17.213  0.2101  0.6057  0.0006
 1137BOLB   C2D27286  27.428  18.819  17.621  0.1307  0.0745 -0.1916
 1137BOLB   C3D27287  27.367  19.011  17.974 -0.0323 -0.0985  0.1788
 1137BOLB   C4D27288  27.340  18.865  18.431  0.2015  0.1685 -0.0157
 1138BOLB   NC127289  30.453  35.301   0.170 -0.0246 -0.1086  0.0507
 1138BOLB   PO127290  30.207  35.194   0.460 -0.3301 -0.1367  0.0321
 1138BOLB   GL127291  30.161  35.171   0.975 -0.0802  0.0472 -0.2640
 1138BOLB   GL227292  30.223  35.475   0.953  0.0447  0.1422  0.2374
 1138BOLB   C1A27293  30.107  35.398   1.432 -0.2688 -0.1849 -0.0901
 1138BOLB   C2A27294  30.267  35.756   1.608  0.0141 -0.1689 -0.0431
 1138BOLB   C3A27295  30.342  35.922   1.908  0.2878 -0.1876  0.0674
 1138BOLB   C4A27296  30.581  36.017   2.242  0.2333 -0.1555  0.1098
 1138BOLB   C1B27297  30.502  35.816   1.133  0.0511  0.0195 -0.2964
 1138BOLB   C2B27298  30.593  36.117   1.507 -0.0163  0.0987  0.0313
 1138BOLB   C3B27299  30.578  36.511   1.441  0.0120 -0.2333 -0.0060
 1138BOLB   C4B27300  30.822  36.841   1.427  0.2347 -0.0990 -0.0601
 1138BOLB   NC227301  30.799  36.551   4.162  0.1234  0.2190  0.1570
 1138BOLB   PO227302  31.223  36.844   4.220  0.2133 -0.3321 -0.0231
 1138BOLB   GL327303  31.245  36.624   3.909  0.0525 -0.0748 -0.1210
 1138BOLB   GL427304  31.060  36.382   3.712 -0.1189  0.1918  0.0513
 1138BOLB   C1C27305  31.343  36.664   3.437  0.2487  0.0127 -0.0394
 1138BOLB   C2C27306  31.070  36.535   3.053  0.3710 -0.0207 -0.2441
 1138BOLB   C3C27307  30.811  36.541   2.692  0.0490 -0.1683  0.0885
 1138BOLB   C4C27308  30.828  36.340   2.319  0.0645 -0.0250  0.0032
 1138BOLB   C1D27309  31.071  36.090   3.332  0.0029 -0.0212  0.1320
 1138BOLB   C2D27310  31.059  35.735   3.100 -0.1880  0.0861 -0.0769
 1138BOLB   C3D27311  30.998  35.277   2.904  0.1391 -0.2739  0.1175
 1138BOLB   C4D27312  31.256  35.096   2.593 -0.0311  0.1826 -0.2336
 1139BOLB   NC127313  35.501  27.871  20.573 -0.1362  0.2050  0.0837
 1139BOLB   PO127314  35.704  28.152  20.829  0.0088  0.1763  0.0936
 1139BOLB   GL127315  35.983  28.486  20.973 -0.0614  0.0379  0.1467
 1139BOLB   GL227316  36.122  28.443  21.229 -0.1041 -0.1223 -0.1268
 1139BOLB   C1A27317  36.495  28.666  20.880  0.3621  0.2947  0.0907
 1139BOLB   C2A27318  36.911  28.654  20.806 -0.0757  0.0726  0.1039
 1139BOLB   C3A27319  37.292  28.750  20.959 -0.0954  0.1460 -0.0738
 1139BOLB   C4A27320  37.622  28.961  21.155 -0.4629  0.0277 -0.5412
 1139BOLB   C1B27321  36.448  28.118  20.972  0.1327 -0.1155 -0.1968
 1139BOLB   C2B27322  36.903  28.108  20.706 -0.1030  0.1804 -0.3976
 1139BOLB   C3B27323  37.159  27.908  20.565  0.2451  0.2486  0.2953
 1139BOLB   C4B27324  37.382  28.023  20.205 -0.0771  0.0799 -0.0560
 1139BOLB   NC227325  39.922  28.054  21.390 -0.0317 -0.1726  0.1096
 1139BOLB   PO227326  39.930  28.500  21.521 -0.3617  0.0300 -0.1045
 1139BOLB   GL327327  39.611  28.459  21.268  0.0588  0.2354 -0.1435
 1139BOLB   GL427328  39.629  28.767  21.187 -0.2358  0.3359 -0.0652
 1139BOLB   C1C27329  39.207  28.521  21.439  0.0579  0.1724  0.0460
 1139BOLB   C2C27330  38.770  28.615  21.475  0.2120 -0.2211 -0.0056
 1139BOLB   C3C27331  38.353  28.784  21.352 -0.2244  0.0504  0.2616
 1139BOLB   C4C27332  38.000  28.964  21.281 -0.0506 -0.0912  0.5030
 1139BOLB   C1D27333  39.257  28.719  20.987  0.1652  0.0313 -0.1259
 1139BOLB   C2D27334  38.882  28.513  20.991  0.1567 -0.3952 -0.0864
 1139BOLB   C3D27335  38.460  28.256  21.160 -0.0077  0.2166 -0.0184
 1139BOLB   C4D27336  38.077  27.965  20.917  0.2520 -0.1105 -0.2298
 1140BOLB   NC127337  34.828  33.499  18.596  0.0036  0.1827  0.2543
 1140BOLB   PO127338  34.747  33.894  18.764 -0.0721  0.0187  0.2826
 1140BOLB   GL127339  34.957  34.231  18.631 -0.2169 -0.3700 -0.2473
 1140BOLB   GL227340  34.759  34.493  18.602 -0.0440  0.1471  0.0086
 1140BOLB   C1A27341  35.269  34.506  18.773  0.0202 -0.2304 -0.1041
 1140BOLB   C2A27342  35.673  34.335  18.773  0.1262 -0.3693 -0.0111
 1140BOLB   C3A27343  36.001  34.648  18.549 -0.0006 -0.0474 -0.2123
 1140BOLB   C4A27344  35.929  34.955  18.164 -0.0570 -0.0139  0.0954
 1140BOLB   C1B27345  35.019  34.798  18.456  0.1930  0.0691 -0.1301
 1140BOLB   C2B27346  35.119  35.211  18.525  0.4043 -0.0957 -0.3053
 1140BOLB   C3B27347  35.177  35.457  18.821 -0.0989 -0.0596 -0.3357
 1140BOLB   C4B27348  35.159  35.769  19.139 -0.0961  0.2140  0.2027
 1140BOLB   NC227349  37.193  36.319  17.216  0.0835 -0.0518  0.0366
 1140BOLB   PO227350  37.045  36.586  16.901  0.0086  0.1579  0.1686
 1140BOLB   GL327351  36.605  36.517  16.949  0.2292  0.3432 -0.0581
 1140BOLB   GL427352  36.379  36.756  16.753 -0.2460 -0.3442 -0.1555
 1140BOLB   C1C27353  36.242  36.333  17.115 -0.1376 -0.0123  0.0334
 1140BOLB   C2C27354  36.137  35.996  17.502 -0.1499  0.0535  0.0737
 1140BOLB   C3C27355  35.999  35.847  17.889  0.2698  0.0036  0.0640
 1140BOLB   C4C27356  36.038  35.379  18.094  0.1518 -0.1084 -0.2405
 1140BOLB   C1D27357  36.013  36.546  16.731  0.1690  0.3120 -0.1252
 1140BOLB   C2D27358  35.838  36.144  16.838  0.2531 -0.2311 -0.4422
 1140BOLB   C3D27359  35.907  35.819  17.084  0.2279  0.1649  0.3011
 1140BOLB   C4D27360  35.565  35.673  17.369 -0.3109  0.0000 -0.1939
 1141BOLB   NC127361  34.573  30.017  25.415 -0.2089 -0.0800  0.3252
 1141BOLB   PO127362  34.999  29.841  25.656  0.3332  0.1955 -0.1755
 1141BOLB   GL127363  35.213  30.103  25.989  0.1926 -0.1322  0.0597
 1141BOLB   GL227364  35.031  30.074  26.264 -0.0567 -0.2732 -0.0648
 1141BOLB   C1A27365  35.683  30.323  26.073 -0.0387 -0.0404 -0.0044
 1141BOLB   C2A27366  35.981  30.219  26.273 -0.0055 -0.2810 -0.0059
 1141BOLB   C3A27367  36.327  30.086  26.372  0.1437  0.1240  0.2056
 1141BOLB   C4A27368  36.788  29.926  26.460  0.4081 -0.0660  0.1465
 1141BOLB   C1B27369  35.323  30.168  26.595  0.0271 -0.1709  0.4176
 1141BOLB   C2B27370  35.687  30.188  26.783 -0.0581 -0.2190 -0.2764
 1141BOLB   C3B27371  36.110  30.272  26.746 -0.0945 -0.0762  0.0832
 1141BOLB   C4B27372  36.484  30.252   0.017 -0.3297 -0.1925 -0.0740
 1141BOLB   NC227373  38.762  31.047   0.892 -0.0458  0.0938  0.4037
 1141BOLB   PO227374  38.496  30.646   1.034 -0.0634  0.0650  0.0406
 1141BOLB   GL327375  38.217  30.361   0.831  0.0712 -0.1690 -0.3018
 1141BOLB   GL427376  37.879  30.330   0.976 -0.1358  0.3714 -0.0788
 1141BOLB   C1C27377  37.996  30.245   0.489 -0.0228  0.1917 -0.2381
 1141BOLB   C2C27378  37.624  30.212   0.466  0.1693 -0.3276  0.0157
 1141BOLB   C3C27379  37.385  29.996   0.243 -0.1476 -0.0489 -0.3240
 1141BOLB   C4C27380  37.184  29.925  26.779  0.1352 -0.2191  0.0335
 1141BOLB   C1D27381  37.424  30.250   0.934 -0.1883  0.0195 -0.1988
 1141BOLB   C2D27382  37.033  30.031   0.738  0.3187  0.0625 -0.3749
 1141BOLB   C3D27383  36.653  29.710   0.652 -0.3072  0.1193 -0.3403
 1141BOLB   C4D27384  36.200  29.669   0.556  0.0967  0.0861  0.3832
 1142BOLB   NC127385  24.847  36.410  17.740  0.4070 -0.2532 -0.0863
 1142BOLB   PO127386  25.219  36.717  17.781  0.1257 -0.0361  0.0220
 1142BOLB   GL127387  25.318  37.248  17.936  0.0190  0.1205 -0.2725
 1142BOLB   GL227388  24.998  37.317  17.951 -0.0643 -0.4061  0.1240
 1142BOLB   C1A27389  25.652  37.606  18.075  0.2054  0.0753  0.1392
 1142BOLB   C2A27390  25.618  38.014  18.208 -0.0102 -0.0100 -0.0068
 1142BOLB   C3A27391  25.670  38.390  18.272 -0.0366  0.1202  0.0359
 1142BOLB   C4A27392  25.318  38.607  18.093  0.1312 -0.2205  0.1172
 1142BOLB   C1B27393  24.917  37.421  17.630  0.0897 -0.2691 -0.0142
 1142BOLB   C2B27394  24.815  37.448  17.283 -0.0169 -0.3446 -0.0347
 1142BOLB   C3B27395  24.687  37.817  17.068 -0.0310 -0.2452 -0.5982
 1142BOLB   C4B27396  24.557  38.055  16.777  0.1550  0.1656  0.0608
 1142BOLB   NC227397  24.763  41.008  17.278  0.1885  0.1519 -0.0392
 1142BOLB   PO227398  24.600  40.718  16.950  0.3673  0.1035 -0.1986
 1142BOLB   GL327399  24.881  40.441  17.174 -0.2408 -0.3304 -0.2412
 1142BOLB   GL427400  24.808  40.520  17.466 -0.3324 -0.1122 -0.2695
 1142BOLB   C1C27401  24.982  39.893  17.224 -0.0033  0.3068  0.0569
 1142BOLB   C2C27402  24.902  39.542  17.334  0.0913  0.0394 -0.1556
 1142BOLB   C3C27403  25.086  39.216  17.543 -0.0723 -0.2062 -0.4721
 1142BOLB   C4C27404  25.190  38.937  17.935  0.1169 -0.4426  0.1429
 1142BOLB   C1D27405  24.859  40.112  17.713 -0.1582  0.0874  0.3354
 1142BOLB   C2D27406  25.073  39.726  17.816 -0.0329 -0.1158 -0.1804
 1142BOLB   C3D27407  25.294  39.414  18.086 -0.2232  0.1360  0.4107
 1142BOLB   C4D27408  25.678  39.076  18.180 -0.1440 -0.2128 -0.1292
 1143BOLB   NC127409  34.944  25.271  22.465  0.0357  0.0280 -0.0020
 1143BOLB   PO127410  34.773  25.412  22.138  0.3155 -0.1318 -0.0964
 1143BOLB   GL127411  35.297  25.581  22.336 -0.0341 -0.0541  0.0233
 1143BOLB   GL227412  35.406  25.583  22.531 -0.1831 -0.0193 -0.0605
 1143BOLB   C1A27413  35.594  25.405  22.104  0.0958  0.1467  0.2270
 1143BOLB   C2A27414  35.812  25.136  22.081  0.1730  0.2943  0.2917
 1143BOLB   C3A27415  35.996  24.871  22.268 -0.1738 -0.0618 -0.0161
 1143BOLB   C4A27416  36.305  24.799  22.564  0.1555 -0.1611  0.0861
 1143BOLB   C1B27417  35.699  25.148  22.588  0.1448  0.2007 -0.2128
 1143BOLB   C2B27418  35.904  24.951  22.827 -0.2332 -0.1487 -0.1009
 1143BOLB   C3B27419  36.274  24.799  23.162 -0.0162 -0.1859 -0.0615
 1143BOLB   C4B27420  36.588  24.779  23.485 -0.1437  0.0432 -0.1067
 1143BOLB   NC227421  38.192  23.319  22.001  0.1477  0.1080  0.3249
 1143BOLB   PO227422  38.014  23.092  22.176  0.1548  0.1105 -0.2422
 1143BOLB   GL327423  37.700  23.394  22.342 -0.1094 -0.1463 -0.0560
 1143BOLB   GL427424  37.520  23.119  22.207 -0.1355 -0.2238  0.2055
 1143BOLB   C1C27425  37.354  23.572  22.482  0.0226 -0.0827 -0.2242
 1143BOLB   C2C27426  37.052  23.783  22.776  0.3449  0.3113  0.0740
 1143BOLB   C3C27427  36.884  24.249  22.975  0.0394  0.0242 -0.1754
 1143BOLB   C4C27428  36.652  24.626  22.834  0.0048 -0.0053 -0.1269
 1143BOLB   C1D27429  37.099  23.429  21.999 -0.0551 -0.0175 -0.1280
 1143BOLB   C2D27430  36.876  23.802  22.240 -0.0717  0.1656 -0.2974
 1143BOLB   C3D27431  36.542  23.765  22.449 -0.1104  0.1996  0.1626
 1143BOLB   C4D27432  36.138  23.773  22.400 -0.0995 -0.0533 -0.0395
 1144BOLB   NC127433  26.700  31.138  13.330 -0.1117 -0.3275  0.2894
 1144BOLB   PO127434  26.540  30.732  13.320  0.2912 -0.1599 -0.0682
 1144BOLB   GL127435  26.623  30.501  12.963  0.0184  0.1581 -0.0465
 1144BOLB   GL227436  26.597  30.705  12.785 -0.1464  0.0304  0.1077
 1144BOLB   C1A27437  26.607  30.215  12.659 -0.1074  0.0749  0.2474
 1144BOLB   C2A27438  26.738  30.333  12.308  0.1391 -0.1744 -0.0148
 1144BOLB   C3A27439  26.701  30.705  11.989  0.0874 -0.0329 -0.1883
 1144BOLB   C4A27440  26.677  30.562  11.600  0.0690  0.2968  0.2103
 1144BOLB   C1B27441  26.652  30.806  12.477 -0.1246 -0.0379 -0.0987
 1144BOLB   C2B27442  26.970  30.991  12.313  0.3434 -0.0239  0.1458
 1144BOLB   C3B27443  27.388  31.131  12.271 -0.2446 -0.0485  0.0404
 1144BOLB   C4B27444  27.685  31.510  12.208 -0.1168  0.1958 -0.3385
 1144BOLB   NC227445  26.505  29.855   8.842  0.0382 -0.0961 -0.2289
 1144BOLB   PO227446  26.299  29.931   9.296  0.2449  0.0751  0.1200
 1144BOLB   GL327447  26.418  30.041   9.752 -0.3055  0.1318 -0.0404
 1144BOLB   GL427448  26.460  29.869   9.995 -0.0077  0.0428 -0.1758
 1144BOLB   C1C27449  26.468  30.307  10.067  0.0181 -0.0305  0.1478
 1144BOLB   C2C27450  26.303  30.164  10.488  0.3051  0.1219  0.5087
 1144BOLB   C3C27451  26.373  30.183  10.948  0.1881 -0.0093 -0.4643
 1144BOLB   C4C27452  26.470  30.345  11.315  0.1609  0.0000 -0.0704
 1144BOLB   C1D27453  26.741  29.720  10.370  0.1521 -0.0166 -0.0862
 1144BOLB   C2D27454  26.880  30.017  10.576 -0.1844  0.3147 -0.2500
 1144BOLB   C3D27455  26.848  30.384  10.893 -0.0962  0.0666 -0.2421
 1144BOLB   C4D27456  26.916  30.719  11.203 -0.2667 -0.0488  0.0700
 1145BOLB   NC127457  22.687  23.770  11.984  0.2108  0.0289 -0.3538
 1145BOLB   PO127458  22.814  23.632  12.390 -0.2815 -0.0810  0.1851
 1145BOLB   GL127459  23.123  23.900  12.477 -0.0178  0.2288 -0.0738
 1145BOLB   GL227460  23.510  23.953  12.327 -0.1079 -0.1407  0.1230
 1145BOLB   C1A27461  23.423  24.238  12.718  0.2159 -0.0049  0.4402
 1145BOLB   C2A27462  23.355  24.510  13.101  0.1264  0.0504 -0.2084
 1145BOLB   C3A27463  23.168  24.905  13.149  0.0240 -0.3593  0.0708
 1145BOLB   C4A27464  23.014  25.265  13.404 -0.0205 -0.1059 -0.2185
 1145BOLB   C1B27465  23.910  24.026  12.534 -0.1982 -0.2870 -0.0516
 1145BOLB   C2B27466  23.977  24.188  12.959 -0.2013  0.1421  0.1829
 1145BOLB   C3B27467  23.745  24.243  13.233  0.2206  0.3515  0.1856
 1145BOLB   C4B27468  23.722  24.417  13.594 -0.3782  0.3335  0.1329
 1145BOLB   NC227469  21.931  25.171  11.497  0.3346  0.3211  0.3455
 1145BOLB   PO227470  21.959  25.361  11.846 -0.0649 -0.1798  0.0046
 1145BOLB   GL327471  21.817  25.614  12.232  0.1553  0.2419  0.2299
 1145BOLB   GL427472  21.639  25.471  12.325 -0.1545  0.1962 -0.1878
 1145BOLB   C1C27473  21.910  25.875  12.657 -0.1815  0.2152  0.2643
 1145BOLB   C2C27474  22.238  25.949  12.856 -0.1816  0.2220  0.3079
 1145BOLB   C3C27475  22.511  25.830  13.158  0.2713  0.0674 -0.0903
 1145BOLB   C4C27476  22.898  25.603  13.376  0.1950 -0.0186 -0.2815
 1145BOLB   C1D27477  21.752  25.286  12.774  0.3572  0.0680  0.1998
 1145BOLB   C2D27478  21.686  25.234  13.195 -0.1694  0.1824 -0.0318
 1145BOLB   C3D27479  21.747  25.064  13.696 -0.1480 -0.0431  0.0233
 1145BOLB   C4D27480  22.108  24.962  13.974  0.2891 -0.1815  0.0230
 1146BOLB   NC127481  32.206  32.858   0.898  0.0337  0.0149  0.0056
 1146BOLB   PO127482  32.292  33.083   1.282 -0.2155 -0.0639  0.0120
 1146BOLB   GL127483  32.399  33.293   1.670 -0.0165 -0.1433 -0.0373
 1146BOLB   GL227484  32.349  33.083   1.956  0.3822  0.0542 -0.0040
 1146BOLB   C1A27485  32.521  33.568   1.936 -0.1012  0.2527  0.0447
 1146BOLB   C2A27486  32.706  33.833   2.266  0.0617  0.0091 -0.2371
 1146BOLB   C3A27487  32.614  34.171   2.362 -0.1360 -0.3642  0.0610
 1146BOLB   C4A27488  32.719  34.615   2.474  0.1700 -0.1149  0.1076
 1146BOLB   C1B27489  32.609  33.114   2.472 -0.4465  0.0925 -0.0512
 1146BOLB   C2B27490  32.954  33.233   2.818  0.0135 -0.3926 -0.1405
 1146BOLB   C3B27491  33.186  33.628   3.013 -0.1291  0.3369 -0.0516
 1146BOLB   C4B27492  33.508  33.898   2.895  0.2013  0.0849 -0.3572
 1146BOLB   NC227493  33.316  36.966   3.506  0.0615  0.0252 -0.1491
 1146BOLB   PO227494  33.521  36.763   3.106 -0.0103 -0.2417 -0.2249
 1146BOLB   GL327495  33.614  36.430   3.050  0.0990  0.0061  0.1382
 1146BOLB   GL427496  33.375  36.399   2.767  0.2629 -0.0101 -0.1271
 1146BOLB   C1C27497  33.560  35.953   2.892 -0.0800 -0.2021  0.4911
 1146BOLB   C2C27498  33.321  35.639   2.973  0.0847  0.0443 -0.1585
 1146BOLB   C3C27499  33.042  35.337   2.795  0.0311  0.2894  0.0304
 1146BOLB   C4C27500  32.831  35.030   2.591 -0.4497 -0.1275  0.1202
 1146BOLB   C1D27501  33.082  36.293   2.509  0.1155 -0.0975  0.0970
 1146BOLB   C2D27502  32.688  36.257   2.336  0.0677  0.0122  0.0828
 1146BOLB   C3D27503  32.298  36.254   2.156 -0.0610  0.1807 -0.3548
 1146BOLB   C4D27504  32.006  35.918   2.069  0.0565 -0.0431  0.0469
 1147BOLB   NC127505  28.229  38.056  20.966 -0.0792 -0.2649  0.1857
 1147BOLB   PO127506  28.263  38.170  21.362 -0.2933  0.2857 -0.0613
 1147BOLB   GL127507  28.476  38.480  21.035 -0.1327  0.0414  0.3143
 1147BOLB   GL227508  28.565  38.375  20.673 -0.2236  0.0254  0.1994
 1147BOLB   C1A27509  28.355  38.873  20.942  0.0163 -0.0767 -0.1164
 1147BOLB   C2A27510  28.113  39.274  21.001  0.1093  0.2343  0.1192
 1147BOLB   C3A27511  27.940  39.579  21.331  0.0168  0.1360  0.1339
 1147BOLB   C4A27512  28.031  39.907  21.539 -0.2421 -0.0824  0.0926
 1147BOLB   C1B27513  28.812  38.739  20.765  0.0028 -0.1092  0.2860
 1147BOLB   C2B27514  28.820  39.217  20.766  0.3643  0.0469  0.0317
 1147BOLB   C3B27515  28.979  39.679  20.899 -0.0698  0.1270  0.0549
 1147BOLB   C4B27516  28.940  40.050  21.025 -0.1836 -0.0156  0.1579
 1147BOLB   NC227517  27.117  41.770  22.772  0.3071  0.2590 -0.0675
 1147BOLB   PO227518  27.467  41.958  22.903 -0.2291  0.2219 -0.0748
 1147BOLB   GL327519  27.550  41.618  22.544 -0.0385  0.1260 -0.0900
 1147BOLB   GL427520  27.785  41.313  22.599 -0.2129 -0.2640  0.1441
 1147BOLB   C1C27521  27.413  41.318  22.284 -0.0519 -0.1135  0.1420
 1147BOLB   C2C27522  27.425  40.984  22.095  0.1606  0.0067 -0.0311
 1147BOLB   C3C27523  27.643  40.573  21.961  0.1894 -0.2658  0.1609
 1147BOLB   C4C27524  27.728  40.267  21.677  0.0866 -0.0745 -0.1286
 1147BOLB   C1D27525  27.871  40.992  22.331 -0.1282 -0.4480  0.0925
 1147BOLB   C2D27526  28.097  40.669  22.202  0.1273 -0.0699 -0.1489
 1147BOLB   C3D27527  28.006  40.278  22.097 -0.0017 -0.0391 -0.0579
 1147BOLB   C4D27528  27.974  40.060  22.587 -0.1110 -0.1239 -0.1842
 1148BOLB   NC127529  31.834  23.639  18.144 -0.0934  0.1643  0.0507
 1148BOLB   PO127530  32.056  23.958  18.137 -0.1738  0.2625 -0.1659
 1148BOLB   GL127531  32.421  23.758  17.986 -0.3033 -0.0517  0.0217
 1148BOLB   GL227532  32.537  24.024  17.793 -0.0288  0.0069 -0.0814
 1148BOLB   C1A27533  32.701  23.578  17.846 -0.3898 -0.0187 -0.0689
 1148BOLB   C2A27534  32.970  23.296  17.746 -0.2318  0.1228 -0.0318
 1148BOLB   C3A27535  33.345  23.112  17.621 -0.1282 -0.3514  0.0196
 1148BOLB   C4A27536  33.828  23.137  17.618  0.0786 -0.0157 -0.2012
 1148BOLB   C1B27537  32.910  23.982  17.533 -0.0443 -0.0180  0.0046
 1148BOLB   C2B27538  33.181  23.744  17.284 -0.0505  0.0818 -0.0408
 1148BOLB   C3B27539  33.545  23.479  17.210  0.1577  0.2205 -0.0178
 1148BOLB   C4B27540  33.773  23.369  16.910 -0.2273 -0.1351 -0.1090
 1148BOLB   NC227541  34.586  21.779  15.946 -0.2885  0.0782 -0.1678
 1148BOLB   PO227542  35.014  21.805  16.115 -0.1130 -0.0526  0.0072
 1148BOLB   GL327543  35.039  22.128  16.466 -0.1628  0.0493 -0.0339
 1148BOLB   GL427544  34.642  22.096  16.380  0.1103  0.2275 -0.4102
 1148BOLB   C1C27545  34.790  22.319  16.817 -0.2324  0.0703  0.2015
 1148BOLB   C2C27546  34.396  22.522  16.913 -0.1171 -0.0794 -0.2428
 1148BOLB   C3C27547  34.249  22.816  17.169  0.1964 -0.5110  0.0564
 1148BOLB   C4C27548  34.074  23.007  17.403 -0.1720 -0.2626  0.0534
 1148BOLB   C1D27549  34.500  22.551  16.360 -0.2302  0.1968  0.0220
 1148BOLB   C2D27550  34.119  22.707  16.355 -0.1172 -0.3613  0.3475
 1148BOLB   C3D27551  33.613  22.771  16.450  0.2732 -0.1021 -0.3200
 1148BOLB   C4D27552  33.192  22.911  16.280  0.0103 -0.0711 -0.2303
 1149BOLB   NC127553  19.474  29.927  19.711 -0.3416  0.1628 -0.2753
 1149BOLB   PO127554  19.704  30.069  19.440  0.1974 -0.0300 -0.1144
 1149BOLB   GL127555  19.303  30.190  19.304  0.1262  0.1067  0.1226
 1149BOLB   GL227556  19.269  30.029  19.064 -0.3925 -0.0931  0.1921
 1149BOLB   C1A27557  18.835  30.351  19.204  0.0374  0.2480  0.1257
 1149BOLB   C2A27558  18.496  30.063  18.969 -0.0006  0.2481  0.2051
 1149BOLB   C3A27559  18.117  29.863  18.793  0.2907 -0.3578  0.1019
 1149BOLB   C4A27560  17.884  29.731  18.502  0.2102  0.1977 -0.0725
 1149BOLB   C1B27561  19.049  30.130  18.785  0.1988 -0.0466  0.0276
 1149BOLB   C2B27562  18.731  30.451  18.696  0.2048  0.1627  0.1946
 1149BOLB   C3B27563  18.473  30.700  18.577  0.2336 -0.1243 -0.2358
 1149BOLB   C4B27564  18.203  30.926  18.265  0.4311  0.0082  0.0014
 1149BOLB   NC227565  15.952  28.697  17.460  0.1375  0.1735  0.1193
 1149BOLB   PO227566  15.693  28.858  17.850 -0.6277  0.0228 -0.2309
 1149BOLB   GL327567  16.118  28.812  17.967  0.0452  0.4075  0.0965
 1149BOLB   GL427568  16.245  28.608  17.855 -0.0009 -0.1248  0.1434
 1149BOLB   C1C27569  16.451  29.124  18.024  0.0804 -0.4163 -0.0495
 1149BOLB   C2C27570  16.836  29.309  18.007 -0.0990 -0.2836 -0.3648
 1149BOLB   C3C27571  17.201  29.270  18.243  0.2334  0.1068 -0.0450
 1149BOLB   C4C27572  17.481  29.450  18.526 -0.2671  0.1671  0.0652
 1149BOLB   C1D27573  16.642  28.392  18.037 -0.4019  0.2293 -0.0575
 1149BOLB   C2D27574  16.787  28.357  18.423 -0.1740 -0.1696 -0.0543
 1149BOLB   C3D27575  17.183  28.252  18.556 -0.0273  0.2857 -0.0879
 1149BOLB   C4D27576  17.564  27.970  18.420  0.2694 -0.0238  0.1105
 1150BOLB   NC127577  22.548  35.601  18.668 -0.1781 -0.2099 -0.1802
 1150BOLB   PO127578  22.423  35.181  18.465 -0.1134 -0.0114  0.1246
 1150BOLB   GL127579  22.056  35.401  18.334 -0.0268 -0.0399 -0.1376
 1150BOLB   GL227580  21.889  35.340  18.612 -0.0701 -0.0307  0.1418
 1150BOLB   C1A27581  21.911  35.755  18.153  0.1582  0.3101 -0.1755
 1150BOLB   C2A27582  21.732  36.050  18.000  0.0159  0.1381 -0.1234
 1150BOLB   C3A27583  21.756  36.382  17.832  0.0994 -0.0075 -0.1295
 1150BOLB   C4A27584  21.880  36.657  17.411 -0.1688 -0.0247 -0.2078
 1150BOLB   C1B27585  21.607  35.636  18.611 -0.1594  0.0288 -0.1066
 1150BOLB   C2B27586  21.396  35.903  18.371 -0.2475 -0.4136 -0.0408
 1150BOLB   C3B27587  21.340  36.405  18.209 -0.4121 -0.0292  0.0573
 1150BOLB   C4B27588  21.408  36.842  18.204 -0.0337 -0.0463  0.3456
 1150BOLB   NC227589  21.384  38.633  15.996  0.1042  0.0528 -0.2180
 1150BOLB   PO227590  21.076  38.127  15.956  0.0935  0.0089 -0.1287
 1150BOLB   GL327591  21.112  37.754  16.189 -0.0523  0.1672  0.0368
 1150BOLB   GL427592  20.803  37.737  16.245 -0.1600  0.0508  0.0550
 1150BOLB   C1C27593  21.314  37.394  16.186 -0.0912 -0.0780  0.0715
 1150BOLB   C2C27594  21.609  37.256  16.345  0.2679  0.0441 -0.2753
 1150BOLB   C3C27595  21.975  37.177  16.613 -0.0848 -0.0035 -0.1815
 1150BOLB   C4C27596  21.870  36.925  17.061  0.2938  0.2379  0.0782
 1150BOLB   C1D27597  20.830  37.305  16.269  0.0434  0.0891  0.0646
 1150BOLB   C2D27598  21.060  36.999  16.416 -0.2423 -0.1998 -0.2986
 1150BOLB   C3D27599  21.171  36.559  16.577  0.0048 -0.2888 -0.4008
 1150BOLB   C4D27600  21.440  36.436  16.920  0.3196 -0.1942 -0.2837
 1151BOLB   NC127601  36.000  30.807  22.438 -0.1019 -0.2804 -0.0581
 1151BOLB   PO127602  35.958  31.075  22.139 -0.3393 -0.2321 -0.0845
 1151BOLB   GL127603  36.441  31.026  22.153  0.3505 -0.2193  0.4359
 1151BOLB   GL227604  36.404  30.685  22.143  0.4748  0.0436 -0.3438
 1151BOLB   C1A27605  36.821  30.984  22.195 -0.2289  0.0285 -0.0851
 1151BOLB   C2A27606  37.213  30.982  22.389  0.0136  0.2138  0.1901
 1151BOLB   C3A27607  37.616  31.228  22.578  0.1697  0.0390  0.3575
 1151BOLB   C4A27608  37.719  31.371  22.966 -0.1208  0.1390 -0.2919
 1151BOLB   C1B27609  36.668  30.276  21.948 -0.1136 -0.3516  0.1382
 1151BOLB   C2B27610  37.046  30.062  21.926 -0.0237  0.1725 -0.4355
 1151BOLB   C3B27611  37.474  29.824  21.760 -0.3036  0.2157 -0.2025
 1151BOLB   C4B27612  37.886  29.872  21.791 -0.1466 -0.4002 -0.0153
 1151BOLB   NC227613  40.016  32.343  22.717  0.0383 -0.0105 -0.1753
 1151BOLB   PO227614  39.891  32.379  23.241  0.0493 -0.0166 -0.2473
 1151BOLB   GL327615  39.464  32.355  23.303 -0.2555  0.0370  0.0494
 1151BOLB   GL427616  39.254  32.279  23.591 -0.3428 -0.0750  0.1569
 1151BOLB   C1C27617  39.062  32.365  23.048 -0.3026 -0.1031  0.1750
 1151BOLB   C2C27618  38.668  32.243  22.765  0.0343 -0.2489  0.1904
 1151BOLB   C3C27619  38.436  31.889  22.969  0.2507  0.1091  0.0372
 1151BOLB   C4C27620  38.009  31.677  23.047  0.0410 -0.1517 -0.1283
 1151BOLB   C1D27621  38.839  32.256  23.552 -0.0084 -0.1573 -0.1427
 1151BOLB   C2D27622  38.426  32.109  23.430  0.2018 -0.0506  0.2487
 1151BOLB   C3D27623  38.065  31.969  23.482 -0.1418 -0.2853  0.0957
 1151BOLB   C4D27624  37.689  31.679  23.558 -0.3027 -0.2295  0.2149
 1152BOLB   NC127625  28.690  37.476  24.935  0.0926  0.0751  0.0066
 1152BOLB   PO127626  28.398  37.627  24.564 -0.2616 -0.0346  0.0245
 1152BOLB   GL127627  28.168  38.017  24.620  0.2316 -0.0907  0.0823
 1152BOLB   GL227628  28.169  38.095  25.051  0.2511  0.0831 -0.1111
 1152BOLB   C1A27629  27.939  38.338  24.662  0.0367  0.0822  0.0573
 1152BOLB   C2A27630  27.886  38.807  24.749 -0.2903 -0.3266 -0.1801
 1152BOLB   C3A27631  28.095  39.169  24.872 -0.2648 -0.3715  0.1915
 1152BOLB   C4A27632  28.328  39.569  25.067  0.0343  0.1907 -0.0444
 1152BOLB   C1B27633  28.058  38.496  25.182  0.0506 -0.1681  0.1576
 1152BOLB   C2B27634  28.018  38.953  25.327  0.1629  0.5423  0.2288
 1152BOLB   C3B27635  27.879  39.226  25.568 -0.0908  0.0556 -0.0692
 1152BOLB   C4B27636  27.686  39.541  25.836  0.1520  0.0793 -0.3538
 1152BOLB   NC227637  28.316  41.027  26.919 -0.4407  0.2589  0.0881
 1152BOLB   PO227638  28.357  41.444  26.636 -0.0483 -0.0908  0.1380
 1152BOLB   GL327639  28.382  41.215  26.279  0.1820  0.1032 -0.0953
 1152BOLB   GL427640  28.390  41.243  26.052 -0.0632  0.0537  0.3191
 1152BOLB   C1C27641  28.309  40.714  26.062  0.0610  0.2417 -0.1388
 1152BOLB   C2C27642  28.536  40.381  25.867  0.3213 -0.0904 -0.1026
 1152BOLB   C3C27643  28.607  40.147  25.553 -0.1209  0.3017  0.0994
 1152BOLB   C4C27644  28.429  39.880  25.316  0.4676  0.2788  0.0070
 1152BOLB   C1D27645  28.413  41.064  25.707  0.0732  0.2688  0.1485
 1152BOLB   C2D27646  28.282  40.802  25.429  0.1418 -0.1204 -0.0137
 1152BOLB   C3D27647  28.292  40.377  25.201  0.1144 -0.2530 -0.2021
 1152BOLB   C4D27648  28.068  40.154  24.887 -0.3212 -0.0030 -0.3762
 1153BOLB   NC127649  20.662  28.370  17.080 -0.0819  0.0174  0.1049
 1153BOLB   PO127650  20.649  28.141  16.782 -0.0914 -0.2561 -0.0726
 1153BOLB   GL127651  20.353  27.874  16.724 -0.0389  0.0368 -0.0495
 1153BOLB   GL227652  20.441  27.626  16.516  0.5828 -0.1702  0.0427
 1153BOLB   C1A27653  19.866  27.957  16.574  0.1382  0.2681 -0.0918
 1153BOLB   C2A27654  19.494  28.081  16.799 -0.0971  0.1815 -0.1465
 1153BOLB   C3A27655  19.045  27.987  16.973  0.1720  0.0463  0.1944
 1153BOLB   C4A27656  18.642  27.779  16.962  0.2955  0.0414 -0.2304
 1153BOLB   C1B27657  20.178  27.838  16.183  0.0823  0.1432 -0.0667
 1153BOLB   C2B27658  19.683  27.653  16.230  0.3386  0.0368  0.2397
 1153BOLB   C3B27659  19.492  27.238  16.071 -0.1493  0.2021  0.0487
 1153BOLB   C4B27660  19.285  26.864  16.323  0.0255 -0.0449  0.1387
 1153BOLB   NC227661  16.439  27.051  16.212 -0.1744 -0.2588 -0.2379
 1153BOLB   PO227662  16.684  27.369  16.262 -0.1252  0.4245  0.1013
 1153BOLB   GL327663  16.731  27.306  16.685 -0.1364  0.3448  0.4276
 1153BOLB   GL427664  16.495  27.324  16.814  0.1927  0.1399 -0.1800
 1153BOLB   C1C27665  17.018  27.473  17.037 -0.1174  0.3050  0.2891
 1153BOLB   C2C27666  17.463  27.573  16.965 -0.0363  0.2175 -0.2275
 1153BOLB   C3C27667  17.851  27.482  17.073 -0.1497 -0.1971 -0.0014
 1153BOLB   C4C27668  18.267  27.560  16.885 -0.1431 -0.0519 -0.0254
 1153BOLB   C1D27669  16.434  27.333  17.305 -0.0358 -0.3643  0.0441
 1153BOLB   C2D27670  16.399  27.385  17.734 -0.0365  0.0647  0.0372
 1153BOLB   C3D27671  16.475  27.483  18.189  0.2438 -0.1782  0.0293
 1153BOLB   C4D27672  16.592  27.918  18.470  0.0097  0.1889 -0.1452
 1154BOLB   NC127673  28.320  35.616   0.742  0.0749 -0.0197  0.1932
 1154BOLB   PO127674  27.927  35.638   1.027 -0.3751 -0.1049  0.1044
 1154BOLB   GL127675  28.463  35.668   1.274 -0.3802 -0.0911 -0.0191
 1154BOLB   GL227676  28.847  35.726   1.415  0.0599  0.0054 -0.3294
 1154BOLB   C1A27677  28.486  35.594   1.729  0.3656 -0.2697  0.2214
 1154BOLB   C2A27678  28.765  35.608   2.015 -0.1814  0.0924 -0.1626
 1154BOLB   C3A27679  28.949  35.884   2.207 -0.2391  0.3812 -0.3446
 1154BOLB   C4A27680  29.051  36.321   2.377 -0.3108 -0.0953  0.0575
 1154BOLB   C1B27681  29.014  35.972   1.703  0.0291 -0.3905  0.2463
 1154BOLB   C2B27682  28.906  36.449   1.921  0.0120  0.1167 -0.0202
 1154BOLB   C3B27683  29.211  36.745   2.022 -0.3033  0.1528 -0.0500
 1154BOLB   C4B27684  29.458  37.041   2.012 -0.0570  0.0136  0.0064
 1154BOLB   NC227685  29.344  38.250   3.902  0.0024 -0.0437  0.3713
 1154BOLB   PO227686  29.022  38.516   3.662 -0.2871  0.0156  0.0257
 1154BOLB   GL327687  29.368  38.200   3.375 -0.0696 -0.1160  0.0238
 1154BOLB   GL427688  29.482  38.407   3.200 -0.1694  0.1737 -0.0696
 1154BOLB   C1C27689  29.352  37.941   3.028 -0.0663  0.3611  0.0626
 1154BOLB   C2C27690  29.232  37.675   2.609  0.0174  0.0125  0.0795
 1154BOLB   C3C27691  29.201  37.262   2.449 -0.1390 -0.1378  0.1675
 1154BOLB   C4C27692  29.180  36.760   2.540 -0.2229  0.6017 -0.2005
 1154BOLB   C1D27693  29.751  38.275   2.878 -0.0095  0.0609 -0.1125
 1154BOLB   C2D27694  30.070  38.224   2.520  0.2928 -0.1846 -0.3806
 1154BOLB   C3D27695  30.130  38.166   2.065 -0.4745 -0.0249  0.0333
 1154BOLB   C4D27696  30.212  38.451   1.748 -0.0983 -0.1540  0.4415
 1155BOLB   NC127697  34.561  26.823  24.531 -0.1831 -0.2807 -0.5879
 1155BOLB   PO127698  34.326  26.812  24.939  0.0741  0.2744 -0.0831
 1155BOLB   GL127699  34.737  26.723  25.170 -0.2292 -0.0785  0.1575
 1155BOLB   GL227700  34.807  26.409  25.278  0.0360  0.5152  0.0559
 1155BOLB   C1A27701  35.044  26.891  25.420  0.0859 -0.1047  0.0421
 1155BOLB   C2A27702  35.453  26.847  25.515  0.1662  0.3266 -0.1013
 1155BOLB   C3A27703  35.733  26.821  25.629 -0.2764  0.0153  0.1553
 1155BOLB   C4A27704  35.960  26.429  25.696  0.2001  0.4088  0.3053
 1155BOLB   C1B27705  35.091  26.352  25.708  0.0791  0.2370  0.1693
 1155BOLB   C2B27706  35.108  26.320  26.166  0.2208  0.0752 -0.1912
 1155BOLB   C3B27707  35.265  26.129  26.563  0.1223 -0.2856 -0.2315
 1155BOLB   C4B27708  35.613  25.934  26.736  0.0434  0.1616 -0.0734
 1155BOLB   NC227709  37.469  24.759  26.894  0.0654  0.5713 -0.1026
 1155BOLB   PO227710  37.347  25.242   0.197 -0.0112  0.0263 -0.1046
 1155BOLB   GL327711  37.051  25.518   0.133  0.2305  0.1624  0.3118
 1155BOLB   GL427712  37.256  25.656  26.858 -0.1512  0.0594 -0.6080
 1155BOLB   C1C27713  36.658  25.730  26.882 -0.1722 -0.1394 -0.0724
 1155BOLB   C2C27714  36.571  26.152  26.648 -0.4525  0.2306  0.0421
 1155BOLB   C3C27715  36.427  26.273  26.256 -0.1839 -0.0195  0.1062
 1155BOLB   C4C27716  36.306  26.291  25.917 -0.1055 -0.1187  0.4795
 1155BOLB   C1D27717  37.057  26.081  26.858  0.0054  0.2774 -0.1855
 1155BOLB   C2D27718  36.915  26.413  26.463 -0.0641 -0.3458 -0.2596
 1155BOLB   C3D27719  36.753  26.703  26.171  0.1765 -0.0394 -0.0185
 1155BOLB   C4D27720  37.046  27.041  26.058  0.3015  0.0599  0.1514
 1156BOLB   NC127721  35.817  27.723  23.172  0.0558 -0.1051  0.0626
 1156BOLB   PO127722  35.616  27.289  23.256  0.0234 -0.1471 -0.1709
 1156BOLB   GL127723  36.072  27.256  23.226 -0.3477  0.0400 -0.3120
 1156BOLB   GL227724  36.121  27.471  23.464 -0.0336 -0.1267 -0.1679
 1156BOLB   C1A27725  36.444  27.148  23.334 -0.0492  0.0647 -0.4309
 1156BOLB   C2A27726  36.891  27.054  23.326 -0.0749 -0.3955 -0.1219
 1156BOLB   C3A27727  37.169  26.810  23.558 -0.0107 -0.0226  0.1615
 1156BOLB   C4A27728  37.421  26.755  23.942 -0.0781 -0.0150  0.1537
 1156BOLB   C1B27729  36.566  27.467  23.715 -0.0659 -0.2468  0.3071
 1156BOLB   C2B27730  37.020  27.571  23.474 -0.0598  0.2619  0.0524
 1156BOLB   C3B27731  37.359  27.276  23.547  0.1833 -0.0061  0.0175
 1156BOLB   C4B27732  37.687  27.153  23.806 -0.0980 -0.0152  0.0141
 1156BOLB   NC227733  39.676  26.917  25.513  0.1943  0.0743  0.1556
 1156BOLB   PO227734  39.276  26.990  25.284 -0.1105 -0.3263  0.1129
 1156BOLB   GL327735  38.864  27.013  25.177  0.0509  0.1036 -0.0931
 1156BOLB   GL427736  38.841  27.252  25.390  0.2385 -0.0920 -0.0583
 1156BOLB   C1C27737  38.583  26.701  25.050  0.1971  0.0345 -0.1124
 1156BOLB   C2C27738  38.286  26.806  24.847  0.2420 -0.1895  0.1346
 1156BOLB   C3C27739  37.902  26.850  24.644 -0.6316 -0.1331 -0.0661
 1156BOLB   C4C27740  37.696  26.867  24.292 -0.2636  0.3538  0.0043
 1156BOLB   C1D27741  38.399  27.117  25.361  0.0095 -0.2301 -0.1431
 1156BOLB   C2D27742  38.095  26.961  25.637  0.1830 -0.0852 -0.2624
 1156BOLB   C3D27743  38.020  27.027  26.128  0.0939  0.1940 -0.1037
 1156BOLB   C4D27744  37.877  26.678  26.415  0.1029 -0.2768 -0.1461
 1157BOLB   NC127745  34.388  31.199  16.793 -0.1798  0.1033 -0.1900
 1157BOLB   PO127746  34.808  31.304  16.874 -0.0164 -0.0078 -0.4988
 1157BOLB   GL127747  35.049  31.447  16.594  0.2578  0.1060  0.0368
 1157BOLB   GL227748  35.205  31.122  16.546 -0.0817 -0.0129 -0.4092
 1157BOLB   C1A27749  35.374  31.785  16.533  0.0143 -0.2544  0.1730
 1157BOLB   C2A27750  35.627  31.953  16.186 -0.2666 -0.4257 -0.2280
 1157BOLB   C3A27751  35.986  32.113  16.123 -0.1209  0.1695 -0.4841
 1157BOLB   C4A27752  36.088  32.138  15.692 -0.1429  0.0776 -0.1860
 1157BOLB   C1B27753  35.396  31.371  16.231  0.1085  0.0372  0.1045
 1157BOLB   C2B27754  35.698  31.376  15.988  0.0667 -0.1034  0.1063
 1157BOLB   C3B27755  35.949  31.647  15.728 -0.2902  0.2839  0.3640
 1157BOLB   C4B27756  36.331  31.616  15.592 -0.3022  0.0758 -0.2546
 1157BOLB   NC227757  37.625  32.306  14.733 -0.0936 -0.1089  0.1371
 1157BOLB   PO227758  37.469  32.450  14.311 -0.2507 -0.1646  0.0891
 1157BOLB   GL327759  37.119  32.189  14.352  0.3002  0.1228 -0.1815
 1157BOLB   GL427760  37.118  32.060  14.617 -0.1546 -0.1234  0.1464
 1157BOLB   C1C27761  36.660  32.374  14.428  0.1482  0.3053  0.0090
 1157BOLB   C2C27762  36.262  32.349  14.634 -0.2046  0.0971  0.2036
 1157BOLB   C3C27763  36.360  32.553  14.981  0.0219  0.1060 -0.1464
 1157BOLB   C4C27764  36.044  32.443  15.417  0.1628  0.0234 -0.2189
 1157BOLB   C1D27765  37.015  31.718  14.592 -0.1828 -0.3278  0.0335
 1157BOLB   C2D27766  36.758  31.398  14.686 -0.0163 -0.2210  0.0359
 1157BOLB   C3D27767  36.416  31.152  14.573 -0.0935  0.3792 -0.3103
 1157BOLB   C4D27768  36.063  31.196  14.318 -0.0367  0.1804 -0.1498
 1158BOLB   NC127769  29.089  21.360  22.273  0.2554  0.1010 -0.0583
 1158BOLB   PO127770  28.681  21.445  22.460 -0.0524 -0.1051 -0.3062
 1158BOLB   GL127771  28.699  21.044  22.550  0.0408  0.0819 -0.1280
 1158BOLB   GL227772  28.488  20.756  22.420  0.1366 -0.0251  0.2917
 1158BOLB   C1A27773  28.930  20.524  22.556  0.0375  0.1172 -0.0243
 1158BOLB   C2A27774  29.183  20.105  22.718 -0.0992 -0.1025  0.2940
 1158BOLB   C3A27775  29.658  20.040  22.651 -0.1659 -0.0014  0.1471
 1158BOLB   C4A27776  29.985  19.826  22.534  0.0690 -0.2129  0.2618
 1158BOLB   C1B27777  28.320  20.266  22.442  0.0043 -0.3899  0.1733
 1158BOLB   C2B27778  28.321  19.821  22.456 -0.0561  0.0995 -0.0352
 1158BOLB   C3B27779  28.031  19.566  22.571  0.0469 -0.0184 -0.3514
 1158BOLB   C4B27780  27.950  19.227  22.977  0.2149 -0.5315 -0.1066
 1158BOLB   NC227781  31.185  16.959  22.041 -0.0110 -0.3185  0.0581
 1158BOLB   PO227782  31.191  17.483  22.091  0.0821  0.0070 -0.0749
 1158BOLB   GL327783  31.015  17.884  22.013  0.1409 -0.0457  0.4290
 1158BOLB   GL427784  31.295  18.105  21.941 -0.1724  0.1800  0.1018
 1158BOLB   C1C27785  30.820  18.341  22.193 -0.1429 -0.1731  0.5638
 1158BOLB   C2C27786  30.658  18.795  22.248  0.0347  0.0789  0.0338
 1158BOLB   C3C27787  30.523  19.171  22.324  0.2428 -0.0551 -0.1195
 1158BOLB   C4C27788  30.307  19.585  22.391  0.1928  0.3214 -0.0358
 1158BOLB   C1D27789  31.311  18.557  22.028 -0.0112 -0.0310  0.0715
 1158BOLB   C2D27790  31.112  18.928  22.220  0.1027 -0.1974  0.0328
 1158BOLB   C3D27791  30.920  19.002  22.704 -0.0490 -0.0223 -0.1922
 1158BOLB   C4D27792  31.037  18.767  23.041 -0.0922  0.0553  0.0645
 1159BOLB   NC127793  20.660  31.100  18.059  0.2006  0.1434  0.1184
 1159BOLB   PO127794  20.270  30.975  18.032 -0.0576 -0.0408  0.0366
 1159BOLB   GL127795  20.069  30.953  17.615 -0.1239  0.2007  0.5630
 1159BOLB   GL227796  19.883  30.564  17.471 -0.1769 -0.0029 -0.1405
 1159BOLB   C1A27797  19.673  31.022  17.353  0.0139 -0.0529 -0.0754
 1159BOLB   C2A27798  19.253  30.866  17.239  0.2227  0.0259 -0.1225
 1159BOLB   C3A27799  19.093  30.463  17.135 -0.1126  0.2645  0.0136
 1159BOLB   C4A27800  19.007  30.029  17.121 -0.0964 -0.3086  0.0533
 1159BOLB   C1B27801  19.689  30.170  17.303 -0.1760 -0.0390 -0.1165
 1159BOLB   C2B27802  19.487  30.196  16.914  0.0866 -0.0426 -0.0946
 1159BOLB   C3B27803  19.300  30.329  16.594 -0.2051 -0.0148  0.0771
 1159BOLB   C4B27804  18.881  30.551  16.669  0.1548 -0.0221  0.2643
 1159BOLB   NC227805  17.152  29.467  15.732  0.0843 -0.2815  0.2237
 1159BOLB   PO227806  16.885  29.294  16.072 -0.0996  0.2386  0.3182
 1159BOLB   GL327807  17.227  29.310  16.396 -0.5255  0.1665 -0.3427
 1159BOLB   GL427808  17.119  29.197  16.691  0.0547 -0.2359  0.1964
 1159BOLB   C1C27809  17.718  29.255  16.712 -0.0305 -0.2256  0.0692
 1159BOLB   C2C27810  18.020  29.352  17.006 -0.1920  0.1266 -0.2906
 1159BOLB   C3C27811  18.417  29.339  17.140  0.2692 -0.1704 -0.1228
 1159BOLB   C4C27812  18.614  29.759  17.169  0.1818 -0.1584 -0.0934
 1159BOLB   C1D27813  17.236  29.537  16.956 -0.2090  0.0294  0.1859
 1159BOLB   C2D27814  17.410  29.842  17.109 -0.0113  0.0280  0.0151
 1159BOLB   C3D27815  17.741  29.958  17.173  0.0406  0.3834  0.2055
 1159BOLB   C4D27816  17.815  30.441  17.211  0.0127  0.0217 -0.2524
 1160BOLB   NC127817  26.487  28.732  13.546  0.1876 -0.2077  0.3535
 1160BOLB   PO127818  26.541  29.257  13.747  0.1642  0.0018  0.2986
 1160BOLB   GL127819  26.714  29.454  13.347  0.1213 -0.1332  0.1529
 1160BOLB   GL227820  26.506  29.663  13.123  0.0656  0.5232 -0.0942
 1160BOLB   C1A27821  26.824  29.350  12.851 -0.0425  0.2192  0.2062
 1160BOLB   C2A27822  26.801  29.382  12.398 -0.3079 -0.2592  0.2816
 1160BOLB   C3A27823  26.537  29.127  12.144 -0.0572  0.4133  0.0743
 1160BOLB   C4A27824  26.640  28.921  11.747 -0.0856 -0.0059 -0.0612
 1160BOLB   C1B27825  26.576  29.717  12.654 -0.0285 -0.0526 -0.1165
 1160BOLB   C2B27826  26.443  29.819  12.213 -0.0274 -0.3183  0.2158
 1160BOLB   C3B27827  26.344  29.485  11.838 -0.0709  0.0552  0.0997
 1160BOLB   C4B27828  25.982  29.661  11.597 -0.3488 -0.1163 -0.0513
 1160BOLB   NC227829  25.794  29.214   9.246 -0.1281 -0.0297 -0.1310
 1160BOLB   PO227830  25.704  28.748   9.443  0.3405  0.3198 -0.0571
 1160BOLB   GL327831  25.575  28.703  10.040 -0.2441  0.0932  0.3409
 1160BOLB   GL427832  25.325  28.922  10.166 -0.2934 -0.3000  0.2110
 1160BOLB   C1C27833  25.907  28.562  10.425 -0.3533 -0.0879  0.0711
 1160BOLB   C2C27834  26.045  28.655  10.781 -0.1171  0.0496 -0.1461
 1160BOLB   C3C27835  26.293  28.702  11.008  0.0244 -0.4353 -0.0624
 1160BOLB   C4C27836  26.503  28.836  11.275 -0.0812 -0.0162 -0.2189
 1160BOLB   C1D27837  25.509  28.830  10.579  0.1644 -0.1541 -0.0626
 1160BOLB   C2D27838  25.599  28.907  10.911  0.2781  0.2973  0.0176
 1160BOLB   C3D27839  25.796  28.925  11.220  0.3192  0.2325  0.2478
 1160BOLB   C4D27840  26.129  29.033  11.479  0.3086  0.0058  0.3565
 1161BOLB   NC127841  30.604  36.167  25.174 -0.0210  0.0041  0.4417
 1161BOLB   PO127842  30.983  36.112  25.384 -0.1371 -0.0634  0.3286
 1161BOLB   GL127843  31.015  36.590  25.476  0.0269  0.2603  0.1374
 1161BOLB   GL227844  30.875  36.839  25.448  0.0255 -0.1155  0.3350
 1161BOLB   C1A27845  31.347  36.883  25.657 -0.0068  0.0807 -0.1618
 1161BOLB   C2A27846  31.487  37.286  25.613  0.2800  0.2359  0.1125
 1161BOLB   C3A27847  31.755  37.728  25.528 -0.0599 -0.0427 -0.0202
 1161BOLB   C4A27848  31.953  38.056  25.781 -0.2107 -0.0352 -0.0812
 1161BOLB   C1B27849  31.003  37.249  25.569 -0.0993  0.0947 -0.2701
 1161BOLB   C2B27850  31.078  37.727  25.495  0.1203  0.1086  0.2347
 1161BOLB   C3B27851  31.099  38.257  25.542  0.1830 -0.2707 -0.0212
 1161BOLB   C4B27852  31.414  38.449  25.717 -0.0155 -0.0121  0.2681
 1161BOLB   NC227853  33.343  39.368   0.877 -0.0175 -0.1791  0.0699
 1161BOLB   PO227854  33.391  39.381   0.415 -0.1329 -0.1705  0.2215
 1161BOLB   GL327855  32.980  39.371   0.205  0.0472  0.1845  0.0863
 1161BOLB   GL427856  32.914  39.013   0.347  0.0827 -0.0227 -0.0582
 1161BOLB   C1C27857  32.778  39.168  26.721  0.1306 -0.2427  0.0157
 1161BOLB   C2C27858  32.459  39.125  26.413 -0.0262  0.0168  0.3215
 1161BOLB   C3C27859  32.299  38.715  26.169  0.1407  0.0620 -0.2944
 1161BOLB   C4C27860  31.962  38.460  25.871 -0.0036 -0.4065  0.2704
 1161BOLB   C1D27861  32.534  38.844   0.125 -0.0539  0.1844 -0.2133
 1161BOLB   C2D27862  32.377  38.473  26.768 -0.0614  0.2309 -0.0348
 1161BOLB   C3D27863  32.145  38.374  26.500  0.0870  0.0157  0.0322
 1161BOLB   C4D27864  32.233  38.013  26.184 -0.2845 -0.2869 -0.1553
 1162BOLB   NC127865  31.717  23.938  18.972  0.0007 -0.0644  0.1906
 1162BOLB   PO127866  31.690  23.730  18.614  0.0838 -0.0272 -0.5868
 1162BOLB   GL127867  31.770  23.371  18.524 -0.0417  0.1120 -0.1346
 1162BOLB   GL227868  31.483  23.242  18.447 -0.2473 -0.0958  0.0823
 1162BOLB   C1A27869  31.962  23.054  18.341  0.4259  0.1267 -0.0972
 1162BOLB   C2A27870  32.118  22.668  18.140  0.1619 -0.1064 -0.2238
 1162BOLB   C3A27871  32.216  22.309  17.949 -0.0731  0.1470  0.2031
 1162BOLB   C4A27872  32.367  21.991  17.846 -0.2798  0.3312 -0.2626
 1162BOLB   C1B27873  31.398  22.762  18.514  0.1152  0.1229  0.1346
 1162BOLB   C2B27874  31.819  22.520  18.488 -0.0553  0.1132  0.2638
 1162BOLB   C3B27875  32.148  22.113  18.433  0.1076 -0.0911 -0.0389
 1162BOLB   C4B27876  32.155  21.723  18.591  0.0286 -0.1227 -0.3213
 1162BOLB   NC227877  33.805  20.189  16.110  0.0342  0.0361 -0.0456
 1162BOLB   PO227878  33.680  20.207  16.466 -0.1141  0.1615  0.1535
 1162BOLB   GL327879  33.515  20.656  16.554 -0.0861  0.1076 -0.1115
 1162BOLB   GL427880  33.286  20.784  16.336  0.0327 -0.1036  0.1138
 1162BOLB   C1C27881  33.368  20.864  16.939 -0.3965 -0.2339  0.0419
 1162BOLB   C2C27882  33.205  21.178  17.250  0.2209 -0.0025 -0.1081
 1162BOLB   C3C27883  32.852  21.384  17.479 -0.1061  0.2523  0.2000
 1162BOLB   C4C27884  32.473  21.542  17.640  0.0644  0.0110 -0.0143
 1162BOLB   C1D27885  33.192  21.181  16.161  0.2542 -0.0224 -0.0761
 1162BOLB   C2D27886  33.168  21.535  16.209  0.0469 -0.0444 -0.1996
 1162BOLB   C3D27887  33.225  21.865  16.523  0.0857  0.1910  0.0608
 1162BOLB   C4D27888  33.100  22.111  16.829 -0.1172 -0.0556 -0.0224
 1163BOLB   NC127889  26.898  29.326   3.035 -0.0846 -0.1027  0.0390
 1163BOLB   PO127890  26.641  29.578   2.823  0.0328 -0.2224  0.0044
 1163BOLB   GL127891  26.739  29.779   3.221  0.1081  0.0064 -0.0926
 1163BOLB   GL227892  26.539  29.646   3.496 -0.0705  0.2910  0.0956
 1163BOLB   C1A27893  26.909  29.936   3.641  0.1117 -0.1602 -0.0316
 1163BOLB   C2A27894  26.863  29.966   4.064 -0.0363  0.2462  0.0381
 1163BOLB   C3A27895  26.719  29.884   4.418  0.0789  0.1781 -0.1875
 1163BOLB   C4A27896  26.509  29.638   4.831  0.0587 -0.1560  0.0391
 1163BOLB   C1B27897  26.786  29.426   3.746  0.0417  0.0836  0.0233
 1163BOLB   C2B27898  26.808  29.047   3.994  0.1988  0.0235  0.2916
 1163BOLB   C3B27899  26.681  28.744   4.196  0.0143  0.4129  0.3369
 1163BOLB   C4B27900  26.250  28.619   4.443  0.0554  0.0595  0.1974
 1163BOLB   NC227901  26.429  30.223   7.277 -0.2274  0.1010  0.2828
 1163BOLB   PO227902  26.839  30.006   7.463 -0.0737  0.2769  0.2290
 1163BOLB   GL327903  26.780  30.049   6.930  0.2550 -0.1729 -0.1724
 1163BOLB   GL427904  27.095  30.192   6.700  0.3258 -0.1441 -0.1286
 1163BOLB   C1C27905  26.777  29.735   6.575  0.0442 -0.0838 -0.0641
 1163BOLB   C2C27906  26.649  29.588   6.151  0.3385 -0.1378  0.1044
 1163BOLB   C3C27907  26.621  29.702   5.680 -0.3711 -0.2197  0.2342
 1163BOLB   C4C27908  26.392  29.572   5.335 -0.1578  0.4144 -0.1926
 1163BOLB   C1D27909  27.144  30.165   6.206 -0.2831  0.1958  0.0703
 1163BOLB   C2D27910  27.481  30.062   5.954  0.4963  0.3033 -0.2672
 1163BOLB   C3D27911  27.557  30.018   5.532 -0.0908 -0.1176 -0.0137
 1163BOLB   C4D27912  27.527  29.685   5.190 -0.0665  0.4254 -0.0685
 1164BOLB   NC127913  32.496  34.792  26.442  0.0202 -0.0229 -0.2739
 1164BOLB   PO127914  32.489  34.471  26.583  0.1318  0.2521  0.0880
 1164BOLB   GL127915  32.761  34.752  26.898  0.1137 -0.0780 -0.1494
 1164BOLB   GL227916  32.616  34.958   0.054  0.0444  0.1594  0.1226
 1164BOLB   C1A27917  33.076  34.929   0.248 -0.0026 -0.2287 -0.1097
 1164BOLB   C2A27918  33.083  35.335   0.538  0.0477  0.0332  0.0118
 1164BOLB   C3A27919  33.185  35.723   0.567  0.3409 -0.2579  0.3689
 1164BOLB   C4A27920  33.289  36.110   0.592 -0.0190 -0.4874 -0.3445
 1164BOLB   C1B27921  32.656  35.267   0.228  0.0053  0.3143 -0.0953
 1164BOLB   C2B27922  32.602  35.637   0.428  0.0824  0.2923 -0.0148
 1164BOLB   C3B27923  32.549  35.791   0.895  0.1216  0.3509 -0.1157
 1164BOLB   C4B27924  32.485  35.760   1.318 -0.1283 -0.4497  0.0430
 1164BOLB   NC227925  34.787  37.857   1.128 -0.3346  0.1117  0.1095
 1164BOLB   PO227926  34.909  37.715   1.576 -0.4900 -0.0300 -0.1149
 1164BOLB   GL327927  34.684  37.404   1.339 -0.0185  0.1011 -0.0265
 1164BOLB   GL427928  34.730  37.082   1.463 -0.2568  0.2139 -0.0366
 1164BOLB   C1C27929  34.346  37.143   1.131 -0.1583 -0.2315 -0.2051
 1164BOLB   C2C27930  33.922  36.822   1.021  0.2150 -0.0066  0.3537
 1164BOLB   C3C27931  33.492  36.725   0.988 -0.0752 -0.2081  0.1951
 1164BOLB   C4C27932  33.225  36.467   0.726  0.0869 -0.3110 -0.1179
 1164BOLB   C1D27933  34.527  36.710   1.221  0.2440 -0.1964 -0.2684
 1164BOLB   C2D27934  34.246  36.387   1.056 -0.1448  0.1018  0.0024
 1164BOLB   C3D27935  34.002  35.954   1.172 -0.2664 -0.0996 -0.1333
 1164BOLB   C4D27936  33.909  35.579   1.142 -0.1656  0.3195  0.1748
 1165BOLB   NC127937  28.704  36.051   0.165 -0.0554  0.0596 -0.2097
 1165BOLB   PO127938  28.449  35.987   0.504 -0.2058 -0.2642 -0.1670
 1165BOLB   GL127939  28.348  36.284   0.732  0.1019  0.3886  0.0043
 1165BOLB   GL227940  28.379  36.093   1.036 -0.0856 -0.1191 -0.2815
 1165BOLB   C1A27941  28.585  36.650   1.011 -0.1522  0.1031 -0.0731
 1165BOLB   C2A27942  28.418  36.964   1.244  0.0485  0.1423  0.1375
 1165BOLB   C3A27943  28.395  37.140   1.613 -0.2610 -0.0414 -0.0569
 1165BOLB   C4A27944  28.325  36.899   1.985 -0.2738 -0.0952 -0.0378
 1165BOLB   C1B27945  28.536  36.157   1.477 -0.0620  0.2151 -0.0931
 1165BOLB   C2B27946  28.551  36.048   1.953  0.4074 -0.2732  0.1202
 1165BOLB   C3B27947  28.396  35.780   2.235  0.2207 -0.0222 -0.1569
 1165BOLB   C4B27948  28.613  35.598   2.509 -0.0602 -0.1442  0.1228
 1165BOLB   NC227949  27.781  37.917   3.905  0.0412  0.3317  0.0622
 1165BOLB   PO227950  27.467  38.168   3.995 -0.3207 -0.0960  0.2726
 1165BOLB   GL327951  27.506  38.109   3.541 -0.1724 -0.2323  0.0101
 1165BOLB   GL427952  27.605  38.325   3.296  0.0492 -0.0292 -0.1628
 1165BOLB   C1C27953  27.784  37.840   3.314 -0.3044  0.1553  0.5230
 1165BOLB   C2C27954  27.914  37.518   2.992  0.1539  0.0649  0.2230
 1165BOLB   C3C27955  28.136  37.167   2.885  0.0908 -0.0656  0.1140
 1165BOLB   C4C27956  28.334  36.826   2.558 -0.1892  0.1737  0.2059
 1165BOLB   C1D27957  27.430  37.955   3.001  0.0671 -0.3730  0.1099
 1165BOLB   C2D27958  27.495  37.720   2.633  0.1639 -0.1476  0.2857
 1165BOLB   C3D27959  27.644  37.285   2.519  0.2742  0.0549  0.0178
 1165BOLB   C4D27960  27.915  37.068   2.348  0.1054  0.1962 -0.1668
 1166BOLB   NC127961  30.658  23.740  17.326  0.0374  0.1479 -0.0005
 1166BOLB   PO127962  30.399  23.394  17.181 -0.0431 -0.3023  0.0880
 1166BOLB   GL127963  30.670  23.180  17.029  0.0973 -0.4645  0.2455
 1166BOLB   GL227964  30.466  23.054  16.766  0.0277 -0.1752  0.0157
 1166BOLB   C1A27965  30.904  22.874  16.750  0.0746  0.1468  0.0870
 1166BOLB   C2A27966  30.863  22.669  16.383  0.2128  0.1312  0.1235
 1166BOLB   C3A27967  30.970  22.223  16.249 -0.0266  0.0771  0.2187
 1166BOLB   C4A27968  31.052  21.797  16.066  0.1452  0.0213  0.0482
 1166BOLB   C1B27969  30.203  22.715  16.742  0.2832 -0.3006 -0.3384
 1166BOLB   C2B27970  30.045  22.255  16.739 -0.2212  0.1212  0.0207
 1166BOLB   C3B27971  29.605  22.200  16.416  0.0229  0.1564 -0.0748
 1166BOLB   C4B27972  29.360  21.971  16.146  0.1240 -0.2597  0.1029
 1166BOLB   NC227973  31.782  19.439  16.284  0.2693  0.0427 -0.0714
 1166BOLB   PO227974  31.997  19.777  16.033  0.3420  0.0399 -0.0514
 1166BOLB   GL327975  31.740  19.988  16.267 -0.2979  0.2511  0.1405
 1166BOLB   GL427976  31.950  19.886  16.631 -0.2293 -0.1003 -0.2778
 1166BOLB   C1C27977  31.752  20.443  16.187  0.1676 -0.0643 -0.2550
 1166BOLB   C2C27978  31.654  20.776  16.344  0.0907 -0.3747 -0.1689
 1166BOLB   C3C27979  31.678  21.198  16.307  0.2257 -0.1286 -0.2602
 1166BOLB   C4C27980  31.453  21.535  16.210 -0.0670 -0.2557  0.2671
 1166BOLB   C1D27981  31.645  20.178  16.840  0.0779 -0.0279 -0.2020
 1166BOLB   C2D27982  31.503  20.477  17.112 -0.1808  0.5278  0.2443
 1166BOLB   C3D27983  31.273  20.664  17.400  0.0942  0.1400  0.1293
 1166BOLB   C4D27984  31.342  20.978  17.606  0.1034  0.2261 -0.1761
 1167BOLB   NC127985  32.692  23.791  22.473 -0.2700 -0.0119 -0.0247
 1167BOLB   PO127986  33.120  23.892  22.626  0.0482  0.0850  0.0061
 1167BOLB   GL127987  33.485  23.592  22.709  0.2168  0.0392  0.2056
 1167BOLB   GL227988  33.575  23.580  23.112  0.2073 -0.1557 -0.1016
 1167BOLB   C1A27989  33.645  23.151  22.623  0.2743 -0.4093  0.0599
 1167BOLB   C2A27990  33.629  22.730  22.835 -0.1063 -0.0143  0.4394
 1167BOLB   C3A27991  33.601  22.205  22.799 -0.3789  0.0156 -0.1602
 1167BOLB   C4A27992  33.660  21.883  22.988  0.2289  0.2734 -0.0941
 1167BOLB   C1B27993  33.855  23.271  23.167 -0.1958  0.1843 -0.2849
 1167BOLB   C2B27994  33.998  22.908  23.248 -0.1859  0.0460 -0.1382
 1167BOLB   C3B27995  33.956  22.363  23.049 -0.1326 -0.2106 -0.2480
 1167BOLB   C4B27996  34.211  21.993  23.187  0.1031 -0.5316 -0.1652
 1167BOLB   NC227997  34.265  19.650  24.248 -0.3404 -0.3465 -0.1977
 1167BOLB   PO227998  34.125  19.545  23.727  0.1564 -0.0189 -0.0502
 1167BOLB   GL327999  33.955  19.974  23.734 -0.1625 -0.0568  0.2796
 1167BOLB   GL428000  34.371  20.064  23.898  0.2745 -0.1113 -0.1241
 1167BOLB   C1C28001  33.846  20.367  23.447 -0.0808  0.2066 -0.1967
 1167BOLB   C2C28002  33.628  20.751  23.380  0.2362 -0.1365 -0.0053
 1167BOLB   C3C28003  33.401  21.161  23.295 -0.0417 -0.2022 -0.0726
 1167BOLB   C4C28004  33.600  21.570  23.209  0.0183  0.0042 -0.1355
 1167BOLB   C1D28005  34.280  20.420  23.775 -0.1725 -0.1728  0.0913
 1167BOLB   C2D28006  34.183  20.742  23.626 -0.1596  0.0351 -0.0943
 1167BOLB   C3D28007  34.052  21.110  23.383  0.0325  0.3404  0.2118
 1167BOLB   C4D28008  33.871  21.206  23.028 -0.1218  0.1056 -0.2719
 1168BOLB   NC128009  20.487  33.617  23.555 -0.1833  0.0519 -0.0466
 1168BOLB   PO128010  20.684  33.985  23.565  0.1728  0.3072  0.1595
 1168BOLB   GL128011  20.481  34.388  23.679 -0.0554  0.1170 -0.0660
 1168BOLB   GL228012  20.477  34.690  23.494 -0.3166 -0.1075 -0.0824
 1168BOLB   C1A28013  20.180  34.488  23.889 -0.1992  0.0390 -0.0696
 1168BOLB   C2A28014  19.771  34.454  23.986  0.1137 -0.0735 -0.0822
 1168BOLB   C3A28015  19.312  34.728  24.007 -0.1646  0.2780 -0.0037
 1168BOLB   C4A28016  18.988  34.897  24.306  0.1384  0.1558  0.0131
 1168BOLB   C1B28017  20.287  35.183  23.605  0.1132  0.2905  0.1294
 1168BOLB   C2B28018  20.088  35.561  23.754 -0.0059 -0.2350 -0.0782
 1168BOLB   C3B28019  19.676  35.510  23.803 -0.0158 -0.2883  0.1333
 1168BOLB   C4B28020  19.395  35.250  24.076  0.1018  0.1243 -0.0372
 1168BOLB   NC228021  17.846  36.469  25.220  0.1152  0.0277 -0.0143
 1168BOLB   PO228022  17.499  36.321  25.017  0.0362  0.3132 -0.3264
 1168BOLB   GL328023  17.955  35.997  25.034 -0.3292 -0.0362  0.1697
 1168BOLB   GL428024  18.282  36.158  25.121  0.0250 -0.3063  0.1417
 1168BOLB   C1C28025  18.168  35.671  24.926 -0.0062 -0.4030  0.2732
 1168BOLB   C2C28026  18.496  35.480  25.034  0.0245 -0.1828 -0.1198
 1168BOLB   C3C28027  18.733  35.233  25.002 -0.0126  0.5685 -0.4517
 1168BOLB   C4C28028  19.078  35.128  24.699  0.3034 -0.0357 -0.2213
 1168BOLB   C1D28029  18.421  35.913  25.462 -0.1092  0.0311  0.0920
 1168BOLB   C2D28030  18.626  35.694  25.793  0.2881  0.1310 -0.0669
 1168BOLB   C3D28031  18.991  35.560  25.925  0.2051  0.4329  0.0623
 1168BOLB   C4D28032  19.409  35.515  25.840  0.0819  0.0734  0.1111
 1169BOLB   NC128033  24.824  34.269   1.658 -0.1683  0.2465 -0.1295
 1169BOLB   PO128034  24.722  34.550   1.357 -0.1057  0.0407 -0.2036
 1169BOLB   GL128035  24.513  34.705   1.823 -0.1953 -0.0785  0.2117
 1169BOLB   GL228036  24.772  34.818   1.995  0.0008 -0.1731  0.1131
 1169BOLB   C1A28037  24.400  34.585   2.258  0.0965 -0.1722  0.0131
 1169BOLB   C2A28038  24.404  34.947   2.497 -0.0919 -0.1177  0.1009
 1169BOLB   C3A28039  24.409  35.005   2.922  0.1053  0.0848 -0.1561
 1169BOLB   C4A28040  24.459  35.253   3.216 -0.1328  0.0080  0.2449
 1169BOLB   C1B28041  24.397  35.186   2.019 -0.1221  0.0594  0.0594
 1169BOLB   C2B28042  24.389  35.673   2.080  0.2160  0.0468  0.0085
 1169BOLB   C3B28043  24.347  35.987   2.400  0.1562 -0.1902  0.0317
 1169BOLB   C4B28044  24.147  36.074   2.715 -0.0428 -0.5267 -0.5827
 1169BOLB   NC228045  24.717  35.745   5.228  0.1470  0.1229 -0.0453
 1169BOLB   PO228046  24.913  35.318   5.445  0.1679 -0.1239 -0.0261
 1169BOLB   GL328047  24.774  35.298   5.041  0.0126 -0.3356 -0.1325
 1169BOLB   GL428048  24.865  35.612   4.759  0.0033 -0.0905 -0.1198
 1169BOLB   C1C28049  24.572  35.226   4.668 -0.3297  0.2168  0.0333
 1169BOLB   C2C28050  24.656  35.436   4.346 -0.1837 -0.0592  0.1377
 1169BOLB   C3C28051  24.606  35.424   3.964  0.1426  0.2236  0.1985
 1169BOLB   C4C28052  24.601  35.258   3.612 -0.0292 -0.0373 -0.0070
 1169BOLB   C1D28053  24.988  35.997   4.568 -0.5131 -0.4841  0.0405
 1169BOLB   C2D28054  25.027  36.317   4.242 -0.1713  0.1536 -0.0514
 1169BOLB   C3D28055  24.769  36.396   3.839 -0.2095  0.3621 -0.1464
 1169BOLB   C4D28056  24.461  36.588   3.584  0.0906 -0.1506  0.0388
 1170BOLB   NC128057  34.322  31.353  25.962  0.4054  0.0778  0.1222
 1170BOLB   PO128058  34.734  31.097  25.986 -0.3182  0.1540 -0.0195
 1170BOLB   GL128059  35.127  31.113  26.265 -0.2238  0.1588  0.1360
 1170BOLB   GL228060  35.202  31.436  26.363  0.0171  0.1917 -0.1047
 1170BOLB   C1A28061  35.565  31.081  26.452 -0.1921 -0.1925  0.0531
 1170BOLB   C2A28062  35.932  31.099  26.524  0.1595 -0.1879  0.3452
 1170BOLB   C3A28063  36.355  31.279  26.570  0.0469  0.0974 -0.2616
 1170BOLB   C4A28064  36.668  30.948  26.658 -0.0238 -0.2148  0.1216
 1170BOLB   C1B28065  35.550  31.486  26.663  0.0127  0.1591 -0.0864
 1170BOLB   C2B28066  35.709  31.887  26.826  0.0858  0.2438  0.0783
 1170BOLB   C3B28067  36.015  32.109   0.189  0.2395 -0.2540  0.0550
 1170BOLB   C4B28068  35.984  32.458   0.528  0.1216  0.1101 -0.1471
 1170BOLB   NC228069  38.752  31.467   1.237  0.4497 -0.0194  0.1049
 1170BOLB   PO228070  38.494  31.393   1.141  0.1958  0.1591  0.0101
 1170BOLB   GL328071  38.184  31.088   0.918 -0.0087 -0.1410 -0.1031
 1170BOLB   GL428072  38.024  30.890   1.190 -0.0088 -0.2607  0.0390
 1170BOLB   C1C28073  37.958  30.946   0.521 -0.1065 -0.0811  0.2354
 1170BOLB   C2C28074  37.757  30.582   0.151  0.2678 -0.1990 -0.0839
 1170BOLB   C3C28075  37.331  30.468  26.894 -0.3519  0.2135 -0.0841
 1170BOLB   C4C28076  36.861  30.532  26.759  0.2794  0.1053  0.2087
 1170BOLB   C1D28077  37.687  30.808   0.923  0.1787 -0.1958 -0.2563
 1170BOLB   C2D28078  37.514  30.734   0.590  0.3183  0.1831  0.0248
 1170BOLB   C3D28079  37.180  30.446   0.448 -0.2673  0.0077  0.1962
 1170BOLB   C4D28080  36.880  30.168   0.271 -0.1101  0.2785  0.2010
 1171BOLB   NC128081  26.124  32.709   2.570  0.0065 -0.0310  0.0990
 1171BOLB   PO128082  25.824  32.847   2.792  0.2933  0.2695 -0.2357
 1171BOLB   GL128083  25.535  32.902   3.103 -0.0141 -0.0212 -0.3209
 1171BOLB   GL228084  25.245  33.106   3.127  0.4014 -0.0951 -0.1092
 1171BOLB   C1A28085  25.525  32.932   3.633 -0.0976  0.1158 -0.0845
 1171BOLB   C2A28086  25.199  32.742   3.855 -0.0075 -0.0994  0.0559
 1171BOLB   C3A28087  24.715  32.728   4.048 -0.0255  0.1932  0.0631
 1171BOLB   C4A28088  24.517  32.356   4.208 -0.0827 -0.1093  0.3682
 1171BOLB   C1B28089  25.132  33.391   3.415  0.0038  0.3292 -0.0068
 1171BOLB   C2B28090  25.114  33.842   3.523  0.1949  0.0790 -0.1358
 1171BOLB   C3B28091  25.048  34.387   3.520  0.1720 -0.1533 -0.1173
 1171BOLB   C4B28092  25.160  34.605   3.039  0.1593 -0.2106 -0.0370
 1171BOLB   NC228093  23.792  31.578   6.625  0.0980 -0.0158  0.2249
 1171BOLB   PO228094  23.760  31.969   6.458  0.1983 -0.2426  0.1202
 1171BOLB   GL328095  23.877  31.937   6.124 -0.1061  0.3119  0.0584
 1171BOLB   GL428096  23.971  31.581   6.117 -0.3866  0.0277  0.1392
 1171BOLB   C1C28097  24.078  31.987   5.769  0.1984 -0.2109 -0.0866
 1171BOLB   C2C28098  24.000  32.122   5.327 -0.1774 -0.2439 -0.0158
 1171BOLB   C3C28099  24.206  32.160   4.887  0.0591  0.2990 -0.2333
 1171BOLB   C4C28100  24.177  32.315   4.479  0.1130  0.1710 -0.0160
 1171BOLB   C1D28101  24.334  31.196   6.082  0.1819 -0.2616  0.3198
 1171BOLB   C2D28102  24.307  30.768   5.953 -0.0131 -0.1477 -0.1952
 1171BOLB   C3D28103  24.267  30.473   5.627  0.0706  0.0107  0.0561
 1171BOLB   C4D28104  23.932  30.276   5.670  0.0540 -0.2108 -0.0378
 1172BOLB   NC128105  28.156  27.334   2.423 -0.1714 -0.2094 -0.1507
 1172BOLB   PO128106  28.182  27.012   2.672 -0.0189 -0.2698 -0.2022
 1172BOLB   GL128107  28.169  26.804   3.084  0.1618  0.4546  0.2260
 1172BOLB   GL228108  28.490  26.702   3.107  0.0801  0.1247 -0.1122
 1172BOLB   C1A28109  28.090  26.537   3.421  0.0537  0.2893  0.1914
 1172BOLB   C2A28110  27.775  26.563   3.784 -0.1087 -0.1433  0.2001
 1172BOLB   C3A28111  27.821  26.774   4.270 -0.2336 -0.0523 -0.2799
 1172BOLB   C4A28112  27.910  26.904   4.615  0.0366  0.0871 -0.1119
 1172BOLB   C1B28113  28.639  26.487   3.551  0.1650  0.2233  0.1694
 1172BOLB   C2B28114  28.700  26.421   3.917  0.2188  0.0614  0.0280
 1172BOLB   C3B28115  29.021  26.629   4.093 -0.1060 -0.0022 -0.0966
 1172BOLB   C4B28116  29.389  26.614   4.359  0.0414  0.1950  0.1837
 1172BOLB   NC228117  29.662  26.636   6.556 -0.2027 -0.1875  0.1559
 1172BOLB   PO228118  29.526  27.036   6.554  0.0326  0.1186  0.1481
 1172BOLB   GL328119  29.266  26.918   6.219  0.1687  0.1252 -0.1050
 1172BOLB   GL428120  29.375  26.620   6.004  0.4092 -0.0654  0.0406
 1172BOLB   C1C28121  29.002  26.940   5.850  0.0337 -0.1653 -0.1488
 1172BOLB   C2C28122  28.856  26.790   5.439 -0.4519 -0.3971 -0.1744
 1172BOLB   C3C28123  28.604  26.791   5.041 -0.0477  0.3646 -0.5559
 1172BOLB   C4C28124  28.223  26.784   4.898  0.2299 -0.0244 -0.1739
 1172BOLB   C1D28125  29.338  26.635   5.599  0.2750 -0.4910  0.0895
 1172BOLB   C2D28126  29.275  26.849   5.178  0.0837  0.0352 -0.2812
 1172BOLB   C3D28127  29.366  26.950   4.776 -0.1526 -0.1315  0.1363
 1172BOLB   C4D28128  29.733  26.896   4.586  0.1885 -0.0838  0.1216
 1173BOLB   NC128129  27.881  37.852  20.159 -0.1500  0.1295  0.0188
 1173BOLB   PO128130  27.531  37.807  19.777  0.0472  0.0237 -0.1650
 1173BOLB   GL128131  27.524  38.112  19.555 -0.0243 -0.1406  0.1384
 1173BOLB   GL228132  27.913  38.232  19.409 -0.3655 -0.0908  0.1044
 1173BOLB   C1A28133  27.445  38.315  19.140 -0.0505 -0.0515 -0.4551
 1173BOLB   C2A28134  27.646  38.501  18.798  0.0474 -0.0417 -0.0856
 1173BOLB   C3A28135  27.597  38.875  18.399  0.0784  0.0330  0.0466
 1173BOLB   C4A28136  27.717  39.180  18.192 -0.2138  0.2288 -0.2982
 1173BOLB   C1B28137  27.986  38.363  19.130  0.0565  0.0186  0.1329
 1173BOLB   C2B28138  28.371  38.704  19.121  0.2707  0.2395  0.1113
 1173BOLB   C3B28139  28.535  39.074  18.948  0.1254  0.3727  0.1381
 1173BOLB   C4B28140  28.347  39.361  18.888 -0.1460 -0.0982 -0.2978
 1173BOLB   NC228141  28.177  40.886  16.567  0.0943 -0.0794  0.1763
 1173BOLB   PO228142  28.458  40.825  16.771  0.1673 -0.0240 -0.0859
 1173BOLB   GL328143  28.390  40.506  16.998 -0.0337  0.0067 -0.1307
 1173BOLB   GL428144  28.156  40.377  16.919  0.0567 -0.3230 -0.0987
 1173BOLB   C1C28145  28.583  40.195  17.322 -0.0382  0.1934 -0.0154
 1173BOLB   C2C28146  28.355  39.899  17.638  0.5567 -0.2108  0.0038
 1173BOLB   C3C28147  28.104  39.734  17.818  0.0266 -0.6609  0.0399
 1173BOLB   C4C28148  27.813  39.588  18.144 -0.0282 -0.0101 -0.0971
 1173BOLB   C1D28149  27.881  40.301  17.224 -0.2860  0.0049 -0.1051
 1173BOLB   C2D28150  27.696  39.897  17.493  0.1268 -0.0535 -0.2526
 1173BOLB   C3D28151  27.434  39.506  17.723 -0.1406  0.0020  0.2002
 1173BOLB   C4D28152  27.310  39.148  17.988  0.0306  0.0582  0.2952
 1174BOLB   NC128153  32.932  33.731   0.391  0.0863 -0.0478  0.1114
 1174BOLB   PO128154  32.486  33.741   0.485  0.1056  0.0559 -0.0003
 1174BOLB   GL128155  32.766  34.146   0.653 -0.0536  0.1510  0.0557
 1174BOLB   GL228156  32.738  34.469   0.449  0.4048 -0.3174  0.0398
 1174BOLB   C1A28157  33.044  34.255   0.961  0.1779 -0.1226  0.3036
 1174BOLB   C2A28158  33.392  34.619   1.129 -0.0728 -0.3214  0.1519
 1174BOLB   C3A28159  33.561  34.926   1.465 -0.1258 -0.0171  0.0927
 1174BOLB   C4A28160  33.720  35.291   1.561  0.0378  0.2699  0.0219
 1174BOLB   C1B28161  33.149  34.422   0.498  0.1827 -0.1873  0.0347
 1174BOLB   C2B28162  33.602  34.476   0.679 -0.0676 -0.3005 -0.2050
 1174BOLB   C3B28163  33.994  34.626   0.620  0.2501 -0.1543 -0.0349
 1174BOLB   C4B28164  34.375  34.785   0.650 -0.1794 -0.0679 -0.1643
 1174BOLB   NC228165  35.988  37.150   1.622 -0.1900  0.0355  0.0558
 1174BOLB   PO228166  35.513  37.135   1.293 -0.3695 -0.0191 -0.4528
 1174BOLB   GL328167  35.256  36.775   1.177 -0.0659  0.1595  0.1147
 1174BOLB   GL428168  35.386  36.575   1.016  0.0503  0.2861  0.1437
 1174BOLB   C1C28169  34.921  36.421   1.326 -0.0549 -0.1873 -0.0994
 1174BOLB   C2C28170  34.578  36.209   1.431  0.5314 -0.2022  0.0603
 1174BOLB   C3C28171  34.340  35.942   1.606 -0.2594  0.0978  0.1847
 1174BOLB   C4C28172  33.976  35.680   1.633 -0.1772  0.0588 -0.0324
 1174BOLB   C1D28173  35.188  36.187   0.704 -0.2582  0.2843  0.0064
 1174BOLB   C2D28174  34.902  35.830   0.709 -0.1765  0.2274 -0.1628
 1174BOLB   C3D28175  34.676  35.476   0.801 -0.0882  0.0851  0.0208
 1174BOLB   C4D28176  34.708  35.127   1.114  0.1046  0.4928 -0.3728
 1175BOLB   NC128177  26.578  26.330  14.537 -0.0692 -0.0997  0.2904
 1175BOLB   PO128178  26.817  26.615  14.566  0.0728 -0.0342  0.1199
 1175BOLB   GL128179  26.894  26.317  14.180 -0.1749  0.1056  0.1904
 1175BOLB   GL228180  26.737  25.974  14.236 -0.1788 -0.0307  0.0060
 1175BOLB   C1A28181  26.862  26.342  13.745  0.3912  0.3105  0.2140
 1175BOLB   C2A28182  27.104  26.489  13.340 -0.1693 -0.3784  0.2375
 1175BOLB   C3A28183  27.227  26.182  12.993 -0.0591  0.1736  0.0720
 1175BOLB   C4A28184  27.201  26.133  12.574  0.1990 -0.1831 -0.1424
 1175BOLB   C1B28185  27.097  25.917  13.925  0.1375  0.0526  0.0817
 1175BOLB   C2B28186  27.067  25.556  13.558  0.1734  0.3451 -0.2870
 1175BOLB   C3B28187  27.219  25.269  13.191 -0.2554 -0.0765 -0.1696
 1175BOLB   C4B28188  27.094  24.905  12.962 -0.5315  0.2735 -0.0375
 1175BOLB   NC228189  26.384  26.210  10.009 -0.0391 -0.0528 -0.0623
 1175BOLB   PO228190  26.369  26.114  10.385 -0.1812  0.1914  0.2136
 1175BOLB   GL328191  26.425  26.538  10.541 -0.1871  0.0908 -0.0204
 1175BOLB   GL428192  26.589  26.841  10.458 -0.0455  0.1763  0.1146
 1175BOLB   C1C28193  26.603  26.634  10.959  0.0117 -0.1119  0.1038
 1175BOLB   C2C28194  26.920  26.470  11.295 -0.0775 -0.2792 -0.1334
 1175BOLB   C3C28195  27.041  26.238  11.666 -0.2879 -0.0311  0.1883
 1175BOLB   C4C28196  27.182  26.072  12.139  0.1514  0.2433 -0.0089
 1175BOLB   C1D28197  26.941  26.789  10.470 -0.0940  0.2743  0.0410
 1175BOLB   C2D28198  27.253  26.689  10.941 -0.2139 -0.1366 -0.1727
 1175BOLB   C3D28199  27.358  26.717  11.405 -0.3047  0.0558  0.1746
 1175BOLB   C4D28200  27.015  26.942  11.736  0.0562  0.2814  0.1435
 1176BOLB   NC128201  22.906  28.942  14.845 -0.0667 -0.3287 -0.1824
 1176BOLB   PO128202  22.822  29.347  14.887 -0.2340  0.0591 -0.0724
 1176BOLB   GL128203  22.649  29.319  14.492  0.4805 -0.3141 -0.0428
 1176BOLB   GL228204  22.422  29.029  14.538  0.1965 -0.0789 -0.2018
 1176BOLB   C1A28205  22.393  29.367  14.180  0.1334  0.2641 -0.0167
 1176BOLB   C2A28206  22.271  29.081  13.891  0.0725  0.0246 -0.0695
 1176BOLB   C3A28207  22.353  28.731  13.563  0.1569  0.2004 -0.0447
 1176BOLB   C4A28208  22.365  28.683  13.121 -0.1548 -0.1160  0.1254
 1176BOLB   C1B28209  22.045  29.089  14.362 -0.2268 -0.0851 -0.0797
 1176BOLB   C2B28210  21.711  29.133  14.090 -0.0840 -0.1783  0.0859
 1176BOLB   C3B28211  21.519  29.212  13.713 -0.2958 -0.2809 -0.1572
 1176BOLB   C4B28212  21.351  29.454  13.355 -0.2972  0.0704  0.0796
 1176BOLB   NC228213  21.514  28.916  10.348 -0.1320 -0.0119  0.1117
 1176BOLB   PO228214  21.535  28.763  10.743 -0.0305  0.0557 -0.1142
 1176BOLB   GL328215  21.700  28.943  11.053  0.1192 -0.3928 -0.2733
 1176BOLB   GL428216  21.588  29.247  11.263  0.1409  0.0056 -0.4662
 1176BOLB   C1C28217  21.737  28.831  11.482  0.2628 -0.2283  0.2691
 1176BOLB   C2C28218  22.028  28.836  11.846  0.1357 -0.0924 -0.1236
 1176BOLB   C3C28219  22.154  28.802  12.298  0.0180 -0.0308  0.1646
 1176BOLB   C4C28220  22.179  28.633  12.751  0.1036 -0.0180  0.4709
 1176BOLB   C1D28221  21.596  29.340  11.689 -0.1082 -0.0082  0.2666
 1176BOLB   C2D28222  21.759  29.612  11.919 -0.0745 -0.1365  0.0131
 1176BOLB   C3D28223  21.780  30.055  11.805  0.2666 -0.0478 -0.0583
 1176BOLB   C4D28224  21.617  30.474  11.672  0.1307  0.0537 -0.4004
 1177BOLB   NC128225  33.344  33.239  26.453  0.1439 -0.0151  0.1201
 1177BOLB   PO128226  33.223  33.697  26.229  0.0356  0.0247  0.1095
 1177BOLB   GL128227  33.240  34.051  26.286 -0.1901 -0.0351  0.0457
 1177BOLB   GL228228  33.460  34.307  26.048  0.1335  0.0729 -0.1343
 1177BOLB   C1A28229  33.494  34.264  26.578 -0.3119  0.1872 -0.0641
 1177BOLB   C2A28230  33.871  34.491  26.835  0.1016  0.0481  0.1712
 1177BOLB   C3A28231  34.130  34.745   0.156  0.2101  0.2147  0.4442
 1177BOLB   C4A28232  34.533  34.869   0.105  0.0981 -0.1173  0.1698
 1177BOLB   C1B28233  33.913  34.472  26.249  0.2316  0.0711 -0.2150
 1177BOLB   C2B28234  34.180  34.787  26.513 -0.0965 -0.1387  0.0484
 1177BOLB   C3B28235  34.309  35.222  26.723 -0.0501  0.0214  0.3385
 1177BOLB   C4B28236  34.496  35.528  26.797  0.1147 -0.0819  0.0504
 1177BOLB   NC228237  36.128  36.190   1.988  0.4095  0.2116 -0.0047
 1177BOLB   PO228238  35.957  36.357   1.682  0.1141 -0.0819  0.1281
 1177BOLB   GL328239  35.641  36.108   1.434 -0.2306  0.1539  0.0741
 1177BOLB   GL428240  35.318  36.191   1.337 -0.0602 -0.0851 -0.2674
 1177BOLB   C1C28241  35.425  35.743   1.195 -0.0532 -0.5079  0.0570
 1177BOLB   C2C28242  35.205  35.512   0.944 -0.0933 -0.2234  0.1080
 1177BOLB   C3C28243  35.105  35.145   0.746  0.0499  0.1939  0.2858
 1177BOLB   C4C28244  34.843  35.069   0.393 -0.1297  0.0390  0.0084
 1177BOLB   C1D28245  35.245  35.854   1.630  0.0952 -0.2752  0.0664
 1177BOLB   C2D28246  35.178  35.563   1.946 -0.0702 -0.0888 -0.3604
 1177BOLB   C3D28247  35.096  35.204   2.142 -0.2901  0.0957 -0.1464
 1177BOLB   C4D28248  34.740  34.961   2.038  0.1016 -0.3306 -0.1974
 1178BOLB   NC128249  31.069  37.130  22.728 -0.0858 -0.0593  0.4481
 1178BOLB   PO128250  31.334  37.196  22.368 -0.2616 -0.1546  0.2671
 1178BOLB   GL128251  31.378  37.517  22.529 -0.2067  0.2453 -0.3723
 1178BOLB   GL228252  31.542  37.694  22.270 -0.2332  0.0705 -0.2210
 1178BOLB   C1A28253  31.423  37.722  22.838  0.0179 -0.1757 -0.2462
 1178BOLB   C2A28254  31.586  38.137  22.821 -0.0936  0.0413 -0.1271
 1178BOLB   C3A28255  31.635  38.597  22.884 -0.2106 -0.0330  0.3022
 1178BOLB   C4A28256  31.726  38.797  23.217  0.1525  0.0349 -0.1289
 1178BOLB   C1B28257  31.851  38.066  22.366 -0.0081  0.1229 -0.0695
 1178BOLB   C2B28258  32.005  38.444  22.474  0.0139 -0.1152 -0.2287
 1178BOLB   C3B28259  32.126  38.775  22.819 -0.1623 -0.4761  0.0194
 1178BOLB   C4B28260  32.229  39.233  22.917 -0.1300  0.2171  0.2524
 1178BOLB   NC228261  31.962  41.652  23.620  0.0485  0.4233  0.0743
 1178BOLB   PO228262  31.680  41.460  23.693  0.0327 -0.0149 -0.3204
 1178BOLB   GL328263  31.768  41.067  23.589  0.0314  0.2002 -0.1324
 1178BOLB   GL428264  32.101  41.013  23.571 -0.3430  0.1506 -0.1561
 1178BOLB   C1C28265  31.753  40.635  23.648 -0.1386  0.1876  0.2009
 1178BOLB   C2C28266  31.816  40.239  23.546  0.1005 -0.0184  0.0077
 1178BOLB   C3C28267  31.770  39.683  23.431 -0.2620 -0.2823 -0.1500
 1178BOLB   C4C28268  31.762  39.221  23.312  0.0726 -0.0590  0.0058
 1178BOLB   C1D28269  31.965  40.672  23.232 -0.3108 -0.0213 -0.0466
 1178BOLB   C2D28270  31.638  40.407  23.012  0.3779 -0.0785  0.0982
 1178BOLB   C3D28271  31.559  39.954  23.013 -0.1571  0.0923 -0.0910
 1178BOLB   C4D28272  31.595  39.538  22.932  0.1635 -0.0185  0.1186
 1179BOLB   NC128273  33.549  33.163  16.917  0.0121 -0.1007 -0.2720
 1179BOLB   PO128274  33.645  33.561  16.956  0.3841  0.0291 -0.1932
 1179BOLB   GL128275  33.999  33.742  16.818  0.0057 -0.1395 -0.0236
 1179BOLB   GL228276  34.314  33.917  16.945 -0.0086 -0.0724  0.0211
 1179BOLB   C1A28277  34.328  33.854  16.451 -0.2221  0.2838 -0.0106
 1179BOLB   C2A28278  34.437  34.106  16.088  0.2152  0.4081  0.0972
 1179BOLB   C3A28279  34.723  34.304  15.883 -0.1296  0.0944  0.0841
 1179BOLB   C4A28280  35.211  34.217  15.784  0.0376 -0.2690  0.0226
 1179BOLB   C1B28281  34.463  34.333  16.829 -0.0945 -0.0031  0.4671
 1179BOLB   C2B28282  34.691  34.686  16.605  0.2142 -0.2477  0.0860
 1179BOLB   C3B28283  34.825  34.926  16.407 -0.1611  0.1799 -0.1536
 1179BOLB   C4B28284  34.878  35.102  15.957  0.5311 -0.0355  0.0637
 1179BOLB   NC228285  36.036  35.975  14.153 -0.3270 -0.0773  0.0224
 1179BOLB   PO228286  35.965  35.543  13.962 -0.0911  0.0764 -0.2731
 1179BOLB   GL328287  35.845  35.251  14.190 -0.0202 -0.0908 -0.0377
 1179BOLB   GL428288  36.181  35.135  14.414  0.0368 -0.1031  0.0804
 1179BOLB   C1C28289  35.847  34.810  14.478  0.2944  0.0907  0.0453
 1179BOLB   C2C28290  35.817  34.675  14.921  0.0526 -0.1284 -0.0131
 1179BOLB   C3C28291  35.792  34.434  15.280 -0.1705 -0.1687  0.2132
 1179BOLB   C4C28292  35.525  34.193  15.583  0.0284  0.0879  0.4555
 1179BOLB   C1D28293  36.049  35.279  14.827  0.1070  0.0476 -0.0372
 1179BOLB   C2D28294  35.931  35.157  15.223 -0.3141  0.3929 -0.1139
 1179BOLB   C3D28295  35.764  35.327  15.614 -0.2000 -0.1160 -0.1376
 1179BOLB   C4D28296  35.630  35.615  15.901 -0.0726 -0.1604  0.1029
 1180BOLB   NC128297  20.518  33.345  19.154  0.0552 -0.1810 -0.3474
 1180BOLB   PO128298  20.562  33.556  19.488 -0.0532 -0.0230 -0.0486
 1180BOLB   GL128299  20.472  33.826  19.122  0.1532 -0.1210  0.0220
 1180BOLB   GL228300  20.586  33.982  18.910  0.1377 -0.0751 -0.0448
 1180BOLB   C1A28301  20.031  33.886  18.959  0.2955 -0.1170 -0.1142
 1180BOLB   C2A28302  19.609  34.176  18.686 -0.1073  0.2117 -0.0568
 1180BOLB   C3A28303  19.423  34.307  18.393  0.1288  0.2859 -0.3112
 1180BOLB   C4A28304  19.048  34.397  18.104 -0.1350  0.3136  0.1865
 1180BOLB   C1B28305  20.276  34.117  18.607  0.3298  0.1746  0.2252
 1180BOLB   C2B28306  19.929  34.371  18.378 -0.0325 -0.0630  0.0094
 1180BOLB   C3B28307  19.982  34.739  18.129  0.2180  0.3192  0.1002
 1180BOLB   C4B28308  19.867  34.873  17.709 -0.1631  0.1875 -0.0665
 1180BOLB   NC228309  17.887  35.753  16.823  0.0130  0.0756 -0.3048
 1180BOLB   PO228310  17.453  35.731  17.095  0.1304 -0.3429 -0.2053
 1180BOLB   GL328311  17.834  35.647  17.367 -0.1039 -0.0197 -0.4335
 1180BOLB   GL428312  18.120  35.741  17.271 -0.0108  0.2607 -0.0621
 1180BOLB   C1C28313  17.958  35.304  17.594 -0.2433 -0.1927  0.1123
 1180BOLB   C2C28314  18.160  35.018  17.551  0.2889 -0.4317 -0.3709
 1180BOLB   C3C28315  18.626  34.997  17.738  0.2449  0.0567  0.3465
 1180BOLB   C4C28316  18.959  34.721  17.846  0.3343  0.0020  0.2176
 1180BOLB   C1D28317  18.414  35.490  17.452 -0.0851 -0.2076 -0.1091
 1180BOLB   C2D28318  18.828  35.429  17.337  0.2799  0.0169  0.3570
 1180BOLB   C3D28319  19.154  35.257  17.058 -0.0444 -0.1167 -0.1611
 1180BOLB   C4D28320  19.296  35.043  16.702  0.3030 -0.0999 -0.1269
 1181BOLB   NC128321  30.500  37.040  23.433 -0.0309  0.3592  0.2659
 1181BOLB   PO128322  30.768  37.253  23.079  0.0793 -0.0087 -0.1052
 1181BOLB   GL128323  30.942  37.645  23.120 -0.2440 -0.1552  0.1093
 1181BOLB   GL228324  31.223  37.712  23.464  0.0475 -0.0806  0.0982
 1181BOLB   C1A28325  31.106  38.008  23.017  0.0687  0.3907  0.3072
 1181BOLB   C2A28326  31.343  38.250  23.338  0.1400  0.0569  0.0098
 1181BOLB   C3A28327  31.261  38.755  23.316  0.0432  0.0768  0.0004
 1181BOLB   C4A28328  31.197  39.201  23.258  0.1257 -0.1826  0.1356
 1181BOLB   C1B28329  31.291  37.952  23.867 -0.0160 -0.2808 -0.1295
 1181BOLB   C2B28330  31.432  38.283  24.192  0.4833 -0.1054 -0.0780
 1181BOLB   C3B28331  31.587  38.593  24.160  0.1232 -0.1966 -0.2579
 1181BOLB   C4B28332  31.692  38.990  24.160 -0.3165 -0.0331 -0.3327
 1181BOLB   NC228333  31.930  41.337  23.168 -0.1632 -0.2525 -0.1536
 1181BOLB   PO228334  31.514  41.539  23.224  0.1282 -0.1901 -0.0898
 1181BOLB   GL328335  31.349  41.218  23.269 -0.0468 -0.2583  0.0287
 1181BOLB   GL428336  31.041  41.184  23.401  0.1168 -0.1762  0.1469
 1181BOLB   C1C28337  31.372  40.834  23.376 -0.0858 -0.0825 -0.0681
 1181BOLB   C2C28338  31.300  40.458  23.513 -0.1234 -0.4490 -0.1178
 1181BOLB   C3C28339  31.295  40.043  23.403 -0.1458  0.4091  0.1708
 1181BOLB   C4C28340  31.245  39.609  23.268 -0.4441 -0.0402 -0.1887
 1181BOLB   C1D28341  30.931  40.894  23.760  0.1231 -0.4356 -0.0421
 1181BOLB   C2D28342  30.932  40.862  24.174 -0.1333  0.1905  0.0651
 1181BOLB   C3D28343  31.029  40.536  24.443  0.0712  0.1550 -0.2859
 1181BOLB   C4D28344  31.393  40.628  24.700 -0.1227  0.0427  0.0819
 1182BOLB   NC128345  33.240  25.654  25.646  0.0577 -0.0834  0.1519
 1182BOLB   PO128346  33.488  25.333  25.642  0.2876  0.3192 -0.0529
 1182BOLB   GL128347  33.659  25.114  25.931 -0.4259  0.1623  0.0712
 1182BOLB   GL228348  33.646  24.815  25.950 -0.3851  0.0544 -0.5178
 1182BOLB   C1A28349  34.034  25.181  26.102 -0.1447 -0.0155 -0.0364
 1182BOLB   C2A28350  34.368  24.924  26.088 -0.0473  0.0876 -0.1961
 1182BOLB   C3A28351  34.563  24.587  26.134  0.0181  0.1582  0.0177
 1182BOLB   C4A28352  34.659  24.407  26.485  0.1540 -0.0095  0.2350
 1182BOLB   C1B28353  33.958  24.677  26.117  0.0155  0.2384 -0.2650
 1182BOLB   C2B28354  34.187  24.467  26.526  0.2386  0.3982  0.1831
 1182BOLB   C3B28355  34.085  24.204  26.867 -0.1405  0.3386 -0.0908
 1182BOLB   C4B28356  34.011  24.017   0.335  0.0866 -0.0417 -0.4209
 1182BOLB   NC228357  35.787  23.014   1.020  0.0824  0.1508  0.2016
 1182BOLB   PO228358  36.023  23.093   0.545 -0.0292  0.0286  0.0248
 1182BOLB   GL328359  35.768  23.488   0.479  0.0736 -0.4017  0.3164
 1182BOLB   GL428360  35.517  23.328   0.695 -0.0189 -0.1934  0.2949
 1182BOLB   C1C28361  35.458  23.816   0.220  0.3422 -0.0761  0.0140
 1182BOLB   C2C28362  35.123  23.981   0.293  0.2373  0.1692  0.2877
 1182BOLB   C3C28363  34.800  24.070   0.160  0.3897 -0.1361  0.1915
 1182BOLB   C4C28364  34.615  24.236  26.810  0.0764  0.3101  0.2716
 1182BOLB   C1D28365  35.179  23.501   0.453 -0.3951  0.2971 -0.0391
 1182BOLB   C2D28366  34.803  23.547   0.363 -0.3923 -0.5244  0.1002
 1182BOLB   C3D28367  34.423  23.753   0.349  0.3664 -0.0506 -0.0833
 1182BOLB   C4D28368  34.184  23.695  26.857 -0.1534 -0.2174 -0.2865
 1183BOLB   NC128369  29.886  21.818  21.380  0.0319 -0.3310 -0.1076
 1183BOLB   PO128370  30.174  21.514  21.485  0.0267 -0.1753  0.0767
 1183BOLB   GL128371  30.352  21.254  21.451  0.0644  0.4358 -0.1072
 1183BOLB   GL228372  30.028  21.042  21.331  0.1044 -0.1766  0.3032
 1183BOLB   C1A28373  30.520  20.786  21.489  0.1834  0.1327  0.2818
 1183BOLB   C2A28374  30.423  20.380  21.333  0.0536 -0.3794  0.2485
 1183BOLB   C3A28375  30.272  20.228  20.882 -0.0462 -0.3146  0.0165
 1183BOLB   C4A28376  30.378  19.989  20.503  0.1439  0.0201 -0.1966
 1183BOLB   C1B28377  30.011  20.734  21.570 -0.0688  0.3993  0.0469
 1183BOLB   C2B28378  30.176  20.473  21.926 -0.0128 -0.0708 -0.5720
 1183BOLB   C3B28379  30.473  20.157  22.168 -0.1642  0.0696 -0.2574
 1183BOLB   C4B28380  30.666  19.933  22.473  0.2294  0.1860 -0.0941
 1183BOLB   NC228381  29.401  17.804  19.623  0.2555 -0.3467  0.3907
 1183BOLB   PO228382  29.728  17.882  19.812 -0.0095 -0.3914 -0.1218
 1183BOLB   GL328383  29.741  18.337  19.769 -0.2688 -0.0095  0.2880
 1183BOLB   GL428384  29.464  18.426  19.521 -0.3835  0.0456 -0.0455
 1183BOLB   C1C28385  30.113  18.630  19.868  0.3929 -0.3763 -0.0122
 1183BOLB   C2C28386  30.479  18.845  19.942 -0.1219 -0.0685 -0.1669
 1183BOLB   C3C28387  30.592  19.248  20.079  0.2585  0.4756 -0.0115
 1183BOLB   C4C28388  30.429  19.696  20.185  0.1496 -0.2716  0.0730
 1183BOLB   C1D28389  28.981  18.615  19.493 -0.1737 -0.1408 -0.1865
 1183BOLB   C2D28390  28.691  18.992  19.624 -0.1299  0.1636  0.1411
 1183BOLB   C3D28391  28.543  19.331  19.660 -0.2222 -0.1441 -0.3034
 1183BOLB   C4D28392  28.317  19.717  19.515  0.0478  0.4630  0.1090
 1184BOLB   NC128393  28.122  27.949   2.811  0.2147 -0.3592 -0.0704
 1184BOLB   PO128394  27.923  28.293   2.738 -0.3883  0.4387 -0.0843
 1184BOLB   GL128395  27.605  28.246   2.935  0.1329  0.0470 -0.1574
 1184BOLB   GL228396  27.220  28.340   2.999  0.0388 -0.1466 -0.3641
 1184BOLB   C1A28397  27.440  28.045   3.400 -0.0355 -0.0731  0.0809
 1184BOLB   C2A28398  27.271  27.911   3.790 -0.0181  0.1004  0.0009
 1184BOLB   C3A28399  27.203  27.903   4.250  0.1500  0.1614  0.0643
 1184BOLB   C4A28400  27.157  28.028   4.695  0.1349  0.0668  0.1304
 1184BOLB   C1B28401  26.969  28.174   3.414  0.2922 -0.4819  0.0743
 1184BOLB   C2B28402  26.984  28.364   3.768 -0.0149  0.1022  0.2476
 1184BOLB   C3B28403  27.099  28.377   4.170  0.0247  0.1545  0.0001
 1184BOLB   C4B28404  26.914  28.457   4.617 -0.2599  0.1180 -0.1305
 1184BOLB   NC228405  27.068  29.139   7.220  0.1774  0.2721  0.4352
 1184BOLB   PO228406  27.097  28.756   7.205  0.2409  0.1629  0.1292
 1184BOLB   GL328407  27.244  28.713   6.732 -0.2061  0.0540  0.3351
 1184BOLB   GL428408  27.263  28.401   6.727  0.1030  0.2095  0.2421
 1184BOLB   C1C28409  27.367  28.549   6.296 -0.0223  0.0559  0.0680
 1184BOLB   C2C28410  27.258  28.542   5.880  0.3227 -0.3109  0.0309
 1184BOLB   C3C28411  27.159  28.435   5.485  0.1308  0.0012 -0.2616
 1184BOLB   C4C28412  27.295  28.315   5.036 -0.2159 -0.2233 -0.2096
 1184BOLB   C1D28413  26.968  28.173   6.564  0.2671  0.0516  0.0251
 1184BOLB   C2D28414  26.622  27.961   6.268  0.0794  0.0173  0.0515
 1184BOLB   C3D28415  26.804  27.581   6.045 -0.0881  0.0839  0.0434
 1184BOLB   C4D28416  26.869  27.294   6.121  0.0691 -0.0439  0.1745
 1185BOLB   NC128417  34.989  34.315  21.552 -0.0148  0.0450 -0.1656
 1185BOLB   PO128418  34.706  34.633  21.543  0.1034  0.0333 -0.0624
 1185BOLB   GL128419  34.831  34.980  21.648  0.1619  0.2546 -0.1672
 1185BOLB   GL228420  34.740  35.221  21.697 -0.0016 -0.1047  0.2871
 1185BOLB   C1A28421  35.243  35.113  21.690  0.0255  0.0877  0.0479
 1185BOLB   C2A28422  35.624  35.343  21.638  0.1152  0.2931  0.1273
 1185BOLB   C3A28423  36.014  35.641  21.565 -0.4615  0.1767 -0.2312
 1185BOLB   C4A28424  36.398  35.941  21.410 -0.0952  0.0349 -0.0300
 1185BOLB   C1B28425  35.181  35.613  21.713 -0.2284 -0.0730  0.1709
 1185BOLB   C2B28426  35.612  35.842  21.706  0.0187  0.3418  0.1221
 1185BOLB   C3B28427  35.970  36.033  21.830 -0.0320 -0.0294 -0.2412
 1185BOLB   C4B28428  36.167  36.165  22.198  0.0519 -0.2176  0.0950
 1185BOLB   NC228429  37.781  37.740  23.137 -0.0489  0.0487 -0.0817
 1185BOLB   PO228430  37.780  37.519  22.750 -0.1851  0.0622 -0.1188
 1185BOLB   GL328431  37.319  37.329  22.552 -0.2322  0.3382 -0.1719
 1185BOLB   GL428432  37.332  36.999  22.644  0.3960 -0.0998 -0.2068
 1185BOLB   C1C28433  36.885  37.251  22.386 -0.1210  0.0893 -0.0446
 1185BOLB   C2C28434  36.759  36.774  22.126  0.2574  0.3434 -0.0926
 1185BOLB   C3C28435  36.879  36.477  21.900  0.1231 -0.1026  0.5447
 1185BOLB   C4C28436  36.729  36.230  21.574  0.2290 -0.1705 -0.2088
 1185BOLB   C1D28437  37.063  36.605  22.504 -0.0075 -0.0757 -0.1530
 1185BOLB   C2D28438  36.709  36.331  22.345  0.1018  0.2116  0.0661
 1185BOLB   C3D28439  36.346  36.447  22.596  0.1210  0.1502  0.0266
 1185BOLB   C4D28440  36.069  36.266  22.905  0.1258 -0.3166 -0.0692
 1186BOLB   NC128441  29.180  36.449  26.457  0.0428 -0.0100 -0.0376
 1186BOLB   PO128442  28.802  36.259  26.610 -0.1027  0.2194 -0.0172
 1186BOLB   GL128443  28.852  36.562  26.837  0.1416 -0.2205 -0.0766
 1186BOLB   GL228444  28.873  36.656   0.260 -0.2217 -0.0190 -0.3485
 1186BOLB   C1A28445  28.906  37.048  26.911 -0.0196  0.0027  0.1450
 1186BOLB   C2A28446  28.990  37.422   0.236 -0.2043 -0.1422  0.0855
 1186BOLB   C3A28447  29.053  37.779   0.423 -0.0765  0.0936 -0.0506
 1186BOLB   C4A28448  29.125  38.136   0.714 -0.0741 -0.3266 -0.1669
 1186BOLB   C1B28449  28.904  36.999   0.626  0.3225 -0.2014  0.0208
 1186BOLB   C2B28450  28.994  37.416   0.795  0.0303  0.0329  0.0989
 1186BOLB   C3B28451  28.692  37.465   1.128 -0.1882 -0.3283 -0.2710
 1186BOLB   C4B28452  28.648  37.555   1.555  0.3255  0.1580 -0.1603
 1186BOLB   NC228453  29.480  39.431   2.862  0.1012  0.1582  0.0307
 1186BOLB   PO228454  29.198  39.326   2.509 -0.0638  0.2287  0.0291
 1186BOLB   GL328455  29.236  38.931   2.441  0.2405 -0.2762 -0.0886
 1186BOLB   GL428456  29.450  38.873   2.229  0.1934 -0.1673  0.0055
 1186BOLB   C1C28457  29.187  38.489   2.195  0.3740  0.1826 -0.1483
 1186BOLB   C2C28458  29.306  38.153   1.889 -0.4372 -0.1407 -0.1162
 1186BOLB   C3C28459  29.292  38.258   1.439 -0.1762 -0.2305 -0.0165
 1186BOLB   C4C28460  29.439  38.304   0.949  0.1232  0.2465  0.0673
 1186BOLB   C1D28461  29.700  38.490   1.995  0.0707 -0.1521 -0.0803
 1186BOLB   C2D28462  29.729  38.208   1.659 -0.0957 -0.0358  0.1565
 1186BOLB   C3D28463  29.871  37.806   1.498  0.1644  0.0143 -0.3874
 1186BOLB   C4D28464  29.587  37.464   1.473 -0.0103  0.0023  0.0019
 1187BOLB   NC128465  23.630  25.185  16.996 -0.5323 -0.1752  0.0071
 1187BOLB   PO128466  23.147  25.109  16.856  0.0677 -0.4166 -0.3309
 1187BOLB   GL128467  22.828  24.914  16.664  0.1156 -0.0057 -0.1812
 1187BOLB   GL228468  22.535  24.855  16.882  0.3674  0.1624  0.0044
 1187BOLB   C1A28469  22.595  24.933  16.307 -0.0706  0.3006 -0.1819
 1187BOLB   C2A28470  22.228  24.820  16.046 -0.1168  0.0900  0.0110
 1187BOLB   C3A28471  21.882  24.511  15.763  0.2728  0.1047 -0.2794
 1187BOLB   C4A28472  21.742  24.292  15.480  0.1993  0.5856 -0.0292
 1187BOLB   C1B28473  22.297  24.607  16.592  0.1609 -0.5246 -0.2001
 1187BOLB   C2B28474  21.931  24.517  16.351 -0.0706  0.3852 -0.0559
 1187BOLB   C3B28475  21.588  24.679  16.087  0.1683 -0.2393 -0.1979
 1187BOLB   C4B28476  21.427  24.654  15.683 -0.2977  0.1186  0.2783
 1187BOLB   NC228477  20.582  22.797  14.547 -0.2169  0.4572  0.0531
 1187BOLB   PO228478  20.119  22.787  14.735  0.0316  0.0433 -0.0341
 1187BOLB   GL328479  20.246  23.174  15.033 -0.1326  0.3249 -0.0791
 1187BOLB   GL428480  20.050  23.075  15.393 -0.1596 -0.3260 -0.0817
 1187BOLB   C1C28481  20.355  23.561  15.139 -0.0460  0.0836  0.2243
 1187BOLB   C2C28482  20.385  23.913  15.329  0.1094 -0.0460 -0.3477
 1187BOLB   C3C28483  20.796  24.190  15.502  0.3040  0.0047 -0.0108
 1187BOLB   C4C28484  21.292  24.192  15.521  0.0417  0.4439  0.1063
 1187BOLB   C1D28485  20.323  23.414  15.693  0.0976 -0.0547 -0.0007
 1187BOLB   C2D28486  20.481  23.673  15.998 -0.2094  0.1908  0.1247
 1187BOLB   C3D28487  20.232  23.889  16.349  0.2244 -0.0009 -0.1529
 1187BOLB   C4D28488  20.119  23.801  16.689  0.0550  0.0671  0.0584
 1188BOLB   NC128489  31.191  25.728  15.557  0.1118 -0.0587 -0.0100
 1188BOLB   PO128490  31.534  25.595  15.280  0.1273  0.2294  0.4982
 1188BOLB   GL128491  31.412  25.415  15.011  0.0705 -0.1403  0.3269
 1188BOLB   GL228492  31.387  25.075  14.972 -0.2197  0.0213 -0.0058
 1188BOLB   C1A28493  31.321  25.354  14.603  0.1091 -0.1044 -0.1940
 1188BOLB   C2A28494  31.562  25.233  14.162 -0.1771  0.0064  0.2634
 1188BOLB   C3A28495  31.448  25.378  13.665  0.0469  0.5052 -0.4109
 1188BOLB   C4A28496  31.305  25.290  13.359 -0.1221  0.1002  0.1383
 1188BOLB   C1B28497  31.310  24.701  14.788 -0.2479  0.0379 -0.1009
 1188BOLB   C2B28498  31.285  24.278  14.763 -0.2112  0.0569  0.1327
 1188BOLB   C3B28499  31.084  23.885  14.702 -0.5189  0.0181  0.1896
 1188BOLB   C4B28500  31.250  23.501  14.507  0.2417 -0.4082  0.1621
 1188BOLB   NC228501  30.742  24.873  10.753 -0.1315 -0.1088 -0.1275
 1188BOLB   PO228502  31.050  24.871  11.118  0.0786 -0.1165 -0.1613
 1188BOLB   GL328503  31.367  24.922  11.528 -0.3650 -0.0687  0.2158
 1188BOLB   GL428504  31.302  25.188  11.536  0.1905  0.2828  0.0646
 1188BOLB   C1C28505  31.407  24.756  11.868  0.4813 -0.2312 -0.0608
 1188BOLB   C2C28506  31.567  24.845  12.257  0.2181  0.1616  0.1579
 1188BOLB   C3C28507  31.509  24.891  12.700 -0.1076 -0.4342 -0.5944
 1188BOLB   C4C28508  31.357  25.167  12.989  0.4288  0.1196 -0.1171
 1188BOLB   C1D28509  31.152  25.572  11.810  0.2424 -0.0203 -0.1624
 1188BOLB   C2D28510  30.938  25.731  12.210 -0.3214  0.1450  0.1858
 1188BOLB   C3D28511  30.867  26.130  12.462  0.2662 -0.0472 -0.0751
 1188BOLB   C4D28512  30.738  26.314  12.692 -0.2103  0.0486  0.0682
 1189BOLB   NC128513  23.015  31.933   2.164  0.4677  0.0584  0.1009
 1189BOLB   PO128514  23.113  32.359   1.910  0.0164 -0.0997  0.2325
 1189BOLB   GL128515  22.864  32.430   2.285 -0.2422  0.1227  0.0708
 1189BOLB   GL228516  22.808  32.341   2.597 -0.0312 -0.1078 -0.0123
 1189BOLB   C1A28517  23.078  32.716   2.575  0.0554  0.0895 -0.0593
 1189BOLB   C2A28518  23.120  32.870   2.872  0.0810  0.2340 -0.5064
 1189BOLB   C3A28519  23.032  32.964   3.305 -0.2086 -0.0858 -0.1016
 1189BOLB   C4A28520  23.140  32.944   3.727 -0.0142 -0.1613  0.0495
 1189BOLB   C1B28521  22.498  32.176   2.836 -0.2426  0.2872  0.1138
 1189BOLB   C2B28522  22.457  32.165   3.144  0.1302 -0.1836  0.2268
 1189BOLB   C3B28523  22.603  32.077   3.431  0.0568  0.1198  0.3138
 1189BOLB   C4B28524  22.632  31.760   3.817  0.1145  0.0529 -0.0415
 1189BOLB   NC228525  23.745  34.118   6.281  0.0401  0.1079  0.2604
 1189BOLB   PO228526  23.585  34.030   5.855 -0.2407 -0.2042  0.1200
 1189BOLB   GL328527  23.776  34.021   5.435  0.0258  0.0777 -0.1376
 1189BOLB   GL428528  24.098  34.162   5.322  0.0283  0.0696  0.0203
 1189BOLB   C1C28529  23.725  34.113   4.973 -0.2728 -0.1898 -0.0989
 1189BOLB   C2C28530  23.666  33.754   4.658  0.1258  0.0641 -0.2398
 1189BOLB   C3C28531  23.576  33.354   4.399 -0.1379 -0.2202  0.3613
 1189BOLB   C4C28532  23.315  33.158   4.078 -0.1555 -0.1697 -0.2568
 1189BOLB   C1D28533  24.237  33.906   4.992  0.3145 -0.0850 -0.0441
 1189BOLB   C2D28534  24.303  33.613   4.657  0.0051 -0.2530  0.0130
 1189BOLB   C3D28535  24.619  33.270   4.558  0.0551  0.0633  0.1624
 1189BOLB   C4D28536  24.966  33.096   4.252  0.1370 -0.3461  0.0361
 1190BOLB   NC128537  30.161  37.625  21.067  0.2334  0.1716  0.0806
 1190BOLB   PO128538  30.463  37.419  20.805 -0.1717  0.2468 -0.0327
 1190BOLB   GL128539  30.380  37.762  20.616  0.0861 -0.0047  0.3510
 1190BOLB   GL228540  30.376  38.026  20.876  0.2706 -0.0601  0.1353
 1190BOLB   C1A28541  30.230  38.076  20.365  0.3840 -0.4512  0.0676
 1190BOLB   C2A28542  30.521  38.442  20.133 -0.0323 -0.0908  0.0781
 1190BOLB   C3A28543  30.749  38.902  20.273 -0.3894 -0.0812  0.0161
 1190BOLB   C4A28544  30.628  39.300  20.368  0.2165 -0.0787  0.0656
 1190BOLB   C1B28545  30.302  38.348  20.768 -0.1109 -0.1875  0.3059
 1190BOLB   C2B28546  30.508  38.709  20.651 -0.0988 -0.0235  0.0722
 1190BOLB   C3B28547  30.897  38.982  20.748 -0.0164 -0.0359 -0.0675
 1190BOLB   C4B28548  31.224  39.089  20.503  0.0407 -0.1477  0.1367
 1190BOLB   NC228549  31.989  41.273  20.428  0.1758  0.2648  0.0752
 1190BOLB   PO228550  31.936  41.058  20.081 -0.2292 -0.0002 -0.1217
 1190BOLB   GL328551  31.644  40.781  20.164 -0.3361 -0.2357 -0.0938
 1190BOLB   GL428552  31.787  40.806  20.552  0.0557  0.3063  0.3558
 1190BOLB   C1C28553  31.595  40.369  20.319 -0.2386 -0.0015  0.1284
 1190BOLB   C2C28554  31.407  40.130  20.638 -0.0404 -0.2008  0.0635
 1190BOLB   C3C28555  31.228  39.760  20.538  0.1441  0.0100 -0.1338
 1190BOLB   C4C28556  30.927  39.453  20.495 -0.1188  0.2193  0.1789
 1190BOLB   C1D28557  31.369  40.877  20.487  0.0129 -0.3921 -0.1337
 1190BOLB   C2D28558  31.129  40.504  20.370 -0.0767  0.2885 -0.0670
 1190BOLB   C3D28559  30.970  40.107  20.218  0.0323 -0.4159  0.3312
 1190BOLB   C4D28560  30.815  39.749  20.172 -0.1765 -0.1368 -0.0409
 1191BOLB   NC128561  29.916  32.284  14.771 -0.0379  0.1025 -0.1081
 1191BOLB   PO128562  29.941  32.771  14.673  0.1986  0.1367  0.0889
 1191BOLB   GL128563  30.129  32.951  14.230  0.0492  0.0319  0.0830
 1191BOLB   GL228564  30.059  32.732  14.132  0.0353 -0.1632  0.2298
 1191BOLB   C1A28565  30.207  33.364  13.952 -0.3191 -0.0551 -0.0989
 1191BOLB   C2A28566  30.194  33.608  13.645 -0.0757 -0.0295 -0.1629
 1191BOLB   C3A28567  29.995  33.797  13.334 -0.3277 -0.0305 -0.1062
 1191BOLB   C4A28568  29.744  33.913  13.046  0.0725  0.2002  0.0196
 1191BOLB   C1B28569  29.915  32.981  13.808  0.1221 -0.2871 -0.1094
 1191BOLB   C2B28570  29.907  33.202  13.533  0.1783  0.2636  0.1628
 1191BOLB   C3B28571  30.043  33.287  13.194  0.0682  0.0253  0.0247
 1191BOLB   C4B28572  30.224  33.365  12.707 -0.0829  0.2509 -0.0223
 1191BOLB   NC228573  30.308  34.343  10.869  0.2570  0.5663 -0.2675
 1191BOLB   PO228574  30.098  34.664  10.799 -0.3551 -0.0051  0.1694
 1191BOLB   GL328575  30.096  34.624  11.306 -0.0610 -0.1061 -0.1626
 1191BOLB   GL428576  30.414  34.410  11.367  0.0421  0.4560  0.0237
 1191BOLB   C1C28577  29.996  34.625  11.713 -0.1963 -0.1840 -0.5115
 1191BOLB   C2C28578  29.855  34.268  12.011 -0.0480  0.4831  0.0279
 1191BOLB   C3C28579  29.663  33.974  12.172  0.0487 -0.0788 -0.3400
 1191BOLB   C4C28580  29.587  33.909  12.626  0.2533  0.0519 -0.1168
 1191BOLB   C1D28581  30.405  34.316  11.792 -0.2650  0.0659 -0.1894
 1191BOLB   C2D28582  30.497  34.157  12.140  0.0005 -0.2753 -0.0525
 1191BOLB   C3D28583  30.577  34.059  12.569  0.0965  0.1022 -0.0475
 1191BOLB   C4D28584  30.647  34.239  12.866  0.2466 -0.1304 -0.0810
 1192BOLB   NC128585  24.315  37.553  21.472 -0.0093 -0.1622  0.3074
 1192BOLB   PO128586  24.614  37.831  21.340  0.1604  0.1435  0.0430
 1192BOLB   GL128587  24.358  38.180  21.259 -0.1297 -0.1144 -0.2545
 1192BOLB   GL228588  24.148  37.978  21.508 -0.2016 -0.2318  0.1021
 1192BOLB   C1A28589  24.246  38.564  21.304  0.0012  0.1169 -0.0004
 1192BOLB   C2A28590  24.295  38.903  21.050 -0.1530 -0.1826 -0.1558
 1192BOLB   C3A28591  24.389  39.321  21.078  0.1499 -0.2520  0.0310
 1192BOLB   C4A28592  24.158  39.617  21.335  0.2922  0.0697  0.1330
 1192BOLB   C1B28593  23.916  38.001  21.847 -0.1714 -0.5733 -0.3567
 1192BOLB   C2B28594  23.650  38.180  22.017 -0.0890 -0.1133  0.2105
 1192BOLB   C3B28595  23.298  38.153  22.060 -0.0816 -0.1309 -0.1614
 1192BOLB   C4B28596  22.937  37.952  21.970 -0.2092  0.1638 -0.0428
 1192BOLB   NC228597  22.981  41.279  21.130  0.2666 -0.0297  0.2596
 1192BOLB   PO228598  22.704  40.950  21.307  0.0069 -0.2764 -0.0709
 1192BOLB   GL328599  23.010  40.736  21.421  0.1422  0.0122 -0.1660
 1192BOLB   GL428600  23.168  40.719  21.729  0.2651 -0.0203  0.0426
 1192BOLB   C1C28601  22.958  40.306  21.441  0.2894  0.1566 -0.1666
 1192BOLB   C2C28602  23.289  40.212  21.691 -0.1499  0.0247 -0.0663
 1192BOLB   C3C28603  23.558  40.051  21.836 -0.2679  0.1955  0.0843
 1192BOLB   C4C28604  23.929  39.828  21.680  0.0642 -0.0173 -0.0513
 1192BOLB   C1D28605  23.329  40.515  22.198 -0.0871 -0.1652 -0.2810
 1192BOLB   C2D28606  23.189  40.222  22.466 -0.2081 -0.0855  0.2791
 1192BOLB   C3D28607  23.497  40.086  22.711  0.3417 -0.0872  0.2860
 1192BOLB   C4D28608  23.913  39.940  22.567  0.1059  0.2474 -0.0115
 1193BOLB   NC128609  31.246  23.649  17.641 -0.0965  0.4923  0.0689
 1193BOLB   PO128610  31.488  23.860  17.274  0.0299 -0.0603  0.1170
 1193BOLB   GL128611  31.796  23.652  17.439 -0.0961 -0.0136 -0.2692
 1193BOLB   GL228612  32.069  23.734  17.644 -0.1058  0.0039 -0.2829
 1193BOLB   C1A28613  31.799  23.253  17.318  0.0242 -0.1359 -0.0225
 1193BOLB   C2A28614  32.101  22.872  17.124  0.3171  0.1201  0.0368
 1193BOLB   C3A28615  32.397  22.589  17.203  0.0912  0.3666 -0.0877
 1193BOLB   C4A28616  32.783  22.518  17.105 -0.1072  0.0150  0.0753
 1193BOLB   C1B28617  32.280  23.388  17.555 -0.0950  0.1313  0.1058
 1193BOLB   C2B28618  32.428  23.043  17.414 -0.0730  0.1783 -0.1396
 1193BOLB   C3B28619  32.879  22.856  17.455 -0.1359  0.5482 -0.0302
 1193BOLB   C4B28620  33.245  22.691  17.227 -0.0447 -0.1124  0.2646
 1193BOLB   NC228621  33.941  20.669  16.199  0.1904  0.0126 -0.2065
 1193BOLB   PO228622  33.615  20.677  15.923  0.0868  0.1620 -0.1448
 1193BOLB   GL328623  33.651  21.065  16.084 -0.4739 -0.1166  0.2280
 1193BOLB   GL428624  33.667  21.083  16.363 -0.0525  0.0720 -0.0151
 1193BOLB   C1C28625  33.684  21.560  16.300 -0.1809  0.0275  0.0452
 1193BOLB   C2C28626  33.690  22.010  16.411 -0.1663  0.0764 -0.2091
 1193BOLB   C3C28627  33.314  22.384  16.389  0.2030  0.0999 -0.0809
 1193BOLB   C4C28628  33.025  22.598  16.718  0.1228 -0.1984  0.0996
 1193BOLB   C1D28629  33.413  21.441  16.721  0.0461  0.0446 -0.1661
 1193BOLB   C2D28630  33.038  21.253  16.719  0.1907 -0.1974 -0.1485
 1193BOLB   C3D28631  32.707  20.983  16.596  0.0053 -0.1549 -0.1547
 1193BOLB   C4D28632  32.629  20.492  16.674  0.1172 -0.2587  0.1529
 1194BOLB   NC128633  31.189  26.628   1.574 -0.1527  0.2601 -0.0357
 1194BOLB   PO128634  31.396  26.373   1.351 -0.0030  0.0300 -0.4377
 1194BOLB   GL128635  31.530  26.192   1.640 -0.0854  0.0146  0.1712
 1194BOLB   GL228636  31.661  25.904   1.524 -0.2087 -0.4206 -0.1368
 1194BOLB   C1A28637  31.892  26.111   1.982  0.2597 -0.3774  0.1843
 1194BOLB   C2A28638  32.298  26.100   2.268 -0.0715 -0.0234  0.0677
 1194BOLB   C3A28639  32.665  26.252   2.545  0.2540 -0.0495  0.2257
 1194BOLB   C4A28640  33.064  26.396   2.644  0.2809 -0.0690 -0.3514
 1194BOLB   C1B28641  31.819  25.614   1.879 -0.0359 -0.0447 -0.0701
 1194BOLB   C2B28642  31.848  25.334   2.133 -0.0278 -0.0875  0.2705
 1194BOLB   C3B28643  31.915  25.077   2.430  0.1495  0.4701  0.0220
 1194BOLB   C4B28644  32.159  24.713   2.634 -0.0789  0.0228 -0.0750
 1194BOLB   NC228645  34.608  24.672   3.562  0.1002 -0.1050 -0.1967
 1194BOLB   PO228646  34.653  25.203   3.742 -0.2990  0.2934  0.3654
 1194BOLB   GL328647  34.364  25.161   3.351 -0.1822  0.0251  0.3505
 1194BOLB   GL428648  34.340  25.314   3.046 -0.1010 -0.1034 -0.0940
 1194BOLB   C1C28649  33.940  25.450   3.323  0.0133 -0.3378 -0.1693
 1194BOLB   C2C28650  33.733  25.871   3.438 -0.2250 -0.2836 -0.2181
 1194BOLB   C3C28651  33.750  26.149   3.122 -0.2529  0.1695  0.0260
 1194BOLB   C4C28652  33.342  26.266   2.932  0.1714 -0.0958  0.2933
 1194BOLB   C1D28653  34.340  25.300   2.610  0.0556  0.1811 -0.2615
 1194BOLB   C2D28654  34.068  25.323   2.180 -0.1202 -0.1467 -0.3541
 1194BOLB   C3D28655  33.774  25.662   1.979  0.0151 -0.1601 -0.0280
 1194BOLB   C4D28656  33.701  25.798   1.567  0.0526 -0.2492  0.1861
 1195BOLB   NC128657  31.070  34.019  16.135  0.1926  0.2850 -0.0924
 1195BOLB   PO128658  31.360  34.290  15.773 -0.1298 -0.2258  0.0090
 1195BOLB   GL128659  31.651  34.606  15.599  0.0353 -0.0549  0.1260
 1195BOLB   GL228660  31.751  34.535  15.287 -0.0416 -0.2426 -0.1722
 1195BOLB   C1A28661  31.889  34.985  15.424  0.0534 -0.0684 -0.2355
 1195BOLB   C2A28662  31.941  35.223  15.117  0.2612  0.0440  0.1729
 1195BOLB   C3A28663  31.706  35.648  14.957  0.0135  0.0693  0.1022
 1195BOLB   C4A28664  31.654  35.876  14.681  0.1451 -0.4315  0.3381
 1195BOLB   C1B28665  31.692  34.703  14.805  0.3023 -0.1685 -0.0170
 1195BOLB   C2B28666  31.467  34.813  14.394 -0.1434 -0.0540  0.0519
 1195BOLB   C3B28667  31.497  35.211  14.067 -0.1343 -0.3942 -0.0848
 1195BOLB   C4B28668  31.668  35.471  13.765  0.0219 -0.1405  0.1980
 1195BOLB   NC228669  32.435  35.877  11.857 -0.3117 -0.0002 -0.0729
 1195BOLB   PO228670  32.269  35.968  12.225  0.1405 -0.2025 -0.5454
 1195BOLB   GL328671  32.226  35.789  12.581  0.2769 -0.2390 -0.0437
 1195BOLB   GL428672  31.947  35.694  12.401  0.0453  0.0360 -0.5281
 1195BOLB   C1C28673  32.287  35.746  13.007 -0.0525  0.1005 -0.1601
 1195BOLB   C2C28674  32.113  35.632  13.538  0.0228 -0.1575  0.2223
 1195BOLB   C3C28675  32.015  35.826  13.884  0.0439  0.1109 -0.2302
 1195BOLB   C4C28676  31.889  35.951  14.283  0.1255  0.2825 -0.0188
 1195BOLB   C1D28677  31.880  35.509  12.779  0.0673  0.0239  0.3478
 1195BOLB   C2D28678  31.642  35.523  13.197  0.3709 -0.1016 -0.1173
 1195BOLB   C3D28679  31.311  35.621  13.464  0.1625  0.2761 -0.3002
 1195BOLB   C4D28680  30.860  35.612  13.628 -0.1605  0.0598  0.0733
 1196BOLB   NC128681  28.909  33.517   1.731 -0.2331  0.0683  0.2286
 1196BOLB   PO128682  29.266  33.576   1.967  0.2179 -0.1022 -0.1753
 1196BOLB   GL128683  29.559  33.735   2.048 -0.3681 -0.0205  0.3410
 1196BOLB   GL228684  29.841  33.634   2.118 -0.1115 -0.1315 -0.2245
 1196BOLB   C1A28685  29.457  33.848   2.488  0.0581  0.1998 -0.0324
 1196BOLB   C2A28686  29.660  34.055   2.895 -0.1522  0.0913  0.0813
 1196BOLB   C3A28687  29.840  34.256   3.267  0.0209  0.1474  0.1726
 1196BOLB   C4A28688  30.170  34.473   3.420 -0.2189  0.1569  0.1154
 1196BOLB   C1B28689  29.927  34.051   2.450  0.3425  0.1144  0.3510
 1196BOLB   C2B28690  30.140  34.321   2.748  0.2077  0.1640  0.1019
 1196BOLB   C3B28691  30.468  34.319   3.007  0.1296 -0.1017 -0.1574
 1196BOLB   C4B28692  30.760  34.457   3.341 -0.1423 -0.1144 -0.1054
 1196BOLB   NC228693  31.543  36.452   4.379  0.1615 -0.0456  0.0852
 1196BOLB   PO228694  31.183  36.176   4.271 -0.1854  0.1370  0.1547
 1196BOLB   GL328695  31.271  35.832   4.039  0.0003 -0.0001  0.0730
 1196BOLB   GL428696  31.181  35.494   4.120  0.0860 -0.0330  0.0351
 1196BOLB   C1C28697  31.061  35.708   3.702 -0.2440  0.1069  0.0750
 1196BOLB   C2C28698  31.109  35.300   3.465 -0.1119 -0.0737 -0.3721
 1196BOLB   C3C28699  30.725  35.081   3.302  0.1904  0.0340 -0.0104
 1196BOLB   C4C28700  30.400  34.765   3.241  0.2824  0.1197 -0.0236
 1196BOLB   C1D28701  31.541  35.488   3.756 -0.1205 -0.4712  0.0537
 1196BOLB   C2D28702  31.846  35.526   3.565  0.2386 -0.0458  0.1656
 1196BOLB   C3D28703  32.227  35.317   3.378  0.1589 -0.1818  0.2297
 1196BOLB   C4D28704  32.560  35.324   3.543 -0.2039  0.2549 -0.0099
 1197BOLB   NC128705  34.594  26.405  11.738 -0.2250  0.2068 -0.0041
 1197BOLB   PO128706  34.739  26.802  12.019 -0.0376 -0.0303  0.0077
 1197BOLB   GL128707  34.420  26.902  12.437 -0.0459 -0.1321  0.1024
 1197BOLB   GL228708  34.626  26.912  12.765  0.1407 -0.1121 -0.1398
 1197BOLB   C1A28709  34.148  26.748  12.756 -0.0929  0.0994 -0.3557
 1197BOLB   C2A28710  33.757  26.829  12.919  0.0991  0.0490  0.2020
 1197BOLB   C3A28711  33.437  26.516  13.137  0.1235 -0.0867  0.1512
 1197BOLB   C4A28712  33.126  26.181  13.111  0.1110 -0.3680  0.0799
 1197BOLB   C1B28713  34.564  26.931  13.202 -0.1309 -0.0037 -0.3200
 1197BOLB   C2B28714  34.421  26.937  13.661  0.0403  0.5152 -0.0133
 1197BOLB   C3B28715  34.432  27.130  14.143  0.1733 -0.2291  0.2829
 1197BOLB   C4B28716  34.147  27.153  14.520  0.4185 -0.4599 -0.1482
 1197BOLB   NC228717  33.492  25.238  12.037  0.1127 -0.1390  0.4174
 1197BOLB   PO228718  33.249  25.016  11.729 -0.2202  0.1914  0.0215
 1197BOLB   GL328719  32.983  25.207  11.903 -0.0579  0.0949 -0.0445
 1197BOLB   GL428720  32.734  25.228  11.716 -0.1882 -0.0088  0.0342
 1197BOLB   C1C28721  32.636  25.077  12.197  0.0827 -0.0728  0.1662
 1197BOLB   C2C28722  32.425  25.328  12.454 -0.2698 -0.1499 -0.2128
 1197BOLB   C3C28723  32.525  25.588  12.792  0.2719  0.1424 -0.0845
 1197BOLB   C4C28724  32.764  25.991  12.916  0.2996  0.0258 -0.0451
 1197BOLB   C1D28725  32.585  25.495  12.014  0.1547  0.0235 -0.1767
 1197BOLB   C2D28726  32.871  25.646  12.331  0.1449  0.1723 -0.1710
 1197BOLB   C3D28727  32.994  25.300  12.640  0.2703 -0.0223  0.2578
 1197BOLB   C4D28728  32.832  24.862  12.680 -0.0046 -0.0764 -0.0832
 1198BOLB   NC128729  30.505  29.050   2.191  0.1546  0.0356 -0.1372
 1198BOLB   PO128730  30.824  29.329   2.453 -0.1960 -0.0791 -0.0494
 1198BOLB   GL128731  31.126  29.113   2.772  0.1168  0.2967  0.0881
 1198BOLB   GL228732  30.896  29.233   2.977 -0.0099 -0.0559  0.0877
 1198BOLB   C1A28733  31.437  29.060   2.954  0.1669  0.0793 -0.1476
 1198BOLB   C2A28734  31.469  28.980   3.411  0.1860  0.1179  0.0770
 1198BOLB   C3A28735  31.822  28.731   3.571 -0.0021 -0.2298 -0.2293
 1198BOLB   C4A28736  32.085  28.707   3.896 -0.4976 -0.0136 -0.0253
 1198BOLB   C1B28737  30.952  28.961   3.290  0.1506  0.0833 -0.1046
 1198BOLB   C2B28738  31.083  28.750   3.707  0.0932 -0.5506 -0.2280
 1198BOLB   C3B28739  31.467  28.608   3.880  0.0685 -0.0099  0.3983
 1198BOLB   C4B28740  31.752  28.626   4.226  0.0198 -0.2105  0.2101
 1198BOLB   NC228741  33.883  28.070   6.014  0.1140 -0.2329 -0.0480
 1198BOLB   PO228742  33.747  27.817   5.635  0.1719 -0.2037  0.1665
 1198BOLB   GL328743  33.374  28.025   5.492 -0.0302 -0.0320 -0.0447
 1198BOLB   GL428744  33.131  27.826   5.528  0.0777  0.1918  0.0010
 1198BOLB   C1C28745  33.001  28.328   5.168  0.0991 -0.2699  0.1822
 1198BOLB   C2C28746  32.638  28.495   4.985 -0.0231  0.1569 -0.2353
 1198BOLB   C3C28747  32.410  28.811   4.768 -0.0258 -0.1649 -0.1175
 1198BOLB   C4C28748  32.247  28.662   4.388  0.3367  0.0715 -0.0905
 1198BOLB   C1D28749  32.960  27.857   5.186  0.1833 -0.1556  0.1572
 1198BOLB   C2D28750  32.461  27.934   5.094 -0.1855  0.0619  0.0837
 1198BOLB   C3D28751  32.136  28.262   5.088 -0.0657 -0.3501 -0.1680
 1198BOLB   C4D28752  31.905  28.520   4.729 -0.0006 -0.0946 -0.2710
 1199BOLB   NC128753  23.595  35.275  26.466 -0.0586 -0.1490  0.0278
 1199BOLB   PO128754  23.164  35.162  26.179 -0.2040 -0.3514 -0.1076
 1199BOLB   GL128755  22.980  35.404  26.460  0.2330 -0.3425 -0.2279
 1199BOLB   GL228756  23.195  35.409  26.724  0.3732 -0.3515 -0.2190
 1199BOLB   C1A28757  22.857  35.817  26.633  0.0572  0.3151 -0.2420
 1199BOLB   C2A28758  22.593  35.936   0.052  0.0590  0.0866  0.0181
 1199BOLB   C3A28759  22.351  36.269   0.134  0.0463  0.2689 -0.1009
 1199BOLB   C4A28760  22.075  36.338   0.391 -0.1993  0.1633 -0.1388
 1199BOLB   C1B28761  23.272  35.825  26.910 -0.1114  0.2958 -0.1882
 1199BOLB   C2B28762  23.052  36.062   0.231 -0.2664 -0.1103  0.1668
 1199BOLB   C3B28763  22.796  36.386   0.410 -0.0556 -0.3034  0.0826
 1199BOLB   C4B28764  22.808  36.878   0.485  0.1335 -0.1182  0.0461
 1199BOLB   NC228765  19.685  36.459   1.128 -0.0437  0.0946  0.0656
 1199BOLB   PO228766  19.979  36.910   1.204  0.1172  0.0330  0.0983
 1199BOLB   GL328767  20.147  36.654   0.972 -0.0386  0.0086  0.0664
 1199BOLB   GL428768  20.182  36.653   0.535 -0.0587  0.3910 -0.0714
 1199BOLB   C1C28769  20.536  36.588   0.920 -0.1830 -0.0373  0.0210
 1199BOLB   C2C28770  20.926  36.434   0.758 -0.1792  0.0716  0.0058
 1199BOLB   C3C28771  21.372  36.491   0.771 -0.0993 -0.4001  0.0788
 1199BOLB   C4C28772  21.787  36.464   0.595  0.1335  0.1037 -0.1181
 1199BOLB   C1D28773  20.488  36.527   0.307 -0.0651 -0.1276  0.0830
 1199BOLB   C2D28774  20.827  36.331   0.132  0.3001 -0.1129 -0.2368
 1199BOLB   C3D28775  21.098  36.257  26.770 -0.0974 -0.0364 -0.0343
 1199BOLB   C4D28776  21.435  36.178  26.470  0.3323 -0.2762  0.1635
 1200BOLB   NC128777  30.695  23.556  25.005  0.0266  0.2688 -0.1211
 1200BOLB   PO128778  30.676  23.163  25.229 -0.0050  0.2010 -0.3283
 1200BOLB   GL128779  31.034  22.821  25.347 -0.0388 -0.3274 -0.1285
 1200BOLB   GL228780  31.214  22.928  25.631 -0.2116  0.1372 -0.2790
 1200BOLB   C1A28781  30.963  22.376  25.686  0.0356 -0.0069  0.1375
 1200BOLB   C2A28782  31.130  22.020  25.947 -0.0087  0.1327  0.1333
 1200BOLB   C3A28783  31.287  21.714  26.255  0.2139  0.0867 -0.3697
 1200BOLB   C4A28784  31.374  21.423  26.452 -0.1461  0.2208 -0.0603
 1200BOLB   C1B28785  31.469  22.448  25.747  0.0068  0.1581  0.0557
 1200BOLB   C2B28786  31.879  22.431  25.824 -0.0554 -0.0415 -0.0127
 1200BOLB   C3B28787  32.134  22.255  26.117 -0.0557 -0.2939 -0.1182
 1200BOLB   C4B28788  32.216  22.025  26.561  0.1304  0.1255  0.0184
 1200BOLB   NC228789  30.907  18.928   0.610  0.3810 -0.1211  0.1230
 1200BOLB   PO228790  31.318  19.147   0.525  0.1306 -0.1971 -0.0044
 1200BOLB   GL328791  31.181  19.521   0.602  0.2439 -0.0340 -0.1122
 1200BOLB   GL428792  30.809  19.444   0.404 -0.0657 -0.3053 -0.0245
 1200BOLB   C1C28793  31.221  19.861   0.513  0.0803  0.0585 -0.0374
 1200BOLB   C2C28794  31.436  20.228   0.418  0.0111 -0.3140  0.0651
 1200BOLB   C3C28795  31.428  20.649   0.147 -0.2126 -0.0365 -0.2679
 1200BOLB   C4C28796  31.438  21.022  26.751 -0.1739  0.2657 -0.2034
 1200BOLB   C1D28797  30.754  19.923   0.278 -0.0421  0.2633  0.2011
 1200BOLB   C2D28798  30.594  20.345   0.334 -0.1487  0.0363 -0.1059
 1200BOLB   C3D28799  30.606  20.768   0.053 -0.1057 -0.1331 -0.0877
 1200BOLB   C4D28800  30.414  21.096  26.689  0.3040 -0.0137 -0.3890
 1201BOLB   NC128801  27.318  37.048  24.245  0.2335  0.1420 -0.3959
 1201BOLB   PO128802  26.986  37.534  24.367 -0.0561 -0.1416 -0.3331
 1201BOLB   GL128803  26.807  37.883  24.358 -0.2123  0.0064 -0.1699
 1201BOLB   GL228804  26.498  37.838  24.496  0.1305  0.3245 -0.0272
 1201BOLB   C1A28805  26.816  38.212  24.479 -0.0326  0.0170  0.2861
 1201BOLB   C2A28806  26.730  38.525  24.723 -0.0099  0.2552 -0.3283
 1201BOLB   C3A28807  26.579  38.730  24.908  0.3812 -0.2197  0.2563
 1201BOLB   C4A28808  26.232  39.017  24.786  0.3821  0.2273  0.3990
 1201BOLB   C1B28809  26.306  38.185  24.686 -0.1501 -0.1760 -0.1719
 1201BOLB   C2B28810  26.107  38.560  24.861 -0.2220 -0.2757  0.2647
 1201BOLB   C3B28811  25.775  38.783  24.793 -0.2564  0.0091 -0.1821
 1201BOLB   C4B28812  25.398  38.979  25.017  0.1944  0.0950 -0.1019
 1201BOLB   NC228813  24.529  40.761  25.284 -0.1076  0.2346 -0.1586
 1201BOLB   PO228814  24.972  41.033  25.383 -0.0384  0.0255  0.1779
 1201BOLB   GL328815  25.315  40.819  25.298 -0.1768  0.0663 -0.0429
 1201BOLB   GL428816  25.340  40.684  24.980  0.4621 -0.0549  0.0371
 1201BOLB   C1C28817  25.462  40.386  25.382  0.2022 -0.1028  0.1273
 1201BOLB   C2C28818  25.620  39.924  25.405  0.3331 -0.0558 -0.1190
 1201BOLB   C3C28819  25.856  39.680  25.189  0.1400  0.2547  0.0026
 1201BOLB   C4C28820  26.088  39.279  25.069 -0.1505 -0.0153  0.0146
 1201BOLB   C1D28821  25.435  40.643  24.588 -0.1348 -0.0079 -0.0512
 1201BOLB   C2D28822  25.661  40.326  24.474  0.2964 -0.0033  0.1169
 1201BOLB   C3D28823  25.854  39.886  24.633  0.0289 -0.0050 -0.0459
 1201BOLB   C4D28824  26.240  39.557  24.626  0.0195 -0.0231 -0.2890
 1202BOLB   NC128825  22.784  33.848   0.385 -0.0480 -0.2510  0.1522
 1202BOLB   PO128826  22.705  34.270   0.428 -0.2437  0.3945 -0.3581
 1202BOLB   GL128827  22.487  34.601   0.577 -0.0082 -0.1139 -0.1105
 1202BOLB   GL228828  22.543  34.894   0.378 -0.0415 -0.0513  0.2062
 1202BOLB   C1A28829  22.090  34.736   0.699  0.2396  0.0740  0.1899
 1202BOLB   C2A28830  21.928  34.729   1.048  0.0261 -0.1689  0.1997
 1202BOLB   C3A28831  22.015  34.829   1.431 -0.1166 -0.2572 -0.0686
 1202BOLB   C4A28832  21.998  35.087   1.763 -0.0140  0.0349 -0.4164
 1202BOLB   C1B28833  22.892  35.173   0.561 -0.1641  0.1391 -0.0209
 1202BOLB   C2B28834  22.958  35.412   0.880 -0.0390 -0.1299  0.2060
 1202BOLB   C3B28835  23.060  35.799   1.097 -0.0722  0.0788 -0.2654
 1202BOLB   C4B28836  23.126  36.046   1.367 -0.2532 -0.1772  0.3068
 1202BOLB   NC228837  22.126  36.805   3.246  0.0888  0.2471 -0.1812
 1202BOLB   PO228838  21.729  36.981   3.272  0.2227  0.1676  0.0652
 1202BOLB   GL328839  21.885  36.754   2.865  0.0556  0.0099  0.0294
 1202BOLB   GL428840  22.138  36.538   2.750  0.2278 -0.0306  0.0263
 1202BOLB   C1C28841  21.707  36.590   2.434 -0.2732 -0.1647  0.3137
 1202BOLB   C2C28842  21.611  36.106   2.353  0.1022 -0.0149  0.4963
 1202BOLB   C3C28843  21.651  35.669   2.216  0.0582  0.1845 -0.0101
 1202BOLB   C4C28844  21.783  35.303   2.052  0.0834 -0.3369 -0.2597
 1202BOLB   C1D28845  22.170  36.130   2.530  0.0193  0.3690  0.0974
 1202BOLB   C2D28846  22.370  35.731   2.648  0.1684 -0.1104 -0.0753
 1202BOLB   C3D28847  22.322  35.763   3.086  0.4076  0.0347  0.0782
 1202BOLB   C4D28848  22.012  35.386   3.107 -0.1786 -0.1139  0.2114
 1203BOLB   NC128849  19.905  32.386  22.376  0.2445 -0.1584  0.0843
 1203BOLB   PO128850  19.928  32.605  22.794  0.1263 -0.1896  0.5123
 1203BOLB   GL128851  19.452  32.626  22.723  0.1221 -0.1727 -0.0219
 1203BOLB   GL228852  19.471  32.649  22.405 -0.0315  0.2106  0.3818
 1203BOLB   C1A28853  19.057  32.393  22.588  0.0838 -0.1180 -0.1068
 1203BOLB   C2A28854  18.635  32.372  22.442 -0.0791 -0.1660  0.0504
 1203BOLB   C3A28855  18.354  32.252  22.336 -0.0330  0.0709 -0.2473
 1203BOLB   C4A28856  17.912  32.355  22.601 -0.1389 -0.0533  0.0606
 1203BOLB   C1B28857  19.166  32.996  22.443 -0.0505  0.0992  0.0053
 1203BOLB   C2B28858  18.989  33.409  22.277 -0.1512 -0.0606 -0.0178
 1203BOLB   C3B28859  19.010  33.733  22.055 -0.2876 -0.0520 -0.0681
 1203BOLB   C4B28860  18.815  33.998  21.827  0.0683  0.0752 -0.1774
 1203BOLB   NC228861  15.724  32.839  23.316  0.2375 -0.0266  0.0345
 1203BOLB   PO228862  16.049  33.175  23.239  0.2285  0.2288 -0.1947
 1203BOLB   GL328863  16.404  33.164  23.480 -0.0050  0.3863 -0.0522
 1203BOLB   GL428864  16.470  33.495  23.430 -0.2126 -0.3925  0.3643
 1203BOLB   C1C28865  16.652  32.769  23.434  0.0279 -0.3947 -0.0035
 1203BOLB   C2C28866  17.050  32.523  23.433  0.1682 -0.1911  0.0531
 1203BOLB   C3C28867  17.405  32.395  23.199  0.1122  0.0904  0.0282
 1203BOLB   C4C28868  17.715  32.176  22.972  0.1002 -0.0192  0.2716
 1203BOLB   C1D28869  16.871  33.308  23.358 -0.2280  0.1406 -0.0112
 1203BOLB   C2D28870  17.258  33.067  23.285  0.2340 -0.0365  0.1898
 1203BOLB   C3D28871  17.514  33.155  22.900 -0.3157  0.2316 -0.2367
 1203BOLB   C4D28872  17.593  33.588  22.683  0.1180 -0.2251 -0.1008
 1204BOLB   NC128873  27.699  33.171   2.261  0.1829 -0.0464  0.0680
 1204BOLB   PO128874  28.030  32.963   2.209  0.2052 -0.0915  0.1664
 1204BOLB   GL128875  28.241  33.159   2.586 -0.2961 -0.1848  0.1381
 1204BOLB   GL228876  28.017  32.951   2.802  0.3699 -0.0549  0.3468
 1204BOLB   C1A28877  28.678  33.288   2.986 -0.4448 -0.2357  0.0072
 1204BOLB   C2A28878  28.936  33.376   3.298  0.0796  0.0249 -0.2423
 1204BOLB   C3A28879  29.000  33.563   3.661  0.1552 -0.4735  0.0609
 1204BOLB   C4A28880  29.004  34.046   3.590  0.2281  0.2896 -0.0119
 1204BOLB   C1B28881  28.095  33.200   3.208  0.0770  0.1761  0.0571
 1204BOLB   C2B28882  28.406  33.401   3.471 -0.1675  0.6233  0.0096
 1204BOLB   C3B28883  28.555  33.494   3.863  0.1531 -0.0988 -0.1085
 1204BOLB   C4B28884  28.993  33.302   4.070  0.0958  0.0055  0.0872
 1204BOLB   NC228885  29.879  34.974   5.548 -0.2331 -0.3588  0.3008
 1204BOLB   PO228886  29.899  35.335   5.415  0.0687  0.0044  0.0434
 1204BOLB   GL328887  29.836  35.165   4.957 -0.1988  0.1252 -0.0343
 1204BOLB   GL428888  29.932  34.972   4.990  0.5068 -0.0614  0.2622
 1204BOLB   C1C28889  29.942  34.776   4.535  0.2535 -0.0038 -0.1075
 1204BOLB   C2C28890  29.715  34.673   4.187  0.0795 -0.2395  0.0093
 1204BOLB   C3C28891  29.535  34.337   3.996 -0.1365 -0.2289 -0.0554
 1204BOLB   C4C28892  29.252  34.320   3.742  0.3435  0.2749 -0.0395
 1204BOLB   C1D28893  29.830  34.509   5.007  0.0605  0.1209 -0.1460
 1204BOLB   C2D28894  29.634  34.205   5.184  0.1400 -0.3753 -0.0221
 1204BOLB   C3D28895  29.383  33.965   4.860 -0.2411  0.1570  0.1333
 1204BOLB   C4D28896  29.048  33.704   4.787 -0.3699 -0.1504  0.4329
 1205BOLB   NC128897  30.631  35.807  26.635 -0.2787  0.1967  0.1387
 1205BOLB   PO128898  30.231  35.741  26.729 -0.1172  0.2742 -0.3529
 1205BOLB   GL128899  30.488  36.001   0.119 -0.1819 -0.0276  0.0096
 1205BOLB   GL228900  30.433  36.323   0.050 -0.2185 -0.2355  0.0977
 1205BOLB   C1A28901  30.580  36.005   0.515  0.0525 -0.1671 -0.2850
 1205BOLB   C2A28902  30.621  36.269   0.968  0.0832 -0.1260 -0.3385
 1205BOLB   C3A28903  30.958  36.230   1.189  0.1501 -0.2352  0.0595
 1205BOLB   C4A28904  31.407  36.268   1.378 -0.2596  0.0379  0.4554
 1205BOLB   C1B28905  30.623  36.480   0.222 -0.0383 -0.1063 -0.0771
 1205BOLB   C2B28906  30.994  36.407   0.617  0.1857 -0.2543  0.1135
 1205BOLB   C3B28907  31.328  36.568   0.779  0.2006  0.2483  0.1362
 1205BOLB   C4B28908  31.706  36.512   1.016  0.0437 -0.2224 -0.0050
 1205BOLB   NC228909  31.639  38.730   3.245  0.2476 -0.4722  0.3033
 1205BOLB   PO228910  31.595  38.414   2.896 -0.0452 -0.0049 -0.1102
 1205BOLB   GL328911  31.754  38.052   2.747 -0.1167 -0.2994 -0.0866
 1205BOLB   GL428912  31.887  37.817   2.991  0.0955 -0.0326  0.0092
 1205BOLB   C1C28913  31.739  37.625   2.496  0.1280  0.0666 -0.1256
 1205BOLB   C2C28914  31.676  37.350   2.233  0.1045  0.0089  0.2671
 1205BOLB   C3C28915  31.532  37.039   2.005  0.2037 -0.1554 -0.4101
 1205BOLB   C4C28916  31.571  36.639   1.656 -0.1831  0.0648  0.0905
 1205BOLB   C1D28917  31.571  37.461   2.944  0.4607  0.0468  0.0955
 1205BOLB   C2D28918  31.382  37.167   3.020  0.1427  0.0083  0.0440
 1205BOLB   C3D28919  30.966  37.038   3.228 -0.0084 -0.0631  0.1127
 1205BOLB   C4D28920  30.708  36.676   3.454 -0.2462  0.1509  0.1720
 1206BOLB   NC128921  33.909  32.207   0.034 -0.2457  0.0010 -0.4152
 1206BOLB   PO128922  34.037  31.829   0.295  0.2438  0.0397  0.2108
 1206BOLB   GL128923  34.209  32.087   0.633  0.0045  0.0200  0.1713
 1206BOLB   GL228924  34.428  32.140   0.487  0.0061 -0.0651 -0.1926
 1206BOLB   C1A28925  34.555  32.098   1.041  0.0546 -0.2837  0.1619
 1206BOLB   C2A28926  34.958  32.122   1.040  0.0300 -0.3688  0.2773
 1206BOLB   C3A28927  35.330  32.146   0.958 -0.0092 -0.1387  0.1253
 1206BOLB   C4A28928  35.445  32.373   1.246 -0.0882 -0.0399  0.4837
 1206BOLB   C1B28929  34.784  32.047   0.506 -0.2043 -0.3285  0.1775
 1206BOLB   C2B28930  35.062  31.698   0.688  0.1448  0.0765 -0.1698
 1206BOLB   C3B28931  35.199  31.678   1.104 -0.0801  0.2154 -0.3099
 1206BOLB   C4B28932  35.071  31.555   1.506 -0.2320 -0.0306  0.2557
 1206BOLB   NC228933  37.314  33.600   2.461 -0.0096 -0.0576  0.0881
 1206BOLB   PO228934  37.087  33.517   2.046  0.0123  0.1358 -0.0596
 1206BOLB   GL328935  36.667  33.384   1.987  0.2499 -0.1228  0.0765
 1206BOLB   GL428936  36.462  33.725   2.053 -0.0470 -0.2001  0.0157
 1206BOLB   C1C28937  36.405  33.016   2.076 -0.1299  0.2398  0.1912
 1206BOLB   C2C28938  36.083  32.944   1.763  0.3040 -0.0317  0.0547
 1206BOLB   C3C28939  35.963  32.881   1.412  0.0718  0.1118  0.1326
 1206BOLB   C4C28940  35.770  32.628   1.120 -0.0937 -0.1990  0.1671
 1206BOLB   C1D28941  36.132  33.491   1.644  0.0120 -0.2819 -0.0356
 1206BOLB   C2D28942  35.851  33.365   1.438  0.0012  0.0686  0.0839
 1206BOLB   C3D28943  35.663  33.203   1.104  0.0521  0.0160  0.1077
 1206BOLB   C4D28944  35.294  33.123   1.058  0.0057  0.0745  0.0475
 1207BOLB   NC128945  32.255  34.624   0.131  0.0264 -0.0801  0.0997
 1207BOLB   PO128946  32.179  34.997  26.783  0.1913 -0.0505  0.2290
 1207BOLB   GL128947  32.160  35.159   0.228  0.0260  0.1118 -0.1209
 1207BOLB   GL228948  32.179  35.430   0.072 -0.0411  0.0650  0.1612
 1207BOLB   C1A28949  32.134  35.349   0.600 -0.2423 -0.0184 -0.2321
 1207BOLB   C2A28950  32.082  35.578   0.888 -0.1133  0.2047 -0.1682
 1207BOLB   C3A28951  31.945  35.609   1.318  0.2967 -0.1360 -0.1080
 1207BOLB   C4A28952  31.902  35.983   1.511  0.2029 -0.0369 -0.1279
 1207BOLB   C1B28953  32.295  35.838  26.893  0.1223  0.0465  0.0131
 1207BOLB   C2B28954  32.607  36.051   0.172 -0.4183 -0.1356 -0.0585
 1207BOLB   C3B28955  32.790  36.062   0.534  0.0747 -0.5063  0.5274
 1207BOLB   C4B28956  32.826  36.246   0.869  0.3205  0.2440  0.1546
 1207BOLB   NC228957  33.429  37.316   3.084 -0.0705  0.0837 -0.0043
 1207BOLB   PO228958  33.094  37.464   2.837  0.3720 -0.1434 -0.0292
 1207BOLB   GL328959  32.725  37.343   2.709 -0.0159  0.1202 -0.2661
 1207BOLB   GL428960  32.611  37.669   2.562  0.2188  0.1647  0.4112
 1207BOLB   C1C28961  32.361  37.244   2.384 -0.0727  0.2151  0.1433
 1207BOLB   C2C28962  32.086  37.145   2.044  0.2409  0.2852  0.4059
 1207BOLB   C3C28963  32.183  36.813   1.767 -0.1505 -0.0442 -0.3107
 1207BOLB   C4C28964  32.103  36.404   1.613  0.2862 -0.3431  0.0795
 1207BOLB   C1D28965  32.210  37.689   2.242 -0.2715 -0.1365 -0.0203
 1207BOLB   C2D28966  32.277  37.655   1.804  0.0374 -0.1358  0.1013
 1207BOLB   C3D28967  32.240  37.259   1.545  0.1057  0.4252 -0.0968
 1207BOLB   C4D28968  31.924  36.944   1.343 -0.2730  0.1937 -0.0913
 1208BOLB   NC128969  22.824  34.032  25.531  0.2989  0.0197  0.1772
 1208BOLB   PO128970  22.326  34.172  25.618  0.2031 -0.1941 -0.2165
 1208BOLB   GL128971  21.889  34.376  25.831 -0.1046  0.3720  0.2600
 1208BOLB   GL228972  21.669  34.259  26.106  0.2747  0.2751  0.0853
 1208BOLB   C1A28973  21.799  34.702  25.941 -0.1606 -0.1387 -0.2272
 1208BOLB   C2A28974  21.610  34.984  26.177  0.0471  0.2430  0.1192
 1208BOLB   C3A28975  21.332  35.220  26.358  0.2017 -0.0688 -0.1090
 1208BOLB   C4A28976  20.902  35.351  26.570 -0.2694 -0.0975  0.4387
 1208BOLB   C1B28977  21.335  34.530  25.991 -0.2987 -0.1492  0.1538
 1208BOLB   C2B28978  20.926  34.624  26.047 -0.1639 -0.1899  0.1203
 1208BOLB   C3B28979  20.583  34.328  25.903 -0.0334  0.3787  0.1570
 1208BOLB   C4B28980  20.236  34.198  25.617 -0.1026 -0.1121  0.0075
 1208BOLB   NC228981  19.292  36.096   1.883 -0.1465 -0.0541 -0.2222
 1208BOLB   PO228982  19.446  35.995   1.487 -0.0605 -0.1852  0.2518
 1208BOLB   GL328983  19.885  35.883   1.126  0.0296 -0.0833  0.0530
 1208BOLB   GL428984  19.903  36.090   0.841 -0.2167  0.0302 -0.1440
 1208BOLB   C1C28985  20.167  35.627   0.833 -0.1466 -0.0372 -0.0071
 1208BOLB   C2C28986  20.525  35.558   0.797  0.0081  0.0118 -0.1661
 1208BOLB   C3C28987  20.656  35.372   0.455 -0.1461 -0.3060  0.2740
 1208BOLB   C4C28988  20.683  35.376   0.029 -0.1513  0.0780 -0.0131
 1208BOLB   C1D28989  20.417  36.117   0.711 -0.3284  0.0764 -0.1208
 1208BOLB   C2D28990  20.880  35.971   0.570  0.0689  0.2574  0.1941
 1208BOLB   C3D28991  21.085  35.679   0.298 -0.1767  0.3029 -0.0187
 1208BOLB   C4D28992  21.260  35.480  26.922  0.0041  0.1329 -0.2292
 1209BOLB   NC128993  22.592  36.131  22.361 -0.0116  0.1230 -0.4229
 1209BOLB   PO128994  22.282  35.968  22.163 -0.1758 -0.0008  0.3824
 1209BOLB   GL128995  22.356  36.413  22.027 -0.0671 -0.2688  0.1107
 1209BOLB   GL228996  22.152  36.477  21.741 -0.0497 -0.1187 -0.1832
 1209BOLB   C1A28997  22.298  36.675  22.378 -0.3431  0.2295 -0.0615
 1209BOLB   C2A28998  21.921  36.938  22.563 -0.1196  0.0521  0.0928
 1209BOLB   C3A28999  21.501  36.986  22.557 -0.1514  0.2834 -0.0087
 1209BOLB   C4A29000  21.152  37.054  22.341  0.2598 -0.0820 -0.3601
 1209BOLB   C1B29001  21.959  36.913  21.894  0.2488 -0.3182  0.2041
 1209BOLB   C2B29002  21.751  37.254  22.207  0.1693  0.0025  0.0823
 1209BOLB   C3B29003  21.662  37.716  22.488 -0.0812 -0.1353  0.1129
 1209BOLB   C4B29004  21.423  38.019  22.312  0.0617  0.0664  0.0684
 1209BOLB   NC229005  20.483  39.461  22.453  0.1246 -0.1119 -0.0457
 1209BOLB   PO229006  20.054  39.171  22.593  0.3863 -0.0488  0.1281
 1209BOLB   GL329007  20.081  38.719  22.483 -0.0766 -0.2263  0.1077
 1209BOLB   GL429008  19.869  38.601  22.234 -0.1673 -0.1728  0.2259
 1209BOLB   C1C29009  20.090  38.333  22.540 -0.1301 -0.3252  0.0486
 1209BOLB   C2C29010  20.231  37.969  22.487 -0.4110  0.1867  0.1486
 1209BOLB   C3C29011  20.465  37.600  22.330 -0.1125 -0.2142 -0.2659
 1209BOLB   C4C29012  20.814  37.266  22.212  0.0848 -0.1294 -0.1505
 1209BOLB   C1D29013  20.064  38.473  22.024  0.0873  0.1897 -0.2886
 1209BOLB   C2D29014  20.367  38.532  21.824 -0.0585  0.3046  0.1024
 1209BOLB   C3D29015  20.810  38.284  21.782 -0.2581  0.1048  0.3842
 1209BOLB   C4D29016  21.275  38.308  21.893  0.2670  0.0502  0.1551
 1210BOLB   NC129017  35.358  30.793  19.144 -0.1307 -0.0628  0.1236
 1210BOLB   PO129018  35.656  30.513  18.949  0.0899  0.1714  0.1430
 1210BOLB   GL129019  35.945  30.548  18.662 -0.1983  0.1357  0.1396
 1210BOLB   GL229020  36.205  30.637  18.884 -0.1128  0.3382  0.2526
 1210BOLB   C1A29021  36.355  30.532  18.349  0.0884 -0.0721 -0.1645
 1210BOLB   C2A29022  36.550  30.523  17.920  0.1212 -0.0259 -0.1028
 1210BOLB   C3A29023  36.808  30.443  17.612  0.4631 -0.0246 -0.2515
 1210BOLB   C4A29024  37.111  30.685  17.366  0.1343  0.0666 -0.1271
 1210BOLB   C1B29025  36.545  30.679  19.202 -0.1613  0.0160 -0.0472
 1210BOLB   C2B29026  36.771  31.008  19.503 -0.0107  0.1911 -0.0162
 1210BOLB   C3B29027  37.051  31.368  19.756  0.1723 -0.0070  0.2370
 1210BOLB   C4B29028  37.619  31.326  19.713  0.2144 -0.3421  0.0897
 1210BOLB   NC229029  38.968  30.813  16.454 -0.4262 -0.3091  0.0900
 1210BOLB   PO229030  38.788  30.731  16.898  0.2242 -0.1048 -0.0860
 1210BOLB   GL329031  38.545  31.009  16.571  0.1799 -0.1402 -0.2313
 1210BOLB   GL429032  38.257  30.926  16.368 -0.5122  0.0205 -0.1034
 1210BOLB   C1C29033  38.318  31.350  16.732 -0.3711  0.0249 -0.1639
 1210BOLB   C2C29034  38.077  31.394  17.010 -0.3047 -0.2622 -0.2444
 1210BOLB   C3C29035  37.735  31.169  17.088  0.0772 -0.0014 -0.2266
 1210BOLB   C4C29036  37.469  30.870  17.302 -0.1134  0.1701  0.1478
 1210BOLB   C1D29037  37.958  30.603  16.408 -0.0224  0.0926  0.0732
 1210BOLB   C2D29038  37.504  30.431  16.305  0.3800 -0.2157 -0.1556
 1210BOLB   C3D29039  37.364  30.056  16.406 -0.2560 -0.0628 -0.0337
 1210BOLB   C4D29040  37.106  29.658  16.599  0.0941 -0.0821  0.1131
 1211BOLB   NC129041  28.160  28.694  14.038 -0.3103 -0.0812 -0.0927
 1211BOLB   PO129042  28.441  28.584  13.648  0.0737  0.0439 -0.0892
 1211BOLB   GL129043  28.532  28.636  13.249 -0.0779 -0.1975  0.0328
 1211BOLB   GL229044  28.254  28.773  13.129  0.3164 -0.0989  0.1657
 1211BOLB   C1A29045  28.658  28.525  12.853 -0.1840  0.0230  0.2027
 1211BOLB   C2A29046  28.977  28.722  12.516 -0.1275 -0.0049  0.0854
 1211BOLB   C3A29047  29.276  28.687  12.232 -0.0101 -0.3204  0.0024
 1211BOLB   C4A29048  29.274  28.834  11.881  0.1576  0.0580 -0.1900
 1211BOLB   C1B29049  28.212  28.794  12.765 -0.0323 -0.1166  0.0108
 1211BOLB   C2B29050  28.231  29.007  12.392  0.0824  0.0559  0.0960
 1211BOLB   C3B29051  28.351  29.067  11.964 -0.3201  0.0316  0.0974
 1211BOLB   C4B29052  28.508  29.269  11.538  0.2219  0.1634 -0.2070
 1211BOLB   NC229053  30.161  28.466   9.556  0.2491 -0.1686 -0.0828
 1211BOLB   PO229054  30.348  28.095   9.793 -0.3069 -0.1986  0.0858
 1211BOLB   GL329055  30.115  28.260  10.115 -0.1633  0.0853 -0.0879
 1211BOLB   GL429056  30.161  28.208  10.387  0.2227  0.0941  0.2472
 1211BOLB   C1C29057  29.779  28.490  10.359 -0.1329  0.0534 -0.2321
 1211BOLB   C2C29058  29.643  28.596  10.805  0.0676 -0.0293 -0.0842
 1211BOLB   C3C29059  29.598  28.639  11.226  0.3375  0.0279 -0.1473
 1211BOLB   C4C29060  29.564  28.957  11.551  0.0263  0.0985 -0.0725
 1211BOLB   C1D29061  30.217  28.097  10.823  0.3196 -0.0896 -0.0041
 1211BOLB   C2D29062  30.082  28.318  11.093  0.2865  0.0635 -0.2741
 1211BOLB   C3D29063  30.137  28.465  11.593 -0.1718  0.0886  0.1612
 1211BOLB   C4D29064  30.351  28.845  11.755  0.0285 -0.2290  0.0769
 1212BOLB   NC129065  34.758  25.122  23.056  0.0258 -0.0750 -0.0114
 1212BOLB   PO129066  34.889  24.860  22.954  0.1420 -0.1573 -0.4124
 1212BOLB   GL129067  35.110  24.500  23.164 -0.1184  0.2170  0.4018
 1212BOLB   GL229068  35.125  24.353  22.838 -0.2219  0.0767 -0.2285
 1212BOLB   C1A29069  35.391  24.225  23.380  0.1797  0.0337 -0.1699
 1212BOLB   C2A29070  35.737  23.936  23.364  0.1471  0.2337 -0.0489
 1212BOLB   C3A29071  36.087  23.854  23.114  0.0141 -0.0571 -0.4000
 1212BOLB   C4A29072  36.251  24.016  22.806 -0.0735 -0.1153  0.4017
 1212BOLB   C1B29073  35.321  23.952  22.894 -0.0944  0.0663  0.2094
 1212BOLB   C2B29074  35.650  23.643  22.934 -0.1382 -0.1081  0.1792
 1212BOLB   C3B29075  36.048  23.422  22.775  0.4610  0.2406  0.0135
 1212BOLB   C4B29076  36.160  23.037  23.107  0.0103  0.2561  0.1457
 1212BOLB   NC229077  37.934  23.466  23.236 -0.0513 -0.0345 -0.1817
 1212BOLB   PO229078  38.291  23.734  23.254  0.4291 -0.0327  0.2253
 1212BOLB   GL329079  37.915  23.985  23.209 -0.2060  0.1817  0.1248
 1212BOLB   GL429080  37.727  24.032  23.493  0.0927  0.0416 -0.1025
 1212BOLB   C1C29081  37.692  24.032  22.709 -0.0208 -0.0862  0.1237
 1212BOLB   C2C29082  37.246  24.131  22.485 -0.0272  0.3219 -0.3473
 1212BOLB   C3C29083  36.857  24.276  22.493 -0.1719  0.0248  0.1658
 1212BOLB   C4C29084  36.451  24.261  22.547 -0.0794 -0.1033 -0.0280
 1212BOLB   C1D29085  37.296  23.975  23.581  0.2581 -0.1564 -0.2676
 1212BOLB   C2D29086  36.992  23.875  23.303  0.1700 -0.2816  0.2360
 1212BOLB   C3D29087  36.629  23.820  23.083 -0.2654  0.2418  0.1168
 1212BOLB   C4D29088  36.480  23.527  23.007 -0.2493  0.0643 -0.2726
 1213BOLB   NC129089  13.997  31.229   0.846 -0.1491 -0.3626 -0.0254
 1213BOLB   PO129090  14.251  30.888   0.884  0.1405 -0.0685 -0.0837
 1213BOLB   GL129091  14.595  30.548   0.872 -0.1677  0.0097 -0.0902
 1213BOLB   GL229092  14.715  30.376   0.581 -0.3012  0.1619  0.2308
 1213BOLB   C1A29093  14.974  30.257   1.017  0.0229  0.1270  0.1280
 1213BOLB   C2A29094  15.256  29.799   0.962 -0.2149 -0.0498 -0.3271
 1213BOLB   C3A29095  15.399  29.466   0.910 -0.2312 -0.2400 -0.0300
 1213BOLB   C4A29096  15.325  29.099   0.896 -0.0813  0.1052 -0.1815
 1213BOLB   C1B29097  14.826  29.982   0.502 -0.2015  0.1693 -0.0822
 1213BOLB   C2B29098  14.849  29.626   0.172 -0.1678  0.1232 -0.2212
 1213BOLB   C3B29099  15.176  29.188   0.137  0.0494 -0.0601 -0.0733
 1213BOLB   C4B29100  15.494  29.144  26.745 -0.0117 -0.2443 -0.1914
 1213BOLB   NC229101  13.128  28.195   0.707  0.2126 -0.1159  0.0343
 1213BOLB   PO229102  13.563  27.956   0.549  0.1192 -0.4480 -0.1748
 1213BOLB   GL329103  13.969  27.715   0.463 -0.1011  0.2481 -0.2122
 1213BOLB   GL429104  13.952  27.621   0.111 -0.0555 -0.4821 -0.3443
 1213BOLB   C1C29105  14.342  27.920   0.526 -0.1885 -0.0298  0.1409
 1213BOLB   C2C29106  14.822  28.080   0.621 -0.0913  0.1844  0.0705
 1213BOLB   C3C29107  15.197  28.365   0.590 -0.0415  0.3149 -0.2322
 1213BOLB   C4C29108  15.259  28.674   0.749 -0.1121  0.2725 -0.0105
 1213BOLB   C1D29109  14.225  27.888   0.022  0.0777 -0.3484 -0.0334
 1213BOLB   C2D29110  14.706  27.897   0.066  0.0833  0.0642 -0.0799
 1213BOLB   C3D29111  15.143  27.877   0.251 -0.1357  0.2371 -0.0437
 1213BOLB   C4D29112  15.535  28.027   0.351 -0.5832 -0.0867  0.1317
 1214BOLB   NC129113  21.868  31.287  15.654  0.2991  0.0021 -0.3171
 1214BOLB   PO129114  21.596  31.125  16.017  0.0390  0.0071 -0.3400
 1214BOLB   GL129115  21.317  31.347  15.864 -0.0975 -0.0843  0.0450
 1214BOLB   GL229116  21.388  31.546  15.542  0.4016 -0.1847  0.2419
 1214BOLB   C1A29117  21.008  31.292  15.761 -0.0772 -0.2514 -0.2338
 1214BOLB   C2A29118  20.757  31.336  15.522 -0.1663  0.0945 -0.0292
 1214BOLB   C3A29119  20.555  31.374  15.173  0.2907  0.0730  0.0968
 1214BOLB   C4A29120  20.229  31.290  15.030  0.2895 -0.4780  0.0584
 1214BOLB   C1B29121  21.153  31.707  15.284 -0.1932 -0.0025 -0.0097
 1214BOLB   C2B29122  20.945  31.993  14.986  0.2714  0.3784  0.1256
 1214BOLB   C3B29123  20.611  32.354  15.144  0.3508  0.1094 -0.0811
 1214BOLB   C4B29124  20.277  32.553  14.833  0.1715  0.1438  0.3209
 1214BOLB   NC229125  18.560  32.278  12.973 -0.0830 -0.1027 -0.0844
 1214BOLB   PO229126  18.944  32.040  13.186  0.0602  0.0893  0.2027
 1214BOLB   GL329127  18.930  32.111  13.640  0.1551  0.0328  0.2799
 1214BOLB   GL429128  18.757  32.367  13.795  0.3528 -0.0446  0.1779
 1214BOLB   C1C29129  19.295  31.893  13.915 -0.0377 -0.0923  0.2561
 1214BOLB   C2C29130  19.612  31.585  14.101  0.0395  0.0479  0.0307
 1214BOLB   C3C29131  19.785  31.669  14.436  0.0699 -0.4562 -0.2072
 1214BOLB   C4C29132  19.987  31.415  14.649 -0.5319 -0.0409  0.2101
 1214BOLB   C1D29133  19.016  32.606  14.152  0.2699  0.1605 -0.1425
 1214BOLB   C2D29134  19.266  32.893  14.378 -0.1445  0.1433 -0.4521
 1214BOLB   C3D29135  19.659  33.007  14.586  0.0387 -0.1496  0.0175
 1214BOLB   C4D29136  20.062  32.941  14.761 -0.2554 -0.1849 -0.0240
 1215BOLB   NC129137  28.430  37.855  22.642  0.0280  0.3558 -0.0631
 1215BOLB   PO129138  28.257  37.794  22.988  0.0020 -0.1728 -0.0838
 1215BOLB   GL129139  28.422  38.262  22.971  0.0436 -0.0558  0.0770
 1215BOLB   GL229140  28.176  38.436  22.968  0.0418 -0.1462  0.1680
 1215BOLB   C1A29141  28.589  38.705  23.019  0.1871 -0.0282  0.1756
 1215BOLB   C2A29142  28.529  39.123  22.763 -0.0047  0.2223  0.0055
 1215BOLB   C3A29143  28.634  39.477  22.762 -0.2175  0.3049 -0.5918
 1215BOLB   C4A29144  28.639  39.898  22.671  0.1788 -0.1617 -0.1104
 1215BOLB   C1B29145  28.086  38.821  22.894 -0.0442  0.0386 -0.1772
 1215BOLB   C2B29146  28.058  39.216  22.741 -0.0823 -0.0439  0.2309
 1215BOLB   C3B29147  28.178  39.636  22.674 -0.0169 -0.1052  0.3264
 1215BOLB   C4B29148  28.086  39.806  22.188  0.0040  0.0106 -0.2742
 1215BOLB   NC229149  29.151  42.230  23.349  0.1539  0.0377  0.1140
 1215BOLB   PO229150  28.839  42.111  23.575 -0.2172 -0.1039  0.0284
 1215BOLB   GL329151  28.754  41.749  23.423  0.1572  0.0916  0.0711
 1215BOLB   GL429152  28.945  41.658  23.195  0.3307  0.2689  0.1479
 1215BOLB   C1C29153  28.571  41.350  23.217  0.1585 -0.1111 -0.1320
 1215BOLB   C2C29154  28.489  40.936  23.043  0.0421 -0.0123 -0.0247
 1215BOLB   C3C29155  28.477  40.573  23.081  0.0865 -0.0276  0.2639
 1215BOLB   C4C29156  28.403  40.272  22.846  0.0237  0.0573  0.1236
 1215BOLB   C1D29157  29.085  41.389  22.912 -0.2413  0.1402  0.1526
 1215BOLB   C2D29158  29.315  41.108  22.645 -0.0129 -0.3564  0.3154
 1215BOLB   C3D29159  29.635  40.838  22.584 -0.0009  0.1360  0.0333
 1215BOLB   C4D29160  29.912  40.550  22.757  0.4014 -0.1036  0.2081
 1216BOLB   NC129161  19.978  30.471  21.873 -0.0795  0.2208 -0.0831
 1216BOLB   PO129162  19.648  30.423  21.470  0.1330  0.2234  0.2732
 1216BOLB   GL129163  19.137  30.520  21.271 -0.1031  0.1696  0.1490
 1216BOLB   GL229164  18.974  30.208  21.336 -0.5068 -0.1127  0.2129
 1216BOLB   C1A29165  18.824  30.687  21.109  0.2366 -0.0954  0.2547
 1216BOLB   C2A29166  18.483  30.887  20.928  0.2239 -0.1491  0.0765
 1216BOLB   C3A29167  18.297  31.111  20.607 -0.0464 -0.4896  0.2569
 1216BOLB   C4A29168  17.811  31.128  20.570 -0.0807  0.0584 -0.1199
 1216BOLB   C1B29169  18.650  29.906  21.260 -0.0342 -0.0290 -0.1998
 1216BOLB   C2B29170  18.320  29.723  21.304 -0.2732 -0.3381 -0.0215
 1216BOLB   C3B29171  17.974  29.720  21.075  0.0358  0.0651  0.1610
 1216BOLB   C4B29172  17.738  29.309  21.032  0.0919  0.0357  0.1841
 1216BOLB   NC229173  14.848  31.815  21.067 -0.0568  0.0714  0.0702
 1216BOLB   PO229174  15.105  31.472  21.163 -0.0451  0.1948 -0.0946
 1216BOLB   GL329175  15.548  31.348  20.949 -0.0693 -0.0402 -0.0801
 1216BOLB   GL429176  15.540  31.181  20.721  0.1032 -0.0426 -0.0505
 1216BOLB   C1C29177  16.032  31.372  20.963  0.0288  0.2195 -0.2399
 1216BOLB   C2C29178  16.413  31.177  20.726 -0.0462 -0.0037 -0.1227
 1216BOLB   C3C29179  16.822  31.142  20.767  0.0994  0.1415 -0.0834
 1216BOLB   C4C29180  17.344  31.104  20.607  0.2723 -0.3254  0.0722
 1216BOLB   C1D29181  15.948  31.344  20.502  0.0241  0.0003  0.1079
 1216BOLB   C2D29182  16.278  31.367  20.285  0.1960  0.0553 -0.0885
 1216BOLB   C3D29183  16.569  31.123  20.203 -0.2853 -0.1195 -0.0824
 1216BOLB   C4D29184  16.727  30.706  20.150  0.3991  0.3458  0.2197
 1217BOLB   NC129185  33.248  24.895  25.667 -0.2473  0.1084 -0.2975
 1217BOLB   PO129186  33.124  25.096  26.055 -0.4450 -0.0893 -0.0033
 1217BOLB   GL129187  33.300  24.823  26.391  0.1908 -0.0554 -0.3158
 1217BOLB   GL229188  33.322  24.525  26.217 -0.1982 -0.1297  0.1493
 1217BOLB   C1A29189  33.681  24.736  26.595  0.1799  0.0716 -0.1252
 1217BOLB   C2A29190  33.895  24.660  26.917 -0.1181  0.0604 -0.2656
 1217BOLB   C3A29191  33.989  24.689   0.409 -0.0257 -0.0243 -0.0923
 1217BOLB   C4A29192  34.303  24.773   0.633 -0.0073 -0.0432  0.3259
 1217BOLB   C1B29193  33.583  24.315  26.088 -0.3595 -0.0819  0.5531
 1217BOLB   C2B29194  33.937  24.050  26.224  0.2169 -0.0541 -0.1555
 1217BOLB   C3B29195  34.316  23.979  26.435  0.3661 -0.0400 -0.1267
 1217BOLB   C4B29196  34.591  23.747  26.521 -0.2135 -0.2134 -0.2746
 1217BOLB   NC229197  35.969  23.868   1.813 -0.4464  0.1544  0.3258
 1217BOLB   PO229198  35.982  23.996   2.233  0.1855  0.2809  0.0722
 1217BOLB   GL329199  35.589  24.242   2.072 -0.1183 -0.1039  0.0820
 1217BOLB   GL429200  35.599  24.599   2.233  0.0378 -0.3019 -0.0144
 1217BOLB   C1C29201  35.502  24.518   1.695  0.2262  0.0360 -0.0770
 1217BOLB   C2C29202  35.158  24.836   1.579  0.0423  0.3119  0.4019
 1217BOLB   C3C29203  34.714  24.869   1.315 -0.1654 -0.0630  0.0902
 1217BOLB   C4C29204  34.538  24.936   1.003  0.0278  0.0432  0.1469
 1217BOLB   C1D29205  35.390  24.926   1.985  0.0327  0.1224 -0.0298
 1217BOLB   C2D29206  35.343  25.362   2.049  0.0431  0.1189  0.3539
 1217BOLB   C3D29207  35.322  25.836   2.124 -0.0581 -0.0028  0.2820
 1217BOLB   C4D29208  35.516  26.283   2.158 -0.5565  0.0575 -0.3255
 1218BOLB   NC129209  29.708  37.780  23.314  0.1786 -0.0948  0.4672
 1218BOLB   PO129210  30.054  37.810  23.105  0.1067  0.0456 -0.2766
 1218BOLB   GL129211  29.939  38.254  23.243 -0.2353 -0.0518  0.1038
 1218BOLB   GL229212  29.773  38.258  23.562 -0.0050 -0.0268  0.0379
 1218BOLB   C1A29213  29.954  38.658  23.310 -0.3655 -0.2839 -0.0547
 1218BOLB   C2A29214  30.233  38.913  23.556 -0.0033 -0.3303 -0.1469
 1218BOLB   C3A29215  30.294  39.319  23.819  0.0944 -0.1100  0.0218
 1218BOLB   C4A29216  30.284  39.732  23.696  0.1177  0.0596 -0.0764
 1218BOLB   C1B29217  29.793  38.653  23.788 -0.1917  0.3339 -0.0178
 1218BOLB   C2B29218  29.790  39.080  23.886 -0.0950  0.4165  0.2210
 1218BOLB   C3B29219  29.895  39.520  24.178  0.2304 -0.2012 -0.1887
 1218BOLB   C4B29220  29.923  40.072  24.042  0.1428 -0.2512  0.1095
 1218BOLB   NC229221  30.726  41.911  24.164  0.0239  0.2534  0.4072
 1218BOLB   PO229222  30.581  41.980  23.695  0.0613  0.1246  0.1000
 1218BOLB   GL329223  30.432  41.568  23.635 -0.3219  0.2697  0.1612
 1218BOLB   GL429224  30.526  41.343  23.323 -0.0110 -0.0363 -0.1679
 1218BOLB   C1C29225  30.160  41.291  23.754 -0.1324  0.4586  0.2326
 1218BOLB   C2C29226  29.958  40.999  23.882 -0.2246 -0.0706 -0.2202
 1218BOLB   C3C29227  30.092  40.630  23.707 -0.2997  0.0952  0.0151
 1218BOLB   C4C29228  30.280  40.178  23.513  0.2815 -0.1242 -0.2644
 1218BOLB   C1D29229  30.476  40.996  23.464  0.3165  0.2685  0.2563
 1218BOLB   C2D29230  30.357  40.611  23.198  0.0228 -0.1145  0.0938
 1218BOLB   C3D29231  30.271  40.270  22.978 -0.3777 -0.3208  0.0114
 1218BOLB   C4D29232  30.449  39.940  22.803 -0.2826 -0.0324 -0.3926
 1219BOLB   NC129233  19.473  30.085  21.150 -0.0119  0.0520 -0.1370
 1219BOLB   PO129234  19.402  29.928  20.749  0.1561  0.3080  0.0301
 1219BOLB   GL129235  19.040  29.762  20.507 -0.0685 -0.0218  0.0942
 1219BOLB   GL229236  18.940  29.499  20.637  0.1341  0.2172 -0.1519
 1219BOLB   C1A29237  18.549  29.847  20.491  0.1761  0.0905  0.0279
 1219BOLB   C2A29238  18.206  29.756  20.348  0.1109  0.2629  0.2151
 1219BOLB   C3A29239  17.850  29.824  20.127  0.5394 -0.1131 -0.2224
 1219BOLB   C4A29240  17.532  30.096  20.024  0.0231 -0.4432  0.2664
 1219BOLB   C1B29241  18.868  29.347  21.065  0.0777 -0.0221  0.2258
 1219BOLB   C2B29242  19.051  29.420  21.490  0.2685  0.0469 -0.1463
 1219BOLB   C3B29243  19.404  29.524  21.727  0.1577  0.0535  0.0471
 1219BOLB   C4B29244  19.424  29.415  22.186  0.1711 -0.0490 -0.0172
 1219BOLB   NC229245  15.129  31.422  19.858  0.0422  0.0160  0.2858
 1219BOLB   PO229246  15.262  31.104  19.576  0.0227 -0.0510 -0.2770
 1219BOLB   GL329247  15.603  30.804  19.682  0.0579 -0.4622 -0.1353
 1219BOLB   GL429248  15.482  30.590  19.993  0.0648  0.0516  0.1284
 1219BOLB   C1C29249  16.040  30.783  19.634 -0.1771  0.3038 -0.1667
 1219BOLB   C2C29250  16.363  30.621  19.766 -0.0637  0.0798  0.2245
 1219BOLB   C3C29251  16.811  30.363  19.819  0.1798 -0.2366 -0.0976
 1219BOLB   C4C29252  17.117  30.072  19.839  0.0858  0.2504 -0.2469
 1219BOLB   C1D29253  15.913  30.463  20.181 -0.2146 -0.1865 -0.2037
 1219BOLB   C2D29254  16.388  30.338  20.161 -0.0343 -0.1336 -0.2038
 1219BOLB   C3D29255  16.810  30.232  20.376 -0.0489  0.2371  0.0436
 1219BOLB   C4D29256  17.197  30.429  20.220  0.2104  0.1425  0.0423
 1220BOLB   NC129257  29.618  30.480  14.118  0.2366  0.1270  0.0773
 1220BOLB   PO129258  30.001  30.530  14.153  0.1382  0.0100 -0.0100
 1220BOLB   GL129259  30.377  30.667  13.847  0.1602  0.2515  0.1584
 1220BOLB   GL229260  30.629  30.967  13.795  0.6291 -0.0755  0.1585
 1220BOLB   C1A29261  30.638  30.478  13.530 -0.3385 -0.1528 -0.1440
 1220BOLB   C2A29262  30.733  30.704  13.174  0.1597  0.1961  0.0242
 1220BOLB   C3A29263  30.723  30.529  12.725  0.0039 -0.1620 -0.2428
 1220BOLB   C4A29264  30.836  30.898  12.376  0.3344  0.1503 -0.0756
 1220BOLB   C1B29265  30.936  31.197  13.485  0.1319 -0.0572 -0.2143
 1220BOLB   C2B29266  31.071  31.051  13.074 -0.2135  0.1408 -0.3103
 1220BOLB   C3B29267  31.157  30.823  12.741 -0.4570 -0.0804  0.0931
 1220BOLB   C4B29268  31.664  30.698  12.491 -0.5907 -0.1623  0.2032
 1220BOLB   NC229269  32.600  31.606  10.050 -0.2614 -0.0039 -0.0647
 1220BOLB   PO229270  32.384  31.446  10.441  0.2730 -0.1711  0.2502
 1220BOLB   GL329271  32.019  31.521  10.792 -0.0888 -0.1036  0.1631
 1220BOLB   GL429272  32.182  31.209  10.904 -0.1260  0.0145 -0.2529
 1220BOLB   C1C29273  31.794  31.577  11.061 -0.0505  0.2167 -0.0433
 1220BOLB   C2C29274  31.530  31.452  11.453 -0.0475  0.0941 -0.3299
 1220BOLB   C3C29275  31.372  31.223  11.833 -0.2631 -0.0054  0.0417
 1220BOLB   C4C29276  31.199  31.076  12.168 -0.2707 -0.0733 -0.0897
 1220BOLB   C1D29277  31.788  31.056  11.094 -0.0434  0.0136  0.0193
 1220BOLB   C2D29278  31.406  31.021  11.367 -0.0214  0.0975 -0.0230
 1220BOLB   C3D29279  30.918  31.152  11.489 -0.0091 -0.0617  0.0412
 1220BOLB   C4D29280  30.781  31.141  11.870 -0.2025  0.0695 -0.1206
 1221BOLB   NC129281  28.525  34.279   1.481  0.2381 -0.1040  0.1849
 1221BOLB   PO129282  28.265  34.433   1.764  0.1747 -0.0832 -0.1066
 1221BOLB   GL129283  28.182  34.740   2.046  0.3328 -0.3609 -0.0650
 1221BOLB   GL229284  28.226  34.478   2.270 -0.2185  0.4106 -0.0809
 1221BOLB   C1A29285  27.849  34.949   2.191 -0.0336 -0.0030  0.2612
 1221BOLB   C2A29286  27.827  34.984   2.741  0.1849  0.0664  0.2324
 1221BOLB   C3A29287  27.893  34.986   3.245  0.0232 -0.0552 -0.1043
 1221BOLB   C4A29288  28.082  34.721   3.442  0.3205  0.1109  0.1352
 1221BOLB   C1B29289  28.270  34.926   2.496  0.1347  0.2767 -0.2935
 1221BOLB   C2B29290  28.612  35.168   2.737  0.1151  0.0802  0.0467
 1221BOLB   C3B29291  28.735  35.432   3.085 -0.0748 -0.1708 -0.1906
 1221BOLB   C4B29292  28.738  35.605   3.449 -0.1805 -0.1384  0.2342
 1221BOLB   NC229293  28.183  35.489   5.304  0.1023 -0.2702  0.2909
 1221BOLB   PO229294  28.562  35.756   5.419 -0.3421  0.0102 -0.3007
 1221BOLB   GL329295  28.512  35.763   4.994 -0.0422 -0.3784 -0.0678
 1221BOLB   GL429296  28.598  35.387   5.042  0.2102  0.0054 -0.3718
 1221BOLB   C1C29297  28.577  35.724   4.611 -0.0778  0.2325 -0.1125
 1221BOLB   C2C29298  28.588  35.512   4.231 -0.2830  0.0450 -0.0666
 1221BOLB   C3C29299  28.434  35.259   3.920  0.2190  0.1568  0.4859
 1221BOLB   C4C29300  28.302  34.921   3.770  0.0297 -0.0648 -0.2546
 1221BOLB   C1D29301  28.553  35.178   4.625 -0.3159 -0.3390  0.2655
 1221BOLB   C2D29302  28.789  34.974   4.269  0.0468 -0.0963  0.0964
 1221BOLB   C3D29303  28.711  34.728   3.901 -0.2038 -0.1076  0.1044
 1221BOLB   C4D29304  28.588  34.395   3.632  0.1224 -0.0424 -0.1279
 1222BOLB   NC129305  25.651  32.400   2.733 -0.1238 -0.1168  0.1372
 1222BOLB   PO129306  26.129  32.266   2.798 -0.0093 -0.0498 -0.1511
 1222BOLB   GL129307  25.944  32.531   3.137 -0.2724  0.2337 -0.2515
 1222BOLB   GL229308  26.163  32.728   3.242  0.1401  0.1088  0.0630
 1222BOLB   C1A29309  25.638  32.449   3.412  0.0931 -0.1000 -0.0149
 1222BOLB   C2A29310  25.185  32.636   3.359  0.1818  0.1278  0.2936
 1222BOLB   C3A29311  24.848  32.924   3.510  0.2932 -0.2740  0.0641
 1222BOLB   C4A29312  24.978  33.325   3.847 -0.3481  0.0089 -0.0329
 1222BOLB   C1B29313  25.969  32.954   3.489 -0.3068  0.2566 -0.2138
 1222BOLB   C2B29314  26.050  33.353   3.665  0.0281  0.4886 -0.0005
 1222BOLB   C3B29315  26.134  33.458   4.116  0.0925  0.2499 -0.0775
 1222BOLB   C4B29316  26.299  33.099   4.457 -0.0018  0.2836 -0.1025
 1222BOLB   NC229317  24.039  35.264   5.716 -0.0523  0.1210  0.0373
 1222BOLB   PO229318  24.145  34.832   5.701  0.2708  0.1425 -0.0883
 1222BOLB   GL329319  24.411  34.537   5.444 -0.1294 -0.0578  0.0369
 1222BOLB   GL429320  24.691  34.707   5.373  0.0887 -0.3031 -0.0041
 1222BOLB   C1C29321  24.609  34.259   5.165 -0.3140 -0.1233 -0.1270
 1222BOLB   C2C29322  24.701  33.831   4.909  0.0388 -0.1558 -0.4736
 1222BOLB   C3C29323  24.917  33.660   4.493 -0.1298 -0.2514  0.0606
 1222BOLB   C4C29324  25.059  33.630   4.110  0.0896  0.0528 -0.0543
 1222BOLB   C1D29325  24.632  34.811   4.968 -0.1954 -0.1060 -0.0123
 1222BOLB   C2D29326  24.707  34.718   4.600  0.3036  0.3066  0.2192
 1222BOLB   C3D29327  24.741  34.958   4.218 -0.4445  0.2106  0.3938
 1222BOLB   C4D29328  25.074  35.176   3.876 -0.2183 -0.0758 -0.0367
 1223BOLB   NC129329  20.470  33.932  22.148  0.3363 -0.4672  0.0996
 1223BOLB   PO129330  20.351  34.177  22.486 -0.3480  0.0812 -0.1013
 1223BOLB   GL129331  20.111  34.453  22.730 -0.0423 -0.0301  0.1740
 1223BOLB   GL229332  20.347  34.654  22.993 -0.0310  0.1487 -0.1411
 1223BOLB   C1A29333  19.712  34.719  22.976 -0.1106  0.0501  0.4032
 1223BOLB   C2A29334  19.235  34.675  22.865 -0.0360  0.0442  0.0356
 1223BOLB   C3A29335  19.031  34.227  22.811 -0.1449 -0.1115  0.1951
 1223BOLB   C4A29336  18.805  33.890  22.571 -0.2230 -0.2858 -0.0156
 1223BOLB   C1B29337  20.098  34.982  23.167 -0.3871  0.0247 -0.3598
 1223BOLB   C2B29338  19.794  35.327  23.283  0.0490  0.1722  0.0541
 1223BOLB   C3B29339  19.435  35.591  23.338  0.1811  0.1690  0.0979
 1223BOLB   C4B29340  19.225  35.842  23.115 -0.1683  0.3809 -0.2938
 1223BOLB   NC229341  16.661  34.544  21.575 -0.2107  0.1448  0.1125
 1223BOLB   PO229342  16.709  34.761  21.973 -0.3904  0.0800  0.5211
 1223BOLB   GL329343  17.103  34.635  22.060  0.1367  0.2918  0.0904
 1223BOLB   GL429344  17.228  34.645  21.745  0.2753 -0.1807  0.3336
 1223BOLB   C1C29345  17.482  34.320  22.027 -0.4114 -0.1528 -0.0595
 1223BOLB   C2C29346  17.828  34.258  22.003 -0.0122 -0.0163 -0.0285
 1223BOLB   C3C29347  18.113  33.947  22.202  0.1209  0.2358  0.2453
 1223BOLB   C4C29348  18.563  33.845  22.203 -0.0168  0.2616 -0.0669
 1223BOLB   C1D29349  17.684  34.742  21.747 -0.2166  0.1492 -0.2205
 1223BOLB   C2D29350  18.001  34.895  22.072  0.0260  0.2999 -0.2128
 1223BOLB   C3D29351  18.390  34.787  22.311 -0.0463 -0.0087  0.0942
 1223BOLB   C4D29352  18.761  34.679  22.573  0.3007  0.0188  0.2365
 1224BOLB   NC129353  32.875  30.914  15.195 -0.1418  0.0632 -0.0682
 1224BOLB   PO129354  32.489  31.032  15.026 -0.2526 -0.0847 -0.3056
 1224BOLB   GL129355  32.757  31.313  14.766 -0.0105 -0.3010  0.3295
 1224BOLB   GL229356  33.057  31.216  14.746 -0.0353  0.0241 -0.2105
 1224BOLB   C1A29357  32.932  31.573  14.413  0.0321  0.3039 -0.2666
 1224BOLB   C2A29358  33.096  31.783  14.029  0.1945  0.1829 -0.1760
 1224BOLB   C3A29359  33.182  31.658  13.550  0.2060  0.0303 -0.1087
 1224BOLB   C4A29360  33.105  31.869  13.081 -0.0437 -0.0584  0.2178
 1224BOLB   C1B29361  33.037  31.060  14.265  0.0257  0.1592 -0.0041
 1224BOLB   C2B29362  33.304  31.352  13.927  0.0476  0.0263 -0.1937
 1224BOLB   C3B29363  33.403  31.204  13.568  0.0141 -0.1172 -0.0952
 1224BOLB   C4B29364  33.600  31.037  13.217 -0.1097  0.1300  0.1166
 1224BOLB   NC229365  34.213  33.116  11.396  0.2151  0.0166 -0.2579
 1224BOLB   PO229366  34.528  33.202  11.765  0.2987  0.5485  0.2531
 1224BOLB   GL329367  34.227  32.831  11.833  0.3783 -0.1243 -0.0351
 1224BOLB   GL429368  33.969  32.756  12.181 -0.2926 -0.1276  0.2293
 1224BOLB   C1C29369  33.757  32.595  11.753 -0.4021  0.0423 -0.0744
 1224BOLB   C2C29370  33.463  32.366  12.062 -0.0739  0.1238  0.1077
 1224BOLB   C3C29371  33.158  32.459  12.418 -0.0850  0.1436 -0.1048
 1224BOLB   C4C29372  33.041  32.150  12.769  0.1621 -0.5209  0.1281
 1224BOLB   C1D29373  33.930  32.298  12.153  0.0153 -0.4778 -0.1267
 1224BOLB   C2D29374  34.112  31.955  12.445  0.2075 -0.1218 -0.4614
 1224BOLB   C3D29375  34.249  31.586  12.676  0.2397  0.0788 -0.1949
 1224BOLB   C4D29376  33.930  31.361  12.863 -0.4090 -0.1428 -0.1945
 1225BOLB   NC129377  22.734  35.078  18.823 -0.1376  0.2746  0.2041
 1225BOLB   PO129378  22.822  35.401  19.174 -0.1760 -0.0662 -0.2864
 1225BOLB   GL129379  22.482  35.762  19.184 -0.1340 -0.2572  0.0441
 1225BOLB   GL229380  22.265  35.746  19.419 -0.1435 -0.1011 -0.1411
 1225BOLB   C1A29381  22.344  36.121  19.127  0.1386  0.1422  0.0130
 1225BOLB   C2A29382  22.245  36.500  19.266 -0.2572  0.2593 -0.0838
 1225BOLB   C3A29383  22.019  36.731  19.481 -0.0400 -0.0358 -0.1293
 1225BOLB   C4A29384  21.833  37.105  19.289  0.0167  0.0368 -0.1317
 1225BOLB   C1B29385  21.905  36.094  19.347  0.0804 -0.2689  0.2551
 1225BOLB   C2B29386  21.749  36.359  19.035 -0.2088 -0.0109  0.0883
 1225BOLB   C3B29387  21.504  36.521  18.669  0.0120  0.4285 -0.2796
 1225BOLB   C4B29388  21.209  36.723  18.671 -0.1812  0.1736 -0.0377
 1225BOLB   NC229389  19.931  38.687  18.742 -0.1542 -0.2573 -0.3142
 1225BOLB   PO229390  19.945  38.598  19.189  0.0713  0.0147  0.0831
 1225BOLB   GL329391  20.142  38.262  18.993 -0.1306  0.2394  0.1560
 1225BOLB   GL429392  19.957  38.120  18.806  0.1136  0.2806 -0.0432
 1225BOLB   C1C29393  20.571  38.032  18.935 -0.1536 -0.2718  0.0806
 1225BOLB   C2C29394  20.896  37.794  19.017  0.0723  0.0267 -0.3214
 1225BOLB   C3C29395  21.316  37.655  18.983  0.0034  0.0441  0.1272
 1225BOLB   C4C29396  21.581  37.311  18.963  0.1359  0.0193 -0.3223
 1225BOLB   C1D29397  20.305  38.104  18.502  0.0476 -0.1053 -0.0219
 1225BOLB   C2D29398  20.625  38.367  18.290  0.1041 -0.1471 -0.0269
 1225BOLB   C3D29399  20.837  38.220  17.829  0.0609 -0.0900 -0.3705
 1225BOLB   C4D29400  21.192  38.264  17.721 -0.0283 -0.3772 -0.0387
 1226BOLB   NC129401  26.462  37.424  18.706  0.0623 -0.3374  0.0626
 1226BOLB   PO129402  26.688  37.433  18.314 -0.1541 -0.0259 -0.2305
 1226BOLB   GL129403  26.602  37.592  17.904  0.3492  0.0561 -0.0736
 1226BOLB   GL229404  26.860  37.541  17.685 -0.0388 -0.0970  0.0474
 1226BOLB   C1A29405  26.466  37.877  17.637  0.2105 -0.1916 -0.1092
 1226BOLB   C2A29406  26.475  38.287  17.431  0.0248  0.4122 -0.1906
 1226BOLB   C3A29407  26.765  38.584  17.286 -0.2061 -0.1914  0.0862
 1226BOLB   C4A29408  26.697  38.976  17.345 -0.3851  0.0376  0.3313
 1226BOLB   C1B29409  27.000  37.898  17.617 -0.1627  0.0049 -0.0229
 1226BOLB   C2B29410  27.187  38.170  17.371  0.2651 -0.0960 -0.2759
 1226BOLB   C3B29411  27.270  38.173  16.912 -0.2604 -0.2556  0.1123
 1226BOLB   C4B29412  27.431  38.331  16.432 -0.0063  0.0641 -0.2079
 1226BOLB   NC229413  26.156  41.707  18.282  0.0378  0.1359 -0.0728
 1226BOLB   PO229414  25.933  41.396  18.058  0.2167 -0.1138  0.0057
 1226BOLB   GL329415  25.817  40.892  18.070  0.0972 -0.1505  0.1095
 1226BOLB   GL429416  25.606  40.735  17.909 -0.1395 -0.0796 -0.1053
 1226BOLB   C1C29417  26.033  40.446  18.028 -0.0555 -0.0022  0.0006
 1226BOLB   C2C29418  26.252  40.100  17.844 -0.1400  0.1073 -0.0705
 1226BOLB   C3C29419  26.341  39.679  17.661 -0.2839 -0.1872 -0.1000
 1226BOLB   C4C29420  26.561  39.431  17.419 -0.0707 -0.0671 -0.0555
 1226BOLB   C1D29421  25.581  40.297  18.193 -0.1093  0.1750 -0.0338
 1226BOLB   C2D29422  25.476  39.881  18.219  0.1578 -0.0720 -0.3168
 1226BOLB   C3D29423  25.777  39.669  18.490 -0.0484  0.1338 -0.3558
 1226BOLB   C4D29424  26.217  39.565  18.739  0.0611 -0.0322 -0.1996
 1227BOLB   NC129425  27.759  38.199  21.426  0.3993 -0.3669 -0.1798
 1227BOLB   PO129426  27.763  38.144  21.038  0.0113  0.1370 -0.1822
 1227BOLB   GL129427  27.728  38.508  20.990 -0.2026 -0.0848  0.0260
 1227BOLB   GL229428  27.931  38.582  21.146 -0.4369  0.2046  0.0160
 1227BOLB   C1A29429  27.768  38.866  20.839 -0.0583  0.0924 -0.0539
 1227BOLB   C2A29430  27.607  39.094  20.553  0.3060 -0.3817 -0.1681
 1227BOLB   C3A29431  27.489  39.406  20.141 -0.0590 -0.1852 -0.1836
 1227BOLB   C4A29432  27.793  39.686  19.957  0.1260  0.0532  0.0961
 1227BOLB   C1B29433  28.049  38.974  21.368 -0.3471  0.1137  0.0871
 1227BOLB   C2B29434  28.361  39.144  21.546  0.2426 -0.3647 -0.0433
 1227BOLB   C3B29435  28.420  39.553  21.703  0.3651  0.2424 -0.3548
 1227BOLB   C4B29436  28.777  39.870  21.520 -0.2056 -0.4245  0.1830
 1227BOLB   NC229437  28.044  41.789  19.780  0.3610  0.2015 -0.1315
 1227BOLB   PO229438  27.901  41.706  20.168 -0.0671  0.2068 -0.0117
 1227BOLB   GL329439  27.684  41.407  19.847 -0.2390  0.1371  0.2087
 1227BOLB   GL429440  27.439  41.351  19.597  0.2874 -0.2243 -0.0153
 1227BOLB   C1C29441  27.895  41.153  19.566  0.1770 -0.1127  0.0863
 1227BOLB   C2C29442  27.941  40.751  19.534 -0.1390  0.0094 -0.1116
 1227BOLB   C3C29443  27.943  40.516  19.886  0.1804  0.1497 -0.1629
 1227BOLB   C4C29444  28.052  40.033  19.940  0.0951  0.0696 -0.1997
 1227BOLB   C1D29445  27.550  40.947  19.843  0.2423 -0.2141  0.2509
 1227BOLB   C2D29446  27.459  40.642  20.022  0.0706 -0.1148  0.2281
 1227BOLB   C3D29447  27.116  40.328  19.838  0.0929  0.1619 -0.3221
 1227BOLB   C4D29448  26.850  40.435  19.551  0.1820  0.0113  0.4945
 1228BOLB   NC129449  35.181  27.562  19.948  0.0671  0.1007  0.1477
 1228BOLB   PO129450  35.095  27.682  20.367 -0.0833 -0.0919 -0.0723
 1228BOLB   GL129451  35.410  27.381  20.393 -0.1974 -0.0762  0.1442
 1228BOLB   GL229452  35.459  27.141  20.476 -0.1206  0.0180  0.0564
 1228BOLB   C1A29453  35.944  27.247  20.305  0.0161 -0.1555  0.0111
 1228BOLB   C2A29454  36.281  26.945  20.112  0.1336 -0.1981  0.1322
 1228BOLB   C3A29455  36.498  26.599  19.906 -0.0160 -0.1413 -0.0180
 1228BOLB   C4A29456  36.743  26.671  19.646 -0.0578  0.0298  0.2205
 1228BOLB   C1B29457  35.682  26.785  20.296 -0.1326  0.1400  0.1605
 1228BOLB   C2B29458  36.145  26.551  20.350 -0.0894 -0.1590  0.1678
 1228BOLB   C3B29459  36.280  26.357  20.700  0.2819 -0.0408  0.1073
 1228BOLB   C4B29460  36.589  26.023  20.737  0.3420  0.4329 -0.1689
 1228BOLB   NC229461  38.915  26.599  18.856 -0.1897  0.1095 -0.1067
 1228BOLB   PO229462  38.809  26.413  18.481 -0.3881 -0.2887 -0.1561
 1228BOLB   GL329463  38.466  26.361  18.732 -0.1019  0.2440  0.1309
 1228BOLB   GL429464  38.258  26.404  18.549  0.2716  0.0963 -0.3218
 1228BOLB   C1C29465  38.127  26.459  18.997  0.1201 -0.0187 -0.1087
 1228BOLB   C2C29466  37.749  26.606  18.961  0.2490 -0.1450  0.0025
 1228BOLB   C3C29467  37.385  26.686  19.132  0.3073  0.3316  0.0512
 1228BOLB   C4C29468  37.059  26.439  19.379 -0.1946 -0.0495 -0.0073
 1228BOLB   C1D29469  38.085  26.903  18.735  0.0774  0.0020  0.0192
 1228BOLB   C2D29470  37.757  27.039  18.727  0.0572 -0.0717 -0.5332
 1228BOLB   C3D29471  37.299  26.958  18.741  0.0974  0.1223 -0.1747
 1228BOLB   C4D29472  36.841  27.051  18.879  0.5741 -0.0853  0.0273
 1229BOLB   NC129473  26.360  29.155   2.936 -0.2052 -0.0634  0.1109
 1229BOLB   PO129474  26.179  29.427   3.179  0.0908 -0.0093 -0.1625
 1229BOLB   GL129475  26.044  29.248   3.516  0.2534 -0.1894 -0.1065
 1229BOLB   GL229476  26.246  29.257   3.816 -0.0082 -0.2795 -0.0237
 1229BOLB   C1A29477  25.764  29.499   3.892 -0.3425  0.0391 -0.0394
 1229BOLB   C2A29478  25.757  29.853   4.065  0.2866  0.1750  0.2982
 1229BOLB   C3A29479  25.785  30.064   4.423 -0.0990  0.0602 -0.0213
 1229BOLB   C4A29480  25.921  30.329   4.751 -0.2608 -0.1222 -0.0989
 1229BOLB   C1B29481  26.525  29.466   4.150 -0.1204  0.0481  0.1213
 1229BOLB   C2B29482  26.641  29.131   4.495 -0.0116 -0.1598 -0.2594
 1229BOLB   C3B29483  26.449  28.897   4.836  0.1250 -0.1494 -0.3445
 1229BOLB   C4B29484  26.714  28.595   5.156  0.0449 -0.1617  0.2667
 1229BOLB   NC229485  25.939  30.853   7.194 -0.3263  0.0950 -0.0041
 1229BOLB   PO229486  25.505  30.715   7.039 -0.1299 -0.1337 -0.0382
 1229BOLB   GL329487  25.445  30.618   6.676 -0.1307 -0.3046  0.0591
 1229BOLB   GL429488  25.189  30.713   6.492  0.2574  0.2293  0.1304
 1229BOLB   C1C29489  25.629  30.680   6.273 -0.1445  0.2082 -0.3313
 1229BOLB   C2C29490  25.759  30.732   5.862 -0.0715 -0.0675  0.0238
 1229BOLB   C3C29491  26.020  30.849   5.561 -0.0153  0.2390 -0.0426
 1229BOLB   C4C29492  25.926  30.653   5.066  0.0229 -0.0286  0.0967
 1229BOLB   C1D29493  25.136  30.495   6.085 -0.5772  0.0121  0.4011
 1229BOLB   C2D29494  24.759  30.566   5.766 -0.1297  0.2276 -0.1910
 1229BOLB   C3D29495  24.820  30.738   5.343  0.0831 -0.0509  0.0065
 1229BOLB   C4D29496  24.591  30.971   5.071 -0.1038  0.1508 -0.2623
 1230BOLB   NC129497  30.285  31.645   2.668  0.0473 -0.1233  0.0143
 1230BOLB   PO129498  30.548  31.375   2.979  0.1200 -0.4474  0.0064
 1230BOLB   GL129499  30.901  31.551   3.339  0.0917 -0.0298 -0.3598
 1230BOLB   GL229500  31.106  31.374   3.197  0.0364 -0.1594  0.1270
 1230BOLB   C1A29501  31.021  31.637   3.824  0.2669  0.2478 -0.1754
 1230BOLB   C2A29502  31.265  31.469   4.108  0.1281 -0.0524  0.2617
 1230BOLB   C3A29503  31.366  31.061   4.343  0.2223 -0.1519 -0.3634
 1230BOLB   C4A29504  31.223  30.886   4.812  0.1761  0.0868 -0.1308
 1230BOLB   C1B29505  31.652  31.279   3.263  0.3045 -0.1221 -0.1498
 1230BOLB   C2B29506  31.741  31.159   3.728  0.3060 -0.0634 -0.0107
 1230BOLB   C3B29507  31.927  30.890   4.002 -0.2261  0.0499 -0.0735
 1230BOLB   C4B29508  32.311  30.802   4.276 -0.0883  0.5925 -0.2061
 1230BOLB   NC229509  32.887  30.883   6.821  0.1595  0.2772 -0.0119
 1230BOLB   PO229510  32.919  30.820   6.484 -0.2957  0.1936  0.0693
 1230BOLB   GL329511  32.783  30.800   6.132 -0.0946  0.2367 -0.1074
 1230BOLB   GL429512  32.995  30.612   5.890 -0.1083 -0.0737 -0.0099
 1230BOLB   C1C29513  32.493  30.650   5.796  0.0853  0.3067  0.1295
 1230BOLB   C2C29514  32.072  30.563   5.597  0.1321 -0.1076  0.2961
 1230BOLB   C3C29515  31.764  30.843   5.311  0.0797 -0.1557 -0.0052
 1230BOLB   C4C29516  31.386  31.060   5.182  0.3071  0.0783 -0.1276
 1230BOLB   C1D29517  32.915  30.223   5.737 -0.1802  0.1446  0.0888
 1230BOLB   C2D29518  32.859  30.115   5.273  0.0330 -0.4428 -0.3119
 1230BOLB   C3D29519  32.687  29.776   5.136 -0.1675 -0.0625  0.1652
 1230BOLB   C4D29520  32.535  29.342   5.334 -0.0562 -0.0578 -0.0624
 1231BOLB   NC129521  35.747  28.850  23.401 -0.3464  0.3206 -0.1706
 1231BOLB   PO129522  35.753  28.878  23.899  0.4205 -0.0778 -0.0018
 1231BOLB   GL129523  36.198  29.084  23.960  0.3759 -0.3101 -0.1330
 1231BOLB   GL229524  36.200  29.191  24.222  0.2379 -0.2966  0.0856
 1231BOLB   C1A29525  36.608  28.923  23.881 -0.5936 -0.0862  0.0431
 1231BOLB   C2A29526  37.020  29.123  24.003 -0.2153 -0.0976 -0.1687
 1231BOLB   C3A29527  37.104  29.370  23.614  0.2284  0.0201  0.0875
 1231BOLB   C4A29528  37.445  29.555  23.311  0.0585 -0.0172  0.1321
 1231BOLB   C1B29529  36.612  29.329  24.267  0.0237 -0.0266  0.1264
 1231BOLB   C2B29530  36.930  29.619  24.477 -0.2090  0.0500 -0.3537
 1231BOLB   C3B29531  37.217  29.955  24.402 -0.0797  0.2510  0.0651
 1231BOLB   C4B29532  36.988  30.388  24.450 -0.0054 -0.4820 -0.0801
 1231BOLB   NC229533  40.227  29.369  24.336  0.0795  0.2921  0.0769
 1231BOLB   PO229534  39.834  29.351  24.454  0.0490  0.0503 -0.0790
 1231BOLB   GL329535  39.397  29.240  24.292  0.2532 -0.0390  0.1408
 1231BOLB   GL429536  39.113  29.087  24.524 -0.0491  0.2183 -0.0211
 1231BOLB   C1C29537  39.005  29.222  24.012  0.0597  0.3212  0.2472
 1231BOLB   C2C29538  38.619  29.265  23.768 -0.0627 -0.2020 -0.2209
 1231BOLB   C3C29539  38.189  29.390  23.598  0.0578  0.0655 -0.1902
 1231BOLB   C4C29540  37.801  29.434  23.261  0.0159 -0.3865  0.1275
 1231BOLB   C1D29541  38.631  29.095  24.446  0.0867 -0.1057  0.0756
 1231BOLB   C2D29542  38.243  28.947  24.187  0.0698  0.0850 -0.0835
 1231BOLB   C3D29543  38.259  28.894  23.717  0.1300 -0.0243 -0.0706
 1231BOLB   C4D29544  37.974  28.976  23.340  0.1928  0.2355 -0.5086
 1232BOLB   NC129545  28.935  34.737  15.446 -0.0927 -0.1591 -0.2716
 1232BOLB   PO129546  29.207  35.054  15.604  0.0974 -0.0943  0.1605
 1232BOLB   GL129547  29.118  35.199  15.210  0.2377 -0.1001  0.0149
 1232BOLB   GL229548  28.942  35.364  15.141 -0.2236  0.1179  0.0245
 1232BOLB   C1A29549  29.299  35.207  14.817 -0.1103 -0.3596  0.1232
 1232BOLB   C2A29550  29.531  35.258  14.419  0.2962  0.2331  0.0975
 1232BOLB   C3A29551  29.446  35.459  14.093 -0.0345  0.1963  0.4601
 1232BOLB   C4A29552  29.367  35.573  13.620  0.1345 -0.0133  0.1402
 1232BOLB   C1B29553  29.222  35.760  14.835 -0.0364  0.2057 -0.1099
 1232BOLB   C2B29554  29.384  36.148  14.701  0.0501  0.0476  0.0836
 1232BOLB   C3B29555  29.135  36.368  14.370 -0.0276 -0.1406 -0.2028
 1232BOLB   C4B29556  29.175  36.625  14.022 -0.2164 -0.0842  0.0831
 1232BOLB   NC229557  30.120  37.107  12.557 -0.0108 -0.3205 -0.3587
 1232BOLB   PO229558  30.024  37.026  12.093 -0.2488 -0.0749  0.1156
 1232BOLB   GL329559  29.733  36.733  12.154  0.2939 -0.1303 -0.2450
 1232BOLB   GL429560  29.717  36.655  12.330  0.0408 -0.4090  0.0283
 1232BOLB   C1C29561  29.464  36.268  12.189 -0.2777 -0.1810  0.2543
 1232BOLB   C2C29562  29.284  36.179  12.549 -0.3889  0.2227  0.0976
 1232BOLB   C3C29563  29.361  36.188  13.012 -0.1847 -0.1295  0.1367
 1232BOLB   C4C29564  29.445  35.957  13.378 -0.1300  0.1110 -0.1309
 1232BOLB   C1D29565  29.569  36.535  12.632  0.0375  0.2652 -0.0883
 1232BOLB   C2D29566  29.712  36.514  13.048 -0.0622  0.0821  0.1950
 1232BOLB   C3D29567  29.889  36.341  13.446  0.1075 -0.2848  0.0754
 1232BOLB   C4D29568  30.103  36.069  13.490  0.1103  0.0780  0.3054
 1233BOLB   NC129569  23.015  30.757  14.604 -0.0521  0.0120  0.1162
 1233BOLB   PO129570  23.470  31.000  14.474  0.1681  0.0184 -0.1172
 1233BOLB   GL129571  23.335  31.172  14.087 -0.0247 -0.0993  0.0005
 1233BOLB   GL229572  23.370  31.057  13.854  0.2559  0.1185  0.0760
 1233BOLB   C1A29573  23.023  31.370  13.796 -0.0567  0.1520 -0.0781
 1233BOLB   C2A29574  22.881  31.328  13.463 -0.3430 -0.0391  0.2060
 1233BOLB   C3A29575  22.708  31.266  13.112  0.1207  0.0491 -0.0008
 1233BOLB   C4A29576  22.427  30.992  12.965  0.2086  0.2654  0.1092
 1233BOLB   C1B29577  23.221  30.911  13.497 -0.2523  0.1332 -0.2307
 1233BOLB   C2B29578  22.982  30.820  13.140 -0.0484 -0.1305 -0.1785
 1233BOLB   C3B29579  22.755  30.622  12.779  0.1452  0.0088  0.1810
 1233BOLB   C4B29580  22.927  30.667  12.285  0.0911  0.1881  0.2393
 1233BOLB   NC229581  21.275  30.907  11.154 -0.0279 -0.5095 -0.2594
 1233BOLB   PO229582  21.473  30.960  10.776 -0.0650  0.1633 -0.2627
 1233BOLB   GL329583  21.714  31.255  11.132 -0.0981  0.1676  0.0532
 1233BOLB   GL429584  21.803  31.601  11.255 -0.3658 -0.0660  0.1921
 1233BOLB   C1C29585  21.765  31.152  11.596  0.0581 -0.0057 -0.1251
 1233BOLB   C2C29586  21.834  30.846  11.989 -0.2371  0.0930  0.0145
 1233BOLB   C3C29587  21.953  30.725  12.397 -0.0536  0.0034  0.0136
 1233BOLB   C4C29588  22.224  30.711  12.690  0.1752  0.1304 -0.1008
 1233BOLB   C1D29589  22.168  31.495  11.550  0.0841 -0.1139 -0.0689
 1233BOLB   C2D29590  22.292  31.195  11.842 -0.0972 -0.0889  0.2051
 1233BOLB   C3D29591  22.382  30.853  12.095  0.0609  0.1531 -0.1144
 1233BOLB   C4D29592  22.469  30.513  12.360  0.0671  0.2043  0.0901
 1234BOLB   NC129593  29.774  33.936   1.283 -0.2690  0.1939  0.3362
 1234BOLB   PO129594  29.606  34.445   1.248  0.0005  0.0686  0.0256
 1234BOLB   GL129595  29.694  34.627   1.637  0.1094  0.0627 -0.3095
 1234BOLB   GL229596  29.993  34.706   1.725 -0.0475 -0.3457  0.0057
 1234BOLB   C1A29597  29.731  34.775   2.159  0.2482  0.0178 -0.0519
 1234BOLB   C2A29598  30.046  35.020   2.424 -0.2018  0.0237 -0.0549
 1234BOLB   C3A29599  30.168  35.034   2.740 -0.0635 -0.1721  0.1513
 1234BOLB   C4A29600  30.536  35.286   2.870  0.2222 -0.0004 -0.5270
 1234BOLB   C1B29601  29.912  35.103   1.816  0.2032  0.0509  0.0509
 1234BOLB   C2B29602  30.106  35.450   2.083 -0.0527  0.0558 -0.4009
 1234BOLB   C3B29603  30.023  35.608   2.460 -0.2694  0.0604  0.1469
 1234BOLB   C4B29604  29.707  35.787   2.772  0.0044 -0.5255 -0.0610
 1234BOLB   NC229605  31.145  34.884   5.667  0.2127  0.0363 -0.0426
 1234BOLB   PO229606  31.191  35.167   5.319 -0.1293 -0.1140 -0.0098
 1234BOLB   GL329607  31.049  35.296   5.044 -0.1177  0.0656  0.0145
 1234BOLB   GL429608  31.329  35.268   4.712  0.0072 -0.3840 -0.3488
 1234BOLB   C1C29609  30.867  35.233   4.627  0.1573  0.3687  0.3037
 1234BOLB   C2C29610  30.753  35.199   4.124 -0.3573  0.0921  0.1382
 1234BOLB   C3C29611  30.631  35.393   3.705 -0.1887 -0.1658  0.0108
 1234BOLB   C4C29612  30.696  35.553   3.341 -0.2856  0.3618  0.0424
 1234BOLB   C1D29613  31.288  35.046   4.390  0.0819 -0.0859 -0.1674
 1234BOLB   C2D29614  31.026  34.775   4.077  0.0144  0.0657 -0.0303
 1234BOLB   C3D29615  30.663  34.722   3.718  0.1482  0.0288  0.0457
 1234BOLB   C4D29616  30.222  34.986   3.706 -0.4233  0.3023  0.4604
 1235BOLB   NC129617  35.850  30.317  23.363 -0.0857 -0.0359  0.0199
 1235BOLB   PO129618  36.000  30.621  23.451 -0.2267 -0.1517  0.0530
 1235BOLB   GL129619  36.401  30.431  23.351 -0.2851  0.0391 -0.1022
 1235BOLB   GL229620  36.441  30.433  23.001 -0.3623 -0.2309  0.3687
 1235BOLB   C1A29621  36.657  30.482  23.524  0.2486  0.0233 -0.0064
 1235BOLB   C2A29622  37.127  30.466  23.452  0.0805 -0.0138 -0.0416
 1235BOLB   C3A29623  37.483  30.562  23.211  0.1863 -0.0357  0.2357
 1235BOLB   C4A29624  37.739  30.868  23.021 -0.3398  0.0373  0.1398
 1235BOLB   C1B29625  36.879  30.308  22.976 -0.2831 -0.0922  0.0095
 1235BOLB   C2B29626  37.212  30.603  22.821  0.1517 -0.0178 -0.2722
 1235BOLB   C3B29627  37.531  30.650  22.643  0.2223  0.0808  0.0025
 1235BOLB   C4B29628  37.648  30.722  22.307  0.2622  0.2047 -0.1828
 1235BOLB   NC229629  39.793  31.908  23.467 -0.0724 -0.0929 -0.1280
 1235BOLB   PO229630  39.661  31.881  23.924 -0.0431  0.0200 -0.1672
 1235BOLB   GL329631  39.447  31.623  23.708 -0.0859  0.0402 -0.1887
 1235BOLB   GL429632  39.286  31.383  24.007 -0.2770 -0.4176  0.0724
 1235BOLB   C1C29633  39.040  31.510  23.526 -0.3823  0.0674 -0.1087
 1235BOLB   C2C29634  38.561  31.697  23.585  0.1754  0.1026 -0.0420
 1235BOLB   C3C29635  38.237  31.508  23.492 -0.1949  0.0417 -0.0415
 1235BOLB   C4C29636  37.943  31.144  23.383  0.1422 -0.3723 -0.0942
 1235BOLB   C1D29637  38.854  31.446  23.963  0.2378  0.4786  0.1229
 1235BOLB   C2D29638  38.652  31.906  24.000 -0.2652 -0.3275 -0.2241
 1235BOLB   C3D29639  38.733  32.244  24.241 -0.0908 -0.0218  0.2237
 1235BOLB   C4D29640  38.543  32.585  24.504 -0.0345  0.1131  0.1893
 1236BOLB   NC129641  34.913  25.985  23.111 -0.2712  0.1711  0.1174
 1236BOLB   PO129642  34.932  25.576  22.899  0.0466 -0.0766  0.0288
 1236BOLB   GL129643  35.411  25.705  23.015  0.1838 -0.1057  0.2242
 1236BOLB   GL229644  35.505  25.655  23.383  0.0069  0.0506 -0.1050
 1236BOLB   C1A29645  35.802  25.444  23.060  0.0832  0.1679  0.2197
 1236BOLB   C2A29646  36.066  25.261  23.223  0.2297 -0.0042  0.0024
 1236BOLB   C3A29647  36.405  25.336  23.429  0.1956  0.3175 -0.1578
 1236BOLB   C4A29648  36.826  25.198  23.378 -0.0118 -0.2465 -0.3481
 1236BOLB   C1B29649  35.993  25.667  23.509 -0.0680  0.2382 -0.2614
 1236BOLB   C2B29650  36.344  25.687  23.764  0.1673  0.1423 -0.0852
 1236BOLB   C3B29651  36.739  25.518  23.810 -0.0646  0.0384  0.1250
 1236BOLB   C4B29652  37.134  25.435  23.906 -0.1171 -0.0342  0.1669
 1236BOLB   NC229653  37.873  23.504  24.215 -0.4429 -0.1554  0.1061
 1236BOLB   PO229654  37.933  23.582  23.782  0.0160  0.1086 -0.0431
 1236BOLB   GL329655  37.505  23.481  23.547 -0.0958  0.3355 -0.0861
 1236BOLB   GL429656  37.504  23.206  23.324  0.0018  0.0254 -0.1603
 1236BOLB   C1C29657  37.404  23.711  23.192  0.0372 -0.0539 -0.1918
 1236BOLB   C2C29658  37.375  24.122  23.097  0.3317  0.0513  0.1025
 1236BOLB   C3C29659  37.323  24.526  23.317 -0.0586  0.0705 -0.1156
 1236BOLB   C4C29660  36.967  24.822  23.195  0.1121 -0.0083  0.1230
 1236BOLB   C1D29661  36.975  23.405  23.133 -0.5550  0.0233  0.2984
 1236BOLB   C2D29662  36.634  23.018  23.026  0.0086  0.0109 -0.0966
 1236BOLB   C3D29663  36.400  22.595  23.046 -0.0137 -0.1370  0.0602
 1236BOLB   C4D29664  36.053  22.395  23.060 -0.2752  0.2680 -0.0127
 1237BOLB   NC129665  33.702  25.648  25.221 -0.1544 -0.1371 -0.0876
 1237BOLB   PO129666  34.089  25.834  25.266  0.1874  0.0151  0.3724
 1237BOLB   GL129667  34.377  25.599  25.382 -0.0821 -0.1570  0.3462
 1237BOLB   GL229668  34.304  25.199  25.283 -0.1031 -0.0098  0.0534
 1237BOLB   C1A29669  34.888  25.574  25.490 -0.0168  0.0801  0.0180
 1237BOLB   C2A29670  35.206  25.365  25.786 -0.1639  0.1854  0.3402
 1237BOLB   C3A29671  35.414  25.112  25.892 -0.3131  0.0368 -0.0910
 1237BOLB   C4A29672  35.665  25.325  26.081  0.2017 -0.3230 -0.0889
 1237BOLB   C1B29673  34.662  25.161  25.353 -0.1542 -0.1453  0.0521
 1237BOLB   C2B29674  35.039  25.031  25.461 -0.0547  0.2754 -0.1034
 1237BOLB   C3B29675  35.477  25.089  25.374 -0.0644 -0.1274  0.2734
 1237BOLB   C4B29676  35.703  25.364  25.561 -0.1921 -0.1202  0.0733
 1237BOLB   NC229677  37.092  25.097   1.490 -0.1316  0.0652  0.0109
 1237BOLB   PO229678  37.002  24.748   1.180  0.1029  0.2823 -0.2414
 1237BOLB   GL329679  36.593  24.773   0.960  0.3607 -0.3104 -0.0288
 1237BOLB   GL429680  36.366  24.592   0.834 -0.2257  0.2277 -0.0086
 1237BOLB   C1C29681  36.411  25.270   0.823 -0.5480 -0.0966  0.1454
 1237BOLB   C2C29682  36.150  25.528   0.457  0.0137  0.1013 -0.1239
 1237BOLB   C3C29683  35.953  25.440  26.886  0.3130 -0.2500 -0.1025
 1237BOLB   C4C29684  35.923  25.297  26.445 -0.2243 -0.2897 -0.3041
 1237BOLB   C1D29685  35.936  24.941   0.850  0.1996  0.1453 -0.1958
 1237BOLB   C2D29686  35.777  25.340   0.810  0.1127 -0.2616  0.0390
 1237BOLB   C3D29687  35.466  25.616   0.910  0.0144  0.3705  0.2146
 1237BOLB   C4D29688  35.132  25.752   1.112  0.0747 -0.1507  0.0267
 1238BOLB   NC129689  35.476  32.680  19.322 -0.0467  0.3686 -0.0947
 1238BOLB   PO129690  35.373  32.549  18.886  0.0893 -0.3264  0.1583
 1238BOLB   GL129691  35.619  32.777  18.514 -0.2659 -0.0729  0.0189
 1238BOLB   GL229692  35.521  33.059  18.358 -0.1445 -0.0772  0.1377
 1238BOLB   C1A29693  35.947  32.859  18.370  0.0708 -0.0066  0.1431
 1238BOLB   C2A29694  36.252  33.054  18.227 -0.1887 -0.0389  0.2628
 1238BOLB   C3A29695  36.519  33.391  18.248  0.1286 -0.3006 -0.0717
 1238BOLB   C4A29696  36.644  33.774  17.994  0.1543 -0.1072 -0.0032
 1238BOLB   C1B29697  35.564  33.571  18.282  0.2327  0.0918 -0.3015
 1238BOLB   C2B29698  35.791  33.950  18.207 -0.3839  0.0373  0.0731
 1238BOLB   C3B29699  36.139  34.209  18.371  0.2592  0.3106  0.0422
 1238BOLB   C4B29700  36.343  34.271  18.686  0.0758 -0.0092  0.3082
 1238BOLB   NC229701  38.644  35.478  17.432  0.1016  0.0795 -0.1715
 1238BOLB   PO229702  38.235  35.230  17.395  0.0666  0.0018  0.1644
 1238BOLB   GL329703  37.936  34.842  17.581  0.0618 -0.2647 -0.0644
 1238BOLB   GL429704  37.828  34.741  17.240  0.0318  0.2249  0.2381
 1238BOLB   C1C29705  37.417  34.760  17.660 -0.0474 -0.1814  0.4698
 1238BOLB   C2C29706  37.041  34.721  17.393  0.0680 -0.2803  0.0801
 1238BOLB   C3C29707  36.557  34.532  17.617  0.0073 -0.0494  0.2599
 1238BOLB   C4C29708  36.407  34.189  17.852 -0.1223  0.2505 -0.3402
 1238BOLB   C1D29709  37.474  34.483  17.193 -0.3935  0.0776 -0.1075
 1238BOLB   C2D29710  37.139  34.244  17.069 -0.4473 -0.2074 -0.0788
 1238BOLB   C3D29711  36.782  34.195  17.273 -0.0510 -0.1429  0.2831
 1238BOLB   C4D29712  36.488  33.841  17.470 -0.0932  0.0071  0.1831
 1239BOLB   NC129713  17.232  29.708   5.094 -0.0875 -0.3812 -0.0614
 1239BOLB   PO129714  17.546  29.718   5.462 -0.1284  0.0290 -0.0396
 1239BOLB   GL129715  17.809  29.462   5.148 -0.1935 -0.1154  0.2282
 1239BOLB   GL229716  17.653  29.435   4.920  0.1298 -0.1934  0.0768
 1239BOLB   C1A29717  18.153  29.539   4.823  0.4148 -0.1889  0.2044
 1239BOLB   C2A29718  18.129  29.530   4.427  0.3068 -0.0197 -0.1741
 1239BOLB   C3A29719  18.125  29.355   4.031 -0.2788 -0.1010  0.2229
 1239BOLB   C4A29720  17.978  29.044   3.995  0.0217  0.5522  0.3776
 1239BOLB   C1B29721  17.919  28.998   4.996  0.2666  0.0691  0.0576
 1239BOLB   C2B29722  18.193  28.466   4.996 -0.0163  0.0908 -0.1897
 1239BOLB   C3B29723  18.330  28.141   4.753  0.0690  0.0037 -0.0890
 1239BOLB   C4B29724  18.644  27.976   4.375 -0.2363 -0.2246  0.5159
 1239BOLB   NC229725  16.813  28.484   5.685 -0.0738 -0.1018 -0.1691
 1239BOLB   PO229726  16.849  28.333   5.268 -0.5418 -0.0233  0.1810
 1239BOLB   GL329727  17.249  28.199   5.234  0.2657  0.0711 -0.1403
 1239BOLB   GL429728  17.344  28.071   5.399 -0.1477  0.1178  0.1904
 1239BOLB   C1C29729  17.529  27.998   4.931  0.1858 -0.2169 -0.1734
 1239BOLB   C2C29730  17.832  28.152   4.778  0.0037  0.0426 -0.1557
 1239BOLB   C3C29731  17.959  28.466   4.421  0.0069 -0.1221  0.3316
 1239BOLB   C4C29732  17.833  28.585   4.021  0.1288 -0.0414 -0.0619
 1239BOLB   C1D29733  17.567  28.533   5.142 -0.1780 -0.1894 -0.1391
 1239BOLB   C2D29734  17.594  28.686   4.739  0.3376 -0.0711 -0.0117
 1239BOLB   C3D29735  17.428  28.751   4.367  0.1536 -0.2824  0.0807
 1239BOLB   C4D29736  17.049  28.871   4.211 -0.0325  0.1440  0.2078
 1240BOLB   NC129737  26.894  29.986  13.411 -0.0466  0.2846 -0.0252
 1240BOLB   PO129738  26.441  30.297  13.439 -0.2477  0.0744  0.0443
 1240BOLB   GL129739  26.183  30.261  13.127  0.1238 -0.2004 -0.0575
 1240BOLB   GL229740  26.084  30.559  13.064  0.0226  0.1658  0.0540
 1240BOLB   C1A29741  26.105  30.122  12.803  0.0662  0.1525 -0.0401
 1240BOLB   C2A29742  26.159  30.172  12.346 -0.0910  0.1937 -0.2116
 1240BOLB   C3A29743  25.978  29.996  11.988  0.0580 -0.2808  0.0796
 1240BOLB   C4A29744  25.536  29.834  11.788 -0.2969 -0.2371  0.0050
 1240BOLB   C1B29745  26.102  30.686  12.637  0.0527  0.2627  0.1055
 1240BOLB   C2B29746  26.245  30.673  12.220  0.2253  0.2002 -0.2072
 1240BOLB   C3B29747  26.334  30.292  11.843  0.1592  0.1000  0.0425
 1240BOLB   C4B29748  26.455  29.908  11.536  0.0518 -0.0518  0.0049
 1240BOLB   NC229749  24.940  29.151   9.751  0.0780 -0.0118 -0.2303
 1240BOLB   PO229750  25.267  28.818   9.670 -0.0574 -0.0723  0.0614
 1240BOLB   GL329751  25.520  29.216   9.819 -0.2340  0.3797  0.0270
 1240BOLB   GL429752  25.913  29.172   9.726 -0.2910 -0.0525  0.0139
 1240BOLB   C1C29753  25.718  29.438  10.089 -0.3835 -0.0417  0.1233
 1240BOLB   C2C29754  25.543  29.361  10.512 -0.0570  0.3688 -0.1995
 1240BOLB   C3C29755  25.477  29.561  10.881  0.3368 -0.0772 -0.0634
 1240BOLB   C4C29756  25.363  29.743  11.266  0.1227  0.0490 -0.1355
 1240BOLB   C1D29757  26.271  29.424  10.029  0.2012  0.1414  0.3633
 1240BOLB   C2D29758  26.266  29.645  10.522  0.1419 -0.0212  0.2548
 1240BOLB   C3D29759  26.526  29.744  10.805 -0.4153  0.0449  0.1074
 1240BOLB   C4D29760  26.697  29.704  11.172  0.2343  0.2908  0.2388
 1241BOLB   NC129761  31.650  33.744   0.851 -0.2295  0.0789 -0.3321
 1241BOLB   PO129762  31.731  33.731   1.307  0.0230  0.1706 -0.0196
 1241BOLB   GL129763  31.642  33.785   1.762 -0.3793 -0.0284  0.1505
 1241BOLB   GL229764  31.919  33.519   1.997 -0.2253  0.0215 -0.1182
 1241BOLB   C1A29765  31.607  34.161   2.057 -0.1188  0.0727  0.0640
 1241BOLB   C2A29766  31.809  34.430   2.206 -0.6072  0.2681 -0.0902
 1241BOLB   C3A29767  31.633  34.802   2.399 -0.1991 -0.1367  0.0946
 1241BOLB   C4A29768  31.761  35.247   2.407  0.4690 -0.2412 -0.2382
 1241BOLB   C1B29769  32.203  33.545   2.350 -0.0672  0.2533 -0.3755
 1241BOLB   C2B29770  32.481  33.623   2.697 -0.3283  0.3876  0.2611
 1241BOLB   C3B29771  32.877  33.987   2.740 -0.1189  0.4303 -0.2975
 1241BOLB   C4B29772  33.162  34.372   2.695 -0.1480 -0.2942  0.0005
 1241BOLB   NC229773  32.613  36.769   3.683 -0.2097 -0.1809  0.2734
 1241BOLB   PO229774  32.239  36.819   3.906 -0.0239 -0.2346 -0.0614
 1241BOLB   GL329775  32.202  36.837   3.430  0.1115  0.0403 -0.2616
 1241BOLB   GL429776  32.414  36.981   3.232  0.4099  0.1406  0.2823
 1241BOLB   C1C29777  32.220  36.527   3.063 -0.0783  0.0543 -0.2667
 1241BOLB   C2C29778  32.434  36.193   2.838 -0.0273 -0.1059 -0.0129
 1241BOLB   C3C29779  32.220  35.830   2.713 -0.0921  0.1302  0.1428
 1241BOLB   C4C29780  32.019  35.582   2.498  0.3137 -0.1939 -0.0408
 1241BOLB   C1D29781  32.363  36.895   2.794 -0.0795  0.0137  0.2405
 1241BOLB   C2D29782  32.167  36.624   2.569 -0.2038  0.0492 -0.1905
 1241BOLB   C3D29783  31.913  36.253   2.580 -0.1872  0.0210 -0.2039
 1241BOLB   C4D29784  31.659  35.922   2.451 -0.2663  0.2865  0.0111
 1242BOLB   NC129785  29.977  25.382   6.374  0.0188  0.1554  0.0727
 1242BOLB   PO129786  29.606  25.620   6.531  0.1118  0.0872  0.0828
 1242BOLB   GL129787  29.297  25.656   6.160  0.0821  0.1233  0.0021
 1242BOLB   GL229788  29.112  25.468   6.348 -0.0792 -0.0580  0.0424
 1242BOLB   C1A29789  29.043  25.411   5.792  0.2523 -0.1862 -0.3679
 1242BOLB   C2A29790  28.558  25.282   5.843 -0.4721 -0.0712 -0.1443
 1242BOLB   C3A29791  28.273  25.012   5.820  0.0206  0.0220  0.5440
 1242BOLB   C4A29792  27.969  24.549   5.893  0.0699 -0.0949 -0.0375
 1242BOLB   C1B29793  28.695  25.195   6.345 -0.0596  0.0053  0.2510
 1242BOLB   C2B29794  28.359  25.082   6.289 -0.1803 -0.2659 -0.2574
 1242BOLB   C3B29795  28.198  24.960   6.626 -0.0908  0.1827 -0.0438
 1242BOLB   C4B29796  28.214  24.521   6.858  0.0092  0.2444 -0.0016
 1242BOLB   NC229797  28.948  22.659   7.227  0.0634  0.2627  0.0602
 1242BOLB   PO229798  28.868  22.871   6.848 -0.2894 -0.1673  0.0293
 1242BOLB   GL329799  28.444  23.120   6.837 -0.4130 -0.0308  0.2254
 1242BOLB   GL429800  28.288  23.185   7.072  0.1700  0.0573  0.1530
 1242BOLB   C1C29801  28.304  23.425   6.613 -0.0988  0.2666 -0.3020
 1242BOLB   C2C29802  28.020  23.601   6.351 -0.0217 -0.0355 -0.0416
 1242BOLB   C3C29803  27.794  23.844   6.148 -0.0144  0.0901 -0.3044
 1242BOLB   C4C29804  27.838  24.147   5.928 -0.2881  0.1396  0.0486
 1242BOLB   C1D29805  27.977  22.914   6.895 -0.1014 -0.3824 -0.0256
 1242BOLB   C2D29806  27.549  22.835   6.784  0.0436 -0.4495  0.0709
 1242BOLB   C3D29807  27.456  22.723   6.366 -0.0761  0.2435 -0.0354
 1242BOLB   C4D29808  27.198  22.780   6.118  0.1482 -0.1249  0.1230
 1243BOLB   NC129809  28.695  38.025  21.159 -0.0042 -0.0440  0.1176
 1243BOLB   PO129810  28.855  37.985  21.442  0.4384  0.0432  0.3249
 1243BOLB   GL129811  28.790  38.414  21.511  0.1412  0.0277  0.0222
 1243BOLB   GL229812  29.068  38.443  21.481  0.2875 -0.0019 -0.1776
 1243BOLB   C1A29813  28.718  38.886  21.312  0.1348 -0.1647 -0.0990
 1243BOLB   C2A29814  28.722  39.337  21.266 -0.0474 -0.0947  0.3759
 1243BOLB   C3A29815  28.523  39.650  21.207  0.1082  0.0872  0.0439
 1243BOLB   C4A29816  28.318  39.749  20.978 -0.0084 -0.1970 -0.1088
 1243BOLB   C1B29817  29.201  38.800  21.695 -0.0099 -0.3975 -0.0857
 1243BOLB   C2B29818  29.348  39.132  21.596  0.0743  0.2996  0.0573
 1243BOLB   C3B29819  29.521  39.499  21.685  0.2584 -0.0334  0.1414
 1243BOLB   C4B29820  29.352  39.768  22.025 -0.1431  0.2485 -0.2891
 1243BOLB   NC229821  26.588  41.881  19.930  0.4763 -0.0743 -0.1278
 1243BOLB   PO229822  26.858  41.665  20.297 -0.1850 -0.0137 -0.0102
 1243BOLB   GL329823  27.024  41.342  20.249  0.2607  0.2681 -0.0914
 1243BOLB   GL429824  27.161  41.236  19.995 -0.1734 -0.2606  0.0376
 1243BOLB   C1C29825  27.031  40.888  20.454 -0.1306 -0.0210  0.1206
 1243BOLB   C2C29826  27.360  40.644  20.569 -0.1073  0.0108  0.1019
 1243BOLB   C3C29827  27.675  40.296  20.716  0.1562  0.0788 -0.0437
 1243BOLB   C4C29828  27.973  39.971  20.946 -0.2753 -0.0845 -0.3500
 1243BOLB   C1D29829  27.011  40.855  19.887  0.0245  0.1912  0.2889
 1243BOLB   C2D29830  26.771  40.537  20.048  0.0012  0.0832  0.2007
 1243BOLB   C3D29831  26.766  40.031  20.119  0.4189 -0.5810  0.0780
 1243BOLB   C4D29832  26.964  39.667  20.311  0.0474 -0.3468 -0.1203
 1244BOLB   NC129833  28.364  33.399   1.705  0.1679  0.3317  0.0193
 1244BOLB   PO129834  28.487  33.829   1.850  0.4654  0.0095  0.0905
 1244BOLB   GL129835  28.662  33.652   2.335 -0.1212  0.2908  0.2690
 1244BOLB   GL229836  28.967  33.697   2.327  0.2735  0.0058 -0.0973
 1244BOLB   C1A29837  28.527  33.661   2.748  0.0114 -0.1530  0.1602
 1244BOLB   C2A29838  28.247  33.644   2.981 -0.0832  0.1625 -0.3137
 1244BOLB   C3A29839  28.072  33.776   3.418 -0.0058 -0.0289  0.0246
 1244BOLB   C4A29840  28.062  33.742   3.863  0.1404 -0.1976 -0.2381
 1244BOLB   C1B29841  29.065  33.615   2.837 -0.1016  0.1150  0.2403
 1244BOLB   C2B29842  29.302  33.809   3.181  0.0869 -0.1759 -0.1234
 1244BOLB   C3B29843  29.528  33.989   3.499 -0.0254  0.0659  0.1042
 1244BOLB   C4B29844  29.430  33.841   3.851 -0.0199  0.2791 -0.1747
 1244BOLB   NC229845  27.973  34.986   5.864 -0.0599 -0.2900 -0.0115
 1244BOLB   PO229846  28.412  34.837   6.006  0.3716 -0.0981  0.1566
 1244BOLB   GL329847  28.300  34.430   5.683 -0.2955 -0.0248  0.0886
 1244BOLB   GL429848  28.146  34.546   5.432  0.1553  0.1865  0.4061
 1244BOLB   C1C29849  28.315  34.002   5.428 -0.2579  0.2018  0.0814
 1244BOLB   C2C29850  28.278  33.576   5.208  0.3551 -0.0472  0.0620
 1244BOLB   C3C29851  28.229  33.568   4.767 -0.1190 -0.0916  0.1189
 1244BOLB   C4C29852  28.185  33.741   4.302 -0.0389 -0.2339  0.4088
 1244BOLB   C1D29853  28.221  34.357   5.068  0.2608 -0.0848  0.0152
 1244BOLB   C2D29854  28.059  34.084   4.744  0.0437 -0.1285 -0.2568
 1244BOLB   C3D29855  27.765  33.816   4.584  0.3687 -0.4600 -0.0498
 1244BOLB   C4D29856  27.631  33.670   4.120  0.0635  0.0743  0.0300
 1245BOLB   NC129857  30.056  26.910   2.188 -0.0718 -0.1094 -0.2122
 1245BOLB   PO129858  29.900  26.598   2.032  0.2102 -0.1458  0.1240
 1245BOLB   GL129859  29.954  26.484   2.394 -0.0992 -0.2053 -0.0453
 1245BOLB   GL229860  30.367  26.643   2.614  0.1714 -0.1786  0.3561
 1245BOLB   C1A29861  29.936  26.489   2.738  0.2414  0.0371 -0.0845
 1245BOLB   C2A29862  29.842  26.197   3.134  0.1348 -0.1238 -0.0934
 1245BOLB   C3A29863  29.784  26.160   3.566  0.0765 -0.2790 -0.1904
 1245BOLB   C4A29864  29.815  26.470   3.968  0.1207 -0.0137 -0.1039
 1245BOLB   C1B29865  30.330  26.259   2.919  0.2117  0.0108  0.1619
 1245BOLB   C2B29866  30.322  25.878   3.115  0.0159 -0.0215  0.0869
 1245BOLB   C3B29867  30.177  25.902   3.588 -0.0459  0.1875  0.3404
 1245BOLB   C4B29868  29.987  25.932   3.994 -0.1111 -0.1606  0.1229
 1245BOLB   NC229869  30.915  26.959   6.249 -0.0995  0.2137 -0.2814
 1245BOLB   PO229870  30.654  26.695   5.954  0.1211 -0.2179 -0.0020
 1245BOLB   GL329871  30.486  27.012   5.662 -0.0992 -0.0470  0.1704
 1245BOLB   GL429872  30.204  26.874   5.684  0.1334 -0.3457 -0.0354
 1245BOLB   C1C29873  30.520  27.073   5.187 -0.1741 -0.0494 -0.0691
 1245BOLB   C2C29874  30.617  27.019   4.752 -0.0633  0.1240 -0.2235
 1245BOLB   C3C29875  30.558  26.850   4.315 -0.0331 -0.3618  0.2028
 1245BOLB   C4C29876  30.093  26.708   4.187 -0.1963 -0.1324 -0.2640
 1245BOLB   C1D29877  30.093  27.106   5.422  0.2205 -0.4029  0.2069
 1245BOLB   C2D29878  29.679  27.171   5.184  0.0062  0.0053 -0.0317
 1245BOLB   C3D29879  29.413  27.358   5.093  0.1643 -0.2076 -0.3030
 1245BOLB   C4D29880  28.962  27.216   5.031  0.3019  0.0379 -0.2206
 1246BOLB   NC129881  24.713  35.147  16.018  0.1476 -0.7274 -0.0829
 1246BOLB   PO129882  24.888  35.543  16.202  0.1509  0.2360 -0.3063
 1246BOLB   GL129883  24.678  35.887  15.976 -0.0479  0.4599  0.0022
 1246BOLB   GL229884  24.595  36.038  16.160  0.2683 -0.1697 -0.0936
 1246BOLB   C1A29885  24.407  35.923  15.627 -0.0588  0.2713  0.0180
 1246BOLB   C2A29886  24.300  35.760  15.184 -0.2514  0.0411  0.1757
 1246BOLB   C3A29887  24.193  35.909  14.730  0.0285 -0.0578  0.1271
 1246BOLB   C4A29888  24.240  35.929  14.244  0.3154  0.1756 -0.0501
 1246BOLB   C1B29889  24.423  36.307  15.894  0.1272 -0.0000 -0.0927
 1246BOLB   C2B29890  24.381  36.418  15.432  0.0157 -0.0992 -0.0420
 1246BOLB   C3B29891  24.094  36.273  15.090 -0.0845 -0.0496 -0.0329
 1246BOLB   C4B29892  23.581  36.154  15.251 -0.0742 -0.1133  0.0087
 1246BOLB   NC229893  24.768  37.015  11.475  0.1924  0.0088 -0.0779
 1246BOLB   PO229894  24.637  36.726  11.774 -0.4277  0.0848 -0.1953
 1246BOLB   GL329895  24.483  36.800  12.186  0.0823  0.1851 -0.4047
 1246BOLB   GL429896  24.699  36.494  12.227 -0.3740 -0.1736 -0.2157
 1246BOLB   C1C29897  24.307  36.604  12.534  0.1339  0.1528  0.1067
 1246BOLB   C2C29898  24.242  36.229  12.773 -0.0954 -0.1137  0.1138
 1246BOLB   C3C29899  24.224  36.101  13.242  0.0547 -0.1323 -0.0430
 1246BOLB   C4C29900  24.154  35.968  13.707  0.2007  0.0492 -0.3002
 1246BOLB   C1D29901  24.802  36.265  12.607  0.0211  0.0263 -0.1054
 1246BOLB   C2D29902  24.650  35.995  12.933 -0.2007  0.5512 -0.1804
 1246BOLB   C3D29903  24.824  35.636  13.089 -0.0285 -0.0868  0.0729
 1246BOLB   C4D29904  25.289  35.438  13.066 -0.1342 -0.0710 -0.0313
 1247BOLB   NC129905  34.652  26.034  24.284 -0.1288  0.0243 -0.0479
 1247BOLB   PO129906  34.487  26.333  24.641 -0.0022  0.2600  0.3766
 1247BOLB   GL129907  34.851  26.140  24.757 -0.1434 -0.2140 -0.1360
 1247BOLB   GL229908  35.039  25.806  24.721 -0.3567 -0.1115  0.0243
 1247BOLB   C1A29909  35.234  26.221  24.747  0.1420 -0.0542  0.1266
 1247BOLB   C2A29910  35.650  26.187  24.898  0.2577  0.0493  0.4978
 1247BOLB   C3A29911  35.947  26.150  25.075 -0.1286 -0.2009 -0.2782
 1247BOLB   C4A29912  36.126  26.017  25.446  0.0188  0.1037  0.1563
 1247BOLB   C1B29913  35.500  25.757  24.783 -0.2168  0.1055  0.0934
 1247BOLB   C2B29914  35.871  25.658  24.696 -0.0202 -0.1531 -0.2388
 1247BOLB   C3B29915  36.293  25.804  24.811  0.0254 -0.2087  0.1780
 1247BOLB   C4B29916  36.515  25.853  25.111 -0.4066  0.0897  0.2944
 1247BOLB   NC229917  38.174  24.856  26.238 -0.3546  0.0329  0.3235
 1247BOLB   PO229918  37.906  24.692  26.470  0.2890 -0.0118  0.3275
 1247BOLB   GL329919  37.582  24.934  26.448 -0.0305  0.3953 -0.0720
 1247BOLB   GL429920  37.788  25.166  26.201  0.1553  0.0437 -0.0013
 1247BOLB   C1C29921  37.159  24.892  26.335  0.0531 -0.0442 -0.3263
 1247BOLB   C2C29922  36.886  25.212  26.114  0.0162 -0.0095  0.0681
 1247BOLB   C3C29923  36.759  25.522  25.771 -0.0785 -0.1129 -0.2069
 1247BOLB   C4C29924  36.531  25.800  25.636 -0.1807  0.0120 -0.0254
 1247BOLB   C1D29925  37.428  25.148  26.002  0.3008 -0.2579  0.0853
 1247BOLB   C2D29926  37.135  25.059  25.592  0.1380  0.0802  0.3660
 1247BOLB   C3D29927  36.917  24.877  25.240 -0.0047  0.2014  0.4675
 1247BOLB   C4D29928  36.597  24.753  25.052  0.0867 -0.3077  0.1605
 1248BOLB   NC129929  29.000  36.615  25.873  0.0361 -0.0020  0.2335
 1248BOLB   PO129930  29.244  36.969  25.781  0.2925 -0.0991 -0.1000
 1248BOLB   GL129931  29.301  37.376  26.034 -0.0789 -0.1805 -0.0609
 1248BOLB   GL229932  29.036  37.264  26.181 -0.2384 -0.0959  0.0849
 1248BOLB   C1A29933  29.502  37.492  26.366 -0.0550 -0.0899  0.0833
 1248BOLB   C2A29934  29.552  37.531  26.749  0.3520 -0.0155  0.1795
 1248BOLB   C3A29935  29.479  37.605   0.227 -0.4348  0.0421  0.1401
 1248BOLB   C4A29936  29.811  37.807   0.548 -0.1766  0.1727 -0.0238
 1248BOLB   C1B29937  29.084  37.688  26.338  0.0458 -0.0425  0.3464
 1248BOLB   C2B29938  29.195  38.040  26.236 -0.3050  0.2509  0.1769
 1248BOLB   C3B29939  29.062  38.543  26.323 -0.2570  0.1854 -0.0247
 1248BOLB   C4B29940  28.665  38.723  26.416  0.2294 -0.3974 -0.0064
 1248BOLB   NC229941  29.647  39.699   1.769 -0.1634  0.2862  0.1125
 1248BOLB   PO229942  30.062  39.773   1.826 -0.6663  0.0553  0.3780
 1248BOLB   GL329943  29.993  39.385   1.577 -0.2713 -0.0133  0.1025
 1248BOLB   GL429944  30.164  39.096   1.538 -0.1355 -0.0261 -0.1044
 1248BOLB   C1C29945  29.904  39.216   1.141  0.0739  0.0602  0.1881
 1248BOLB   C2C29946  30.028  38.886   0.961  0.1057 -0.1385  0.0796
 1248BOLB   C3C29947  29.806  38.547   0.709 -0.1228 -0.0417  0.1680
 1248BOLB   C4C29948  29.857  38.119   0.748 -0.3103  0.3959  0.1589
 1248BOLB   C1D29949  30.370  38.833   1.329 -0.2627 -0.1191 -0.1175
 1248BOLB   C2D29950  30.525  38.449   1.365  0.1665  0.0004 -0.0299
 1248BOLB   C3D29951  30.741  38.195   1.140 -0.0418  0.2482 -0.3445
 1248BOLB   C4D29952  30.712  37.808   1.068  0.4074  0.2951  0.2612
 1249BOLB   NC129953  27.295  30.342   2.831  0.2355  0.0050  0.0079
 1249BOLB   PO129954  26.988  30.204   2.992  0.1787 -0.2589 -0.2213
 1249BOLB   GL129955  26.924  30.427   3.349  0.0506 -0.1577 -0.0634
 1249BOLB   GL229956  26.595  30.266   3.425 -0.0789  0.1874  0.3146
 1249BOLB   C1A29957  27.173  30.407   3.710  0.0528 -0.1612  0.0349
 1249BOLB   C2A29958  27.219  30.416   4.150 -0.0088  0.0800  0.1513
 1249BOLB   C3A29959  27.335  30.393   4.716  0.0639  0.3036  0.0234
 1249BOLB   C4A29960  27.086  30.361   5.148  0.1514 -0.0658 -0.4215
 1249BOLB   C1B29961  26.555  30.264   3.790 -0.0424  0.0301  0.0678
 1249BOLB   C2B29962  26.751  30.477   4.199  0.0886  0.1379 -0.0297
 1249BOLB   C3B29963  26.846  30.564   4.540 -0.2132 -0.2017  0.2736
 1249BOLB   C4B29964  26.884  30.766   4.900  0.1148 -0.2995 -0.3081
 1249BOLB   NC229965  25.988  31.308   7.523  0.2485  0.0000 -0.0953
 1249BOLB   PO229966  26.244  31.446   7.157  0.0216  0.1060 -0.0287
 1249BOLB   GL329967  26.301  31.144   6.885  0.0408  0.1503 -0.1327
 1249BOLB   GL429968  26.078  31.330   6.651  0.4970  0.0578 -0.0468
 1249BOLB   C1C29969  26.345  30.818   6.593 -0.3195 -0.0321  0.1349
 1249BOLB   C2C29970  26.280  30.647   6.169 -0.2211  0.2574  0.5484
 1249BOLB   C3C29971  26.337  30.415   5.720 -0.1061 -0.2347 -0.1143
 1249BOLB   C4C29972  26.629  30.348   5.430 -0.1949  0.0452  0.1035
 1249BOLB   C1D29973  26.163  31.155   6.326 -0.0604  0.0106  0.0037
 1249BOLB   C2D29974  26.338  31.155   5.926 -0.1859  0.2702  0.3204
 1249BOLB   C3D29975  26.537  30.897   5.665 -0.3523  0.0955 -0.2666
 1249BOLB   C4D29976  26.932  30.800   5.371  0.1077 -0.0826  0.1157
 1250BOLB   NC129977  27.413  35.986   1.001  0.0718  0.1309 -0.0158
 1250BOLB   PO129978  27.222  36.329   0.754 -0.0437 -0.3427 -0.0989
 1250BOLB   GL129979  27.093  36.751   0.751 -0.3921  0.2895 -0.2955
 1250BOLB   GL229980  27.093  36.838   0.431  0.0040 -0.4168  0.2567
 1250BOLB   C1A29981  26.681  37.015   0.669  0.4311  0.2070 -0.3337
 1250BOLB   C2A29982  26.392  37.232   0.822 -0.2983  0.0635 -0.3753
 1250BOLB   C3A29983  26.045  37.395   1.045  0.2361 -0.2226  0.0865
 1250BOLB   C4A29984  25.805  37.612   1.474 -0.0551  0.1355  0.1494
 1250BOLB   C1B29985  26.840  37.154   0.236 -0.1831  0.1967 -0.0021
 1250BOLB   C2B29986  27.003  37.490  26.844 -0.1354 -0.1859  0.1264
 1250BOLB   C3B29987  27.144  37.864  26.550  0.0917  0.1859 -0.1497
 1250BOLB   C4B29988  27.195  38.269  26.678  0.0361  0.2375  0.0622
 1250BOLB   NC229989  25.630  39.254   2.170 -0.0978  0.1465 -0.1930
 1250BOLB   PO229990  25.917  39.158   2.478 -0.2074  0.0228  0.0381
 1250BOLB   GL329991  25.827  38.681   2.411 -0.0491 -0.3868 -0.0029
 1250BOLB   GL429992  26.083  38.658   2.527 -0.0535  0.2794 -0.0983
 1250BOLB   C1C29993  25.548  38.384   2.653  0.2409  0.3534  0.1967
 1250BOLB   C2C29994  25.511  37.844   2.536 -0.1338 -0.1903  0.1057
 1250BOLB   C3C29995  25.489  37.512   2.217  0.0793 -0.0654  0.2259
 1250BOLB   C4C29996  25.503  37.497   1.735  0.1895  0.0385  0.0112
 1250BOLB   C1D29997  26.310  38.423   2.232  0.0558  0.0450  0.0733
 1250BOLB   C2D29998  26.388  38.520   1.930  0.3144  0.2240 -0.2098
 1250BOLB   C3D29999  26.251  38.742   1.591 -0.0298 -0.0422 -0.2705
 1250BOLB   C4D30000  26.173  38.640   1.130  0.3590 -0.0021  0.0666
 1251BOLB   NC130001  23.423  29.461  14.729  0.3153 -0.0071 -0.3586
 1251BOLB   PO130002  23.037  29.690  14.589  0.1379  0.0430  0.0436
 1251BOLB   GL130003  22.594  29.793  14.427 -0.1990 -0.3899 -0.0394
 1251BOLB   GL230004  22.541  30.039  14.627 -0.0005  0.0081 -0.1297
 1251BOLB   C1A30005  22.361  29.908  14.018 -0.1647 -0.4555 -0.3875
 1251BOLB   C2A30006  22.165  29.952  13.714 -0.3653  0.0536  0.2288
 1251BOLB   C3A30007  21.789  29.914  13.644  0.2073  0.2058  0.1161
 1251BOLB   C4A30008  21.344  29.918  13.616  0.0243  0.0861 -0.4823
 1251BOLB   C1B30009  22.117  30.115  14.389  0.1290  0.1152  0.1748
 1251BOLB   C2B30010  21.810  29.926  14.177 -0.1120 -0.1192  0.2310
 1251BOLB   C3B30011  21.509  29.600  14.063  0.1265  0.1620 -0.1063
 1251BOLB   C4B30012  21.054  29.537  13.832 -0.1061 -0.0463  0.0204
 1251BOLB   NC230013  19.080  29.286  12.296 -0.5039 -0.0656  0.0080
 1251BOLB   PO230014  19.435  29.640  12.094  0.0315 -0.0152  0.0890
 1251BOLB   GL330015  19.679  29.899  12.398 -0.1952 -0.1828 -0.1525
 1251BOLB   GL430016  19.723  30.182  12.319 -0.0111  0.0588  0.2433
 1251BOLB   C1C30017  19.888  29.728  12.838 -0.2837 -0.1059  0.1561
 1251BOLB   C2C30018  20.217  29.545  13.124  0.1109  0.0549  0.0407
 1251BOLB   C3C30019  20.573  29.533  13.466 -0.2083 -0.0078 -0.2097
 1251BOLB   C4C30020  20.961  29.889  13.453  0.2233 -0.0975 -0.2662
 1251BOLB   C1D30021  19.802  30.485  12.611 -0.1198  0.2618  0.1029
 1251BOLB   C2D30022  19.786  30.898  12.858 -0.0030  0.1456  0.3998
 1251BOLB   C3D30023  19.871  31.086  13.310 -0.0637  0.2022 -0.1271
 1251BOLB   C4D30024  20.200  31.005  13.587  0.3049  0.1369 -0.0573
 1252BOLB   NC130025  22.625  15.500  21.104  0.1293  0.0840  0.1759
 1252BOLB   PO130026  22.781  15.908  21.265  0.1608 -0.2972  0.2830
 1252BOLB   GL130027  23.037  16.182  21.617  0.1240  0.0636  0.2991
 1252BOLB   GL230028  23.149  16.232  21.268  0.1786  0.0453 -0.3170
 1252BOLB   C1A30029  22.938  16.492  22.013 -0.0883  0.1478 -0.0878
 1252BOLB   C2A30030  22.654  16.677  22.330  0.2901  0.1336 -0.0172
 1252BOLB   C3A30031  22.825  16.884  22.742 -0.2057 -0.2278  0.0712
 1252BOLB   C4A30032  23.133  17.143  22.920 -0.1279 -0.3463 -0.1258
 1252BOLB   C1B30033  23.005  16.634  21.376  0.0698 -0.1074 -0.0511
 1252BOLB   C2B30034  22.819  16.940  21.702  0.1525  0.0987  0.0255
 1252BOLB   C3B30035  22.924  17.315  21.713  0.1481  0.0290 -0.0596
 1252BOLB   C4B30036  22.683  17.610  21.858 -0.1848 -0.1107  0.3523
 1252BOLB   NC230037  23.694  15.084  23.567  0.1750 -0.1397 -0.2424
 1252BOLB   PO230038  23.807  15.461  23.435 -0.1647 -0.0985 -0.1807
 1252BOLB   GL330039  23.829  15.968  23.405 -0.2160 -0.2853  0.2583
 1252BOLB   GL430040  24.064  15.979  23.506  0.2666  0.1440  0.1408
 1252BOLB   C1C30041  23.931  16.414  23.387 -0.2325  0.0837  0.1938
 1252BOLB   C2C30042  23.924  16.770  23.220  0.3372  0.3539 -0.0367
 1252BOLB   C3C30043  23.809  17.096  22.990 -0.1204 -0.3387 -0.1017
 1252BOLB   C4C30044  23.491  17.336  22.965 -0.3149 -0.3191 -0.3810
 1252BOLB   C1D30045  24.261  16.294  23.716  0.1681 -0.2122  0.1382
 1252BOLB   C2D30046  24.075  16.717  23.845  0.2160  0.1190  0.1859
 1252BOLB   C3D30047  23.751  16.817  23.662 -0.1587 -0.1611 -0.2222
 1252BOLB   C4D30048  23.451  16.923  23.308  0.3767  0.1795 -0.2739
 1253BOLB   NC130049  20.133  32.532  20.891  0.1954  0.0628 -0.0082
 1253BOLB   PO130050  19.987  32.212  20.519 -0.1994  0.0898  0.2812
 1253BOLB   GL130051  19.515  32.164  20.387 -0.2731 -0.1525  0.1884
 1253BOLB   GL230052  19.365  31.849  20.509 -0.2426 -0.2675  0.3393
 1253BOLB   C1A30053  19.080  32.489  20.245 -0.1126 -0.1548  0.0089
 1253BOLB   C2A30054  18.616  32.453  20.058 -0.0494  0.1696 -0.2100
 1253BOLB   C3A30055  18.569  32.697  19.551  0.0535 -0.0051 -0.0950
 1253BOLB   C4A30056  18.513  32.896  19.139  0.1217 -0.1444  0.0243
 1253BOLB   C1B30057  19.005  31.965  20.296 -0.2269  0.0721  0.0502
 1253BOLB   C2B30058  18.631  31.869  20.114  0.3358 -0.2895 -0.1229
 1253BOLB   C3B30059  18.181  31.765  20.128  0.2403  0.0631  0.4365
 1253BOLB   C4B30060  17.785  31.747  20.001  0.3136  0.0762  0.1087
 1253BOLB   NC230061  15.890  32.980  18.429 -0.2092  0.0808 -0.2665
 1253BOLB   PO230062  16.310  32.971  18.527 -0.3181  0.2292  0.1298
 1253BOLB   GL330063  16.782  32.961  18.422  0.1781 -0.1668 -0.1851
 1253BOLB   GL430064  16.862  32.739  18.115 -0.3619  0.0127 -0.0367
 1253BOLB   C1C30065  17.320  33.013  18.463  0.0142  0.1542  0.1007
 1253BOLB   C2C30066  17.391  33.269  18.772 -0.0723 -0.0423 -0.2562
 1253BOLB   C3C30067  17.796  33.332  18.926  0.2085 -0.2043  0.3199
 1253BOLB   C4C30068  18.263  33.160  19.045  0.2226  0.2205 -0.1709
 1253BOLB   C1D30069  17.258  32.507  18.154 -0.0062 -0.1891 -0.1001
 1253BOLB   C2D30070  17.503  32.311  18.423  0.1646  0.0216  0.1469
 1253BOLB   C3D30071  17.917  32.278  18.590  0.3108 -0.1085  0.0324
 1253BOLB   C4D30072  18.039  32.010  18.865  0.3407 -0.1681 -0.0406
 1254BOLB   NC130073  31.454  36.208  25.284 -0.2031 -0.2982  0.0093
 1254BOLB   PO130074  31.403  36.124  25.757 -0.1451 -0.1640 -0.0877
 1254BOLB   GL130075  31.468  36.468  26.058 -0.2700 -0.1448 -0.1733
 1254BOLB   GL230076  31.151  36.564  25.978  0.3451 -0.2053 -0.0673
 1254BOLB   C1A30077  31.625  36.751  26.061 -0.1691  0.0559 -0.1167
 1254BOLB   C2A30078  31.838  37.114  26.203 -0.1769  0.3468  0.0482
 1254BOLB   C3A30079  32.204  37.315  26.180 -0.0511 -0.2746 -0.0657
 1254BOLB   C4A30080  32.521  37.635  26.290  0.2406 -0.0822  0.0595
 1254BOLB   C1B30081  31.213  37.022  26.096 -0.2213  0.1043 -0.0997
 1254BOLB   C2B30082  31.404  37.201  26.384  0.2555 -0.1639 -0.0429
 1254BOLB   C3B30083  31.448  37.602  26.304  0.3716  0.0006 -0.1595
 1254BOLB   C4B30084  31.813  37.698  26.131  0.0537  0.2017  0.0836
 1254BOLB   NC230085  33.393  39.864  26.448  0.1532 -0.0478  0.0631
 1254BOLB   PO230086  33.610  39.700  26.798 -0.2918  0.1094 -0.3593
 1254BOLB   GL330087  33.359  39.376  26.869  0.1266  0.2452  0.1321
 1254BOLB   GL430088  33.284  39.414  26.556 -0.1084 -0.2042 -0.1954
 1254BOLB   C1C30089  33.232  38.999  26.864  0.2976  0.1390  0.2784
 1254BOLB   C2C30090  33.050  38.646  26.715  0.0105 -0.2311  0.1146
 1254BOLB   C3C30091  32.680  38.500  26.434 -0.2046 -0.0247  0.0822
 1254BOLB   C4C30092  32.658  38.035  26.404 -0.1079  0.0035 -0.0261
 1254BOLB   C1D30093  33.501  38.942  26.441 -0.0510 -0.1417 -0.0653
 1254BOLB   C2D30094  33.723  38.628  26.196 -0.1616  0.1090  0.1855
 1254BOLB   C3D30095  33.812  38.425  25.892  0.0573  0.3502 -0.5805
 1254BOLB   C4D30096  34.033  38.043  25.855  0.0221 -0.2175 -0.3689
 1255BOLB   NC130097  31.378  34.691  16.255 -0.0619  0.0485  0.0157
 1255BOLB   PO130098  31.847  34.704  16.111 -0.1021 -0.0123  0.1940
 1255BOLB   GL130099  31.853  35.194  16.132 -0.1018 -0.1926 -0.0302
 1255BOLB   GL230100  31.848  35.296  16.366  0.2013  0.0758  0.1644
 1255BOLB   C1A30101  31.856  35.418  15.833  0.3055  0.2410 -0.0931
 1255BOLB   C2A30102  31.971  35.638  15.473 -0.1554  0.0470 -0.0541
 1255BOLB   C3A30103  31.905  36.048  15.415 -0.1202  0.1673 -0.0255
 1255BOLB   C4A30104  32.209  36.408  15.598  0.0488 -0.0202 -0.2340
 1255BOLB   C1B30105  31.988  35.734  16.227  0.0294  0.0074  0.2859
 1255BOLB   C2B30106  32.110  35.940  15.838  0.2718  0.3960 -0.2958
 1255BOLB   C3B30107  32.392  35.909  15.467 -0.0370 -0.3921 -0.3029
 1255BOLB   C4B30108  32.697  36.211  15.581  0.1023  0.2937  0.0391
 1255BOLB   NC230109  33.083  38.577  14.767  0.0748 -0.1959 -0.1401
 1255BOLB   PO230110  33.496  38.412  14.537 -0.3749 -0.2871 -0.0373
 1255BOLB   GL330111  33.238  38.101  14.631  0.0842  0.4307 -0.3410
 1255BOLB   GL430112  32.909  38.157  14.546  0.1853  0.2378  0.2122
 1255BOLB   C1C30113  33.132  37.727  15.012 -0.0114  0.0447  0.1754
 1255BOLB   C2C30114  32.912  37.388  15.118  0.0772  0.2264  0.0006
 1255BOLB   C3C30115  32.491  37.077  15.197  0.0158 -0.2540  0.2164
 1255BOLB   C4C30116  32.304  36.719  15.315 -0.1742 -0.1376 -0.0749
 1255BOLB   C1D30117  32.757  38.093  14.979  0.1685 -0.0692  0.0790
 1255BOLB   C2D30118  32.642  37.807  15.261 -0.2613 -0.3277  0.1094
 1255BOLB   C3D30119  32.460  37.483  15.467 -0.0394  0.0887 -0.0718
 1255BOLB   C4D30120  32.089  37.178  15.514 -0.0870  0.1889  0.1560
 1256BOLB   NC130121  35.567  28.439  22.211 -0.0060 -0.1500  0.0832
 1256BOLB   PO130122  35.606  28.037  21.880 -0.4439 -0.4165 -0.2476
 1256BOLB   GL130123  36.002  27.962  21.724 -0.0470 -0.2569 -0.2681
 1256BOLB   GL230124  36.052  27.656  21.529 -0.0274  0.2152  0.2423
 1256BOLB   C1A30125  36.403  28.195  21.595 -0.0792  0.0516  0.4796
 1256BOLB   C2A30126  36.810  28.193  21.651  0.0938  0.1072 -0.1189
 1256BOLB   C3A30127  37.334  28.045  21.614  0.2147 -0.2260 -0.3097
 1256BOLB   C4A30128  37.827  28.072  21.639  0.1669  0.1806  0.3283
 1256BOLB   C1B30129  36.478  27.728  21.385 -0.1391 -0.2358 -0.1365
 1256BOLB   C2B30130  36.953  27.742  21.196  0.2824  0.0635 -0.1808
 1256BOLB   C3B30131  37.376  27.596  21.255  0.1332  0.0155 -0.1727
 1256BOLB   C4B30132  37.493  27.145  21.500 -0.2788 -0.1366  0.1785
 1256BOLB   NC230133  40.010  28.278  20.956 -0.1314  0.2481 -0.1189
 1256BOLB   PO230134  39.992  28.409  20.501  0.0293 -0.1583 -0.0895
 1256BOLB   GL330135  39.582  28.489  20.720 -0.0173  0.3004  0.2789
 1256BOLB   GL430136  39.344  28.640  20.344  0.0870  0.2266  0.1207
 1256BOLB   C1C30137  39.246  28.224  20.839 -0.1499  0.4900 -0.1638
 1256BOLB   C2C30138  38.935  28.104  21.326  0.3343  0.3326 -0.1744
 1256BOLB   C3C30139  38.555  28.123  21.596 -0.1600  0.2772 -0.0997
 1256BOLB   C4C30140  38.205  28.316  21.641  0.0086  0.0241 -0.0933
 1256BOLB   C1D30141  38.863  28.710  20.453  0.2931 -0.0644  0.0439
 1256BOLB   C2D30142  38.528  28.465  20.570  0.1283 -0.0952 -0.1670
 1256BOLB   C3D30143  38.142  28.553  20.835  0.0079 -0.4133 -0.2990
 1256BOLB   C4D30144  37.727  28.537  20.831 -0.1699 -0.0343  0.4357
 1257BOLB   NC130145  20.797  32.070  25.701 -0.2431 -0.1953  0.2406
 1257BOLB   PO130146  20.861  32.562  25.864 -0.1803  0.2291  0.2907
 1257BOLB   GL130147  20.504  32.697  26.038 -0.2261  0.3342  0.0478
 1257BOLB   GL230148  20.179  32.624  25.973  0.2186  0.1417 -0.1575
 1257BOLB   C1A30149  20.300  33.056  26.200 -0.2000 -0.1332 -0.0670
 1257BOLB   C2A30150  19.785  33.249  26.246 -0.1594 -0.1554  0.1862
 1257BOLB   C3A30151  19.457  33.488  26.227  0.0921  0.0944 -0.1345
 1257BOLB   C4A30152  19.186  33.909  26.276  0.2614  0.3100  0.2326
 1257BOLB   C1B30153  19.905  32.718  26.261  0.0056  0.2754 -0.1051
 1257BOLB   C2B30154  19.525  32.762  26.312 -0.0703 -0.2952  0.1103
 1257BOLB   C3B30155  19.170  33.076  26.315  0.1154 -0.0790  0.1540
 1257BOLB   C4B30156  18.841  33.281  26.283  0.1074 -0.0924  0.2218
 1257BOLB   NC230157  18.330  35.241   0.691 -0.1681 -0.0869  0.1782
 1257BOLB   PO230158  18.197  35.598   0.468 -0.0020 -0.1035  0.0184
 1257BOLB   GL330159  18.320  35.290   0.210 -0.0735  0.2192  0.0032
 1257BOLB   GL430160  18.579  35.366   0.039  0.1464  0.0999  0.1687
 1257BOLB   C1C30161  18.176  34.839   0.110 -0.1924  0.0911  0.1291
 1257BOLB   C2C30162  18.245  34.641  26.714  0.0632  0.0449 -0.1031
 1257BOLB   C3C30163  18.625  34.455  26.659  0.0611  0.2006 -0.2417
 1257BOLB   C4C30164  18.918  34.137  26.529  0.3928 -0.1637 -0.0400
 1257BOLB   C1D30165  18.685  34.899   0.100  0.0976  0.2780 -0.2070
 1257BOLB   C2D30166  18.599  34.451   0.264  0.0966 -0.3342  0.0740
 1257BOLB   C3D30167  18.748  34.101   0.158  0.0193 -0.4030 -0.1528
 1257BOLB   C4D30168  18.982  33.693   0.010 -0.2370 -0.0625  0.1974
 1258BOLB   NC130169  30.990  22.020  21.911  0.2112  0.3194 -0.0479
 1258BOLB   PO130170  30.915  21.713  22.268 -0.1727 -0.0456 -0.1296
 1258BOLB   GL130171  31.261  21.521  22.222 -0.2374  0.0724 -0.0337
 1258BOLB   GL230172  31.596  21.640  22.114 -0.0210 -0.1870  0.0223
 1258BOLB   C1A30173  31.407  21.208  22.320  0.1267 -0.4976 -0.0454
 1258BOLB   C2A30174  31.202  20.697  22.280 -0.2422 -0.5189 -0.2175
 1258BOLB   C3A30175  31.043  20.298  22.164  0.1619  0.2155  0.1185
 1258BOLB   C4A30176  30.903  19.909  21.998  0.0286  0.1970  0.0254
 1258BOLB   C1B30177  31.816  21.529  22.465 -0.1856  0.1240  0.0150
 1258BOLB   C2B30178  32.218  21.320  22.396  0.1270  0.2668  0.3168
 1258BOLB   C3B30179  32.518  21.061  22.185  0.1180 -0.2576 -0.1787
 1258BOLB   C4B30180  32.982  20.800  22.033 -0.1606 -0.4950  0.2669
 1258BOLB   NC230181  32.023  17.926  22.267 -0.0694  0.1276 -0.2146
 1258BOLB   PO230182  31.727  17.748  22.515  0.0677 -0.0102  0.2272
 1258BOLB   GL330183  31.543  18.131  22.376 -0.1517  0.0735 -0.0962
 1258BOLB   GL430184  31.254  18.130  22.425  0.2169  0.0941  0.3035
 1258BOLB   C1C30185  31.673  18.504  22.450 -0.0968  0.1137 -0.0018
 1258BOLB   C2C30186  31.706  18.873  22.123 -0.2459 -0.4251 -0.2932
 1258BOLB   C3C30187  31.464  19.264  21.995 -0.2953  0.0285  0.0402
 1258BOLB   C4C30188  31.092  19.511  22.081 -0.1590 -0.1915  0.3076
 1258BOLB   C1D30189  31.237  18.624  22.556  0.0198  0.0430 -0.1729
 1258BOLB   C2D30190  31.503  18.980  22.673 -0.6703  0.0083  0.2722
 1258BOLB   C3D30191  31.423  19.379  22.563 -0.1984  0.0397 -0.0526
 1258BOLB   C4D30192  31.025  19.607  22.619 -0.2203  0.1084  0.3102
 1259BOLB   NC130193  25.203  37.027  24.126 -0.2948  0.1757  0.0750
 1259BOLB   PO130194  25.402  37.389  24.008 -0.1995 -0.2508  0.0713
 1259BOLB   GL130195  25.269  37.709  23.836  0.1920  0.1603 -0.1389
 1259BOLB   GL230196  25.141  37.813  23.542  0.0051  0.0777 -0.3613
 1259BOLB   C1A30197  24.938  37.919  24.110 -0.0436 -0.0724 -0.2354
 1259BOLB   C2A30198  24.694  38.104  24.301  0.0631 -0.0697 -0.2087
 1259BOLB   C3A30199  24.487  38.553  24.407 -0.1957 -0.0828  0.2227
 1259BOLB   C4A30200  24.478  38.945  24.710 -0.1785  0.2480 -0.1987
 1259BOLB   C1B30201  25.039  38.208  23.712 -0.1682 -0.0111 -0.1950
 1259BOLB   C2B30202  24.786  38.440  23.977  0.0135 -0.2060  0.0659
 1259BOLB   C3B30203  24.880  38.860  24.236  0.3144 -0.0155  0.0693
 1259BOLB   C4B30204  24.711  39.174  24.371 -0.2978  0.0097 -0.0552
 1259BOLB   NC230205  23.887  41.287  24.624 -0.2086 -0.0929  0.1666
 1259BOLB   PO230206  23.546  41.026  24.447  0.2271 -0.1057  0.2465
 1259BOLB   GL330207  23.624  40.583  24.283  0.1830 -0.0562 -0.1493
 1259BOLB   GL430208  23.445  40.300  24.368 -0.2129  0.1428  0.3801
 1259BOLB   C1C30209  23.879  40.180  24.577  0.3543  0.1582 -0.1443
 1259BOLB   C2C30210  24.112  40.003  24.954  0.1596 -0.0330 -0.2551
 1259BOLB   C3C30211  24.334  39.663  25.177  0.3190 -0.0464  0.4189
 1259BOLB   C4C30212  24.395  39.318  24.876 -0.0877 -0.0051 -0.1100
 1259BOLB   C1D30213  23.578  39.840  24.388  0.0771 -0.1963  0.2466
 1259BOLB   C2D30214  23.919  39.744  24.053  0.1539  0.1427 -0.3279
 1259BOLB   C3D30215  24.238  39.485  23.860  0.0017 -0.1917 -0.1777
 1259BOLB   C4D30216  24.331  39.055  23.898 -0.0663 -0.1138  0.2158
 1260BOLB   NC130217  29.459  36.050  16.449  0.1703 -0.1088  0.2217
 1260BOLB   PO130218  29.181  36.330  16.679 -0.0053  0.1053 -0.1408
 1260BOLB   GL130219  29.240  36.583  16.306  0.2357 -0.2322 -0.4898
 1260BOLB   GL230220  29.436  36.437  16.164  0.0816 -0.2320 -0.3984
 1260BOLB   C1A30221  28.971  36.980  16.293 -0.2519 -0.3322 -0.2460
 1260BOLB   C2A30222  28.882  37.378  16.050  0.1922  0.0804  0.0797
 1260BOLB   C3A30223  28.595  37.674  15.954  0.2355 -0.1295 -0.0588
 1260BOLB   C4A30224  28.523  38.044  15.618  0.0336  0.1052 -0.1735
 1260BOLB   C1B30225  29.401  36.881  15.978  0.1330 -0.0047  0.0482
 1260BOLB   C2B30226  29.676  37.234  15.729  0.0931 -0.4699  0.0642
 1260BOLB   C3B30227  29.749  37.529  15.506 -0.0210 -0.3986  0.0681
 1260BOLB   C4B30228  29.492  37.892  15.358 -0.0941 -0.1855 -0.0271
 1260BOLB   NC230229  29.076  40.260  14.111 -0.2285 -0.0236 -0.1280
 1260BOLB   PO230230  28.894  39.927  14.326 -0.0148  0.0491  0.0417
 1260BOLB   GL330231  28.998  39.559  14.554 -0.0616  0.1566  0.0233
 1260BOLB   GL430232  29.307  39.459  14.795 -0.0272  0.3063 -0.0013
 1260BOLB   C1C30233  28.857  39.133  14.664  0.2880  0.0612  0.2283
 1260BOLB   C2C30234  28.805  39.079  15.052 -0.2156  0.2687 -0.2495
 1260BOLB   C3C30235  28.456  38.833  15.364 -0.0520  0.1032 -0.2943
 1260BOLB   C4C30236  28.372  38.375  15.539 -0.0260 -0.0654  0.0941
 1260BOLB   C1D30237  29.291  38.957  14.853  0.1898 -0.1127  0.0658
 1260BOLB   C2D30238  29.623  38.692  14.648  0.1707 -0.1043 -0.1780
 1260BOLB   C3D30239  30.024  38.446  14.820 -0.1248  0.0347  0.0087
 1260BOLB   C4D30240  29.950  38.136  15.020  0.1425  0.1126  0.1513
 1261BOLB   NC130241  30.121  34.753  15.702  0.4572  0.0063 -0.1725
 1261BOLB   PO130242  29.690  34.960  15.780 -0.3093 -0.4789 -0.3756
 1261BOLB   GL130243  29.644  35.068  15.372  0.0435 -0.0542  0.2068
 1261BOLB   GL230244  29.532  35.375  15.334 -0.0439 -0.1464 -0.1062
 1261BOLB   C1A30245  29.788  34.981  14.810  0.1537 -0.0662 -0.2784
 1261BOLB   C2A30246  29.996  35.079  14.490  0.2820 -0.1542 -0.1436
 1261BOLB   C3A30247  29.932  35.167  14.084 -0.3150  0.2233  0.1816
 1261BOLB   C4A30248  30.281  35.180  13.810  0.2869 -0.1239  0.0319
 1261BOLB   C1B30249  29.688  35.529  14.894  0.0501 -0.1443 -0.1735
 1261BOLB   C2B30250  29.650  35.778  14.508 -0.2357 -0.0536 -0.2450
 1261BOLB   C3B30251  29.626  36.294  14.251 -0.1060  0.4907 -0.0985
 1261BOLB   C4B30252  29.694  36.631  13.937  0.0897  0.0283 -0.0119
 1261BOLB   NC230253  31.008  36.116  11.836 -0.3703  0.0981  0.1943
 1261BOLB   PO230254  30.854  35.860  12.023 -0.1027  0.1970  0.1090
 1261BOLB   GL330255  30.827  35.490  12.019  0.1970  0.0306 -0.1064
 1261BOLB   GL430256  30.827  35.204  11.854  0.1398 -0.1413 -0.3971
 1261BOLB   C1C30257  31.066  35.284  12.342  0.2640 -0.0031  0.0116
 1261BOLB   C2C30258  30.927  35.081  12.695 -0.0473 -0.2131 -0.0524
 1261BOLB   C3C30259  30.761  35.047  13.137  0.0191 -0.1083 -0.0084
 1261BOLB   C4C30260  30.664  35.144  13.481  0.0645  0.0626  0.0482
 1261BOLB   C1D30261  30.368  35.191  12.000 -0.0265  0.0710  0.1768
 1261BOLB   C2D30262  29.919  35.059  12.018  0.1893  0.0144  0.0172
 1261BOLB   C3D30263  29.691  34.698  12.235 -0.0703  0.1120 -0.2728
 1261BOLB   C4D30264  29.324  34.387  12.259 -0.1530  0.1060 -0.0445
 1262BOLB   NC130265  30.151  22.114  24.225 -0.1076  0.2174 -0.1421
 1262BOLB   PO130266  30.321  21.755  24.002  0.2207  0.0183 -0.0722
 1262BOLB   GL130267  30.496  21.427  24.228 -0.2572  0.1249  0.0566
 1262BOLB   GL230268  30.353  21.202  23.930 -0.1044  0.3577 -0.2192
 1262BOLB   C1A30269  30.801  21.063  24.084 -0.0401  0.1118  0.1399
 1262BOLB   C2A30270  30.580  20.655  24.132 -0.2576 -0.1631  0.1405
 1262BOLB   C3A30271  30.826  20.272  24.286 -0.0437 -0.2006 -0.0501
 1262BOLB   C4A30272  31.217  20.087  24.566 -0.0756  0.0826 -0.3411
 1262BOLB   C1B30273  30.226  20.903  24.315  0.1648 -0.1578  0.0994
 1262BOLB   C2B30274  30.401  20.627  24.573 -0.2072 -0.0180 -0.0993
 1262BOLB   C3B30275  30.593  20.698  24.925 -0.0772 -0.1655 -0.1179
 1262BOLB   C4B30276  30.661  20.638  25.318 -0.0708 -0.1988  0.2419
 1262BOLB   NC230277  33.222  19.154  25.531  0.1633  0.0106 -0.0788
 1262BOLB   PO230278  32.768  19.058  25.565  0.1084  0.0847 -0.3535
 1262BOLB   GL330279  32.511  19.461  25.512  0.4659  0.1236 -0.0185
 1262BOLB   GL430280  32.343  19.426  25.348 -0.0074  0.0380 -0.1392
 1262BOLB   C1C30281  32.631  19.875  25.379  0.0570  0.0924 -0.1798
 1262BOLB   C2C30282  32.341  20.056  25.110  0.0006 -0.1381 -0.0395
 1262BOLB   C3C30283  32.025  20.218  24.766  0.0687  0.0958 -0.1216
 1262BOLB   C4C30284  31.682  20.165  24.616  0.0330 -0.3575  0.2645
 1262BOLB   C1D30285  32.360  19.615  24.944 -0.2867  0.2191  0.0830
 1262BOLB   C2D30286  32.304  19.830  24.635 -0.0020  0.1525 -0.0787
 1262BOLB   C3D30287  32.313  19.717  24.048  0.0974  0.1492 -0.3129
 1262BOLB   C4D30288  32.619  19.682  23.662 -0.1456  0.0821  0.0348
 1263BOLB   NC130289  22.158  34.261  24.461 -0.0024 -0.2919 -0.1439
 1263BOLB   PO130290  21.755  34.443  24.681  0.1448  0.2351  0.0407
 1263BOLB   GL130291  21.564  34.617  24.977 -0.0626 -0.0390  0.1322
 1263BOLB   GL230292  21.486  34.947  25.074  0.2622  0.3004  0.2086
 1263BOLB   C1A30293  21.060  34.678  25.081 -0.0916  0.0487 -0.0117
 1263BOLB   C2A30294  20.707  34.910  25.024 -0.0240 -0.2849 -0.0829
 1263BOLB   C3A30295  20.399  35.057  25.234  0.0219 -0.3532  0.1141
 1263BOLB   C4A30296  20.186  35.299  25.362 -0.3421  0.1888  0.0060
 1263BOLB   C1B30297  21.059  35.181  25.225  0.0345  0.0699 -0.0673
 1263BOLB   C2B30298  20.733  35.400  25.461 -0.0571  0.1079  0.0454
 1263BOLB   C3B30299  20.427  35.661  25.693  0.1618  0.2934  0.0210
 1263BOLB   C4B30300  20.072  35.869  25.979  0.1106 -0.1383 -0.0454
 1263BOLB   NC230301  18.385  36.972  26.648 -0.0785 -0.3750  0.0834
 1263BOLB   PO230302  18.491  36.835  26.224 -0.2302 -0.0660  0.3537
 1263BOLB   GL330303  18.560  36.404  26.099 -0.0555 -0.0095 -0.1802
 1263BOLB   GL430304  18.442  36.194  25.957 -0.0011 -0.0944 -0.2159
 1263BOLB   C1C30305  18.878  36.109  26.196 -0.0412  0.1622  0.2411
 1263BOLB   C2C30306  19.284  35.911  26.046  0.3514 -0.1224 -0.1216
 1263BOLB   C3C30307  19.627  35.939  25.827 -0.4442 -0.1390 -0.1458
 1263BOLB   C4C30308  19.879  35.561  25.613 -0.1275  0.2268 -0.1416
 1263BOLB   C1D30309  18.774  36.237  25.704  0.2954 -0.0166  0.2772
 1263BOLB   C2D30310  19.126  35.981  25.516  0.3710  0.1307  0.0747
 1263BOLB   C3D30311  19.427  35.695  25.398 -0.2301 -0.0068 -0.5096
 1263BOLB   C4D30312  19.446  35.317  25.214  0.2949 -0.0516 -0.3603
 1264BOLB   NC130313  31.218  25.109  15.509 -0.0401 -0.0958 -0.0550
 1264BOLB   PO130314  30.770  24.963  15.553  0.0261 -0.1416 -0.1195
 1264BOLB   GL130315  31.048  24.700  15.315  0.0520 -0.0248  0.1831
 1264BOLB   GL230316  31.022  24.410  15.185 -0.2345 -0.0309  0.0969
 1264BOLB   C1A30317  31.569  24.650  15.237  0.0083 -0.0041 -0.0881
 1264BOLB   C2A30318  31.884  24.652  15.050  0.2465  0.0194 -0.2461
 1264BOLB   C3A30319  32.368  24.512  14.974  0.0301  0.2408 -0.1363
 1264BOLB   C4A30320  32.634  24.161  14.991  0.0417  0.2566  0.3142
 1264BOLB   C1B30321  31.237  24.040  15.245 -0.1226  0.0216 -0.2004
 1264BOLB   C2B30322  31.526  23.860  15.290  0.1260  0.0917  0.2936
 1264BOLB   C3B30323  31.922  23.604  15.179  0.1076  0.2311 -0.2509
 1264BOLB   C4B30324  32.057  23.275  14.940  0.0371 -0.0349 -0.0396
 1264BOLB   NC230325  34.437  23.394  13.021 -0.0579 -0.2280  0.1002
 1264BOLB   PO230326  33.904  23.388  13.235 -0.1602  0.5723  0.3388
 1264BOLB   GL330327  33.758  23.603  13.655  0.1017  0.2007  0.1631
 1264BOLB   GL430328  33.421  23.455  13.808  0.2015  0.3691  0.2491
 1264BOLB   C1C30329  33.734  23.836  14.004  0.4356  0.0872  0.1749
 1264BOLB   C2C30330  33.556  23.884  14.453 -0.4033 -0.0476  0.0647
 1264BOLB   C3C30331  33.316  23.904  14.842  0.3238 -0.1153 -0.4679
 1264BOLB   C4C30332  32.839  23.868  14.964  0.0975  0.1025 -0.2050
 1264BOLB   C1D30333  33.029  23.511  13.937  0.2429 -0.0352  0.2339
 1264BOLB   C2D30334  32.732  23.493  14.118 -0.0489 -0.1319 -0.0705
 1264BOLB   C3D30335  32.241  23.588  14.065 -0.0938 -0.0002  0.0058
 1264BOLB   C4D30336  31.805  23.692  14.144  0.0319  0.0515  0.2173
 1265BOLB   NC130337  26.643  22.036  18.479 -0.1418 -0.1984 -0.2172
 1265BOLB   PO130338  26.693  21.762  18.766 -0.2718 -0.2105  0.0555
 1265BOLB   GL130339  26.910  21.394  18.514 -0.1421 -0.3341 -0.1018
 1265BOLB   GL230340  26.866  21.599  18.235  0.1276  0.3470 -0.3257
 1265BOLB   C1A30341  26.840  20.971  18.431  0.0231 -0.0327  0.1962
 1265BOLB   C2A30342  26.522  20.710  18.413  0.3088  0.0649 -0.1851
 1265BOLB   C3A30343  26.208  20.521  18.206  0.5913 -0.0117 -0.0477
 1265BOLB   C4A30344  25.798  20.242  18.064  0.1395 -0.4487 -0.1465
 1265BOLB   C1B30345  26.986  21.187  18.039 -0.2016 -0.1866 -0.2057
 1265BOLB   C2B30346  26.901  20.799  17.941  0.2358 -0.0857  0.1343
 1265BOLB   C3B30347  27.013  20.431  17.713  0.1903  0.2480  0.0984
 1265BOLB   C4B30348  27.333  20.124  17.630 -0.3274 -0.1248 -0.0573
 1265BOLB   NC230349  26.326  17.660  17.211  0.3333 -0.5568 -0.3460
 1265BOLB   PO230350  26.167  18.080  17.204 -0.3481 -0.0092 -0.0455
 1265BOLB   GL330351  25.930  18.552  17.151 -0.1116  0.1173 -0.1446
 1265BOLB   GL430352  26.146  18.815  17.138 -0.1836 -0.0014 -0.0110
 1265BOLB   C1C30353  25.647  18.905  17.089 -0.1050 -0.0329 -0.0143
 1265BOLB   C2C30354  25.630  19.315  17.273  0.0146 -0.0121  0.1607
 1265BOLB   C3C30355  25.537  19.573  17.533  0.1456  0.0056  0.1730
 1265BOLB   C4C30356  25.472  19.956  17.817  0.3426  0.2760 -0.1239
 1265BOLB   C1D30357  26.027  19.245  16.970  0.0759 -0.1076 -0.3800
 1265BOLB   C2D30358  25.826  19.730  17.075  0.4467 -0.0555  0.1004
 1265BOLB   C3D30359  25.816  20.048  17.407  0.0356  0.0063  0.0260
 1265BOLB   C4D30360  25.492  20.413  17.545  0.2936 -0.1617 -0.0473
 1266BOLB   NC130361  31.728  28.794   2.256  0.2074  0.2590 -0.2277
 1266BOLB   PO130362  31.511  29.105   2.328 -0.1963 -0.1680  0.2068
 1266BOLB   GL130363  31.817  29.133   2.657  0.1252  0.0687 -0.0861
 1266BOLB   GL230364  32.067  28.879   2.654  0.6318  0.0917 -0.3002
 1266BOLB   C1A30365  31.996  28.925   3.146  0.1670 -0.0180 -0.1400
 1266BOLB   C2A30366  32.301  28.757   3.413  0.0181 -0.0562 -0.0352
 1266BOLB   C3A30367  32.472  28.479   3.639 -0.2859 -0.2087  0.0987
 1266BOLB   C4A30368  32.359  28.328   4.046 -0.2665 -0.0711  0.4363
 1266BOLB   C1B30369  32.455  28.759   2.936 -0.0332  0.1273  0.0022
 1266BOLB   C2B30370  32.781  28.632   3.162 -0.1855 -0.4172 -0.0924
 1266BOLB   C3B30371  33.150  28.646   3.378 -0.0273  0.3169 -0.1723
 1266BOLB   C4B30372  33.613  28.650   3.393 -0.0078 -0.5218  0.0359
 1266BOLB   NC230373  33.684  26.836   5.217  0.0781 -0.1032  0.2770
 1266BOLB   PO230374  33.989  27.125   5.178  0.3458 -0.1973 -0.0307
 1266BOLB   GL330375  33.859  27.493   4.932 -0.1914 -0.2973 -0.0102
 1266BOLB   GL430376  33.809  27.832   4.942 -0.1157  0.0318  0.0852
 1266BOLB   C1C30377  33.465  27.656   4.646 -0.3713  0.2289 -0.0183
 1266BOLB   C2C30378  33.147  27.895   4.716 -0.2094  0.2581 -0.2212
 1266BOLB   C3C30379  32.682  28.029   4.612 -0.1753  0.0645  0.2357
 1266BOLB   C4C30380  32.392  28.239   4.543  0.1490 -0.0951 -0.0065
 1266BOLB   C1D30381  33.493  28.132   4.978  0.0126 -0.1085 -0.0490
 1266BOLB   C2D30382  33.315  28.363   4.666  0.0132  0.0363  0.1144
 1266BOLB   C3D30383  33.293  28.497   4.270  0.0334 -0.4101  0.0339
 1266BOLB   C4D30384  33.458  28.589   3.866 -0.2092  0.0185  0.1151
 1267BOLB   NC130385  20.701  27.684  17.035 -0.1232  0.2327  0.2506
 1267BOLB   PO130386  20.439  27.827  17.190  0.1480  0.0996 -0.1613
 1267BOLB   GL130387  20.038  27.789  17.172 -0.1753 -0.1456 -0.1534
 1267BOLB   GL230388  19.891  27.869  17.514  0.1602  0.2631 -0.0937
 1267BOLB   C1A30389  19.647  27.634  16.934 -0.0431 -0.0647  0.1108
 1267BOLB   C2A30390  19.163  27.514  17.030 -0.0148  0.1158  0.0780
 1267BOLB   C3A30391  18.890  27.257  16.778  0.4219  0.0671 -0.1655
 1267BOLB   C4A30392  18.427  27.103  16.804 -0.1611  0.1247  0.2719
 1267BOLB   C1B30393  19.592  27.648  17.683  0.1611 -0.0218  0.0582
 1267BOLB   C2B30394  19.277  27.340  17.733  0.1319  0.1522  0.0824
 1267BOLB   C3B30395  18.923  27.162  17.767 -0.0704  0.1480  0.0387
 1267BOLB   C4B30396  18.452  27.273  17.832 -0.1538 -0.1488 -0.0056
 1267BOLB   NC230397  16.143  26.513  16.449  0.2111 -0.2076  0.0439
 1267BOLB   PO230398  16.150  26.510  16.033 -0.4797  0.0243  0.1586
 1267BOLB   GL330399  16.654  26.448  16.199 -0.0740  0.1484  0.1508
 1267BOLB   GL430400  16.590  26.239  16.472  0.0223 -0.1046  0.1527
 1267BOLB   C1C30401  16.930  26.767  16.462  0.1242  0.2184  0.0336
 1267BOLB   C2C30402  17.157  27.095  16.711  0.0983 -0.0017 -0.1161
 1267BOLB   C3C30403  17.599  27.118  16.885 -0.1127  0.1627 -0.0279
 1267BOLB   C4C30404  18.074  27.001  16.913 -0.1846 -0.0157 -0.0038
 1267BOLB   C1D30405  16.904  26.297  16.658 -0.0277 -0.1747  0.0310
 1267BOLB   C2D30406  17.097  26.507  16.937 -0.2376 -0.2392  0.0326
 1267BOLB   C3D30407  17.370  26.403  17.289  0.2684  0.0720  0.0515
 1267BOLB   C4D30408  17.536  26.183  17.612 -0.1867 -0.5993  0.0873
 1268BOLB   NC130409  33.593  26.508  17.450  0.2173  0.2430  0.3820
 1268BOLB   PO130410  33.865  26.829  17.716  0.3747  0.1030  0.2288
 1268BOLB   GL130411  34.203  26.543  17.522  0.0670 -0.0281 -0.0249
 1268BOLB   GL230412  34.350  26.440  17.822 -0.3045  0.0665  0.0580
 1268BOLB   C1A30413  34.667  26.588  17.353  0.0040 -0.4273  0.2486
 1268BOLB   C2A30414  35.005  26.372  17.025  0.1052 -0.0734 -0.0042
 1268BOLB   C3A30415  35.328  26.353  16.723  0.1068  0.0967 -0.1154
 1268BOLB   C4A30416  35.595  26.558  16.418 -0.1961 -0.1392  0.0738
 1268BOLB   C1B30417  34.779  26.484  17.871 -0.2120  0.1378 -0.2059
 1268BOLB   C2B30418  35.091  26.357  17.620  0.1814  0.2447  0.2204
 1268BOLB   C3B30419  35.366  26.241  17.309  0.2920  0.0047 -0.2482
 1268BOLB   C4B30420  35.575  25.978  17.044  0.2334  0.0279 -0.1754
 1268BOLB   NC230421  38.078  26.556  16.013  0.1873 -0.0044 -0.0035
 1268BOLB   PO230422  37.940  26.147  16.094  0.1798 -0.0003 -0.3712
 1268BOLB   GL330423  37.612  26.331  16.145 -0.1727  0.0477  0.0510
 1268BOLB   GL430424  37.555  26.501  15.853  0.0795 -0.0879 -0.0698
 1268BOLB   C1C30425  37.249  26.586  16.245 -0.2636  0.1257  0.0391
 1268BOLB   C2C30426  36.814  26.680  16.348 -0.0513  0.3213 -0.2463
 1268BOLB   C3C30427  36.481  26.692  16.077  0.0766  0.0789 -0.2596
 1268BOLB   C4C30428  35.997  26.753  16.223  0.0826  0.1300 -0.3634
 1268BOLB   C1D30429  37.146  26.268  15.851 -0.1821  0.0570  0.1342
 1268BOLB   C2D30430  36.750  26.193  16.031  0.0631 -0.0768  0.0456
 1268BOLB   C3D30431  36.352  26.160  16.077 -0.0523 -0.1937 -0.1442
 1268BOLB   C4D30432  35.853  26.217  16.186 -0.0851  0.1270 -0.0738
 1269BOLB   NC130433  31.140  37.126  21.837  0.1247 -0.0118 -0.1241
 1269BOLB   PO130434  30.997  37.461  21.531  0.0457  0.1426  0.0759
 1269BOLB   GL130435  31.033  37.853  21.644  0.1347 -0.0109  0.4694
 1269BOLB   GL230436  31.145  38.030  21.387 -0.0190 -0.1105  0.1612
 1269BOLB   C1A30437  31.046  38.126  21.892  0.0847  0.0596 -0.2861
 1269BOLB   C2A30438  31.302  38.495  21.874  0.1377  0.1109 -0.0948
 1269BOLB   C3A30439  31.473  38.909  21.896 -0.2091 -0.2081  0.2834
 1269BOLB   C4A30440  31.446  39.276  22.063  0.1957  0.1430 -0.1876
 1269BOLB   C1B30441  31.043  38.390  21.509  0.0212  0.1941 -0.0764
 1269BOLB   C2B30442  31.301  38.805  21.443 -0.0318 -0.0515  0.1829
 1269BOLB   C3B30443  31.288  39.251  21.326 -0.0911  0.2779 -0.0164
 1269BOLB   C4B30444  31.142  39.512  21.106  0.1000 -0.0859  0.2386
 1269BOLB   NC230445  31.933  41.237  21.716  0.0923 -0.1467  0.2448
 1269BOLB   PO230446  31.795  41.249  21.401 -0.0272  0.1769 -0.2091
 1269BOLB   GL330447  31.763  40.823  21.330 -0.1119  0.3268 -0.2733
 1269BOLB   GL430448  31.635  40.697  21.094  0.1371 -0.1339  0.2375
 1269BOLB   C1C30449  31.669  40.550  21.652  0.0955  0.0556  0.0654
 1269BOLB   C2C30450  31.360  40.203  21.726 -0.0648 -0.1049 -0.1204
 1269BOLB   C3C30451  31.129  40.015  21.996 -0.1198  0.0685 -0.0568
 1269BOLB   C4C30452  31.286  39.687  22.239  0.0010 -0.3223  0.1368
 1269BOLB   C1D30453  31.276  40.547  20.843  0.0185 -0.1927 -0.0847
 1269BOLB   C2D30454  30.921  40.253  20.800  0.1601  0.0564  0.0697
 1269BOLB   C3D30455  30.742  39.892  20.819  0.1329 -0.2388 -0.1291
 1269BOLB   C4D30456  30.649  39.450  20.971 -0.2538  0.2526  0.1669
 1270BOLB   NC130457  33.046  34.722  17.201  0.3109  0.0326  0.0477
 1270BOLB   PO130458  32.786  35.128  17.338 -0.1582  0.2035  0.1132
 1270BOLB   GL130459  32.942  35.227  16.883 -0.1194 -0.0741 -0.0762
 1270BOLB   GL230460  32.685  35.258  16.677 -0.2911 -0.0647 -0.2699
 1270BOLB   C1A30461  33.224  35.427  16.735 -0.0483  0.2092 -0.0759
 1270BOLB   C2A30462  33.429  35.635  16.459  0.0906 -0.0428  0.0652
 1270BOLB   C3A30463  33.626  35.773  16.131 -0.0994  0.1000  0.2223
 1270BOLB   C4A30464  33.772  36.110  15.839 -0.2377  0.1136  0.1278
 1270BOLB   C1B30465  32.813  35.384  16.398 -0.1235  0.2411 -0.0228
 1270BOLB   C2B30466  32.982  35.774  16.247 -0.2273 -0.0181  0.0803
 1270BOLB   C3B30467  33.002  36.110  15.911  0.2349  0.2553 -0.1777
 1270BOLB   C4B30468  33.105  36.535  15.845  0.0338 -0.1101  0.3575
 1270BOLB   NC230469  35.302  36.754  14.453 -0.6255 -0.0173 -0.2491
 1270BOLB   PO230470  35.233  36.825  14.011  0.1588  0.0636  0.0941
 1270BOLB   GL330471  34.836  36.660  14.244 -0.1091 -0.1966  0.2061
 1270BOLB   GL430472  34.899  36.494  14.571  0.0144 -0.1823  0.1717
 1270BOLB   C1C30473  34.370  36.871  14.477  0.0087  0.0135 -0.1267
 1270BOLB   C2C30474  34.050  36.966  14.770 -0.0299  0.0852  0.1064
 1270BOLB   C3C30475  34.058  36.769  15.180  0.2816  0.2948  0.1239
 1270BOLB   C4C30476  33.892  36.453  15.534  0.3684  0.0613  0.4058
 1270BOLB   C1D30477  34.470  36.387  14.327 -0.0894 -0.0429  0.1116
 1270BOLB   C2D30478  34.031  36.508  14.211 -0.0747 -0.0212  0.0343
 1270BOLB   C3D30479  33.617  36.294  14.133  0.1409  0.2180 -0.5587
 1270BOLB   C4D30480  33.310  36.022  14.134  0.1572  0.2622  0.1125
 1271BOLB   NC130481  28.145  36.090  25.950 -0.0721 -0.1947  0.1403
 1271BOLB   PO130482  27.996  36.458  26.291 -0.2777  0.0772  0.2955
 1271BOLB   GL130483  27.980  36.907  26.602  0.0421  0.0113 -0.2143
 1271BOLB   GL230484  27.829  37.103  26.417 -0.3252  0.2648  0.0561
 1271BOLB   C1A30485  28.239  37.161  26.903 -0.2830  0.2557  0.1524
 1271BOLB   C2A30486  28.512  37.209   0.260  0.0575 -0.0323 -0.2890
 1271BOLB   C3A30487  28.596  37.543   0.515  0.0486 -0.0675 -0.0877
 1271BOLB   C4A30488  28.485  37.903   0.756 -0.1658 -0.2369  0.1290
 1271BOLB   C1B30489  27.898  37.486  26.590 -0.2343  0.2030 -0.0629
 1271BOLB   C2B30490  27.978  37.689  26.874  0.1336  0.4512 -0.0579
 1271BOLB   C3B30491  27.709  37.792   0.377 -0.0457  0.1337 -0.0065
 1271BOLB   C4B30492  27.368  37.818   0.708 -0.0032 -0.0260  0.1896
 1271BOLB   NC230493  28.928  39.620   2.268  0.0607  0.1124 -0.0093
 1271BOLB   PO230494  29.159  39.681   1.820 -0.1773 -0.1823 -0.0819
 1271BOLB   GL330495  29.272  39.622   1.337 -0.1263  0.2969 -0.2093
 1271BOLB   GL430496  29.521  39.471   1.288  0.0798  0.1690  0.1336
 1271BOLB   C1C30497  29.048  39.297   1.080  0.1407 -0.1954 -0.1769
 1271BOLB   C2C30498  28.880  39.061   0.793  0.2141  0.4979 -0.1273
 1271BOLB   C3C30499  28.866  38.661   0.600 -0.0073 -0.1312  0.2397
 1271BOLB   C4C30500  28.620  38.271   0.701 -0.0119  0.1456  0.3164
 1271BOLB   C1D30501  29.498  39.075   0.998  0.0051 -0.0617 -0.0182
 1271BOLB   C2D30502  29.376  38.770   0.789 -0.0854  0.0132 -0.1070
 1271BOLB   C3D30503  29.313  38.523   0.389  0.1735  0.2372 -0.0155
 1271BOLB   C4D30504  29.472  38.180   0.268 -0.2248 -0.1766 -0.1366
 1272BOLB   NC130505  20.529  30.126  17.918 -0.0186  0.0392 -0.1199
 1272BOLB   PO130506  20.170  30.342  17.980  0.4024 -0.2903 -0.1425
 1272BOLB   GL130507  19.726  30.255  17.814 -0.1003  0.0388  0.0342
 1272BOLB   GL230508  19.484  30.051  17.937  0.0092  0.1177 -0.0914
 1272BOLB   C1A30509  19.344  30.425  17.591 -0.3051  0.0594 -0.3144
 1272BOLB   C2A30510  18.936  30.621  17.563  0.1836  0.1165  0.0994
 1272BOLB   C3A30511  18.787  30.992  17.467 -0.1888 -0.0010 -0.1186
 1272BOLB   C4A30512  18.362  31.145  17.259  0.0346  0.3353 -0.1022
 1272BOLB   C1B30513  18.994  30.101  17.744  0.2501 -0.0170 -0.1355
 1272BOLB   C2B30514  18.571  30.109  17.566 -0.0745 -0.3518  0.1807
 1272BOLB   C3B30515  18.155  30.067  17.473  0.2747  0.0149 -0.2660
 1272BOLB   C4B30516  17.725  29.795  17.663  0.5109 -0.0067 -0.0433
 1272BOLB   NC230517  16.294  32.641  16.122 -0.0874  0.2219 -0.0473
 1272BOLB   PO230518  16.739  32.529  16.027 -0.0092  0.1295  0.2392
 1272BOLB   GL330519  17.127  32.298  16.197  0.1437  0.3277 -0.3018
 1272BOLB   GL430520  17.168  32.130  16.087 -0.0841  0.5552 -0.2868
 1272BOLB   C1C30521  17.313  32.340  16.584  0.1788 -0.1162  0.2438
 1272BOLB   C2C30522  17.483  32.040  16.870  0.1457 -0.2132  0.1833
 1272BOLB   C3C30523  17.744  31.724  17.027  0.1569 -0.1982  0.1785
 1272BOLB   C4C30524  18.077  31.394  16.995  0.3487 -0.0426 -0.1412
 1272BOLB   C1D30525  17.257  31.793  16.386 -0.0735 -0.0235  0.0682
 1272BOLB   C2D30526  17.690  31.686  16.548  0.1646  0.0717 -0.2020
 1272BOLB   C3D30527  18.156  31.736  16.500 -0.0843  0.2375  0.0097
 1272BOLB   C4D30528  18.595  31.716  16.697  0.1273  0.2577 -0.0027
 1273BOLB   NC130529  28.842  22.334  24.438  0.2157  0.0518  0.3252
 1273BOLB   PO130530  28.377  22.194  24.721  0.2855  0.0644  0.1207
 1273BOLB   GL130531  28.461  21.880  24.888  0.2937 -0.0442 -0.2165
 1273BOLB   GL230532  28.068  21.697  24.743 -0.1956 -0.0147  0.1925
 1273BOLB   C1A30533  28.731  21.593  24.991  0.4282 -0.0618  0.0401
 1273BOLB   C2A30534  28.692  21.135  25.107  0.0167 -0.2505  0.0179
 1273BOLB   C3A30535  29.006  20.824  25.120 -0.0460  0.1899 -0.0652
 1273BOLB   C4A30536  29.109  20.372  25.015 -0.0612  0.2267  0.0081
 1273BOLB   C1B30537  28.284  21.324  24.797 -0.0583  0.3828  0.1270
 1273BOLB   C2B30538  28.067  20.975  24.617  0.2467  0.0886  0.0968
 1273BOLB   C3B30539  27.968  20.532  24.726 -0.1632  0.1940  0.1141
 1273BOLB   C4B30540  28.102  20.312  25.089  0.0561  0.2816 -0.0233
 1273BOLB   NC230541  30.017  18.145  25.440 -0.2356  0.2359  0.2450
 1273BOLB   PO230542  30.299  18.275  25.103 -0.0106 -0.0875 -0.1366
 1273BOLB   GL330543  30.115  18.696  25.153 -0.1999 -0.1932  0.0081
 1273BOLB   GL430544  30.289  19.034  25.277 -0.0691  0.1114 -0.0892
 1273BOLB   C1C30545  29.892  18.991  24.956  0.6810  0.1133 -0.0494
 1273BOLB   C2C30546  29.639  19.354  24.721  0.1151 -0.3102  0.1279
 1273BOLB   C3C30547  29.376  19.726  24.695 -0.2890 -0.3731 -0.1122
 1273BOLB   C4C30548  29.121  20.114  24.671  0.4058 -0.2463  0.1175
 1273BOLB   C1D30549  30.092  19.354  25.125 -0.0419 -0.0460 -0.1759
 1273BOLB   C2D30550  30.194  19.775  25.268  0.0752 -0.3554  0.1563
 1273BOLB   C3D30551  30.529  20.040  25.313 -0.2120  0.0734 -0.0614
 1273BOLB   C4D30552  30.635  20.231  25.673  0.1309 -0.1436 -0.4356
 1274BOLB   NC130553  26.482  27.944  14.264  0.0327  0.2705  0.1135
 1274BOLB   PO130554  26.609  28.257  13.897  0.1084  0.0181  0.0617
 1274BOLB   GL130555  26.643  28.253  13.459 -0.1365  0.4239  0.1692
 1274BOLB   GL230556  26.441  28.143  13.289 -0.1537 -0.1024 -0.1546
 1274BOLB   C1A30557  26.892  28.013  13.094  0.0726  0.0571 -0.0075
 1274BOLB   C2A30558  26.954  27.900  12.685 -0.1700 -0.1361  0.1618
 1274BOLB   C3A30559  27.025  27.726  12.215 -0.0060  0.0015  0.0471
 1274BOLB   C4A30560  26.975  27.637  11.859  0.0907  0.0273 -0.1188
 1274BOLB   C1B30561  26.412  27.988  12.899 -0.3718 -0.0898  0.1666
 1274BOLB   C2B30562  26.425  27.773  12.563  0.3083 -0.1180  0.1325
 1274BOLB   C3B30563  26.516  27.606  12.147 -0.0443  0.0140  0.3716
 1274BOLB   C4B30564  26.578  27.847  11.718 -0.1652 -0.0521 -0.2228
 1274BOLB   NC230565  27.599  27.838   9.549  0.1136  0.1973  0.1087
 1274BOLB   PO230566  27.515  28.384   9.504  0.1639 -0.1830  0.3120
 1274BOLB   GL330567  27.508  28.189   9.959  0.0387 -0.3976  0.1924
 1274BOLB   GL430568  27.792  27.895  10.015  0.1565 -0.3137  0.0231
 1274BOLB   C1C30569  27.243  27.988  10.359 -0.0935 -0.2376  0.2917
 1274BOLB   C2C30570  27.334  27.891  10.777  0.0394 -0.2294  0.0445
 1274BOLB   C3C30571  27.388  28.025  11.222 -0.0915 -0.3285  0.0132
 1274BOLB   C4C30572  27.051  27.930  11.442 -0.1714 -0.1418  0.0580
 1274BOLB   C1D30573  27.806  27.928  10.450 -0.1745 -0.0272 -0.1972
 1274BOLB   C2D30574  27.675  28.319  10.563  0.0823 -0.0914 -0.1821
 1274BOLB   C3D30575  27.225  28.477  10.793 -0.0038 -0.1626 -0.2092
 1274BOLB   C4D30576  26.951  28.280  10.883  0.3546  0.2005  0.0836
 1275BOLB   NC130577  29.581  21.944  24.573 -0.1307 -0.1574  0.2633
 1275BOLB   PO130578  29.135  21.994  24.637  0.0328  0.1095  0.3025
 1275BOLB   GL130579  29.281  21.603  24.766  0.3343  0.0799 -0.0596
 1275BOLB   GL230580  29.394  21.382  24.621  0.0381 -0.1022  0.0154
 1275BOLB   C1A30581  29.145  21.332  25.164 -0.2998 -0.0444  0.1337
 1275BOLB   C2A30582  28.896  21.371  25.599 -0.3056 -0.1972 -0.1007
 1275BOLB   C3A30583  29.141  21.357  25.989  0.1544 -0.2283 -0.0742
 1275BOLB   C4A30584  29.258  21.203  26.382 -0.0997  0.1062 -0.1727
 1275BOLB   C1B30585  29.359  20.958  24.847 -0.2226 -0.0753  0.2249
 1275BOLB   C2B30586  29.565  20.679  25.079 -0.0118  0.2101 -0.1811
 1275BOLB   C3B30587  29.714  20.254  25.336 -0.0251 -0.0261  0.1266
 1275BOLB   C4B30588  29.346  20.227  25.408  0.1080 -0.1886  0.1029
 1275BOLB   NC230589  29.466  18.944   0.858 -0.0171 -0.1625  0.0028
 1275BOLB   PO230590  29.309  18.807   0.542 -0.3149 -0.0561 -0.0208
 1275BOLB   GL330591  29.565  19.200   0.370 -0.0949 -0.3804 -0.1870
 1275BOLB   GL430592  29.919  19.163   0.169 -0.0063  0.3837 -0.5156
 1275BOLB   C1C30593  29.578  19.506   0.121  0.1334 -0.0938 -0.1480
 1275BOLB   C2C30594  29.521  20.034   0.005 -0.2283 -0.1138 -0.0862
 1275BOLB   C3C30595  29.514  20.457  26.743  0.0782  0.0713  0.1159
 1275BOLB   C4C30596  29.509  20.835  26.505 -0.0000 -0.0555 -0.1287
 1275BOLB   C1D30597  29.997  19.430  26.704 -0.2766  0.0789 -0.1619
 1275BOLB   C2D30598  29.572  19.681  26.583 -0.0511 -0.1573 -0.2093
 1275BOLB   C3D30599  29.330  20.039  26.457  0.6872  0.1382  0.0701
 1275BOLB   C4D30600  29.098  20.222  26.805  0.3751  0.2161  0.0475
 1276BOLB   NC130601  34.455  33.048  23.186  0.3645 -0.1786  0.0223
 1276BOLB   PO130602  34.865  33.180  23.402 -0.3692  0.0536  0.1754
 1276BOLB   GL130603  35.371  33.195  23.511 -0.1766  0.0308 -0.1896
 1276BOLB   GL230604  35.592  33.449  23.798 -0.0788 -0.0526 -0.1642
 1276BOLB   C1A30605  35.799  33.228  23.386  0.1234 -0.2585  0.0569
 1276BOLB   C2A30606  36.271  33.297  23.393  0.0234  0.0999  0.0956
 1276BOLB   C3A30607  36.771  33.484  23.426 -0.1617  0.1736 -0.1304
 1276BOLB   C4A30608  36.817  33.902  23.597 -0.3092  0.3565 -0.3389
 1276BOLB   C1B30609  35.990  33.498  23.767  0.1028 -0.1833 -0.1507
 1276BOLB   C2B30610  36.361  33.595  23.826  0.0472 -0.0065  0.0536
 1276BOLB   C3B30611  36.671  33.791  24.072  0.2431 -0.0328 -0.1609
 1276BOLB   C4B30612  37.073  33.874  24.191 -0.1751  0.1502 -0.2273
 1276BOLB   NC230613  38.724  34.161  25.088 -0.0629 -0.0659 -0.2480
 1276BOLB   PO230614  38.385  34.011  25.046 -0.0238  0.1234 -0.2157
 1276BOLB   GL330615  37.964  34.110  24.957 -0.3055  0.2934  0.0047
 1276BOLB   GL430616  37.867  34.399  25.197 -0.3123 -0.0928  0.3661
 1276BOLB   C1C30617  37.857  34.459  24.660 -0.0320 -0.0495 -0.0431
 1276BOLB   C2C30618  37.545  34.583  24.361 -0.0225 -0.2789  0.0565
 1276BOLB   C3C30619  37.307  34.328  24.101 -0.3547 -0.4090  0.0423
 1276BOLB   C4C30620  36.994  34.293  23.764 -0.0551  0.1151 -0.0325
 1276BOLB   C1D30621  37.380  34.146  25.228  0.0027  0.4262  0.1903
 1276BOLB   C2D30622  36.973  34.104  25.123  0.1526 -0.1089  0.0108
 1276BOLB   C3D30623  36.598  33.985  25.038  0.0184 -0.1245  0.0339
 1276BOLB   C4D30624  36.227  34.066  24.932 -0.1148  0.0016  0.2943
 1277BOLB   NC130625  33.425  23.700  21.623  0.2408  0.3317  0.0496
 1277BOLB   PO130626  33.633  24.016  21.463  0.4398  0.1000 -0.1719
 1277BOLB   GL130627  33.991  23.734  21.410 -0.0079 -0.0630  0.0527
 1277BOLB   GL230628  34.104  23.633  21.063 -0.0726 -0.3355 -0.0623
 1277BOLB   C1A30629  34.475  23.431  21.387 -0.0628  0.0781  0.0513
 1277BOLB   C2A30630  34.840  23.165  21.566  0.0109 -0.0369 -0.2055
 1277BOLB   C3A30631  35.090  23.118  21.846  0.0718 -0.1514  0.2650
 1277BOLB   C4A30632  35.436  22.980  22.140  0.2036 -0.1836  0.0714
 1277BOLB   C1B30633  34.413  23.370  20.899 -0.0330 -0.0997 -0.1644
 1277BOLB   C2B30634  34.357  23.016  20.630 -0.4324 -0.0550  0.0717
 1277BOLB   C3B30635  34.687  22.732  20.514 -0.1072  0.1587  0.1396
 1277BOLB   C4B30636  35.047  22.737  20.662  0.0474 -0.0070 -0.1637
 1277BOLB   NC230637  38.098  22.068  22.032 -0.0282 -0.1103 -0.2890
 1277BOLB   PO230638  37.718  22.189  22.347  0.3054 -0.3694 -0.0471
 1277BOLB   GL330639  37.282  22.331  22.251  0.1314  0.2152  0.0929
 1277BOLB   GL430640  37.221  22.794  22.339  0.0900  0.1279 -0.3784
 1277BOLB   C1C30641  36.935  22.461  22.496 -0.1520  0.0467 -0.0514
 1277BOLB   C2C30642  36.627  22.733  22.564  0.2077  0.3240  0.4784
 1277BOLB   C3C30643  36.194  22.979  22.663 -0.0670  0.0051  0.2331
 1277BOLB   C4C30644  35.783  22.957  22.550  0.0103 -0.2409 -0.1491
 1277BOLB   C1D30645  36.866  22.859  22.042 -0.0724 -0.0745  0.2251
 1277BOLB   C2D30646  36.592  23.053  21.833  0.1262 -0.0208  0.1040
 1277BOLB   C3D30647  36.113  23.077  21.708 -0.1467  0.1010  0.2684
 1277BOLB   C4D30648  35.765  23.292  21.848  0.0505  0.0442  0.3158
 1278BOLB   NC130649  29.752  37.894  24.454 -0.1648 -0.1483  0.4744
 1278BOLB   PO130650  30.151  37.715  24.637 -0.0501  0.2751  0.5280
 1278BOLB   GL130651  30.066  38.130  24.804 -0.1441  0.3461 -0.2673
 1278BOLB   GL230652  29.680  38.225  24.814  0.0702 -0.3285 -0.3627
 1278BOLB   C1A30653  30.062  38.502  25.016  0.3866 -0.1507 -0.0525
 1278BOLB   C2A30654  29.852  38.847  25.054  0.3002  0.0154  0.2655
 1278BOLB   C3A30655  29.900  39.206  25.413  0.0535 -0.0155  0.1297
 1278BOLB   C4A30656  29.738  39.682  25.445 -0.0159  0.2930 -0.0745
 1278BOLB   C1B30657  29.434  38.607  24.885  0.2893 -0.0542  0.2143
 1278BOLB   C2B30658  29.323  39.036  24.720  0.2062 -0.0461  0.1874
 1278BOLB   C3B30659  29.238  39.552  24.862  0.0765  0.0834  0.0540
 1278BOLB   C4B30660  29.548  39.891  24.808  0.0422 -0.1668 -0.0594
 1278BOLB   NC230661  30.146  41.412  26.190 -0.0846  0.1178  0.1415
 1278BOLB   PO230662  29.841  41.210  26.328  0.0507  0.2901 -0.2493
 1278BOLB   GL330663  29.812  41.162  25.864  0.4488 -0.1803 -0.1942
 1278BOLB   GL430664  30.045  41.019  25.771 -0.0893 -0.0958  0.1978
 1278BOLB   C1C30665  29.884  41.035  25.336 -0.0527 -0.0974  0.0208
 1278BOLB   C2C30666  30.008  40.651  25.355 -0.3596  0.3190  0.0616
 1278BOLB   C3C30667  29.964  40.273  25.556  0.0555 -0.0892 -0.2323
 1278BOLB   C4C30668  29.987  39.889  25.605 -0.1300 -0.0268  0.0208
 1278BOLB   C1D30669  29.751  40.681  25.757  0.2884 -0.2302  0.0887
 1278BOLB   C2D30670  29.547  40.449  25.379  0.0632  0.3749  0.0162
 1278BOLB   C3D30671  29.171  40.468  25.222 -0.1243 -0.3060  0.2998
 1278BOLB   C4D30672  28.767  40.622  25.344 -0.1235  0.1888  0.0100
 1279BOLB   NC130673  30.756  26.113  14.800 -0.4468  0.2509  0.0529
 1279BOLB   PO130674  30.785  25.768  14.455  0.1258 -0.0514  0.2649
 1279BOLB   GL130675  30.891  25.481  14.283  0.0351 -0.0727 -0.1260
 1279BOLB   GL230676  31.071  25.630  14.062  0.1414 -0.1618  0.0156
 1279BOLB   C1A30677  31.037  25.159  13.958  0.0024  0.2936 -0.2326
 1279BOLB   C2A30678  31.140  24.678  13.823  0.1042 -0.0192 -0.0786
 1279BOLB   C3A30679  31.417  24.368  13.849 -0.2072 -0.0496 -0.2485
 1279BOLB   C4A30680  31.479  23.933  13.857 -0.0864  0.1371  0.0231
 1279BOLB   C1B30681  30.965  25.646  13.657 -0.0325  0.0341  0.0552
 1279BOLB   C2B30682  30.793  25.842  13.257 -0.1486  0.1782 -0.3236
 1279BOLB   C3B30683  30.773  25.765  12.787 -0.2176  0.1310 -0.0461
 1279BOLB   C4B30684  30.884  25.342  12.611 -0.3254  0.1769 -0.2238
 1279BOLB   NC230685  33.320  22.638  13.422 -0.0040  0.2229 -0.1701
 1279BOLB   PO230686  33.156  22.886  13.159  0.1893  0.0041  0.2748
 1279BOLB   GL330687  33.026  23.168  13.504  0.1812 -0.1973 -0.0682
 1279BOLB   GL430688  32.802  23.429  13.372 -0.4477  0.2739 -0.1301
 1279BOLB   C1C30689  32.642  23.156  13.766 -0.0523 -0.0070  0.0420
 1279BOLB   C2C30690  32.236  23.346  13.601  0.0055  0.0798 -0.1256
 1279BOLB   C3C30691  31.727  23.489  13.604  0.2599 -0.0586 -0.1697
 1279BOLB   C4C30692  31.408  23.735  13.463  0.1534 -0.1543  0.2080
 1279BOLB   C1D30693  32.669  23.634  13.626 -0.2393 -0.0679  0.0771
 1279BOLB   C2D30694  32.667  23.976  13.888  0.0226  0.0347 -0.2395
 1279BOLB   C3D30695  32.333  24.172  14.088 -0.3855 -0.3343  0.1058
 1279BOLB   C4D30696  31.898  24.246  14.018 -0.1971  0.1479 -0.2162
 1280BOLB   NC130697  33.749  34.621  18.882 -0.0165  0.0966  0.2723
 1280BOLB   PO130698  34.169  34.773  19.082  0.0406  0.1099 -0.1251
 1280BOLB   GL130699  34.472  35.056  19.050 -0.0284  0.0716  0.4269
 1280BOLB   GL230700  34.622  35.094  19.325  0.2114 -0.1807  0.0833
 1280BOLB   C1A30701  34.706  35.514  18.889  0.3909 -0.1863 -0.0684
 1280BOLB   C2A30702  34.929  35.922  18.736 -0.2193  0.1477 -0.0678
 1280BOLB   C3A30703  35.034  36.305  18.645  0.3660 -0.0678 -0.0164
 1280BOLB   C4A30704  35.340  36.512  18.443  0.0565 -0.1311 -0.2831
 1280BOLB   C1B30705  35.078  35.305  19.337 -0.0053  0.1467 -0.3460
 1280BOLB   C2B30706  35.572  35.451  19.213 -0.0901  0.2636  0.0047
 1280BOLB   C3B30707  35.707  35.830  18.936  0.0055 -0.1751 -0.2038
 1280BOLB   C4B30708  35.440  36.029  18.740 -0.0810  0.0602  0.2902
 1280BOLB   NC230709  36.490  38.237  19.592 -0.1185 -0.0858  0.3323
 1280BOLB   PO230710  36.397  38.287  19.154 -0.2417  0.0395  0.2105
 1280BOLB   GL330711  36.009  38.103  19.053 -0.3232  0.0827  0.2441
 1280BOLB   GL430712  35.686  38.276  19.225  0.2209  0.1677 -0.2968
 1280BOLB   C1C30713  35.677  37.958  18.803 -0.1838 -0.1801  0.2437
 1280BOLB   C2C30714  35.617  37.807  18.423 -0.3211 -0.1345  0.0068
 1280BOLB   C3C30715  35.689  37.404  18.291 -0.2368 -0.1122 -0.0236
 1280BOLB   C4C30716  35.505  36.889  18.227  0.0238 -0.0175  0.1845
 1280BOLB   C1D30717  35.654  37.877  19.322  0.2050 -0.0700  0.1901
 1280BOLB   C2D30718  35.598  37.468  19.477  0.0727 -0.1570  0.3115
 1280BOLB   C3D30719  35.598  37.074  19.667  0.2100  0.1075  0.0312
 1280BOLB   C4D30720  35.367  36.739  19.688  0.2908 -0.0937  0.2909
 1281BOLB   NC130721  33.319  24.025  19.591  0.0326  0.0749 -0.2083
 1281BOLB   PO130722  33.734  24.197  19.595  0.0011  0.1408  0.0963
 1281BOLB   GL130723  33.949  23.751  19.681  0.0588  0.5424  0.0585
 1281BOLB   GL230724  34.042  23.741  19.991 -0.1020  0.0602  0.1209
 1281BOLB   C1A30725  34.302  23.423  19.674 -0.0645 -0.0010 -0.2866
 1281BOLB   C2A30726  34.591  23.120  19.693 -0.1310 -0.0929 -0.0006
 1281BOLB   C3A30727  34.721  22.715  19.507 -0.1225  0.0267  0.3196
 1281BOLB   C4A30728  34.729  22.650  19.119 -0.4183 -0.0324  0.0952
 1281BOLB   C1B30729  34.422  23.891  20.148 -0.0428 -0.0737  0.2105
 1281BOLB   C2B30730  34.874  23.779  20.189  0.0096  0.1059  0.2568
 1281BOLB   C3B30731  35.272  23.760  19.992  0.1370 -0.4206  0.1770
 1281BOLB   C4B30732  35.652  23.787  19.697  0.1162 -0.1777  0.1618
 1281BOLB   NC230733  35.857  21.819  17.279  0.0259  0.2300  0.1780
 1281BOLB   PO230734  35.973  21.942  17.686  0.0081 -0.0849  0.0118
 1281BOLB   GL330735  35.892  22.232  17.874  0.2148 -0.1243 -0.2216
 1281BOLB   GL430736  36.087  22.530  17.759  0.3693  0.0020  0.2275
 1281BOLB   C1C30737  35.797  22.508  18.190 -0.2377 -0.2598 -0.0866
 1281BOLB   C2C30738  35.860  22.771  18.440  0.1155  0.2537  0.0401
 1281BOLB   C3C30739  35.565  22.749  18.672  0.1381 -0.2005  0.0841
 1281BOLB   C4C30740  35.169  22.756  18.836 -0.0385 -0.0814  0.1273
 1281BOLB   C1D30741  36.043  22.917  18.033 -0.1831  0.1633  0.1087
 1281BOLB   C2D30742  36.192  23.145  18.390 -0.2411  0.1149 -0.2520
 1281BOLB   C3D30743  36.030  23.385  18.740 -0.0888 -0.2956 -0.0528
 1281BOLB   C4D30744  36.014  23.557  19.177 -0.3110 -0.1435  0.3495
 1282BOLB   NC130745  20.184  34.015  22.934 -0.2907 -0.4983 -0.2393
 1282BOLB   PO130746  20.490  34.173  23.150  0.1103 -0.2538  0.3972
 1282BOLB   GL130747  20.070  34.348  23.297 -0.1577  0.0911 -0.0020
 1282BOLB   GL230748  20.125  34.099  23.599  0.0125  0.1179 -0.1845
 1282BOLB   C1A30749  19.844  34.533  23.504 -0.0564 -0.1597 -0.1401
 1282BOLB   C2A30750  19.653  34.903  23.642  0.1256 -0.1525 -0.1628
 1282BOLB   C3A30751  19.310  35.180  23.569  0.2313  0.1180 -0.1130
 1282BOLB   C4A30752  18.987  35.327  23.346 -0.1437 -0.1598  0.0566
 1282BOLB   C1B30753  19.718  34.091  23.584 -0.2474 -0.1384  0.1519
 1282BOLB   C2B30754  19.292  34.291  23.773  0.0387  0.2032  0.1244
 1282BOLB   C3B30755  18.924  34.361  24.005 -0.1902  0.1847  0.2193
 1282BOLB   C4B30756  18.569  34.705  23.918 -0.1916  0.1198 -0.1382
 1282BOLB   NC230757  17.525  37.750  23.050 -0.3382 -0.1342  0.0534
 1282BOLB   PO230758  17.835  37.443  23.115 -0.1804  0.4564 -0.1044
 1282BOLB   GL330759  18.143  37.133  23.196 -0.0105  0.2847  0.2425
 1282BOLB   GL430760  18.430  37.054  23.101  0.0241  0.2266 -0.0276
 1282BOLB   C1C30761  18.073  36.711  23.300  0.3467  0.0630  0.2675
 1282BOLB   C2C30762  18.206  36.398  23.085  0.0028  0.0918  0.0597
 1282BOLB   C3C30763  18.152  35.925  23.165  0.1976  0.2840 -0.2208
 1282BOLB   C4C30764  18.486  35.412  23.171  0.1461 -0.1553 -0.1672
 1282BOLB   C1D30765  18.574  36.724  22.903  0.0807 -0.2253  0.1732
 1282BOLB   C2D30766  18.916  36.499  22.731 -0.2690  0.2719  0.0470
 1282BOLB   C3D30767  19.420  36.492  22.557  0.1045 -0.0097 -0.1985
 1282BOLB   C4D30768  19.796  36.520  22.506  0.0313 -0.0180 -0.0735
 1283BOLB   NC130769  20.693  33.562  19.965 -0.0637  0.4624 -0.1084
 1283BOLB   PO130770  20.620  33.301  20.356 -0.0626  0.1091 -0.0918
 1283BOLB   GL130771  20.191  33.131  20.477 -0.2675 -0.2073  0.1244
 1283BOLB   GL230772  20.031  33.105  20.794 -0.2444  0.0426  0.1131
 1283BOLB   C1A30773  19.707  33.162  20.388 -0.0973  0.3851 -0.2570
 1283BOLB   C2A30774  19.355  32.930  20.284  0.2771  0.0786  0.0347
 1283BOLB   C3A30775  19.043  32.949  19.999  0.1821 -0.3195 -0.3472
 1283BOLB   C4A30776  18.743  33.147  19.745 -0.0673  0.0715  0.1894
 1283BOLB   C1B30777  19.762  33.475  20.826  0.2121  0.5009  0.0798
 1283BOLB   C2B30778  19.494  33.660  20.534  0.3042  0.4694  0.1822
 1283BOLB   C3B30779  19.387  33.460  20.217 -0.2502  0.1480  0.3350
 1283BOLB   C4B30780  18.958  33.439  20.134  0.0630 -0.2433  0.5027
 1283BOLB   NC230781  16.366  34.705  19.092  0.2061  0.2446 -0.0305
 1283BOLB   PO230782  16.645  34.371  19.349 -0.0384 -0.0558 -0.2052
 1283BOLB   GL330783  17.082  34.188  19.328  0.2499  0.1318  0.1556
 1283BOLB   GL430784  17.063  33.912  18.950  0.1553 -0.3088 -0.0794
 1283BOLB   C1C30785  17.527  34.110  19.403  0.0033 -0.2496 -0.1217
 1283BOLB   C2C30786  17.951  34.081  19.632  0.1346 -0.2771 -0.0416
 1283BOLB   C3C30787  18.188  33.771  19.651 -0.0056 -0.0838  0.0805
 1283BOLB   C4C30788  18.500  33.614  19.961  0.0020  0.0384 -0.2545
 1283BOLB   C1D30789  17.183  33.668  19.233 -0.1754  0.0353  0.1250
 1283BOLB   C2D30790  17.584  33.560  19.461  0.0212  0.1752  0.3630
 1283BOLB   C3D30791  17.938  33.329  19.518  0.0164  0.0938 -0.1246
 1283BOLB   C4D30792  18.332  33.242  19.584 -0.0734 -0.0450 -0.0310
 1284BOLB   NC130793  34.352  32.262  26.121  0.2682 -0.1849  0.0201
 1284BOLB   PO130794  34.046  32.224  26.505 -0.2117  0.1201  0.0512
 1284BOLB   GL130795  34.484  32.498  26.689  0.5337  0.0014 -0.1296
 1284BOLB   GL230796  34.643  32.398   0.029  0.0862 -0.4089  0.2042
 1284BOLB   C1A30797  34.755  32.854  26.729 -0.5205  0.0156 -0.1017
 1284BOLB   C2A30798  35.219  32.888  26.544 -0.0855  0.0720 -0.0472
 1284BOLB   C3A30799  35.522  33.262  26.500 -0.0572  0.0230 -0.2423
 1284BOLB   C4A30800  35.834  33.277  26.309 -0.0539  0.2215 -0.2875
 1284BOLB   C1B30801  34.959  32.553   0.299  0.0495  0.0382 -0.1260
 1284BOLB   C2B30802  34.959  32.503   0.692 -0.0878 -0.0317  0.3164
 1284BOLB   C3B30803  34.952  32.632   1.111  0.1411  0.0261  0.3564
 1284BOLB   C4B30804  35.102  32.532   1.600  0.0697  0.2147 -0.1204
 1284BOLB   NC230805  37.886  34.744  26.559 -0.0116  0.3702  0.0368
 1284BOLB   PO230806  37.571  34.874  26.848 -0.2095  0.0374  0.0232
 1284BOLB   GL330807  37.404  34.611  26.576 -0.1273  0.0466  0.1520
 1284BOLB   GL430808  37.311  34.344  26.815  0.1849 -0.2842  0.1251
 1284BOLB   C1C30809  37.309  34.371  26.171 -0.0343 -0.1525  0.1409
 1284BOLB   C2C30810  36.930  34.134  25.986 -0.1726 -0.1021  0.1679
 1284BOLB   C3C30811  36.632  33.662  26.059 -0.0398 -0.2093  0.1718
 1284BOLB   C4C30812  36.298  33.387  26.256  0.0150  0.0570  0.0392
 1284BOLB   C1D30813  36.887  34.517  26.608 -0.0066 -0.0749 -0.0430
 1284BOLB   C2D30814  36.529  34.546  26.384 -0.1138 -0.0405 -0.0279
 1284BOLB   C3D30815  36.068  34.441  26.259 -0.1884 -0.0815  0.1047
 1284BOLB   C4D30816  35.897  34.492  25.866  0.0695  0.0982 -0.2396
 1285BOLB   NC130817  32.443  32.292  15.479 -0.2533  0.2651  0.0460
 1285BOLB   PO130818  32.453  32.699  15.747  0.0642 -0.0885  0.0914
 1285BOLB   GL130819  32.564  32.890  15.328 -0.2970  0.0170 -0.1481
 1285BOLB   GL230820  32.660  33.158  15.275  0.3001  0.0152 -0.0997
 1285BOLB   C1A30821  32.618  32.805  14.830  0.2893  0.1027 -0.2116
 1285BOLB   C2A30822  32.593  32.935  14.438  0.0345  0.0165 -0.2749
 1285BOLB   C3A30823  32.714  32.869  14.051  0.3504 -0.2320  0.0311
 1285BOLB   C4A30824  32.862  32.731  13.542  0.0676  0.0514 -0.0332
 1285BOLB   C1B30825  32.964  33.018  15.054  0.1305 -0.1490 -0.1065
 1285BOLB   C2B30826  33.139  33.195  14.746  0.0315 -0.3212  0.2852
 1285BOLB   C3B30827  33.103  33.304  14.342 -0.0850 -0.1824  0.1983
 1285BOLB   C4B30828  32.927  33.306  14.057  0.1616  0.1170  0.0850
 1285BOLB   NC230829  33.333  32.905  11.113 -0.1698 -0.0127 -0.0073
 1285BOLB   PO230830  33.735  33.076  11.267  0.4141  0.0730 -0.1657
 1285BOLB   GL330831  33.336  32.801  11.601 -0.1465 -0.1316 -0.0956
 1285BOLB   GL430832  33.305  32.500  11.477  0.1494  0.0464  0.0334
 1285BOLB   C1C30833  33.207  32.843  12.102  0.2669 -0.2411 -0.1667
 1285BOLB   C2C30834  33.051  32.951  12.462  0.0409 -0.0697  0.1552
 1285BOLB   C3C30835  33.003  33.022  12.777  0.0062 -0.1313  0.1655
 1285BOLB   C4C30836  32.885  32.942  13.175 -0.0336 -0.0803  0.0987
 1285BOLB   C1D30837  33.112  32.325  11.740  0.0881 -0.3681  0.3876
 1285BOLB   C2D30838  32.857  32.394  12.068  0.0986  0.2706  0.2271
 1285BOLB   C3D30839  32.690  32.188  12.388 -0.0051 -0.0286  0.0402
 1285BOLB   C4D30840  32.360  31.879  12.573 -0.0137  0.0076  0.2805
 1286BOLB   NC130841  26.977  22.751  16.749 -0.4267  0.0924 -0.0765
 1286BOLB   PO130842  27.341  22.698  16.925 -0.2341  0.3218  0.1544
 1286BOLB   GL130843  27.194  22.280  16.833  0.2862 -0.1132  0.1372
 1286BOLB   GL230844  27.284  22.423  16.453 -0.0877  0.2463  0.0119
 1286BOLB   C1A30845  26.978  21.865  16.732 -0.0187 -0.3257  0.0805
 1286BOLB   C2A30846  26.902  21.490  16.527 -0.3043 -0.1019 -0.1753
 1286BOLB   C3A30847  27.210  21.256  16.194 -0.1015  0.0166  0.4565
 1286BOLB   C4A30848  27.562  21.141  15.869 -0.2003  0.0323  0.0243
 1286BOLB   C1B30849  27.335  22.286  16.035  0.2120 -0.3747  0.3138
 1286BOLB   C2B30850  27.307  22.032  15.744 -0.0072 -0.0614  0.0569
 1286BOLB   C3B30851  27.391  21.730  15.413 -0.0709  0.1427  0.1192
 1286BOLB   C4B30852  27.454  21.708  14.961 -0.0923  0.0785  0.1268
 1286BOLB   NC230853  27.627  19.972  13.880 -0.1566  0.1080  0.0152
 1286BOLB   PO230854  27.690  20.332  13.722 -0.0533 -0.0803  0.1293
 1286BOLB   GL330855  27.823  20.631  13.886  0.3824 -0.1262  0.1435
 1286BOLB   GL430856  28.145  20.656  14.025 -0.0445 -0.2511  0.3039
 1286BOLB   C1C30857  27.673  20.852  14.296  0.0181  0.0341  0.2102
 1286BOLB   C2C30858  27.686  21.170  14.650  0.1972  0.1629 -0.3371
 1286BOLB   C3C30859  27.792  21.321  15.092 -0.3829 -0.1887  0.1729
 1286BOLB   C4C30860  27.743  21.414  15.543  0.0199 -0.0379  0.0685
 1286BOLB   C1D30861  28.153  20.698  14.489 -0.1684 -0.0685  0.0014
 1286BOLB   C2D30862  28.127  20.951  14.757 -0.0531  0.1495 -0.0314
 1286BOLB   C3D30863  28.312  21.378  14.829  0.1935 -0.1049  0.0822
 1286BOLB   C4D30864  28.348  21.715  14.682 -0.1163 -0.2272 -0.0672
 1287BOLB   NC130865  27.364  37.070  18.727 -0.0670  0.0613  0.1124
 1287BOLB   PO130866  27.048  37.477  18.653  0.4535 -0.0275  0.0011
 1287BOLB   GL130867  27.002  37.872  18.490 -0.4671  0.0075 -0.0202
 1287BOLB   GL230868  26.710  37.936  18.383  0.0557 -0.1428  0.4156
 1287BOLB   C1A30869  27.258  38.311  18.480  0.0561 -0.2929  0.3812
 1287BOLB   C2A30870  27.228  38.602  18.169 -0.0123  0.1155  0.4280
 1287BOLB   C3A30871  27.238  38.742  17.688 -0.1644  0.1837 -0.3205
 1287BOLB   C4A30872  27.287  38.666  17.246  0.0799  0.0865  0.3044
 1287BOLB   C1B30873  26.798  38.303  18.228 -0.1547 -0.1239 -0.1806
 1287BOLB   C2B30874  26.699  38.699  18.224 -0.2248  0.0181 -0.1153
 1287BOLB   C3B30875  26.581  39.062  18.248  0.0888  0.2752 -0.2016
 1287BOLB   C4B30876  26.170  39.262  18.269  0.0950  0.1809 -0.1457
 1287BOLB   NC230877  27.017  40.750  16.364 -0.1260  0.0431  0.2244
 1287BOLB   PO230878  27.365  40.821  16.509  0.2335  0.1432 -0.0374
 1287BOLB   GL330879  27.314  40.383  16.627  0.2041  0.0556  0.0479
 1287BOLB   GL430880  27.060  40.222  16.301  0.2818 -0.2240 -0.0362
 1287BOLB   C1C30881  27.341  39.973  16.659 -0.1169  0.0873 -0.0220
 1287BOLB   C2C30882  27.313  39.587  16.692 -0.0962 -0.0020 -0.1657
 1287BOLB   C3C30883  27.184  39.198  16.846 -0.2428 -0.0426 -0.6191
 1287BOLB   C4C30884  27.251  38.804  16.897 -0.2133  0.1025  0.2160
 1287BOLB   C1D30885  27.060  39.752  16.301  0.3188  0.1074  0.3537
 1287BOLB   C2D30886  27.104  39.271  16.319 -0.1367  0.1721  0.1208
 1287BOLB   C3D30887  26.779  38.916  16.345  0.4246  0.0513 -0.0610
 1287BOLB   C4D30888  26.585  38.584  16.207 -0.0905 -0.2040  0.0581
 1288BOLB   NC130889  35.138  32.715  18.477 -0.1087  0.0186 -0.0700
 1288BOLB   PO130890  35.248  33.065  18.805 -0.1455 -0.3363 -0.0447
 1288BOLB   GL130891  35.592  33.097  18.906 -0.4094  0.0845 -0.0685
 1288BOLB   GL230892  35.787  32.993  19.095  0.0829 -0.0644  0.0653
 1288BOLB   C1A30893  35.934  33.291  18.706  0.2125  0.1139  0.2240
 1288BOLB   C2A30894  36.039  33.471  18.265 -0.2777 -0.0678 -0.3023
 1288BOLB   C3A30895  36.147  33.765  17.940  0.0718 -0.0298 -0.0415
 1288BOLB   C4A30896  36.032  33.975  17.621  0.1256 -0.2308 -0.2065
 1288BOLB   C1B30897  36.078  32.826  18.864  0.0002  0.2221 -0.2547
 1288BOLB   C2B30898  36.449  32.766  18.627 -0.1178  0.0235  0.0060
 1288BOLB   C3B30899  36.916  32.488  18.576  0.2320 -0.4830 -0.0866
 1288BOLB   C4B30900  37.278  32.492  18.289  0.4415  0.0084  0.2180
 1288BOLB   NC230901  38.273  34.887  16.972  0.2533  0.1231 -0.0165
 1288BOLB   PO230902  37.841  35.178  16.889 -0.0541  0.3456  0.0742
 1288BOLB   GL330903  37.358  35.000  16.959 -0.0359  0.0267 -0.3075
 1288BOLB   GL430904  37.133  35.223  17.158 -0.0266  0.1420  0.3175
 1288BOLB   C1C30905  37.050  34.741  16.869 -0.2513  0.0395  0.0163
 1288BOLB   C2C30906  36.648  34.600  16.914  0.2396 -0.0522  0.0811
 1288BOLB   C3C30907  36.263  34.537  17.124  0.1949 -0.2468  0.1088
 1288BOLB   C4C30908  36.223  34.254  17.396 -0.0582 -0.3090  0.1834
 1288BOLB   C1D30909  37.012  35.183  17.592 -0.3768  0.3403 -0.0312
 1288BOLB   C2D30910  36.905  34.888  17.849  0.2528 -0.0303  0.1027
 1288BOLB   C3D30911  37.059  34.507  17.917  0.1373  0.4265 -0.0531
 1288BOLB   C4D30912  37.266  34.290  18.166  0.0814 -0.1098  0.2962
 1289BOLB   NC130913  35.122  28.050  24.727  0.2346  0.1146 -0.0620
 1289BOLB   PO130914  34.921  28.197  25.148 -0.1292 -0.2041  0.3875
 1289BOLB   GL130915  35.357  28.038  25.199  0.3113  0.4402  0.2581
 1289BOLB   GL230916  35.473  27.796  25.383  0.1053 -0.1470 -0.1395
 1289BOLB   C1A30917  35.847  28.059  25.185 -0.1589  0.1307 -0.1071
 1289BOLB   C2A30918  36.195  28.027  25.371  0.2605  0.2994 -0.1039
 1289BOLB   C3A30919  36.555  27.915  25.560  0.0277 -0.1575  0.0368
 1289BOLB   C4A30920  36.988  27.999  25.506  0.0811  0.0059  0.6720
 1289BOLB   C1B30921  35.861  27.733  25.551  0.0323 -0.2296  0.0247
 1289BOLB   C2B30922  36.186  27.893  25.843 -0.0236 -0.1152  0.0261
 1289BOLB   C3B30923  36.296  27.894  26.382  0.0647  0.1773  0.2433
 1289BOLB   C4B30924  36.505  28.150  26.588 -0.0882 -0.0049  0.1342
 1289BOLB   NC230925  39.415  27.874  26.434  0.1122  0.0712 -0.2212
 1289BOLB   PO230926  39.127  28.281  26.463 -0.0594 -0.2409 -0.2987
 1289BOLB   GL330927  38.713  28.484  26.542  0.5862  0.0728 -0.1913
 1289BOLB   GL430928  38.763  28.829  26.707  0.2490 -0.0720  0.1292
 1289BOLB   C1C30929  38.309  28.431  26.287 -0.1490 -0.4017 -0.0997
 1289BOLB   C2C30930  37.970  28.460  25.952  0.2790  0.1712  0.2327
 1289BOLB   C3C30931  37.600  28.306  25.957  0.1133 -0.1001  0.0265
 1289BOLB   C4C30932  37.236  28.190  25.783  0.0632 -0.2636 -0.1020
 1289BOLB   C1D30933  38.290  28.711  26.664 -0.1053 -0.2709 -0.2473
 1289BOLB   C2D30934  38.085  28.828  26.283 -0.1143 -0.0953 -0.0141
 1289BOLB   C3D30935  37.732  28.900  25.974 -0.2519 -0.1688  0.1666
 1289BOLB   C4D30936  37.353  28.733  25.952  0.1147 -0.1152 -0.0345
 1290BOLB   NC130937  29.312  30.540   2.756 -0.2965  0.0765  0.0646
 1290BOLB   PO130938  29.654  30.317   3.049 -0.0135  0.2017 -0.1415
 1290BOLB   GL130939  29.698  30.154   3.457  0.1822  0.1424  0.3434
 1290BOLB   GL230940  29.923  29.942   3.457 -0.0082  0.2476 -0.1062
 1290BOLB   C1A30941  29.780  30.076   3.920  0.1764  0.0534  0.0295
 1290BOLB   C2A30942  29.810  29.673   4.159  0.1507  0.2319 -0.1397
 1290BOLB   C3A30943  29.591  29.267   4.492 -0.0686  0.0960  0.1873
 1290BOLB   C4A30944  29.668  29.227   4.906  0.0041 -0.1374 -0.0949
 1290BOLB   C1B30945  30.224  30.147   3.678 -0.0863 -0.1497 -0.0459
 1290BOLB   C2B30946  30.453  30.240   4.142  0.0508 -0.0394  0.0465
 1290BOLB   C3B30947  30.666  30.257   4.476 -0.1253  0.0781 -0.1000
 1290BOLB   C4B30948  30.550  29.901   4.780 -0.0909 -0.1343 -0.1653
 1290BOLB   NC230949  28.719  28.392   7.124  0.0901 -0.0520  0.1733
 1290BOLB   PO230950  29.112  28.524   6.885  0.3387  0.0565 -0.0191
 1290BOLB   GL330951  29.206  28.676   6.436 -0.0181  0.1220  0.0624
 1290BOLB   GL430952  29.241  28.447   6.224  0.1164  0.0691  0.0216
 1290BOLB   C1C30953  29.491  28.903   6.345  0.0619 -0.3657 -0.1851
 1290BOLB   C2C30954  29.884  29.016   6.052 -0.3932  0.1755  0.1258
 1290BOLB   C3C30955  29.759  29.149   5.642  0.5159 -0.1877 -0.1432
 1290BOLB   C4C30956  29.654  29.109   5.264 -0.0137  0.0818 -0.3081
 1290BOLB   C1D30957  29.079  28.547   5.840 -0.2680 -0.2716  0.1922
 1290BOLB   C2D30958  29.132  28.353   5.350  0.0563 -0.1135 -0.0840
 1290BOLB   C3D30959  29.144  28.206   4.845  0.3892 -0.2089  0.1291
 1290BOLB   C4D30960  29.075  28.295   4.400  0.1062  0.1490  0.3226
 1291BOLB   NC130961  24.217  36.829  22.837  0.0758 -0.0832 -0.2553
 1291BOLB   PO130962  24.570  37.011  23.013 -0.1997 -0.1992 -0.0369
 1291BOLB   GL130963  24.351  37.335  23.093 -0.0552 -0.1522  0.1947
 1291BOLB   GL230964  24.311  37.385  22.728 -0.2560  0.3652 -0.1369
 1291BOLB   C1A30965  24.259  37.764  23.196 -0.1962  0.2462 -0.0558
 1291BOLB   C2A30966  24.254  38.187  23.297 -0.1088  0.1234 -0.1166
 1291BOLB   C3A30967  23.959  38.579  23.386 -0.0210 -0.2430 -0.0727
 1291BOLB   C4A30968  23.601  38.816  23.529 -0.1104 -0.0383 -0.2533
 1291BOLB   C1B30969  24.059  37.733  22.763  0.0972  0.2210 -0.0784
 1291BOLB   C2B30970  23.825  37.982  23.002 -0.3185  0.0783  0.1145
 1291BOLB   C3B30971  23.615  38.442  23.014 -0.0615  0.0210  0.0792
 1291BOLB   C4B30972  23.651  38.771  22.711 -0.2428 -0.0501  0.3232
 1291BOLB   NC230973  22.330  40.899  22.999  0.0888  0.1240 -0.3714
 1291BOLB   PO230974  22.429  40.664  23.366 -0.1642 -0.1643  0.2784
 1291BOLB   GL330975  22.639  40.362  23.593 -0.3992  0.1545  0.0796
 1291BOLB   GL430976  22.698  40.176  23.275  0.1948  0.1000 -0.1354
 1291BOLB   C1C30977  22.691  39.949  23.748  0.1097 -0.0307 -0.0850
 1291BOLB   C2C30978  22.742  39.553  23.789 -0.2237 -0.4696 -0.1175
 1291BOLB   C3C30979  23.031  39.238  23.765  0.0228 -0.1397  0.0429
 1291BOLB   C4C30980  23.293  39.180  23.651  0.1476 -0.1188  0.0257
 1291BOLB   C1D30981  22.729  39.732  23.231  0.1686 -0.1460  0.2255
 1291BOLB   C2D30982  22.793  39.412  23.228 -0.1560 -0.2805 -0.0010
 1291BOLB   C3D30983  23.069  39.228  22.919 -0.1968 -0.1049 -0.3493
 1291BOLB   C4D30984  23.289  39.131  22.559  0.0150  0.0792 -0.6391
 1292BOLB   NC130985  35.391  26.760  23.162 -0.3140 -0.2833 -0.1210
 1292BOLB   PO130986  35.342  26.785  23.544 -0.0927 -0.1721 -0.0561
 1292BOLB   GL130987  35.577  26.482  23.546 -0.2475 -0.0564 -0.0372
 1292BOLB   GL230988  35.685  26.561  23.919 -0.2792  0.3463  0.1427
 1292BOLB   C1A30989  35.830  26.180  23.438 -0.3077 -0.0387  0.0282
 1292BOLB   C2A30990  36.267  26.095  23.403 -0.1201 -0.0100 -0.3888
 1292BOLB   C3A30991  36.586  26.143  22.999  0.0920  0.1646 -0.0327
 1292BOLB   C4A30992  37.036  26.016  22.933  0.0963  0.0157  0.1010
 1292BOLB   C1B30993  36.108  26.359  23.833  0.0313 -0.1746  0.0219
 1292BOLB   C2B30994  36.565  26.208  23.840 -0.0739  0.1476  0.1686
 1292BOLB   C3B30995  36.667  25.956  24.127 -0.0184  0.1340  0.3208
 1292BOLB   C4B30996  36.695  25.841  24.555 -0.4846 -0.1248  0.1950
 1292BOLB   NC230997  39.565  26.118  23.410 -0.1154  0.2943  0.1992
 1292BOLB   PO230998  39.265  25.841  23.075  0.2795 -0.2177 -0.3488
 1292BOLB   GL330999  39.054  26.141  23.325 -0.0597 -0.0753 -0.0993
 1292BOLB   GL431000  39.163  26.435  23.377  0.2137 -0.0854 -0.0293
 1292BOLB   C1C31001  38.618  26.358  23.250  0.2843  0.1571 -0.1255
 1292BOLB   C2C31002  38.148  26.426  23.217  0.1954  0.1349 -0.2016
 1292BOLB   C3C31003  37.778  26.089  23.153 -0.0560  0.1061 -0.0046
 1292BOLB   C4C31004  37.503  26.032  23.005  0.2107  0.2530 -0.3483
 1292BOLB   C1D31005  38.959  26.736  23.474  0.1275  0.3595  0.0338
 1292BOLB   C2D31006  38.695  27.170  23.370 -0.1833  0.1606  0.0101
 1292BOLB   C3D31007  38.371  27.352  23.405  0.1119 -0.0634  0.0207
 1292BOLB   C4D31008  37.871  27.454  23.361 -0.0998  0.0794 -0.0523
 1293BOLB   NC131009  34.793  29.503  17.125 -0.0365 -0.0236  0.1553
 1293BOLB   PO131010  35.023  29.685  16.772 -0.0719 -0.0724  0.0470
 1293BOLB   GL131011  35.168  29.983  16.612 -0.0031  0.0430 -0.0954
 1293BOLB   GL231012  35.322  29.844  16.391 -0.0221 -0.2217 -0.4133
 1293BOLB   C1A31013  35.463  30.348  16.608 -0.0247 -0.0658 -0.0128
 1293BOLB   C2A31014  35.827  30.568  16.525  0.0778 -0.0664 -0.0987
 1293BOLB   C3A31015  36.122  30.553  16.152  0.0343  0.0289  0.1732
 1293BOLB   C4A31016  36.072  30.693  15.716 -0.0479  0.0782  0.1170
 1293BOLB   C1B31017  35.628  29.789  16.034 -0.0574  0.1547  0.3578
 1293BOLB   C2B31018  35.955  29.698  15.713 -0.2732 -0.0041  0.0987
 1293BOLB   C3B31019  36.244  29.369  15.633 -0.0086  0.0132  0.2981
 1293BOLB   C4B31020  36.269  28.979  15.400 -0.0924 -0.4436 -0.1299
 1293BOLB   NC231021  37.468  30.278  13.999  0.2264  0.1773  0.1143
 1293BOLB   PO231022  37.634  29.958  14.259  0.5524  0.3162  0.1671
 1293BOLB   GL331023  37.272  29.982  14.402  0.0475 -0.0142  0.2574
 1293BOLB   GL431024  37.056  29.653  14.352 -0.2263 -0.0807  0.0077
 1293BOLB   C1C31025  36.860  30.096  14.634 -0.0042 -0.1515 -0.3337
 1293BOLB   C2C31026  36.627  30.113  14.982  0.0307  0.0872 -0.1251
 1293BOLB   C3C31027  36.647  30.401  15.181 -0.0842  0.0897  0.0693
 1293BOLB   C4C31028  36.330  30.659  15.389  0.0677 -0.1476  0.0717
 1293BOLB   C1D31029  36.712  29.525  14.462  0.3878 -0.0506  0.0044
 1293BOLB   C2D31030  36.382  29.570  14.595 -0.0134  0.2725  0.0810
 1293BOLB   C3D31031  36.235  29.742  14.817 -0.0247  0.3670  0.2012
 1293BOLB   C4D31032  36.084  29.563  15.146 -0.1489  0.0373  0.0950
 1294BOLB   NC131033  35.149  33.012  21.138 -0.1716 -0.0828  0.0355
 1294BOLB   PO131034  35.243  33.271  20.734  0.0417  0.2690  0.1257
 1294BOLB   GL131035  35.680  33.397  20.703  0.4668 -0.1906 -0.1358
 1294BOLB   GL231036  35.765  33.289  20.921 -0.1816 -0.3174  0.1382
 1294BOLB   C1A31037  36.063  33.540  20.600  0.1134 -0.0574  0.1487
 1294BOLB   C2A31038  36.434  33.656  20.669  0.2410 -0.2868 -0.0013
 1294BOLB   C3A31039  36.885  33.537  20.740  0.4303 -0.2002  0.3408
 1294BOLB   C4A31040  37.163  33.254  20.814  0.0593  0.4079  0.1915
 1294BOLB   C1B31041  36.129  33.252  21.077  0.0608 -0.3909  0.0772
 1294BOLB   C2B31042  36.455  33.167  20.752 -0.0223  0.1363 -0.0063
 1294BOLB   C3B31043  36.788  32.927  20.659 -0.0641 -0.3152  0.2209
 1294BOLB   C4B31044  37.154  32.905  20.440  0.0560 -0.1201  0.1517
 1294BOLB   NC231045  39.185  33.803  20.787 -0.3036 -0.0628 -0.0093
 1294BOLB   PO231046  39.392  33.467  20.934 -0.2009 -0.2519 -0.1199
 1294BOLB   GL331047  39.046  33.343  21.072  0.1145  0.0571  0.1667
 1294BOLB   GL431048  38.847  33.425  20.861  0.2053 -0.2557  0.1441
 1294BOLB   C1C31049  38.688  33.236  21.314  0.1563 -0.3966 -0.1063
 1294BOLB   C2C31050  38.242  33.153  21.170 -0.3354  0.2437  0.0381
 1294BOLB   C3C31051  37.999  33.116  20.875  0.1670 -0.2169  0.0700
 1294BOLB   C4C31052  37.532  33.068  20.764  0.0168 -0.3017 -0.0584
 1294BOLB   C1D31053  38.604  33.071  20.814 -0.1628  0.0523 -0.2171
 1294BOLB   C2D31054  38.269  32.783  20.669  0.1460  0.1584 -0.1862
 1294BOLB   C3D31055  37.895  32.612  20.803  0.0648  0.1369  0.1547
 1294BOLB   C4D31056  37.864  32.178  21.015  0.0045  0.1062  0.2236
 1295BOLB   NC131057  25.543  29.401   2.495 -0.1164 -0.0754  0.0402
 1295BOLB   PO131058  25.726  29.468   2.870  0.3446  0.2088  0.0912
 1295BOLB   GL131059  25.707  29.161   3.162 -0.2078 -0.2317 -0.3322
 1295BOLB   GL231060  25.934  28.913   3.076  0.0154 -0.2252  0.3310
 1295BOLB   C1A31061  25.618  29.003   3.515  0.2216 -0.0426 -0.1833
 1295BOLB   C2A31062  25.545  28.957   4.000 -0.0178 -0.1016  0.3758
 1295BOLB   C3A31063  25.869  29.119   4.350  0.0176 -0.0942 -0.1862
 1295BOLB   C4A31064  26.029  29.239   4.758 -0.1917  0.0182  0.0719
 1295BOLB   C1B31065  26.064  28.611   3.255  0.0628  0.2036  0.3891
 1295BOLB   C2B31066  26.102  28.316   3.606 -0.0809 -0.0373 -0.3049
 1295BOLB   C3B31067  26.238  28.316   4.036 -0.2031  0.0875  0.2493
 1295BOLB   C4B31068  26.729  28.059   4.052 -0.0328  0.0332 -0.2894
 1295BOLB   NC231069  26.267  28.883   7.629  0.1812  0.2492  0.2056
 1295BOLB   PO231070  26.595  29.146   7.390 -0.0683  0.0899  0.0684
 1295BOLB   GL331071  26.594  29.306   6.876 -0.1452  0.2153 -0.0759
 1295BOLB   GL431072  26.773  29.037   6.778 -0.1159  0.0750  0.1588
 1295BOLB   C1C31073  26.377  29.335   6.480  0.0716 -0.1322  0.0278
 1295BOLB   C2C31074  26.426  29.194   5.921 -0.1884 -0.1623  0.1341
 1295BOLB   C3C31075  26.241  29.076   5.577 -0.1674  0.1990 -0.0809
 1295BOLB   C4C31076  26.044  29.168   5.224 -0.0751  0.0798  0.0153
 1295BOLB   C1D31077  26.996  28.997   6.338 -0.2303 -0.1118 -0.0550
 1295BOLB   C2D31078  26.886  28.916   5.970 -0.1644 -0.2333 -0.3192
 1295BOLB   C3D31079  26.710  28.886   5.591 -0.1382 -0.1867 -0.0557
 1295BOLB   C4D31080  26.686  29.170   5.269  0.1435  0.2818 -0.1898
 1296BOLB   NC131081  26.964  34.317  15.145  0.0434  0.4503 -0.1400
 1296BOLB   PO131082  26.953  34.436  14.716 -0.1394 -0.0723 -0.0396
 1296BOLB   GL131083  26.996  34.393  14.204  0.0334 -0.1572  0.3328
 1296BOLB   GL231084  27.125  34.113  14.006 -0.0030 -0.0758  0.1668
 1296BOLB   C1A31085  26.920  34.598  13.876  0.3771 -0.1982  0.1542
 1296BOLB   C2A31086  27.036  34.882  13.642  0.2175  0.0531 -0.1051
 1296BOLB   C3A31087  26.952  35.308  13.499 -0.0377 -0.4921  0.1368
 1296BOLB   C4A31088  26.769  35.576  13.501 -0.1319  0.0586  0.3703
 1296BOLB   C1B31089  27.083  34.223  13.601  0.2633  0.0559 -0.1704
 1296BOLB   C2B31090  27.028  34.535  13.313 -0.1162 -0.0999 -0.3191
 1296BOLB   C3B31091  27.026  34.969  13.111  0.4151 -0.3142 -0.0187
 1296BOLB   C4B31092  27.212  35.034  12.717  0.3220  0.0428 -0.0380
 1296BOLB   NC231093  25.807  37.301  12.168  0.0138 -0.1568 -0.0000
 1296BOLB   PO231094  25.485  37.190  12.329  0.2034  0.2682  0.0099
 1296BOLB   GL331095  25.701  36.931  12.654 -0.1215 -0.4751 -0.0845
 1296BOLB   GL431096  25.460  36.769  12.666  0.1065  0.0293  0.1822
 1296BOLB   C1C31097  25.985  36.949  12.960  0.1321 -0.0892  0.2199
 1296BOLB   C2C31098  26.364  36.683  13.099 -0.1286 -0.0027  0.1580
 1296BOLB   C3C31099  26.511  36.334  13.451  0.1547  0.6255 -0.0312
 1296BOLB   C4C31100  26.739  35.995  13.561  0.3333  0.1883  0.0688
 1296BOLB   C1D31101  25.169  36.588  12.864 -0.0272 -0.2291 -0.2673
 1296BOLB   C2D31102  25.030  36.307  13.129  0.0963  0.1948 -0.0500
 1296BOLB   C3D31103  25.211  35.934  13.219  0.4126  0.2122  0.2205
 1296BOLB   C4D31104  25.294  35.653  13.586 -0.2802  0.0431  0.1899
 1297BOLB   NC131105  33.200  31.185  16.003  0.1114  0.2062 -0.0801
 1297BOLB   PO131106  32.965  31.198  15.626 -0.0284 -0.2286 -0.0459
 1297BOLB   GL131107  33.075  31.396  15.215 -0.1709  0.0667 -0.1591
 1297BOLB   GL231108  33.372  31.246  15.092 -0.0653 -0.0810  0.1671
 1297BOLB   C1A31109  33.202  31.669  14.897  0.2353  0.0366 -0.2354
 1297BOLB   C2A31110  33.284  31.992  14.483  0.2967  0.0184  0.1044
 1297BOLB   C3A31111  33.240  32.380  14.356 -0.0174 -0.0368 -0.1180
 1297BOLB   C4A31112  33.200  32.794  14.062 -0.0148  0.0694  0.1116
 1297BOLB   C1B31113  33.652  31.350  14.805  0.1087  0.0190  0.0793
 1297BOLB   C2B31114  33.629  31.542  14.434 -0.1014  0.2313  0.1088
 1297BOLB   C3B31115  33.668  31.838  14.088  0.1111 -0.1245 -0.2184
 1297BOLB   C4B31116  33.548  32.179  13.943  0.1685 -0.0494 -0.1597
 1297BOLB   NC231117  34.459  34.260  11.633  0.1521 -0.2005 -0.1360
 1297BOLB   PO231118  34.277  33.987  11.977 -0.1713  0.0443  0.2056
 1297BOLB   GL331119  34.016  33.637  12.250 -0.1033  0.0691 -0.3028
 1297BOLB   GL431120  34.191  33.254  12.189 -0.1574 -0.0119  0.0960
 1297BOLB   C1C31121  33.822  33.624  12.733  0.1431  0.0197  0.1939
 1297BOLB   C2C31122  33.680  33.500  13.131  0.0021  0.1136  0.1100
 1297BOLB   C3C31123  33.704  33.415  13.630  0.1062 -0.0498 -0.0678
 1297BOLB   C4C31124  33.461  33.183  13.961 -0.0098  0.2669 -0.2711
 1297BOLB   C1D31125  33.787  33.158  12.354  0.1796 -0.1049  0.1028
 1297BOLB   C2D31126  33.583  32.803  12.577 -0.0974  0.0701 -0.1656
 1297BOLB   C3D31127  33.364  32.593  12.870 -0.4547 -0.3481  0.0522
 1297BOLB   C4D31128  33.330  32.610  13.288  0.1355 -0.2850  0.0341
 1298BOLB   NC131129  26.261  35.853  25.732 -0.1512  0.0349  0.1743
 1298BOLB   PO131130  26.156  36.276  25.930 -0.1238 -0.3265 -0.2061
 1298BOLB   GL131131  26.180  36.716  26.004  0.0273  0.0944  0.1656
 1298BOLB   GL231132  25.940  36.735  26.248  0.2303 -0.0657 -0.1565
 1298BOLB   C1A31133  26.398  37.081  26.175 -0.5685 -0.1822  0.1128
 1298BOLB   C2A31134  26.306  37.424  26.370 -0.2928 -0.0781 -0.1803
 1298BOLB   C3A31135  26.174  37.908  26.406  0.0975 -0.3844  0.1689
 1298BOLB   C4A31136  26.162  38.287  26.766  0.2487 -0.1376 -0.1530
 1298BOLB   C1B31137  25.840  37.150  26.455 -0.2173 -0.0618 -0.1722
 1298BOLB   C2B31138  25.737  37.600  26.606 -0.1960 -0.1731 -0.0871
 1298BOLB   C3B31139  25.753  38.013  26.649  0.2088 -0.1938  0.1564
 1298BOLB   C4B31140  25.460  38.272  26.597 -0.1778 -0.2021 -0.1837
 1298BOLB   NC231141  26.377  41.011   0.957  0.0588 -0.1535 -0.2498
 1298BOLB   PO231142  26.251  40.504   0.941 -0.1419 -0.1432  0.2101
 1298BOLB   GL331143  26.199  39.998   0.933 -0.1151  0.2615  0.0580
 1298BOLB   GL431144  25.849  39.750   0.915  0.0252 -0.1459 -0.2713
 1298BOLB   C1C31145  26.249  39.455   0.818 -0.0012 -0.1367 -0.1564
 1298BOLB   C2C31146  26.585  39.247   0.569  0.0159 -0.1624  0.0565
 1298BOLB   C3C31147  26.535  38.949   0.302  0.3165 -0.0885  0.4732
 1298BOLB   C4C31148  26.366  38.627   0.041  0.3501 -0.2858 -0.2210
 1298BOLB   C1D31149  25.573  39.441   0.829  0.1707 -0.0163 -0.0460
 1298BOLB   C2D31150  25.818  39.132   0.747  0.1249  0.0710 -0.1670
 1298BOLB   C3D31151  25.535  38.798   0.464  0.0518 -0.2212  0.1201
 1298BOLB   C4D31152  25.437  38.706   0.055  0.1240 -0.1523 -0.1638
 1299BOLB   NC131153  25.487  36.101   0.016 -0.0194  0.0294  0.4162
 1299BOLB   PO131154  25.927  36.039  26.898 -0.0278  0.1149 -0.2090
 1299BOLB   GL131155  25.853  36.402   0.182 -0.0867 -0.3280 -0.2663
 1299BOLB   GL231156  25.667  36.419   0.374  0.1395  0.3522 -0.1358
 1299BOLB   C1A31157  26.147  36.810   0.236 -0.0740 -0.3819  0.0656
 1299BOLB   C2A31158  26.401  37.264   0.350 -0.0299  0.1093 -0.0989
 1299BOLB   C3A31159  26.348  37.611   0.550 -0.0133 -0.3029 -0.0099
 1299BOLB   C4A31160  26.296  37.966   0.852 -0.0264 -0.0572  0.0624
 1299BOLB   C1B31161  25.404  36.666   0.720  0.1432 -0.1514 -0.2495
 1299BOLB   C2B31162  25.325  36.885   1.120  0.0629  0.0661 -0.4489
 1299BOLB   C3B31163  25.134  37.169   1.416 -0.2254 -0.0745 -0.0506
 1299BOLB   C4B31164  24.972  37.465   1.427  0.1675 -0.0910  0.1754
 1299BOLB   NC231165  26.441  39.772   2.084  0.1752 -0.2747  0.0452
 1299BOLB   PO231166  26.778  39.688   2.352  0.0472  0.2167 -0.0691
 1299BOLB   GL331167  26.651  39.299   2.206 -0.1483 -0.1804 -0.1975
 1299BOLB   GL431168  26.520  39.149   2.425  0.0380 -0.3115  0.0254
 1299BOLB   C1C31169  26.768  38.987   1.953 -0.3312  0.0356  0.0350
 1299BOLB   C2C31170  26.882  38.560   1.739 -0.1420 -0.1653 -0.0785
 1299BOLB   C3C31171  26.659  38.535   1.408 -0.0783  0.3474 -0.0644
 1299BOLB   C4C31172  26.410  38.212   1.107  0.1975 -0.2153 -0.2510
 1299BOLB   C1D31173  26.671  38.671   2.418 -0.1643  0.1618  0.1896
 1299BOLB   C2D31174  26.782  38.238   2.427 -0.1246 -0.1830  0.0481
 1299BOLB   C3D31175  26.766  37.806   2.276  0.3995  0.4682 -0.0769
 1299BOLB   C4D31176  26.594  37.429   2.147  0.0640 -0.0289  0.1065
 1300BOLB   NC131177  31.349  22.151  21.041 -0.3737  0.1010 -0.0319
 1300BOLB   PO131178  31.752  22.345  21.260 -0.2478 -0.2559  0.1614
 1300BOLB   GL131179  32.187  22.291  21.298  0.0755  0.3315  0.2130
 1300BOLB   GL231180  32.276  22.417  21.477 -0.1042  0.2337  0.1330
 1300BOLB   C1A31181  32.611  22.166  21.169 -0.0853 -0.0493  0.1591
 1300BOLB   C2A31182  32.791  21.913  20.884 -0.2210 -0.2662 -0.1839
 1300BOLB   C3A31183  33.059  21.634  20.956  0.2289  0.1338  0.2081
 1300BOLB   C4A31184  33.294  21.359  20.814 -0.3646  0.1821 -0.0647
 1300BOLB   C1B31185  32.478  22.005  21.608  0.0617  0.1114  0.0241
 1300BOLB   C2B31186  32.547  21.628  21.922 -0.0545  0.2953 -0.3726
 1300BOLB   C3B31187  32.526  21.729  22.350 -0.3244  0.1181 -0.0353
 1300BOLB   C4B31188  32.227  21.875  22.588  0.1007 -0.1241  0.1667
 1300BOLB   NC231189  35.193  19.387  21.043 -0.0046 -0.0519 -0.2678
 1300BOLB   PO231190  34.934  19.741  20.907 -0.2153  0.0080  0.1044
 1300BOLB   GL331191  34.691  19.944  20.658  0.0404 -0.0177  0.1871
 1300BOLB   GL431192  34.594  20.152  20.899 -0.0710  0.2578 -0.1163
 1300BOLB   C1C31193  34.387  20.267  20.452 -0.1141 -0.0237 -0.1159
 1300BOLB   C2C31194  34.022  20.630  20.561 -0.0351 -0.4165  0.0360
 1300BOLB   C3C31195  33.723  20.839  20.568  0.2521  0.0594  0.0064
 1300BOLB   C4C31196  33.513  21.165  20.615  0.1415  0.0189 -0.0809
 1300BOLB   C1D31197  34.400  20.216  21.274 -0.1258 -0.2173 -0.1201
 1300BOLB   C2D31198  34.164  20.663  21.309 -0.1904 -0.1063 -0.1924
 1300BOLB   C3D31199  34.076  21.044  21.548 -0.2067  0.1316 -0.3601
 1300BOLB   C4D31200  33.707  21.258  21.755  0.1032  0.0439 -0.0330
 1301BOLB   NC131201  27.653  33.236  14.752 -0.2476  0.3273 -0.1416
 1301BOLB   PO131202  27.990  33.426  14.506 -0.1691  0.2674 -0.3432
 1301BOLB   GL131203  28.226  33.576  14.231  0.1074  0.3555  0.1486
 1301BOLB   GL231204  28.082  33.634  13.983 -0.0452 -0.0449  0.1367
 1301BOLB   C1A31205  28.571  33.624  13.925 -0.2708 -0.1261  0.1213
 1301BOLB   C2A31206  28.491  33.589  13.528 -0.2217 -0.2237 -0.2000
 1301BOLB   C3A31207  28.452  33.607  13.061 -0.1068 -0.0336  0.0548
 1301BOLB   C4A31208  28.576  33.591  12.780 -0.2598  0.2323 -0.1041
 1301BOLB   C1B31209  28.223  33.922  13.718  0.3910  0.0056  0.0267
 1301BOLB   C2B31210  28.267  33.997  13.323  0.3523 -0.0667  0.1933
 1301BOLB   C3B31211  28.359  34.072  12.887  0.1700 -0.1555  0.3333
 1301BOLB   C4B31212  28.366  34.123  12.430 -0.2318 -0.2251 -0.0862
 1301BOLB   NC231213  28.521  33.583   9.950 -0.2290 -0.1270  0.0426
 1301BOLB   PO231214  28.461  33.914  10.289 -0.0586 -0.1674 -0.0703
 1301BOLB   GL331215  28.551  33.843  10.735 -0.0798 -0.1748 -0.0482
 1301BOLB   GL431216  28.308  33.524  10.809 -0.1720  0.1560 -0.0809
 1301BOLB   C1C31217  28.701  34.075  11.068  0.1157  0.0533  0.3159
 1301BOLB   C2C31218  28.762  34.119  11.559  0.0339  0.0303 -0.2442
 1301BOLB   C3C31219  28.714  34.002  12.001  0.2470 -0.3056  0.0010
 1301BOLB   C4C31220  28.768  33.836  12.407  0.1780 -0.2088 -0.0872
 1301BOLB   C1D31221  28.304  33.659  11.248 -0.3174 -0.1430  0.0992
 1301BOLB   C2D31222  28.302  33.903  11.663 -0.0150  0.5575  0.0405
 1301BOLB   C3D31223  28.009  33.928  12.157 -0.0531  0.0444 -0.2287
 1301BOLB   C4D31224  28.021  33.783  12.619 -0.1283  0.0830 -0.0113
 1302BOLB   NC131225  34.629  32.703  17.244 -0.0672 -0.2497 -0.4282
 1302BOLB   PO131226  34.686  32.207  17.249 -0.3290 -0.0933 -0.0960
 1302BOLB   GL131227  34.858  32.064  16.824 -0.2429 -0.3318 -0.1039
 1302BOLB   GL231228  35.057  31.759  16.935 -0.1849  0.2533  0.0018
 1302BOLB   C1A31229  35.036  32.230  16.435 -0.4512  0.1389  0.0456
 1302BOLB   C2A31230  35.179  32.345  16.051 -0.2252  0.1533 -0.3958
 1302BOLB   C3A31231  35.109  32.184  15.631  0.1547  0.1218  0.0755
 1302BOLB   C4A31232  35.350  31.918  15.283  0.0972 -0.1799  0.2129
 1302BOLB   C1B31233  35.473  31.899  17.065 -0.0282  0.0631  0.0073
 1302BOLB   C2B31234  35.847  32.237  17.015 -0.1727 -0.2135 -0.0344
 1302BOLB   C3B31235  35.871  32.673  17.069  0.1856 -0.2408  0.2533
 1302BOLB   C4B31236  36.161  32.947  17.240  0.2407 -0.4525  0.3014
 1302BOLB   NC231237  36.946  31.860  13.471 -0.0124  0.2742  0.0024
 1302BOLB   PO231238  36.590  32.152  13.418 -0.0056  0.0283 -0.1009
 1302BOLB   GL331239  36.171  32.197  13.578  0.0079  0.0060 -0.0660
 1302BOLB   GL431240  35.845  32.421  13.400 -0.1002 -0.2933 -0.1080
 1302BOLB   C1C31241  35.847  32.260  13.881  0.1636  0.1825  0.1654
 1302BOLB   C2C31242  35.529  32.158  14.074  0.1770  0.0137  0.1174
 1302BOLB   C3C31243  35.389  32.004  14.424  0.0604 -0.0953  0.0471
 1302BOLB   C4C31244  35.328  31.949  14.825  0.0420  0.0533 -0.0305
 1302BOLB   C1D31245  35.630  32.093  13.482  0.3510  0.1090  0.3079
 1302BOLB   C2D31246  35.293  32.114  13.628 -0.2925 -0.0168 -0.1816
 1302BOLB   C3D31247  35.070  31.978  13.966  0.0141 -0.1756 -0.4272
 1302BOLB   C4D31248  35.161  31.584  14.318  0.2080  0.0026  0.1074
 1303BOLB   NC131249  33.494  30.966  15.462 -0.1047 -0.2676 -0.0504
 1303BOLB   PO131250  33.346  30.735  15.209  0.3762  0.0966 -0.0369
 1303BOLB   GL131251  33.603  30.799  14.918  0.2977 -0.3416 -0.0134
 1303BOLB   GL231252  33.868  30.911  15.032 -0.1464  0.0509 -0.1653
 1303BOLB   C1A31253  33.455  30.988  14.515  0.0849 -0.0495  0.1543
 1303BOLB   C2A31254  33.479  30.912  14.096  0.1299 -0.1440 -0.1930
 1303BOLB   C3A31255  33.753  30.800  13.662 -0.1570  0.2642  0.2897
 1303BOLB   C4A31256  34.126  30.626  13.675 -0.0548  0.1231 -0.1353
 1303BOLB   C1B31257  34.167  30.921  14.786  0.1891 -0.4175  0.1183
 1303BOLB   C2B31258  34.478  31.055  14.488 -0.1180  0.1088 -0.1629
 1303BOLB   C3B31259  34.835  31.106  14.317 -0.0507  0.2552  0.0224
 1303BOLB   C4B31260  35.082  30.995  13.973 -0.1370 -0.0484 -0.0140
 1303BOLB   NC231261  34.519  29.955  11.472  0.2453 -0.2652  0.3529
 1303BOLB   PO231262  34.432  30.380  11.493 -0.0673  0.4271  0.4129
 1303BOLB   GL331263  34.440  30.210  11.911  0.3687 -0.1180  0.3703
 1303BOLB   GL431264  34.118  30.262  11.995  0.0463 -0.0463 -0.0380
 1303BOLB   C1C31265  34.576  30.091  12.264  0.0284 -0.0164  0.0489
 1303BOLB   C2C31266  34.468  30.382  12.597  0.1904 -0.1554 -0.1300
 1303BOLB   C3C31267  34.603  30.633  12.955  0.0694  0.1581 -0.3233
 1303BOLB   C4C31268  34.574  30.705  13.443 -0.0129 -0.1426  0.0524
 1303BOLB   C1D31269  34.049  30.072  12.359  0.2789 -0.0867 -0.2163
 1303BOLB   C2D31270  34.014  30.147  12.808  0.3574  0.1047 -0.0516
 1303BOLB   C3D31271  33.739  29.871  13.011 -0.0543  0.0030  0.2349
 1303BOLB   C4D31272  33.425  29.689  13.284  0.1353  0.2743 -0.1236
 1304BOLB   NC131273  34.466  33.555  24.636  0.0143  0.0782 -0.3176
 1304BOLB   PO131274  34.606  33.593  25.077 -0.2416 -0.2114 -0.0200
 1304BOLB   GL131275  34.629  34.010  25.146 -0.1100  0.2795  0.1490
 1304BOLB   GL231276  34.931  33.936  25.249 -0.1563 -0.0477 -0.0563
 1304BOLB   C1A31277  34.702  34.485  25.113 -0.2047  0.2655 -0.1807
 1304BOLB   C2A31278  34.953  34.774  25.270  0.5935 -0.2979  0.1663
 1304BOLB   C3A31279  34.965  34.980  25.565  0.0140 -0.1048  0.1283
 1304BOLB   C4A31280  35.377  35.111  25.700 -0.0684 -0.3164  0.2182
 1304BOLB   C1B31281  35.070  34.342  25.440 -0.2769  0.0991 -0.1638
 1304BOLB   C2B31282  35.360  34.429  25.343  0.1447  0.0508 -0.2739
 1304BOLB   C3B31283  35.457  34.853  25.304 -0.0262 -0.1615 -0.1313
 1304BOLB   C4B31284  35.588  35.312  25.260  0.2808 -0.0175 -0.0623
 1304BOLB   NC231285  37.063  36.298   0.317  0.0276  0.1233 -0.2682
 1304BOLB   PO231286  36.838  36.312  26.922  0.0726  0.1224  0.1517
 1304BOLB   GL331287  36.820  35.949  26.596  0.1270 -0.0807  0.1196
 1304BOLB   GL431288  36.834  36.069  26.186 -0.1812  0.1093 -0.0436
 1304BOLB   C1C31289  36.553  35.663  26.449 -0.1881  0.2068  0.1647
 1304BOLB   C2C31290  36.223  35.425  26.606 -0.2125  0.1627  0.1420
 1304BOLB   C3C31291  35.775  35.320  26.469  0.2330 -0.1266  0.1899
 1304BOLB   C4C31292  35.557  35.280  26.125 -0.0003  0.1456 -0.0020
 1304BOLB   C1D31293  36.359  36.191  26.131  0.3669 -0.1293  0.1728
 1304BOLB   C2D31294  35.910  36.242  26.093 -0.1300 -0.2432 -0.5788
 1304BOLB   C3D31295  35.597  35.900  25.926 -0.1488  0.1442 -0.1883
 1304BOLB   C4D31296  35.485  35.587  25.721  0.2368  0.3387 -0.1390
 1305BOLB   NC131297  34.118  34.681  23.637 -0.2729 -0.0168  0.2013
 1305BOLB   PO131298  34.396  34.627  23.328  0.0539  0.1646  0.0765
 1305BOLB   GL131299  34.764  34.707  23.309 -0.5030  0.1946  0.1138
 1305BOLB   GL231300  34.912  34.428  23.239 -0.1479  0.0359  0.1177
 1305BOLB   C1A31301  34.941  35.044  23.448 -0.1973  0.1617 -0.1706
 1305BOLB   C2A31302  35.333  35.251  23.532 -0.2315  0.0587  0.0146
 1305BOLB   C3A31303  35.793  35.228  23.391 -0.2594 -0.0042 -0.0258
 1305BOLB   C4A31304  36.198  35.368  23.391  0.0094  0.2097  0.3934
 1305BOLB   C1B31305  35.272  34.652  23.318 -0.0415 -0.1936  0.1979
 1305BOLB   C2B31306  35.709  34.770  23.452  0.2522 -0.2284  0.1650
 1305BOLB   C3B31307  36.109  34.610  23.581 -0.0140  0.2647  0.1634
 1305BOLB   C4B31308  36.557  34.503  23.609 -0.0406 -0.1926  0.0497
 1305BOLB   NC231309  38.286  36.393  23.464 -0.1822  0.1075 -0.0442
 1305BOLB   PO231310  38.502  36.055  23.718  0.0922  0.0898  0.0946
 1305BOLB   GL331311  38.187  35.914  23.534  0.2540  0.2210 -0.0161
 1305BOLB   GL431312  38.232  35.697  23.376 -0.0562 -0.1310 -0.2204
 1305BOLB   C1C31313  37.775  35.799  23.524  0.0858 -0.0219 -0.0335
 1305BOLB   C2C31314  37.416  35.658  23.702  0.2624  0.0980  0.3407
 1305BOLB   C3C31315  36.977  35.490  23.592  0.0810 -0.2617 -0.0330
 1305BOLB   C4C31316  36.592  35.453  23.478  0.0726 -0.2273 -0.1608
 1305BOLB   C1D31317  37.964  35.340  23.391 -0.2023  0.2882  0.1121
 1305BOLB   C2D31318  37.623  35.210  23.623 -0.0047  0.0502  0.0235
 1305BOLB   C3D31319  37.257  35.162  23.905 -0.0219 -0.1345 -0.0043
 1305BOLB   C4D31320  36.989  34.727  24.013  0.0287 -0.2873 -0.0989
 1306BOLB   NC131321  24.314  36.400  24.685 -0.1054 -0.1728 -0.1623
 1306BOLB   PO131322  23.893  36.123  24.522  0.3211 -0.0662 -0.0258
 1306BOLB   GL131323  23.677  36.478  24.407 -0.2265 -0.2923 -0.0026
 1306BOLB   GL231324  23.869  36.652  24.463 -0.1682 -0.0551  0.0935
 1306BOLB   C1A31325  23.392  36.943  24.386 -0.2974 -0.0832 -0.1808
 1306BOLB   C2A31326  23.324  37.324  24.281  0.1856 -0.0043  0.3481
 1306BOLB   C3A31327  23.104  37.497  24.550  0.1954  0.0172  0.0967
 1306BOLB   C4A31328  23.051  37.814  24.890  0.2086  0.1915  0.3043
 1306BOLB   C1B31329  23.732  37.001  24.744 -0.3316 -0.1999  0.0403
 1306BOLB   C2B31330  23.445  37.326  24.872  0.0788 -0.3405 -0.5656
 1306BOLB   C3B31331  23.442  37.479  25.238 -0.0555 -0.0817  0.4981
 1306BOLB   C4B31332  23.706  37.705  25.582 -0.3759 -0.3419 -0.0847
 1306BOLB   NC231333  23.157  40.010  26.028 -0.1070  0.0665  0.0181
 1306BOLB   PO231334  23.602  40.188  26.117 -0.1066  0.0943 -0.0125
 1306BOLB   GL331335  23.818  39.810  25.874 -0.1480  0.3000  0.0809
 1306BOLB   GL431336  23.982  39.707  26.118  0.0744  0.3803  0.0179
 1306BOLB   C1C31337  23.538  39.478  25.658  0.0500 -0.2336  0.1544
 1306BOLB   C2C31338  23.345  39.125  25.473  0.0482 -0.2690 -0.1063
 1306BOLB   C3C31339  23.248  38.637  25.315 -0.4259  0.2789 -0.1655
 1306BOLB   C4C31340  22.987  38.217  25.077  0.1731  0.3592  0.0721
 1306BOLB   C1D31341  24.141  39.307  26.028  0.1123  0.0940 -0.0937
 1306BOLB   C2D31342  24.229  38.878  25.835 -0.3053 -0.0841 -0.1923
 1306BOLB   C3D31343  24.377  38.441  25.822  0.0156 -0.0048  0.0794
 1306BOLB   C4D31344  24.137  37.932  25.813 -0.0811 -0.0596  0.1611
 1307BOLB   NC131345  23.793  26.000  15.454 -0.0446  0.1514 -0.0176
 1307BOLB   PO131346  23.632  25.846  15.852 -0.1259  0.1494  0.1358
 1307BOLB   GL131347  23.531  25.455  15.613  0.2531 -0.2418  0.0795
 1307BOLB   GL231348  23.294  25.332  15.863  0.3549  0.0893  0.0880
 1307BOLB   C1A31349  23.269  25.397  15.275 -0.1080  0.0266  0.1058
 1307BOLB   C2A31350  23.083  25.522  14.907 -0.1559 -0.1859  0.2295
 1307BOLB   C3A31351  23.010  25.503  14.469 -0.0283 -0.0116 -0.4134
 1307BOLB   C4A31352  22.542  25.540  14.301 -0.0086 -0.0425 -0.0223
 1307BOLB   C1B31353  22.889  25.355  15.602 -0.2101 -0.2005 -0.3710
 1307BOLB   C2B31354  22.708  25.175  15.220 -0.1280  0.0326  0.3440
 1307BOLB   C3B31355  22.882  25.068  14.849 -0.1264 -0.1697 -0.1755
 1307BOLB   C4B31356  22.989  25.014  14.439  0.1984  0.1656  0.1867
 1307BOLB   NC231357  21.246  24.755  12.198 -0.1270  0.0464  0.1027
 1307BOLB   PO231358  21.732  24.865  12.238 -0.4434 -0.4129  0.1737
 1307BOLB   GL331359  22.103  25.098  12.386 -0.3257  0.2192 -0.1886
 1307BOLB   GL431360  22.263  25.168  12.145  0.0478  0.1277 -0.0297
 1307BOLB   C1C31361  22.225  25.269  12.797  0.0803 -0.1247  0.2946
 1307BOLB   C2C31362  22.085  25.535  13.228 -0.0218  0.0314  0.0886
 1307BOLB   C3C31363  21.966  25.550  13.673  0.1746 -0.1039 -0.0641
 1307BOLB   C4C31364  22.296  25.510  14.017 -0.0508 -0.2039 -0.0711
 1307BOLB   C1D31365  22.288  25.588  12.372  0.1072  0.0551 -0.0956
 1307BOLB   C2D31366  22.645  25.674  12.699  0.0162 -0.1770  0.2065
 1307BOLB   C3D31367  23.029  25.517  12.864 -0.1212 -0.3001 -0.0188
 1307BOLB   C4D31368  23.331  25.487  13.097 -0.1996  0.0430  0.1123
 1308BOLB   NC131369  31.341  28.716  14.947 -0.0004 -0.1152  0.0500
 1308BOLB   PO131370  31.776  28.717  15.070 -0.0818  0.3139 -0.0177
 1308BOLB   GL131371  32.150  28.788  14.929  0.0086  0.0810  0.1165
 1308BOLB   GL231372  32.100  28.812  14.604  0.1605  0.0155  0.0623
 1308BOLB   C1A31373  32.545  28.829  14.739  0.1933 -0.0899 -0.0581
 1308BOLB   C2A31374  32.868  29.032  14.330  0.1106  0.1721  0.0620
 1308BOLB   C3A31375  32.935  29.192  13.919  0.0215  0.1770 -0.0711
 1308BOLB   C4A31376  33.102  29.238  13.577  0.3538 -0.2331  0.0378
 1308BOLB   C1B31377  32.455  28.674  14.266 -0.0330 -0.5816  0.0246
 1308BOLB   C2B31378  32.875  28.679  14.017  0.0231 -0.0232 -0.2124
 1308BOLB   C3B31379  32.951  28.295  13.804  0.0813  0.1926 -0.0492
 1308BOLB   C4B31380  33.003  27.854  13.589  0.3145 -0.2054  0.1065
 1308BOLB   NC231381  34.829  28.479  11.632 -0.2117 -0.1123  0.0372
 1308BOLB   PO231382  34.658  28.480  12.077  0.1785 -0.1354 -0.0114
 1308BOLB   GL331383  34.497  28.774  12.443 -0.0904  0.2290  0.1209
 1308BOLB   GL431384  34.683  28.989  12.540 -0.2273 -0.1960 -0.0416
 1308BOLB   C1C31385  34.341  28.753  12.878 -0.1776 -0.1822 -0.0440
 1308BOLB   C2C31386  33.949  28.651  13.068 -0.0942  0.2407  0.2774
 1308BOLB   C3C31387  33.652  28.854  13.191 -0.0267 -0.1704  0.1422
 1308BOLB   C4C31388  33.407  28.895  13.512 -0.0871  0.0568  0.0471
 1308BOLB   C1D31389  34.770  29.007  12.931  0.0122 -0.0817  0.3413
 1308BOLB   C2D31390  34.487  29.048  13.279  0.0218  0.0373  0.1789
 1308BOLB   C3D31391  34.245  29.354  13.410 -0.0878 -0.1498 -0.1004
 1308BOLB   C4D31392  33.927  29.668  13.558 -0.0236  0.3204 -0.1301
 1309BOLB   NC131393  17.747  19.590   0.509  0.2133 -0.1170 -0.2979
 1309BOLB   PO131394  18.106  19.608   0.113  0.1859  0.0661 -0.1337
 1309BOLB   GL131395  18.195  20.076   0.041 -0.1439  0.3136  0.1357
 1309BOLB   GL231396  17.989  20.253   0.189  0.2372  0.1206  0.0399
 1309BOLB   C1A31397  18.204  20.248  26.639 -0.0066  0.3069  0.0441
 1309BOLB   C2A31398  18.240  20.689  26.489 -0.1172  0.1918 -0.2979
 1309BOLB   C3A31399  18.375  21.044  26.312 -0.3272 -0.1731 -0.1302
 1309BOLB   C4A31400  18.485  21.526  26.529 -0.1840 -0.0420 -0.1925
 1309BOLB   C1B31401  18.170  20.647   0.051 -0.1956  0.1832  0.0691
 1309BOLB   C2B31402  18.352  21.052  26.812  0.0279 -0.4595  0.2990
 1309BOLB   C3B31403  18.648  21.383   0.064  0.0674 -0.1020 -0.0136
 1309BOLB   C4B31404  18.851  21.703   0.059 -0.1393 -0.2121 -0.1631
 1309BOLB   NC231405  16.929  21.892   1.421 -0.0506 -0.3149 -0.2258
 1309BOLB   PO231406  16.823  21.594   1.095  0.1936 -0.2583 -0.2340
 1309BOLB   GL331407  17.017  21.953   0.957  0.1572  0.0055 -0.1501
 1309BOLB   GL431408  17.204  22.220   1.162  0.0393  0.1179 -0.0593
 1309BOLB   C1C31409  17.214  21.979   0.545 -0.0541  0.1640  0.0603
 1309BOLB   C2C31410  17.525  21.744   0.260  0.0367 -0.0884 -0.0068
 1309BOLB   C3C31411  17.920  21.798   0.222 -0.0514 -0.3328  0.0281
 1309BOLB   C4C31412  18.276  21.697  26.922 -0.3646  0.1056 -0.1801
 1309BOLB   C1D31413  17.396  22.458   0.795  0.1108 -0.2337 -0.0085
 1309BOLB   C2D31414  17.398  22.955   0.751 -0.2933 -0.1637  0.2038
 1309BOLB   C3D31415  17.457  23.324   0.705 -0.1874  0.0996  0.0300
 1309BOLB   C4D31416  17.340  23.517   0.428 -0.2676  0.0475 -0.1359
 1310BOLB   NC131417  16.143  19.760  24.190  0.0812 -0.2137 -0.0568
 1310BOLB   PO131418  16.553  19.870  24.369  0.0287 -0.0914  0.0461
 1310BOLB   GL131419  16.742  20.094  24.098 -0.1228 -0.2185  0.5310
 1310BOLB   GL231420  16.575  20.307  23.851 -0.1954 -0.0152  0.3816
 1310BOLB   C1A31421  17.236  20.251  24.165  0.0540 -0.4563  0.1304
 1310BOLB   C2A31422  17.722  20.436  24.076  0.2229  0.2553 -0.0590
 1310BOLB   C3A31423  18.139  20.556  24.087 -0.2656 -0.2504  0.1402
 1310BOLB   C4A31424  18.509  20.274  24.160  0.2161 -0.0298 -0.1552
 1310BOLB   C1B31425  16.596  20.780  23.937 -0.1359 -0.1532  0.0592
 1310BOLB   C2B31426  16.614  21.229  23.717 -0.2380  0.0144  0.2179
 1310BOLB   C3B31427  16.682  21.203  23.290  0.0112  0.0588  0.1262
 1310BOLB   C4B31428  16.781  21.445  22.900  0.1355 -0.0292  0.0676
 1310BOLB   NC231429  18.673  18.231  25.602 -0.0549  0.0579 -0.1639
 1310BOLB   PO231430  18.369  18.452  25.798 -0.1103 -0.3195  0.0614
 1310BOLB   GL331431  18.615  18.782  25.508 -0.1347 -0.4001 -0.1187
 1310BOLB   GL431432  18.887  18.726  25.615 -0.0721 -0.2202 -0.0268
 1310BOLB   C1C31433  18.526  18.919  25.111 -0.1084 -0.2289 -0.2630
 1310BOLB   C2C31434  18.697  19.243  24.800  0.1432  0.1242 -0.0002
 1310BOLB   C3C31435  18.771  19.565  24.450 -0.0168  0.1190  0.0915
 1310BOLB   C4C31436  18.603  19.902  24.194 -0.2952 -0.0505  0.0004
 1310BOLB   C1D31437  19.171  18.891  25.503  0.0796 -0.3062 -0.0641
 1310BOLB   C2D31438  19.584  18.699  25.479  0.1502  0.1024 -0.1350
 1310BOLB   C3D31439  19.976  18.730  25.512 -0.2034  0.4998  0.0314
 1310BOLB   C4D31440  20.343  18.536  25.462  0.0009 -0.1038  0.1379
 1311BOLB   NC131441  34.418  28.972  25.271 -0.1152  0.0732 -0.0704
 1311BOLB   PO131442  34.598  29.405  25.445  0.0472  0.2532 -0.1238
 1311BOLB   GL131443  34.853  29.292  25.822  0.0130  0.0728 -0.3892
 1311BOLB   GL231444  34.815  29.544  26.051 -0.1333 -0.0191  0.0458
 1311BOLB   C1A31445  35.053  29.179  26.225 -0.0530 -0.1134  0.0032
 1311BOLB   C2A31446  35.439  29.229  26.504 -0.2370  0.1522 -0.6505
 1311BOLB   C3A31447  35.782  29.224  26.692 -0.1897 -0.2185 -0.0382
 1311BOLB   C4A31448  36.148  29.262  26.801 -0.0706  0.2407 -0.0739
 1311BOLB   C1B31449  35.306  29.615  26.103 -0.2212 -0.1639 -0.0642
 1311BOLB   C2B31450  35.556  29.782  26.338 -0.1191  0.0032  0.1777
 1311BOLB   C3B31451  36.002  29.714  26.520 -0.0388 -0.4000  0.1545
 1311BOLB   C4B31452  36.417  29.577  26.543  0.0632 -0.1420  0.0017
 1311BOLB   NC231453  37.425  29.114   2.153 -0.0705 -0.0610 -0.1962
 1311BOLB   PO231454  37.467  28.875   1.808 -0.1144 -0.3222  0.0104
 1311BOLB   GL331455  37.203  28.975   1.517 -0.2509  0.0162 -0.3150
 1311BOLB   GL431456  36.869  28.899   1.580 -0.0221  0.0523 -0.2503
 1311BOLB   C1C31457  37.184  29.079   1.120 -0.2596  0.0189  0.3595
 1311BOLB   C2C31458  36.851  29.215   0.889  0.2341 -0.0447 -0.1247
 1311BOLB   C3C31459  36.638  29.256   0.458 -0.2500 -0.3125 -0.1219
 1311BOLB   C4C31460  36.405  29.153   0.185  0.2533 -0.2185 -0.2264
 1311BOLB   C1D31461  36.424  29.025   1.668  0.0809 -0.0890 -0.1427
 1311BOLB   C2D31462  36.008  29.166   1.638  0.1979  0.3400  0.0479
 1311BOLB   C3D31463  35.670  29.363   1.863  0.0692 -0.0734  0.1146
 1311BOLB   C4D31464  35.243  29.590   1.911  0.0149  0.0560  0.0731
 1312BOLB   NC131465  33.131  23.806  23.910  0.3560  0.1864 -0.2614
 1312BOLB   PO131466  33.353  23.835  23.536  0.1566  0.0979  0.1355
 1312BOLB   GL131467  33.779  23.554  23.579  0.0762 -0.0081  0.0845
 1312BOLB   GL231468  34.043  23.734  23.730 -0.0138  0.2385 -0.1336
 1312BOLB   C1A31469  34.269  23.363  23.477  0.5496  0.1206 -0.1962
 1312BOLB   C2A31470  34.516  23.183  23.196 -0.1066 -0.0080  0.2456
 1312BOLB   C3A31471  34.376  22.819  22.933 -0.0011 -0.1244  0.2139
 1312BOLB   C4A31472  34.739  22.580  22.786  0.1896 -0.0011 -0.4830
 1312BOLB   C1B31473  34.487  23.786  24.023  0.1209 -0.0385 -0.0591
 1312BOLB   C2B31474  34.928  23.762  24.159  0.1056 -0.1243  0.0525
 1312BOLB   C3B31475  35.414  23.741  24.317  0.3142 -0.2771  0.2551
 1312BOLB   C4B31476  35.773  23.634  24.204  0.0006 -0.3413 -0.0367
 1312BOLB   NC231477  35.848  20.596  22.470 -0.2930 -0.3677  0.0847
 1312BOLB   PO231478  35.505  20.370  22.642 -0.0392 -0.1406  0.0002
 1312BOLB   GL331479  35.266  20.745  22.532  0.2299 -0.2035  0.1988
 1312BOLB   GL431480  35.162  20.972  22.769  0.1625 -0.4321  0.0628
 1312BOLB   C1C31481  35.065  21.088  22.313 -0.4453  0.1411  0.1441
 1312BOLB   C2C31482  34.775  21.452  22.661 -0.1225  0.0197 -0.1543
 1312BOLB   C3C31483  34.989  21.791  22.808 -0.3020 -0.2330 -0.1501
 1312BOLB   C4C31484  35.117  22.252  22.743  0.2576  0.5631  0.0873
 1312BOLB   C1D31485  35.371  21.408  22.685 -0.1841  0.2005  0.0236
 1312BOLB   C2D31486  35.432  21.912  22.688  0.0355  0.2193 -0.5341
 1312BOLB   C3D31487  35.411  22.191  23.109  0.1858  0.0303  0.0925
 1312BOLB   C4D31488  35.581  22.369  23.447  0.3651  0.0403  0.0455
 1313BOLB   NC131489  35.457  20.345  22.103  0.0638 -0.2028  0.2221
 1313BOLB   PO131490  35.790  20.526  22.000  0.0949  0.0582  0.2290
 1313BOLB   GL131491  35.569  20.926  22.130 -0.3821  0.1046 -0.1965
 1313BOLB   GL231492  35.346  20.836  21.979  0.1784 -0.1386  0.1868
 1313BOLB   C1A31493  35.594  21.398  22.056  0.1296 -0.1467  0.0231
 1313BOLB   C2A31494  35.438  21.776  22.214  0.2304 -0.1699 -0.2757
 1313BOLB   C3A31495  35.297  22.186  22.254 -0.0295 -0.1370 -0.1571
 1313BOLB   C4A31496  34.994  22.564  22.171 -0.1334 -0.1402 -0.0318
 1313BOLB   C1B31497  34.873  21.001  21.851 -0.1629  0.0824 -0.0034
 1313BOLB   C2B31498  34.492  21.204  21.900 -0.3736 -0.1407  0.0913
 1313BOLB   C3B31499  34.204  21.397  21.934  0.1740 -0.1012 -0.1111
 1313BOLB   C4B31500  33.887  21.802  21.880 -0.4762  0.0607 -0.0911
 1313BOLB   NC231501  33.732  24.466  22.997  0.2106 -0.1159 -0.0341
 1313BOLB   PO231502  33.561  24.340  23.345  0.0090 -0.0103 -0.2696
 1313BOLB   GL331503  33.854  24.012  23.212 -0.2074 -0.1732  0.0283
 1313BOLB   GL431504  34.166  24.234  23.211  0.2290 -0.3799  0.2118
 1313BOLB   C1C31505  34.069  23.652  22.927  0.0290 -0.1005  0.0614
 1313BOLB   C2C31506  34.188  23.232  22.720 -0.2178  0.2492 -0.4875
 1313BOLB   C3C31507  34.359  22.912  22.454  0.0948  0.3183  0.0578
 1313BOLB   C4C31508  34.595  22.585  22.255  0.0098 -0.0575 -0.4535
 1313BOLB   C1D31509  34.395  23.833  23.347 -0.1610 -0.3965 -0.4555
 1313BOLB   C2D31510  34.704  23.564  23.560 -0.0735  0.1099 -0.3536
 1313BOLB   C3D31511  34.790  23.379  23.909  0.3156  0.2087  0.0520
 1313BOLB   C4D31512  35.144  23.198  24.224  0.3507  0.1649  0.3374
 1314BOLB   NC131513  27.959  37.663  24.334  0.0879 -0.1165 -0.0993
 1314BOLB   PO131514  28.272  37.729  24.036  0.0602  0.1260  0.0166
 1314BOLB   GL131515  28.012  38.144  24.113 -0.0931  0.3572  0.1129
 1314BOLB   GL231516  27.787  38.102  24.197  0.0338 -0.2411  0.0460
 1314BOLB   C1A31517  27.999  38.582  24.187  0.1906 -0.0605 -0.0812
 1314BOLB   C2A31518  28.057  38.880  24.247  0.2133 -0.0764  0.2872
 1314BOLB   C3A31519  28.180  39.276  24.295  0.0500  0.1282  0.0781
 1314BOLB   C4A31520  28.451  39.505  24.131  0.3101 -0.2075  0.2459
 1314BOLB   C1B31521  27.524  38.558  24.363 -0.2492  0.0819  0.1460
 1314BOLB   C2B31522  27.240  38.634  24.608  0.2061  0.0061  0.0698
 1314BOLB   C3B31523  26.939  38.957  24.663  0.0889 -0.2934 -0.1499
 1314BOLB   C4B31524  26.629  39.036  24.398  0.1398  0.3750 -0.1685
 1314BOLB   NC231525  29.075  42.193  24.340 -0.1155  0.0022  0.1712
 1314BOLB   PO231526  29.200  42.103  23.965  0.0644  0.3757  0.1427
 1314BOLB   GL331527  29.134  41.691  24.259  0.1211  0.0998  0.0921
 1314BOLB   GL431528  29.365  41.514  24.049  0.1689 -0.2304  0.0394
 1314BOLB   C1C31529  29.003  41.207  24.169 -0.1515 -0.0210 -0.4453
 1314BOLB   C2C31530  28.781  40.782  24.248 -0.1910  0.0649  0.1959
 1314BOLB   C3C31531  28.734  40.369  24.384  0.1407 -0.0669 -0.0594
 1314BOLB   C4C31532  28.677  39.929  24.192 -0.0675  0.1804 -0.2041
 1314BOLB   C1D31533  29.503  41.175  24.096 -0.0580 -0.1072  0.0889
 1314BOLB   C2D31534  29.295  40.759  24.071  0.1673  0.2485  0.1374
 1314BOLB   C3D31535  29.258  40.480  24.417  0.1218 -0.1790  0.1984
 1314BOLB   C4D31536  29.357  40.352  24.795  0.0754  0.1982  0.1792
 1315BOLB   NC131537  27.077  17.670   3.223  0.0178  0.0980 -0.0051
 1315BOLB   PO131538  26.982  17.681   3.709 -0.0538  0.2419 -0.1202
 1315BOLB   GL131539  26.901  18.041   3.543 -0.1978  0.0294 -0.1085
 1315BOLB   GL231540  26.531  18.191   3.415  0.0237  0.0270  0.0369
 1315BOLB   C1A31541  26.980  18.294   3.140 -0.2923  0.1341 -0.0147
 1315BOLB   C2A31542  27.182  18.746   3.205 -0.0863  0.1575  0.2520
 1315BOLB   C3A31543  27.243  18.995   2.974 -0.1357 -0.2489  0.0193
 1315BOLB   C4A31544  27.165  19.450   2.793 -0.2671 -0.0418 -0.2861
 1315BOLB   C1B31545  26.534  18.652   3.280 -0.2566  0.1547 -0.1473
 1315BOLB   C2B31546  26.328  19.015   3.278  0.0633 -0.0740  0.0954
 1315BOLB   C3B31547  26.176  19.402   3.165 -0.2215 -0.1449  0.3162
 1315BOLB   C4B31548  26.352  19.516   2.841  0.0437 -0.0905  0.0462
 1315BOLB   NC231549  29.028  19.169   4.371  0.2116 -0.0825  0.0370
 1315BOLB   PO231550  29.018  19.424   3.957 -0.1683  0.0243  0.2361
 1315BOLB   GL331551  28.738  19.393   3.652 -0.0121  0.0468 -0.0224
 1315BOLB   GL431552  28.377  19.359   3.770  0.1157  0.0443 -0.1635
 1315BOLB   C1C31553  28.579  19.160   3.404  0.2610  0.1051  0.1111
 1315BOLB   C2C31554  28.334  19.353   3.084 -0.0941  0.0198 -0.3552
 1315BOLB   C3C31555  27.959  19.552   2.860  0.3264  0.1556 -0.0206
 1315BOLB   C4C31556  27.630  19.675   2.713  0.0425  0.1620 -0.2021
 1315BOLB   C1D31557  28.143  19.761   3.886  0.1726 -0.1552  0.0786
 1315BOLB   C2D31558  27.767  19.956   3.724 -0.2483 -0.0858 -0.1507
 1315BOLB   C3D31559  27.821  20.027   3.293 -0.2158  0.1008  0.0784
 1315BOLB   C4D31560  27.760  20.123   2.889  0.4828  0.1107  0.1277
 1316BOLB   NC131561  27.024  32.130   2.864  0.0053  0.1172 -0.0940
 1316BOLB   PO131562  26.638  32.232   3.039 -0.0794  0.0688  0.2045
 1316BOLB   GL131563  26.457  32.399   3.400  0.4372  0.1252  0.5015
 1316BOLB   GL231564  26.147  32.175   3.403 -0.3009  0.1540  0.0110
 1316BOLB   C1A31565  26.430  32.734   3.706  0.0674 -0.2402 -0.0707
 1316BOLB   C2A31566  26.743  32.846   4.053  0.4761  0.1838 -0.0284
 1316BOLB   C3A31567  26.811  32.999   4.536 -0.2561  0.1151  0.1626
 1316BOLB   C4A31568  26.853  33.393   4.751  0.3795  0.0752 -0.1527
 1316BOLB   C1B31569  26.026  32.443   3.651 -0.0218 -0.1158  0.0608
 1316BOLB   C2B31570  25.765  32.540   3.894 -0.3940  0.0292 -0.3353
 1316BOLB   C3B31571  25.507  32.565   4.157  0.1603 -0.5416 -0.0453
 1316BOLB   C4B31572  25.284  32.796   4.429 -0.1727  0.0641  0.2047
 1316BOLB   NC231573  26.270  34.808   6.469  0.4911  0.2107 -0.0938
 1316BOLB   PO231574  25.863  35.010   6.326  0.1219  0.0551  0.1092
 1316BOLB   GL331575  25.872  34.643   5.978 -0.1089  0.0079  0.1105
 1316BOLB   GL431576  25.799  34.771   5.727 -0.0543  0.1945  0.0389
 1316BOLB   C1C31577  25.969  34.306   5.733  0.1562 -0.1344 -0.0137
 1316BOLB   C2C31578  26.151  34.114   5.369  0.0978 -0.6884  0.1887
 1316BOLB   C3C31579  26.429  33.863   5.282  0.0014 -0.3355 -0.1665
 1316BOLB   C4C31580  26.742  33.628   5.054 -0.0605 -0.0744 -0.0096
 1316BOLB   C1D31581  26.041  34.651   5.310  0.0291 -0.0664 -0.4225
 1316BOLB   C2D31582  26.155  34.630   4.816  0.0133 -0.1247  0.2114
 1316BOLB   C3D31583  25.933  34.533   4.458 -0.0024 -0.3748  0.1128
 1316BOLB   C4D31584  25.720  34.259   4.183 -0.3542  0.0443 -0.3132
 1317BOLB   NC131585  33.872  26.765  25.318  0.1053  0.2569 -0.2197
 1317BOLB   PO131586  33.819  26.767  25.721 -0.2640  0.1018  0.3677
 1317BOLB   GL131587  34.139  26.744  25.850  0.1504  0.0086 -0.3066
 1317BOLB   GL231588  34.269  26.359  25.888 -0.0734 -0.0964  0.4413
 1317BOLB   C1A31589  34.527  26.767  26.121 -0.0346 -0.1930  0.0725
 1317BOLB   C2A31590  34.921  26.753  26.426  0.5038 -0.0487 -0.0835
 1317BOLB   C3A31591  35.416  26.618  26.515 -0.1758 -0.0226  0.3220
 1317BOLB   C4A31592  35.661  26.664  26.844  0.1241 -0.1254 -0.0787
 1317BOLB   C1B31593  34.644  26.255  25.937  0.2602  0.1806 -0.1958
 1317BOLB   C2B31594  34.744  25.947  26.334 -0.0415 -0.1063  0.0810
 1317BOLB   C3B31595  35.024  25.714  26.593  0.1108 -0.2334  0.1149
 1317BOLB   C4B31596  35.273  25.659   0.011  0.4126  0.2103 -0.3663
 1317BOLB   NC231597  37.408  27.042   1.139  0.1340 -0.1941  0.0332
 1317BOLB   PO231598  37.687  27.294   0.820  0.2065 -0.0542  0.0443
 1317BOLB   GL331599  37.239  27.457   0.726 -0.2772  0.1314 -0.0732
 1317BOLB   GL431600  37.078  27.396   0.985 -0.1807 -0.7630  0.2129
 1317BOLB   C1C31601  36.889  27.203   0.604  0.0806 -0.0113  0.0010
 1317BOLB   C2C31602  36.544  27.165   0.486  0.1919 -0.0641  0.2195
 1317BOLB   C3C31603  36.135  27.004   0.587 -0.1413 -0.0005  0.2095
 1317BOLB   C4C31604  35.858  26.771   0.314  0.1023  0.1833 -0.1910
 1317BOLB   C1D31605  36.754  27.689   0.727  0.0929  0.3113 -0.2531
 1317BOLB   C2D31606  36.503  27.714   0.437  0.0673 -0.2054 -0.1673
 1317BOLB   C3D31607  36.240  27.502   0.184 -0.3837  0.0072 -0.1720
 1317BOLB   C4D31608  36.297  27.083  26.879 -0.1186  0.1000 -0.4155
 1318BOLB   NC131609  28.568  22.923  16.605  0.0674 -0.0627  0.2590
 1318BOLB   PO131610  28.397  23.320  16.405 -0.3474  0.0315 -0.2811
 1318BOLB   GL131611  28.268  23.054  16.170 -0.0349  0.0698  0.0924
 1318BOLB   GL231612  27.917  22.958  16.094  0.0514  0.0307  0.2604
 1318BOLB   C1A31613  28.229  22.622  16.044 -0.1332 -0.0055 -0.1188
 1318BOLB   C2A31614  28.031  22.382  15.675 -0.4229 -0.1226  0.2543
 1318BOLB   C3A31615  28.082  22.234  15.242  0.2805 -0.1095  0.1485
 1318BOLB   C4A31616  28.162  22.171  14.751 -0.0742  0.3587  0.1285
 1318BOLB   C1B31617  28.106  22.941  15.699  0.1201  0.2418 -0.1614
 1318BOLB   C2B31618  28.204  22.807  15.351  0.0050  0.1502 -0.1905
 1318BOLB   C3B31619  28.667  22.848  15.211  0.3043  0.1458 -0.0809
 1318BOLB   C4B31620  28.862  23.116  14.942 -0.3442 -0.0227 -0.2013
 1318BOLB   NC231621  29.246  20.404  13.173 -0.2093  0.1968 -0.0742
 1318BOLB   PO231622  28.902  20.630  13.440  0.4143 -0.1435 -0.0968
 1318BOLB   GL331623  28.930  21.052  13.368 -0.1465  0.3559 -0.3808
 1318BOLB   GL431624  29.088  21.219  13.133 -0.2656  0.1957 -0.1214
 1318BOLB   C1C31625  28.725  21.386  13.524  0.0176  0.1094  0.2418
 1318BOLB   C2C31626  28.601  21.777  13.724 -0.0109 -0.1022  0.1898
 1318BOLB   C3C31627  28.391  22.136  13.913  0.6431 -0.2226  0.1393
 1318BOLB   C4C31628  28.259  22.155  14.340 -0.1449 -0.0348 -0.1556
 1318BOLB   C1D31629  29.450  21.313  13.336 -0.0507  0.1124  0.0808
 1318BOLB   C2D31630  29.680  21.723  13.435  0.1120  0.3081  0.1966
 1318BOLB   C3D31631  29.813  21.963  13.776 -0.2342 -0.0721 -0.3455
 1318BOLB   C4D31632  29.880  22.089  14.164  0.0531 -0.0133 -0.1517
 1319BOLB   NC131633  38.331  25.690  16.919  0.0169 -0.5134 -0.2732
 1319BOLB   PO131634  37.938  25.629  17.201  0.0053 -0.2181  0.1737
 1319BOLB   GL131635  37.584  25.516  17.330 -0.1458  0.0475 -0.2137
 1319BOLB   GL231636  37.399  25.219  17.576 -0.2966 -0.4632  0.2994
 1319BOLB   C1A31637  37.231  25.800  17.413 -0.0490 -0.0065  0.0286
 1319BOLB   C2A31638  36.768  25.713  17.443 -0.0636 -0.0285 -0.0002
 1319BOLB   C3A31639  36.470  25.979  17.551  0.0123 -0.1006 -0.1574
 1319BOLB   C4A31640  36.310  26.353  17.440  0.2132  0.1064  0.2964
 1319BOLB   C1B31641  37.234  25.229  17.134  0.0860  0.1466  0.0451
 1319BOLB   C2B31642  36.866  25.256  16.988 -0.1348 -0.1029 -0.0573
 1319BOLB   C3B31643  36.683  25.481  16.942  0.0077 -0.0470 -0.1853
 1319BOLB   C4B31644  36.410  25.733  17.074  0.0743 -0.0845  0.0416
 1319BOLB   NC231645  37.835  25.897  16.449  0.1680  0.0193 -0.0377
 1319BOLB   PO231646  38.216  26.040  16.562 -0.0057  0.0687 -0.1033
 1319BOLB   GL331647  37.817  26.337  16.600 -0.1424 -0.1152  0.0634
 1319BOLB   GL431648  37.980  26.736  16.722  0.0479  0.0571  0.3597
 1319BOLB   C1C31649  37.446  26.355  16.681 -0.0359  0.1197 -0.0013
 1319BOLB   C2C31650  37.120  26.637  16.796 -0.4710  0.3276 -0.0322
 1319BOLB   C3C31651  36.715  26.715  16.841 -0.0208 -0.0551  0.0120
 1319BOLB   C4C31652  36.320  26.621  17.097 -0.0144  0.0316  0.1276
 1319BOLB   C1D31653  37.911  27.227  16.797 -0.0333  0.1330 -0.0343
 1319BOLB   C2D31654  37.774  27.523  17.092  0.0128  0.3830  0.1629
 1319BOLB   C3D31655  37.548  27.662  17.396  0.1474  0.1582  0.4268
 1319BOLB   C4D31656  37.376  27.855  17.739  0.0268  0.0513  0.3734
 1320BOLB   NC131657  25.212  37.151  18.918  0.0110  0.1002  0.0101
 1320BOLB   PO131658  25.503  37.175  18.637 -0.0375  0.0571  0.0032
 1320BOLB   GL131659  25.238  37.515  18.502  0.1305  0.3597 -0.1199
 1320BOLB   GL231660  24.977  37.594  18.797 -0.0166  0.0110 -0.0263
 1320BOLB   C1A31661  25.194  37.819  18.289  0.0004  0.1953 -0.3644
 1320BOLB   C2A31662  25.227  38.184  17.887  0.0952  0.1230  0.0869
 1320BOLB   C3A31663  25.205  38.472  17.507 -0.1127 -0.0427 -0.1222
 1320BOLB   C4A31664  25.262  38.825  17.249  0.0692  0.1229  0.1427
 1320BOLB   C1B31665  24.875  38.017  18.640 -0.2135  0.0177  0.0124
 1320BOLB   C2B31666  24.427  38.118  18.585 -0.0973  0.2665  0.1601
 1320BOLB   C3B31667  23.984  38.101  18.276  0.0732  0.0170  0.0835
 1320BOLB   C4B31668  23.813  38.019  17.792 -0.4250 -0.0255 -0.1410
 1320BOLB   NC231669  25.476  41.378  17.809  0.2767 -0.1996  0.1055
 1320BOLB   PO231670  25.509  41.186  17.338 -0.3070 -0.2055  0.3578
 1320BOLB   GL331671  25.616  40.740  17.312 -0.0803 -0.0746  0.0689
 1320BOLB   GL431672  25.962  40.758  17.424 -0.1400  0.1985 -0.0299
 1320BOLB   C1C31673  25.515  40.387  17.035  0.0261 -0.1214  0.1709
 1320BOLB   C2C31674  25.305  40.019  16.844  0.0309 -0.2713 -0.0441
 1320BOLB   C3C31675  25.172  39.513  16.864  0.3147  0.1709  0.3320
 1320BOLB   C4C31676  25.228  39.163  17.009  0.4206 -0.0550 -0.1365
 1320BOLB   C1D31677  25.912  40.315  17.493  0.0749  0.0520  0.0992
 1320BOLB   C2D31678  25.935  39.851  17.430 -0.1839 -0.2812  0.3268
 1320BOLB   C3D31679  26.013  39.446  17.421 -0.3602 -0.0393  0.1612
 1320BOLB   C4D31680  26.185  39.195  17.701 -0.1262  0.1609 -0.0550
 1321BOLB   NC131681  35.330  29.432  24.900  0.1178  0.3430  0.2015
 1321BOLB   PO131682  35.277  29.840  24.839 -0.1172 -0.0332  0.2818
 1321BOLB   GL131683  35.495  29.725  25.260  0.1358  0.1205  0.1845
 1321BOLB   GL231684  35.474  29.675  25.545  0.0450  0.1048 -0.0488
 1321BOLB   C1A31685  35.948  29.732  25.433 -0.0148  0.4249  0.1090
 1321BOLB   C2A31686  36.336  29.637  25.527  0.2816 -0.0338 -0.1014
 1321BOLB   C3A31687  36.792  29.693  25.431  0.0408  0.2433  0.0544
 1321BOLB   C4A31688  37.212  29.691  25.499  0.0764 -0.1328  0.1426
 1321BOLB   C1B31689  35.747  29.596  25.874 -0.1212 -0.6515 -0.1642
 1321BOLB   C2B31690  36.222  29.538  26.044 -0.2079 -0.0296 -0.1061
 1321BOLB   C3B31691  36.657  29.363  26.199 -0.1582 -0.1537  0.2119
 1321BOLB   C4B31692  36.938  29.429  26.491  0.0499 -0.2292  0.1272
 1321BOLB   NC231693  38.947  29.244   0.500 -0.1706  0.0557  0.0440
 1321BOLB   PO231694  39.089  29.002   0.187 -0.2330  0.2640  0.0020
 1321BOLB   GL331695  38.809  29.359   0.004  0.3795  0.3872  0.1045
 1321BOLB   GL431696  38.924  29.720  26.844 -0.2480  0.0312 -0.0283
 1321BOLB   C1C31697  38.405  29.251  26.744 -0.1417 -0.0223 -0.3417
 1321BOLB   C2C31698  38.127  29.318  26.412 -0.1716 -0.0059 -0.1110
 1321BOLB   C3C31699  37.921  29.448  26.092 -0.2143  0.0938  0.4025
 1321BOLB   C4C31700  37.590  29.612  25.673 -0.1478  0.1498 -0.1514
 1321BOLB   C1D31701  38.451  29.697  26.593  0.0909 -0.3372 -0.0439
 1321BOLB   C2D31702  37.976  29.806  26.438 -0.3200  0.0008  0.2521
 1321BOLB   C3D31703  37.581  29.910  26.279  0.1660  0.0959 -0.1668
 1321BOLB   C4D31704  37.226  29.786  26.230  0.0364  0.2836  0.2596
 1322BOLB   NC131705  24.994  22.052  18.254  0.4585 -0.2810  0.0374
 1322BOLB   PO131706  25.211  21.952  18.667  0.0785 -0.0383 -0.2890
 1322BOLB   GL131707  25.070  21.533  18.553 -0.1069 -0.1192  0.1987
 1322BOLB   GL231708  24.855  21.402  18.717 -0.0543  0.2612 -0.1463
 1322BOLB   C1A31709  24.983  21.130  18.231 -0.1354  0.0972 -0.5207
 1322BOLB   C2A31710  24.714  20.848  18.036  0.1162 -0.0587  0.3541
 1322BOLB   C3A31711  24.684  20.530  17.905  0.1198 -0.5179 -0.1891
 1322BOLB   C4A31712  24.526  20.172  17.676  0.1741 -0.1403  0.0649
 1322BOLB   C1B31713  24.752  20.976  18.673  0.2698 -0.3590 -0.2752
 1322BOLB   C2B31714  24.498  20.538  18.738 -0.0637 -0.0051  0.3445
 1322BOLB   C3B31715  24.101  20.356  19.059 -0.0594 -0.0160 -0.0591
 1322BOLB   C4B31716  24.010  20.160  19.387  0.2055  0.1077 -0.0225
 1322BOLB   NC231717  24.335  18.497  16.449 -0.1514 -0.1573  0.3542
 1322BOLB   PO231718  23.844  18.417  16.253  0.0375  0.1653  0.1703
 1322BOLB   GL331719  23.799  18.541  16.730 -0.0976  0.0183 -0.0954
 1322BOLB   GL431720  23.535  18.583  16.856 -0.4088 -0.0534 -0.1906
 1322BOLB   C1C31721  24.020  18.915  16.941 -0.0923  0.0199  0.4138
 1322BOLB   C2C31722  24.280  19.256  17.149 -0.0286 -0.1660  0.0055
 1322BOLB   C3C31723  24.325  19.600  17.148  0.1565 -0.0882 -0.0805
 1322BOLB   C4C31724  24.322  19.988  17.340 -0.1669  0.0263 -0.2450
 1322BOLB   C1D31725  23.511  19.040  16.897 -0.1737  0.4150 -0.3696
 1322BOLB   C2D31726  23.686  19.363  17.252 -0.0625 -0.3686  0.1065
 1322BOLB   C3D31727  23.928  19.643  17.550  0.1762  0.0967  0.0466
 1322BOLB   C4D31728  23.999  19.979  17.749  0.0435 -0.5218 -0.2596
 1323BOLB   NC131729  23.059  36.287  20.508  0.1760  0.1325 -0.1272
 1323BOLB   PO131730  23.471  36.382  20.565  0.0740 -0.2178 -0.0882
 1323BOLB   GL131731  23.103  36.760  20.442  0.0250  0.0145  0.0443
 1323BOLB   GL231732  23.101  36.805  20.802 -0.2525  0.3984 -0.0198
 1323BOLB   C1A31733  23.025  37.137  20.337  0.0958  0.0933  0.0132
 1323BOLB   C2A31734  22.721  37.248  20.030  0.0303 -0.0520 -0.1384
 1323BOLB   C3A31735  22.432  37.571  19.953 -0.2469 -0.1451  0.1731
 1323BOLB   C4A31736  22.156  37.897  19.844  0.2120  0.2332 -0.1270
 1323BOLB   C1B31737  22.647  36.873  20.943  0.2453 -0.1200  0.1573
 1323BOLB   C2B31738  22.288  37.078  20.991  0.1749 -0.3087  0.1372
 1323BOLB   C3B31739  22.006  37.351  21.235  0.3137  0.0951  0.2757
 1323BOLB   C4B31740  22.032  37.713  21.446  0.3710 -0.0875 -0.3576
 1323BOLB   NC231741  20.963  39.645  19.054  0.1734  0.2467  0.0942
 1323BOLB   PO231742  20.995  39.474  18.632  0.0442  0.2837  0.0871
 1323BOLB   GL331743  21.369  39.295  18.796  0.0943  0.0167 -0.2237
 1323BOLB   GL431744  21.068  39.085  18.915 -0.0216  0.2735  0.1765
 1323BOLB   C1C31745  21.692  39.114  19.075  0.0782 -0.1011 -0.2368
 1323BOLB   C2C31746  21.755  38.966  19.388  0.1530 -0.3050  0.0583
 1323BOLB   C3C31747  21.958  38.714  19.602 -0.0352 -0.0438  0.1841
 1323BOLB   C4C31748  22.029  38.353  19.793 -0.0064  0.0555 -0.1033
 1323BOLB   C1D31749  21.312  38.800  18.744 -0.2064  0.0173 -0.0835
 1323BOLB   C2D31750  21.525  38.459  18.569 -0.0281  0.1012  0.2311
 1323BOLB   C3D31751  21.722  38.076  18.710 -0.0289 -0.1861 -0.3464
 1323BOLB   C4D31752  21.849  37.834  18.995  0.0339 -0.0315  0.4644
 1324BOLB   NC131753  29.879  35.299  16.103  0.0461  0.3660  0.2656
 1324BOLB   PO131754  30.235  35.010  16.135 -0.1063 -0.0983  0.1721
 1324BOLB   GL131755  30.234  35.221  15.676 -0.0672 -0.2578 -0.1276
 1324BOLB   GL231756  29.971  35.409  15.605 -0.0044 -0.1566 -0.1353
 1324BOLB   C1A31757  30.457  35.424  15.273  0.0074 -0.2344 -0.0831
 1324BOLB   C2A31758  30.647  35.725  14.983 -0.4582 -0.1150  0.1256
 1324BOLB   C3A31759  30.515  35.908  14.616  0.3186 -0.0052  0.1119
 1324BOLB   C4A31760  30.547  36.199  14.384  0.0715  0.0312 -0.0807
 1324BOLB   C1B31761  30.014  35.700  15.267 -0.1574  0.0757 -0.0105
 1324BOLB   C2B31762  30.039  35.842  14.826  0.2307  0.0005 -0.0848
 1324BOLB   C3B31763  29.877  36.236  14.614 -0.1591 -0.1184  0.1776
 1324BOLB   C4B31764  30.078  36.528  14.417 -0.0026  0.0103 -0.0976
 1324BOLB   NC231765  31.435  36.799  11.840  0.0547 -0.2908  0.2894
 1324BOLB   PO231766  31.036  36.595  12.014 -0.2120 -0.2228  0.0920
 1324BOLB   GL331767  31.138  36.289  12.382 -0.0281  0.1950 -0.0590
 1324BOLB   GL431768  31.167  35.936  12.362 -0.0157  0.0593  0.0932
 1324BOLB   C1C31769  31.019  36.246  12.759  0.1183  0.1426 -0.1144
 1324BOLB   C2C31770  30.971  36.091  13.224 -0.0466 -0.1771 -0.0788
 1324BOLB   C3C31771  30.643  36.055  13.588 -0.0942  0.1034  0.1006
 1324BOLB   C4C31772  30.510  36.248  13.996 -0.0414 -0.1771 -0.0207
 1324BOLB   C1D31773  30.858  35.759  12.735  0.1722 -0.1873 -0.0629
 1324BOLB   C2D31774  30.558  35.829  13.114  0.3871  0.0086 -0.1650
 1324BOLB   C3D31775  30.385  35.616  13.416  0.1392 -0.4451  0.0063
 1324BOLB   C4D31776  30.392  35.760  13.891  0.1629  0.0360  0.3755
 1325BOLB   NC131777  21.148  20.141  15.616 -0.0528 -0.0128  0.0592
 1325BOLB   PO131778  20.695  20.298  15.724 -0.2514 -0.1866 -0.1778
 1325BOLB   GL131779  21.062  20.237  16.075  0.1069 -0.1257  0.0704
 1325BOLB   GL231780  21.226  19.980  16.240 -0.1074  0.1176 -0.0209
 1325BOLB   C1A31781  21.265  20.417  16.468  0.0480 -0.1483  0.2516
 1325BOLB   C2A31782  21.329  20.851  16.648  0.0468  0.1635 -0.0716
 1325BOLB   C3A31783  21.664  21.162  16.611  0.1044  0.1206 -0.1491
 1325BOLB   C4A31784  21.711  21.489  16.273 -0.0121 -0.3042  0.0300
 1325BOLB   C1B31785  21.015  20.003  16.690 -0.3414 -0.3543 -0.1068
 1325BOLB   C2B31786  21.047  20.265  16.946 -0.0718 -0.0654  0.1194
 1325BOLB   C3B31787  20.938  20.395  17.372  0.1057 -0.4105 -0.0040
 1325BOLB   C4B31788  21.197  20.607  17.609 -0.3519 -0.3335  0.1567
 1325BOLB   NC231789  19.667  21.763  14.528  0.4183  0.1116 -0.3599
 1325BOLB   PO231790  19.803  22.125  14.846  0.0502  0.0444 -0.2061
 1325BOLB   GL331791  19.947  22.009  15.269  0.2979  0.1714 -0.1945
 1325BOLB   GL431792  19.623  22.148  15.439 -0.2154  0.0111  0.2344
 1325BOLB   C1C31793  20.271  21.857  15.469  0.0172  0.2665 -0.0113
 1325BOLB   C2C31794  20.680  21.789  15.650  0.1521  0.0160 -0.0783
 1325BOLB   C3C31795  21.070  21.735  15.897 -0.3692  0.4098  0.1831
 1325BOLB   C4C31796  21.474  21.689  15.997  0.0219  0.1022 -0.2524
 1325BOLB   C1D31797  19.882  22.118  15.836  0.2261  0.1681 -0.2644
 1325BOLB   C2D31798  20.122  21.968  16.158  0.3935 -0.2831 -0.0323
 1325BOLB   C3D31799  20.150  21.785  16.515  0.1037  0.4773 -0.0493
 1325BOLB   C4D31800  20.123  21.423  16.775  0.3689 -0.0926  0.0160
 1326BOLB   NC131801  15.545  30.198   3.760  0.2178 -0.1750  0.4242
 1326BOLB   PO131802  15.617  29.935   3.454 -0.2947  0.1282 -0.0239
 1326BOLB   GL131803  15.992  30.085   3.340 -0.2078 -0.2099 -0.0475
 1326BOLB   GL231804  16.135  29.823   3.204  0.0850 -0.0335  0.0790
 1326BOLB   C1A31805  16.323  30.271   3.012  0.2562  0.1529  0.0540
 1326BOLB   C2A31806  16.662  30.327   2.769  0.2548  0.2966  0.3625
 1326BOLB   C3A31807  16.804  30.054   2.408  0.0489 -0.1381 -0.0241
 1326BOLB   C4A31808  16.868  30.329   1.957 -0.2533 -0.1077 -0.0856
 1326BOLB   C1B31809  16.006  29.538   2.821  0.2125 -0.0652 -0.0910
 1326BOLB   C2B31810  15.948  29.228   2.457 -0.1701 -0.1382  0.3811
 1326BOLB   C3B31811  15.770  28.969   2.241 -0.1419 -0.3184  0.4421
 1326BOLB   C4B31812  15.519  28.872   1.830  0.0007 -0.0076 -0.0625
 1326BOLB   NC231813  16.567  32.276   0.842 -0.0320  0.1092 -0.0752
 1326BOLB   PO231814  16.795  32.385   1.251 -0.0500  0.1945  0.0922
 1326BOLB   GL331815  17.044  32.020   1.134  0.3093  0.3923  0.0564
 1326BOLB   GL431816  17.290  32.092   1.173  0.0774 -0.3957 -0.2900
 1326BOLB   C1C31817  17.166  31.608   1.322  0.0247  0.0897  0.1329
 1326BOLB   C2C31818  17.419  31.244   1.246  0.0046 -0.0112  0.0518
 1326BOLB   C3C31819  17.355  30.825   1.397  0.1743 -0.0523 -0.0531
 1326BOLB   C4C31820  17.086  30.673   1.759 -0.1616 -0.2185  0.0270
 1326BOLB   C1D31821  17.572  31.708   1.087 -0.0840  0.1346  0.0623
 1326BOLB   C2D31822  17.942  31.484   0.912  0.0879  0.1093  0.2722
 1326BOLB   C3D31823  18.288  31.542   0.705 -0.1452  0.1256  0.1363
 1326BOLB   C4D31824  18.617  31.800   0.604 -0.0961  0.1916  0.0866
 1327BOLB   NC131825  32.227  30.736   1.752  0.1571  0.1169  0.3105
 1327BOLB   PO131826  32.554  30.912   1.717 -0.0616 -0.1234  0.2313
 1327BOLB   GL131827  32.863  30.933   2.005  0.3959 -0.0902 -0.1099
 1327BOLB   GL231828  33.182  30.866   1.886 -0.0508 -0.0872 -0.0655
 1327BOLB   C1A31829  33.004  31.175   2.292 -0.0676  0.0054  0.0501
 1327BOLB   C2A31830  33.250  31.135   2.561  0.2127 -0.1186  0.3041
 1327BOLB   C3A31831  33.713  31.308   2.530 -0.0628  0.1468 -0.0833
 1327BOLB   C4A31832  34.110  31.201   2.704 -0.3025  0.1840  0.2928
 1327BOLB   C1B31833  33.528  31.113   2.119 -0.0990 -0.0391  0.0555
 1327BOLB   C2B31834  33.916  31.415   2.078  0.2946 -0.0398  0.0719
 1327BOLB   C3B31835  34.160  31.567   2.288  0.0097 -0.3039  0.3130
 1327BOLB   C4B31836  34.207  31.909   2.394 -0.0298  0.0226  0.1042
 1327BOLB   NC231837  36.600  30.882   3.827  0.0751  0.1483  0.1511
 1327BOLB   PO231838  36.372  30.662   3.514  0.2805 -0.0264  0.0581
 1327BOLB   GL331839  36.023  30.742   3.237  0.0047  0.0106 -0.0675
 1327BOLB   GL431840  35.774  30.465   3.182 -0.1301  0.0723  0.2003
 1327BOLB   C1C31841  35.525  31.014   3.203 -0.4672  0.1055  0.3201
 1327BOLB   C2C31842  35.197  31.199   2.989  0.1109 -0.0273 -0.0245
 1327BOLB   C3C31843  34.898  31.336   2.721  0.4267 -0.1006 -0.1154
 1327BOLB   C4C31844  34.552  31.124   2.640  0.0628  0.4690  0.0121
 1327BOLB   C1D31845  35.555  30.321   2.776  0.0127 -0.1174  0.0631
 1327BOLB   C2D31846  35.263  30.363   2.425  0.1081 -0.0050 -0.0979
 1327BOLB   C3D31847  34.873  30.367   2.140  0.0259 -0.0238 -0.2480
 1327BOLB   C4D31848  34.472  30.275   1.892  0.0933  0.0935 -0.1041
 1328BOLB   NC131849  33.789  25.319  23.191 -0.1036  0.0109 -0.1439
 1328BOLB   PO131850  34.020  24.891  23.079  0.0322  0.1511  0.1607
 1328BOLB   GL131851  34.493  24.652  23.098  0.1527  0.2163  0.1717
 1328BOLB   GL231852  34.615  24.543  23.340 -0.0194 -0.0197 -0.1447
 1328BOLB   C1A31853  34.679  24.126  23.058 -0.0099  0.1371 -0.0196
 1328BOLB   C2A31854  34.916  23.969  23.315 -0.0369  0.0448  0.1133
 1328BOLB   C3A31855  35.309  23.711  23.365  0.0632  0.3852 -0.4575
 1328BOLB   C4A31856  35.262  23.397  23.633 -0.1548  0.0331 -0.0062
 1328BOLB   C1B31857  34.961  24.490  23.687 -0.0237  0.0649  0.2780
 1328BOLB   C2B31858  35.276  24.514  24.042  0.2111  0.0171 -0.3722
 1328BOLB   C3B31859  35.376  24.747  24.382  0.3140 -0.0452  0.0552
 1328BOLB   C4B31860  35.743  24.777  24.595 -0.1081  0.0641 -0.1490
 1328BOLB   NC231861  37.205  21.868  25.410  0.0276 -0.1502  0.0073
 1328BOLB   PO231862  36.948  22.326  25.435  0.0413  0.3348  0.4246
 1328BOLB   GL331863  36.704  22.564  25.123 -0.0312 -0.1395  0.3750
 1328BOLB   GL431864  36.491  22.304  25.039  0.3480  0.2054  0.2616
 1328BOLB   C1C31865  36.350  22.814  24.806 -0.0222 -0.1032  0.4284
 1328BOLB   C2C31866  35.895  22.904  24.615  0.0662 -0.1341 -0.0598
 1328BOLB   C3C31867  35.643  22.968  24.284  0.1418 -0.1877  0.1433
 1328BOLB   C4C31868  35.551  23.186  23.926 -0.0921  0.0134  0.0766
 1328BOLB   C1D31869  36.019  22.389  24.841 -0.0603  0.1794  0.1901
 1328BOLB   C2D31870  35.974  22.345  24.352  0.1276  0.0013 -0.0465
 1328BOLB   C3D31871  35.551  22.142  23.927 -0.1717 -0.0397  0.2421
 1328BOLB   C4D31872  35.541  21.885  23.613  0.3627 -0.3869  0.0715
 1329BOLB   NC131873  32.764  35.304  25.758  0.1822  0.2036 -0.2206
 1329BOLB   PO131874  32.884  35.119  26.087  0.1839 -0.1101  0.0899
 1329BOLB   GL131875  33.005  35.465  26.282 -0.0818 -0.0062 -0.0271
 1329BOLB   GL231876  33.067  35.689  26.054  0.3587 -0.0083  0.2097
 1329BOLB   C1A31877  33.191  35.794  26.576  0.0290 -0.0790 -0.2176
 1329BOLB   C2A31878  33.622  35.762  26.822  0.1929  0.0465 -0.0963
 1329BOLB   C3A31879  33.645  35.894   0.265 -0.0199 -0.0174 -0.2108
 1329BOLB   C4A31880  34.000  36.181   0.496 -0.1710  0.0239 -0.0472
 1329BOLB   C1B31881  32.955  36.122  26.103  0.0066  0.0853 -0.0728
 1329BOLB   C2B31882  33.138  36.484  25.974  0.0312 -0.1031  0.0482
 1329BOLB   C3B31883  33.462  36.679  26.174  0.0631 -0.4200 -0.0813
 1329BOLB   C4B31884  33.777  36.591  26.517 -0.0045 -0.1242 -0.0772
 1329BOLB   NC231885  35.779  37.556  26.861 -0.0072  0.0444  0.2059
 1329BOLB   PO231886  36.016  37.192  26.911 -0.2209  0.3996 -0.3535
 1329BOLB   GL331887  35.700  37.070  26.916 -0.0509 -0.1292 -0.0096
 1329BOLB   GL431888  35.634  36.763   0.065  0.0681 -0.1978  0.0893
 1329BOLB   C1C31889  35.238  37.082   0.104  0.0568  0.0560  0.1223
 1329BOLB   C2C31890  34.879  36.804   0.255  0.1253  0.0596 -0.2569
 1329BOLB   C3C31891  34.647  36.647   0.444  0.0036  0.2174  0.0505
 1329BOLB   C4C31892  34.415  36.222   0.528 -0.1911  0.0238 -0.3039
 1329BOLB   C1D31893  35.190  36.585  26.835  0.0623  0.0076 -0.2036
 1329BOLB   C2D31894  34.702  36.527  26.797 -0.2491 -0.0602  0.0721
 1329BOLB   C3D31895  34.344  36.440   0.081 -0.2363 -0.1750 -0.0515
 1329BOLB   C4D31896  33.951  36.392   0.021  0.1595  0.0433  0.0731
 1330BOLB   NC131897  25.570  34.472   0.798 -0.1725  0.1602 -0.0579
 1330BOLB   PO131898  25.571  34.725   1.224  0.1172 -0.1684 -0.2960
 1330BOLB   GL131899  25.567  35.001   1.632 -0.1572 -0.3203 -0.3468
 1330BOLB   GL231900  25.574  35.367   1.681 -0.0175  0.0474  0.1665
 1330BOLB   C1A31901  25.261  35.106   1.938 -0.0380  0.0708  0.0694
 1330BOLB   C2A31902  24.888  35.272   1.898 -0.1980  0.0151 -0.0657
 1330BOLB   C3A31903  24.866  35.725   2.118  0.1467 -0.1420 -0.0769
 1330BOLB   C4A31904  24.770  36.101   2.108  0.3207 -0.2710 -0.0535
 1330BOLB   C1B31905  25.303  35.592   2.126 -0.1113  0.1118 -0.0504
 1330BOLB   C2B31906  25.178  35.519   2.589  0.2637 -0.0330 -0.1597
 1330BOLB   C3B31907  25.221  35.596   2.934  0.0138 -0.1672 -0.7513
 1330BOLB   C4B31908  25.429  35.674   3.262  0.1933 -0.1896  0.2156
 1330BOLB   NC231909  23.500  38.067   3.828  0.3145  0.1308  0.0450
 1330BOLB   PO231910  23.857  37.864   3.668 -0.1035  0.0078 -0.0665
 1330BOLB   GL331911  23.796  37.539   3.335  0.0910  0.0591  0.2135
 1330BOLB   GL431912  23.560  37.605   3.216  0.0603 -0.4249 -0.0482
 1330BOLB   C1C31913  23.873  37.152   3.179 -0.2080 -0.1250 -0.0310
 1330BOLB   C2C31914  23.980  37.038   2.813  0.0072 -0.0164 -0.1262
 1330BOLB   C3C31915  24.402  36.775   2.702  0.0978  0.1436  0.2633
 1330BOLB   C4C31916  24.580  36.432   2.447 -0.0178 -0.0049 -0.2229
 1330BOLB   C1D31917  23.674  37.417   2.825  0.1907  0.0772  0.0117
 1330BOLB   C2D31918  23.983  37.488   2.467  0.3010 -0.1673 -0.1856
 1330BOLB   C3D31919  24.356  37.322   2.233  0.1891 -0.0895  0.0612
 1330BOLB   C4D31920  24.609  37.012   1.854 -0.1697 -0.4423  0.1449
 1331BOLB   NC131921  33.770  34.776  23.159  0.3465  0.1253  0.1462
 1331BOLB   PO131922  34.122  34.884  22.871  0.0068  0.3336 -0.1603
 1331BOLB   GL131923  34.453  35.083  23.198 -0.4006  0.2402 -0.1389
 1331BOLB   GL231924  34.364  35.435  23.133  0.0697 -0.0191 -0.2523
 1331BOLB   C1A31925  34.825  35.321  23.117 -0.0232  0.0283 -0.2661
 1331BOLB   C2A31926  35.083  35.642  23.303 -0.0036 -0.1241  0.0363
 1331BOLB   C3A31927  35.523  35.679  23.316  0.0782  0.2406  0.0590
 1331BOLB   C4A31928  35.885  35.748  23.512  0.0158 -0.0866  0.1224
 1331BOLB   C1B31929  34.528  35.849  23.324 -0.1583  0.0015  0.3186
 1331BOLB   C2B31930  34.954  36.115  23.210 -0.2778 -0.3596 -0.2181
 1331BOLB   C3B31931  35.303  36.162  23.372 -0.1401  0.2461  0.0497
 1331BOLB   C4B31932  35.696  36.284  23.273  0.2539  0.1249  0.0098
 1331BOLB   NC231933  37.365  36.932  24.604  0.3121  0.2263  0.3213
 1331BOLB   PO231934  37.691  36.740  24.752 -0.1088 -0.3801 -0.2369
 1331BOLB   GL331935  37.498  36.436  24.413 -0.2540 -0.2549  0.1531
 1331BOLB   GL431936  37.279  36.502  24.388  0.0413  0.0515  0.2531
 1331BOLB   C1C31937  37.458  36.111  24.177 -0.0931  0.1501  0.1992
 1331BOLB   C2C31938  37.106  35.952  23.929  0.1904 -0.4679 -0.2000
 1331BOLB   C3C31939  36.723  35.763  23.894  0.0474  0.2330 -0.0375
 1331BOLB   C4C31940  36.264  35.750  23.752 -0.2030 -0.1782 -0.1698
 1331BOLB   C1D31941  37.059  36.463  23.993 -0.3285  0.0760  0.1205
 1331BOLB   C2D31942  36.896  36.766  23.651  0.0899 -0.0111 -0.2982
 1331BOLB   C3D31943  36.507  36.730  23.489 -0.1810  0.0993 -0.0154
 1331BOLB   C4D31944  36.403  36.688  23.066 -0.1168 -0.0932 -0.1246
 1332BOLB   NC131945  19.836  30.668  19.702  0.5352  0.0145 -0.0863
 1332BOLB   PO131946  19.523  30.583  19.510  0.1161  0.1538 -0.1643
 1332BOLB   GL131947  19.095  30.696  19.503 -0.0734  0.1725 -0.3270
 1332BOLB   GL231948  19.151  30.911  19.275 -0.4305  0.0089 -0.0250
 1332BOLB   C1A31949  18.734  30.759  19.591 -0.0257 -0.3569 -0.1909
 1332BOLB   C2A31950  18.327  30.790  19.741  0.0812  0.1985  0.2560
 1332BOLB   C3A31951  17.862  30.932  19.718 -0.1656 -0.1648 -0.0352
 1332BOLB   C4A31952  17.540  30.937  19.540  0.2196 -0.2976 -0.0244
 1332BOLB   C1B31953  18.728  30.824  19.090  0.0377 -0.2614  0.1141
 1332BOLB   C2B31954  18.385  30.558  19.069 -0.1048  0.1451  0.1137
 1332BOLB   C3B31955  17.977  30.450  18.805  0.0012  0.1443  0.1377
 1332BOLB   C4B31956  17.682  30.127  18.723  0.1481 -0.0627  0.0083
 1332BOLB   NC231957  15.526  30.012  18.477  0.1891 -0.2295 -0.0436
 1332BOLB   PO231958  15.488  30.466  18.327 -0.0871 -0.1250  0.2867
 1332BOLB   GL331959  15.856  30.340  18.596 -0.0124 -0.1147 -0.0410
 1332BOLB   GL431960  16.092  30.681  18.670  0.1905 -0.0481  0.1913
 1332BOLB   C1C31961  16.258  30.230  18.866 -0.1731  0.3198 -0.0863
 1332BOLB   C2C31962  16.634  30.278  18.898 -0.0632 -0.2450  0.0539
 1332BOLB   C3C31963  16.973  30.551  18.830 -0.2269 -0.2593 -0.1387
 1332BOLB   C4C31964  17.391  30.814  19.042 -0.3007  0.0638 -0.2012
 1332BOLB   C1D31965  16.551  30.889  18.786 -0.0361  0.3998 -0.0084
 1332BOLB   C2D31966  17.009  31.031  18.660  0.0200  0.0737  0.2318
 1332BOLB   C3D31967  17.334  30.945  18.472  0.2075  0.0695  0.1829
 1332BOLB   C4D31968  17.627  31.289  18.227  0.2036 -0.3357  0.2026
 1333BOLB   NC131969  34.029  29.439  25.975  0.0476 -0.3268 -0.0635
 1333BOLB   PO131970  34.382  29.129  25.812  0.3358 -0.1615 -0.1701
 1333BOLB   GL131971  34.607  28.941  26.151 -0.2708  0.2343  0.1879
 1333BOLB   GL231972  34.647  28.518  25.986  0.3119 -0.2814 -0.0858
 1333BOLB   C1A31973  34.949  28.725  26.353 -0.0748 -0.0672  0.0380
 1333BOLB   C2A31974  35.177  28.703  26.684  0.0333 -0.1138 -0.2020
 1333BOLB   C3A31975  35.414  28.547   0.110 -0.1876  0.2443 -0.0699
 1333BOLB   C4A31976  35.754  28.634   0.270  0.2758 -0.0110  0.0949
 1333BOLB   C1B31977  35.058  28.296  26.069 -0.1829  0.0567  0.2871
 1333BOLB   C2B31978  35.582  28.260  26.135 -0.1882  0.2500 -0.0146
 1333BOLB   C3B31979  35.892  28.197  26.537 -0.0823  0.1141  0.2701
 1333BOLB   C4B31980  36.138  28.332  26.811  0.1818  0.2029  0.1025
 1333BOLB   NC231981  38.046  27.831   0.948  0.0252 -0.2769  0.2131
 1333BOLB   PO231982  38.054  28.293   0.921  0.1801  0.1877 -0.1449
 1333BOLB   GL331983  37.712  28.406   0.967  0.3035  0.2119 -0.2093
 1333BOLB   GL431984  37.497  28.607   0.722 -0.1500 -0.0070  0.1009
 1333BOLB   C1C31985  37.218  28.325   1.088  0.1784 -0.1617 -0.0549
 1333BOLB   C2C31986  36.772  28.283   0.996 -0.0102 -0.1340  0.3138
 1333BOLB   C3C31987  36.498  28.587   0.670  0.0485 -0.0829 -0.0488
 1333BOLB   C4C31988  36.235  28.604   0.344  0.0336  0.0470 -0.0697
 1333BOLB   C1D31989  37.035  28.740   0.776  0.2670  0.3504 -0.2677
 1333BOLB   C2D31990  36.782  28.782   1.137  0.1860  0.2180 -0.1975
 1333BOLB   C3D31991  36.300  28.812   1.184 -0.2973 -0.0129  0.0361
 1333BOLB   C4D31992  35.922  28.940   1.147 -0.2309  0.1002  0.0764
 1334BOLB   NC131993  29.607  24.850   0.635  0.1491  0.2338 -0.0243
 1334BOLB   PO131994  29.488  24.446   0.469 -0.3793 -0.1242  0.0927
 1334BOLB   GL131995  29.545  24.098   0.764 -0.1285 -0.0179 -0.0042
 1334BOLB   GL231996  29.360  24.014   0.890 -0.0953 -0.0458 -0.0535
 1334BOLB   C1A31997  29.789  23.772   0.942  0.0377 -0.1336 -0.0368
 1334BOLB   C2A31998  29.837  23.448   1.180 -0.3017 -0.1827 -0.1879
 1334BOLB   C3A31999  30.045  23.218   1.374 -0.0417  0.1052  0.0618
 1334BOLB   C4A32000  30.371  22.814   1.666  0.0672 -0.2772  0.2180
 1334BOLB   C1B32001  29.125  24.314   1.290  0.1080 -0.1340  0.0139
 1334BOLB   C2B32002  29.422  24.415   1.655  0.1456 -0.1775 -0.1978
 1334BOLB   C3B32003  29.495  24.215   2.035  0.6679 -0.3378  0.0209
 1334BOLB   C4B32004  29.274  23.913   2.288 -0.1363 -0.0351 -0.2706
 1334BOLB   NC232005  31.321  21.650   3.925 -0.0360 -0.2887  0.1458
 1334BOLB   PO232006  31.118  21.464   3.614 -0.0060  0.4070 -0.2716
 1334BOLB   GL332007  31.059  21.514   3.165 -0.1338  0.1334 -0.0553
 1334BOLB   GL432008  30.883  21.819   3.216  0.0366  0.0000 -0.0358
 1334BOLB   C1C32009  31.000  21.834   2.750 -0.0340 -0.0079 -0.1383
 1334BOLB   C2C32010  30.877  22.186   2.546  0.0651  0.0028  0.1169
 1334BOLB   C3C32011  30.653  22.197   2.170  0.0308 -0.2606 -0.1236
 1334BOLB   C4C32012  30.399  22.447   1.855  0.3297  0.1817  0.2172
 1334BOLB   C1D32013  30.635  22.145   2.962 -0.0216 -0.2025  0.0856
 1334BOLB   C2D32014  30.506  22.426   2.620  0.0621 -0.2540  0.0386
 1334BOLB   C3D32015  30.475  22.741   2.281 -0.0468 -0.1443  0.3275
 1334BOLB   C4D32016  30.708  23.149   2.114 -0.3587  0.0023 -0.1033
 1335BOLB   NC132017  34.722  32.309  18.757  0.0922 -0.1853 -0.2226
 1335BOLB   PO132018  35.088  32.241  18.505  0.1585 -0.2244 -0.0545
 1335BOLB   GL132019  35.364  32.369  18.226  0.3721  0.3846  0.1673
 1335BOLB   GL232020  35.618  32.246  18.425 -0.1310  0.1693 -0.3219
 1335BOLB   C1A32021  35.620  32.545  17.999  0.2365 -0.0451 -0.1309
 1335BOLB   C2A32022  35.835  32.939  17.870 -0.1617  0.1290 -0.0093
 1335BOLB   C3A32023  36.187  33.318  17.793  0.2558 -0.0742 -0.2418
 1335BOLB   C4A32024  36.464  33.371  17.348 -0.1618 -0.1187 -0.1063
 1335BOLB   C1B32025  36.037  32.310  18.612  0.0588 -0.1909  0.1790
 1335BOLB   C2B32026  36.534  32.168  18.712 -0.2109  0.0255 -0.0416
 1335BOLB   C3B32027  37.028  32.189  18.950 -0.3061  0.2773  0.2287
 1335BOLB   C4B32028  37.271  31.792  19.006 -0.1353  0.0001  0.1091
 1335BOLB   NC232029  38.156  34.795  16.010 -0.3265 -0.2066  0.0579
 1335BOLB   PO232030  38.034  34.700  16.473  0.0347  0.1048 -0.0876
 1335BOLB   GL332031  37.792  34.462  16.727 -0.0453 -0.2115  0.4680
 1335BOLB   GL432032  37.474  34.435  16.549 -0.2275 -0.0445 -0.2083
 1335BOLB   C1C32033  37.679  34.131  16.920  0.3588 -0.2926 -0.3731
 1335BOLB   C2C32034  37.420  33.797  17.191 -0.2587 -0.0778  0.0055
 1335BOLB   C3C32035  37.124  33.566  17.161  0.1498  0.3889  0.1346
 1335BOLB   C4C32036  36.871  33.259  17.125 -0.2819  0.1370 -0.0006
 1335BOLB   C1D32037  37.290  34.069  16.619  0.1375  0.1093  0.0658
 1335BOLB   C2D32038  36.905  33.971  16.805  0.1387 -0.2854 -0.2679
 1335BOLB   C3D32039  36.480  33.634  16.894 -0.0622  0.0649  0.0944
 1335BOLB   C4D32040  36.119  33.390  16.923 -0.0003 -0.3023 -0.0931
 1336BOLB   NC132041  21.926  35.596  22.242  0.1933 -0.1240 -0.0852
 1336BOLB   PO132042  21.958  35.778  22.609  0.3934 -0.0100  0.4424
 1336BOLB   GL132043  21.762  36.136  22.377  0.3253 -0.4557  0.0828
 1336BOLB   GL232044  21.576  36.074  22.099 -0.2557 -0.1704  0.1334
 1336BOLB   C1A32045  21.743  36.518  22.311 -0.0576 -0.2417 -0.0240
 1336BOLB   C2A32046  21.487  36.821  22.040 -0.0173  0.1132 -0.0674
 1336BOLB   C3A32047  21.018  36.959  21.846 -0.5006  0.2847  0.2686
 1336BOLB   C4A32048  20.707  37.187  21.764 -0.0127  0.2130  0.1123
 1336BOLB   C1B32049  21.322  36.388  21.952 -0.1521  0.2428 -0.1005
 1336BOLB   C2B32050  20.910  36.442  21.627 -0.0428 -0.0881  0.1931
 1336BOLB   C3B32051  20.527  36.738  21.632 -0.1006  0.1758  0.1776
 1336BOLB   C4B32052  20.226  37.066  21.377 -0.0637  0.0732  0.1777
 1336BOLB   NC232053  19.065  38.870  22.069 -0.2471  0.3121 -0.0742
 1336BOLB   PO232054  19.389  38.834  22.235 -0.1775  0.2312  0.2261
 1336BOLB   GL332055  19.571  38.635  21.849 -0.2868 -0.3490  0.0970
 1336BOLB   GL432056  19.331  38.431  21.883 -0.1621 -0.2171  0.0576
 1336BOLB   C1C32057  19.803  38.286  21.730  0.2212  0.2158  0.2911
 1336BOLB   C2C32058  19.901  38.008  21.462 -0.0212 -0.0869 -0.2675
 1336BOLB   C3C32059  20.050  37.674  21.609  0.0983 -0.1883 -0.2214
 1336BOLB   C4C32060  20.306  37.469  21.771 -0.0785 -0.0183  0.1448
 1336BOLB   C1D32061  19.364  38.044  21.715 -0.2070 -0.0231 -0.1714
 1336BOLB   C2D32062  19.559  37.717  21.819 -0.2655  0.2201  0.2089
 1336BOLB   C3D32063  19.529  37.242  21.965 -0.0757 -0.0714  0.1592
 1336BOLB   C4D32064  19.621  36.872  22.187 -0.1533  0.0655  0.0769
 1337BOLB   NC132065  32.025  36.312  19.000  0.2963 -0.0600 -0.0542
 1337BOLB   PO132066  31.636  36.421  18.884 -0.0675  0.4070 -0.0063
 1337BOLB   GL132067  31.886  36.793  18.703  0.3248  0.3083  0.1686
 1337BOLB   GL232068  31.803  37.099  18.857 -0.1245  0.0720  0.2445
 1337BOLB   C1A32069  32.098  37.032  18.448 -0.0849 -0.0601  0.1473
 1337BOLB   C2A32070  32.450  37.343  18.379  0.2520 -0.3469  0.2495
 1337BOLB   C3A32071  32.552  37.631  18.061 -0.1160 -0.0338  0.3890
 1337BOLB   C4A32072  32.887  37.826  17.826 -0.4061 -0.0270 -0.1903
 1337BOLB   C1B32073  31.863  37.566  18.678 -0.0278  0.3763 -0.5168
 1337BOLB   C2B32074  31.988  38.035  18.595  0.2836 -0.0798  0.0506
 1337BOLB   C3B32075  32.020  38.363  18.817  0.1115 -0.0420 -0.1931
 1337BOLB   C4B32076  32.088  38.763  18.937 -0.1112  0.0492  0.1689
 1337BOLB   NC232077  34.900  39.609  17.046 -0.1580 -0.1106 -0.1137
 1337BOLB   PO232078  34.597  39.453  17.387  0.2057 -0.2898  0.1517
 1337BOLB   GL332079  34.333  39.119  17.625  0.4347  0.0333 -0.0361
 1337BOLB   GL432080  34.204  39.127  17.944 -0.0911  0.2051  0.5530
 1337BOLB   C1C32081  33.947  38.760  17.633  0.1588  0.3482 -0.0914
 1337BOLB   C2C32082  33.562  38.566  17.672 -0.0531  0.0240  0.1941
 1337BOLB   C3C32083  33.289  38.323  17.563  0.1145 -0.1896  0.1310
 1337BOLB   C4C32084  33.179  38.027  17.646  0.1124 -0.0025  0.1363
 1337BOLB   C1D32085  33.627  38.997  18.006  0.3877 -0.2050  0.1554
 1337BOLB   C2D32086  33.213  38.928  17.871 -0.0106 -0.1063 -0.1986
 1337BOLB   C3D32087  32.919  38.415  17.919  0.1720  0.0954  0.2918
 1337BOLB   C4D32088  32.785  38.312  18.375  0.1879 -0.0347  0.1777
 1338BOLB   NC132089  37.384  33.280   1.619 -0.1145  0.1318  0.0966
 1338BOLB   PO132090  37.212  33.356   1.137  0.0849 -0.1708  0.2173
 1338BOLB   GL132091  37.090  33.230   0.772  0.0324 -0.0117  0.2262
 1338BOLB   GL232092  36.925  33.484   0.695 -0.0587  0.3505  0.0566
 1338BOLB   C1A32093  37.103  32.962   0.388  0.5303  0.1959  0.0289
 1338BOLB   C2A32094  36.817  32.674   0.048 -0.1028  0.0149  0.3620
 1338BOLB   C3A32095  36.843  32.301  26.683  0.2068  0.3252  0.1340
 1338BOLB   C4A32096  36.642  31.938  26.617 -0.0808 -0.0425  0.0319
 1338BOLB   C1B32097  36.413  33.512   0.636 -0.5038 -0.2212  0.2257
 1338BOLB   C2B32098  36.079  33.697   0.842  0.1440 -0.1110  0.0886
 1338BOLB   C3B32099  35.713  33.719   1.127  0.0761  0.3258 -0.1536
 1338BOLB   C4B32100  35.297  33.662   0.965  0.2840  0.1536  0.1154
 1338BOLB   NC232101  38.648  32.504   1.007 -0.0155 -0.0205  0.0380
 1338BOLB   PO232102  38.281  32.306   0.867  0.1138 -0.1275  0.0525
 1338BOLB   GL332103  37.975  31.978   0.770 -0.2204  0.2595 -0.4655
 1338BOLB   GL432104  38.057  31.627   0.934 -0.2092 -0.2352  0.1110
 1338BOLB   C1C32105  37.553  31.774   0.738 -0.2505  0.1835 -0.0844
 1338BOLB   C2C32106  37.128  31.508   0.649  0.1038  0.0615 -0.1751
 1338BOLB   C3C32107  36.876  31.434   0.344 -0.0477 -0.2093 -0.0082
 1338BOLB   C4C32108  36.792  31.466  26.843 -0.2706 -0.3423  0.3604
 1338BOLB   C1D32109  37.760  31.357   0.831  0.1993  0.0989 -0.2124
 1338BOLB   C2D32110  37.511  31.178   0.549 -0.5071 -0.2203 -0.1600
 1338BOLB   C3D32111  37.625  31.145   0.174 -0.2339 -0.1811 -0.3658
 1338BOLB   C4D32112  37.504  30.912  26.775  0.0235 -0.1133 -0.3090
 1339BOLB   NC132113  22.842  33.000  15.778 -0.1165  0.0030 -0.0073
 1339BOLB   PO132114  22.353  32.744  15.877  0.3899  0.2055  0.0087
 1339BOLB   GL132115  22.159  33.011  15.536  0.1837  0.1921  0.2625
 1339BOLB   GL232116  22.283  33.287  15.613  0.4626 -0.2479  0.2077
 1339BOLB   C1A32117  22.042  33.176  15.155 -0.2537 -0.1637 -0.0927
 1339BOLB   C2A32118  21.942  33.173  14.772 -0.0519 -0.0190 -0.1718
 1339BOLB   C3A32119  21.860  33.401  14.471 -0.0554 -0.0684  0.3454
 1339BOLB   C4A32120  21.824  33.564  14.099 -0.2008 -0.0844  0.1564
 1339BOLB   C1B32121  22.085  33.646  15.422  0.0795 -0.1317  0.1094
 1339BOLB   C2B32122  21.882  33.874  15.561  0.1807  0.1367  0.1376
 1339BOLB   C3B32123  21.591  34.123  15.342 -0.1566 -0.0827 -0.0818
 1339BOLB   C4B32124  21.440  34.281  14.958 -0.0413 -0.1333  0.1623
 1339BOLB   NC232125  20.484  33.146  12.213 -0.2231 -0.2725 -0.1488
 1339BOLB   PO232126  20.597  33.555  12.142 -0.0851  0.4354 -0.2166
 1339BOLB   GL332127  20.868  33.695  12.456  0.2328  0.1814 -0.1443
 1339BOLB   GL432128  20.748  33.736  12.755  0.2210  0.1866 -0.1622
 1339BOLB   C1C32129  21.135  33.455  12.771  0.1440 -0.1743  0.1077
 1339BOLB   C2C32130  21.353  33.204  12.931 -0.0104 -0.0229  0.0140
 1339BOLB   C3C32131  21.534  33.116  13.359  0.0229  0.1742  0.4422
 1339BOLB   C4C32132  21.842  33.311  13.690  0.1131 -0.1224  0.1012
 1339BOLB   C1D32133  20.801  33.894  13.240  0.2009  0.1523 -0.0395
 1339BOLB   C2D32134  21.110  33.906  13.633 -0.1537 -0.0350  0.1581
 1339BOLB   C3D32135  21.465  33.650  13.739  0.0936 -0.1174 -0.1730
 1339BOLB   C4D32136  21.379  33.183  13.845 -0.0711  0.1071  0.1370
 1340BOLB   NC132137  27.121  32.971   2.384 -0.2125 -0.2667  0.3935
 1340BOLB   PO132138  26.604  32.931   2.385  0.1265 -0.3910  0.2214
 1340BOLB   GL132139  26.779  33.176   2.799 -0.0671  0.0149 -0.1525
 1340BOLB   GL232140  27.068  33.239   2.813 -0.2152 -0.2883 -0.1306
 1340BOLB   C1A32141  26.762  33.449   3.078 -0.0566 -0.2163 -0.2394
 1340BOLB   C2A32142  26.929  33.462   3.479 -0.0409  0.3059 -0.2344
 1340BOLB   C3A32143  26.902  33.536   3.929 -0.0156 -0.1542 -0.0727
 1340BOLB   C4A32144  26.696  33.468   4.297 -0.2632  0.2320  0.2847
 1340BOLB   C1B32145  27.310  33.332   3.146 -0.0786  0.2793  0.0415
 1340BOLB   C2B32146  27.664  33.498   3.221 -0.3059 -0.0608  0.3005
 1340BOLB   C3B32147  27.806  33.389   3.651  0.3230 -0.0664  0.0651
 1340BOLB   C4B32148  28.063  33.275   4.020  0.0729  0.3308 -0.0599
 1340BOLB   NC232149  25.849  33.576   7.011  0.0580 -0.2029  0.2900
 1340BOLB   PO232150  26.099  33.441   6.623  0.7211  0.3139  0.0370
 1340BOLB   GL332151  26.017  33.480   6.159  0.1859  0.1177  0.1942
 1340BOLB   GL432152  26.246  33.336   6.081 -0.0377 -0.2775  0.0072
 1340BOLB   C1C32153  26.152  33.754   5.720 -0.0072  0.0985 -0.1892
 1340BOLB   C2C32154  25.989  33.609   5.349 -0.0154  0.0125  0.2430
 1340BOLB   C3C32155  26.177  33.689   4.875 -0.1369 -0.0507 -0.0257
 1340BOLB   C4C32156  26.364  33.682   4.476 -0.0097  0.0664 -0.2022
 1340BOLB   C1D32157  26.190  33.174   5.690  0.0020  0.2251 -0.2019
 1340BOLB   C2D32158  26.111  33.027   5.311 -0.1815  0.0613 -0.0996
 1340BOLB   C3D32159  26.025  32.971   4.849 -0.2006  0.0644 -0.2049
 1340BOLB   C4D32160  25.830  32.758   4.464  0.0533  0.0924 -0.1402
 1341BOLB   NC132161  26.330  25.717  15.413 -0.0257 -0.0464 -0.1921
 1341BOLB   PO132162  25.882  25.563  15.536 -0.0881  0.1508 -0.1482
 1341BOLB   GL132163  26.171  25.358  15.082  0.1179 -0.1646 -0.2040
 1341BOLB   GL232164  26.030  25.336  14.737 -0.4188  0.0759 -0.1874
 1341BOLB   C1A32165  26.391  25.025  14.759 -0.4248  0.1200  0.1725
 1341BOLB   C2A32166  26.291  24.765  14.409 -0.0043  0.4859 -0.1793
 1341BOLB   C3A32167  26.385  24.428  14.166 -0.2647  0.0699  0.3985
 1341BOLB   C4A32168  26.515  24.292  13.752  0.1735  0.2247  0.1027
 1341BOLB   C1B32169  25.938  25.080  14.485  0.0564  0.0083 -0.1798
 1341BOLB   C2B32170  25.685  24.796  14.221 -0.0420  0.0487  0.0143
 1341BOLB   C3B32171  25.678  24.948  13.787  0.1359 -0.0953  0.0102
 1341BOLB   C4B32172  25.491  24.998  13.411  0.0348  0.1407  0.2426
 1341BOLB   NC232173  26.546  22.358  11.954 -0.2330 -0.0649 -0.2525
 1341BOLB   PO232174  26.525  22.862  11.936 -0.1398 -0.0460 -0.1730
 1341BOLB   GL332175  26.560  23.307  12.053  0.0444 -0.1359  0.0405
 1341BOLB   GL432176  26.707  23.208  12.275 -0.1376  0.0456 -0.0970
 1341BOLB   C1C32177  26.340  23.527  12.334  0.0703  0.0817  0.0471
 1341BOLB   C2C32178  26.393  23.856  12.664  0.2589 -0.1490  0.0352
 1341BOLB   C3C32179  26.561  24.031  12.933  0.0742 -0.2983  0.0231
 1341BOLB   C4C32180  26.520  24.002  13.355  0.1221  0.0074  0.0199
 1341BOLB   C1D32181  26.800  23.384  12.607  0.4310  0.0341 -0.0165
 1341BOLB   C2D32182  26.642  23.545  13.021 -0.2172  0.0073 -0.3187
 1341BOLB   C3D32183  26.780  23.597  13.421 -0.0433  0.1355 -0.1609
 1341BOLB   C4D32184  27.082  23.619  13.801 -0.2349  0.1992 -0.3176
 1342BOLB   NC132185  20.432  30.127   7.810  0.1160 -0.0065 -0.1871
 1342BOLB   PO132186  20.311  29.856   7.397 -0.1709  0.0049 -0.0335
 1342BOLB   GL132187  20.595  29.595   7.085  0.1524 -0.1472 -0.0688
 1342BOLB   GL232188  20.400  29.361   7.008  0.0826  0.1120  0.1476
 1342BOLB   C1A32189  20.929  29.548   6.984  0.0735 -0.0584  0.0047
 1342BOLB   C2A32190  20.997  29.610   6.542  0.2985 -0.1247  0.1029
 1342BOLB   C3A32191  21.094  29.602   6.172  0.0158  0.0177 -0.0456
 1342BOLB   C4A32192  21.301  29.827   5.911  0.2382 -0.3914 -0.1872
 1342BOLB   C1B32193  20.612  29.234   6.592 -0.2268  0.1966  0.1579
 1342BOLB   C2B32194  20.857  29.145   6.324  0.1009 -0.1232  0.3043
 1342BOLB   C3B32195  21.145  29.098   6.082  0.2241  0.1658 -0.1217
 1342BOLB   C4B32196  21.447  29.365   5.863  0.0128  0.0740  0.1580
 1342BOLB   NC232197  23.487  30.741   7.003 -0.0943  0.1289  0.1656
 1342BOLB   PO232198  23.112  30.758   6.999 -0.2583  0.0470 -0.1409
 1342BOLB   GL332199  22.988  30.657   6.663 -0.2034 -0.0966  0.3659
 1342BOLB   GL432200  22.903  30.816   6.469  0.0572 -0.0949 -0.0874
 1342BOLB   C1C32201  22.566  30.420   6.370  0.0274  0.3010  0.0009
 1342BOLB   C2C32202  22.118  30.517   6.216  0.0858  0.0966 -0.3175
 1342BOLB   C3C32203  21.718  30.473   5.865 -0.2634  0.1136  0.1246
 1342BOLB   C4C32204  21.399  30.265   5.714 -0.0804 -0.1507 -0.0522
 1342BOLB   C1D32205  22.955  30.412   6.156  0.1401  0.0312  0.0265
 1342BOLB   C2D32206  22.856  30.330   5.842  0.1675 -0.2888  0.2790
 1342BOLB   C3D32207  22.634  30.279   5.464  0.2961  0.2559 -0.0694
 1342BOLB   C4D32208  22.352  30.254   5.224 -0.0697  0.1064 -0.3628
 1343BOLB   NC132209  35.852  31.040  19.983  0.1180 -0.1228 -0.0168
 1343BOLB   PO132210  35.753  31.224  20.449 -0.0550 -0.5739 -0.0324
 1343BOLB   GL132211  36.158  31.421  20.466 -0.1466 -0.1491  0.1936
 1343BOLB   GL232212  36.123  31.731  20.390 -0.0663  0.0965  0.1351
 1343BOLB   C1A32213  36.659  31.378  20.579  0.1786  0.2961 -0.3320
 1343BOLB   C2A32214  37.087  31.174  20.359  0.0423 -0.0192  0.2477
 1343BOLB   C3A32215  37.507  31.262  20.299  0.0510 -0.0308 -0.0831
 1343BOLB   C4A32216  37.823  31.534  20.467 -0.1529 -0.1686  0.0130
 1343BOLB   C1B32217  36.424  31.924  20.260  0.3344  0.1015  0.0180
 1343BOLB   C2B32218  36.679  32.234  20.220  0.0498  0.0718  0.0694
 1343BOLB   C3B32219  36.995  32.417  20.270  0.0145 -0.1586 -0.0333
 1343BOLB   C4B32220  37.377  32.446  20.456  0.0251 -0.0649 -0.0069
 1343BOLB   NC232221  39.880  32.362  21.151 -0.0198 -0.0717 -0.1259
 1343BOLB   PO232222  40.084  31.965  21.217  0.3969  0.0451 -0.1841
 1343BOLB   GL332223  39.679  31.734  21.169 -0.3052 -0.2086  0.1541
 1343BOLB   GL432224  39.678  31.902  21.429 -0.0393  0.0018 -0.0142
 1343BOLB   C1C32225  39.263  31.695  20.972 -0.1859  0.2718  0.0391
 1343BOLB   C2C32226  38.942  31.812  20.725 -0.0319  0.2492 -0.0624
 1343BOLB   C3C32227  38.571  31.844  20.576  0.1111  0.1591  0.1614
 1343BOLB   C4C32228  38.242  31.709  20.306  0.0616  0.0099  0.0161
 1343BOLB   C1D32229  39.273  32.046  21.348 -0.5336  0.0863 -0.1582
 1343BOLB   C2D32230  38.876  32.106  21.541  0.0483 -0.1185 -0.1859
 1343BOLB   C3D32231  38.481  31.823  21.574 -0.1713  0.0402 -0.1836
 1343BOLB   C4D32232  38.294  31.622  21.325  0.3864  0.2721 -0.1599
 1344BOLB   NC132233  29.839  30.045  14.259  0.0596  0.0968  0.2893
 1344BOLB   PO132234  29.824  29.667  13.984  0.2630  0.2499 -0.1896
 1344BOLB   GL132235  30.028  29.429  13.648 -0.1604  0.2219  0.1965
 1344BOLB   GL232236  30.263  29.481  13.743  0.1186 -0.0945  0.1573
 1344BOLB   C1A32237  30.360  29.158  13.382  0.3298 -0.4616 -0.1366
 1344BOLB   C2A32238  30.625  29.352  13.088  0.0375  0.1357  0.1763
 1344BOLB   C3A32239  30.995  29.487  12.784 -0.1391 -0.3373 -0.0516
 1344BOLB   C4A32240  31.141  29.526  12.403 -0.1332  0.3559  0.4053
 1344BOLB   C1B32241  30.326  29.670  13.287 -0.0070  0.1366  0.1766
 1344BOLB   C2B32242  30.223  29.984  12.974  0.4021 -0.1175 -0.0866
 1344BOLB   C3B32243  30.373  30.409  13.072 -0.3058  0.2715 -0.0915
 1344BOLB   C4B32244  30.255  30.737  13.356  0.1652 -0.3249  0.2769
 1344BOLB   NC232245  32.177  29.294  10.164  0.2309 -0.1609 -0.2949
 1344BOLB   PO232246  31.711  29.346  10.203 -0.0777  0.1291  0.0306
 1344BOLB   GL332247  31.606  29.142  10.594 -0.0028 -0.1246  0.0606
 1344BOLB   GL432248  31.981  29.018  10.680 -0.1294 -0.5120 -0.2227
 1344BOLB   C1C32249  31.422  29.163  10.979 -0.0617 -0.1294  0.3115
 1344BOLB   C2C32250  31.430  29.087  11.321 -0.2818  0.1229 -0.0094
 1344BOLB   C3C32251  31.433  29.219  11.715  0.0309 -0.2986  0.0814
 1344BOLB   C4C32252  31.330  29.365  12.038  0.2506  0.2652 -0.0848
 1344BOLB   C1D32253  31.915  29.279  11.074 -0.0009  0.1417 -0.1281
 1344BOLB   C2D32254  32.121  29.321  11.524 -0.0823  0.5379 -0.4122
 1344BOLB   C3D32255  32.161  29.329  11.986 -0.2418 -0.0862  0.2422
 1344BOLB   C4D32256  32.289  29.540  12.217 -0.2680 -0.0462 -0.1577
 1345BOLB   NC132257  21.655  32.095  17.275  0.0696  0.0483  0.3090
 1345BOLB   PO132258  21.357  32.384  17.445  0.5092  0.0351 -0.0875
 1345BOLB   GL132259  21.070  32.648  17.306  0.1960  0.2058  0.2219
 1345BOLB   GL232260  21.166  32.677  16.901 -0.2058 -0.4603  0.0604
 1345BOLB   C1A32261  20.664  32.661  17.140  0.1244  0.0663  0.1118
 1345BOLB   C2A32262  20.379  32.868  16.921 -0.1654  0.2856  0.1178
 1345BOLB   C3A32263  20.107  32.968  16.565  0.2042 -0.0370  0.0775
 1345BOLB   C4A32264  19.827  32.829  16.229 -0.3050  0.1226  0.3210
 1345BOLB   C1B32265  21.103  32.877  16.482 -0.1815  0.0864 -0.2958
 1345BOLB   C2B32266  20.870  33.010  16.027  0.1058  0.1900 -0.2432
 1345BOLB   C3B32267  20.507  32.992  15.687  0.1477  0.0506  0.0728
 1345BOLB   C4B32268  20.196  33.315  15.451  0.1443 -0.0581 -0.0922
 1345BOLB   NC232269  18.222  35.026  14.961 -0.0430  0.0616  0.4194
 1345BOLB   PO232270  18.468  34.685  14.880  0.1134  0.0359 -0.0368
 1345BOLB   GL332271  18.660  34.385  15.157 -0.1381 -0.0138 -0.3021
 1345BOLB   GL432272  18.959  34.349  15.055  0.2164 -0.3167 -0.0654
 1345BOLB   C1C32273  18.799  34.039  15.490 -0.1587  0.1256 -0.1453
 1345BOLB   C2C32274  19.049  33.728  15.708 -0.1878 -0.0790 -0.2106
 1345BOLB   C3C32275  19.164  33.276  15.739  0.0137 -0.1210  0.1720
 1345BOLB   C4C32276  19.431  32.979  15.982 -0.0829 -0.0536  0.0379
 1345BOLB   C1D32277  18.964  34.663  15.435 -0.4038  0.4185  0.1080
 1345BOLB   C2D32278  19.226  34.524  15.769  0.1275  0.0794  0.1118
 1345BOLB   C3D32279  19.612  34.453  15.894 -0.0925  0.0249  0.0002
 1345BOLB   C4D32280  19.971  34.369  16.046  0.2081  0.0835  0.0708
 1346BOLB   NC132281  25.937  22.361  17.969 -0.0057  0.2506  0.2117
 1346BOLB   PO132282  26.178  22.126  18.240  0.1871  0.2391  0.2132
 1346BOLB   GL132283  25.861  21.824  18.025 -0.1786  0.2609 -0.1175
 1346BOLB   GL232284  25.685  21.964  17.738 -0.3015  0.1207  0.0850
 1346BOLB   C1A32285  25.639  21.519  17.794  0.1675 -0.3349  0.1062
 1346BOLB   C2A32286  25.416  21.132  17.573  0.0027  0.1394 -0.1699
 1346BOLB   C3A32287  25.110  20.922  17.319  0.2126  0.0945 -0.2378
 1346BOLB   C4A32288  25.266  20.910  16.786 -0.1576 -0.1960  0.0041
 1346BOLB   C1B32289  25.305  21.841  17.597 -0.1881 -0.1666  0.0025
 1346BOLB   C2B32290  25.154  21.677  17.268 -0.2501 -0.1127 -0.1783
 1346BOLB   C3B32291  24.978  21.316  16.942  0.4016  0.3963 -0.2586
 1346BOLB   C4B32292  24.731  20.949  16.956 -0.0270 -0.0863  0.0235
 1346BOLB   NC232293  25.090  19.009  15.148 -0.1319  0.1791  0.0814
 1346BOLB   PO232294  25.141  19.196  15.555  0.0573  0.2203 -0.1874
 1346BOLB   GL332295  25.048  19.297  15.888 -0.4843 -0.2047  0.1598
 1346BOLB   GL432296  24.833  19.124  15.968 -0.1259 -0.1812  0.0389
 1346BOLB   C1C32297  25.159  19.459  16.211 -0.2064 -0.0183  0.2635
 1346BOLB   C2C32298  25.018  19.793  16.385 -0.0828  0.0306  0.2223
 1346BOLB   C3C32299  25.222  20.232  16.387 -0.0262 -0.6412  0.1993
 1346BOLB   C4C32300  25.279  20.629  16.509 -0.3374  0.1159  0.0382
 1346BOLB   C1D32301  24.788  19.232  16.413 -0.4700 -0.0613  0.0200
 1346BOLB   C2D32302  24.861  19.486  16.742  0.0408 -0.4082  0.1157
 1346BOLB   C3D32303  24.795  19.928  16.913 -0.3493  0.1399 -0.0965
 1346BOLB   C4D32304  24.626  20.283  17.057 -0.2199 -0.3200  0.1037
 1347BOLB   NC132305  31.855  26.268   1.171  0.1056  0.2854 -0.4195
 1347BOLB   PO132306  32.131  26.098   0.826  0.3294 -0.0014 -0.0751
 1347BOLB   GL132307  32.245  25.992   1.199  0.0683 -0.0753 -0.0312
 1347BOLB   GL232308  32.366  25.761   1.078 -0.1743  0.3533 -0.2850
 1347BOLB   C1A32309  32.245  25.909   1.645 -0.2924  0.2738  0.2601
 1347BOLB   C2A32310  32.284  25.633   2.001 -0.0127 -0.1299  0.2050
 1347BOLB   C3A32311  32.243  25.526   2.473 -0.1033  0.0268 -0.1956
 1347BOLB   C4A32312  32.265  25.238   2.819  0.4271  0.2443  0.1303
 1347BOLB   C1B32313  32.086  25.569   1.352  0.2317  0.1558  0.1543
 1347BOLB   C2B32314  32.241  25.305   1.649  0.1001  0.0516 -0.3054
 1347BOLB   C3B32315  32.426  25.174   2.004 -0.0924  0.3060  0.0494
 1347BOLB   C4B32316  32.400  25.069   2.362 -0.2523 -0.0628 -0.0489
 1347BOLB   NC232317  33.582  25.511   4.423 -0.0510 -0.2345 -0.3336
 1347BOLB   PO232318  33.259  25.615   4.677  0.0732 -0.1586 -0.1617
 1347BOLB   GL332319  32.925  25.837   4.521 -0.2528  0.0454 -0.0065
 1347BOLB   GL432320  32.721  26.104   4.595  0.1553  0.0462  0.0218
 1347BOLB   C1C32321  32.918  25.792   4.049  0.0230 -0.1227  0.1220
 1347BOLB   C2C32322  32.720  25.586   3.725 -0.1718  0.1351 -0.3419
 1347BOLB   C3C32323  32.601  25.300   3.486  0.3479  0.0760  0.1139
 1347BOLB   C4C32324  32.374  25.072   3.125  0.1930 -0.1333  0.2974
 1347BOLB   C1D32325  32.350  26.365   4.318  0.0226 -0.0830  0.2165
 1347BOLB   C2D32326  32.106  26.800   4.276  0.0754  0.0441 -0.1467
 1347BOLB   C3D32327  31.704  26.908   4.542 -0.2134 -0.0059 -0.5350
 1347BOLB   C4D32328  31.284  26.883   4.666  0.0674 -0.0290  0.2581
 1348BOLB   NC132329  34.780  31.960  25.571  0.2308  0.0313 -0.1197
 1348BOLB   PO132330  34.739  31.986  26.018  0.3358 -0.2049  0.0545
 1348BOLB   GL132331  34.966  32.386  26.019  0.1603 -0.3081 -0.2293
 1348BOLB   GL232332  34.915  32.437  25.722  0.0809  0.0232 -0.1384
 1348BOLB   C1A32333  35.374  32.554  26.170  0.0828  0.1937  0.2049
 1348BOLB   C2A32334  35.671  32.488  26.528  0.1584 -0.1268 -0.0239
 1348BOLB   C3A32335  35.830  32.643   0.030 -0.0815 -0.2326  0.0889
 1348BOLB   C4A32336  35.909  32.911   0.330  0.2104  0.2869  0.3011
 1348BOLB   C1B32337  35.415  32.422  25.697  0.5161  0.2481  0.2153
 1348BOLB   C2B32338  35.742  32.237  25.887 -0.1328  0.0189 -0.0604
 1348BOLB   C3B32339  36.188  32.337  25.955  0.0183 -0.1409  0.3138
 1348BOLB   C4B32340  36.601  32.236  25.788  0.1860 -0.1824 -0.0040
 1348BOLB   NC232341  37.917  33.329   0.491 -0.1099 -0.4474  0.1831
 1348BOLB   PO232342  37.764  33.266   0.965 -0.0175  0.0716  0.0363
 1348BOLB   GL332343  37.494  32.989   0.755 -0.0274 -0.0379  0.1653
 1348BOLB   GL432344  37.418  32.889   1.004  0.0468  0.0023 -0.0649
 1348BOLB   C1C32345  37.342  32.568   0.643 -0.0120  0.3365  0.0786
 1348BOLB   C2C32346  36.890  32.750   0.815  0.2753 -0.1087  0.1017
 1348BOLB   C3C32347  36.650  32.997   0.606  0.1136  0.0172  0.0130
 1348BOLB   C4C32348  36.235  33.138   0.323 -0.0847  0.2124  0.0799
 1348BOLB   C1D32349  37.219  32.481   1.117 -0.1372 -0.2015 -0.0658
 1348BOLB   C2D32350  36.812  32.311   1.012 -0.0512  0.0773 -0.1409
 1348BOLB   C3D32351  36.389  32.270   0.908  0.0071 -0.0716  0.0141
 1348BOLB   C4D32352  35.916  32.219   0.947 -0.2443  0.4267  0.0302
 1349BOLB   NC132353  26.260  37.089  24.278 -0.0084 -0.1310  0.0321
 1349BOLB   PO132354  26.087  37.419  24.370  0.0682 -0.0405 -0.4011
 1349BOLB   GL132355  25.816  37.629  24.395 -0.3761  0.0541  0.1200
 1349BOLB   GL232356  25.925  37.982  24.526  0.0435  0.1860  0.2013
 1349BOLB   C1A32357  25.481  37.964  24.221 -0.1323 -0.0463 -0.0848
 1349BOLB   C2A32358  25.300  38.356  24.179 -0.2478 -0.2666 -0.0931
 1349BOLB   C3A32359  25.420  38.755  24.317 -0.3039 -0.0859 -0.0830
 1349BOLB   C4A32360  25.387  39.133  24.382  0.3600 -0.0236  0.2764
 1349BOLB   C1B32361  25.913  38.065  24.918  0.0391 -0.0952  0.2433
 1349BOLB   C2B32362  25.839  38.333  25.211 -0.3251 -0.0782 -0.0598
 1349BOLB   C3B32363  25.581  38.549  25.363 -0.2431  0.0486 -0.0082
 1349BOLB   C4B32364  25.441  38.828  25.723 -0.2214  0.1040 -0.2018
 1349BOLB   NC232365  24.338  41.530  24.599  0.2999  0.2416 -0.0992
 1349BOLB   PO232366  24.312  41.082  24.790  0.2136  0.3125  0.2305
 1349BOLB   GL332367  24.621  41.066  24.545  0.1822  0.2832  0.0926
 1349BOLB   GL432368  24.515  40.763  24.329  0.0749 -0.0382 -0.0177
 1349BOLB   C1C32369  25.007  40.813  24.312  0.0577 -0.0911  0.1213
 1349BOLB   C2C32370  25.202  40.393  24.180  0.0273 -0.0322  0.2933
 1349BOLB   C3C32371  25.405  40.055  24.200  0.1113  0.0259 -0.1944
 1349BOLB   C4C32372  25.414  39.631  24.437  0.0042 -0.2648 -0.1936
 1349BOLB   C1D32373  24.399  40.389  24.442  0.0017  0.1132 -0.1532
 1349BOLB   C2D32374  24.345  40.020  24.462 -0.0742 -0.0925  0.2345
 1349BOLB   C3D32375  24.490  39.720  24.530 -0.4135  0.1375 -0.1242
 1349BOLB   C4D32376  24.917  39.530  24.726  0.1645 -0.2016 -0.2925
 1350BOLB   NC132377  33.151  27.868  16.508 -0.2082  0.1195 -0.1305
 1350BOLB   PO132378  33.575  27.703  16.347  0.3418 -0.2950  0.0404
 1350BOLB   GL132379  33.974  27.570  16.140  0.0271 -0.0570 -0.1366
 1350BOLB   GL232380  33.840  27.253  16.063 -0.2681  0.0696 -0.0581
 1350BOLB   C1A32381  34.338  27.351  16.134 -0.3180 -0.2076  0.1554
 1350BOLB   C2A32382  34.554  27.088  15.954  0.1998  0.2920  0.0580
 1350BOLB   C3A32383  34.750  26.764  15.644 -0.1138 -0.0297 -0.0210
 1350BOLB   C4A32384  35.016  26.495  15.346  0.3190  0.3921 -0.0530
 1350BOLB   C1B32385  34.211  27.342  15.681 -0.0207  0.1627  0.2470
 1350BOLB   C2B32386  34.372  27.578  15.430  0.0426 -0.0161  0.1772
 1350BOLB   C3B32387  34.719  27.545  15.130  0.1830  0.0985 -0.0383
 1350BOLB   C4B32388  34.985  27.362  14.769 -0.2153  0.1734  0.2261
 1350BOLB   NC232389  37.437  26.059  15.246 -0.1514 -0.2925 -0.2742
 1350BOLB   PO232390  37.611  26.420  15.143  0.1544 -0.1531 -0.0583
 1350BOLB   GL332391  37.169  26.530  15.417 -0.1799 -0.0583 -0.0080
 1350BOLB   GL432392  37.233  26.778  15.623  0.2072 -0.2218  0.0496
 1350BOLB   C1C32393  36.676  26.502  15.518  0.0414  0.0901  0.0404
 1350BOLB   C2C32394  36.311  26.419  15.522  0.0656 -0.1793 -0.0952
 1350BOLB   C3C32395  35.889  26.473  15.273  0.2432  0.0744  0.3613
 1350BOLB   C4C32396  35.459  26.275  15.359 -0.0037 -0.1064  0.1973
 1350BOLB   C1D32397  36.875  26.867  15.768  0.1134  0.3627  0.0938
 1350BOLB   C2D32398  36.679  27.164  16.068  0.0726 -0.2734 -0.1477
 1350BOLB   C3D32399  36.599  27.121  16.541 -0.0703 -0.1207  0.3983
 1350BOLB   C4D32400  36.312  26.858  16.597  0.0985 -0.0359  0.0532
 1351BOLB   NC132401  32.311  38.958  14.561  0.3470 -0.0422  0.0361
 1351BOLB   PO132402  32.556  38.602  14.677  0.1186 -0.0888  0.0349
 1351BOLB   GL132403  32.342  38.387  14.864 -0.3560 -0.0012 -0.1606
 1351BOLB   GL232404  32.145  38.595  15.070 -0.1121 -0.1617 -0.0221
 1351BOLB   C1A32405  32.245  38.037  14.920  0.2338  0.1440  0.0368
 1351BOLB   C2A32406  32.110  37.690  15.089  0.0360  0.2830 -0.0204
 1351BOLB   C3A32407  31.757  37.465  15.278  0.3420  0.1188 -0.0310
 1351BOLB   C4A32408  31.490  37.136  15.215 -0.1720 -0.0551 -0.0244
 1351BOLB   C1B32409  31.785  38.283  15.177 -0.0015  0.3249 -0.0594
 1351BOLB   C2B32410  31.251  38.309  15.046  0.2990  0.2137 -0.2530
 1351BOLB   C3B32411  30.929  38.321  15.424 -0.2929 -0.2190  0.1409
 1351BOLB   C4B32412  30.731  38.250  15.739 -0.0096 -0.2340 -0.0865
 1351BOLB   NC232413  32.253  37.327  13.285 -0.1148 -0.0132 -0.1074
 1351BOLB   PO232414  32.292  37.318  13.702 -0.1781 -0.1781  0.2523
 1351BOLB   GL332415  32.215  36.951  14.016  0.1315 -0.3727 -0.1041
 1351BOLB   GL432416  31.884  37.063  14.064 -0.0406 -0.0483  0.0931
 1351BOLB   C1C32417  32.052  36.561  14.137  0.2936  0.0190  0.1869
 1351BOLB   C2C32418  31.777  36.471  14.552 -0.2813 -0.1922 -0.0996
 1351BOLB   C3C32419  31.436  36.525  14.692 -0.4570  0.0006  0.0917
 1351BOLB   C4C32420  31.342  36.702  15.033 -0.1891  0.1850 -0.1687
 1351BOLB   C1D32421  31.564  37.288  14.022 -0.4054 -0.1574  0.1365
 1351BOLB   C2D32422  31.180  37.506  13.925 -0.4600  0.2556  0.1624
 1351BOLB   C3D32423  30.711  37.406  14.010  0.1538  0.0782  0.1657
 1351BOLB   C4D32424  30.503  36.986  13.985 -0.2651  0.0738  0.2860
 1352BOLB   NC132425  31.059  25.483   0.368 -0.0655 -0.1274  0.3192
 1352BOLB   PO132426  31.266  25.739   0.696 -0.2697  0.0239  0.1147
 1352BOLB   GL132427  31.388  25.429   0.969  0.1426 -0.0468 -0.0664
 1352BOLB   GL232428  31.683  25.357   0.808 -0.2555 -0.3492  0.2300
 1352BOLB   C1A32429  31.625  25.356   1.366  0.3359 -0.0486 -0.0074
 1352BOLB   C2A32430  31.774  24.998   1.596 -0.4409 -0.0697  0.2100
 1352BOLB   C3A32431  32.095  24.837   1.804 -0.3452 -0.0715  0.1064
 1352BOLB   C4A32432  32.322  24.630   2.040 -0.0868 -0.0658 -0.1564
 1352BOLB   C1B32433  31.957  25.182   1.083 -0.0907  0.0113 -0.0406
 1352BOLB   C2B32434  32.440  25.232   1.119 -0.0320 -0.2243  0.0988
 1352BOLB   C3B32435  32.758  25.460   1.251  0.0304  0.0716 -0.1784
 1352BOLB   C4B32436  32.865  25.444   1.642 -0.2672  0.0087  0.1473
 1352BOLB   NC232437  34.143  23.477   3.081 -0.4320  0.0740 -0.1905
 1352BOLB   PO232438  33.938  23.810   3.306 -0.0569  0.0627 -0.1058
 1352BOLB   GL332439  33.938  24.233   3.183 -0.0939 -0.0380  0.0448
 1352BOLB   GL432440  34.097  24.476   3.429 -0.0684 -0.0577 -0.0207
 1352BOLB   C1C32441  33.716  24.411   2.813  0.1239 -0.3297 -0.2123
 1352BOLB   C2C32442  33.414  24.438   2.465 -0.0579  0.0057  0.0970
 1352BOLB   C3C32443  33.071  24.483   2.240  0.1244  0.1731  0.3950
 1352BOLB   C4C32444  32.701  24.359   2.099  0.1618  0.1591 -0.0682
 1352BOLB   C1D32445  34.029  24.774   3.043 -0.0118 -0.0387 -0.2665
 1352BOLB   C2D32446  33.815  25.133   2.986  0.0777  0.1988  0.0311
 1352BOLB   C3D32447  33.801  25.376   2.621 -0.1579  0.1152  0.2298
 1352BOLB   C4D32448  33.598  25.243   2.149 -0.0414 -0.0079  0.0471
 1353BOLB   NC132449  32.292  35.790  24.971  0.0104 -0.1129  0.2681
 1353BOLB   PO132450  32.609  35.921  24.603  0.0968  0.0065  0.0356
 1353BOLB   GL132451  32.692  36.181  25.010 -0.0466 -0.3962 -0.3669
 1353BOLB   GL232452  32.416  36.406  25.060 -0.1560 -0.0472  0.1057
 1353BOLB   C1A32453  33.159  36.428  25.023  0.2826  0.0271  0.0473
 1353BOLB   C2A32454  33.520  36.431  25.248  0.0922 -0.1581 -0.2493
 1353BOLB   C3A32455  33.946  36.435  25.404 -0.0754 -0.0235 -0.1680
 1353BOLB   C4A32456  34.391  36.361  25.506  0.1263 -0.1190 -0.0064
 1353BOLB   C1B32457  32.685  36.701  25.245  0.1761  0.1888 -0.1752
 1353BOLB   C2B32458  32.933  37.091  25.330 -0.1165 -0.0202  0.1680
 1353BOLB   C3B32459  33.241  37.429  25.090  0.1088  0.1183 -0.2651
 1353BOLB   C4B32460  33.352  37.823  25.161 -0.0541  0.1490 -0.0894
 1353BOLB   NC232461  36.062  38.197   0.170  0.0825  0.2131 -0.2203
 1353BOLB   PO232462  35.844  38.070  26.806  0.0457  0.2959 -0.3426
 1353BOLB   GL332463  35.589  37.957  26.483  0.1575  0.2667 -0.1271
 1353BOLB   GL432464  35.368  37.764  26.633  0.1314  0.2084  0.0557
 1353BOLB   C1C32465  35.363  37.679  26.156  0.1205  0.0663  0.3396
 1353BOLB   C2C32466  35.131  37.323  26.002  0.1387 -0.2338 -0.0088
 1353BOLB   C3C32467  34.868  37.021  25.901  0.1161  0.1256 -0.0658
 1353BOLB   C4C32468  34.546  36.727  25.799  0.1182 -0.0208 -0.2668
 1353BOLB   C1D32469  35.297  37.272  26.513  0.0150  0.1664  0.2550
 1353BOLB   C2D32470  35.328  36.922  26.435  0.2302  0.2296  0.0772
 1353BOLB   C3D32471  35.292  36.822  26.037  0.1765 -0.1350 -0.1337
 1353BOLB   C4D32472  35.321  36.795  25.579 -0.0974  0.1752 -0.3738
 1354BOLB   NC132473  23.118  32.875   0.716  0.1943  0.1697 -0.0459
 1354BOLB   PO132474  23.144  33.303   0.907  0.0671 -0.1175 -0.0012
 1354BOLB   GL132475  22.895  33.313   1.258 -0.5707  0.0260  0.3854
 1354BOLB   GL232476  22.590  33.409   1.182 -0.2474  0.1674 -0.1198
 1354BOLB   C1A32477  22.723  33.444   1.674 -0.2170 -0.1458 -0.4451
 1354BOLB   C2A32478  22.350  33.602   1.805 -0.0892 -0.3136 -0.2080
 1354BOLB   C3A32479  22.037  33.557   2.155  0.1253  0.0166 -0.0821
 1354BOLB   C4A32480  21.724  33.359   2.540 -0.1163  0.1213 -0.4349
 1354BOLB   C1B32481  22.420  33.818   1.389 -0.2928 -0.1558 -0.0212
 1354BOLB   C2B32482  22.392  34.177   1.736  0.3591  0.3115 -0.0530
 1354BOLB   C3B32483  22.505  34.455   2.197  0.1705 -0.1020  0.1545
 1354BOLB   C4B32484  22.793  34.621   2.595 -0.1195 -0.3034  0.0677
 1354BOLB   NC232485  20.501  35.079   3.733 -0.1723  0.3401 -0.0471
 1354BOLB   PO232486  20.544  34.732   4.011 -0.0374 -0.4349  0.0719
 1354BOLB   GL332487  20.663  34.616   3.601 -0.0461 -0.1504 -0.3675
 1354BOLB   GL432488  20.760  34.365   3.784  0.0110 -0.2930  0.1611
 1354BOLB   C1C32489  20.939  34.508   3.362 -0.0867 -0.1019 -0.2767
 1354BOLB   C2C32490  21.021  34.149   3.050 -0.0488 -0.1741  0.1287
 1354BOLB   C3C32491  21.107  33.735   3.005  0.0016 -0.1736 -0.1331
 1354BOLB   C4C32492  21.402  33.504   2.866  0.0943 -0.2604  0.0095
 1354BOLB   C1D32493  21.030  34.024   3.652  0.1428 -0.0132  0.0434
 1354BOLB   C2D32494  21.306  33.961   3.442 -0.0813  0.0968 -0.1970
 1354BOLB   C3D32495  21.608  33.908   3.154 -0.1667  0.2211  0.0887
 1354BOLB   C4D32496  21.844  33.774   2.785 -0.0429 -0.2194  0.1463
 1355BOLB   NC132497  32.306  27.055   1.040 -0.3720  0.0898  0.2534
 1355BOLB   PO132498  31.910  26.759   1.095  0.2511  0.1924 -0.1809
 1355BOLB   GL132499  32.198  26.588   1.349  0.3066 -0.0144 -0.4871
 1355BOLB   GL232500  32.553  26.626   1.372 -0.1347 -0.0103 -0.1709
 1355BOLB   C1A32501  32.330  26.387   1.728 -0.1786 -0.0396  0.1292
 1355BOLB   C2A32502  32.637  26.443   2.062  0.5947 -0.0244 -0.2420
 1355BOLB   C3A32503  33.004  26.234   2.167 -0.1806  0.1133 -0.0528
 1355BOLB   C4A32504  33.098  25.924   2.460  0.2638 -0.0098 -0.2327
 1355BOLB   C1B32505  32.957  26.479   1.602  0.0144 -0.0853  0.1068
 1355BOLB   C2B32506  33.209  26.140   1.710 -0.4222  0.0774 -0.0887
 1355BOLB   C3B32507  33.233  25.757   1.967 -0.1497 -0.2172  0.2048
 1355BOLB   C4B32508  33.511  25.727   2.361 -0.1575 -0.1001  0.0466
 1355BOLB   NC232509  34.855  26.224   4.094 -0.3410 -0.3349 -0.0496
 1355BOLB   PO232510  34.647  25.996   4.290 -0.0388 -0.2585 -0.2887
 1355BOLB   GL332511  34.439  25.948   3.840  0.2109 -0.1195  0.0497
 1355BOLB   GL432512  34.033  25.889   3.815 -0.1639  0.2078 -0.0875
 1355BOLB   C1C32513  34.271  25.831   3.381 -0.1091  0.2958  0.3111
 1355BOLB   C2C32514  34.069  25.756   2.965 -0.2671  0.0278 -0.0846
 1355BOLB   C3C32515  33.639  25.669   3.020 -0.0827  0.2018  0.2846
 1355BOLB   C4C32516  33.312  25.727   2.847  0.1263  0.2735 -0.1347
 1355BOLB   C1D32517  33.968  26.262   3.605 -0.1057  0.0575 -0.3183
 1355BOLB   C2D32518  34.131  26.434   3.203  0.0768 -0.1113  0.2253
 1355BOLB   C3D32519  33.856  26.693   2.856  0.0065 -0.2988  0.2350
 1355BOLB   C4D32520  33.524  26.955   2.614  0.0162  0.0257 -0.2941
 1356BOLB   NC132521  31.294  27.898   1.209  0.6101  0.0335  0.1543
 1356BOLB   PO132522  31.226  27.725   1.606 -0.3153  0.5015 -0.1251
 1356BOLB   GL132523  31.594  27.610   1.907  0.2784  0.1942  0.2773
 1356BOLB   GL232524  31.894  27.568   1.833 -0.1849  0.0342 -0.0475
 1356BOLB   C1A32525  31.749  27.614   2.328 -0.0183  0.1963 -0.1866
 1356BOLB   C2A32526  32.024  27.537   2.594  0.1217  0.0101  0.1766
 1356BOLB   C3A32527  31.975  27.354   3.005  0.0577 -0.0719 -0.0089
 1356BOLB   C4A32528  32.187  27.232   3.390 -0.0068  0.1489  0.1900
 1356BOLB   C1B32529  32.258  27.324   2.036  0.1030 -0.2441  0.1791
 1356BOLB   C2B32530  32.356  27.165   2.476  0.1518 -0.1333  0.0376
 1356BOLB   C3B32531  32.401  27.048   2.952  0.2385 -0.1556 -0.2203
 1356BOLB   C4B32532  32.620  26.633   3.009 -0.1180 -0.0254  0.0943
 1356BOLB   NC232533  32.348  26.277   5.437  0.1588  0.1471  0.2678
 1356BOLB   PO232534  32.730  26.374   5.399 -0.0777  0.2271  0.2254
 1356BOLB   GL332535  32.696  26.435   4.996  0.2771  0.2595  0.4012
 1356BOLB   GL432536  32.372  26.490   5.009 -0.2228 -0.1526 -0.4126
 1356BOLB   C1C32537  32.693  26.620   4.642 -0.1820  0.0214  0.4627
 1356BOLB   C2C32538  32.714  26.701   4.225 -0.1045  0.1642 -0.4267
 1356BOLB   C3C32539  32.659  26.918   3.898 -0.0243 -0.1957  0.3698
 1356BOLB   C4C32540  32.486  27.002   3.516  0.0855 -0.0260  0.2197
 1356BOLB   C1D32541  32.273  26.870   4.727  0.0010 -0.2827  0.0976
 1356BOLB   C2D32542  32.614  27.103   4.609  0.3225 -0.0166  0.3973
 1356BOLB   C3D32543  32.573  27.219   4.244 -0.0440  0.0711  0.0505
 1356BOLB   C4D32544  32.201  27.090   3.881 -0.2214  0.0062  0.1731
 1357BOLB   NC132545  32.773  35.170  24.512 -0.0075 -0.1532  0.1584
 1357BOLB   PO132546  33.171  35.169  24.187 -0.2550  0.1407  0.4559
 1357BOLB   GL132547  33.430  35.606  24.089  0.2468  0.1647 -0.1254
 1357BOLB   GL232548  33.499  35.913  24.334  0.0127  0.3698  0.1484
 1357BOLB   C1A32549  33.773  36.015  23.851 -0.0530 -0.4903  0.0328
 1357BOLB   C2A32550  33.925  36.469  23.754 -0.2054 -0.1136 -0.0103
 1357BOLB   C3A32551  33.970  36.896  23.803  0.1198  0.0247 -0.0318
 1357BOLB   C4A32552  33.884  37.234  24.037  0.2730  0.2180 -0.1264
 1357BOLB   C1B32553  33.698  36.199  24.472 -0.1475 -0.0284 -0.2738
 1357BOLB   C2B32554  34.076  36.507  24.489 -0.0640  0.0272  0.0106
 1357BOLB   C3B32555  34.428  36.646  24.636 -0.0393 -0.0791 -0.0581
 1357BOLB   C4B32556  34.494  36.971  24.773  0.2175 -0.3943  0.0061
 1357BOLB   NC232557  34.740  39.137  25.079 -0.0391  0.4189 -0.1339
 1357BOLB   PO232558  34.992  39.028  24.713  0.0932  0.0185 -0.2930
 1357BOLB   GL332559  34.746  38.765  24.449 -0.0555  0.1807 -0.0586
 1357BOLB   GL432560  34.908  38.708  24.107  0.0369  0.1549 -0.2968
 1357BOLB   C1C32561  34.392  38.562  24.344 -0.0757  0.0650 -0.1466
 1357BOLB   C2C32562  34.320  38.202  24.336  0.3447  0.0227  0.2641
 1357BOLB   C3C32563  34.012  38.061  24.096  0.0705 -0.2023 -0.0384
 1357BOLB   C4C32564  33.870  37.654  24.131 -0.2725  0.4351  0.1021
 1357BOLB   C1D32565  34.657  38.428  23.909 -0.1691 -0.1780  0.0340
 1357BOLB   C2D32566  34.617  37.999  23.943  0.0205  0.0763  0.0155
 1357BOLB   C3D32567  34.435  37.728  24.243 -0.1159 -0.1129 -0.0611
 1357BOLB   C4D32568  34.484  37.441  24.552  0.0960  0.0439  0.1449
 1358BOLB   NC132569  34.522  26.698  18.905 -0.1826  0.0125 -0.0999
 1358BOLB   PO132570  34.605  27.027  18.750  0.0958  0.1729 -0.1478
 1358BOLB   GL132571  35.053  26.985  18.644 -0.1825 -0.0854  0.2074
 1358BOLB   GL232572  35.254  27.199  18.571  0.1041 -0.0334  0.1461
 1358BOLB   C1A32573  35.449  26.629  18.574  0.1101  0.0589  0.0226
 1358BOLB   C2A32574  35.873  26.687  18.547 -0.2404 -0.1927  0.4443
 1358BOLB   C3A32575  36.178  26.704  18.391 -0.1957 -0.2339  0.3102
 1358BOLB   C4A32576  36.354  26.501  18.186  0.0569  0.0455 -0.2820
 1358BOLB   C1B32577  35.557  26.999  18.299  0.1612 -0.0252  0.0687
 1358BOLB   C2B32578  35.848  26.964  18.038  0.0435 -0.1681 -0.1620
 1358BOLB   C3B32579  36.311  26.971  17.981  0.0613  0.1577 -0.1028
 1358BOLB   C4B32580  36.502  26.692  17.721  0.2333 -0.0549  0.1217
 1358BOLB   NC232581  38.352  25.275  17.863 -0.0450  0.1019  0.1184
 1358BOLB   PO232582  38.187  25.439  18.159 -0.1558 -0.1783 -0.1967
 1358BOLB   GL332583  37.947  25.690  18.278 -0.1102  0.0190  0.0589
 1358BOLB   GL432584  38.160  25.845  18.530 -0.0803 -0.0894 -0.0073
 1358BOLB   C1C32585  37.606  25.763  18.062 -0.1680  0.1701 -0.1047
 1358BOLB   C2C32586  37.175  25.753  17.983 -0.3316  0.1813  0.1764
 1358BOLB   C3C32587  36.836  25.949  17.897 -0.0078  0.1063 -0.0160
 1358BOLB   C4C32588  36.627  26.217  18.049  0.1046  0.1840 -0.0126
 1358BOLB   C1D32589  37.968  26.058  18.772  0.2409  0.0126 -0.3554
 1358BOLB   C2D32590  37.631  26.110  19.042 -0.1191 -0.0255  0.0234
 1358BOLB   C3D32591  37.625  26.314  19.440 -0.1752 -0.2480  0.0353
 1358BOLB   C4D32592  37.719  26.321  19.934 -0.1223  0.0294 -0.1094
 1359BOLB   NC132593  29.150  36.930  17.920  0.1634  0.3047  0.0006
 1359BOLB   PO132594  29.512  37.087  18.129 -0.1586 -0.2831  0.0696
 1359BOLB   GL132595  29.475  37.371  17.941 -0.0876 -0.2060  0.0319
 1359BOLB   GL232596  29.475  37.424  17.607 -0.1934 -0.2974 -0.0956
 1359BOLB   C1A32597  29.426  37.775  17.949  0.1403  0.1334  0.1853
 1359BOLB   C2A32598  29.422  38.226  17.870 -0.2057  0.1284  0.1079
 1359BOLB   C3A32599  29.328  38.559  18.067  0.1182  0.0436 -0.2233
 1359BOLB   C4A32600  29.349  38.989  17.885  0.0746 -0.1417  0.0970
 1359BOLB   C1B32601  29.748  37.835  17.556 -0.4019  0.0364  0.0179
 1359BOLB   C2B32602  29.925  38.264  17.512  0.1299  0.0670  0.4066
 1359BOLB   C3B32603  29.841  38.591  17.672 -0.2826  0.2579 -0.3244
 1359BOLB   C4B32604  29.953  38.989  17.581  0.1471  0.1624 -0.0079
 1359BOLB   NC232605  28.572  41.222  16.503 -0.0952  0.1111  0.0875
 1359BOLB   PO232606  28.770  40.787  16.261  0.0163  0.0021  0.0571
 1359BOLB   GL332607  28.748  40.456  16.561 -0.0847 -0.0780 -0.0434
 1359BOLB   GL432608  28.631  40.100  16.387 -0.6395  0.3921 -0.0172
 1359BOLB   C1C32609  28.859  40.156  16.836  0.0482  0.0990  0.1362
 1359BOLB   C2C32610  29.141  39.839  17.162  0.1567  0.1012  0.0896
 1359BOLB   C3C32611  29.502  39.512  17.193  0.2507  0.2347  0.0287
 1359BOLB   C4C32612  29.450  39.162  17.504  0.0559  0.2305 -0.2502
 1359BOLB   C1D32613  28.411  39.985  16.854 -0.0592  0.1942  0.0699
 1359BOLB   C2D32614  28.170  39.674  17.157 -0.2615  0.0230  0.1454
 1359BOLB   C3D32615  27.882  39.479  17.397  0.0364 -0.1490 -0.0237
 1359BOLB   C4D32616  27.653  39.044  17.484 -0.1046  0.2071  0.1765
 1360BOLB   NC132617  23.164  34.137  16.974 -0.0926  0.0408  0.0578
 1360BOLB   PO132618  22.799  34.289  16.610  0.1380 -0.4804 -0.2261
 1360BOLB   GL132619  22.507  34.640  16.527 -0.0251 -0.1560  0.1988
 1360BOLB   GL232620  22.744  34.852  16.325 -0.0969 -0.1028 -0.1246
 1360BOLB   C1A32621  22.168  34.606  16.331 -0.1852 -0.0151  0.2311
 1360BOLB   C2A32622  21.814  34.692  16.321  0.0878  0.2444  0.0365
 1360BOLB   C3A32623  21.347  34.841  16.118  0.0858 -0.1643 -0.0379
 1360BOLB   C4A32624  21.456  34.946  15.660  0.2355 -0.3966 -0.2332
 1360BOLB   C1B32625  22.919  35.197  16.173  0.1287 -0.2065  0.1929
 1360BOLB   C2B32626  22.650  35.560  16.265 -0.0153  0.0981 -0.3346
 1360BOLB   C3B32627  22.229  35.592  16.216  0.1181 -0.0430  0.1824
 1360BOLB   C4B32628  21.819  35.359  16.425 -0.0831  0.3223 -0.1223
 1360BOLB   NC232629  20.736  36.340  13.890 -0.1459 -0.1243 -0.1196
 1360BOLB   PO232630  20.424  35.965  13.715  0.0040  0.0989 -0.0687
 1360BOLB   GL332631  20.601  35.650  14.109  0.0825 -0.1301 -0.4243
 1360BOLB   GL432632  20.375  35.381  14.141  0.0731  0.0684 -0.0746
 1360BOLB   C1C32633  20.871  35.717  14.504  0.0577  0.0948  0.0176
 1360BOLB   C2C32634  21.010  35.486  14.813  0.1282 -0.2871  0.0496
 1360BOLB   C3C32635  21.229  35.285  15.142 -0.0435 -0.3754 -0.0352
 1360BOLB   C4C32636  21.346  35.276  15.572  0.0191 -0.5651  0.1797
 1360BOLB   C1D32637  20.616  35.258  14.552  0.1890 -0.0386 -0.0154
 1360BOLB   C2D32638  20.716  35.163  15.003  0.0098 -0.0366  0.1678
 1360BOLB   C3D32639  20.443  34.861  15.312  0.0893  0.0427 -0.1464
 1360BOLB   C4D32640  20.457  34.421  15.380 -0.0113 -0.0195  0.2766
 1361BOLB   NC132641  24.799  31.023  13.600 -0.1661  0.2574  0.2841
 1361BOLB   PO132642  25.024  31.393  13.659 -0.2214  0.2966  0.0260
 1361BOLB   GL132643  24.876  31.510  13.309 -0.1801  0.0251 -0.1980
 1361BOLB   GL232644  24.685  31.789  13.348 -0.1682  0.2172 -0.1710
 1361BOLB   C1A32645  24.984  31.676  12.918  0.1243  0.2150  0.1204
 1361BOLB   C2A32646  25.194  31.856  12.524 -0.1300  0.0081  0.0032
 1361BOLB   C3A32647  25.372  32.112  12.216 -0.0201 -0.2778 -0.0485
 1361BOLB   C4A32648  25.511  32.379  11.917 -0.1193 -0.2945  0.1378
 1361BOLB   C1B32649  24.519  31.585  12.988  0.1595  0.1628 -0.0811
 1361BOLB   C2B32650  24.193  31.463  12.646 -0.0147 -0.1771  0.1747
 1361BOLB   C3B32651  24.209  31.134  12.373 -0.2280  0.3642  0.1137
 1361BOLB   C4B32652  24.172  31.088  12.014  0.1337 -0.2284 -0.2177
 1361BOLB   NC232653  25.153  33.131   9.934  0.2081  0.2753 -0.1037
 1361BOLB   PO232654  25.681  33.102   9.954 -0.1273  0.0723  0.3968
 1361BOLB   GL332655  25.935  32.907  10.155 -0.0093 -0.0059  0.1757
 1361BOLB   GL432656  25.987  33.154  10.425  0.1232 -0.0519  0.1068
 1361BOLB   C1C32657  25.845  32.609  10.468 -0.0294 -0.1740  0.0089
 1361BOLB   C2C32658  25.872  32.442  10.891  0.1163 -0.0024  0.0976
 1361BOLB   C3C32659  25.797  32.597  11.235 -0.1353 -0.0612  0.2489
 1361BOLB   C4C32660  25.847  32.596  11.673  0.2940  0.0019 -0.0844
 1361BOLB   C1D32661  25.725  33.043  10.747 -0.3015  0.0807  0.1555
 1361BOLB   C2D32662  25.458  32.723  10.848  0.0115 -0.1544  0.0091
 1361BOLB   C3D32663  25.208  32.448  10.585 -0.0317 -0.2005 -0.1536
 1361BOLB   C4D32664  24.901  32.542  10.243 -0.0258 -0.0491 -0.1535
 1362BOLB   NC132665  25.497  31.656   2.986  0.1916  0.1622 -0.1011
 1362BOLB   PO132666  25.100  31.436   3.051 -0.3352  0.2016 -0.3231
 1362BOLB   GL132667  24.856  31.293   3.364  0.0949  0.1227 -0.0151
 1362BOLB   GL232668  24.631  31.118   3.170 -0.2950  0.1375 -0.1808
 1362BOLB   C1A32669  24.669  31.385   3.754  0.0546  0.2093 -0.0966
 1362BOLB   C2A32670  24.393  31.473   4.141  0.0930 -0.1844 -0.0043
 1362BOLB   C3A32671  24.464  31.849   4.364  0.2521 -0.0476  0.1511
 1362BOLB   C4A32672  24.592  32.074   4.636  0.2014  0.1561 -0.3984
 1362BOLB   C1B32673  24.329  31.031   3.423  0.0774 -0.0301  0.1632
 1362BOLB   C2B32674  24.291  31.066   3.860 -0.1279  0.3286 -0.2611
 1362BOLB   C3B32675  24.212  30.939   4.222  0.1287  0.2459  0.1833
 1362BOLB   C4B32676  24.096  30.801   4.615 -0.0242 -0.2915  0.2639
 1362BOLB   NC232677  24.325  33.018   6.893  0.0374  0.0659  0.1237
 1362BOLB   PO232678  24.359  32.665   6.666 -0.2863  0.1215 -0.3442
 1362BOLB   GL332679  24.188  32.811   6.192  0.1238  0.0489  0.0510
 1362BOLB   GL432680  24.247  33.122   6.224 -0.1105 -0.1099 -0.2218
 1362BOLB   C1C32681  24.330  32.813   5.648  0.2362 -0.0102  0.1968
 1362BOLB   C2C32682  24.648  32.798   5.477 -0.2558 -0.0987 -0.1775
 1362BOLB   C3C32683  24.839  32.532   5.234 -0.0114  0.3258  0.0839
 1362BOLB   C4C32684  24.937  32.171   4.973  0.2016 -0.0587 -0.2071
 1362BOLB   C1D32685  24.607  32.941   5.996  0.1307  0.1654 -0.0255
 1362BOLB   C2D32686  24.983  33.109   5.737  0.2974 -0.1550 -0.1782
 1362BOLB   C3D32687  25.168  32.927   5.405  0.3094 -0.1200 -0.0494
 1362BOLB   C4D32688  25.473  32.924   4.919 -0.0085 -0.1438  0.0775
 1363BOLB   NC132689  27.092  33.766  14.321  0.0612 -0.1837 -0.0147
 1363BOLB   PO132690  27.564  33.719  14.557  0.1871  0.0350  0.0381
 1363BOLB   GL132691  27.617  34.005  14.172 -0.1938 -0.0042  0.4131
 1363BOLB   GL232692  27.889  34.143  14.145 -0.0439 -0.3180  0.0291
 1363BOLB   C1A32693  27.640  33.960  13.748 -0.0022  0.0860 -0.0138
 1363BOLB   C2A32694  27.765  34.297  13.494 -0.0312  0.2553  0.1825
 1363BOLB   C3A32695  27.593  34.495  13.045  0.0405  0.0156  0.2626
 1363BOLB   C4A32696  27.175  34.543  12.865 -0.0700 -0.1879 -0.2343
 1363BOLB   C1B32697  27.964  34.495  13.968 -0.1457 -0.2251 -0.0493
 1363BOLB   C2B32698  27.950  34.885  13.649 -0.0040  0.1221  0.2304
 1363BOLB   C3B32699  28.247  35.248  13.540  0.2314 -0.0899  0.2526
 1363BOLB   C4B32700  28.156  35.510  13.208  0.2885  0.2372  0.2869
 1363BOLB   NC232701  26.206  35.740  10.372  0.1239  0.2118 -0.1102
 1363BOLB   PO232702  25.847  35.688  10.784  0.0573 -0.0018  0.0282
 1363BOLB   GL332703  26.014  35.505  11.229  0.0922 -0.5461 -0.2304
 1363BOLB   GL432704  26.079  35.204  11.144 -0.2210 -0.2818  0.1791
 1363BOLB   C1C32705  26.092  35.301  11.603 -0.0914 -0.0730 -0.4120
 1363BOLB   C2C32706  26.431  35.096  11.976  0.0263  0.0360 -0.2089
 1363BOLB   C3C32707  26.602  34.801  12.207 -0.4328 -0.0381  0.0842
 1363BOLB   C4C32708  26.853  34.581  12.466 -0.0948 -0.1739 -0.1518
 1363BOLB   C1D32709  26.057  34.835  11.370 -0.2401  0.2150  0.0496
 1363BOLB   C2D32710  26.237  34.707  11.691  0.1630  0.0099 -0.0605
 1363BOLB   C3D32711  26.306  34.456  12.013  0.0446 -0.3987 -0.0939
 1363BOLB   C4D32712  26.014  34.251  12.352  0.0921  0.0776  0.2661
 1364BOLB   NC132713  29.312  36.548  17.516  0.1620 -0.1874 -0.0796
 1364BOLB   PO132714  29.392  36.893  17.478 -0.1100  0.0885  0.1272
 1364BOLB   GL132715  29.732  37.159  17.235  0.0552  0.1107 -0.2038
 1364BOLB   GL232716  29.969  37.350  17.445  0.0923 -0.0465 -0.5786
 1364BOLB   C1A32717  29.797  37.370  16.832  0.3437  0.2083  0.1015
 1364BOLB   C2A32718  29.634  37.585  16.541  0.0131 -0.1788 -0.1117
 1364BOLB   C3A32719  29.760  37.670  16.067  0.0940 -0.1626 -0.5848
 1364BOLB   C4A32720  30.054  37.840  15.829 -0.0852 -0.1080  0.0466
 1364BOLB   C1B32721  30.112  37.577  17.188  0.1326 -0.0566  0.1209
 1364BOLB   C2B32722  30.320  37.724  16.872 -0.1502 -0.1544 -0.1202
 1364BOLB   C3B32723  30.441  38.137  16.776 -0.0020  0.2334  0.1115
 1364BOLB   C4B32724  30.666  38.433  16.626  0.1619 -0.1016 -0.1876
 1364BOLB   NC232725  30.803  40.392  15.302 -0.3151 -0.0574  0.0127
 1364BOLB   PO232726  31.156  40.124  15.288  0.2645  0.1105  0.0138
 1364BOLB   GL332727  31.099  39.637  15.360  0.1602  0.0432  0.1533
 1364BOLB   GL432728  31.294  39.510  15.440  0.0498  0.1272 -0.0376
 1364BOLB   C1C32729  30.873  39.255  15.529 -0.0444  0.2783  0.2384
 1364BOLB   C2C32730  30.584  38.935  15.454  0.0839  0.0540 -0.1317
 1364BOLB   C3C32731  30.458  38.630  15.678  0.0538 -0.0704 -0.0704
 1364BOLB   C4C32732  30.161  38.278  15.744  0.0745  0.1186 -0.0328
 1364BOLB   C1D32733  31.227  39.554  15.963  0.1115 -0.0212  0.0566
 1364BOLB   C2D32734  30.857  39.335  16.147 -0.0498  0.1035  0.2724
 1364BOLB   C3D32735  30.565  39.091  16.016  0.1521 -0.0959 -0.1362
 1364BOLB   C4D32736  30.167  39.129  16.025 -0.0550 -0.1049 -0.1025
 1365BOLB   NC132737  19.229  31.175  21.864  0.2039 -0.2374  0.0435
 1365BOLB   PO132738  19.399  31.511  22.080  0.1380  0.0078  0.0426
 1365BOLB   GL132739  19.083  31.738  22.184 -0.0676  0.0347 -0.0173
 1365BOLB   GL232740  18.872  31.504  22.118 -0.0501 -0.0990 -0.1312
 1365BOLB   C1A32741  18.831  32.139  22.039 -0.0983  0.0240  0.0807
 1365BOLB   C2A32742  18.541  32.345  21.785  0.2773  0.1428  0.0260
 1365BOLB   C3A32743  18.248  32.583  21.792 -0.0853  0.1223  0.0911
 1365BOLB   C4A32744  17.839  32.875  22.027  0.1749  0.6404  0.0405
 1365BOLB   C1B32745  18.595  31.772  22.421  0.0372  0.4402 -0.2179
 1365BOLB   C2B32746  18.268  31.727  22.658 -0.1683  0.1531  0.2758
 1365BOLB   C3B32747  18.023  31.870  22.472 -0.3144  0.1402  0.1609
 1365BOLB   C4B32748  17.615  31.990  22.371 -0.1667 -0.4915  0.0421
 1365BOLB   NC232749  16.136  34.415  23.613 -0.0201  0.1693  0.1917
 1365BOLB   PO232750  16.196  34.013  23.302 -0.0896  0.0497  0.2018
 1365BOLB   GL332751  16.579  33.854  23.092  0.0195 -0.1332  0.3271
 1365BOLB   GL432752  16.828  33.870  23.226  0.1981 -0.3292 -0.0245
 1365BOLB   C1C32753  16.929  33.541  22.925 -0.0857  0.0410  0.1642
 1365BOLB   C2C32754  17.075  33.279  22.614 -0.0726  0.3008 -0.0269
 1365BOLB   C3C32755  17.245  32.966  22.466 -0.0845  0.0655  0.1441
 1365BOLB   C4C32756  17.651  32.834  22.404 -0.0475 -0.1234  0.1002
 1365BOLB   C1D32757  17.220  34.143  23.258 -0.4363  0.0072  0.2430
 1365BOLB   C2D32758  17.533  34.384  23.018 -0.2033  0.1135 -0.0840
 1365BOLB   C3D32759  17.693  34.695  22.895 -0.0726  0.3405  0.0947
 1365BOLB   C4D32760  17.459  35.172  22.872  0.0257  0.6638  0.1490
 1366BOLB   NC132761  26.329  36.356  24.400  0.0940 -0.0456  0.2975
 1366BOLB   PO132762  25.993  36.703  24.588  0.1312 -0.0078  0.0171
 1366BOLB   GL132763  25.785  37.109  24.766 -0.0509  0.0734  0.1670
 1366BOLB   GL232764  25.525  37.028  24.993  0.3001 -0.0070 -0.0812
 1366BOLB   C1A32765  25.583  37.489  24.857  0.2422  0.2936 -0.1236
 1366BOLB   C2A32766  25.468  37.874  24.749 -0.2736 -0.1808  0.3983
 1366BOLB   C3A32767  25.151  38.095  24.585 -0.2409 -0.0335 -0.1054
 1366BOLB   C4A32768  24.994  38.512  24.549 -0.0392  0.0521 -0.3353
 1366BOLB   C1B32769  25.316  37.383  25.247 -0.2133 -0.2821  0.1317
 1366BOLB   C2B32770  25.052  37.695  25.311 -0.0904 -0.0374  0.0495
 1366BOLB   C3B32771  24.794  37.916  25.058 -0.2238  0.1963  0.4433
 1366BOLB   C4B32772  24.634  38.409  24.935  0.0042  0.0025  0.0641
 1366BOLB   NC232773  24.536  41.222  25.726  0.2185 -0.1107  0.1183
 1366BOLB   PO232774  24.790  40.716  25.716  0.0145  0.2392 -0.0031
 1366BOLB   GL332775  24.665  40.261  25.761 -0.1624  0.1685 -0.2034
 1366BOLB   GL432776  24.716  40.137  26.093  0.0026  0.4581 -0.2590
 1366BOLB   C1C32777  24.718  39.868  25.555 -0.1493 -0.0431  0.0757
 1366BOLB   C2C32778  24.868  39.475  25.241  0.1427  0.0661 -0.0276
 1366BOLB   C3C32779  24.918  39.102  25.079  0.1874 -0.1607  0.2858
 1366BOLB   C4C32780  25.029  38.901  24.684  0.2520 -0.2097  0.0187
 1366BOLB   C1D32781  24.782  39.719  25.999 -0.2320  0.0908 -0.1853
 1366BOLB   C2D32782  24.719  39.220  26.010 -0.0116  0.0744  0.1805
 1366BOLB   C3D32783  24.988  39.110  25.657 -0.0079 -0.0516 -0.3105
 1366BOLB   C4D32784  25.141  38.758  25.331 -0.1250  0.3082 -0.2850
 1367BOLB   NC132785  29.831  22.291  18.720 -0.1510  0.1219 -0.1966
 1367BOLB   PO132786  29.541  22.295  18.477 -0.0060 -0.1865 -0.4059
 1367BOLB   GL132787  29.682  22.051  18.143  0.0334 -0.1079  0.1794
 1367BOLB   GL232788  30.019  22.092  18.243 -0.4069 -0.2680  0.0774
 1367BOLB   C1A32789  29.506  21.863  17.760 -0.0990  0.1610 -0.1392
 1367BOLB   C2A32790  29.703  21.626  17.379  0.1918  0.0267 -0.0720
 1367BOLB   C3A32791  29.822  21.355  17.079 -0.2332  0.0286 -0.0954
 1367BOLB   C4A32792  30.193  21.228  16.885 -0.1443 -0.3804  0.0776
 1367BOLB   C1B32793  30.371  21.974  18.045  0.1819  0.0563  0.1264
 1367BOLB   C2B32794  30.523  21.575  17.822 -0.3315  0.0413 -0.5265
 1367BOLB   C3B32795  30.627  21.580  17.415  0.1679  0.0452 -0.0646
 1367BOLB   C4B32796  31.044  21.411  17.126 -0.0855 -0.0677  0.0943
 1367BOLB   NC232797  31.300  20.164  14.590 -0.2839 -0.3213  0.3449
 1367BOLB   PO232798  31.428  20.196  14.926  0.0871 -0.2528  0.1316
 1367BOLB   GL332799  31.389  20.393  15.355 -0.1678  0.0111 -0.2634
 1367BOLB   GL432800  31.687  20.500  15.415 -0.1127  0.2372 -0.3023
 1367BOLB   C1C32801  31.038  20.688  15.579 -0.1946  0.1831 -0.3305
 1367BOLB   C2C32802  30.828  20.924  15.934 -0.1449  0.1141  0.1912
 1367BOLB   C3C32803  30.676  21.091  16.268  0.1301 -0.1289 -0.1474
 1367BOLB   C4C32804  30.569  21.412  16.721  0.1172 -0.1070  0.2004
 1367BOLB   C1D32805  31.701  20.928  15.674 -0.1887  0.0467  0.0002
 1367BOLB   C2D32806  31.338  21.057  15.844 -0.0707 -0.2104 -0.1325
 1367BOLB   C3D32807  31.046  21.330  16.013  0.0102 -0.4171  0.1228
 1367BOLB   C4D32808  30.594  21.536  16.127  0.0685 -0.6133  0.1879
 1368BOLB   NC132809  22.814  34.835  25.046 -0.2210  0.1414  0.1396
 1368BOLB   PO132810  22.651  35.037  25.466  0.0119  0.0341 -0.1542
 1368BOLB   GL132811  22.139  35.153  25.563 -0.2524 -0.1303  0.3795
 1368BOLB   GL232812  21.885  35.095  25.397 -0.1399 -0.0636  0.2589
 1368BOLB   C1A32813  21.879  35.445  25.758 -0.3311  0.0814  0.1376
 1368BOLB   C2A32814  21.543  35.427  25.997  0.1100 -0.1052 -0.2064
 1368BOLB   C3A32815  21.383  35.771  26.124  0.0016 -0.1644 -0.1010
 1368BOLB   C4A32816  21.052  35.789  26.476  0.0454  0.1222  0.0868
 1368BOLB   C1B32817  21.539  35.399  25.403  0.1227  0.3276  0.0170
 1368BOLB   C2B32818  21.154  35.671  25.605 -0.0328 -0.1644 -0.0097
 1368BOLB   C3B32819  21.130  35.939  25.755  0.3555  0.0379  0.2255
 1368BOLB   C4B32820  21.199  36.286  26.013  0.0253  0.0962  0.0012
 1368BOLB   NC232821  19.750  36.820   0.655  0.1217 -0.0760 -0.1768
 1368BOLB   PO232822  19.461  36.548   0.577 -0.0832  0.4009  0.0621
 1368BOLB   GL332823  19.515  36.190   0.462  0.1389  0.1457 -0.0562
 1368BOLB   GL432824  19.520  36.165   0.125 -0.1138  0.0491  0.3382
 1368BOLB   C1C32825  19.714  35.842   0.439  0.2273  0.2302 -0.2553
 1368BOLB   C2C32826  20.011  35.576   0.357 -0.1162 -0.2692  0.0396
 1368BOLB   C3C32827  20.383  35.777   0.236 -0.0499 -0.1380 -0.0021
 1368BOLB   C4C32828  20.819  35.784  26.797 -0.2612 -0.1057 -0.3980
 1368BOLB   C1D32829  19.879  36.049  26.721 -0.1242 -0.1304 -0.0654
 1368BOLB   C2D32830  20.094  36.288  26.416  0.0673  0.1274  0.0271
 1368BOLB   C3D32831  20.337  36.371  26.006  0.1570  0.2333 -0.2428
 1368BOLB   C4D32832  20.560  36.109  25.701 -0.4045 -0.2413  0.2253
 1369BOLB   NC132833  27.960  36.240   0.440 -0.0235  0.2370  0.2117
 1369BOLB   PO132834  27.874  36.075   0.757  0.0100  0.0773 -0.1457
 1369BOLB   GL132835  27.881  36.228   1.103  0.1210  0.1113  0.5268
 1369BOLB   GL232836  27.600  36.440   1.092  0.1863 -0.3780  0.1846
 1369BOLB   C1A32837  28.207  36.480   1.344 -0.0679  0.0861 -0.2202
 1369BOLB   C2A32838  28.538  36.643   1.551 -0.3144 -0.0781 -0.2611
 1369BOLB   C3A32839  28.815  36.917   1.748  0.0028 -0.2482 -0.1706
 1369BOLB   C4A32840  29.113  37.188   1.697  0.1730 -0.0751 -0.2300
 1369BOLB   C1B32841  27.425  36.375   1.452 -0.3767  0.0350 -0.4411
 1369BOLB   C2B32842  27.463  36.533   1.767  0.2206  0.0102 -0.2228
 1369BOLB   C3B32843  27.457  37.007   1.769  0.0716  0.2207 -0.1440
 1369BOLB   C4B32844  27.458  37.374   2.027  0.0475 -0.1186  0.1391
 1369BOLB   NC232845  29.889  39.290   3.473  0.2517  0.1618 -0.0408
 1369BOLB   PO232846  29.662  39.085   3.210 -0.0094  0.1357  0.2266
 1369BOLB   GL332847  29.639  38.762   2.907  0.2858  0.0524 -0.0355
 1369BOLB   GL432848  29.312  38.821   2.898  0.2483 -0.1118  0.0882
 1369BOLB   C1C32849  29.674  38.535   2.482  0.0154 -0.1169  0.1144
 1369BOLB   C2C32850  29.612  38.131   2.330  0.4832 -0.1462 -0.3281
 1369BOLB   C3C32851  29.680  37.820   2.016  0.2356  0.0676 -0.0617
 1369BOLB   C4C32852  29.367  37.524   1.935 -0.4861 -0.0657 -0.1163
 1369BOLB   C1D32853  29.261  38.430   2.659 -0.0548  0.1501  0.3578
 1369BOLB   C2D32854  28.960  38.097   2.708 -0.0461 -0.1088 -0.0834
 1369BOLB   C3D32855  28.800  37.921   3.051 -0.0992  0.1688 -0.0137
 1369BOLB   C4D32856  28.720  37.726   3.469 -0.3247 -0.1576  0.1643
 1370BOLB   NC132857  22.035  20.061   5.454  0.0241 -0.1212  0.2094
 1370BOLB   PO132858  22.273  20.254   5.259  0.1546 -0.2804  0.1238
 1370BOLB   GL132859  22.451  20.194   4.873  0.0292  0.1792 -0.1858
 1370BOLB   GL232860  22.672  19.959   4.853 -0.3360  0.0488  0.3098
 1370BOLB   C1A32861  22.529  20.087   4.423 -0.1466 -0.3275 -0.0501
 1370BOLB   C2A32862  22.828  20.124   4.101 -0.5433  0.1351  0.2054
 1370BOLB   C3A32863  23.204  20.241   3.835  0.1781  0.3423 -0.0985
 1370BOLB   C4A32864  23.145  20.018   3.437 -0.0525 -0.2928  0.2963
 1370BOLB   C1B32865  22.930  19.702   4.614  0.0240  0.0200  0.2080
 1370BOLB   C2B32866  23.191  19.757   4.259 -0.1024 -0.0274  0.2441
 1370BOLB   C3B32867  23.377  19.639   3.917  0.1272 -0.6033 -0.2742
 1370BOLB   C4B32868  23.307  19.496   3.466 -0.0555 -0.0992  0.1467
 1370BOLB   NC232869  23.278  17.720   3.803 -0.0874 -0.3645  0.0126
 1370BOLB   PO232870  23.175  18.112   3.475 -0.1177  0.1190  0.1115
 1370BOLB   GL332871  23.406  18.480   3.345  0.1151  0.0194 -0.2050
 1370BOLB   GL432872  23.614  18.689   3.554 -0.0324  0.0217 -0.2111
 1370BOLB   C1C32873  23.327  18.803   3.119 -0.0410 -0.1808 -0.0478
 1370BOLB   C2C32874  23.001  19.068   3.056 -0.2051 -0.0253 -0.0424
 1370BOLB   C3C32875  22.902  19.487   3.109 -0.2376 -0.1070  0.1042
 1370BOLB   C4C32876  22.913  19.792   3.146  0.0910 -0.0688  0.1315
 1370BOLB   C1D32877  23.772  18.869   3.273 -0.2220  0.0600 -0.0027
 1370BOLB   C2D32878  23.676  18.953   2.846  0.3102 -0.0824 -0.3095
 1370BOLB   C3D32879  23.844  18.646   2.425  0.2083 -0.0337  0.3195
 1370BOLB   C4D32880  24.118  18.372   2.160  0.3333 -0.3907  0.0999
 1371BOLB   NC132881  25.380  37.235  19.944  0.1671  0.1332 -0.0535
 1371BOLB   PO132882  25.582  37.637  19.941 -0.1998  0.0165  0.1778
 1371BOLB   GL132883  25.517  37.989  19.617  0.0997  0.0335  0.0900
 1371BOLB   GL232884  25.812  38.165  19.460 -0.0415  0.0557 -0.1130
 1371BOLB   C1A32885  25.178  38.283  19.673  0.0435 -0.1383  0.1681
 1371BOLB   C2A32886  24.822  38.564  19.520 -0.0677 -0.1466 -0.1192
 1371BOLB   C3A32887  24.505  38.889  19.323 -0.3895 -0.0822  0.1152
 1371BOLB   C4A32888  24.197  39.329  19.453  0.2011 -0.1904 -0.0670
 1371BOLB   C1B32889  25.514  38.508  19.350 -0.0405 -0.0813 -0.0485
 1371BOLB   C2B32890  25.510  38.950  19.096  0.3912 -0.0742  0.1830
 1371BOLB   C3B32891  25.260  39.301  19.100  0.1124  0.1559 -0.0545
 1371BOLB   C4B32892  25.243  39.667  19.256 -0.1483  0.1025  0.0528
 1371BOLB   NC232893  23.562  41.975  20.237  0.3266  0.0369  0.1773
 1371BOLB   PO232894  23.629  41.506  20.252  0.2068  0.0219  0.3194
 1371BOLB   GL332895  23.653  41.082  20.168  0.2377  0.0951 -0.2175
 1371BOLB   GL432896  23.588  40.984  20.469  0.0076 -0.0718 -0.2140
 1371BOLB   C1C32897  23.820  40.652  19.935  0.1408 -0.1361 -0.0975
 1371BOLB   C2C32898  23.752  40.293  20.166 -0.0327  0.0057  0.1355
 1371BOLB   C3C32899  23.931  40.020  19.913  0.2978 -0.0361  0.0481
 1371BOLB   C4C32900  24.069  39.574  19.797  0.1125  0.3182 -0.1431
 1371BOLB   C1D32901  23.890  40.710  20.458 -0.0793 -0.3143  0.2617
 1371BOLB   C2D32902  24.162  40.367  20.427 -0.1776 -0.1009  0.2085
 1371BOLB   C3D32903  24.092  39.896  20.428  0.1899  0.2367  0.1189
 1371BOLB   C4D32904  23.826  39.586  20.228 -0.0912 -0.1877  0.1763
 1372BOLB   NC132905  26.388  16.033  24.176  0.0619  0.1410  0.0015
 1372BOLB   PO132906  26.077  16.015  24.440 -0.1928 -0.3217  0.1964
 1372BOLB   GL132907  25.984  16.351  24.649  0.0395  0.1004 -0.2381
 1372BOLB   GL232908  26.233  16.606  24.722 -0.0690  0.0896 -0.1460
 1372BOLB   C1A32909  25.735  16.626  24.834  0.4121  0.1306 -0.1050
 1372BOLB   C2A32910  25.464  16.896  24.753  0.2017  0.1725  0.2548
 1372BOLB   C3A32911  25.002  16.957  24.788  0.0201  0.3878 -0.1597
 1372BOLB   C4A32912  24.604  16.869  24.604 -0.1497 -0.1602 -0.1811
 1372BOLB   C1B32913  26.632  16.850  24.722 -0.1795 -0.0733  0.4177
 1372BOLB   C2B32914  26.718  17.311  24.638  0.1705 -0.2779 -0.0355
 1372BOLB   C3B32915  26.584  17.692  24.729 -0.2744  0.0555 -0.2027
 1372BOLB   C4B32916  26.253  18.032  24.547  0.4201 -0.0516 -0.0450
 1372BOLB   NC232917  22.871  15.711  23.901 -0.2768 -0.2199 -0.1513
 1372BOLB   PO232918  23.183  15.583  24.090 -0.0703  0.1471  0.0964
 1372BOLB   GL332919  23.429  15.995  24.239  0.1793 -0.0030  0.2491
 1372BOLB   GL432920  23.572  16.090  24.500  0.2149  0.0662 -0.1403
 1372BOLB   C1C32921  23.236  16.407  24.195 -0.2824  0.2541 -0.2246
 1372BOLB   C2C32922  23.571  16.681  24.125 -0.1320  0.0102  0.3979
 1372BOLB   C3C32923  23.856  16.912  24.226  0.0256 -0.0975 -0.1774
 1372BOLB   C4C32924  24.196  16.875  24.393 -0.0014  0.1010 -0.0970
 1372BOLB   C1D32925  23.392  16.522  24.744  0.3195 -0.1344 -0.2160
 1372BOLB   C2D32926  23.289  16.966  24.734 -0.0246 -0.1240 -0.0013
 1372BOLB   C3D32927  23.518  17.346  24.988 -0.0101 -0.3215 -0.0619
 1372BOLB   C4D32928  23.704  17.647  24.890 -0.0926  0.0320  0.0106
 1373BOLB   NC132929  35.711  31.705  20.621 -0.4528 -0.2261  0.1361
 1373BOLB   PO132930  35.815  31.892  21.001 -0.1833 -0.0937 -0.2690
 1373BOLB   GL132931  36.121  32.024  20.785  0.2804 -0.2592  0.1156
 1373BOLB   GL232932  36.127  32.209  20.518  0.1667  0.1372 -0.1887
 1373BOLB   C1A32933  36.480  31.923  20.812 -0.3194 -0.1244 -0.1686
 1373BOLB   C2A32934  36.905  31.938  20.615 -0.0784  0.2777 -0.1468
 1373BOLB   C3A32935  37.206  31.991  20.403  0.0448 -0.1042  0.2143
 1373BOLB   C4A32936  37.619  31.986  20.496  0.0594 -0.4058  0.0340
 1373BOLB   C1B32937  36.477  32.389  20.680 -0.1362 -0.2092 -0.0706
 1373BOLB   C2B32938  36.926  32.480  20.828  0.0786 -0.1945 -0.1212
 1373BOLB   C3B32939  37.062  32.754  21.106 -0.2268 -0.3782  0.3080
 1373BOLB   C4B32940  37.259  33.030  21.370  0.0500  0.0557 -0.4744
 1373BOLB   NC232941  39.796  32.827  19.642  0.0951  0.2455 -0.0704
 1373BOLB   PO232942  39.872  32.368  19.791  0.0837  0.2270 -0.1404
 1373BOLB   GL332943  39.485  32.468  19.799  0.0692  0.1055  0.1941
 1373BOLB   GL432944  39.331  32.610  19.492  0.0487  0.1440 -0.0726
 1373BOLB   C1C32945  39.106  32.218  19.793  0.0982  0.0848  0.0193
 1373BOLB   C2C32946  38.769  32.340  20.109  0.1695 -0.3040  0.3152
 1373BOLB   C3C32947  38.393  32.254  20.420  0.0155 -0.1435 -0.0810
 1373BOLB   C4C32948  38.039  32.095  20.567  0.1587  0.3632 -0.0578
 1373BOLB   C1D32949  38.985  32.398  19.276 -0.1521  0.0292 -0.1245
 1373BOLB   C2D32950  38.738  31.946  19.419  0.1070  0.1305 -0.2540
 1373BOLB   C3D32951  38.439  31.665  19.513  0.0383 -0.0377 -0.0143
 1373BOLB   C4D32952  38.090  31.654  19.845 -0.0979 -0.2310  0.1885
 1374BOLB   NC132953  35.355  26.996  22.264 -0.3237  0.0116 -0.1243
 1374BOLB   PO132954  35.415  26.887  22.663  0.0291 -0.2669  0.1193
 1374BOLB   GL132955  35.722  27.040  22.796 -0.2082 -0.1345  0.0223
 1374BOLB   GL232956  35.884  26.827  23.084  0.1559 -0.0153 -0.3256
 1374BOLB   C1A32957  36.215  26.754  22.663 -0.1383 -0.0757  0.0631
 1374BOLB   C2A32958  36.587  26.869  22.432  0.1144 -0.0014 -0.4224
 1374BOLB   C3A32959  36.924  27.015  22.540  0.1927  0.0400  0.1351
 1374BOLB   C4A32960  37.302  27.076  22.461  0.2499 -0.2178 -0.0285
 1374BOLB   C1B32961  35.966  26.781  23.505  0.0167  0.0395  0.2293
 1374BOLB   C2B32962  36.191  27.032  23.759  0.0080 -0.0188  0.3622
 1374BOLB   C3B32963  36.363  27.230  24.119 -0.0456 -0.0224  0.0255
 1374BOLB   C4B32964  36.381  27.034  24.420 -0.0704 -0.2474  0.2714
 1374BOLB   NC232965  39.690  26.803  22.890  0.0554 -0.2454  0.1717
 1374BOLB   PO232966  39.671  27.119  22.730 -0.0909 -0.0353 -0.0607
 1374BOLB   GL332967  39.333  27.256  22.780 -0.1850 -0.3231  0.1431
 1374BOLB   GL432968  39.239  27.412  22.422 -0.3442 -0.0293 -0.0912
 1374BOLB   C1C32969  38.916  27.497  23.007  0.1619  0.1822 -0.0179
 1374BOLB   C2C32970  38.438  27.283  22.870  0.1363 -0.3398 -0.3216
 1374BOLB   C3C32971  38.031  27.300  22.842  0.0315 -0.2080  0.0173
 1374BOLB   C4C32972  37.579  27.276  22.725 -0.1626  0.3220 -0.1365
 1374BOLB   C1D32973  38.886  27.587  22.541 -0.2199 -0.1486  0.0427
 1374BOLB   C2D32974  38.498  27.729  22.511 -0.0053 -0.0828  0.0627
 1374BOLB   C3D32975  38.164  28.001  22.539 -0.3676 -0.0079 -0.0439
 1374BOLB   C4D32976  38.100  28.271  22.699 -0.0709  0.1980 -0.0360
 1375BOLB   NC132977  24.913  22.359  18.715 -0.0639  0.1270 -0.1862
 1375BOLB   PO132978  24.689  22.406  18.359 -0.2734  0.2330  0.3175
 1375BOLB   GL132979  24.699  22.236  17.843  0.0078 -0.2617 -0.1880
 1375BOLB   GL232980  24.479  22.204  17.640 -0.0183  0.0784  0.2840
 1375BOLB   C1A32981  24.781  21.793  17.703  0.0131 -0.0499 -0.2318
 1375BOLB   C2A32982  24.723  21.512  17.344 -0.0215 -0.0582  0.0581
 1375BOLB   C3A32983  24.498  21.279  17.272 -0.1017 -0.2386 -0.1323
 1375BOLB   C4A32984  24.265  21.158  16.925 -0.0773 -0.2586 -0.1727
 1375BOLB   C1B32985  24.400  21.902  17.389 -0.3247  0.3441 -0.2536
 1375BOLB   C2B32986  24.169  21.661  17.132  0.1631 -0.2068 -0.0371
 1375BOLB   C3B32987  23.810  21.450  16.896  0.1009 -0.0933 -0.2819
 1375BOLB   C4B32988  23.591  21.196  16.606 -0.1287  0.1149  0.3254
 1375BOLB   NC232989  24.593  19.328  15.521  0.2096 -0.4521 -0.0834
 1375BOLB   PO232990  24.349  19.282  15.798 -0.0260  0.2379 -0.2787
 1375BOLB   GL332991  24.445  19.544  16.088 -0.1491 -0.0154  0.2904
 1375BOLB   GL432992  24.692  19.711  15.971 -0.1455 -0.0178  0.2015
 1375BOLB   C1C32993  24.515  19.790  16.463 -0.2770 -0.2556  0.0581
 1375BOLB   C2C32994  24.344  19.958  16.814 -0.2447  0.0678  0.1430
 1375BOLB   C3C32995  24.152  20.418  16.992  0.0610  0.1814 -0.0569
 1375BOLB   C4C32996  24.207  20.803  16.951 -0.0563  0.0066 -0.0889
 1375BOLB   C1D32997  24.753  20.159  15.773 -0.0062  0.1460  0.3014
 1375BOLB   C2D32998  24.481  20.477  15.824  0.0764 -0.0687 -0.1096
 1375BOLB   C3D32999  24.428  20.765  16.130 -0.0666 -0.4970 -0.3009
 1375BOLB   C4D33000  24.216  21.025  16.445  0.2620 -0.3347  0.1459
 1376BOLB   NC133001  25.640  37.951  21.022 -0.0891 -0.0071 -0.0520
 1376BOLB   PO133002  26.019  37.936  20.794 -0.0016  0.3969 -0.5438
 1376BOLB   GL133003  25.793  38.421  20.963 -0.0005  0.0828 -0.0555
 1376BOLB   GL233004  25.754  38.617  20.664  0.4361  0.0638  0.4137
 1376BOLB   C1A33005  25.655  38.754  21.291 -0.1862 -0.1160 -0.1108
 1376BOLB   C2A33006  25.655  39.195  21.382 -0.2258 -0.1635  0.2575
 1376BOLB   C3A33007  25.734  39.615  21.289  0.0282 -0.4541  0.1443
 1376BOLB   C4A33008  25.746  40.027  21.347 -0.2939 -0.0467  0.1696
 1376BOLB   C1B33009  25.612  38.985  20.517 -0.0365  0.2472 -0.0243
 1376BOLB   C2B33010  25.296  39.269  20.476  0.0351  0.2375  0.0078
 1376BOLB   C3B33011  25.141  39.697  20.235 -0.0305 -0.1414  0.0660
 1376BOLB   C4B33012  24.893  40.079  20.248  0.2119  0.1635 -0.0314
 1376BOLB   NC233013  25.954  42.492  22.436 -0.0081 -0.1385  0.2425
 1376BOLB   PO233014  26.001  41.955  22.602  0.3467  0.0166 -0.1458
 1376BOLB   GL333015  25.896  41.618  22.410  0.2726 -0.1315  0.1304
 1376BOLB   GL433016  25.986  41.437  22.677  0.0163 -0.1529  0.2007
 1376BOLB   C1C33017  25.826  41.225  22.244 -0.0247  0.0523 -0.0732
 1376BOLB   C2C33018  25.797  41.033  21.883 -0.2582  0.3545  0.0320
 1376BOLB   C3C33019  25.891  40.688  21.635 -0.3794  0.2767 -0.1227
 1376BOLB   C4C33020  26.049  40.363  21.467  0.2270  0.1706  0.1737
 1376BOLB   C1D33021  25.820  41.025  22.739 -0.2419 -0.2674 -0.1229
 1376BOLB   C2D33022  25.771  40.672  22.721 -0.0722  0.2565  0.1864
 1376BOLB   C3D33023  25.915  40.358  22.561  0.1239  0.0197  0.0301
 1376BOLB   C4D33024  26.211  40.033  22.322 -0.0253  0.1039 -0.0492
 1377BOLB   NC133025  27.221  37.692  19.428  0.1111 -0.2694  0.1380
 1377BOLB   PO133026  27.375  37.571  19.023  0.1135 -0.1869  0.2105
 1377BOLB   GL133027  26.970  37.893  18.995 -0.2227  0.0552 -0.0952
 1377BOLB   GL233028  26.594  37.916  18.951  0.2333 -0.3420 -0.3108
 1377BOLB   C1A33029  26.951  38.257  19.055 -0.0934 -0.3792 -0.1253
 1377BOLB   C2A33030  26.897  38.530  18.687 -0.0465  0.0942 -0.0195
 1377BOLB   C3A33031  26.841  38.939  18.662 -0.0168 -0.2611 -0.1904
 1377BOLB   C4A33032  27.029  39.274  18.495 -0.0411  0.0530 -0.2208
 1377BOLB   C1B33033  26.401  38.310  18.714  0.0165 -0.1243  0.1415
 1377BOLB   C2B33034  26.146  38.626  18.399 -0.0949 -0.0022 -0.0815
 1377BOLB   C3B33035  26.045  38.761  17.940  0.0184  0.0931  0.0306
 1377BOLB   C4B33036  26.054  38.704  17.433 -0.0634  0.4260  0.0086
 1377BOLB   NC233037  27.600  41.566  18.367 -0.0146 -0.5222  0.3555
 1377BOLB   PO233038  27.513  41.701  17.979  0.1878  0.0417 -0.0001
 1377BOLB   GL333039  27.469  41.240  18.049  0.1095  0.1247 -0.0449
 1377BOLB   GL433040  27.594  41.053  18.307 -0.3004  0.0818 -0.2131
 1377BOLB   C1C33041  27.268  40.874  17.916  0.1407  0.0305  0.1335
 1377BOLB   C2C33042  27.112  40.397  18.049  0.1675  0.1861  0.0582
 1377BOLB   C3C33043  27.086  40.001  18.325  0.0712  0.0593 -0.0128
 1377BOLB   C4C33044  27.267  39.600  18.220 -0.0229 -0.1086 -0.1308
 1377BOLB   C1D33045  27.371  40.689  18.381  0.1813  0.2646 -0.0293
 1377BOLB   C2D33046  27.376  40.287  18.667  0.1350  0.2715 -0.3431
 1377BOLB   C3D33047  27.502  39.904  18.546 -0.1386  0.1049 -0.4339
 1377BOLB   C4D33048  27.528  39.399  18.592 -0.2755 -0.1539  0.4794
 1378BOLB   NC133049  23.705  30.741  14.070 -0.0117  0.0130 -0.2983
 1378BOLB   PO133050  23.254  30.660  14.158  0.0888  0.1796  0.2000
 1378BOLB   GL133051  22.930  30.698  13.938  0.0435 -0.0675 -0.1092
 1378BOLB   GL233052  22.821  30.923  14.077  0.0793  0.1596  0.1530
 1378BOLB   C1A33053  22.675  30.883  13.633  0.0829 -0.4323 -0.0987
 1378BOLB   C2A33054  22.229  30.943  13.487 -0.0885 -0.2530  0.4153
 1378BOLB   C3A33055  21.982  31.020  13.124 -0.1275 -0.1598 -0.2669
 1378BOLB   C4A33056  21.702  30.805  12.857  0.0225  0.3438 -0.1707
 1378BOLB   C1B33057  22.566  31.152  14.006  0.2478 -0.0594 -0.0546
 1378BOLB   C2B33058  22.444  31.370  13.643 -0.1421 -0.0219 -0.2837
 1378BOLB   C3B33059  22.248  31.451  13.210  0.4618 -0.0751 -0.0594
 1378BOLB   C4B33060  22.254  31.479  12.832  0.0648 -0.0503 -0.2063
 1378BOLB   NC233061  20.421  29.940  10.660 -0.3202  0.5038 -0.3290
 1378BOLB   PO233062  20.819  29.828  10.926 -0.0963 -0.3035 -0.0717
 1378BOLB   GL333063  20.973  29.961  11.318  0.0123  0.0645 -0.1812
 1378BOLB   GL433064  20.779  30.181  11.493 -0.0382 -0.0679  0.0006
 1378BOLB   C1C33065  21.327  30.000  11.639 -0.3050 -0.2696  0.0330
 1378BOLB   C2C33066  21.382  29.931  12.060 -0.2845  0.3096 -0.0868
 1378BOLB   C3C33067  21.456  30.017  12.491  0.0593 -0.0588  0.0071
 1378BOLB   C4C33068  21.583  30.377  12.807 -0.0913 -0.2724  0.0071
 1378BOLB   C1D33069  20.858  30.212  11.901 -0.2247 -0.0878  0.2912
 1378BOLB   C2D33070  20.947  30.265  12.341 -0.1049 -0.0114 -0.0689
 1378BOLB   C3D33071  21.141  30.522  12.570 -0.1096  0.1599  0.0490
 1378BOLB   C4D33072  21.462  30.885  12.433  0.0379 -0.1753 -0.3419
 1379BOLB   NC133073  16.681  35.408  21.548  0.0725 -0.1168  0.0958
 1379BOLB   PO133074  17.061  35.582  21.302  0.0406 -0.1475  0.0463
 1379BOLB   GL133075  17.373  35.268  21.313 -0.0048 -0.2698 -0.0356
 1379BOLB   GL233076  17.322  35.014  21.210 -0.2631  0.1867  0.3007
 1379BOLB   C1A33077  17.740  35.131  21.339 -0.1045  0.2138 -0.0986
 1379BOLB   C2A33078  18.109  34.792  21.444 -0.2940 -0.1465 -0.1323
 1379BOLB   C3A33079  18.114  34.431  21.610 -0.1381  0.3097  0.1222
 1379BOLB   C4A33080  18.293  33.970  21.565 -0.3511 -0.0070 -0.1336
 1379BOLB   C1B33081  17.501  34.595  21.250  0.0978 -0.2015 -0.1030
 1379BOLB   C2B33082  17.817  34.358  21.166 -0.2511  0.1850  0.1457
 1379BOLB   C3B33083  18.106  34.038  20.915  0.2831 -0.0773  0.2378
 1379BOLB   C4B33084  17.935  33.533  20.770  0.0948 -0.0215  0.3303
 1379BOLB   NC233085  15.592  33.738  22.057  0.0150 -0.0714 -0.0437
 1379BOLB   PO233086  16.011  33.513  22.100  0.3120  0.1189 -0.1890
 1379BOLB   GL333087  16.489  33.290  22.176  0.1881 -0.2213  0.2032
 1379BOLB   GL433088  16.517  33.154  22.393 -0.0812  0.0647  0.1848
 1379BOLB   C1C33089  16.945  33.152  22.103 -0.0100  0.1845  0.0617
 1379BOLB   C2C33090  17.298  33.283  21.796 -0.0044  0.2669  0.1022
 1379BOLB   C3C33091  17.731  33.313  21.816  0.3141  0.1054 -0.1756
 1379BOLB   C4C33092  18.099  33.557  21.825 -0.1339 -0.0923  0.2690
 1379BOLB   C1D33093  16.792  32.745  22.499  0.2192 -0.0222  0.1038
 1379BOLB   C2D33094  17.142  32.473  22.371 -0.1246  0.3711  0.0353
 1379BOLB   C3D33095  17.481  32.305  22.008  0.1472 -0.0756 -0.2769
 1379BOLB   C4D33096  17.932  32.259  22.050 -0.3833  0.1371  0.0560
 1380BOLB   NC133097  27.890  25.789  14.689 -0.0113  0.4756  0.0564
 1380BOLB   PO133098  28.111  25.974  14.406  0.0198 -0.1868  0.0505
 1380BOLB   GL133099  28.330  25.837  14.120  0.0537  0.0650 -0.0079
 1380BOLB   GL233100  28.644  25.898  14.193  0.1994 -0.1447  0.2202
 1380BOLB   C1A33101  28.528  25.438  13.891  0.0284  0.2435  0.0648
 1380BOLB   C2A33102  28.649  25.136  13.500  0.2618  0.2659 -0.1162
 1380BOLB   C3A33103  28.825  24.800  13.238  0.2115 -0.0463 -0.2509
 1380BOLB   C4A33104  28.855  24.399  13.088  0.1155  0.0101 -0.0288
 1380BOLB   C1B33105  28.740  25.953  13.700 -0.0761  0.1149 -0.1673
 1380BOLB   C2B33106  28.913  25.952  13.312 -0.0417 -0.3291  0.2845
 1380BOLB   C3B33107  29.214  25.764  13.052  0.1152  0.2213 -0.1641
 1380BOLB   C4B33108  29.394  25.559  12.706 -0.4615  0.0834 -0.2401
 1380BOLB   NC233109  29.097  22.823  11.932  0.1737 -0.1196  0.0034
 1380BOLB   PO233110  29.512  22.776  11.675 -0.1196  0.1320 -0.2992
 1380BOLB   GL333111  29.564  23.212  11.882 -0.1048  0.2048 -0.0085
 1380BOLB   GL433112  29.277  23.338  12.023 -0.0236  0.0556 -0.0316
 1380BOLB   C1C33113  29.754  23.258  12.326  0.1817 -0.2203  0.0748
 1380BOLB   C2C33114  29.867  23.641  12.607 -0.0381  0.0074  0.3039
 1380BOLB   C3C33115  29.507  23.868  12.847 -0.1834 -0.0503 -0.3096
 1380BOLB   C4C33116  29.242  24.160  13.042 -0.0092  0.0733  0.2571
 1380BOLB   C1D33117  28.969  23.676  12.215 -0.1800 -0.0517  0.0611
 1380BOLB   C2D33118  29.045  23.889  12.613  0.2298 -0.3353 -0.0497
 1380BOLB   C3D33119  28.831  24.273  12.589 -0.1239  0.1205  0.0341
 1380BOLB   C4D33120  28.937  24.656  12.615 -0.1458  0.1999  0.2525
 1381BOLB   NC133121  33.839  35.720  21.419  0.1449  0.5529  0.2070
 1381BOLB   PO133122  33.931  35.308  21.440  0.2648 -0.0464 -0.1459
 1381BOLB   GL133123  34.319  35.453  21.606 -0.0767 -0.0499  0.0037
 1381BOLB   GL233124  34.381  35.530  21.903 -0.0562 -0.0725 -0.1911
 1381BOLB   C1A33125  34.509  35.848  21.561 -0.4315  0.3194 -0.0060
 1381BOLB   C2A33126  34.622  36.221  21.504 -0.0243  0.0326  0.0061
 1381BOLB   C3A33127  34.911  36.440  21.548 -0.0521  0.0028 -0.1576
 1381BOLB   C4A33128  35.255  36.698  21.613  0.1051 -0.0649  0.0780
 1381BOLB   C1B33129  34.818  35.704  21.949 -0.2589  0.0116 -0.1521
 1381BOLB   C2B33130  34.979  36.026  21.830  0.1616 -0.0939  0.0218
 1381BOLB   C3B33131  35.182  36.358  22.039 -0.2031 -0.1998  0.1410
 1381BOLB   C4B33132  35.443  36.686  22.310  0.2047  0.1067  0.1986
 1381BOLB   NC233133  37.893  37.868  21.560  0.1164  0.3750  0.2350
 1381BOLB   PO233134  37.428  37.864  21.680 -0.0628 -0.0047  0.0643
 1381BOLB   GL333135  37.120  37.508  21.810 -0.0976  0.2028  0.1185
 1381BOLB   GL433136  36.913  37.602  21.969 -0.0867  0.2617 -0.0947
 1381BOLB   C1C33137  36.737  37.186  21.806 -0.2419 -0.3198 -0.2552
 1381BOLB   C2C33138  36.395  37.137  22.045 -0.1711 -0.3176  0.2112
 1381BOLB   C3C33139  35.906  37.039  21.924 -0.2436 -0.1466 -0.3128
 1381BOLB   C4C33140  35.608  36.944  21.776  0.0338 -0.2207  0.1845
 1381BOLB   C1D33141  36.562  37.556  22.173  0.1107  0.0728  0.3967
 1381BOLB   C2D33142  36.031  37.544  22.096 -0.2376  0.0349  0.2260
 1381BOLB   C3D33143  35.590  37.470  21.909  0.0016 -0.0395 -0.1116
 1381BOLB   C4D33144  35.356  37.303  21.536 -0.0423 -0.0075 -0.0700
 1382BOLB   NC133145  31.217  22.843  23.937  0.0509 -0.0553 -0.3129
 1382BOLB   PO133146  31.654  22.765  23.770  0.2937  0.0551 -0.2338
 1382BOLB   GL133147  31.975  22.381  23.875  0.1695  0.0214  0.3388
 1382BOLB   GL233148  31.967  22.451  24.189  0.0004  0.0013 -0.1617
 1382BOLB   C1A33149  32.167  21.987  23.907  0.3027 -0.0008  0.2085
 1382BOLB   C2A33150  32.075  21.575  23.979  0.0063 -0.0813  0.1305
 1382BOLB   C3A33151  32.007  21.212  23.904 -0.3165 -0.0058 -0.0105
 1382BOLB   C4A33152  31.916  20.834  23.743  0.2895 -0.0401 -0.0623
 1382BOLB   C1B33153  31.780  22.095  24.243  0.0706  0.1069 -0.3893
 1382BOLB   C2B33154  31.800  21.743  24.631 -0.0015  0.3322 -0.1514
 1382BOLB   C3B33155  31.772  21.383  24.883  0.1172 -0.1798  0.0565
 1382BOLB   C4B33156  31.983  20.990  24.784  0.1734 -0.0689  0.0820
 1382BOLB   NC233157  32.672  18.837  24.325  0.3168 -0.0161 -0.3061
 1382BOLB   PO233158  32.462  18.696  24.694 -0.0289  0.0123 -0.0627
 1382BOLB   GL333159  32.178  18.970  24.453  0.2928 -0.2577 -0.1106
 1382BOLB   GL433160  31.961  18.792  24.208  0.0598  0.0286  0.0688
 1382BOLB   C1C33161  32.170  19.376  24.528 -0.0698  0.0705 -0.3208
 1382BOLB   C2C33162  31.862  19.757  24.359 -0.0808  0.0162 -0.0326
 1382BOLB   C3C33163  31.861  20.068  24.128 -0.0010 -0.1160  0.0139
 1382BOLB   C4C33164  31.933  20.419  23.909 -0.2459  0.2317  0.1688
 1382BOLB   C1D33165  31.995  19.245  24.056  0.1022 -0.0049  0.4320
 1382BOLB   C2D33166  31.830  19.626  23.847 -0.0002 -0.0758 -0.1380
 1382BOLB   C3D33167  32.034  19.926  23.621  0.2482  0.1543  0.0008
 1382BOLB   C4D33168  32.379  20.136  23.829 -0.1951 -0.0665  0.0436
 1383BOLB   NC133169  23.465  23.542  18.098 -0.1885 -0.0364 -0.0319
 1383BOLB   PO133170  23.493  23.496  18.523  0.3313 -0.2215  0.5157
 1383BOLB   GL133171  23.362  23.093  18.336 -0.4441  0.0225 -0.0411
 1383BOLB   GL233172  23.466  22.951  18.722  0.0811 -0.1700  0.4037
 1383BOLB   C1A33173  23.087  22.695  18.259  0.1285 -0.0249  0.1304
 1383BOLB   C2A33174  22.721  22.494  18.124  0.2860  0.1038 -0.0200
 1383BOLB   C3A33175  22.550  22.011  18.068  0.2203  0.1713 -0.1723
 1383BOLB   C4A33176  22.475  21.629  18.036  0.0937  0.0247 -0.2861
 1383BOLB   C1B33177  23.253  22.616  18.686  0.0428 -0.0556  0.1426
 1383BOLB   C2B33178  23.311  22.190  18.392  0.2248  0.2269 -0.0185
 1383BOLB   C3B33179  23.470  22.026  18.040 -0.0247 -0.0952 -0.0157
 1383BOLB   C4B33180  23.465  22.127  17.579  0.3258 -0.0450 -0.2225
 1383BOLB   NC233181  21.988  19.723  16.301 -0.1195  0.1302  0.1662
 1383BOLB   PO233182  22.251  20.038  16.125 -0.0382 -0.1975 -0.1317
 1383BOLB   GL333183  22.319  20.167  16.479  0.0847 -0.0773 -0.1810
 1383BOLB   GL433184  22.600  20.105  16.647 -0.0748  0.2655 -0.4137
 1383BOLB   C1C33185  22.350  20.462  16.828  0.0104  0.1901 -0.1223
 1383BOLB   C2C33186  22.612  20.671  17.252 -0.0463 -0.0215  0.0069
 1383BOLB   C3C33187  22.728  20.991  17.611  0.3816 -0.0251 -0.1202
 1383BOLB   C4C33188  22.465  21.331  17.682  0.0108 -0.2503  0.0885
 1383BOLB   C1D33189  22.577  20.108  17.086 -0.2561  0.0635  0.1498
 1383BOLB   C2D33190  22.353  20.313  17.417 -0.2755 -0.2697  0.1406
 1383BOLB   C3D33191  22.129  20.669  17.271  0.0956  0.0616 -0.2179
 1383BOLB   C4D33192  21.812  20.791  16.952 -0.1427 -0.3460  0.0192
 1384BOLB   NC133193  30.540  24.327  26.494  0.1605 -0.0860 -0.4176
 1384BOLB   PO133194  30.532  24.183  26.859  0.0056  0.0933 -0.1774
 1384BOLB   GL133195  30.824  23.976   0.213 -0.0265  0.0818  0.1499
 1384BOLB   GL233196  30.589  23.840   0.363 -0.1958  0.0016  0.2173
 1384BOLB   C1A33197  31.033  23.851   0.583 -0.0907  0.0799 -0.0570
 1384BOLB   C2A33198  31.114  23.545   0.869  0.0018  0.2063  0.0938
 1384BOLB   C3A33199  31.338  23.686   1.280 -0.0906 -0.0235 -0.3453
 1384BOLB   C4A33200  31.674  23.553   1.509  0.4796  0.0005  0.0997
 1384BOLB   C1B33201  30.590  23.496   0.635  0.2245  0.0783 -0.2054
 1384BOLB   C2B33202  30.529  23.252   0.886 -0.2392 -0.1744 -0.1617
 1384BOLB   C3B33203  30.488  22.992   1.175 -0.0565  0.0220  0.3005
 1384BOLB   C4B33204  30.497  22.419   1.194  0.2922 -0.1271 -0.0448
 1384BOLB   NC233205  33.196  22.463   2.940  0.1111 -0.0237 -0.0430
 1384BOLB   PO233206  32.872  22.401   3.199 -0.2673  0.0712 -0.0585
 1384BOLB   GL333207  32.482  22.633   2.918  0.0991 -0.1629 -0.0181
 1384BOLB   GL433208  32.193  22.463   2.813  0.0016  0.2934 -0.1849
 1384BOLB   C1C33209  32.429  23.059   2.685  0.2406  0.0246 -0.1580
 1384BOLB   C2C33210  32.555  23.101   2.262  0.2631 -0.0630 -0.0012
 1384BOLB   C3C33211  32.497  23.336   1.976 -0.2259 -0.1329  0.0061
 1384BOLB   C4C33212  32.164  23.452   1.773 -0.1638  0.3655 -0.2914
 1384BOLB   C1D33213  32.364  22.640   2.349 -0.1306  0.0338 -0.0312
 1384BOLB   C2D33214  32.193  22.715   1.900 -0.0586  0.2860  0.1677
 1384BOLB   C3D33215  31.917  22.596   1.531 -0.2153 -0.0382 -0.3089
 1384BOLB   C4D33216  32.022  22.587   1.070  0.0359 -0.3839 -0.0665
 1385BOLB   NC133217  28.254  36.349  16.237  0.1977 -0.1406 -0.3521
 1385BOLB   PO133218  28.469  35.988  16.184  0.0734  0.0595 -0.0511
 1385BOLB   GL133219  28.363  36.125  15.746 -0.1595 -0.0468 -0.1201
 1385BOLB   GL233220  28.559  36.333  15.811 -0.3202 -0.1809 -0.0525
 1385BOLB   C1A33221  28.615  36.263  15.323  0.0126  0.4189 -0.0288
 1385BOLB   C2A33222  28.503  36.621  15.039 -0.1125  0.0531  0.0863
 1385BOLB   C3A33223  28.540  36.956  14.743 -0.0281 -0.3907  0.1093
 1385BOLB   C4A33224  28.690  37.375  14.457  0.1765  0.0657 -0.1473
 1385BOLB   C1B33225  28.296  36.605  15.506  0.0207 -0.2499 -0.3182
 1385BOLB   C2B33226  27.987  36.833  15.274 -0.0433  0.0798  0.0609
 1385BOLB   C3B33227  27.891  37.177  14.958 -0.2150  0.3451  0.0586
 1385BOLB   C4B33228  27.913  37.693  14.975 -0.2046 -0.0327 -0.1110
 1385BOLB   NC233229  27.856  39.381  13.025 -0.1044 -0.1538 -0.0718
 1385BOLB   PO233230  27.546  39.099  13.281  0.1285  0.2460 -0.2261
 1385BOLB   GL333231  27.718  38.734  13.377  0.0511  0.0724 -0.4806
 1385BOLB   GL433232  27.786  38.804  13.753 -0.1047 -0.2638  0.1695
 1385BOLB   C1C33233  27.726  38.367  13.537 -0.1058  0.1765  0.0232
 1385BOLB   C2C33234  27.946  38.005  13.577 -0.1149 -0.1391 -0.0530
 1385BOLB   C3C33235  28.169  37.738  13.819  0.0072  0.1880  0.1973
 1385BOLB   C4C33236  28.312  37.493  14.136  0.1312  0.0012 -0.1974
 1385BOLB   C1D33237  27.431  38.637  13.966  0.3264 -0.0755 -0.0011
 1385BOLB   C2D33238  27.153  38.360  14.226 -0.0841  0.0795 -0.0182
 1385BOLB   C3D33239  26.886  38.036  14.376 -0.5770 -0.1488 -0.0510
 1385BOLB   C4D33240  26.803  37.590  14.472 -0.0981 -0.2569  0.2447
 1386BOLB   NC133241  25.642  35.655  17.163 -0.1722 -0.1522  0.4497
 1386BOLB   PO133242  25.581  35.937  16.769 -0.0086  0.1402  0.0683
 1386BOLB   GL133243  25.337  36.258  16.455  0.0404 -0.1157  0.1931
 1386BOLB   GL233244  25.084  36.083  16.450 -0.1503 -0.0673 -0.2925
 1386BOLB   C1A33245  25.225  36.661  16.245 -0.0173  0.3526 -0.4488
 1386BOLB   C2A33246  25.056  37.017  16.054  0.0902  0.0709  0.0872
 1386BOLB   C3A33247  24.754  37.318  15.974  0.1263 -0.1155  0.0520
 1386BOLB   C4A33248  24.625  37.697  15.868 -0.0867  0.2315 -0.1837
 1386BOLB   C1B33249  24.818  36.449  16.381  0.0118  0.1170  0.5055
 1386BOLB   C2B33250  24.835  36.836  16.617 -0.1637  0.4958  0.1002
 1386BOLB   C3B33251  24.871  37.211  16.465  0.1078  0.0162  0.1578
 1386BOLB   C4B33252  24.848  37.667  16.407 -0.0924  0.1264 -0.0452
 1386BOLB   NC233253  23.726  39.109  14.371  0.2965  0.2066 -0.0559
 1386BOLB   PO233254  23.627  38.819  13.987  0.0957  0.2584  0.0122
 1386BOLB   GL333255  24.043  38.645  14.228 -0.0198  0.5536 -0.0983
 1386BOLB   GL433256  24.362  38.615  14.051  0.1960 -0.3880 -0.0060
 1386BOLB   C1C33257  24.372  38.468  14.511 -0.2385 -0.0806  0.2164
 1386BOLB   C2C33258  24.617  38.392  14.925 -0.0758 -0.0268 -0.1268
 1386BOLB   C3C33259  24.641  38.363  15.371  0.2495  0.1792 -0.0436
 1386BOLB   C4C33260  24.511  37.985  15.577  0.0211 -0.1685 -0.0324
 1386BOLB   C1D33261  24.590  38.217  14.080  0.0337 -0.2714 -0.1990
 1386BOLB   C2D33262  24.553  37.697  14.161 -0.1052  0.0371 -0.0009
 1386BOLB   C3D33263  24.549  37.301  14.316 -0.3167  0.0305 -0.1968
 1386BOLB   C4D33264  24.691  37.146  14.765 -0.0168  0.4488 -0.0679
 1387BOLB   NC133265  35.201  30.588  24.924  0.1848 -0.0515 -0.1431
 1387BOLB   PO133266  34.999  30.128  25.139 -0.0907  0.1385 -0.2090
 1387BOLB   GL133267  35.362  30.135  25.443  0.0004 -0.0606  0.1329
 1387BOLB   GL233268  35.593  30.211  25.174 -0.1318 -0.1101  0.0623
 1387BOLB   C1A33269  35.719  30.057  25.662 -0.3343 -0.1610 -0.0615
 1387BOLB   C2A33270  36.108  30.004  25.865 -0.1519  0.0512 -0.0021
 1387BOLB   C3A33271  36.616  29.884  25.941 -0.0897 -0.0615  0.0297
 1387BOLB   C4A33272  36.986  29.966  25.809 -0.0163 -0.4127 -0.2755
 1387BOLB   C1B33273  35.911  30.246  25.290  0.0095 -0.2715 -0.1588
 1387BOLB   C2B33274  36.326  30.182  25.439  0.2593 -0.0907  0.3952
 1387BOLB   C3B33275  36.752  30.186  25.431  0.1027  0.0706 -0.0636
 1387BOLB   C4B33276  37.185  30.156  25.292 -0.1216 -0.1974 -0.3842
 1387BOLB   NC233277  39.223  28.723  26.623  0.3486  0.3418 -0.0432
 1387BOLB   PO233278  39.167  29.169  26.556 -0.1526  0.1499  0.1193
 1387BOLB   GL333279  38.752  29.272  26.390 -0.0943 -0.3986  0.0406
 1387BOLB   GL433280  38.594  29.132  26.142  0.0757  0.0450  0.1520
 1387BOLB   C1C33281  38.420  29.625  26.078  0.3574  0.1906 -0.1809
 1387BOLB   C2C33282  38.145  29.948  25.989 -0.0236  0.0192 -0.0537
 1387BOLB   C3C33283  37.799  30.030  25.826 -0.1840 -0.1311  0.1389
 1387BOLB   C4C33284  37.407  30.078  25.823 -0.3507 -0.4156 -0.1031
 1387BOLB   C1D33285  38.449  28.797  25.951 -0.1975  0.1630 -0.1905
 1387BOLB   C2D33286  38.219  28.751  25.576  0.1481  0.0400  0.2322
 1387BOLB   C3D33287  38.156  28.551  25.140 -0.0151  0.3203 -0.3187
 1387BOLB   C4D33288  37.943  28.158  24.973  0.2474  0.2187 -0.2357
 1388BOLB   NC133289  23.276  35.642  18.185  0.2082 -0.0774 -0.1996
 1388BOLB   PO133290  22.899  35.718  18.337 -0.1724  0.1205  0.3341
 1388BOLB   GL133291  22.455  35.775  18.177 -0.1674 -0.2438 -0.0329
 1388BOLB   GL233292  22.430  35.517  18.027  0.2178 -0.0890  0.1469
 1388BOLB   C1A33293  22.260  36.099  18.280  0.0775 -0.2459 -0.1687
 1388BOLB   C2A33294  22.394  36.366  18.007  0.0094  0.1531  0.3641
 1388BOLB   C3A33295  22.277  36.725  17.838  0.2698  0.0796 -0.0117
 1388BOLB   C4A33296  22.236  37.275  17.914 -0.3388 -0.0387 -0.3859
 1388BOLB   C1B33297  22.109  35.526  17.751 -0.3219  0.2768  0.0375
 1388BOLB   C2B33298  21.877  35.799  17.637  0.2565 -0.1252 -0.1231
 1388BOLB   C3B33299  21.854  36.150  17.401 -0.2328 -0.0441 -0.1816
 1388BOLB   C4B33300  22.066  36.103  17.067  0.0461 -0.0869  0.0631
 1388BOLB   NC233301  21.669  39.173  17.676 -0.1604  0.1278 -0.1514
 1388BOLB   PO233302  21.829  39.536  17.851  0.1466  0.1733  0.3440
 1388BOLB   GL333303  21.853  39.267  18.180  0.0193  0.1497 -0.1913
 1388BOLB   GL433304  21.828  39.365  18.501  0.2483 -0.2216 -0.5657
 1388BOLB   C1C33305  22.033  38.852  18.099  0.0558  0.1264  0.4058
 1388BOLB   C2C33306  22.379  38.622  18.110 -0.0086 -0.4008 -0.0485
 1388BOLB   C3C33307  22.471  38.197  18.194  0.0265 -0.0510  0.0671
 1388BOLB   C4C33308  22.461  37.787  18.000 -0.0655  0.4468 -0.2272
 1388BOLB   C1D33309  22.231  39.158  18.789 -0.1754  0.3662 -0.1619
 1388BOLB   C2D33310  22.175  38.871  19.135  0.1427 -0.0928 -0.1467
 1388BOLB   C3D33311  22.284  38.517  19.268 -0.0819 -0.1054 -0.0199
 1388BOLB   C4D33312  22.241  38.043  19.377  0.2557 -0.2547 -0.1755
 1389BOLB   NC133313  17.587  17.750  19.553 -0.1159  0.1715  0.3812
 1389BOLB   PO133314  17.558  18.155  19.673 -0.0657  0.1386 -0.0318
 1389BOLB   GL133315  17.731  18.558  19.821  0.0223 -0.2266  0.0520
 1389BOLB   GL233316  17.565  18.972  19.773  0.0496  0.0581 -0.1189
 1389BOLB   C1A33317  17.837  18.687  20.140 -0.0042  0.2835 -0.3915
 1389BOLB   C2A33318  18.102  18.832  20.427 -0.1200  0.5047  0.0006
 1389BOLB   C3A33319  18.401  18.982  20.362 -0.1927 -0.0299  0.0020
 1389BOLB   C4A33320  18.773  19.017  20.551  0.2068 -0.1259 -0.0027
 1389BOLB   C1B33321  17.703  19.174  20.328 -0.1112  0.0218  0.1226
 1389BOLB   C2B33322  17.863  19.271  20.717 -0.4191  0.2910  0.0552
 1389BOLB   C3B33323  17.691  19.571  20.958 -0.0553  0.1211  0.1932
 1389BOLB   C4B33324  17.790  20.082  20.977  0.2862  0.2016 -0.2797
 1389BOLB   NC233325  18.868  16.691  19.845  0.0528  0.0976  0.0280
 1389BOLB   PO233326  18.482  17.037  19.972 -0.1881  0.3782  0.5018
 1389BOLB   GL333327  18.647  17.291  20.287 -0.1038  0.0960 -0.0079
 1389BOLB   GL433328  18.390  17.425  20.366 -0.5364 -0.1813 -0.3007
 1389BOLB   C1C33329  18.878  17.608  20.500  0.1651  0.3435 -0.0790
 1389BOLB   C2C33330  19.016  17.934  20.343  0.2651 -0.1215  0.3489
 1389BOLB   C3C33331  19.155  18.331  20.526  0.0025 -0.1665 -0.0156
 1389BOLB   C4C33332  19.039  18.754  20.361  0.1511  0.1254 -0.2185
 1389BOLB   C1D33333  18.582  17.761  20.172 -0.1042 -0.1495 -0.3788
 1389BOLB   C2D33334  18.505  18.160  20.314 -0.1044  0.0469  0.2449
 1389BOLB   C3D33335  18.590  18.540  20.143 -0.0505 -0.1540  0.1865
 1389BOLB   C4D33336  18.753  18.914  20.038  0.1168  0.1629 -0.1316
 1390BOLB   NC133337  28.765  37.562  22.373  0.1174 -0.1253  0.0888
 1390BOLB   PO133338  28.932  38.043  22.329 -0.4509  0.1664 -0.3663
 1390BOLB   GL133339  29.055  38.418  22.204 -0.1459 -0.2404 -0.1038
 1390BOLB   GL233340  29.308  38.566  22.185 -0.0201  0.3970 -0.0116
 1390BOLB   C1A33341  28.886  38.915  22.299  0.2613  0.2510  0.1175
 1390BOLB   C2A33342  28.944  39.323  22.412 -0.0816 -0.0061 -0.2574
 1390BOLB   C3A33343  29.061  39.595  22.487  0.1044  0.1382  0.1594
 1390BOLB   C4A33344  29.102  40.014  22.455  0.0742 -0.1988  0.0650
 1390BOLB   C1B33345  29.315  39.095  22.085  0.1898  0.0387 -0.1803
 1390BOLB   C2B33346  29.474  39.387  22.299 -0.1246  0.0174  0.0504
 1390BOLB   C3B33347  29.552  39.685  22.630  0.0102  0.1362 -0.1307
 1390BOLB   C4B33348  29.869  39.965  22.783  0.2693 -0.2725  0.0874
 1390BOLB   NC233349  29.382  42.296  22.046 -0.4180 -0.4109  0.2639
 1390BOLB   PO233350  29.631  42.200  21.781  0.1237  0.0308 -0.1138
 1390BOLB   GL333351  29.471  41.806  21.671 -0.1567 -0.2238 -0.0224
 1390BOLB   GL433352  29.257  41.607  21.493  0.2533 -0.3125  0.0678
 1390BOLB   C1C33353  29.488  41.348  21.952 -0.0516 -0.2816 -0.0189
 1390BOLB   C2C33354  29.194  41.029  22.149  0.2418  0.4579  0.1968
 1390BOLB   C3C33355  28.971  40.690  22.356  0.0388  0.2995  0.0696
 1390BOLB   C4C33356  28.949  40.310  22.418  0.0742 -0.2177 -0.1187
 1390BOLB   C1D33357  29.415  41.195  21.456 -0.1823  0.3457  0.1755
 1390BOLB   C2D33358  29.549  40.863  21.838 -0.0605 -0.0443  0.1378
 1390BOLB   C3D33359  29.366  40.523  22.018  0.0025 -0.0716  0.1156
 1390BOLB   C4D33360  29.479  40.333  22.347 -0.0699 -0.0086  0.4109
 1391BOLB   NC133361  31.862  22.981  20.127  0.2544 -0.0303  0.1284
 1391BOLB   PO133362  32.082  23.104  19.780 -0.0892  0.0217  0.1817
 1391BOLB   GL133363  32.329  22.756  19.617  0.2931  0.2873  0.1858
 1391BOLB   GL233364  32.228  22.466  19.518 -0.0764  0.0063 -0.0147
 1391BOLB   C1A33365  32.726  22.675  19.366  0.2206  0.2582  0.1689
 1391BOLB   C2A33366  33.047  22.386  19.282  0.3858 -0.0725  0.3593
 1391BOLB   C3A33367  33.230  21.971  19.352 -0.2161 -0.2344  0.0748
 1391BOLB   C4A33368  33.664  21.646  19.323 -0.0888  0.1351 -0.1518
 1391BOLB   C1B33369  32.244  22.115  19.868 -0.2359 -0.1801 -0.0143
 1391BOLB   C2B33370  32.683  21.803  19.920  0.0336 -0.0270  0.4408
 1391BOLB   C3B33371  33.012  21.564  19.728  0.1002 -0.1490  0.0939
 1391BOLB   C4B33372  33.245  21.432  19.454  0.2847 -0.0543  0.0629
 1391BOLB   NC233373  35.503  21.006  18.410  0.1349 -0.1099 -0.1948
 1391BOLB   PO233374  35.369  20.687  18.057  0.1961  0.1433 -0.2668
 1391BOLB   GL333375  34.979  20.958  18.220  0.0612  0.0353 -0.0431
 1391BOLB   GL433376  34.782  20.839  18.042 -0.0986  0.0817 -0.1641
 1391BOLB   C1C33377  34.676  21.243  18.478  0.0963  0.3083 -0.2356
 1391BOLB   C2C33378  34.261  21.150  18.623 -0.1035 -0.1952  0.2466
 1391BOLB   C3C33379  34.188  21.101  18.976 -0.1802  0.0309 -0.0120
 1391BOLB   C4C33380  33.886  21.403  18.985 -0.0162 -0.0104 -0.1768
 1391BOLB   C1D33381  34.408  20.849  18.149  0.0502 -0.1240  0.0578
 1391BOLB   C2D33382  33.907  21.035  18.193  0.3974  0.1135 -0.1287
 1391BOLB   C3D33383  33.664  21.480  18.107  0.3943 -0.2166 -0.2599
 1391BOLB   C4D33384  33.411  21.809  17.960  0.1804 -0.3417  0.1139
 1392BOLB   NC133385  29.749  35.529   0.588 -0.0144  0.2648 -0.1059
 1392BOLB   PO133386  29.272  35.428   0.622 -0.3612  0.1486  0.1539
 1392BOLB   GL133387  29.316  35.855   0.849 -0.1299 -0.4381 -0.0651
 1392BOLB   GL233388  29.311  35.821   1.265 -0.0534  0.3903  0.0339
 1392BOLB   C1A33389  29.550  36.331   0.985 -0.1022  0.2730 -0.1137
 1392BOLB   C2A33390  29.523  36.768   1.099  0.1813  0.1102  0.1942
 1392BOLB   C3A33391  29.657  37.070   1.145 -0.1547  0.0096  0.2767
 1392BOLB   C4A33392  30.013  37.358   1.163  0.5059  0.1871  0.0130
 1392BOLB   C1B33393  29.490  35.891   1.632  0.1684  0.2659  0.2999
 1392BOLB   C2B33394  29.447  36.178   1.895  0.0181 -0.1928  0.0771
 1392BOLB   C3B33395  29.703  36.563   1.955  0.1140  0.0247 -0.1053
 1392BOLB   C4B33396  30.018  36.845   2.023 -0.3730  0.4027 -0.0278
 1392BOLB   NC233397  30.437  39.919   1.506 -0.2928 -0.1447 -0.1150
 1392BOLB   PO233398  30.453  39.486   1.335  0.0108 -0.0456 -0.2409
 1392BOLB   GL333399  30.452  39.315   1.056 -0.0874 -0.0761  0.1198
 1392BOLB   GL433400  30.228  39.460   0.864  0.1914  0.0293 -0.2032
 1392BOLB   C1C33401  30.617  38.926   0.858  0.2269 -0.0710 -0.0294
 1392BOLB   C2C33402  30.539  38.555   0.894  0.1141  0.3582 -0.3561
 1392BOLB   C3C33403  30.358  38.133   0.856 -0.1727  0.1770 -0.0649
 1392BOLB   C4C33404  30.119  37.693   0.928  0.0131 -0.2336 -0.3889
 1392BOLB   C1D33405  30.147  39.174   0.582 -0.0262  0.2098 -0.1456
 1392BOLB   C2D33406  30.243  38.719   0.539  0.1967  0.2643  0.2063
 1392BOLB   C3D33407  30.045  38.268   0.295 -0.1279 -0.0223  0.2760
 1392BOLB   C4D33408  29.839  37.982  26.923 -0.1571 -0.0299 -0.0005
 1393BOLB   NC133409  33.797  24.876  21.575 -0.2772  0.2192 -0.0593
 1393BOLB   PO133410  34.142  24.815  21.311 -0.2047  0.0662 -0.0204
 1393BOLB   GL133411  34.575  24.724  21.120 -0.1002  0.1547  0.0769
 1393BOLB   GL233412  34.840  24.711  21.338  0.1211  0.1026 -0.3573
 1393BOLB   C1A33413  34.845  24.376  20.964  0.0669 -0.1784  0.0611
 1393BOLB   C2A33414  35.046  24.076  20.714  0.1558 -0.0617 -0.1516
 1393BOLB   C3A33415  35.241  23.871  20.553 -0.1522  0.0468  0.1317
 1393BOLB   C4A33416  35.596  23.558  20.622  0.2599 -0.1929  0.0991
 1393BOLB   C1B33417  35.234  24.623  21.384  0.0653 -0.2530 -0.0434
 1393BOLB   C2B33418  35.662  24.358  21.369 -0.0068  0.1598  0.3231
 1393BOLB   C3B33419  35.992  24.277  21.159 -0.1060 -0.1702 -0.4002
 1393BOLB   C4B33420  36.081  24.048  20.835  0.1279  0.3265  0.1759
 1393BOLB   NC233421  37.830  23.169  19.712  0.1396 -0.0609 -0.0180
 1393BOLB   PO233422  37.587  22.659  19.892 -0.1153  0.1268  0.1096
 1393BOLB   GL333423  37.375  23.003  20.064  0.0971  0.0588 -0.1492
 1393BOLB   GL433424  37.383  23.280  19.919 -0.1156 -0.2085 -0.0851
 1393BOLB   C1C33425  37.030  23.200  20.270 -0.2003 -0.2159 -0.2642
 1393BOLB   C2C33426  36.714  23.351  20.556 -0.0559  0.3383 -0.1234
 1393BOLB   C3C33427  36.392  23.316  20.806  0.1209 -0.1693 -0.1335
 1393BOLB   C4C33428  35.956  23.457  20.892  0.2693  0.2183  0.1547
 1393BOLB   C1D33429  36.948  23.466  19.842  0.3065  0.2367 -0.3289
 1393BOLB   C2D33430  36.724  23.779  20.112  0.2046 -0.0526  0.1072
 1393BOLB   C3D33431  36.668  23.899  20.645 -0.0626  0.2091 -0.2404
 1393BOLB   C4D33432  36.543  23.807  21.098  0.0622 -0.0754 -0.0014
 1394BOLB   NC133433  19.790  15.825  22.318 -0.0430 -0.6828  0.4417
 1394BOLB   PO133434  19.920  16.161  22.507  0.2901 -0.2879  0.0626
 1394BOLB   GL133435  19.986  16.557  22.461 -0.1509  0.1639 -0.0291
 1394BOLB   GL233436  20.202  16.663  22.591  0.0221  0.2408  0.0237
 1394BOLB   C1A33437  19.973  17.073  22.448  0.3615  0.2571  0.1466
 1394BOLB   C2A33438  20.084  17.392  22.729  0.2826  0.1592 -0.0266
 1394BOLB   C3A33439  19.981  17.490  23.201 -0.2307 -0.0957 -0.1799
 1394BOLB   C4A33440  19.617  17.493  23.478  0.3301  0.1181  0.1213
 1394BOLB   C1B33441  20.457  17.006  22.659 -0.3082  0.3099 -0.0728
 1394BOLB   C2B33442  20.504  17.436  22.447  0.0826  0.3787  0.1637
 1394BOLB   C3B33443  20.491  17.842  22.265 -0.2533  0.0144 -0.0555
 1394BOLB   C4B33444  20.820  18.083  22.358 -0.0369 -0.2096  0.0868
 1394BOLB   NC233445  20.383  16.468  25.266 -0.0572  0.0891 -0.0412
 1394BOLB   PO233446  20.622  16.406  24.897  0.0099  0.3765 -0.4368
 1394BOLB   GL333447  20.550  16.839  24.852 -0.0879 -0.0506 -0.3250
 1394BOLB   GL433448  20.697  17.005  25.077 -0.4963  0.3602  0.3242
 1394BOLB   C1C33449  20.342  17.302  24.862  0.0375  0.0023  0.1095
 1394BOLB   C2C33450  20.107  17.581  24.737 -0.0120  0.0637 -0.0409
 1394BOLB   C3C33451  19.802  17.743  24.500  0.0112  0.2671 -0.1339
 1394BOLB   C4C33452  19.631  17.636  24.071 -0.0966  0.2506 -0.1210
 1394BOLB   C1D33453  20.867  17.329  25.443 -0.3999  0.1508  0.0210
 1394BOLB   C2D33454  21.264  17.644  25.168  0.2551  0.0678  0.0957
 1394BOLB   C3D33455  21.676  17.893  25.184  0.0400  0.0431 -0.1269
 1394BOLB   C4D33456  21.846  18.295  25.072 -0.2181  0.2339  0.0140
 1395BOLB   NC133457  28.492  28.928   3.137  0.2584  0.0993 -0.0279
 1395BOLB   PO133458  28.901  28.623   3.133  0.1059 -0.0461 -0.3782
 1395BOLB   GL133459  28.468  28.538   3.514 -0.2738  0.2018  0.1217
 1395BOLB   GL233460  28.387  28.202   3.606  0.2875  0.3214 -0.1506
 1395BOLB   C1A33461  28.476  28.602   3.970  0.2994  0.0862 -0.1854
 1395BOLB   C2A33462  28.698  28.650   4.305 -0.0854 -0.1337 -0.1204
 1395BOLB   C3A33463  28.941  29.059   4.532  0.1430 -0.1975 -0.1728
 1395BOLB   C4A33464  29.102  28.931   5.037  0.1343  0.1322  0.0262
 1395BOLB   C1B33465  28.313  27.912   3.925  0.2119 -0.2479 -0.1870
 1395BOLB   C2B33466  28.069  27.725   4.285  0.1409 -0.1840  0.1663
 1395BOLB   C3B33467  28.120  27.525   4.657  0.0808 -0.1756 -0.0293
 1395BOLB   C4B33468  27.880  27.291   4.943 -0.0877  0.1499 -0.1212
 1395BOLB   NC233469  30.445  27.646   6.919 -0.3330 -0.2300  0.0438
 1395BOLB   PO233470  30.708  27.970   6.711  0.1527 -0.0919  0.0916
 1395BOLB   GL333471  30.634  28.258   6.336  0.2602 -0.2207 -0.0808
 1395BOLB   GL433472  30.807  28.552   6.188 -0.1027 -0.2173 -0.0471
 1395BOLB   C1C33473  30.294  28.337   6.151  0.0368  0.1893  0.0663
 1395BOLB   C2C33474  29.980  28.506   5.848  0.2408  0.1998 -0.1677
 1395BOLB   C3C33475  29.555  28.694   5.768 -0.0638 -0.0424  0.0420
 1395BOLB   C4C33476  29.266  28.868   5.474 -0.1433 -0.1245 -0.1378
 1395BOLB   C1D33477  31.183  28.240   6.096  0.0228 -0.0066 -0.0584
 1395BOLB   C2D33478  31.258  28.200   5.709  0.1071 -0.1164  0.1509
 1395BOLB   C3D33479  31.188  28.314   5.304  0.2581  0.1250  0.2738
 1395BOLB   C4D33480  31.072  28.680   5.135  0.0125 -0.0507 -0.0183
 1396BOLB   NC133481  22.683  34.081  26.869 -0.2073 -0.1944 -0.0406
 1396BOLB   PO133482  22.307  34.033  26.641 -0.0187 -0.3110  0.1440
 1396BOLB   GL133483  21.886  34.227  26.691  0.1234  0.1595 -0.0707
 1396BOLB   GL233484  21.935  34.494  26.497 -0.1999  0.0580 -0.0643
 1396BOLB   C1A33485  21.480  34.376  26.522 -0.0009  0.0066 -0.0318
 1396BOLB   C2A33486  21.155  34.613  26.528  0.1809 -0.0814 -0.0095
 1396BOLB   C3A33487  21.214  35.005  26.787  0.0048  0.4318 -0.1036
 1396BOLB   C4A33488  21.079  35.050   0.329  0.3088 -0.0078 -0.0972
 1396BOLB   C1B33489  21.705  34.707  26.853  0.3931  0.1048 -0.2917
 1396BOLB   C2B33490  21.703  35.059   0.239  0.1966  0.2792  0.0656
 1396BOLB   C3B33491  21.441  35.346   0.479 -0.1724  0.3080 -0.2051
 1396BOLB   C4B33492  21.509  35.490   0.855 -0.2742 -0.0191 -0.3056
 1396BOLB   NC233493  20.019  36.730   1.883 -0.0589  0.1467 -0.1149
 1396BOLB   PO233494  19.750  36.401   1.790  0.1177 -0.2907 -0.2305
 1396BOLB   GL333495  20.081  36.310   1.457 -0.3706 -0.0416  0.0780
 1396BOLB   GL433496  20.552  36.299   1.589 -0.2250 -0.1111  0.0157
 1396BOLB   C1C33497  20.308  36.104   1.190  0.0579  0.0162  0.1990
 1396BOLB   C2C33498  20.700  35.908   1.073 -0.3271  0.4575 -0.1075
 1396BOLB   C3C33499  21.024  35.627   0.907 -0.1281 -0.0276  0.0434
 1396BOLB   C4C33500  20.953  35.121   0.761  0.0928 -0.2033  0.0454
 1396BOLB   C1D33501  20.382  35.878   1.635 -0.0742 -0.2040 -0.1751
 1396BOLB   C2D33502  20.430  35.631   1.288  0.1319 -0.0001 -0.3543
 1396BOLB   C3D33503  20.735  35.296   1.197  0.2618  0.0020 -0.1568
 1396BOLB   C4D33504  20.964  34.973   1.353 -0.0966 -0.0696 -0.1470
 1397BOLB   NC133505  30.062  30.443   2.690 -0.0133  0.2929  0.1105
 1397BOLB   PO133506  29.799  30.749   2.833 -0.1075 -0.1912  0.2443
 1397BOLB   GL133507  29.993  30.701   3.209 -0.1315 -0.0658 -0.4127
 1397BOLB   GL233508  30.186  30.434   3.263  0.2968  0.0707 -0.0246
 1397BOLB   C1A33509  29.920  30.504   3.656  0.1904 -0.3288  0.0979
 1397BOLB   C2A33510  30.022  30.490   4.106  0.0301 -0.1975  0.0019
 1397BOLB   C3A33511  29.856  30.541   4.448 -0.1424 -0.0472  0.1037
 1397BOLB   C4A33512  29.650  30.588   4.855  0.4012  0.2300 -0.1766
 1397BOLB   C1B33513  30.417  30.584   3.715 -0.1362  0.1325 -0.1152
 1397BOLB   C2B33514  30.748  30.631   4.044  0.1240  0.0768 -0.1034
 1397BOLB   C3B33515  31.010  30.633   4.350  0.1482  0.0128 -0.0587
 1397BOLB   C4B33516  30.737  30.980   4.582 -0.1285  0.2400  0.0658
 1397BOLB   NC233517  29.160  31.253   6.948 -0.6189 -0.1899 -0.0936
 1397BOLB   PO233518  29.003  30.940   7.168 -0.4402 -0.3032  0.4607
 1397BOLB   GL333519  29.090  30.672   6.791  0.0011 -0.0509 -0.1679
 1397BOLB   GL433520  29.082  30.324   6.824  0.2456 -0.3794 -0.0529
 1397BOLB   C1C33521  29.180  30.490   6.394 -0.0961  0.0678  0.3431
 1397BOLB   C2C33522  29.416  30.546   6.063  0.0626  0.1334 -0.2377
 1397BOLB   C3C33523  29.366  30.440   5.721  0.2101 -0.2487 -0.2019
 1397BOLB   C4C33524  29.594  30.522   5.313  0.2405 -0.0797  0.1371
 1397BOLB   C1D33525  29.005  30.012   6.439  0.1776 -0.1096 -0.3223
 1397BOLB   C2D33526  29.025  30.088   6.074  0.1429 -0.1816 -0.0809
 1397BOLB   C3D33527  28.874  30.209   5.568 -0.1281  0.0505  0.0335
 1397BOLB   C4D33528  28.581  30.416   5.311  0.4422 -0.3221 -0.2009
 1398BOLB   NC133529  27.693  25.530  15.167  0.0131  0.2685 -0.0067
 1398BOLB   PO133530  27.992  25.201  14.969 -0.3205 -0.0337  0.1843
 1398BOLB   GL133531  27.883  25.187  14.551 -0.0499  0.2834  0.2596
 1398BOLB   GL233532  28.034  25.462  14.299 -0.0766 -0.1575  0.2900
 1398BOLB   C1A33533  27.601  25.105  14.094 -0.0522  0.0463  0.4557
 1398BOLB   C2A33534  27.714  24.887  13.727  0.4578 -0.1400 -0.0884
 1398BOLB   C3A33535  27.949  24.557  13.502  0.3239 -0.0618 -0.0541
 1398BOLB   C4A33536  27.702  24.248  13.234  0.1819  0.3233 -0.0361
 1398BOLB   C1B33537  27.974  25.391  13.929  0.0687 -0.1902  0.0746
 1398BOLB   C2B33538  28.129  25.225  13.535 -0.0221 -0.0954  0.3644
 1398BOLB   C3B33539  28.270  24.935  13.235  0.1632  0.0561  0.1144
 1398BOLB   C4B33540  28.439  24.654  12.939  0.1158  0.2304 -0.1872
 1398BOLB   NC233541  28.110  23.307  11.254 -0.2407  0.2455  0.2850
 1398BOLB   PO233542  27.839  23.036  11.499 -0.2963 -0.0031 -0.3436
 1398BOLB   GL333543  27.757  23.348  11.789 -0.3184  0.0808  0.1053
 1398BOLB   GL433544  27.720  23.192  12.034  0.2184 -0.3764 -0.3509
 1398BOLB   C1C33545  27.562  23.653  12.022 -0.0881  0.0338 -0.1817
 1398BOLB   C2C33546  27.466  23.931  12.250 -0.0338 -0.1762 -0.1255
 1398BOLB   C3C33547  27.483  23.975  12.611 -0.0432  0.0701 -0.1581
 1398BOLB   C4C33548  27.555  24.022  13.018 -0.0551  0.1459 -0.1211
 1398BOLB   C1D33549  28.043  23.375  12.260  0.0620  0.2961  0.2074
 1398BOLB   C2D33550  27.938  23.728  12.449 -0.0039 -0.0133  0.2716
 1398BOLB   C3D33551  27.991  24.042  12.771  0.0529  0.1616 -0.2727
 1398BOLB   C4D33552  28.193  24.293  13.125 -0.1789  0.0060 -0.0825
 1399BOLB   NC133553  34.194  33.049  25.258  0.0186 -0.2177 -0.3506
 1399BOLB   PO133554  34.612  32.843  25.357 -0.1172 -0.0031 -0.1685
 1399BOLB   GL133555  34.805  33.208  25.330 -0.3278 -0.1742  0.0129
 1399BOLB   GL233556  35.075  33.347  25.061 -0.0194 -0.2160  0.0080
 1399BOLB   C1A33557  35.112  33.417  25.617  0.1114 -0.1912  0.2061
 1399BOLB   C2A33558  35.403  33.766  25.625 -0.0497 -0.0215 -0.1274
 1399BOLB   C3A33559  35.604  34.024  25.442 -0.1600 -0.1562  0.0139
 1399BOLB   C4A33560  36.050  34.110  25.419  0.0605 -0.2342  0.1902
 1399BOLB   C1B33561  35.477  33.490  25.120  0.1178 -0.1570  0.1542
 1399BOLB   C2B33562  35.927  33.721  25.171  0.2086  0.2751  0.1902
 1399BOLB   C3B33563  36.171  33.569  25.514  0.0183 -0.0165  0.2983
 1399BOLB   C4B33564  36.583  33.825  25.592  0.0393  0.2921 -0.1679
 1399BOLB   NC233565  37.594  35.206  26.452 -0.1696 -0.1458 -0.1578
 1399BOLB   PO233566  37.497  35.425  26.911 -0.3858 -0.2179  0.0064
 1399BOLB   GL333567  37.152  35.106  26.724  0.0607 -0.0482 -0.1000
 1399BOLB   GL433568  37.066  34.875  26.907 -0.1707 -0.0357 -0.2264
 1399BOLB   C1C33569  37.049  35.084  26.241  0.1138  0.2281  0.1266
 1399BOLB   C2C33570  36.860  34.695  26.002  0.0797  0.1040  0.1350
 1399BOLB   C3C33571  36.548  34.385  25.936 -0.1960 -0.0526 -0.3404
 1399BOLB   C4C33572  36.249  34.196  25.667 -0.4307  0.1729  0.1163
 1399BOLB   C1D33573  36.631  34.721   0.065 -0.2407  0.2035  0.1578
 1399BOLB   C2D33574  36.242  34.509  26.857 -0.2970 -0.3063  0.1907
 1399BOLB   C3D33575  35.847  34.484  26.756  0.0820  0.1020  0.0967
 1399BOLB   C4D33576  35.663  34.310  26.420 -0.0898  0.2040 -0.1014
 1400BOLB   NC133577  25.264  36.401  19.295  0.1687 -0.2288 -0.1135
 1400BOLB   PO133578  25.058  36.764  19.207 -0.0279 -0.2066 -0.0611
 1400BOLB   GL133579  24.809  37.217  19.178 -0.0568  0.0785  0.1342
 1400BOLB   GL233580  24.509  37.218  19.346  0.0244 -0.3057 -0.2095
 1400BOLB   C1A33581  24.612  37.645  19.108  0.0169 -0.0973 -0.1811
 1400BOLB   C2A33582  24.244  37.875  19.004  0.1307 -0.0847 -0.1634
 1400BOLB   C3A33583  24.143  38.361  18.924  0.1278 -0.0066  0.1495
 1400BOLB   C4A33584  24.015  38.561  18.431 -0.1066 -0.0907 -0.0856
 1400BOLB   C1B33585  24.242  37.706  19.482 -0.1784  0.0655  0.1274
 1400BOLB   C2B33586  24.149  38.114  19.448  0.0005 -0.2582 -0.2794
 1400BOLB   C3B33587  24.074  38.535  19.379 -0.5314  0.0367  0.1967
 1400BOLB   C4B33588  23.842  38.892  19.396 -0.4555  0.1421  0.2515
 1400BOLB   NC233589  22.898  40.379  17.675  0.2558  0.0583 -0.0945
 1400BOLB   PO233590  22.897  40.062  17.430  0.2156 -0.1241 -0.1682
 1400BOLB   GL333591  22.886  39.760  17.595  0.0881  0.1134 -0.0720
 1400BOLB   GL433592  22.532  39.609  17.739  0.0841  0.3402  0.4050
 1400BOLB   C1C33593  23.014  39.459  17.789  0.3789  0.0475 -0.1654
 1400BOLB   C2C33594  23.359  39.205  17.886  0.0207 -0.0847 -0.2963
 1400BOLB   C3C33595  23.719  38.900  17.898 -0.0158  0.0337  0.1242
 1400BOLB   C4C33596  23.755  38.541  18.062  0.0956 -0.0703 -0.1689
 1400BOLB   C1D33597  22.695  39.372  17.388 -0.0038 -0.2682 -0.1447
 1400BOLB   C2D33598  22.903  39.001  17.226  0.0829  0.1267 -0.0365
 1400BOLB   C3D33599  23.252  38.731  16.996  0.1880 -0.3774 -0.0469
 1400BOLB   C4D33600  23.467  38.393  16.989 -0.0377 -0.0835  0.1259
 1401BOLB   NC133601  34.507  34.581  22.032  0.3259 -0.0493  0.0551
 1401BOLB   PO133602  35.005  34.584  22.030  0.3652 -0.0114 -0.0218
 1401BOLB   GL133603  35.264  34.649  21.741  0.0416  0.1029  0.0064
 1401BOLB   GL233604  35.495  34.401  21.542 -0.0797 -0.3829 -0.0039
 1401BOLB   C1A33605  35.663  34.844  21.455 -0.2718  0.0286 -0.2664
 1401BOLB   C2A33606  36.106  34.782  21.442 -0.0623  0.0235 -0.1251
 1401BOLB   C3A33607  36.521  34.915  21.349  0.0166 -0.3165  0.1334
 1401BOLB   C4A33608  36.955  34.817  21.364  0.2178  0.0794 -0.0734
 1401BOLB   C1B33609  35.919  34.414  21.731  0.1136  0.1075  0.0202
 1401BOLB   C2B33610  36.270  34.621  21.920 -0.2041 -0.1890  0.3226
 1401BOLB   C3B33611  36.612  34.930  21.852 -0.3218  0.0688  0.0446
 1401BOLB   C4B33612  36.839  35.250  21.736  0.2365  0.6199  0.1811
 1401BOLB   NC233613  39.250  35.606  22.336 -0.0225  0.0139  0.3074
 1401BOLB   PO233614  38.877  35.732  22.209 -0.1205 -0.2070  0.2023
 1401BOLB   GL333615  38.496  35.734  22.229  0.2212 -0.2282  0.0093
 1401BOLB   GL433616  38.516  35.800  22.565 -0.0246  0.0235  0.0472
 1401BOLB   C1C33617  38.284  35.346  22.170 -0.0908 -0.0501  0.4333
 1401BOLB   C2C33618  38.072  35.133  21.877 -0.0355  0.0525  0.3102
 1401BOLB   C3C33619  37.812  34.873  21.632 -0.0449  0.1200  0.2082
 1401BOLB   C4C33620  37.384  34.694  21.483  0.4633  0.3726  0.1709
 1401BOLB   C1D33621  38.223  35.638  22.895 -0.1385 -0.0979  0.1955
 1401BOLB   C2D33622  37.802  35.634  22.965  0.0242 -0.3945 -0.2506
 1401BOLB   C3D33623  37.545  35.517  23.213  0.1730 -0.2750  0.2581
 1401BOLB   C4D33624  37.243  35.197  23.241 -0.0735 -0.1057  0.1203
 1402BOLB   NC133625  32.911  28.119   1.025  0.0405 -0.1474 -0.3706
 1402BOLB   PO133626  33.252  27.997   0.818  0.1307  0.1259  0.4969
 1402BOLB   GL133627  33.348  28.215   1.184 -0.2738  0.0537  0.0293
 1402BOLB   GL233628  33.296  28.487   1.312 -0.0876 -0.2024  0.2154
 1402BOLB   C1A33629  33.472  27.990   1.498  0.0267 -0.2634 -0.1231
 1402BOLB   C2A33630  33.548  27.636   1.912  0.4318  0.4403  0.0430
 1402BOLB   C3A33631  33.599  27.605   2.302 -0.0542  0.2628  0.1410
 1402BOLB   C4A33632  33.726  27.442   2.630  0.0575  0.1504  0.0315
 1402BOLB   C1B33633  33.783  28.368   1.357 -0.2954  0.1080  0.0628
 1402BOLB   C2B33634  34.183  28.419   1.501 -0.0599 -0.1782  0.0856
 1402BOLB   C3B33635  34.449  28.607   1.738 -0.2534 -0.2779 -0.0224
 1402BOLB   C4B33636  34.733  28.772   1.978  0.0010  0.0221 -0.0683
 1402BOLB   NC233637  35.558  26.500   4.132 -0.0978  0.2334 -0.2659
 1402BOLB   PO233638  35.206  26.685   4.123 -0.4090  0.2066  0.0188
 1402BOLB   GL333639  35.159  26.900   3.674 -0.2643  0.2516 -0.0055
 1402BOLB   GL433640  35.487  26.664   3.541  0.0295  0.0264 -0.3373
 1402BOLB   C1C33641  34.863  26.957   3.438  0.0214 -0.1178  0.0108
 1402BOLB   C2C33642  34.421  26.840   3.277  0.2581  0.1900  0.2125
 1402BOLB   C3C33643  33.993  26.893   3.279  0.0850 -0.2530  0.1194
 1402BOLB   C4C33644  33.867  27.158   2.918  0.0400  0.0873  0.0165
 1402BOLB   C1D33645  35.184  26.573   3.333  0.1036 -0.2032 -0.2588
 1402BOLB   C2D33646  34.848  26.535   3.202  0.1993  0.0328  0.0915
 1402BOLB   C3D33647  34.568  26.566   2.928  0.4561 -0.0716 -0.2703
 1402BOLB   C4D33648  34.296  26.954   2.745 -0.2834 -0.1155 -0.3126
 1403BOLB   NC133649  29.472  34.033   1.639 -0.1959  0.2542  0.0312
 1403BOLB   PO133650  29.935  33.929   1.751  0.2270 -0.0623  0.0685
 1403BOLB   GL133651  29.888  34.270   2.032  0.1279  0.1632  0.1868
 1403BOLB   GL233652  29.629  34.294   2.108  0.1217  0.0061  0.0441
 1403BOLB   C1A33653  30.181  34.547   2.251  0.0435  0.2967  0.2566
 1403BOLB   C2A33654  30.412  34.699   2.524 -0.1919  0.3364  0.2395
 1403BOLB   C3A33655  30.734  34.823   2.842 -0.0940  0.0554 -0.1841
 1403BOLB   C4A33656  31.137  34.856   3.175  0.1580 -0.1511  0.2545
 1403BOLB   C1B33657  29.683  34.487   2.542 -0.1790  0.0542  0.1037
 1403BOLB   C2B33658  29.751  34.611   2.936 -0.2193 -0.3115 -0.3375
 1403BOLB   C3B33659  29.830  34.974   3.156  0.0798 -0.2036  0.3052
 1403BOLB   C4B33660  29.630  35.346   3.296  0.1784  0.1154 -0.0855
 1403BOLB   NC233661  32.362  36.090   5.134  0.0033 -0.3313 -0.0425
 1403BOLB   PO233662  32.277  35.714   4.859  0.0493  0.1841  0.2305
 1403BOLB   GL333663  32.117  35.276   4.862  0.3408  0.0803 -0.3472
 1403BOLB   GL433664  32.313  35.064   4.760  0.0628 -0.0436  0.1708
 1403BOLB   C1C33665  31.780  35.080   4.633  0.4501  0.1421  0.0819
 1403BOLB   C2C33666  31.697  34.991   4.149 -0.1205  0.1910  0.0349
 1403BOLB   C3C33667  31.355  35.059   3.919  0.1796 -0.4428  0.1006
 1403BOLB   C4C33668  31.183  34.807   3.569 -0.0422 -0.3080 -0.0754
 1403BOLB   C1D33669  32.205  34.524   4.577  0.1058 -0.0114 -0.5151
 1403BOLB   C2D33670  32.243  34.146   4.383 -0.1165  0.1795  0.0235
 1403BOLB   C3D33671  32.305  33.983   3.962 -0.2472  0.0922  0.0859
 1403BOLB   C4D33672  32.068  33.761   3.808  0.1315 -0.0244  0.0560
 1404BOLB   NC133673  32.234  23.252  21.777  0.0639 -0.0875  0.1735
 1404BOLB   PO133674  32.189  22.778  21.843  0.4400  0.1523  0.0026
 1404BOLB   GL133675  32.606  22.624  22.026 -0.2451 -0.1620  0.0648
 1404BOLB   GL233676  32.747  22.537  21.740 -0.0975 -0.0304 -0.1720
 1404BOLB   C1A33677  33.023  22.453  22.232  0.0453  0.1633 -0.2266
 1404BOLB   C2A33678  33.139  22.030  22.390  0.0765 -0.0403 -0.1714
 1404BOLB   C3A33679  33.401  21.750  22.532 -0.1680  0.0466  0.2952
 1404BOLB   C4A33680  33.662  21.479  22.643 -0.3096 -0.0442 -0.0230
 1404BOLB   C1B33681  33.001  22.337  21.403 -0.0510 -0.2851  0.2365
 1404BOLB   C2B33682  33.265  22.052  21.136 -0.0020 -0.2808  0.1819
 1404BOLB   C3B33683  33.643  22.096  21.017  0.2574 -0.0780 -0.1674
 1404BOLB   C4B33684  34.059  21.928  21.034  0.0204 -0.0493  0.3324
 1404BOLB   NC233685  35.083  19.642  22.241 -0.2765  0.2035  0.2910
 1404BOLB   PO233686  35.263  19.925  22.504 -0.0183 -0.2153 -0.0177
 1404BOLB   GL333687  34.986  20.161  22.264 -0.6382 -0.1489  0.0723
 1404BOLB   GL433688  34.690  20.314  22.453  0.0152 -0.1479 -0.2531
 1404BOLB   C1C33689  34.901  20.580  22.078  0.2179  0.0942 -0.4296
 1404BOLB   C2C33690  34.644  20.874  22.296 -0.1382  0.0983  0.1388
 1404BOLB   C3C33691  34.354  21.172  22.396 -0.0064  0.2982 -0.0324
 1404BOLB   C4C33692  34.032  21.361  22.419 -0.4859  0.0560  0.0461
 1404BOLB   C1D33693  34.278  20.347  22.122 -0.1057  0.1809 -0.1047
 1404BOLB   C2D33694  33.874  20.359  22.182  0.1095 -0.0229  0.0206
 1404BOLB   C3D33695  33.516  20.006  22.427 -0.0431 -0.3585 -0.0854
 1404BOLB   C4D33696  33.408  19.467  22.276 -0.1569 -0.0944  0.1974
 1405BOLB   NC133697  35.069  32.304  25.141 -0.1723 -0.1243  0.1038
 1405BOLB   PO133698  34.917  31.908  25.126 -0.1450 -0.0522 -0.1087
 1405BOLB   GL133699  35.372  31.923  25.332  0.0524  0.2050 -0.3305
 1405BOLB   GL233700  35.255  31.883  25.719  0.0529  0.4495  0.2223
 1405BOLB   C1A33701  35.650  32.099  25.419 -0.0860  0.6447  0.0752
 1405BOLB   C2A33702  36.062  32.045  25.512  0.0652  0.1657  0.4460
 1405BOLB   C3A33703  36.505  31.821  25.582 -0.0002  0.0499  0.1549
 1405BOLB   C4A33704  36.787  31.800  25.246 -0.1732 -0.3370 -0.3578
 1405BOLB   C1B33705  35.698  31.690  25.689  0.3133  0.3171 -0.0720
 1405BOLB   C2B33706  36.072  31.635  25.822 -0.1838 -0.0470 -0.0384
 1405BOLB   C3B33707  36.454  31.894  26.119  0.0252 -0.1180 -0.0282
 1405BOLB   C4B33708  36.889  31.698  26.271  0.0419 -0.1842  0.3105
 1405BOLB   NC233709  39.181  32.477  26.191 -0.1872  0.2289  0.2237
 1405BOLB   PO233710  39.205  32.296  25.807  0.0611  0.0283 -0.1104
 1405BOLB   GL333711  38.891  32.100  25.965 -0.0095 -0.0201 -0.1443
 1405BOLB   GL433712  38.912  31.801  26.100 -0.0872 -0.4332  0.1147
 1405BOLB   C1C33713  38.398  32.346  25.914 -0.1739  0.1516  0.1309
 1405BOLB   C2C33714  37.978  32.277  25.766  0.1107 -0.1151 -0.0111
 1405BOLB   C3C33715  37.610  32.230  25.473 -0.0733 -0.1412  0.1980
 1405BOLB   C4C33716  37.248  31.959  25.332 -0.3992 -0.2160  0.1202
 1405BOLB   C1D33717  38.511  31.480  26.016 -0.0960  0.1246  0.2262
 1405BOLB   C2D33718  38.143  31.245  26.001  0.0752 -0.0361  0.1834
 1405BOLB   C3D33719  37.866  30.990  25.848 -0.5058 -0.2860 -0.1327
 1405BOLB   C4D33720  37.777  30.530  25.815  0.3123 -0.1082  0.0042
 1406BOLB   NC133721  30.436  31.524   2.201  0.3044 -0.5283  0.0761
 1406BOLB   PO133722  30.781  31.444   2.481  0.3069  0.0851 -0.0690
 1406BOLB   GL133723  30.865  31.708   2.758  0.2175 -0.2359  0.0045
 1406BOLB   GL233724  30.651  31.959   2.946 -0.1577  0.1328  0.3073
 1406BOLB   C1A33725  31.254  31.897   2.920  0.0983 -0.0197 -0.2259
 1406BOLB   C2A33726  31.478  31.713   3.028  0.1049 -0.1640  0.0741
 1406BOLB   C3A33727  31.385  31.651   3.441  0.0413 -0.3181  0.0714
 1406BOLB   C4A33728  31.629  31.652   3.786  0.0668  0.1610 -0.0257
 1406BOLB   C1B33729  30.773  32.097   3.402 -0.1271 -0.0876  0.2865
 1406BOLB   C2B33730  30.731  32.032   3.782  0.0108  0.2766 -0.0456
 1406BOLB   C3B33731  30.542  32.188   4.091 -0.2277 -0.0681  0.1827
 1406BOLB   C4B33732  30.286  32.060   4.409  0.1670  0.1041 -0.3793
 1406BOLB   NC233733  32.270  31.404   6.327  0.0172  0.0509  0.3367
 1406BOLB   PO233734  32.264  31.803   6.016 -0.8274  0.0840  0.0828
 1406BOLB   GL333735  32.031  31.588   5.750 -0.0489 -0.0658  0.0726
 1406BOLB   GL433736  31.984  31.364   5.861  0.0270  0.0236  0.2487
 1406BOLB   C1C33737  32.175  31.617   5.327  0.0485 -0.0949  0.1455
 1406BOLB   C2C33738  32.247  31.496   4.849  0.1420  0.2072  0.0173
 1406BOLB   C3C33739  32.093  31.491   4.458 -0.1215  0.0599 -0.2923
 1406BOLB   C4C33740  31.731  31.407   4.193 -0.0612  0.1381  0.0063
 1406BOLB   C1D33741  32.085  31.149   5.510  0.1232  0.2194 -0.2182
 1406BOLB   C2D33742  32.297  30.895   5.192  0.0969 -0.0311  0.1005
 1406BOLB   C3D33743  32.306  30.777   4.812  0.0621 -0.0176  0.1529
 1406BOLB   C4D33744  32.510  30.508   4.621 -0.3128 -0.0361  0.0092
 1407BOLB   NC133745  25.665  32.080  13.705 -0.1844  0.0703  0.3535
 1407BOLB   PO133746  25.389  32.115  13.980 -0.0947 -0.0063  0.0832
 1407BOLB   GL133747  25.201  32.391  13.762 -0.2302  0.1596 -0.2789
 1407BOLB   GL233748  25.433  32.543  13.565 -0.3072  0.4050 -0.3031
 1407BOLB   C1A33749  24.938  32.567  13.534 -0.1353  0.2030  0.0156
 1407BOLB   C2A33750  24.764  32.709  13.053 -0.2375 -0.2219  0.2501
 1407BOLB   C3A33751  24.626  33.127  12.730  0.0749 -0.1161  0.1308
 1407BOLB   C4A33752  24.412  33.305  12.469  0.4229  0.0354  0.0158
 1407BOLB   C1B33753  25.309  32.343  13.170 -0.2954  0.1003  0.0642
 1407BOLB   C2B33754  25.023  32.131  12.985 -0.2303 -0.1318 -0.5074
 1407BOLB   C3B33755  24.884  32.278  12.616  0.0357 -0.2110  0.0131
 1407BOLB   C4B33756  24.786  32.646  12.536  0.4942 -0.1484 -0.4289
 1407BOLB   NC233757  24.048  33.059  10.325 -0.0555 -0.3934 -0.0857
 1407BOLB   PO233758  23.837  32.697  10.554 -0.3004  0.1535  0.1739
 1407BOLB   GL333759  23.911  32.584  10.915 -0.0844 -0.2645  0.3384
 1407BOLB   GL433760  24.279  32.544  10.917 -0.1076  0.1381  0.0707
 1407BOLB   C1C33761  23.974  32.373  11.334  0.0507  0.1804 -0.0183
 1407BOLB   C2C33762  24.147  32.691  11.487  0.3182  0.1552  0.2436
 1407BOLB   C3C33763  24.087  33.034  11.677 -0.0347 -0.1384 -0.0925
 1407BOLB   C4C33764  24.136  33.364  12.020 -0.2363 -0.2698 -0.0197
 1407BOLB   C1D33765  24.464  32.443  11.231 -0.4446  0.0821 -0.2455
 1407BOLB   C2D33766  24.529  32.319  11.681  0.1568  0.1224 -0.3272
 1407BOLB   C3D33767  24.489  32.363  12.182 -0.0472 -0.1488 -0.0094
 1407BOLB   C4D33768  24.097  32.398  12.496  0.3608 -0.0407 -0.1772
 1408BOLB   NC133769  21.080  32.473  18.185  0.1438  0.2147  0.0300
 1408BOLB   PO133770  20.979  32.743  17.771 -0.2159  0.0869 -0.3583
 1408BOLB   GL133771  20.663  32.871  17.658  0.1287  0.0332  0.0579
 1408BOLB   GL233772  20.383  33.029  17.900  0.0322  0.2520  0.4939
 1408BOLB   C1A33773  20.285  32.860  17.441 -0.0703  0.1748  0.0114
 1408BOLB   C2A33774  20.134  33.187  17.510  0.0538  0.2073  0.0396
 1408BOLB   C3A33775  19.682  33.403  17.655 -0.0530 -0.4724 -0.0365
 1408BOLB   C4A33776  19.278  33.547  17.462  0.1071  0.0287 -0.0397
 1408BOLB   C1B33777  19.993  32.859  17.860  0.1280  0.0013 -0.0786
 1408BOLB   C2B33778  19.635  32.940  17.969  0.0145  0.0661  0.0488
 1408BOLB   C3B33779  19.284  33.284  17.895  0.1673  0.0694 -0.3035
 1408BOLB   C4B33780  18.932  33.553  17.857 -0.1501 -0.0134 -0.0726
 1408BOLB   NC233781  17.421  33.238  15.853 -0.2039 -0.3300  0.0910
 1408BOLB   PO233782  17.225  33.632  15.992  0.0938  0.5596 -0.0702
 1408BOLB   GL333783  17.687  33.658  16.038 -0.2691 -0.1372  0.0853
 1408BOLB   GL433784  17.901  33.341  16.088  0.0286  0.2502 -0.0363
 1408BOLB   C1C33785  18.114  33.708  16.283  0.0159 -0.1833  0.4447
 1408BOLB   C2C33786  18.436  33.615  16.505 -0.0691  0.1325  0.0109
 1408BOLB   C3C33787  18.809  33.559  16.752  0.0885 -0.0234  0.5501
 1408BOLB   C4C33788  19.175  33.483  17.045  0.3521 -0.2231  0.0632
 1408BOLB   C1D33789  18.286  33.178  16.223 -0.1424 -0.0479  0.0096
 1408BOLB   C2D33790  18.392  33.147  16.639  0.0114  0.0549 -0.2445
 1408BOLB   C3D33791  18.211  32.779  16.814 -0.3016  0.2465  0.3153
 1408BOLB   C4D33792  18.332  32.459  17.160  0.2212 -0.1531  0.0835
 1409BOLB   NC133793  32.966  24.802  19.364 -0.3756 -0.0661 -0.3297
 1409BOLB   PO133794  33.436  24.620  19.523  0.3292  0.0181 -0.0178
 1409BOLB   GL133795  33.831  24.575  19.304 -0.0124  0.1970 -0.0071
 1409BOLB   GL233796  33.882  24.292  19.097  0.2673  0.3302  0.2205
 1409BOLB   C1A33797  34.323  24.475  19.023  0.0613  0.2115  0.1142
 1409BOLB   C2A33798  34.810  24.465  19.099 -0.1396  0.0241  0.1997
 1409BOLB   C3A33799  35.169  24.221  19.158  0.0309  0.4012  0.1105
 1409BOLB   C4A33800  35.593  24.011  19.217  0.0188  0.0135 -0.1002
 1409BOLB   C1B33801  34.290  24.005  19.188 -0.3844  0.0063 -0.1156
 1409BOLB   C2B33802  34.755  23.877  19.151 -0.2120 -0.0428  0.4517
 1409BOLB   C3B33803  35.004  23.846  18.826 -0.1204  0.1068 -0.2005
 1409BOLB   C4B33804  35.160  23.654  18.475 -0.0080 -0.0313  0.4056
 1409BOLB   NC233805  37.547  22.734  19.089 -0.1629  0.5355 -0.1160
 1409BOLB   PO233806  37.765  22.798  19.402 -0.0703  0.1498  0.0218
 1409BOLB   GL333807  37.453  23.142  19.360 -0.4832  0.0371 -0.6442
 1409BOLB   GL433808  37.568  23.511  19.432  0.1255 -0.1423 -0.0833
 1409BOLB   C1C33809  37.091  23.308  19.336 -0.5028  0.0563 -0.2781
 1409BOLB   C2C33810  36.909  23.702  19.125  0.2053  0.0706 -0.2201
 1409BOLB   C3C33811  36.543  23.935  19.221 -0.0585  0.0567  0.1146
 1409BOLB   C4C33812  36.027  24.069  19.360 -0.3676 -0.1588  0.2966
 1409BOLB   C1D33813  37.270  23.752  19.666 -0.2778  0.0497  0.0303
 1409BOLB   C2D33814  37.144  24.063  19.984 -0.0592  0.0110  0.3219
 1409BOLB   C3D33815  36.751  24.318  20.078 -0.0704 -0.0459  0.3179
 1409BOLB   C4D33816  36.344  24.454  19.952  0.1215 -0.0523 -0.0568
 1410BOLB   NC133817  17.814  21.851  15.740 -0.0270 -0.1497  0.4735
 1410BOLB   PO133818  17.987  22.023  15.450  0.2512 -0.1290  0.0454
 1410BOLB   GL133819  18.283  21.959  15.802  0.1186  0.0531  0.2200
 1410BOLB   GL233820  18.648  22.223  15.783  0.1361  0.5284 -0.0424
 1410BOLB   C1A33821  18.353  21.694  16.164  0.2763  0.1605  0.2654
 1410BOLB   C2A33822  18.700  21.863  16.410  0.2044  0.4374 -0.0335
 1410BOLB   C3A33823  18.725  22.061  16.719 -0.4503 -0.2572  0.1242
 1410BOLB   C4A33824  18.872  22.237  17.122 -0.0830  0.2561  0.2483
 1410BOLB   C1B33825  19.023  22.108  16.025 -0.0682 -0.0258  0.1651
 1410BOLB   C2B33826  19.175  22.113  16.491 -0.4607  0.1971  0.1264
 1410BOLB   C3B33827  19.198  21.796  16.743  0.1757 -0.0552  0.0368
 1410BOLB   C4B33828  19.276  21.721  17.182 -0.2675  0.0044  0.0217
 1410BOLB   NC233829  16.825  20.897  16.773 -0.1143 -0.1231 -0.2700
 1410BOLB   PO233830  16.949  21.058  16.365 -0.0304 -0.0244  0.3537
 1410BOLB   GL333831  17.154  21.326  16.717  0.0614 -0.0438 -0.2897
 1410BOLB   GL433832  17.151  21.109  17.087  0.0085 -0.2189  0.1147
 1410BOLB   C1C33833  17.571  21.328  16.992 -0.2080 -0.2836 -0.1666
 1410BOLB   C2C33834  18.067  21.355  17.186  0.0568  0.0282 -0.1096
 1410BOLB   C3C33835  18.303  21.702  17.368 -0.1840 -0.0728 -0.2929
 1410BOLB   C4C33836  18.661  21.958  17.330 -0.3502 -0.1462  0.0704
 1410BOLB   C1D33837  17.163  21.335  17.480 -0.0524  0.0572  0.1135
 1410BOLB   C2D33838  17.244  21.526  17.762 -0.0747 -0.2723  0.0219
 1410BOLB   C3D33839  17.304  21.734  18.163  0.2001 -0.0828  0.3765
 1410BOLB   C4D33840  17.421  21.979  18.482 -0.1217 -0.0210 -0.1025
 1411BOLB   NC133841  29.248  22.918  25.547  0.2097  0.2160  0.0614
 1411BOLB   PO133842  29.070  22.520  25.331 -0.0959  0.1247  0.0997
 1411BOLB   GL133843  28.795  22.283  25.401  0.2888 -0.2828 -0.0579
 1411BOLB   GL233844  28.657  22.466  25.670 -0.0469  0.2207 -0.1679
 1411BOLB   C1A33845  28.621  21.825  25.416 -0.1155  0.1767  0.1303
 1411BOLB   C2A33846  28.446  21.415  25.452 -0.0835  0.2151  0.1340
 1411BOLB   C3A33847  28.461  21.067  25.753  0.1290  0.3520  0.1790
 1411BOLB   C4A33848  28.631  20.695  25.756 -0.2658 -0.0652 -0.1354
 1411BOLB   C1B33849  28.580  22.297  26.002 -0.0291  0.5255 -0.0964
 1411BOLB   C2B33850  28.294  22.224  26.193 -0.1221  0.0721 -0.1648
 1411BOLB   C3B33851  27.850  22.180  26.180  0.1268 -0.0316 -0.0970
 1411BOLB   C4B33852  27.568  22.020  26.438 -0.1084  0.2752 -0.0641
 1411BOLB   NC233853  29.395  18.462   0.185 -0.3369 -0.1837 -0.3982
 1411BOLB   PO233854  29.565  18.793   0.092  0.0591  0.0262  0.0520
 1411BOLB   GL333855  29.509  19.154  26.690  0.2800  0.1081 -0.1572
 1411BOLB   GL433856  29.603  18.908  26.489  0.0252  0.5745 -0.0128
 1411BOLB   C1C33857  29.278  19.369  26.331  0.0883 -0.0923 -0.3099
 1411BOLB   C2C33858  29.113  19.694  26.097 -0.1493 -0.0022  0.3011
 1411BOLB   C3C33859  29.190  20.059  25.828  0.1595 -0.1393 -0.0592
 1411BOLB   C4C33860  29.016  20.480  25.798  0.0236  0.2661  0.3497
 1411BOLB   C1D33861  29.577  18.916  26.051  0.0670 -0.1580  0.1185
 1411BOLB   C2D33862  29.449  19.163  25.864 -0.1092  0.1372 -0.0911
 1411BOLB   C3D33863  29.078  19.313  25.576  0.0447 -0.2952  0.0105
 1411BOLB   C4D33864  28.913  19.722  25.583 -0.1499 -0.0190 -0.0862
 1412BOLB   NC133865  29.655  18.527   2.811  0.0258  0.1851  0.0903
 1412BOLB   PO133866  29.720  19.034   2.922 -0.0100 -0.0433 -0.0512
 1412BOLB   GL133867  29.317  19.364   2.844  0.1731 -0.3189  0.1887
 1412BOLB   GL233868  29.086  19.433   3.123  0.1465  0.0036 -0.2440
 1412BOLB   C1A33869  29.006  19.682   2.723  0.0577  0.1792  0.0870
 1412BOLB   C2A33870  28.637  19.980   2.653  0.0549  0.1202  0.0972
 1412BOLB   C3A33871  28.717  20.397   2.625  0.0370 -0.0766 -0.0524
 1412BOLB   C4A33872  28.973  20.787   2.617 -0.1775 -0.1109  0.0637
 1412BOLB   C1B33873  28.721  19.669   3.145  0.0599 -0.0750 -0.0422
 1412BOLB   C2B33874  28.496  19.752   3.447 -0.1777 -0.0397  0.3170
 1412BOLB   C3B33875  28.246  20.087   3.578 -0.3498  0.1741  0.2277
 1412BOLB   C4B33876  28.060  20.470   3.634  0.0441 -0.1943 -0.0678
 1412BOLB   NC233877  30.341  20.523   4.555  0.0913  0.0251  0.0920
 1412BOLB   PO233878  29.916  20.412   4.381 -0.0330  0.0960  0.1994
 1412BOLB   GL333879  29.516  20.333   4.150 -0.0056 -0.0641  0.1392
 1412BOLB   GL433880  29.222  20.038   4.238 -0.1860  0.4999 -0.2124
 1412BOLB   C1C33881  29.357  20.169   3.747  0.0972  0.1977  0.0009
 1412BOLB   C2C33882  29.473  20.230   3.300  0.1961  0.1081 -0.1263
 1412BOLB   C3C33883  29.519  20.678   3.106 -0.1461 -0.2123  0.1523
 1412BOLB   C4C33884  29.369  20.942   2.705  0.1388  0.2421  0.2493
 1412BOLB   C1D33885  28.917  20.271   4.119 -0.1755 -0.2225  0.0038
 1412BOLB   C2D33886  28.699  20.428   3.797 -0.0234 -0.1117 -0.0441
 1412BOLB   C3D33887  28.559  20.625   3.522  0.0874  0.3587 -0.1039
 1412BOLB   C4D33888  28.656  20.808   3.108 -0.1438  0.0059 -0.0557
 1413BOLB   NC133889  25.600  29.671  13.663  0.0741 -0.1301 -0.1909
 1413BOLB   PO133890  25.672  29.284  13.771 -0.4259  0.0815  0.1537
 1413BOLB   GL133891  25.904  29.342  13.323 -0.1409 -0.0513  0.3245
 1413BOLB   GL233892  25.799  29.154  13.073 -0.3089 -0.0766  0.1519
 1413BOLB   C1A33893  26.027  29.577  12.958 -0.2715  0.0199  0.0325
 1413BOLB   C2A33894  25.859  29.738  12.577  0.0988  0.2772 -0.1164
 1413BOLB   C3A33895  25.578  29.978  12.237 -0.3270 -0.2001 -0.0582
 1413BOLB   C4A33896  25.310  30.269  11.972  0.0976 -0.0620  0.4266
 1413BOLB   C1B33897  25.928  28.812  12.772 -0.0130  0.4538  0.2416
 1413BOLB   C2B33898  26.067  28.306  12.559 -0.0606  0.1713 -0.1907
 1413BOLB   C3B33899  26.032  28.032  12.286  0.0937  0.2541 -0.0741
 1413BOLB   C4B33900  26.162  28.140  11.806 -0.0318  0.0560  0.2253
 1413BOLB   NC233901  24.620  31.138   9.834  0.0598  0.0999  0.1953
 1413BOLB   PO233902  24.850  30.815   9.673 -0.0162 -0.2077 -0.1065
 1413BOLB   GL333903  25.202  30.755   9.872  0.1907 -0.0031  0.0298
 1413BOLB   GL433904  25.185  31.005  10.103 -0.0456 -0.1256 -0.1560
 1413BOLB   C1C33905  25.107  30.601  10.441  0.3926  0.0694 -0.0824
 1413BOLB   C2C33906  25.008  30.445  10.849 -0.0312  0.2497  0.3797
 1413BOLB   C3C33907  24.993  30.335  11.258  0.0673  0.2504  0.2301
 1413BOLB   C4C33908  25.052  30.197  11.635  0.2145 -0.1426 -0.0761
 1413BOLB   C1D33909  25.355  31.243  10.501  0.0039 -0.0060  0.1955
 1413BOLB   C2D33910  25.606  31.560  10.651 -0.2385  0.0202 -0.3097
 1413BOLB   C3D33911  25.694  31.644  11.011 -0.4675 -0.0619 -0.1012
 1413BOLB   C4D33912  25.620  31.524  11.449 -0.3459 -0.1484  0.1044
 1414BOLB   NC133913  35.281  31.122  20.548  0.0926 -0.0722  0.1508
 1414BOLB   PO133914  35.560  30.705  20.409  0.1467 -0.1615 -0.1503
 1414BOLB   GL133915  36.048  30.738  20.455 -0.3462 -0.0585 -0.1156
 1414BOLB   GL233916  36.157  30.949  20.342 -0.0513 -0.1652  0.2885
 1414BOLB   C1A33917  36.453  30.474  20.353  0.1698 -0.0210 -0.0717
 1414BOLB   C2A33918  36.862  30.593  20.396  0.0746  0.1822  0.0782
 1414BOLB   C3A33919  37.347  30.654  20.298  0.0123 -0.0684  0.1457
 1414BOLB   C4A33920  37.754  30.611  20.200 -0.0877  0.2403 -0.0863
 1414BOLB   C1B33921  36.576  30.979  20.362 -0.1556 -0.0586 -0.0479
 1414BOLB   C2B33922  36.890  30.916  19.998 -0.1718  0.3655 -0.3401
 1414BOLB   C3B33923  37.304  30.887  19.821  0.3011  0.0320  0.0157
 1414BOLB   C4B33924  37.445  30.469  19.806  0.1043  0.2524 -0.1956
 1414BOLB   NC233925  40.533  30.445  20.243 -0.3006  0.0482 -0.1042
 1414BOLB   PO233926  40.190  30.274  20.505 -0.0121  0.2332 -0.2522
 1414BOLB   GL333927  39.743  30.508  20.396  0.1126  0.1706 -0.2309
 1414BOLB   GL433928  39.596  30.469  20.051 -0.0721  0.5537 -0.3769
 1414BOLB   C1C33929  39.299  30.491  20.451  0.0703 -0.5142  0.0167
 1414BOLB   C2C33930  38.987  30.242  20.320  0.4023 -0.1934  0.1791
 1414BOLB   C3C33931  38.565  30.205  20.296  0.2060  0.4006 -0.3965
 1414BOLB   C4C33932  38.172  30.362  20.157  0.1452  0.1547 -0.2345
 1414BOLB   C1D33933  39.156  30.533  19.944 -0.1929 -0.2768 -0.0041
 1414BOLB   C2D33934  38.708  30.641  20.017  0.0048  0.0236 -0.2272
 1414BOLB   C3D33935  38.340  30.867  20.002  0.1956  0.0727 -0.0878
 1414BOLB   C4D33936  38.021  31.161  20.219  0.0831  0.1557  0.1693
 1415BOLB   NC133937  24.379  37.206  21.844 -0.0547  0.0240 -0.1567
 1415BOLB   PO133938  24.726  37.509  21.725 -0.0270 -0.0055  0.1619
 1415BOLB   GL133939  24.732  37.938  21.827 -0.1637  0.1302 -0.0516
 1415BOLB   GL233940  24.929  38.108  21.584  0.2338 -0.1032 -0.0615
 1415BOLB   C1A33941  24.442  38.107  21.950  0.1060  0.0143  0.1774
 1415BOLB   C2A33942  24.229  38.462  21.820  0.0952  0.0979 -0.1513
 1415BOLB   C3A33943  24.391  38.831  21.938  0.4517 -0.1679 -0.1642
 1415BOLB   C4A33944  24.238  39.373  21.970 -0.1220  0.2464  0.0320
 1415BOLB   C1B33945  24.688  38.417  21.536  0.1682 -0.0603  0.1761
 1415BOLB   C2B33946  24.633  38.922  21.481  0.1030 -0.0770  0.1219
 1415BOLB   C3B33947  24.707  39.397  21.483 -0.0535 -0.3239 -0.2494
 1415BOLB   C4B33948  24.811  39.855  21.233 -0.1070 -0.1188  0.0460
 1415BOLB   NC233949  23.543  41.400  23.259 -0.6048 -0.0644  0.3459
 1415BOLB   PO233950  23.694  41.705  22.763 -0.0161 -0.2156  0.0207
 1415BOLB   GL333951  23.878  41.350  22.703 -0.2548 -0.1869  0.1194
 1415BOLB   GL433952  24.214  41.315  22.814  0.1337  0.0303 -0.1073
 1415BOLB   C1C33953  23.838  40.877  22.716  0.1276  0.1476 -0.0785
 1415BOLB   C2C33954  24.075  40.558  22.584  0.1405 -0.0139  0.0833
 1415BOLB   C3C33955  24.218  40.203  22.304 -0.0002  0.1208  0.2625
 1415BOLB   C4C33956  24.198  39.771  22.102 -0.0511  0.0332  0.3074
 1415BOLB   C1D33957  24.341  40.830  22.886  0.1476  0.2342  0.0736
 1415BOLB   C2D33958  24.705  40.491  22.899 -0.1506 -0.1296  0.1351
 1415BOLB   C3D33959  24.909  39.964  22.778 -0.1246 -0.2740  0.0330
 1415BOLB   C4D33960  25.164  39.614  22.701 -0.2685  0.0129 -0.1805
 1416BOLB   NC133961  28.230  24.775  15.152 -0.1588 -0.0902  0.1365
 1416BOLB   PO133962  28.650  24.731  15.342  0.0906 -0.4515  0.1874
 1416BOLB   GL133963  28.670  24.599  15.000  0.0125  0.0286  0.2796
 1416BOLB   GL233964  28.700  24.224  14.972 -0.2586 -0.1226  0.2162
 1416BOLB   C1A33965  28.689  24.518  14.563 -0.3066  0.0948  0.1704
 1416BOLB   C2A33966  28.765  24.372  14.089 -0.3775  0.3721 -0.4126
 1416BOLB   C3A33967  28.890  24.136  13.818  0.1580 -0.0797 -0.3510
 1416BOLB   C4A33968  28.983  23.924  13.382  0.2823 -0.1197 -0.0648
 1416BOLB   C1B33969  28.582  23.972  14.632  0.0447 -0.1614 -0.0538
 1416BOLB   C2B33970  28.496  23.982  14.250 -0.0342 -0.1899 -0.0668
 1416BOLB   C3B33971  28.492  23.825  13.851  0.1390 -0.0478  0.0557
 1416BOLB   C4B33972  28.679  23.584  13.554  0.2223  0.1420 -0.0352
 1416BOLB   NC233973  29.179  21.853  11.644  0.1624  0.1313  0.0781
 1416BOLB   PO233974  29.410  22.186  11.782 -0.0596  0.1127  0.1759
 1416BOLB   GL333975  29.377  22.469  12.139  0.1954 -0.2090  0.0231
 1416BOLB   GL433976  29.179  22.243  12.453  0.0272  0.0797 -0.4399
 1416BOLB   C1C33977  29.494  22.800  12.480  0.0268  0.1784  0.2917
 1416BOLB   C2C33978  29.619  23.035  12.801 -0.3188 -0.1267 -0.1298
 1416BOLB   C3C33979  29.400  23.359  13.063 -0.1339 -0.2171 -0.3817
 1416BOLB   C4C33980  29.041  23.651  13.053  0.1450 -0.2816  0.1508
 1416BOLB   C1D33981  29.274  22.538  12.791  0.1199 -0.1448 -0.3207
 1416BOLB   C2D33982  29.312  22.754  13.200 -0.2001  0.4452  0.2885
 1416BOLB   C3D33983  29.403  22.942  13.515  0.0727 -0.5108  0.0374
 1416BOLB   C4D33984  29.514  23.019  13.981  0.1358  0.1240 -0.1845
 1417BOLB   NC133985  24.090  35.752  17.727  0.0876 -0.3827 -0.4668
 1417BOLB   PO133986  23.858  36.116  18.027 -0.0846 -0.2021  0.1004
 1417BOLB   GL133987  23.680  36.557  18.016 -0.1069  0.0307  0.3420
 1417BOLB   GL233988  23.792  36.778  18.267 -0.4388  0.1267 -0.1003
 1417BOLB   C1A33989  23.630  36.958  17.782  0.2317  0.0366  0.2746
 1417BOLB   C2A33990  23.523  37.396  17.760  0.3206 -0.2455 -0.0892
 1417BOLB   C3A33991  23.442  37.854  17.494  0.3058  0.4870 -0.2798
 1417BOLB   C4A33992  23.249  38.169  17.389  0.0422 -0.1234 -0.0859
 1417BOLB   C1B33993  23.951  37.221  18.049  0.2806  0.1656  0.0345
 1417BOLB   C2B33994  23.947  37.329  17.633 -0.1704  0.1829 -0.0798
 1417BOLB   C3B33995  23.769  37.582  17.260 -0.0928 -0.1492  0.0951
 1417BOLB   C4B33996  23.534  37.884  16.971 -0.1003  0.0251 -0.0754
 1417BOLB   NC233997  21.675  39.749  18.276 -0.0343 -0.0576  0.0107
 1417BOLB   PO233998  21.918  39.974  18.074  0.1991 -0.3177  0.1186
 1417BOLB   GL333999  22.209  39.687  18.197 -0.0991 -0.1803  0.2590
 1417BOLB   GL434000  22.312  39.584  18.521  0.0263 -0.0603  0.2738
 1417BOLB   C1C34001  22.361  39.271  18.136 -0.0474 -0.0241 -0.3618
 1417BOLB   C2C34002  22.599  39.073  17.844  0.1307 -0.0362 -0.0548
 1417BOLB   C3C34003  22.911  38.945  17.723 -0.2141 -0.2378  0.0581
 1417BOLB   C4C34004  23.088  38.523  17.473  0.0446 -0.0170  0.4216
 1417BOLB   C1D34005  22.663  39.262  18.612 -0.2485  0.0279  0.0146
 1417BOLB   C2D34006  22.870  38.978  18.260  0.1215  0.0791 -0.1545
 1417BOLB   C3D34007  22.894  38.632  18.093 -0.0539 -0.1678 -0.1543
 1417BOLB   C4D34008  23.281  38.334  17.890  0.0140  0.0300 -0.0552
 1418BOLB   NC134009  32.745  35.809  19.499  0.2922 -0.3607  0.0113
 1418BOLB   PO134010  32.750  36.269  19.307 -0.0278 -0.3766  0.0644
 1418BOLB   GL134011  33.045  36.356  18.932 -0.0065 -0.4641  0.2611
 1418BOLB   GL234012  32.897  36.646  19.012  0.0707  0.0708 -0.0021
 1418BOLB   C1A34013  33.295  36.576  18.455  0.3949 -0.0583 -0.2954
 1418BOLB   C2A34014  33.688  36.630  18.216  0.1656  0.1631  0.1902
 1418BOLB   C3A34015  34.058  36.734  18.007  0.0060  0.3397 -0.1587
 1418BOLB   C4A34016  34.110  36.901  17.752 -0.1257 -0.1174  0.1416
 1418BOLB   C1B34017  33.188  36.901  18.840  0.1298 -0.0633 -0.0151
 1418BOLB   C2B34018  33.242  37.132  18.510  0.0296  0.0409 -0.1765
 1418BOLB   C3B34019  33.385  37.055  18.123 -0.0248 -0.2056  0.0808
 1418BOLB   C4B34020  33.627  37.160  17.741 -0.1018 -0.2872  0.1618
 1418BOLB   NC234021  34.590  38.922  15.917  0.0498 -0.0222  0.1915
 1418BOLB   PO234022  34.401  38.643  16.214 -0.0263  0.1119  0.1682
 1418BOLB   GL334023  34.069  38.244  16.362 -0.0414  0.2088 -0.0760
 1418BOLB   GL434024  33.951  38.026  16.151 -0.0298  0.2853 -0.1959
 1418BOLB   C1C34025  33.778  38.040  16.678  0.1485  0.2719 -0.0012
 1418BOLB   C2C34026  33.826  37.700  16.826  0.1172 -0.1488 -0.1443
 1418BOLB   C3C34027  34.079  37.555  17.190 -0.2990 -0.0866 -0.2950
 1418BOLB   C4C34028  34.122  37.350  17.600  0.2867 -0.0964 -0.2718
 1418BOLB   C1D34029  33.753  37.720  16.340  0.1059 -0.0539  0.3420
 1418BOLB   C2D34030  33.362  37.450  16.451  0.0073  0.2978 -0.3565
 1418BOLB   C3D34031  33.437  37.250  16.852 -0.1255 -0.0523  0.0090
 1418BOLB   C4D34032  33.449  36.768  17.011 -0.1953 -0.0851 -0.0269
 1419BOLB   NC134033  27.561  30.690  13.609 -0.2513 -0.0315  0.2857
 1419BOLB   PO134034  27.256  30.266  13.540  0.3447  0.0696 -0.5023
 1419BOLB   GL134035  27.133  30.394  13.165  0.0528 -0.3167 -0.3753
 1419BOLB   GL234036  27.081  29.977  13.000 -0.1435 -0.3568  0.1529
 1419BOLB   C1A34037  27.064  30.442  12.673  0.1589  0.0873 -0.0851
 1419BOLB   C2A34038  27.173  30.526  12.256  0.4991 -0.1358  0.1313
 1419BOLB   C3A34039  27.274  30.739  11.847 -0.0264 -0.4251 -0.0670
 1419BOLB   C4A34040  27.380  30.932  11.443 -0.1538 -0.1482  0.1357
 1419BOLB   C1B34041  27.131  29.826  12.628 -0.4585 -0.0038  0.0400
 1419BOLB   C2B34042  26.996  29.825  12.186  0.1526 -0.0035 -0.2579
 1419BOLB   C3B34043  26.869  30.104  11.859 -0.1078 -0.0379  0.1479
 1419BOLB   C4B34044  26.934  30.165  11.315 -0.0622  0.0316 -0.1822
 1419BOLB   NC234045  28.724  31.719   9.430 -0.1052 -0.1185 -0.3291
 1419BOLB   PO234046  28.444  31.508   9.705  0.0965 -0.1159  0.2361
 1419BOLB   GL334047  28.272  31.434  10.140 -0.2540  0.1248 -0.1366
 1419BOLB   GL434048  28.499  31.242  10.291 -0.2627  0.0159 -0.2112
 1419BOLB   C1C34049  27.920  31.103  10.138 -0.1285  0.0685  0.0043
 1419BOLB   C2C34050  27.482  31.229  10.283 -0.0134  0.1045  0.1172
 1419BOLB   C3C34051  27.442  31.085  10.672 -0.1933 -0.3084  0.1876
 1419BOLB   C4C34052  27.309  31.033  11.050  0.0339 -0.1858  0.5248
 1419BOLB   C1D34053  28.946  31.277  10.273 -0.0339  0.0069  0.1379
 1419BOLB   C2D34054  29.408  31.446  10.395 -0.0472  0.1539 -0.1064
 1419BOLB   C3D34055  29.494  31.794  10.662  0.1029 -0.1663  0.1077
 1419BOLB   C4D34056  29.594  32.278  10.954 -0.0633 -0.0769  0.1770
 1420BOLB   NC134057  21.236  32.843  26.196 -0.0974  0.1602 -0.1170
 1420BOLB   PO134058  21.512  33.146  25.957  0.2525  0.2231 -0.1574
 1420BOLB   GL134059  21.150  33.345  26.203  0.3048 -0.2985  0.0478
 1420BOLB   GL234060  21.133  33.365  26.582 -0.1398 -0.1860 -0.1024
 1420BOLB   C1A34061  20.870  33.665  26.270  0.0744 -0.1279 -0.1823
 1420BOLB   C2A34062  20.486  33.630  26.423  0.2429 -0.4494 -0.1099
 1420BOLB   C3A34063  20.121  33.700  26.353  0.4315  0.0043 -0.1442
 1420BOLB   C4A34064  19.753  33.742  26.539 -0.1341  0.0043  0.0232
 1420BOLB   C1B34065  20.708  33.379  26.833  0.0298 -0.1768 -0.2477
 1420BOLB   C2B34066  20.271  33.444  26.809 -0.2666  0.1527 -0.0166
 1420BOLB   C3B34067  19.930  33.233  26.702  0.1188  0.1779 -0.1661
 1420BOLB   C4B34068  19.513  33.273  26.710 -0.1635 -0.1269  0.6118
 1420BOLB   NC234069  19.030  36.027   0.568  0.0955  0.0198 -0.2024
 1420BOLB   PO234070  18.656  35.776   0.416 -0.2644  0.0266 -0.0061
 1420BOLB   GL334071  19.005  35.632   0.205 -0.2605  0.0315 -0.3286
 1420BOLB   GL434072  19.282  35.674   0.257 -0.1497  0.0878  0.2500
 1420BOLB   C1C34073  19.175  35.262  26.906 -0.0960 -0.0442  0.0058
 1420BOLB   C2C34074  19.129  34.824  26.784  0.5303 -0.1317 -0.0638
 1420BOLB   C3C34075  19.149  34.430  26.884  0.0733  0.2748 -0.2919
 1420BOLB   C4C34076  19.395  34.036  26.731 -0.0939  0.0212 -0.2453
 1420BOLB   C1D34077  19.671  35.575   0.024 -0.1187  0.0070  0.1702
 1420BOLB   C2D34078  20.051  35.359  26.840 -0.1735  0.3128  0.0156
 1420BOLB   C3D34079  20.413  35.030  26.696  0.2723  0.0592  0.2920
 1420BOLB   C4D34080  20.709  34.835  26.456 -0.1824 -0.1506  0.4969
 1421BOLB   NC134081  27.569  20.875  21.397  0.1741 -0.0075  0.1196
 1421BOLB   PO134082  27.859  21.170  21.531  0.1905  0.0887  0.3172
 1421BOLB   GL134083  28.049  20.830  21.431  0.0428 -0.1183 -0.2409
 1421BOLB   GL234084  27.993  20.862  21.038  0.0153 -0.2908  0.0460
 1421BOLB   C1A34085  27.996  20.405  21.471  0.1069 -0.3334 -0.2484
 1421BOLB   C2A34086  28.133  20.049  21.486 -0.0387  0.1735  0.0722
 1421BOLB   C3A34087  28.519  19.768  21.456 -0.0908  0.0423  0.0061
 1421BOLB   C4A34088  28.690  19.462  21.290  0.0882  0.3409 -0.1773
 1421BOLB   C1B34089  27.889  20.434  21.003 -0.1024  0.2042 -0.2691
 1421BOLB   C2B34090  27.578  20.092  20.803  0.3075 -0.0676 -0.1576
 1421BOLB   C3B34091  27.528  19.627  20.689  0.0316  0.3845 -0.1178
 1421BOLB   C4B34092  27.634  19.178  20.517 -0.0893 -0.1484  0.0976
 1421BOLB   NC234093  29.081  17.240  20.136  0.2489 -0.0330  0.0328
 1421BOLB   PO234094  28.717  17.471  20.338  0.1930 -0.1327  0.0094
 1421BOLB   GL334095  28.565  17.910  20.517  0.0388 -0.3654  0.0519
 1421BOLB   GL434096  28.744  17.963  20.787  0.0505  0.0147  0.0822
 1421BOLB   C1C34097  28.362  18.139  20.404 -0.0890  0.1233 -0.1348
 1421BOLB   C2C34098  28.514  18.587  20.363  0.3241  0.0175 -0.2571
 1421BOLB   C3C34099  28.732  18.927  20.556  0.0603  0.4506  0.0129
 1421BOLB   C4C34100  28.633  19.172  20.937 -0.0074  0.2204 -0.4008
 1421BOLB   C1D34101  28.860  18.383  20.649 -0.1538  0.1090 -0.3172
 1421BOLB   C2D34102  28.999  18.598  20.271 -0.1989 -0.0231 -0.2431
 1421BOLB   C3D34103  29.081  18.888  19.948 -0.1615  0.0996 -0.1017
 1421BOLB   C4D34104  29.245  19.034  19.602 -0.1856 -0.2485  0.3519
 1422BOLB   NC134105  24.993  24.562  15.630  0.1170  0.0035 -0.1242
 1422BOLB   PO134106  25.041  24.298  15.987 -0.3332  0.0102  0.2011
 1422BOLB   GL134107  25.202  24.060  15.669 -0.0615  0.1378  0.0677
 1422BOLB   GL234108  24.877  24.112  15.490  0.0018 -0.1767  0.1742
 1422BOLB   C1A34109  25.166  23.698  15.475 -0.1062 -0.0451 -0.2916
 1422BOLB   C2A34110  25.443  23.355  15.296 -0.0871 -0.1215 -0.2016
 1422BOLB   C3A34111  25.623  23.030  15.001  0.3539  0.0170  0.0754
 1422BOLB   C4A34112  25.818  22.740  14.691  0.1306 -0.0909  0.0115
 1422BOLB   C1B34113  24.598  23.864  15.213 -0.1960 -0.0892 -0.2363
 1422BOLB   C2B34114  24.386  23.647  14.978 -0.3516  0.2077 -0.4456
 1422BOLB   C3B34115  24.126  23.453  14.642 -0.1649  0.0050  0.0153
 1422BOLB   C4B34116  24.165  23.212  14.315  0.1326  0.1153  0.0054
 1422BOLB   NC234117  25.568  20.761  13.381  0.0654 -0.1982 -0.2667
 1422BOLB   PO234118  25.684  20.623  13.746  0.1743  0.2112  0.1794
 1422BOLB   GL334119  25.722  20.864  13.996 -0.0034 -0.1767 -0.2828
 1422BOLB   GL434120  25.893  20.749  14.239 -0.0625  0.3216 -0.0588
 1422BOLB   C1C34121  25.600  21.205  14.251  0.0575  0.0163  0.0879
 1422BOLB   C2C34122  25.679  21.636  14.294 -0.1768 -0.2394  0.1421
 1422BOLB   C3C34123  25.557  21.997  14.288 -0.0684  0.1253  0.1192
 1422BOLB   C4C34124  25.735  22.428  14.359 -0.0108 -0.0429 -0.1501
 1422BOLB   C1D34125  25.920  20.530  14.574  0.0760 -0.0971 -0.1102
 1422BOLB   C2D34126  25.982  20.297  15.062  0.1565  0.0479  0.0240
 1422BOLB   C3D34127  26.094  20.369  15.487 -0.0520 -0.0670  0.1623
 1422BOLB   C4D34128  25.928  20.614  15.804 -0.1409 -0.2807  0.0828
 1423BOLB   NC134129  22.099  35.434  23.883 -0.1998 -0.2113  0.4835
 1423BOLB   PO134130  21.783  35.313  23.630 -0.0369  0.2158  0.1502
 1423BOLB   GL134131  21.549  35.685  23.685  0.0974 -0.0262 -0.2306
 1423BOLB   GL234132  21.323  35.908  23.971  0.0210  0.3366  0.1966
 1423BOLB   C1A34133  21.566  36.125  23.566  0.3553  0.3020  0.0678
 1423BOLB   C2A34134  21.387  36.476  23.253 -0.0343 -0.3614 -0.0365
 1423BOLB   C3A34135  20.924  36.434  23.380  0.2751  0.1638  0.0665
 1423BOLB   C4A34136  20.570  36.396  23.628  0.3407 -0.0298  0.0254
 1423BOLB   C1B34137  20.943  36.119  23.851 -0.0145  0.0304  0.0256
 1423BOLB   C2B34138  20.646  36.175  24.136 -0.0514  0.1237 -0.0293
 1423BOLB   C3B34139  20.352  36.265  24.450  0.0022  0.1112 -0.1465
 1423BOLB   C4B34140  20.022  36.231  24.829  0.1139 -0.0300 -0.3458
 1423BOLB   NC234141  18.266  37.414  24.252 -0.0377 -0.0291  0.0266
 1423BOLB   PO234142  18.641  37.606  24.194 -0.1854 -0.2019  0.1155
 1423BOLB   GL334143  19.010  37.426  24.096  0.1529  0.0145 -0.2633
 1423BOLB   GL434144  19.287  37.388  24.170 -0.3303  0.1742  0.0145
 1423BOLB   C1C34145  19.023  37.023  23.817  0.1640 -0.1587  0.0892
 1423BOLB   C2C34146  19.359  36.752  23.697 -0.0693 -0.6605 -0.0500
 1423BOLB   C3C34147  19.699  36.501  23.616 -0.1335 -0.0370  0.1135
 1423BOLB   C4C34148  20.115  36.458  23.820  0.0469 -0.1144  0.3445
 1423BOLB   C1D34149  19.617  37.259  23.901  0.0738  0.2825 -0.1853
 1423BOLB   C2D34150  19.994  37.000  23.785  0.2601 -0.0330 -0.1060
 1423BOLB   C3D34151  20.345  36.991  23.509  0.0433  0.0507  0.1424
 1423BOLB   C4D34152  20.620  36.833  23.183  0.0670  0.0674  0.2708
 1424BOLB   NC134153  34.833  26.061  21.633  0.0534  0.0273 -0.0407
 1424BOLB   PO134154  35.095  25.758  21.905 -0.5225  0.0392  0.0565
 1424BOLB   GL134155  35.422  25.916  21.943  0.1686  0.2232 -0.2175
 1424BOLB   GL234156  35.428  26.038  22.243  0.4308 -0.1883  0.2994
 1424BOLB   C1A34157  35.846  25.813  21.801 -0.0562  0.0523 -0.0540
 1424BOLB   C2A34158  36.108  25.661  21.985  0.0633  0.0308 -0.2757
 1424BOLB   C3A34159  36.285  25.294  21.932 -0.0980 -0.0205 -0.2563
 1424BOLB   C4A34160  36.407  24.842  22.013  0.2182 -0.3563  0.0109
 1424BOLB   C1B34161  35.795  25.867  22.359  0.1094 -0.3094 -0.0773
 1424BOLB   C2B34162  35.965  25.539  22.540  0.0083  0.3359 -0.0353
 1424BOLB   C3B34163  36.253  25.315  22.757 -0.2343 -0.5647  0.1855
 1424BOLB   C4B34164  36.591  25.079  22.973  0.1236 -0.1652 -0.2159
 1424BOLB   NC234165  38.698  23.252  21.900 -0.3868  0.0820  0.2790
 1424BOLB   PO234166  38.426  23.351  21.593  0.1368 -0.1643 -0.2570
 1424BOLB   GL334167  38.043  23.704  21.632 -0.1339 -0.2455 -0.2297
 1424BOLB   GL434168  37.954  23.894  21.368 -0.2729 -0.1971 -0.1414
 1424BOLB   C1C34169  37.554  23.608  21.881  0.2838 -0.1789  0.1675
 1424BOLB   C2C34170  37.210  24.051  21.954 -0.1063  0.0381  0.3520
 1424BOLB   C3C34171  37.017  24.373  22.016 -0.2846  0.0629 -0.0229
 1424BOLB   C4C34172  36.613  24.536  22.010 -0.2200  0.1744  0.0203
 1424BOLB   C1D34173  37.648  23.673  21.228  0.2854  0.0010 -0.2894
 1424BOLB   C2D34174  37.540  23.353  21.475 -0.0947  0.1575  0.1098
 1424BOLB   C3D34175  37.293  23.067  21.680 -0.0793  0.1943 -0.1256
 1424BOLB   C4D34176  37.194  22.602  21.739 -0.2771 -0.0877 -0.0261
 1425BOLB   NC134177  26.282  16.979   2.867 -0.2517  0.2086 -0.3503
 1425BOLB   PO134178  26.538  17.321   2.954  0.0319  0.0511 -0.1604
 1425BOLB   GL134179  26.328  17.598   3.099  0.1590 -0.0874  0.0795
 1425BOLB   GL234180  26.574  17.705   3.358 -0.0139 -0.0648  0.3677
 1425BOLB   C1A34181  25.864  17.817   3.088 -0.0076  0.1057 -0.0987
 1425BOLB   C2A34182  25.606  18.091   2.843  0.1686 -0.0290 -0.0900
 1425BOLB   C3A34183  25.911  18.402   2.696 -0.2544 -0.2195 -0.0375
 1425BOLB   C4A34184  26.328  18.582   2.863  0.2214  0.0171 -0.0273
 1425BOLB   C1B34185  26.152  17.892   3.561  0.0193  0.1030 -0.0354
 1425BOLB   C2B34186  25.794  18.145   3.671 -0.0543 -0.1052  0.0254
 1425BOLB   C3B34187  25.472  18.315   3.762 -0.1220 -0.2203 -0.0967
 1425BOLB   C4B34188  25.138  18.622   3.879  0.0319  0.0280  0.1140
 1425BOLB   NC234189  28.418  18.014   1.976 -0.1556  0.1928  0.0336
 1425BOLB   PO234190  28.382  17.952   2.426  0.0626 -0.1272 -0.0259
 1425BOLB   GL334191  28.322  18.434   2.325  0.0156  0.1721 -0.3427
 1425BOLB   GL434192  28.537  18.526   2.147 -0.0136  0.0290  0.5456
 1425BOLB   C1C34193  27.941  18.669   2.412  0.0046 -0.1179  0.0535
 1425BOLB   C2C34194  27.614  18.557   2.732  0.0546 -0.2367  0.0449
 1425BOLB   C3C34195  27.262  18.476   2.807 -0.1255  0.0363 -0.0328
 1425BOLB   C4C34196  26.849  18.636   2.771  0.0226  0.1962 -0.3513
 1425BOLB   C1D34197  28.252  18.846   2.058  0.0816 -0.6292  0.2614
 1425BOLB   C2D34198  27.799  19.133   2.071 -0.2198 -0.1081  0.2907
 1425BOLB   C3D34199  27.585  19.313   1.792 -0.1617 -0.2989 -0.1926
 1425BOLB   C4D34200  27.335  19.056   1.419 -0.0756 -0.2866  0.0987
 1426BOLB   NC134201  30.241  25.853  14.702 -0.2385 -0.3396  0.1128
 1426BOLB   PO134202  30.420  26.227  14.513  0.0038  0.0692 -0.0429
 1426BOLB   GL134203  30.623  26.122  14.150 -0.0143  0.2034  0.1841
 1426BOLB   GL234204  30.599  25.781  13.949  0.1325  0.1341  0.2169
 1426BOLB   C1A34205  30.746  26.147  13.687  0.2109  0.0569  0.0508
 1426BOLB   C2A34206  31.069  26.217  13.490  0.0416  0.0768  0.0777
 1426BOLB   C3A34207  31.542  26.239  13.358  0.0247  0.1297  0.3507
 1426BOLB   C4A34208  31.721  26.138  13.006  0.2878  0.0820  0.1819
 1426BOLB   C1B34209  30.456  25.681  13.606  0.1760 -0.1401 -0.0471
 1426BOLB   C2B34210  30.513  25.419  13.218 -0.4653 -0.0198  0.1054
 1426BOLB   C3B34211  30.846  25.089  13.146 -0.0074 -0.0677  0.2540
 1426BOLB   C4B34212  30.938  24.879  12.757  0.2289 -0.2408 -0.1492
 1426BOLB   NC234213  32.180  26.595  10.253  0.0685  0.0451 -0.4794
 1426BOLB   PO234214  31.955  26.421  10.599  0.0473  0.0218 -0.1223
 1426BOLB   GL334215  32.031  26.578  11.024  0.1418 -0.2935 -0.0214
 1426BOLB   GL434216  31.969  26.802  11.122 -0.1708  0.0245  0.1813
 1426BOLB   C1C34217  32.040  26.416  11.457  0.0328 -0.3652 -0.1366
 1426BOLB   C2C34218  32.118  26.462  11.877  0.2797  0.2303 -0.1288
 1426BOLB   C3C34219  31.970  26.143  12.188 -0.2079 -0.1547  0.2738
 1426BOLB   C4C34220  31.784  26.155  12.651 -0.1689  0.2924 -0.1372
 1426BOLB   C1D34221  31.942  27.201  11.407  0.0342 -0.0789 -0.0406
 1426BOLB   C2D34222  31.956  27.299  11.879  0.2677  0.1261  0.4968
 1426BOLB   C3D34223  32.077  27.022  12.106  0.1977 -0.3889  0.2746
 1426BOLB   C4D34224  31.973  26.569  12.388 -0.1035 -0.4541 -0.0363
 1427BOLB   NC134225  23.890  36.494  20.309  0.0220 -0.2949  0.0038
 1427BOLB   PO134226  23.761  36.447  19.940  0.0661 -0.3315 -0.1755
 1427BOLB   GL134227  23.738  36.908  19.866  0.0454  0.1233  0.0990
 1427BOLB   GL234228  23.850  37.075  19.639 -0.0809  0.2505 -0.1633
 1427BOLB   C1A34229  23.403  37.158  20.008 -0.4763 -0.1258  0.3485
 1427BOLB   C2A34230  23.069  37.579  19.907  0.1610 -0.0951 -0.2741
 1427BOLB   C3A34231  22.776  37.832  19.642  0.3224 -0.0863  0.0811
 1427BOLB   C4A34232  22.646  38.154  19.618 -0.1912 -0.2586 -0.1717
 1427BOLB   C1B34233  23.464  37.286  19.448 -0.2522  0.1048  0.5702
 1427BOLB   C2B34234  23.221  37.550  19.316  0.1272 -0.2660 -0.2440
 1427BOLB   C3B34235  22.883  37.857  19.139 -0.0018  0.1489  0.2055
 1427BOLB   C4B34236  22.674  38.119  18.805 -0.3948  0.3129 -0.0216
 1427BOLB   NC234237  22.147  40.475  18.885  0.1168  0.1572  0.3192
 1427BOLB   PO234238  21.774  40.179  18.615  0.0580 -0.2647 -0.3268
 1427BOLB   GL334239  21.970  39.787  18.863 -0.0670 -0.3845  0.3304
 1427BOLB   GL434240  21.715  39.608  19.019  0.0161 -0.0509 -0.1442
 1427BOLB   C1C34241  22.140  39.403  19.213  0.1126  0.1823 -0.0880
 1427BOLB   C2C34242  22.354  39.175  19.425 -0.1633  0.0485 -0.0540
 1427BOLB   C3C34243  22.435  38.836  19.580  0.1107 -0.1717  0.1717
 1427BOLB   C4C34244  22.517  38.471  19.886 -0.1385 -0.2989 -0.2495
 1427BOLB   C1D34245  21.750  39.468  19.551 -0.2148  0.0880  0.0821
 1427BOLB   C2D34246  22.020  39.390  19.876 -0.1841 -0.0382 -0.1327
 1427BOLB   C3D34247  22.406  39.204  20.064 -0.2687 -0.1847  0.0683
 1427BOLB   C4D34248  22.772  39.419  20.229  0.0739  0.3592  0.3566
 1428BOLB   NC134249  25.174  22.347  17.867 -0.0768 -0.1242 -0.2387
 1428BOLB   PO134250  25.589  22.465  17.624  0.1370  0.2661 -0.1496
 1428BOLB   GL134251  25.611  22.216  17.290  0.1672  0.2187  0.1972
 1428BOLB   GL234252  25.803  22.236  16.986 -0.1490 -0.1057 -0.2088
 1428BOLB   C1A34253  25.593  21.767  17.014  0.0340 -0.0350 -0.0384
 1428BOLB   C2A34254  25.498  21.532  16.681  0.6450  0.0050 -0.1764
 1428BOLB   C3A34255  25.382  21.206  16.381  0.0745  0.1118 -0.0592
 1428BOLB   C4A34256  25.812  20.830  16.347 -0.0808  0.1055  0.2522
 1428BOLB   C1B34257  25.961  21.995  16.746  0.0590  0.2174  0.1603
 1428BOLB   C2B34258  26.096  21.595  16.509 -0.3760  0.4526  0.1146
 1428BOLB   C3B34259  26.087  21.295  16.250 -0.2343 -0.0695 -0.4748
 1428BOLB   C4B34260  26.304  20.963  16.079  0.3332 -0.0208 -0.3812
 1428BOLB   NC234261  25.828  19.798  14.133  0.1487 -0.2727  0.2615
 1428BOLB   PO234262  25.650  19.951  14.459 -0.1820 -0.1097  0.1892
 1428BOLB   GL334263  25.579  20.011  14.889 -0.3835  0.1997  0.2222
 1428BOLB   GL434264  25.225  20.073  14.870  0.0379 -0.2207 -0.3558
 1428BOLB   C1C34265  25.584  20.148  15.343 -0.0788  0.1431  0.2219
 1428BOLB   C2C34266  25.690  20.084  15.763 -0.2169  0.0277  0.0929
 1428BOLB   C3C34267  25.942  20.204  16.105  0.0436 -0.4329 -0.1106
 1428BOLB   C4C34268  25.846  20.393  16.431 -0.4148  0.0694  0.0272
 1428BOLB   C1D34269  25.163  20.331  15.253 -0.2559  0.0558 -0.0352
 1428BOLB   C2D34270  25.379  20.707  15.563 -0.0837  0.1960 -0.0030
 1428BOLB   C3D34271  25.653  21.093  15.500 -0.1927  0.2923 -0.3464
 1428BOLB   C4D34272  25.891  21.507  15.511  0.2035 -0.1468  0.0371
 1429BOLB   NC134273  33.733  27.299  25.701 -0.1173  0.1585  0.1819
 1429BOLB   PO134274  33.609  27.239  26.053 -0.3930  0.0537  0.3824
 1429BOLB   GL134275  33.938  27.041  26.275  0.0758 -0.1833 -0.3544
 1429BOLB   GL234276  33.863  27.010  26.578 -0.0730  0.0340 -0.0163
 1429BOLB   C1A34277  34.282  27.160  26.378 -0.3178 -0.0329  0.2394
 1429BOLB   C2A34278  34.515  26.983  26.618  0.0581  0.1190  0.2452
 1429BOLB   C3A34279  34.815  26.811  26.912  0.0965 -0.3450 -0.1252
 1429BOLB   C4A34280  35.122  26.600   0.027 -0.1848  0.2625 -0.2429
 1429BOLB   C1B34281  34.141  26.994  26.860  0.2728 -0.0210 -0.0533
 1429BOLB   C2B34282  34.373  26.893   0.376  0.0838 -0.4481  0.3240
 1429BOLB   C3B34283  34.440  26.781   0.879 -0.2394 -0.0500 -0.4328
 1429BOLB   C4B34284  34.452  27.011   1.327  0.0034  0.1454 -0.0719
 1429BOLB   NC234285  37.394  26.138   1.437  0.0944 -0.0784  0.3773
 1429BOLB   PO234286  37.055  26.361   1.674 -0.5949 -0.2540 -0.1658
 1429BOLB   GL334287  36.634  26.519   1.460  0.1962  0.0093  0.1108
 1429BOLB   GL434288  36.349  26.480   1.559  0.2560 -0.2425  0.0120
 1429BOLB   C1C34289  36.382  26.656   1.015  0.0631 -0.2084 -0.0122
 1429BOLB   C2C34290  36.117  26.346   0.774 -0.0216  0.0210  0.0817
 1429BOLB   C3C34291  35.826  26.298   0.455 -0.3188  0.0333  0.1447
 1429BOLB   C4C34292  35.393  26.257   0.093 -0.0154  0.0703  0.0647
 1429BOLB   C1D34293  36.047  26.299   1.322 -0.0376 -0.2445 -0.0733
 1429BOLB   C2D34294  35.521  26.244   1.270  0.1889  0.1241  0.2011
 1429BOLB   C3D34295  35.339  26.275   0.875  0.2293 -0.0719  0.0847
 1429BOLB   C4D34296  35.205  26.430   0.516  0.2139 -0.0243 -0.0725
 1430BOLB   NC134297  27.584  31.926   2.348 -0.1946 -0.0016  0.1285
 1430BOLB   PO134298  27.563  31.928   2.787 -0.0148 -0.1736  0.1077
 1430BOLB   GL134299  27.589  32.311   2.906  0.1059 -0.1623 -0.2284
 1430BOLB   GL234300  27.369  32.535   2.969  0.1992 -0.0742  0.0417
 1430BOLB   C1A34301  27.716  32.798   3.156  0.1999  0.0392  0.1873
 1430BOLB   C2A34302  27.508  32.924   3.466 -0.4301 -0.0371  0.2432
 1430BOLB   C3A34303  27.742  32.937   3.926 -0.1829  0.1659 -0.0086
 1430BOLB   C4A34304  27.693  32.778   4.357  0.0997  0.0849  0.0688
 1430BOLB   C1B34305  27.326  32.408   3.416  0.0664 -0.0152 -0.0928
 1430BOLB   C2B34306  27.255  32.142   3.743  0.0825 -0.0731 -0.1487
 1430BOLB   C3B34307  27.059  31.821   4.027  0.2195 -0.0092 -0.1207
 1430BOLB   C4B34308  26.987  31.702   4.490 -0.1088  0.3718  0.0506
 1430BOLB   NC234309  27.541  32.872   6.972 -0.2526 -0.1095  0.3517
 1430BOLB   PO234310  27.413  32.572   6.809  0.0088 -0.0578  0.0657
 1430BOLB   GL334311  27.225  32.587   6.395  0.0354  0.0819  0.2475
 1430BOLB   GL434312  26.942  32.322   6.315  0.1778  0.2093 -0.3631
 1430BOLB   C1C34313  27.350  32.675   6.050  0.1864  0.1286  0.1219
 1430BOLB   C2C34314  27.317  32.670   5.629  0.1881  0.0195  0.2928
 1430BOLB   C3C34315  27.357  32.737   5.138 -0.0142  0.1548 -0.0482
 1430BOLB   C4C34316  27.397  32.545   4.735  0.0139  0.0575 -0.3369
 1430BOLB   C1D34317  27.249  32.096   5.990 -0.2333  0.1041  0.1202
 1430BOLB   C2D34318  27.207  32.185   5.701 -0.0636 -0.0279 -0.3974
 1430BOLB   C3D34319  27.168  32.277   5.249  0.2363 -0.0413 -0.1497
 1430BOLB   C4D34320  26.909  32.499   4.994 -0.3501  0.0868 -0.3599
 1431BOLB   NC134321  20.208  33.016  21.711  0.2302  0.2033  0.0975
 1431BOLB   PO134322  20.037  33.219  22.022  0.0074  0.0365 -0.1090
 1431BOLB   GL134323  19.658  33.314  22.120 -0.0583  0.0894  0.3866
 1431BOLB   GL234324  19.607  33.334  22.393  0.2027 -0.0163 -0.0346
 1431BOLB   C1A34325  19.296  33.446  21.758 -0.1190 -0.1883  0.1593
 1431BOLB   C2A34326  18.971  33.575  21.527 -0.1599 -0.0330  0.0791
 1431BOLB   C3A34327  18.743  33.890  21.230 -0.3564  0.0703  0.0971
 1431BOLB   C4A34328  18.800  34.271  20.897  0.1655  0.0075  0.1803
 1431BOLB   C1B34329  19.478  33.752  22.375  0.0116  0.2001 -0.0383
 1431BOLB   C2B34330  19.300  34.145  22.379 -0.2019  0.0506 -0.0329
 1431BOLB   C3B34331  18.929  34.260  22.272 -0.1683  0.0342 -0.2131
 1431BOLB   C4B34332  18.567  34.413  22.053  0.0028  0.1089 -0.1574
 1431BOLB   NC234333  16.054  34.527  21.145  0.0314 -0.0557  0.1293
 1431BOLB   PO234334  16.435  34.806  21.131  0.0523 -0.0458  0.1531
 1431BOLB   GL334335  16.809  34.724  20.974  0.2035 -0.3111 -0.0568
 1431BOLB   GL434336  16.977  34.565  21.206  0.1163 -0.0972  0.0905
 1431BOLB   C1C34337  17.228  34.736  20.801  0.2716  0.1191 -0.2304
 1431BOLB   C2C34338  17.554  34.705  20.405  0.3449 -0.0630 -0.0765
 1431BOLB   C3C34339  17.900  34.370  20.585  0.0020 -0.1103  0.0202
 1431BOLB   C4C34340  18.362  34.458  20.812 -0.2034 -0.4503  0.1516
 1431BOLB   C1D34341  17.124  34.128  21.208 -0.1235  0.1866  0.1847
 1431BOLB   C2D34342  17.277  33.729  21.417 -0.0405  0.0216  0.4161
 1431BOLB   C3D34343  17.389  33.793  21.778 -0.1374  0.3228 -0.4142
 1431BOLB   C4D34344  17.638  33.833  22.094  0.2535 -0.1364  0.2519
 1432BOLB   NC134345  25.534  22.797  17.261  0.0653 -0.2136  0.3439
 1432BOLB   PO134346  25.741  22.841  16.862  0.1154  0.1212 -0.1595
 1432BOLB   GL134347  25.520  22.641  16.624 -0.2561 -0.0037  0.0960
 1432BOLB   GL234348  25.276  22.738  16.600 -0.0054  0.0273  0.0936
 1432BOLB   C1A34349  25.500  22.233  16.575  0.1666 -0.2229 -0.0434
 1432BOLB   C2A34350  25.701  21.909  16.334 -0.1029 -0.1591  0.0230
 1432BOLB   C3A34351  25.947  21.721  15.968  0.0194 -0.0538  0.1883
 1432BOLB   C4A34352  26.215  21.440  15.824  0.0050 -0.1443  0.0883
 1432BOLB   C1B34353  25.148  22.513  16.316  0.3759  0.2402  0.0538
 1432BOLB   C2B34354  25.229  22.042  16.160 -0.1133  0.0197  0.3445
 1432BOLB   C3B34355  25.204  21.655  16.026 -0.1218 -0.3962  0.3874
 1432BOLB   C4B34356  25.296  21.324  15.751  0.1762  0.1045  0.0531
 1432BOLB   NC234357  26.628  19.205  14.434  0.0085  0.3169  0.2820
 1432BOLB   PO234358  26.218  19.470  14.543  0.1236 -0.0482  0.1072
 1432BOLB   GL334359  26.540  19.748  14.543  0.0813  0.0388  0.2179
 1432BOLB   GL434360  26.777  19.752  14.671  0.0303 -0.0538  0.3046
 1432BOLB   C1C34361  26.407  20.193  14.581 -0.3762  0.0463 -0.0006
 1432BOLB   C2C34362  26.417  20.513  14.927 -0.0409 -0.0035 -0.2407
 1432BOLB   C3C34363  26.359  20.902  15.203  0.0200  0.2561 -0.1396
 1432BOLB   C4C34364  26.142  21.036  15.618 -0.1155  0.2585  0.0866
 1432BOLB   C1D34365  26.978  20.080  14.805 -0.1197  0.2491 -0.0281
 1432BOLB   C2D34366  26.952  20.276  15.233  0.0276 -0.2158  0.0400
 1432BOLB   C3D34367  26.673  20.483  15.371 -0.1192 -0.1758  0.0942
 1432BOLB   C4D34368  26.489  20.665  15.714 -0.1085  0.0141  0.1882
 1433BOLB   NC134369  31.208  32.216  14.805 -0.2217  0.1208 -0.2444
 1433BOLB   PO134370  31.260  32.690  14.828 -0.1597 -0.0913 -0.0209
 1433BOLB   GL134371  31.411  32.564  14.466  0.2636 -0.3049  0.0628
 1433BOLB   GL234372  31.227  32.734  14.186 -0.1128 -0.0325  0.4610
 1433BOLB   C1A34373  31.586  32.325  14.025 -0.3013 -0.3962  0.2545
 1433BOLB   C2A34374  31.920  32.145  13.773 -0.1323 -0.1463 -0.0631
 1433BOLB   C3A34375  31.958  32.261  13.305 -0.0710  0.1694  0.1974
 1433BOLB   C4A34376  32.063  32.516  12.991 -0.3978  0.1162 -0.2544
 1433BOLB   C1B34377  31.569  32.808  13.904  0.1159  0.0092 -0.0870
 1433BOLB   C2B34378  31.789  32.636  13.626  0.0628 -0.2918 -0.2387
 1433BOLB   C3B34379  32.145  32.728  13.419 -0.0677 -0.0961 -0.0385
 1433BOLB   C4B34380  32.485  32.583  13.169 -0.0524 -0.2132  0.0440
 1433BOLB   NC234381  31.946  33.609  10.811  0.1061 -0.0093 -0.1554
 1433BOLB   PO234382  32.396  33.522  10.798 -0.0195 -0.0736  0.0316
 1433BOLB   GL334383  32.414  33.242  11.133 -0.3670  0.0437  0.1754
 1433BOLB   GL434384  32.123  33.137  11.031  0.0643 -0.0019  0.2347
 1433BOLB   C1C34385  32.415  32.932  11.468  0.0454  0.1211 -0.0089
 1433BOLB   C2C34386  32.496  32.621  11.714 -0.2351  0.1434 -0.1043
 1433BOLB   C3C34387  32.265  32.511  12.073 -0.2729  0.0471  0.0343
 1433BOLB   C4C34388  32.182  32.381  12.526 -0.0981 -0.3531 -0.2505
 1433BOLB   C1D34389  31.893  33.153  11.279  0.1144 -0.3918 -0.0416
 1433BOLB   C2D34390  32.094  33.247  11.649  0.1380  0.3165  0.0129
 1433BOLB   C3D34391  32.157  33.013  12.082  0.3123 -0.1501  0.0119
 1433BOLB   C4D34392  32.080  32.848  12.486  0.1186 -0.0644  0.0289
 1434BOLB   NC134393  23.268  26.236  15.826  0.0799  0.2938  0.0666
 1434BOLB   PO134394  23.000  26.541  15.894  0.2877 -0.0097  0.0973
 1434BOLB   GL134395  22.882  26.203  15.548  0.1079 -0.0578  0.0866
 1434BOLB   GL234396  22.497  26.254  15.532  0.1432 -0.1354 -0.0023
 1434BOLB   C1A34397  22.693  25.862  15.260 -0.0138  0.1277  0.0579
 1434BOLB   C2A34398  22.477  25.610  14.944 -0.1784 -0.4707  0.1545
 1434BOLB   C3A34399  22.473  25.263  14.745  0.0342  0.2218  0.0834
 1434BOLB   C4A34400  22.505  25.044  14.395  0.1308  0.0983 -0.0812
 1434BOLB   C1B34401  22.190  26.171  15.279  0.1872  0.1170 -0.0530
 1434BOLB   C2B34402  22.113  25.810  15.148 -0.1624 -0.2577 -0.0740
 1434BOLB   C3B34403  21.978  25.698  14.814  0.0898  0.0629  0.1620
 1434BOLB   C4B34404  22.081  25.723  14.457  0.1032 -0.2015 -0.3129
 1434BOLB   NC234405  20.927  24.514  12.921 -0.2684  0.0465  0.0914
 1434BOLB   PO234406  21.195  24.316  12.694  0.0563  0.0245 -0.1789
 1434BOLB   GL334407  21.410  24.533  13.087  0.1621 -0.2211  0.1278
 1434BOLB   GL434408  21.253  24.725  13.323 -0.0582  0.3837 -0.1120
 1434BOLB   C1C34409  21.765  24.664  13.320  0.0811 -0.1420  0.1001
 1434BOLB   C2C34410  22.037  24.647  13.550  0.0118  0.1920 -0.0930
 1434BOLB   C3C34411  22.468  24.804  13.662 -0.0029  0.2716  0.3616
 1434BOLB   C4C34412  22.652  25.009  14.015  0.0126 -0.0731 -0.3253
 1434BOLB   C1D34413  21.196  25.021  13.516 -0.0179 -0.2246 -0.2040
 1434BOLB   C2D34414  21.293  25.434  13.427 -0.0513 -0.1220 -0.4544
 1434BOLB   C3D34415  21.025  25.822  13.458 -0.0634  0.5438  0.2612
 1434BOLB   C4D34416  20.828  26.020  13.033  0.0126 -0.0464 -0.0321
 1435BOLB   NC134417  16.538  24.876   4.663  0.0665  0.4565 -0.0837
 1435BOLB   PO134418  16.624  24.754   4.245 -0.3362  0.1490 -0.0445
 1435BOLB   GL134419  16.959  24.866   3.987  0.0553 -0.1182  0.2618
 1435BOLB   GL234420  16.942  25.125   3.708 -0.3001  0.3315  0.1328
 1435BOLB   C1A34421  17.408  24.992   4.029  0.1259  0.1051  0.0757
 1435BOLB   C2A34422  17.832  25.076   4.238  0.1014 -0.0619  0.0156
 1435BOLB   C3A34423  18.187  25.382   4.474  0.2482  0.0567 -0.0897
 1435BOLB   C4A34424  18.303  25.873   4.240 -0.1488  0.1604  0.3883
 1435BOLB   C1B34425  17.328  25.196   3.484  0.1480 -0.0886  0.1254
 1435BOLB   C2B34426  17.668  25.230   3.118  0.1552  0.3207  0.2906
 1435BOLB   C3B34427  18.001  25.306   2.685 -0.0873 -0.2709 -0.0589
 1435BOLB   C4B34428  18.339  25.300   2.427 -0.0934 -0.1287 -0.3388
 1435BOLB   NC234429  16.394  27.616   5.265  0.2801  0.1948 -0.0121
 1435BOLB   PO234430  16.286  27.314   4.833 -0.0664 -0.0243  0.4430
 1435BOLB   GL334431  16.665  27.086   4.586 -0.1247 -0.0619  0.0021
 1435BOLB   GL434432  16.857  26.917   4.789 -0.2583  0.1498 -0.0141
 1435BOLB   C1C34433  17.008  26.948   4.312 -0.2354 -0.2288 -0.0663
 1435BOLB   C2C34434  17.407  26.740   4.354 -0.1243  0.0717  0.0949
 1435BOLB   C3C34435  17.525  26.407   4.223 -0.3447  0.1597 -0.0471
 1435BOLB   C4C34436  17.880  26.141   4.251  0.1165 -0.0756  0.2907
 1435BOLB   C1D34437  17.044  26.568   4.646 -0.1318 -0.0361 -0.1006
 1435BOLB   C2D34438  17.149  26.156   4.430 -0.1676 -0.1049  0.3838
 1435BOLB   C3D34439  17.453  25.836   4.182 -0.0641  0.1604  0.2152
 1435BOLB   C4D34440  17.365  25.577   3.873  0.2762  0.0385 -0.0822
 1436BOLB   NC134441  21.054  27.028  16.676 -0.2565  0.0497 -0.2121
 1436BOLB   PO134442  20.920  27.436  16.560 -0.0882 -0.1539 -0.0042
 1436BOLB   GL134443  20.724  27.236  16.250  0.4184  0.0361 -0.1903
 1436BOLB   GL234444  20.824  26.982  16.259 -0.3748 -0.2073  0.2593
 1436BOLB   C1A34445  20.375  27.224  16.134  0.0852  0.1551 -0.2428
 1436BOLB   C2A34446  19.991  27.377  15.915 -0.0673  0.0739 -0.1374
 1436BOLB   C3A34447  19.649  27.605  15.752 -0.2778  0.1849  0.1515
 1436BOLB   C4A34448  19.515  27.846  15.387 -0.0328 -0.3440  0.0626
 1436BOLB   C1B34449  20.785  26.500  16.297  0.0490 -0.0177 -0.0634
 1436BOLB   C2B34450  20.487  26.202  16.021  0.1091 -0.1691  0.1009
 1436BOLB   C3B34451  20.353  25.773  16.044 -0.2442  0.0125  0.0424
 1436BOLB   C4B34452  20.323  25.467  16.331  0.1698 -0.3017  0.0921
 1436BOLB   NC234453  17.770  28.217  13.758  0.1520 -0.0677 -0.0425
 1436BOLB   PO234454  18.000  27.993  14.132 -0.1229  0.4004  0.2886
 1436BOLB   GL334455  18.303  28.028  14.416 -0.1084  0.2566 -0.2437
 1436BOLB   GL434456  18.450  27.755  14.656  0.2544  0.5787  0.1138
 1436BOLB   C1C34457  18.722  28.129  14.280  0.0895  0.0850 -0.1137
 1436BOLB   C2C34458  19.184  27.941  14.391  0.3305 -0.0654  0.0186
 1436BOLB   C3C34459  19.495  28.033  14.558 -0.2631  0.1170 -0.1575
 1436BOLB   C4C34460  19.537  28.052  15.017  0.2845  0.0367  0.0140
 1436BOLB   C1D34461  18.739  27.947  14.923 -0.0064 -0.0038 -0.2427
 1436BOLB   C2D34462  18.923  28.123  15.208 -0.1855  0.2014  0.0527
 1436BOLB   C3D34463  19.039  28.469  15.495  0.1076  0.2691 -0.2217
 1436BOLB   C4D34464  19.346  28.748  15.673 -0.0111  0.0509  0.0328
 1437BOLB   NC134465  13.987  22.958  22.050  0.0692 -0.0575 -0.0967
 1437BOLB   PO134466  14.104  22.548  21.777 -0.4939 -0.1451  0.1935
 1437BOLB   GL134467  14.439  22.664  21.966  0.3036 -0.2422  0.1916
 1437BOLB   GL234468  14.736  22.473  21.884  0.3974  0.1388  0.2848
 1437BOLB   C1A34469  14.859  22.880  22.178  0.0693 -0.2630  0.2598
 1437BOLB   C2A34470  15.208  23.032  22.209  0.0154  0.1521  0.1301
 1437BOLB   C3A34471  15.622  23.234  22.333  0.0051 -0.3482  0.0041
 1437BOLB   C4A34472  15.556  23.704  22.400  0.0819 -0.2416  0.0434
 1437BOLB   C1B34473  15.042  22.190  22.098  0.1030 -0.2976  0.1933
 1437BOLB   C2B34474  15.468  22.078  21.975 -0.4982 -0.3334  0.3332
 1437BOLB   C3B34475  15.826  21.833  22.085  0.2612  0.0550 -0.0194
 1437BOLB   C4B34476  15.920  21.341  22.024  0.2293  0.1225 -0.3914
 1437BOLB   NC234477  12.758  24.347  22.311 -0.1468  0.1245  0.3624
 1437BOLB   PO234478  13.155  24.208  22.386 -0.0790  0.2167  0.1644
 1437BOLB   GL334479  13.653  24.218  22.371  0.0774 -0.1561 -0.4013
 1437BOLB   GL434480  13.682  24.416  22.530  0.0409  0.1339  0.3031
 1437BOLB   C1C34481  13.999  24.207  22.115  0.0206  0.1238 -0.2728
 1437BOLB   C2C34482  14.395  23.963  22.029 -0.0348 -0.0016  0.1510
 1437BOLB   C3C34483  14.854  24.069  22.140 -0.0195 -0.1828 -0.1256
 1437BOLB   C4C34484  15.220  23.942  22.297 -0.0432  0.3130  0.2390
 1437BOLB   C1D34485  13.990  24.665  22.235 -0.3160 -0.1789  0.1838
 1437BOLB   C2D34486  14.114  24.941  22.080 -0.1577 -0.1194 -0.1242
 1437BOLB   C3D34487  14.335  25.048  21.712  0.1807 -0.3354  0.5341
 1437BOLB   C4D34488  14.167  25.166  21.405  0.0512 -0.1918 -0.2008
 1438BOLB   NC134489  15.551  30.713   2.120  0.1574  0.0495  0.0493
 1438BOLB   PO134490  15.990  31.113   2.124 -0.4959  0.1384  0.3143
 1438BOLB   GL134491  16.115  31.146   1.716 -0.0272 -0.1804  0.2641
 1438BOLB   GL234492  16.433  30.988   1.603 -0.1516  0.1759  0.4581
 1438BOLB   C1A34493  16.079  30.907   1.265  0.1933  0.0454  0.0192
 1438BOLB   C2A34494  16.306  30.528   1.228 -0.1384 -0.0732  0.3020
 1438BOLB   C3A34495  16.657  30.313   0.945  0.1575  0.2235 -0.2131
 1438BOLB   C4A34496  16.608  30.061   0.652  0.1685  0.2652 -0.1219
 1438BOLB   C1B34497  16.506  30.591   1.731  0.0782 -0.0102  0.1573
 1438BOLB   C2B34498  16.359  30.234   2.090  0.1604 -0.0916 -0.3654
 1438BOLB   C3B34499  16.232  30.126   2.510 -0.0746 -0.0728  0.3884
 1438BOLB   C4B34500  16.401  29.883   2.742 -0.1242 -0.2400 -0.3561
 1438BOLB   NC234501  14.896  31.304  26.628  0.0419  0.0865  0.0359
 1438BOLB   PO234502  14.619  30.936  26.682 -0.1333 -0.1410 -0.3550
 1438BOLB   GL334503  15.053  30.874  26.751 -0.1083 -0.3622  0.1007
 1438BOLB   GL434504  15.417  31.078  26.828 -0.1346  0.0964  0.1551
 1438BOLB   C1C34505  15.472  30.546  26.765  0.1355  0.0200  0.2301
 1438BOLB   C2C34506  15.876  30.499   0.006  0.0722 -0.2742  0.2691
 1438BOLB   C3C34507  16.253  30.331  26.863  0.4783 -0.0122  0.1251
 1438BOLB   C4C34508  16.504  30.147   0.273  0.0645 -0.3420 -0.1531
 1438BOLB   C1D34509  15.864  30.999  26.821 -0.0901 -0.0309 -0.1427
 1438BOLB   C2D34510  16.299  30.878  26.707  0.1989 -0.0340  0.3964
 1438BOLB   C3D34511  16.666  30.776   0.053 -0.1856  0.1133  0.1250
 1438BOLB   C4D34512  17.053  30.713  26.913 -0.5141 -0.0255 -0.1096
 1439BOLB   NC134513  35.156  32.368  23.021  0.0320 -0.2335  0.0150
 1439BOLB   PO134514  35.424  32.024  22.905 -0.3645 -0.1596  0.1977
 1439BOLB   GL134515  35.698  32.341  23.001 -0.0463  0.0768  0.0576
 1439BOLB   GL234516  35.633  32.689  23.178 -0.2564 -0.0123 -0.0078
 1439BOLB   C1A34517  36.071  32.544  22.940  0.2372  0.0031  0.1476
 1439BOLB   C2A34518  36.449  32.723  23.045  0.0278  0.0390  0.2733
 1439BOLB   C3A34519  36.758  32.882  23.295  0.0556  0.1662  0.3570
 1439BOLB   C4A34520  37.074  33.031  23.480 -0.1357 -0.1618 -0.1278
 1439BOLB   C1B34521  36.029  32.769  23.388 -0.3803 -0.0723  0.1344
 1439BOLB   C2B34522  36.404  32.805  23.612  0.0721  0.4264  0.1861
 1439BOLB   C3B34523  36.600  33.092  23.752 -0.0991 -0.2281  0.0241
 1439BOLB   C4B34524  36.643  33.302  24.161  0.0340 -0.1294 -0.3172
 1439BOLB   NC234525  39.266  33.814  24.574 -0.0953 -0.0905  0.0416
 1439BOLB   PO234526  39.170  34.113  24.325 -0.0969  0.0038 -0.3168
 1439BOLB   GL334527  38.714  33.929  24.296 -0.1923  0.2655  0.3442
 1439BOLB   GL434528  38.370  33.965  24.508  0.2952  0.1708 -0.0060
 1439BOLB   C1C34529  38.299  33.836  24.040  0.2451 -0.2293  0.1530
 1439BOLB   C2C34530  37.904  33.758  24.031  0.1339  0.3665 -0.0308
 1439BOLB   C3C34531  37.834  33.466  23.745  0.1356  0.0508  0.1454
 1439BOLB   C4C34532  37.430  33.207  23.674 -0.3538 -0.1744 -0.1181
 1439BOLB   C1D34533  38.058  33.653  24.689  0.3268 -0.0963  0.0318
 1439BOLB   C2D34534  37.757  33.615  24.945 -0.0814  0.0532 -0.1615
 1439BOLB   C3D34535  37.332  33.705  24.956  0.2199 -0.0672  0.1725
 1439BOLB   C4D34536  36.930  33.609  24.870  0.1206 -0.0142  0.2110
 1440BOLB   NC134537  29.656  36.523  26.474  0.0433 -0.2575 -0.2633
 1440BOLB   PO134538  29.460  36.767  26.161  0.1173  0.4285 -0.1439
 1440BOLB   GL134539  29.660  37.008  26.462  0.3153 -0.0030  0.0251
 1440BOLB   GL234540  29.292  37.017  26.607 -0.3357 -0.0514 -0.3478
 1440BOLB   C1A34541  29.957  37.190  26.639  0.0104  0.2017 -0.1748
 1440BOLB   C2A34542  30.036  37.529  26.535  0.2790 -0.0691 -0.0171
 1440BOLB   C3A34543  30.234  37.842  26.567  0.2298  0.4236 -0.3486
 1440BOLB   C4A34544  30.096  38.277  26.527 -0.3045 -0.0467  0.3914
 1440BOLB   C1B34545  29.430  37.117   0.048  0.2334 -0.1797 -0.0880
 1440BOLB   C2B34546  29.349  37.192   0.527 -0.3255 -0.4045  0.2424
 1440BOLB   C3B34547  29.504  37.442   0.835  0.3785 -0.1471 -0.0984
 1440BOLB   C4B34548  29.484  37.821   1.099 -0.3120 -0.0870 -0.0500
 1440BOLB   NC234549  29.120  40.700   1.323  0.0980 -0.2208 -0.2304
 1440BOLB   PO234550  29.121  40.279   1.285  0.0039  0.2382 -0.1554
 1440BOLB   GL334551  29.015  39.980   0.855  0.1133  0.0330  0.1670
 1440BOLB   GL434552  28.807  39.614   0.808 -0.0133  0.1875  0.1188
 1440BOLB   C1C34553  29.344  39.658   0.816  0.1586  0.3094 -0.0255
 1440BOLB   C2C34554  29.672  39.383   0.522 -0.2523 -0.2628 -0.3390
 1440BOLB   C3C34555  29.778  38.897   0.349  0.1353 -0.2909  0.2278
 1440BOLB   C4C34556  29.770  38.470  26.852 -0.2728  0.0276 -0.3055
 1440BOLB   C1D34557  28.467  39.399   0.658  0.2196  0.1110  0.1137
 1440BOLB   C2D34558  28.108  39.288   0.922 -0.0298 -0.1547  0.1171
 1440BOLB   C3D34559  27.862  39.162   0.683  0.1296 -0.1505  0.1447
 1440BOLB   C4D34560  27.509  39.351   0.428 -0.1695  0.1820  0.1162
 1441BOLB   NC134561  28.776  37.640  20.211 -0.1195  0.2612 -0.0376
 1441BOLB   PO134562  28.408  37.848  20.298  0.0904  0.2351  0.2384
 1441BOLB   GL134563  28.197  38.247  20.160  0.5827  0.5159 -0.2748
 1441BOLB   GL234564  27.915  38.240  19.922 -0.1192  0.2729 -0.1016
 1441BOLB   C1A34565  28.347  38.607  20.105 -0.3145 -0.0139 -0.4299
 1441BOLB   C2A34566  28.295  39.038  20.007 -0.3105  0.0642  0.0404
 1441BOLB   C3A34567  28.278  39.471  19.976 -0.0257 -0.2807  0.0497
 1441BOLB   C4A34568  28.516  39.832  20.083  0.1333 -0.1423 -0.0715
 1441BOLB   C1B34569  27.859  38.571  19.768  0.2501 -0.0782 -0.1426
 1441BOLB   C2B34570  27.851  38.803  19.311 -0.1224 -0.3405  0.0558
 1441BOLB   C3B34571  27.627  39.095  19.017  0.1071  0.0454 -0.0298
 1441BOLB   C4B34572  27.317  38.966  18.776 -0.1363 -0.0311  0.0930
 1441BOLB   NC234573  29.101  41.856  19.855  0.1714  0.0209 -0.3900
 1441BOLB   PO234574  28.765  42.035  20.113 -0.4032 -0.1421 -0.1837
 1441BOLB   GL334575  28.626  41.679  20.375 -0.0777 -0.1570 -0.1127
 1441BOLB   GL434576  28.893  41.570  20.589  0.0339  0.0327 -0.1660
 1441BOLB   C1C34577  28.459  41.273  20.479  0.1405  0.0023 -0.3122
 1441BOLB   C2C34578  28.449  40.949  20.256 -0.1512  0.0844  0.0331
 1441BOLB   C3C34579  28.333  40.541  20.232 -0.2014  0.1375 -0.0078
 1441BOLB   C4C34580  28.542  40.237  20.172 -0.1243  0.3057  0.0583
 1441BOLB   C1D34581  28.969  41.279  20.289 -0.4466  0.1543 -0.2565
 1441BOLB   C2D34582  28.948  41.003  20.003  0.2883  0.0053 -0.3020
 1441BOLB   C3D34583  28.955  40.542  19.965 -0.1160  0.0013 -0.0347
 1441BOLB   C4D34584  28.984  40.036  20.038 -0.3469  0.3992  0.0133
 1442BOLB   NC134585  33.581  31.571  16.723 -0.0117  0.1583 -0.0808
 1442BOLB   PO134586  33.829  31.897  16.708 -0.1418 -0.1398  0.1444
 1442BOLB   GL134587  34.262  32.136  16.486  0.2510 -0.1258  0.0733
 1442BOLB   GL234588  34.202  32.475  16.397  0.1785 -0.2206  0.4522
 1442BOLB   C1A34589  34.589  32.195  16.171  0.0777 -0.1755  0.2166
 1442BOLB   C2A34590  34.660  32.418  15.714  0.2992 -0.2826  0.2798
 1442BOLB   C3A34591  34.965  32.534  15.353 -0.2270 -0.2733  0.1677
 1442BOLB   C4A34592  35.073  32.879  15.246 -0.1949  0.3235  0.0551
 1442BOLB   C1B34593  34.176  32.773  16.041 -0.5155  0.1478  0.3047
 1442BOLB   C2B34594  34.351  33.083  15.832  0.0936 -0.0849  0.2842
 1442BOLB   C3B34595  34.590  33.409  15.535 -0.2001 -0.2927  0.2165
 1442BOLB   C4B34596  34.844  33.470  15.201  0.3087 -0.1542 -0.2864
 1442BOLB   NC234597  35.993  33.780  13.513  0.3919 -0.2523 -0.2680
 1442BOLB   PO234598  36.391  33.703  13.762  0.3404  0.3694  0.2803
 1442BOLB   GL334599  36.343  33.781  14.209 -0.1675 -0.1800 -0.1076
 1442BOLB   GL434600  36.588  33.619  14.547  0.0118  0.0347  0.1048
 1442BOLB   C1C34601  36.125  33.776  14.496 -0.1203 -0.4016 -0.0896
 1442BOLB   C2C34602  35.872  33.684  14.871  0.1309 -0.0268  0.0133
 1442BOLB   C3C34603  35.658  33.386  14.978  0.0488  0.0257  0.1859
 1442BOLB   C4C34604  35.361  33.223  15.121  0.0896  0.2652  0.2437
 1442BOLB   C1D34605  36.558  33.357  14.812  0.1610 -0.0588 -0.0389
 1442BOLB   C2D34606  36.210  33.156  14.977 -0.2921  0.2735 -0.1514
 1442BOLB   C3D34607  36.090  32.874  15.207 -0.0922 -0.0678 -0.0879
 1442BOLB   C4D34608  35.661  32.853  15.214  0.2638  0.0022  0.2290
 1443BOLB   NC134609  30.283  22.277  24.687 -0.1790 -0.0003  0.1061
 1443BOLB   PO134610  30.035  22.052  24.850 -0.2891  0.1405  0.1021
 1443BOLB   GL134611  30.056  21.625  25.014  0.1074  0.0150  0.3265
 1443BOLB   GL234612  29.821  21.539  24.846 -0.5387  0.0706  0.4910
 1443BOLB   C1A34613  30.101  21.364  25.327 -0.0679  0.1162 -0.1963
 1443BOLB   C2A34614  30.376  20.983  25.554  0.1987 -0.0662 -0.1673
 1443BOLB   C3A34615  30.360  20.688  25.836  0.3070  0.1012 -0.4604
 1443BOLB   C4A34616  30.148  20.214  25.824  0.1621  0.0723 -0.1847
 1443BOLB   C1B34617  29.713  21.227  25.017  0.3048 -0.1403  0.0581
 1443BOLB   C2B34618  29.523  21.068  25.389  0.4072  0.1608 -0.0086
 1443BOLB   C3B34619  29.255  20.885  25.590  0.2345 -0.2855 -0.1034
 1443BOLB   C4B34620  28.977  20.918  26.056 -0.0297 -0.1292  0.0915
 1443BOLB   NC234621  31.109  18.387  25.430  0.2457  0.1910  0.1754
 1443BOLB   PO234622  30.701  18.194  25.623  0.1713  0.0064  0.1195
 1443BOLB   GL334623  30.454  18.625  25.626 -0.3006  0.0689  0.0289
 1443BOLB   GL434624  30.711  18.893  25.536  0.0200 -0.3331  0.1320
 1443BOLB   C1C34625  30.309  18.872  25.840  0.1031  0.0296 -0.1286
 1443BOLB   C2C34626  30.206  19.146  25.744 -0.1281 -0.1885  0.1245
 1443BOLB   C3C34627  29.952  19.435  25.669 -0.1039  0.1807 -0.0123
 1443BOLB   C4C34628  29.898  19.888  25.609 -0.2152  0.1770 -0.1428
 1443BOLB   C1D34629  30.556  19.389  25.464  0.3769 -0.4627 -0.1842
 1443BOLB   C2D34630  30.495  19.717  25.701  0.1724 -0.1056 -0.2344
 1443BOLB   C3D34631  30.192  19.741  25.990  0.1031  0.0951 -0.0702
 1443BOLB   C4D34632  30.188  19.892  26.391 -0.2965 -0.0531  0.2365
 1444BOLB   NC134633  20.020  39.411  23.803 -0.2926  0.2183  0.5012
 1444BOLB   PO134634  19.873  39.098  23.540 -0.0951  0.0438 -0.1464
 1444BOLB   GL134635  20.199  38.845  23.651  0.2339 -0.3177  0.3759
 1444BOLB   GL234636  20.366  38.731  23.492  0.0445 -0.4329  0.1774
 1444BOLB   C1A34637  20.632  38.834  23.864 -0.5020  0.1914  0.0744
 1444BOLB   C2A34638  20.953  38.688  24.102 -0.0341  0.3046  0.1307
 1444BOLB   C3A34639  21.354  38.731  24.271  0.3082  0.1940 -0.1382
 1444BOLB   C4A34640  21.714  38.946  24.151 -0.1978 -0.0187 -0.1093
 1444BOLB   C1B34641  20.714  38.408  23.551  0.2023 -0.0155 -0.3568
 1444BOLB   C2B34642  20.979  38.122  23.666 -0.0130  0.1587  0.3823
 1444BOLB   C3B34643  21.330  37.890  23.608 -0.0916  0.0228  0.1418
 1444BOLB   C4B34644  21.596  37.800  23.472 -0.0725  0.1911 -0.1547
 1444BOLB   NC234645  22.591  40.749  25.373  0.1276  0.1882  0.2727
 1444BOLB   PO234646  22.570  40.278  25.424 -0.1789 -0.2192  0.1985
 1444BOLB   GL334647  22.810  40.001  25.376  0.3268  0.1827 -0.1229
 1444BOLB   GL434648  22.778  39.835  25.676 -0.3023  0.1691  0.1009
 1444BOLB   C1C34649  22.873  39.739  25.005 -0.3101  0.2139  0.2642
 1444BOLB   C2C34650  22.566  39.603  24.729  0.1039 -0.3754  0.3388
 1444BOLB   C3C34651  22.174  39.435  24.638 -0.1009  0.0484 -0.0495
 1444BOLB   C4C34652  21.910  39.396  24.256  0.0295  0.0622  0.1042
 1444BOLB   C1D34653  22.936  39.445  25.456 -0.0853 -0.0684 -0.1695
 1444BOLB   C2D34654  23.072  39.174  25.033  0.0434 -0.1022  0.1594
 1444BOLB   C3D34655  23.366  38.841  24.904 -0.2077 -0.0425 -0.1224
 1444BOLB   C4D34656  23.673  38.525  25.101 -0.1277  0.0366 -0.1155
 1445BOLB   NC134657  28.325  29.510  13.811  0.0999 -0.4084  0.2572
 1445BOLB   PO134658  28.030  29.186  14.020 -0.1657 -0.0585  0.4478
 1445BOLB   GL134659  28.242  29.111  13.499  0.3530 -0.1388 -0.0826
 1445BOLB   GL234660  28.590  29.193  13.482 -0.1227 -0.1371 -0.3580
 1445BOLB   C1A34661  28.280  29.260  13.035  0.3081 -0.0649 -0.0944
 1445BOLB   C2A34662  28.455  29.548  12.662  0.0233 -0.0332  0.0954
 1445BOLB   C3A34663  28.560  29.665  12.260 -0.0871  0.3894 -0.3018
 1445BOLB   C4A34664  28.654  29.653  11.871  0.3218  0.3164  0.0789
 1445BOLB   C1B34665  28.815  29.078  13.133 -0.3681 -0.0085 -0.1270
 1445BOLB   C2B34666  28.626  29.065  12.731 -0.0761 -0.1320  0.2729
 1445BOLB   C3B34667  28.740  29.210  12.373  0.0655  0.2339  0.4263
 1445BOLB   C4B34668  28.940  29.169  11.941  0.0547 -0.0563 -0.0914
 1445BOLB   NC234669  28.978  29.850   9.593 -0.6093  0.1119  0.1638
 1445BOLB   PO234670  28.802  29.407   9.447 -0.0897  0.0143 -0.1148
 1445BOLB   GL334671  28.796  29.449   9.853 -0.1001  0.0049  0.0134
 1445BOLB   GL434672  28.410  29.496   9.906  0.0345 -0.1028  0.1738
 1445BOLB   C1C34673  28.749  29.477  10.304  0.3002  0.3373  0.2551
 1445BOLB   C2C34674  28.871  29.689  10.633  0.3200 -0.3636 -0.0497
 1445BOLB   C3C34675  28.916  29.634  11.015  0.3951  0.0376 -0.0117
 1445BOLB   C4C34676  28.967  29.564  11.522 -0.0089 -0.1046  0.2440
 1445BOLB   C1D34677  28.193  29.552  10.271 -0.0236  0.1220  0.0234
 1445BOLB   C2D34678  28.005  29.717  10.577 -0.0555  0.0252  0.0018
 1445BOLB   C3D34679  27.898  29.649  10.981 -0.0120  0.0420  0.1230
 1445BOLB   C4D34680  28.111  29.690  11.358  0.1367 -0.3780 -0.2558
 1446BOLB   NC134681  26.053  36.748  18.285  0.1068 -0.0712 -0.1602
 1446BOLB   PO134682  26.225  36.948  17.926  0.0753 -0.2834 -0.0733
 1446BOLB   GL134683  26.090  37.356  17.815 -0.1481 -0.2541  0.3034
 1446BOLB   GL234684  25.990  37.449  17.529 -0.1671 -0.0701  0.0622
 1446BOLB   C1A34685  26.023  37.850  17.918  0.3324  0.0180 -0.0272
 1446BOLB   C2A34686  26.324  38.329  17.917 -0.0833 -0.1667  0.2057
 1446BOLB   C3A34687  26.515  38.745  17.777 -0.2379 -0.0841 -0.0100
 1446BOLB   C4A34688  26.850  39.029  17.814 -0.1551  0.1152  0.3175
 1446BOLB   C1B34689  25.594  37.823  17.669 -0.2867 -0.1820  0.1487
 1446BOLB   C2B34690  25.272  37.745  17.771 -0.1563 -0.2833 -0.0371
 1446BOLB   C3B34691  24.840  37.908  17.712 -0.1167  0.1525 -0.1554
 1446BOLB   C4B34692  24.614  38.215  17.553 -0.1296 -0.0103 -0.0334
 1446BOLB   NC234693  26.884  41.514  16.833 -0.0161 -0.0704  0.1874
 1446BOLB   PO234694  26.913  41.349  17.266  0.1418  0.0844  0.1236
 1446BOLB   GL334695  26.783  41.106  17.548  0.1222  0.0222 -0.1947
 1446BOLB   GL434696  26.513  40.999  17.435  0.3235 -0.2797 -0.0875
 1446BOLB   C1C34697  26.879  40.653  17.642  0.1380 -0.0220  0.3919
 1446BOLB   C2C34698  26.725  40.204  17.755 -0.0131 -0.0825  0.2090
 1446BOLB   C3C34699  26.780  39.815  17.849  0.1647  0.1565 -0.0441
 1446BOLB   C4C34700  26.814  39.473  17.979  0.4261 -0.0043 -0.0380
 1446BOLB   C1D34701  26.295  40.790  17.741 -0.1186 -0.0088  0.3669
 1446BOLB   C2D34702  26.512  40.484  18.084 -0.2563  0.0404 -0.3776
 1446BOLB   C3D34703  26.543  40.047  18.266  0.2887 -0.1233  0.1082
 1446BOLB   C4D34704  26.423  39.648  18.271 -0.2268  0.0790 -0.1785
 1447BOLB   NC134705  25.127  34.803  15.798  0.1647 -0.0972  0.2775
 1447BOLB   PO134706  25.086  34.350  15.602 -0.0229 -0.0393  0.0615
 1447BOLB   GL134707  24.891  34.563  15.334 -0.3548 -0.2734  0.0804
 1447BOLB   GL234708  24.621  34.841  15.460 -0.1489 -0.4077 -0.0728
 1447BOLB   C1A34709  25.013  34.890  14.976  0.3644 -0.0388  0.0315
 1447BOLB   C2A34710  24.765  35.059  14.530 -0.0409  0.0084 -0.2506
 1447BOLB   C3A34711  24.438  34.996  14.267 -0.3695 -0.2509  0.2776
 1447BOLB   C4A34712  24.034  35.110  14.092  0.1208 -0.4118  0.2163
 1447BOLB   C1B34713  24.573  34.995  15.102 -0.1937 -0.2193 -0.1090
 1447BOLB   C2B34714  24.518  35.350  14.936 -0.1856 -0.0680 -0.1574
 1447BOLB   C3B34715  24.653  35.663  14.540  0.0010 -0.4313 -0.0957
 1447BOLB   C4B34716  24.879  35.420  14.256 -0.0105  0.0609  0.2634
 1447BOLB   NC234717  22.959  36.004  12.152  0.2772  0.0351  0.2384
 1447BOLB   PO234718  23.102  36.465  12.229 -0.1338 -0.4737  0.1564
 1447BOLB   GL334719  23.108  36.240  12.647 -0.3509 -0.2723  0.0072
 1447BOLB   GL434720  23.400  36.324  12.869 -0.1480  0.0231 -0.3907
 1447BOLB   C1C34721  23.211  35.884  13.027 -0.2817  0.1647 -0.1565
 1447BOLB   C2C34722  23.481  35.620  13.111 -0.2351  0.0748 -0.5636
 1447BOLB   C3C34723  23.786  35.310  13.225  0.2423  0.0535  0.2022
 1447BOLB   C4C34724  23.821  35.055  13.679 -0.0027 -0.3980  0.3233
 1447BOLB   C1D34725  23.786  36.217  12.993  0.0281 -0.0066  0.2517
 1447BOLB   C2D34726  23.973  35.751  12.967  0.0618  0.1360  0.4649
 1447BOLB   C3D34727  23.844  35.475  12.745 -0.0684 -0.4003 -0.2354
 1447BOLB   C4D34728  23.805  34.983  12.685  0.1199 -0.1061  0.0535
 1448BOLB   NC134729  24.023  21.289   7.032 -0.1428  0.3910 -0.0147
 1448BOLB   PO134730  23.857  21.492   7.306  0.0096  0.2232 -0.0465
 1448BOLB   GL134731  23.795  21.897   7.113 -0.1006 -0.2084  0.3931
 1448BOLB   GL234732  23.914  22.172   7.238  0.2139  0.0006 -0.0576
 1448BOLB   C1A34733  23.657  22.203   6.759  0.0539 -0.0674 -0.0525
 1448BOLB   C2A34734  23.204  22.361   6.780  0.0240  0.1935  0.1801
 1448BOLB   C3A34735  23.010  22.758   6.973 -0.0640  0.0804 -0.2141
 1448BOLB   C4A34736  22.796  23.189   6.929  0.0631  0.1391  0.3982
 1448BOLB   C1B34737  23.970  22.593   7.051  0.0741  0.1692 -0.0128
 1448BOLB   C2B34738  24.224  22.906   6.868  0.1377  0.0276 -0.0400
 1448BOLB   C3B34739  24.362  23.087   6.496 -0.1526  0.1942 -0.1770
 1448BOLB   C4B34740  24.069  23.245   6.178  0.1440 -0.1220 -0.0761
 1448BOLB   NC234741  22.756  25.452   8.260 -0.1137 -0.0397  0.1421
 1448BOLB   PO234742  22.870  24.929   8.108 -0.0050 -0.1775 -0.0054
 1448BOLB   GL334743  22.744  24.772   7.691 -0.0260 -0.0700  0.2380
 1448BOLB   GL434744  22.838  24.487   7.613  0.0112  0.2349  0.0009
 1448BOLB   C1C34745  22.602  24.714   7.255 -0.1899  0.0366 -0.0807
 1448BOLB   C2C34746  22.757  24.290   7.162  0.2063  0.1712 -0.1005
 1448BOLB   C3C34747  22.626  23.968   6.896  0.2406 -0.2138 -0.0517
 1448BOLB   C4C34748  22.643  23.597   6.938 -0.0259  0.0507  0.1963
 1448BOLB   C1D34749  23.205  24.449   7.316 -0.2914  0.2877  0.4668
 1448BOLB   C2D34750  23.694  24.346   7.410 -0.0671 -0.1927  0.1973
 1448BOLB   C3D34751  24.118  24.342   7.624 -0.0130  0.0805  0.4076
 1448BOLB   C4D34752  24.348  24.323   7.955 -0.0122 -0.2283 -0.2909
 1449BOLB   NC134753  22.225  17.868  16.991  0.1836 -0.3042 -0.1167
 1449BOLB   PO134754  22.470  17.664  17.306  0.1356  0.3744  0.0472
 1449BOLB   GL134755  22.386  17.903  17.647 -0.1607  0.0023  0.0576
 1449BOLB   GL234756  22.672  18.111  17.771 -0.0095  0.0260 -0.0855
 1449BOLB   C1A34757  22.246  17.867  18.134 -0.0426  0.2987  0.2958
 1449BOLB   C2A34758  22.353  18.066  18.498 -0.2411  0.0694  0.1255
 1449BOLB   C3A34759  22.507  18.371  18.766  0.1921  0.4378 -0.2306
 1449BOLB   C4A34760  22.501  18.583  19.230 -0.1210 -0.1414  0.1444
 1449BOLB   C1B34761  22.707  18.479  17.971  0.1717  0.2434 -0.2396
 1449BOLB   C2B34762  22.553  19.013  17.907  0.1684 -0.1202 -0.1696
 1449BOLB   C3B34763  22.877  19.296  18.009  0.0520 -0.2487 -0.1384
 1449BOLB   C4B34764  23.350  19.527  18.087 -0.2047  0.1982  0.1321
 1449BOLB   NC234765  21.927  16.832  18.660  0.0094 -0.1854  0.1386
 1449BOLB   PO234766  22.007  16.451  19.006 -0.0969  0.1798 -0.2969
 1449BOLB   GL334767  22.058  16.872  19.182  0.2692  0.0255 -0.1058
 1449BOLB   GL434768  21.902  16.877  19.446 -0.0190 -0.2246  0.0426
 1449BOLB   C1C34769  21.831  17.304  19.159  0.1414 -0.2753  0.2348
 1449BOLB   C2C34770  21.868  17.683  19.505  0.1679  0.0387  0.1944
 1449BOLB   C3C34771  22.116  18.002  19.655  0.1209  0.0634 -0.0147
 1449BOLB   C4C34772  22.335  18.352  19.522  0.0306 -0.3598  0.2039
 1449BOLB   C1D34773  21.794  17.168  19.739  0.0538  0.0016  0.0618
 1449BOLB   C2D34774  21.390  17.157  19.955 -0.0527 -0.0820  0.2559
 1449BOLB   C3D34775  21.201  17.211  20.377  0.2183 -0.0199  0.1882
 1449BOLB   C4D34776  21.163  17.128  20.788 -0.0023 -0.0346 -0.0478
 1450BOLB   NC134777  27.045  36.378   0.253 -0.2542 -0.0188 -0.0816
 1450BOLB   PO134778  26.595  36.289   0.284  0.0175 -0.0671  0.2213
 1450BOLB   GL134779  26.256  36.507   0.579 -0.0604  0.2523 -0.0258
 1450BOLB   GL234780  26.262  36.546   0.958 -0.1541 -0.1085 -0.2471
 1450BOLB   C1A34781  25.994  36.885   0.729 -0.0360  0.1306  0.1090
 1450BOLB   C2A34782  25.645  37.074   0.816 -0.1189 -0.0647 -0.1572
 1450BOLB   C3A34783  25.472  37.399   1.140 -0.3875  0.0801  0.0253
 1450BOLB   C4A34784  25.304  37.871   1.381 -0.2786  0.4491 -0.1397
 1450BOLB   C1B34785  26.279  36.837   1.189  0.0304  0.1811 -0.3140
 1450BOLB   C2B34786  26.331  37.195   1.392  0.1141 -0.1801  0.0818
 1450BOLB   C3B34787  26.470  37.415   1.670 -0.0730 -0.1058 -0.0701
 1450BOLB   C4B34788  26.668  37.663   1.771 -0.1165 -0.3002 -0.0078
 1450BOLB   NC234789  25.664  38.870   3.251 -0.4170 -0.1092  0.3629
 1450BOLB   PO234790  26.002  38.789   3.031  0.1172  0.2103  0.3200
 1450BOLB   GL334791  25.986  38.363   3.045 -0.2054  0.1323  0.2706
 1450BOLB   GL434792  26.248  38.114   3.178 -0.0172  0.0086  0.0607
 1450BOLB   C1C34793  25.902  38.038   2.727 -0.2198  0.0905  0.4624
 1450BOLB   C2C34794  25.898  38.132   2.258 -0.0467  0.1860 -0.2056
 1450BOLB   C3C34795  25.786  38.072   1.899  0.1316  0.0279 -0.0908
 1450BOLB   C4C34796  25.621  38.029   1.611  0.0871  0.1102 -0.3193
 1450BOLB   C1D34797  26.395  37.746   2.964  0.0731  0.3696 -0.0542
 1450BOLB   C2D34798  26.553  37.527   2.654  0.0441  0.0067  0.1684
 1450BOLB   C3D34799  27.021  37.464   2.456 -0.1037  0.3180 -0.0318
 1450BOLB   C4D34800  26.959  37.221   1.980 -0.2811 -0.6809  0.0856
 1451BOLB   NC134801  32.221  25.495  26.630 -0.2940  0.0445  0.0116
 1451BOLB   PO134802  32.171  25.079  26.821  0.0024  0.2778 -0.1963
 1451BOLB   GL134803  32.159  24.720   0.173 -0.2600 -0.3713  0.1099
 1451BOLB   GL234804  32.385  24.494   0.067 -0.2596 -0.1761  0.1848
 1451BOLB   C1A34805  32.191  24.503   0.493 -0.0758  0.0116  0.0520
 1451BOLB   C2A34806  32.579  24.446   0.748 -0.7033 -0.0557  0.0630
 1451BOLB   C3A34807  32.880  24.368   1.153  0.3528 -0.2426 -0.2975
 1451BOLB   C4A34808  33.243  24.495   1.315 -0.0048 -0.3923 -0.0390
 1451BOLB   C1B34809  32.509  24.197   0.315 -0.0477 -0.0501 -0.1339
 1451BOLB   C2B34810  32.776  23.737   0.350  0.0114 -0.0135  0.4358
 1451BOLB   C3B34811  32.834  23.271   0.236 -0.1744 -0.2174  0.4181
 1451BOLB   C4B34812  32.936  22.889   0.156 -0.2755 -0.3777  0.1819
 1451BOLB   NC234813  35.422  23.251   1.985  0.2694 -0.0220 -0.0945
 1451BOLB   PO234814  35.016  23.108   2.132 -0.0485 -0.0667  0.0251
 1451BOLB   GL334815  34.733  23.362   2.150 -0.0040 -0.1716 -0.3196
 1451BOLB   GL434816  34.877  23.677   2.233  0.1421 -0.1525 -0.2078
 1451BOLB   C1C34817  34.356  23.318   1.841 -0.1555 -0.0134  0.2753
 1451BOLB   C2C34818  34.043  23.529   1.601 -0.2221  0.0425  0.2056
 1451BOLB   C3C34819  33.874  23.933   1.568 -0.0194 -0.0693 -0.0171
 1451BOLB   C4C34820  33.572  24.236   1.504  0.0859  0.3597 -0.0355
 1451BOLB   C1D34821  34.568  23.794   1.986  0.0294  0.0927  0.0041
 1451BOLB   C2D34822  34.387  23.943   1.702  0.3423  0.2144  0.1478
 1451BOLB   C3D34823  34.473  23.899   1.306 -0.2191 -0.2157  0.0355
 1451BOLB   C4D34824  34.304  24.027   0.869 -0.1630 -0.1416 -0.3854
 1452BOLB   NC134825  31.334  29.058   1.880 -0.2091 -0.0432  0.0010
 1452BOLB   PO134826  31.322  28.587   2.073  0.0055  0.1413  0.0443
 1452BOLB   GL134827  31.538  28.286   2.391  0.1912 -0.0481  0.1281
 1452BOLB   GL234828  31.840  28.204   2.229 -0.0469  0.0391 -0.0799
 1452BOLB   C1A34829  31.612  28.011   2.674 -0.0632  0.0575  0.1510
 1452BOLB   C2A34830  31.582  27.648   2.901  0.0274  0.0488  0.0214
 1452BOLB   C3A34831  31.672  27.466   3.434  0.1526  0.0791  0.0628
 1452BOLB   C4A34832  31.606  27.676   3.773  0.3338 -0.3666  0.0410
 1452BOLB   C1B34833  32.155  28.065   2.598 -0.1399 -0.1022 -0.3422
 1452BOLB   C2B34834  32.012  27.899   3.050  0.2685 -0.2800  0.3010
 1452BOLB   C3B34835  31.679  28.027   3.389  0.1088 -0.0396  0.1733
 1452BOLB   C4B34836  31.433  28.375   3.462  0.0718 -0.2507 -0.1373
 1452BOLB   NC234837  31.798  27.811   5.938 -0.0811  0.2442  0.1575
 1452BOLB   PO234838  32.059  28.230   6.090 -0.0058  0.1399  0.0967
 1452BOLB   GL334839  31.821  28.262   5.818 -0.1553  0.0872  0.3925
 1452BOLB   GL434840  31.681  28.502   5.870  0.0632 -0.0481  0.0420
 1452BOLB   C1C34841  31.713  28.147   5.397 -0.1246 -0.3289  0.0560
 1452BOLB   C2C34842  31.548  28.158   4.937  0.3400  0.1651 -0.0178
 1452BOLB   C3C34843  31.436  28.160   4.431  0.4178 -0.2861 -0.0157
 1452BOLB   C4C34844  31.439  28.010   3.953  0.2841 -0.0012  0.1054
 1452BOLB   C1D34845  31.236  28.673   5.749  0.0275 -0.0935  0.1325
 1452BOLB   C2D34846  30.926  28.657   5.663  0.1216  0.0771 -0.1277
 1452BOLB   C3D34847  30.731  28.308   5.735  0.1565  0.2094  0.2139
 1452BOLB   C4D34848  30.693  27.944   5.401  0.1327  0.1282  0.1438
 1453BOLB   NC134849  24.303  30.306  13.589 -0.1208 -0.0273  0.0011
 1453BOLB   PO134850  24.018  30.405  13.898 -0.1277  0.0422  0.2115
 1453BOLB   GL134851  23.799  30.368  13.608  0.2848 -0.1285 -0.0809
 1453BOLB   GL234852  23.563  30.511  13.622 -0.3281 -0.0258  0.1204
 1453BOLB   C1A34853  23.788  30.282  13.194  0.3569  0.0113  0.2186
 1453BOLB   C2A34854  23.571  30.479  12.862 -0.3080 -0.0675  0.1153
 1453BOLB   C3A34855  23.261  30.743  12.665 -0.4431  0.1176  0.0726
 1453BOLB   C4A34856  23.451  31.046  12.370  0.1858 -0.1841 -0.0227
 1453BOLB   C1B34857  23.213  30.442  13.312  0.3390  0.1198  0.1371
 1453BOLB   C2B34858  22.799  30.389  13.272 -0.1336  0.0069  0.2310
 1453BOLB   C3B34859  22.481  30.544  13.254  0.2055 -0.0788  0.2701
 1453BOLB   C4B34860  22.060  30.489  13.102  0.2612 -0.2383  0.0593
 1453BOLB   NC234861  22.965  31.689  10.243  0.2764  0.0757 -0.0702
 1453BOLB   PO234862  23.305  31.492   9.987  0.0235 -0.0331 -0.0974
 1453BOLB   GL334863  23.395  31.333  10.360 -0.1107  0.2577 -0.1004
 1453BOLB   GL434864  23.093  31.251  10.586  0.5445 -0.1865 -0.1060
 1453BOLB   C1C34865  23.612  31.196  10.768 -0.0763  0.1324 -0.0206
 1453BOLB   C2C34866  23.585  31.267  11.304  0.1812 -0.1862  0.1472
 1453BOLB   C3C34867  23.689  31.228  11.651  0.2801 -0.0204  0.4852
 1453BOLB   C4C34868  23.669  31.126  12.090 -0.1295  0.1283  0.0212
 1453BOLB   C1D34869  23.209  31.362  10.968  0.3793  0.1358  0.0101
 1453BOLB   C2D34870  23.063  31.278  11.383  0.1248  0.1105  0.3064
 1453BOLB   C3D34871  23.116  31.584  11.753 -0.0903 -0.1369 -0.0323
 1453BOLB   C4D34872  23.443  31.568  12.096 -0.0966 -0.2561 -0.0327
 1454BOLB   NC134873  24.255  31.831   2.238  0.0147 -0.1501 -0.0698
 1454BOLB   PO134874  24.358  31.681   2.654  0.1825 -0.0859  0.0856
 1454BOLB   GL134875  24.134  31.695   2.997  0.0749 -0.0619 -0.0648
 1454BOLB   GL234876  23.971  31.989   3.115 -0.0455  0.0219  0.0115
 1454BOLB   C1A34877  23.843  31.416   3.148  0.1673  0.1021  0.0175
 1454BOLB   C2A34878  23.480  31.200   3.534  0.1239  0.0014  0.2546
 1454BOLB   C3A34879  23.308  31.063   3.890 -0.3694 -0.3811 -0.3004
 1454BOLB   C4A34880  23.174  30.848   4.287 -0.1138 -0.1830 -0.3531
 1454BOLB   C1B34881  24.096  32.152   3.607 -0.1872  0.3605  0.0090
 1454BOLB   C2B34882  23.890  32.306   4.026 -0.2326 -0.3295  0.0620
 1454BOLB   C3B34883  23.686  32.377   4.346  0.1354  0.1091 -0.3004
 1454BOLB   C4B34884  23.540  32.128   4.795  0.1459 -0.1517 -0.4180
 1454BOLB   NC234885  22.902  32.015   5.960 -0.3578 -0.0420 -0.0139
 1454BOLB   PO234886  22.489  31.933   6.041  0.0611  0.0054  0.0404
 1454BOLB   GL334887  22.609  31.536   5.859  0.1015  0.1795  0.2727
 1454BOLB   GL434888  22.519  31.335   6.090  0.2173 -0.0193 -0.2055
 1454BOLB   C1C34889  22.784  31.152   5.658 -0.3769  0.0532 -0.1114
 1454BOLB   C2C34890  22.782  30.801   5.537 -0.0032 -0.1918  0.1348
 1454BOLB   C3C34891  22.752  30.597   5.071  0.2107 -0.2606 -0.1931
 1454BOLB   C4C34892  22.932  30.664   4.660  0.0165 -0.0978  0.3305
 1454BOLB   C1D34893  22.504  30.940   6.030 -0.0883 -0.0330 -0.0826
 1454BOLB   C2D34894  22.406  30.575   5.866  0.0494  0.0777  0.1683
 1454BOLB   C3D34895  22.174  30.290   5.768  0.1433  0.4225 -0.2955
 1454BOLB   C4D34896  21.903  29.955   5.499 -0.1233  0.0133 -0.2972
 1455BOLB   NC134897  29.917  24.183   0.454  0.0559 -0.0131 -0.2021
 1455BOLB   PO134898  30.423  24.384   0.371  0.1354  0.1392  0.4405
 1455BOLB   GL134899  30.322  24.141   0.728  0.1775 -0.0133 -0.0866
 1455BOLB   GL234900  30.256  23.835   0.739  0.4064  0.4426  0.0323
 1455BOLB   C1A34901  30.154  24.065   1.165  0.0232 -0.0658 -0.0269
 1455BOLB   C2A34902  30.083  23.848   1.520  0.0350  0.2435 -0.1064
 1455BOLB   C3A34903  30.009  23.862   1.928  0.5090 -0.0102  0.0529
 1455BOLB   C4A34904  30.004  23.795   2.315  0.2172  0.0385  0.1081
 1455BOLB   C1B34905  30.439  23.666   1.188 -0.2676 -0.1868  0.1196
 1455BOLB   C2B34906  30.418  23.523   1.525  0.3024  0.1017 -0.2035
 1455BOLB   C3B34907  30.261  23.434   1.852 -0.2069 -0.0002  0.1580
 1455BOLB   C4B34908  30.322  23.384   2.335 -0.3960  0.0807 -0.1188
 1455BOLB   NC234909  31.187  22.285   3.894 -0.3791  0.1575  0.1792
 1455BOLB   PO234910  30.980  21.943   3.690  0.1022  0.4281 -0.0435
 1455BOLB   GL334911  30.776  22.270   3.470 -0.1707  0.2901 -0.2705
 1455BOLB   GL434912  30.400  22.004   3.344 -0.1067 -0.4266 -0.2388
 1455BOLB   C1C34913  30.675  22.655   3.251  0.0487 -0.1036 -0.0977
 1455BOLB   C2C34914  30.481  22.799   2.941 -0.0733 -0.0111  0.1072
 1455BOLB   C3C34915  30.352  23.225   2.837 -0.0192 -0.2784  0.1046
 1455BOLB   C4C34916  30.000  23.554   2.740 -0.2320 -0.0077  0.1247
 1455BOLB   C1D34917  30.228  22.412   3.131  0.1308  0.0747  0.1824
 1455BOLB   C2D34918  29.965  22.559   2.746 -0.1886  0.1699  0.0119
 1455BOLB   C3D34919  30.046  22.909   2.418 -0.1657  0.0394  0.1086
 1455BOLB   C4D34920  30.041  22.996   1.983  0.1470 -0.1194  0.0905
 1456BOLB   NC134921  29.428  28.724  14.369  0.2447 -0.0830 -0.3684
 1456BOLB   PO134922  29.157  28.515  14.034 -0.0650  0.1643  0.0865
 1456BOLB   GL134923  29.167  28.383  13.584  0.2169  0.0668  0.0737
 1456BOLB   GL234924  28.835  28.248  13.383 -0.1817  0.0199  0.1262
 1456BOLB   C1A34925  29.114  28.645  13.131  0.4304 -0.0559 -0.0583
 1456BOLB   C2A34926  29.232  28.957  12.878 -0.2440  0.0581  0.0375
 1456BOLB   C3A34927  29.269  29.097  12.523 -0.0809  0.0995 -0.2249
 1456BOLB   C4A34928  29.511  29.161  12.215  0.0454  0.2174  0.1717
 1456BOLB   C1B34929  28.912  28.090  12.995 -0.2849  0.3576 -0.0634
 1456BOLB   C2B34930  28.856  28.174  12.557  0.2220 -0.1346  0.0722
 1456BOLB   C3B34931  28.674  28.046  12.212 -0.1900  0.1909  0.0813
 1456BOLB   C4B34932  28.343  28.169  12.032 -0.0127 -0.1542 -0.1968
 1456BOLB   NC234933  30.655  29.059   9.699  0.4026 -0.2794  0.4049
 1456BOLB   PO234934  30.471  28.575   9.911  0.0268 -0.0758 -0.2740
 1456BOLB   GL334935  30.325  28.733  10.298 -0.2181  0.0850 -0.0149
 1456BOLB   GL434936  30.580  28.486  10.404 -0.0432 -0.5147 -0.1778
 1456BOLB   C1C34937  30.113  28.655  10.665  0.3249 -0.0873  0.2378
 1456BOLB   C2C34938  30.032  28.879  11.041  0.0028  0.0588  0.4414
 1456BOLB   C3C34939  30.039  29.098  11.550  0.3459 -0.0107 -0.2023
 1456BOLB   C4C34940  29.878  29.320  11.926  0.3541 -0.2398 -0.3620
 1456BOLB   C1D34941  30.519  28.482  10.847  0.3233 -0.3342  0.2130
 1456BOLB   C2D34942  30.559  28.563  11.176 -0.0195 -0.0988 -0.0812
 1456BOLB   C3D34943  30.688  28.477  11.600  0.1230  0.1336  0.1638
 1456BOLB   C4D34944  30.975  28.259  11.875  0.0563 -0.1608  0.1902
 1457BOLB   NC134945  24.268  33.007  15.331  0.2145  0.1644 -0.0903
 1457BOLB   PO134946  23.936  33.389  15.338 -0.0662  0.2793  0.2133
 1457BOLB   GL134947  23.848  33.544  14.949  0.0392 -0.4222  0.1167
 1457BOLB   GL234948  23.702  33.903  14.932  0.0815 -0.0719 -0.1032
 1457BOLB   C1A34949  23.646  33.557  14.529 -0.2388 -0.0736  0.3188
 1457BOLB   C2A34950  23.438  33.569  14.103  0.1283 -0.0695 -0.1041
 1457BOLB   C3A34951  23.185  33.723  13.830  0.4393 -0.3058 -0.0606
 1457BOLB   C4A34952  23.047  34.055  13.511 -0.0051 -0.2451  0.1200
 1457BOLB   C1B34953  23.353  33.778  14.863 -0.2208  0.0014 -0.2627
 1457BOLB   C2B34954  23.176  33.938  14.380  0.0633 -0.0037 -0.2018
 1457BOLB   C3B34955  22.899  34.110  14.184 -0.0226 -0.1290 -0.2005
 1457BOLB   C4B34956  22.504  34.275  14.182  0.1105 -0.0065  0.0077
 1457BOLB   NC234957  21.730  35.371  12.056 -0.1785  0.1709  0.0793
 1457BOLB   PO234958  21.857  35.079  11.870  0.0414 -0.1287  0.1252
 1457BOLB   GL334959  22.050  35.041  12.238  0.3665  0.0236 -0.2089
 1457BOLB   GL434960  22.404  34.936  12.155  0.1084  0.1526  0.0380
 1457BOLB   C1C34961  21.950  34.811  12.589  0.1835 -0.0540 -0.0115
 1457BOLB   C2C34962  22.177  34.773  12.999  0.1475 -0.1215  0.0721
 1457BOLB   C3C34963  22.584  34.670  13.200 -0.0782  0.2586  0.0425
 1457BOLB   C4C34964  22.778  34.279  13.279 -0.2149 -0.1111 -0.3298
 1457BOLB   C1D34965  22.271  34.495  12.296 -0.0153 -0.4766  0.1376
 1457BOLB   C2D34966  21.908  34.267  12.613 -0.1357 -0.0225  0.1285
 1457BOLB   C3D34967  21.820  33.952  13.091  0.1070  0.0404  0.0194
 1457BOLB   C4D34968  21.678  33.582  13.224  0.0857 -0.0154 -0.1190
 1458BOLB   NC134969  23.206  33.727  16.060  0.1378 -0.1222 -0.2716
 1458BOLB   PO134970  23.130  33.431  15.772  0.2199 -0.4100 -0.0787
 1458BOLB   GL134971  22.976  33.317  15.367 -0.2664 -0.3122 -0.0810
 1458BOLB   GL234972  22.730  33.251  15.356  0.0392 -0.0796  0.3178
 1458BOLB   C1A34973  22.848  33.485  14.939  0.0646  0.2165 -0.1074
 1458BOLB   C2A34974  22.745  33.802  14.673  0.1907 -0.0392 -0.1006
 1458BOLB   C3A34975  22.385  34.101  14.624 -0.0012  0.1089 -0.0081
 1458BOLB   C4A34976  21.961  34.089  14.591 -0.0899  0.2198 -0.0320
 1458BOLB   C1B34977  22.379  33.519  15.022  0.1484  0.1466  0.0291
 1458BOLB   C2B34978  22.001  33.745  14.923  0.1097  0.0033 -0.2282
 1458BOLB   C3B34979  21.579  33.801  14.862  0.2840  0.0366  0.2248
 1458BOLB   C4B34980  21.160  33.827  14.779  0.0582 -0.2205 -0.0449
 1458BOLB   NC234981  19.210  34.550  14.049  0.2334 -0.0537  0.0804
 1458BOLB   PO234982  19.615  34.600  13.894  0.4413  0.1601 -0.2945
 1458BOLB   GL334983  19.934  34.544  14.084  0.0719 -0.2565 -0.2051
 1458BOLB   GL434984  19.964  34.203  14.192 -0.3357  0.1102 -0.3544
 1458BOLB   C1C34985  20.376  34.788  14.284 -0.0382 -0.2140  0.2460
 1458BOLB   C2C34986  20.805  34.810  14.340  0.0951 -0.2575 -0.0357
 1458BOLB   C3C34987  21.094  34.476  14.506  0.4216 -0.0623 -0.1007
 1458BOLB   C4C34988  21.512  34.190  14.450 -0.1128 -0.0688 -0.3231
 1458BOLB   C1D34989  19.850  33.912  14.584  0.1107  0.0947 -0.0503
 1458BOLB   C2D34990  19.626  33.535  14.876  0.0720  0.0122 -0.1044
 1458BOLB   C3D34991  19.733  33.219  15.134  0.0391  0.2808 -0.3993
 1458BOLB   C4D34992  19.470  33.009  15.446  0.0644 -0.0513 -0.3580
 1459BOLB   NC134993  29.950  26.222  14.764  0.1937 -0.1665  0.1654
 1459BOLB   PO134994  29.523  26.189  14.581  0.1760  0.1971 -0.2476
 1459BOLB   GL134995  29.504  26.373  14.172 -0.0237 -0.0056  0.0281
 1459BOLB   GL234996  29.456  26.606  13.952 -0.1108 -0.1785 -0.1679
 1459BOLB   C1A34997  29.620  26.186  13.773  0.1474 -0.2270 -0.1047
 1459BOLB   C2A34998  29.817  26.188  13.433 -0.0182  0.3302 -0.1599
 1459BOLB   C3A34999  29.764  26.001  13.085  0.0422 -0.1279 -0.1599
 1459BOLB   C4A35000  29.828  25.823  12.769 -0.2386 -0.0692  0.1472
 1459BOLB   C1B35001  29.538  26.675  13.464 -0.1138  0.0571  0.1891
 1459BOLB   C2B35002  29.637  26.599  12.962  0.4293  0.1803  0.1857
 1459BOLB   C3B35003  29.810  26.519  12.578 -0.0740 -0.0340 -0.0172
 1459BOLB   C4B35004  29.900  26.536  12.223  0.0911 -0.0838 -0.1664
 1459BOLB   NC235005  29.361  23.874  11.000 -0.1526 -0.4274 -0.3670
 1459BOLB   PO235006  29.788  24.059  11.043 -0.0361 -0.1569 -0.0740
 1459BOLB   GL335007  29.835  24.562  11.140  0.1600  0.0520  0.1882
 1459BOLB   GL435008  29.607  24.762  11.093  0.3674  0.2885 -0.0637
 1459BOLB   C1C35009  29.851  24.702  11.603  0.2396  0.0510  0.0091
 1459BOLB   C2C35010  29.885  25.060  11.774  0.2857 -0.1871 -0.0426
 1459BOLB   C3C35011  29.858  25.529  11.975 -0.1059 -0.0440 -0.2507
 1459BOLB   C4C35012  29.955  25.679  12.438  0.0900  0.1427  0.0235
 1459BOLB   C1D35013  29.157  24.906  11.204  0.0489 -0.1169  0.0343
 1459BOLB   C2D35014  28.947  25.146  11.589 -0.1073 -0.1297  0.0770
 1459BOLB   C3D35015  29.124  25.316  11.938 -0.2050  0.2602 -0.0925
 1459BOLB   C4D35016  29.400  25.523  12.174 -0.2241 -0.0960  0.0854
 1460BOLB   NC135017  22.054  32.742  16.313 -0.5894 -0.2838  0.0729
 1460BOLB   PO135018  21.981  32.338  16.032 -0.0104 -0.0314  0.1104
 1460BOLB   GL135019  22.000  32.517  15.588 -0.0314  0.0803 -0.3331
 1460BOLB   GL235020  21.905  32.304  15.465  0.3386  0.1796 -0.1266
 1460BOLB   C1A35021  21.699  32.823  15.408  0.2316  0.2413  0.1127
 1460BOLB   C2A35022  21.368  33.048  15.260 -0.1408 -0.0465 -0.3825
 1460BOLB   C3A35023  21.025  33.098  14.988  0.2429 -0.0040 -0.3758
 1460BOLB   C4A35024  20.978  33.389  14.583 -0.1731  0.2207 -0.0566
 1460BOLB   C1B35025  21.663  32.260  15.088  0.0974  0.2045  0.0453
 1460BOLB   C2B35026  21.561  32.291  14.736  0.2079  0.1197  0.1626
 1460BOLB   C3B35027  21.149  32.278  14.583 -0.0045 -0.0004  0.0671
 1460BOLB   C4B35028  20.760  32.383  14.668  0.1690  0.0401 -0.1507
 1460BOLB   NC235029  19.684  34.926  14.266 -0.0012  0.1424  0.0442
 1460BOLB   PO235030  19.828  35.414  14.185 -0.0701 -0.0343  0.2504
 1460BOLB   GL335031  20.089  35.163  14.496 -0.1630 -0.0885 -0.1220
 1460BOLB   GL435032  20.210  35.274  14.871  0.0167  0.1835 -0.0578
 1460BOLB   C1C35033  20.302  34.820  14.779  0.3338 -0.4422  0.2178
 1460BOLB   C2C35034  20.576  34.582  14.887 -0.3358  0.0280  0.2240
 1460BOLB   C3C35035  20.745  34.200  14.621  0.1287  0.1226  0.0178
 1460BOLB   C4C35036  20.771  33.770  14.489 -0.2066 -0.0759  0.1243
 1460BOLB   C1D35037  20.288  35.344  15.393 -0.1932 -0.2287  0.2563
 1460BOLB   C2D35038  20.318  35.163  15.691  0.1960  0.3345  0.1080
 1460BOLB   C3D35039  20.291  34.985  16.123  0.2965 -0.1767 -0.0122
 1460BOLB   C4D35040  20.222  35.275  16.402  0.1673 -0.0283  0.2961
 1461BOLB   NC135041  32.527  25.898   0.575  0.1544 -0.0426 -0.3004
 1461BOLB   PO135042  32.722  26.338   0.602 -0.0536  0.1231 -0.0819
 1461BOLB   GL135043  32.687  26.169   0.982 -0.1201  0.1729 -0.1784
 1461BOLB   GL235044  32.880  25.863   0.950  0.0002 -0.0643  0.0789
 1461BOLB   C1A35045  32.731  25.954   1.388  0.0868  0.1100 -0.4595
 1461BOLB   C2A35046  32.743  25.946   1.884  0.0837  0.1732 -0.0068
 1461BOLB   C3A35047  32.718  25.700   2.229 -0.0849  0.0249 -0.0438
 1461BOLB   C4A35048  32.799  25.402   2.567 -0.3662 -0.0147  0.0091
 1461BOLB   C1B35049  33.295  25.893   0.775  0.0094 -0.0354 -0.1258
 1461BOLB   C2B35050  33.695  25.912   1.030  0.0984  0.0477  0.0171
 1461BOLB   C3B35051  34.101  25.749   0.777 -0.2276 -0.2422  0.1146
 1461BOLB   C4B35052  34.312  25.607   0.344  0.1998  0.0548 -0.0918
 1461BOLB   NC235053  32.935  23.885   3.728 -0.0732 -0.0617 -0.0849
 1461BOLB   PO235054  33.208  24.090   4.024  0.0966  0.3264  0.1825
 1461BOLB   GL335055  33.324  24.317   3.732 -0.1562 -0.0712  0.0619
 1461BOLB   GL435056  33.299  24.261   3.371 -0.0826 -0.0113 -0.1546
 1461BOLB   C1C35057  33.106  24.676   3.653  0.1811  0.1733 -0.2817
 1461BOLB   C2C35058  33.041  25.048   3.418  0.1339 -0.1716  0.1372
 1461BOLB   C3C35059  32.930  24.886   3.163 -0.0058 -0.2556  0.1310
 1461BOLB   C4C35060  32.775  25.122   2.838  0.2021 -0.1573  0.1189
 1461BOLB   C1D35061  33.023  24.321   3.040 -0.1731  0.1079  0.0316
 1461BOLB   C2D35062  32.674  24.151   3.096 -0.4181 -0.1516  0.3286
 1461BOLB   C3D35063  32.598  23.752   2.735 -0.2217  0.1264 -0.0423
 1461BOLB   C4D35064  32.323  23.538   2.429 -0.3991  0.0286 -0.0438
 1462BOLB   NC135065  33.359  29.907   0.332  0.1489  0.0409 -0.2939
 1462BOLB   PO135066  33.673  30.118   0.496  0.2942  0.1139  0.0273
 1462BOLB   GL135067  34.004  30.049   0.705 -0.2133 -0.0805 -0.2878
 1462BOLB   GL235068  33.911  30.021   0.926 -0.2599 -0.0739  0.0666
 1462BOLB   C1A35069  34.362  30.113   0.831 -0.1589 -0.1753  0.0640
 1462BOLB   C2A35070  34.696  30.231   1.076 -0.0690 -0.4471  0.0330
 1462BOLB   C3A35071  35.115  30.261   1.236  0.1032  0.1671 -0.2489
 1462BOLB   C4A35072  35.500  30.390   1.360  0.0897 -0.0677 -0.1554
 1462BOLB   C1B35073  34.130  29.863   1.243 -0.0820 -0.4059  0.0068
 1462BOLB   C2B35074  34.488  29.986   1.516 -0.0924 -0.3511  0.0994
 1462BOLB   C3B35075  34.907  30.020   1.674 -0.1963  0.1698  0.0428
 1462BOLB   C4B35076  35.266  30.072   2.038  0.2000  0.1417  0.0856
 1462BOLB   NC235077  37.675  30.533   2.170 -0.2914  0.0502 -0.4532
 1462BOLB   PO235078  37.332  30.749   2.451  0.3426  0.2400 -0.2043
 1462BOLB   GL335079  37.123  30.472   2.099 -0.0556  0.0555 -0.2224
 1462BOLB   GL435080  37.275  30.221   1.982 -0.3174 -0.3297 -0.2689
 1462BOLB   C1C35081  36.813  30.206   2.155  0.3506  0.0384  0.1559
 1462BOLB   C2C35082  36.433  30.146   1.917 -0.0028 -0.2557  0.1649
 1462BOLB   C3C35083  36.315  30.087   1.467  0.0366  0.0775 -0.0084
 1462BOLB   C4C35084  35.886  30.209   1.335 -0.1650 -0.0482 -0.0288
 1462BOLB   C1D35085  36.931  30.254   1.684 -0.0433 -0.0304  0.1446
 1462BOLB   C2D35086  36.625  30.501   1.494 -0.1203 -0.0897  0.0632
 1462BOLB   C3D35087  36.242  30.557   1.251  0.3524 -0.0454 -0.1358
 1462BOLB   C4D35088  36.141  30.766   0.806 -0.1615  0.0331 -0.0617
 1463BOLB   NC135089  23.640  35.905  18.475 -0.1532 -0.0739  0.0621
 1463BOLB   PO135090  23.335  36.005  18.750 -0.4027  0.1274 -0.1989
 1463BOLB   GL135091  22.976  36.155  18.574 -0.1205 -0.1454 -0.1612
 1463BOLB   GL235092  22.579  36.146  18.668 -0.0681 -0.1336 -0.0591
 1463BOLB   C1A35093  22.859  36.558  18.545 -0.0008 -0.2620  0.3393
 1463BOLB   C2A35094  22.936  37.127  18.466 -0.1126  0.0364 -0.1445
 1463BOLB   C3A35095  23.106  37.423  18.215 -0.1703 -0.1538  0.5343
 1463BOLB   C4A35096  23.090  37.791  17.904  0.0320  0.0770 -0.0280
 1463BOLB   C1B35097  22.382  36.578  18.641 -0.0262 -0.3635  0.0634
 1463BOLB   C2B35098  22.004  36.698  18.760  0.1377  0.2775 -0.1818
 1463BOLB   C3B35099  21.777  37.090  18.559 -0.3520 -0.1948  0.0069
 1463BOLB   C4B35100  21.754  37.341  18.157 -0.0783 -0.0487 -0.0327
 1463BOLB   NC235101  20.852  38.847  16.982  0.0086 -0.0516 -0.1516
 1463BOLB   PO235102  21.263  38.706  17.061 -0.1705  0.1622  0.0160
 1463BOLB   GL335103  21.592  38.701  17.337  0.0837 -0.2445  0.2159
 1463BOLB   GL435104  21.495  38.701  17.637  0.0297  0.0690 -0.0283
 1463BOLB   C1C35105  21.771  38.335  17.588 -0.0423 -0.0060  0.1388
 1463BOLB   C2C35106  22.167  38.151  17.630  0.0886 -0.0395  0.0196
 1463BOLB   C3C35107  22.597  38.156  17.620  0.4378 -0.2219 -0.1545
 1463BOLB   C4C35108  22.803  38.178  17.862 -0.3629  0.4608  0.1348
 1463BOLB   C1D35109  21.668  38.537  18.020 -0.2090 -0.0624 -0.0294
 1463BOLB   C2D35110  21.952  38.316  18.266  0.0277  0.1303 -0.1501
 1463BOLB   C3D35111  22.144  37.957  18.499  0.1491  0.1594  0.1552
 1463BOLB   C4D35112  22.228  37.559  18.381 -0.2562  0.1935  0.2285
 1464BOLB   NC135113  32.374  34.993  17.182  0.0165 -0.0933  0.3277
 1464BOLB   PO135114  32.363  34.926  16.765  0.2608 -0.0690 -0.0020
 1464BOLB   GL135115  32.347  35.167  16.375 -0.2347 -0.1155  0.1553
 1464BOLB   GL235116  32.288  34.908  16.051  0.1904  0.0375 -0.0870
 1464BOLB   C1A35117  32.353  35.463  15.978 -0.1701  0.3286 -0.0136
 1464BOLB   C2A35118  32.593  35.662  15.861  0.3813  0.1464 -0.3497
 1464BOLB   C3A35119  32.840  35.733  15.648  0.0200 -0.1148 -0.0005
 1464BOLB   C4A35120  33.028  35.868  15.355  0.1840 -0.0202 -0.0670
 1464BOLB   C1B35121  32.303  35.055  15.689  0.2826 -0.1458 -0.4663
 1464BOLB   C2B35122  32.385  35.338  15.422  0.2455  0.4333  0.2335
 1464BOLB   C3B35123  32.508  35.586  15.095  0.0589  0.1307 -0.2764
 1464BOLB   C4B35124  32.172  35.559  14.801 -0.3861 -0.1476  0.0984
 1464BOLB   NC235125  32.831  38.250  13.612  0.0007 -0.1058  0.0940
 1464BOLB   PO235126  32.684  37.882  13.695 -0.0320 -0.1545  0.1994
 1464BOLB   GL335127  32.678  37.488  13.982  0.0401  0.3120 -0.1470
 1464BOLB   GL435128  32.938  37.253  13.983 -0.0691 -0.1318 -0.0858
 1464BOLB   C1C35129  32.557  37.166  14.296 -0.1006  0.0685 -0.0920
 1464BOLB   C2C35130  32.666  37.017  14.697  0.1263 -0.0252  0.3078
 1464BOLB   C3C35131  32.851  36.822  14.974 -0.1075 -0.3134 -0.0676
 1464BOLB   C4C35132  33.054  36.273  15.151 -0.0103 -0.1435  0.1298
 1464BOLB   C1D35133  33.056  37.064  14.349 -0.0267  0.0210 -0.3504
 1464BOLB   C2D35134  33.108  36.788  14.541 -0.3912  0.0965 -0.0338
 1464BOLB   C3D35135  33.351  36.642  14.800  0.0308 -0.1004  0.0257
 1464BOLB   C4D35136  33.499  36.382  15.078  0.1023 -0.1405  0.0500
 1465BOLB   NC135137  30.775  37.322  18.460  0.2172  0.1152  0.1113
 1465BOLB   PO135138  30.766  37.510  18.819  0.2392 -0.0414 -0.2161
 1465BOLB   GL135139  30.998  37.753  18.966  0.1113  0.1602  0.1735
 1465BOLB   GL235140  31.302  37.730  18.859  0.0874  0.4519 -0.2104
 1465BOLB   C1A35141  31.184  38.144  19.162  0.3123  0.1208 -0.0951
 1465BOLB   C2A35142  31.185  38.551  19.369  0.0845 -0.0082  0.0822
 1465BOLB   C3A35143  31.090  38.917  19.174  0.2327 -0.0366  0.1881
 1465BOLB   C4A35144  31.165  39.349  19.439 -0.0972 -0.1897  0.0317
 1465BOLB   C1B35145  31.485  37.758  19.300  0.0038  0.2790 -0.2870
 1465BOLB   C2B35146  31.498  38.021  19.522 -0.0240 -0.0092  0.2242
 1465BOLB   C3B35147  31.647  38.389  19.547  0.1148  0.0738 -0.1635
 1465BOLB   C4B35148  31.997  38.706  19.464  0.1979  0.0378 -0.2593
 1465BOLB   NC235149  31.880  41.055  19.182  0.0139 -0.0018  0.1292
 1465BOLB   PO235150  32.107  41.193  19.582 -0.1955 -0.1788  0.2116
 1465BOLB   GL335151  31.964  40.754  19.572 -0.3119  0.0995  0.2821
 1465BOLB   GL435152  32.150  40.660  19.857  0.2452  0.5178 -0.1466
 1465BOLB   C1C35153  31.730  40.389  19.857  0.0441 -0.0655  0.1572
 1465BOLB   C2C35154  31.358  40.232  19.855  0.0700  0.0937  0.2503
 1465BOLB   C3C35155  31.117  39.954  19.759 -0.2134  0.0095 -0.3615
 1465BOLB   C4C35156  30.943  39.656  19.653 -0.2341 -0.1690  0.2061
 1465BOLB   C1D35157  32.258  40.228  19.845 -0.1085 -0.1997 -0.0151
 1465BOLB   C2D35158  32.048  39.893  19.771 -0.0874 -0.2546 -0.0531
 1465BOLB   C3D35159  31.897  39.546  20.057  0.0763  0.0081  0.2619
 1465BOLB   C4D35160  32.161  39.133  20.180  0.1209  0.0298 -0.0487
 1466BOLB   NC135161  23.621  32.469   2.063  0.4814 -0.1219 -0.1851
 1466BOLB   PO135162  23.425  32.275   2.332  0.1362 -0.1697  0.0961
 1466BOLB   GL135163  23.359  31.980   2.669 -0.2448 -0.2671  0.0997
 1466BOLB   GL235164  23.010  31.823   2.662 -0.2196  0.1814  0.1143
 1466BOLB   C1A35165  23.441  31.813   3.074  0.0515 -0.2059 -0.0045
 1466BOLB   C2A35166  23.474  31.673   3.500 -0.2136  0.0415  0.2347
 1466BOLB   C3A35167  23.530  31.589   3.960  0.2819 -0.0454  0.2428
 1466BOLB   C4A35168  23.404  31.363   4.278  0.1446  0.0835 -0.0828
 1466BOLB   C1B35169  22.967  31.984   3.000  0.3224  0.4546 -0.3711
 1466BOLB   C2B35170  23.184  32.090   3.419  0.0419 -0.0990  0.0417
 1466BOLB   C3B35171  23.179  32.471   3.519  0.1695  0.1026 -0.0111
 1466BOLB   C4B35172  23.459  32.738   3.306  0.0430  0.0058  0.1494
 1466BOLB   NC235173  21.968  31.243   6.342  0.3598 -0.0649 -0.1278
 1466BOLB   PO235174  22.026  31.633   6.251 -0.0210  0.2413  0.1966
 1466BOLB   GL335175  22.015  31.441   5.892  0.1450  0.1194  0.1154
 1466BOLB   GL435176  22.100  31.123   5.893  0.0260  0.1538 -0.0494
 1466BOLB   C1C35177  22.293  31.427   5.462 -0.0336  0.1725  0.1016
 1466BOLB   C2C35178  22.295  31.292   5.041 -0.1553 -0.3343 -0.1632
 1466BOLB   C3C35179  22.709  31.435   4.724 -0.1981  0.0414 -0.0784
 1466BOLB   C4C35180  23.118  31.234   4.578 -0.0539 -0.4531 -0.2826
 1466BOLB   C1D35181  22.209  30.890   5.508  0.1795 -0.1512 -0.1745
 1466BOLB   C2D35182  22.283  30.766   5.166 -0.3317 -0.0801  0.0314
 1466BOLB   C3D35183  22.150  30.486   4.842  0.0805  0.0684 -0.0734
 1466BOLB   C4D35184  22.289  30.550   4.470  0.0487  0.0742  0.0480
 1467BOLB   NC135185  20.998  34.844  22.266 -0.0115  0.0472  0.1160
 1467BOLB   PO135186  21.273  35.162  22.385 -0.2569  0.0461  0.0531
 1467BOLB   GL135187  20.859  35.322  22.298 -0.0155  0.2196  0.3531
 1467BOLB   GL235188  20.781  35.308  22.572 -0.0374 -0.2355  0.1625
 1467BOLB   C1A35189  20.420  35.409  22.209 -0.1105 -0.3050  0.2222
 1467BOLB   C2A35190  20.116  35.552  22.261 -0.1356  0.1548 -0.2723
 1467BOLB   C3A35191  19.671  35.616  22.368  0.3113  0.1145  0.2734
 1467BOLB   C4A35192  19.397  35.519  21.988 -0.1643  0.0813  0.1667
 1467BOLB   C1B35193  20.372  35.371  22.759 -0.2726 -0.0864  0.3509
 1467BOLB   C2B35194  19.994  35.415  22.776 -0.0258  0.0779  0.0098
 1467BOLB   C3B35195  19.609  35.580  22.861 -0.2185 -0.0531  0.1333
 1467BOLB   C4B35196  19.316  35.530  22.641 -0.1328 -0.1664 -0.1867
 1467BOLB   NC235197  17.495  36.920  21.806  0.2746  0.0758  0.1490
 1467BOLB   PO235198  17.753  37.076  21.375 -0.0648 -0.0270 -0.1507
 1467BOLB   GL335199  18.122  36.891  21.259 -0.0912  0.0890  0.3212
 1467BOLB   GL435200  18.246  36.858  20.932 -0.1016  0.3283 -0.0187
 1467BOLB   C1C35201  18.584  36.778  21.387 -0.0200 -0.2135  0.2812
 1467BOLB   C2C35202  18.954  36.433  21.354 -0.4741  0.1035 -0.2038
 1467BOLB   C3C35203  19.103  36.186  21.662 -0.2176 -0.0690 -0.1319
 1467BOLB   C4C35204  19.362  35.876  21.694  0.1150 -0.2541  0.0343
 1467BOLB   C1D35205  18.388  36.504  20.952  0.1254 -0.2697  0.1353
 1467BOLB   C2D35206  18.640  36.109  21.006  0.0089  0.1538 -0.0054
 1467BOLB   C3D35207  18.728  35.832  20.703  0.0342  0.1087 -0.2812
 1467BOLB   C4D35208  18.849  35.563  20.353 -0.2137 -0.2619  0.0187
 1468BOLB   NC135209  35.022  31.529  25.412  0.0030 -0.1531  0.1074
 1468BOLB   PO135210  34.965  31.468  25.815  0.2792 -0.0463  0.0900
 1468BOLB   GL135211  35.346  31.336  25.799 -0.0945 -0.0112 -0.2156
 1468BOLB   GL235212  35.392  30.982  25.780  0.0117  0.0102  0.2807
 1468BOLB   C1A35213  35.612  31.370  26.074  0.1627 -0.0489 -0.0149
 1468BOLB   C2A35214  35.998  31.556  26.348  0.3286  0.1353 -0.1241
 1468BOLB   C3A35215  36.193  31.737  26.654 -0.0100  0.2195 -0.1579
 1468BOLB   C4A35216  36.359  31.750   0.164 -0.0522  0.2530 -0.2020
 1468BOLB   C1B35217  35.762  30.830  26.056  0.1312  0.3453  0.0664
 1468BOLB   C2B35218  36.103  30.679  26.205 -0.2877 -0.0935 -0.2843
 1468BOLB   C3B35219  36.499  30.548  26.364 -0.1611 -0.0868 -0.0390
 1468BOLB   C4B35220  36.961  30.681  26.297 -0.0366  0.0197  0.0891
 1468BOLB   NC235221  37.842  32.954   1.404  0.0388  0.0546  0.1740
 1468BOLB   PO235222  37.635  32.852   1.791 -0.1193  0.3177  0.1374
 1468BOLB   GL335223  37.324  32.660   1.577  0.1121  0.3399 -0.0356
 1468BOLB   GL435224  37.133  32.845   1.430 -0.0395  0.4719 -0.2307
 1468BOLB   C1C35225  36.883  32.355   1.547  0.3158 -0.2989  0.2446
 1468BOLB   C2C35226  36.600  32.020   1.365  0.0631  0.1709 -0.1411
 1468BOLB   C3C35227  36.628  31.856   0.944 -0.0694  0.0586 -0.3848
 1468BOLB   C4C35228  36.710  31.807   0.580  0.1810 -0.5140 -0.2064
 1468BOLB   C1D35229  36.683  32.785   1.434 -0.2392 -0.3096  0.1096
 1468BOLB   C2D35230  36.371  32.630   1.209 -0.0658 -0.0708  0.1586
 1468BOLB   C3D35231  36.194  32.759   0.884  0.0966 -0.1745 -0.1471
 1468BOLB   C4D35232  36.011  33.193   0.778  0.1828 -0.0084  0.1199
 1469BOLB   NC135233  24.691  31.912  14.808  0.1954 -0.0627  0.0325
 1469BOLB   PO135234  24.689  32.251  14.661  0.3362  0.1092 -0.1176
 1469BOLB   GL135235  24.617  32.641  14.447 -0.0997 -0.0112 -0.2086
 1469BOLB   GL235236  24.521  32.456  14.158 -0.2464 -0.1421  0.2176
 1469BOLB   C1A35237  24.447  32.985  14.215 -0.1844 -0.3145 -0.1444
 1469BOLB   C2A35238  24.348  33.258  13.868  0.0741 -0.0472  0.2332
 1469BOLB   C3A35239  24.168  33.438  13.502  0.0646  0.0465 -0.1888
 1469BOLB   C4A35240  24.025  33.722  13.191  0.0572 -0.0424  0.1810
 1469BOLB   C1B35241  24.432  32.534  13.695  0.1938  0.1355  0.0461
 1469BOLB   C2B35242  24.241  32.639  13.282 -0.2324  0.2792 -0.0326
 1469BOLB   C3B35243  24.282  32.754  12.883 -0.4002  0.1416 -0.2327
 1469BOLB   C4B35244  23.991  32.898  12.664 -0.2155 -0.0948 -0.1317
 1469BOLB   NC235245  22.902  34.850  11.377  0.0396  0.0852  0.0201
 1469BOLB   PO235246  22.750  35.088  11.783  0.1926  0.1057  0.3182
 1469BOLB   GL335247  22.903  35.031  12.132  0.1003  0.0311  0.1538
 1469BOLB   GL435248  23.057  35.305  12.281 -0.2596 -0.1881 -0.1966
 1469BOLB   C1C35249  23.043  34.681  12.319 -0.0666  0.2071 -0.4034
 1469BOLB   C2C35250  23.437  34.621  12.665  0.2173 -0.0713 -0.1755
 1469BOLB   C3C35251  23.882  34.507  12.866 -0.3821  0.0976 -0.1109
 1469BOLB   C4C35252  23.845  34.092  13.002  0.0119 -0.0480  0.1231
 1469BOLB   C1D35253  23.446  35.088  12.343 -0.1162  0.0363 -0.1298
 1469BOLB   C2D35254  23.632  34.687  12.114 -0.0648  0.0630  0.0191
 1469BOLB   C3D35255  23.830  34.397  11.822 -0.2407  0.1702  0.0813
 1469BOLB   C4D35256  23.698  34.307  11.401 -0.1223  0.3649 -0.0045
 1470BOLB   NC135257  29.928  21.506  23.737 -0.0248 -0.2204 -0.2910
 1470BOLB   PO135258  30.257  21.318  23.411  0.3576  0.2740 -0.1833
 1470BOLB   GL135259  30.101  20.968  23.458  0.0426  0.3752 -0.0842
 1470BOLB   GL235260  29.799  20.937  23.698  0.4087  0.0313  0.2319
 1470BOLB   C1A35261  29.877  20.554  23.459 -0.4092 -0.0369  0.2436
 1470BOLB   C2A35262  29.975  20.206  23.436  0.0790  0.0013  0.0103
 1470BOLB   C3A35263  30.435  20.141  23.241 -0.0704 -0.0221 -0.2011
 1470BOLB   C4A35264  30.781  20.257  23.307 -0.0705 -0.2278 -0.2000
 1470BOLB   C1B35265  30.121  20.660  23.857  0.1736  0.0559 -0.4851
 1470BOLB   C2B35266  30.118  20.393  24.229  0.1295 -0.3418  0.1011
 1470BOLB   C3B35267  29.968  20.389  24.741  0.0411 -0.3136  0.2828
 1470BOLB   C4B35268  30.161  20.326  25.085 -0.0427  0.3311  0.1267
 1470BOLB   NC235269  31.720  18.353  24.238  0.0823 -0.0294  0.1504
 1470BOLB   PO235270  31.460  18.148  23.816 -0.2351 -0.0101 -0.0162
 1470BOLB   GL335271  31.468  18.540  23.518 -0.3332 -0.2249  0.1338
 1470BOLB   GL435272  31.708  18.773  23.464  0.0677  0.2255 -0.5685
 1470BOLB   C1C35273  31.153  18.890  23.570 -0.0087 -0.1593 -0.0869
 1470BOLB   C2C35274  31.075  19.323  23.670 -0.2558  0.0201  0.0237
 1470BOLB   C3C35275  31.062  19.606  23.436 -0.3746 -0.2358  0.2579
 1470BOLB   C4C35276  31.068  20.033  23.443 -0.0428 -0.2827 -0.0972
 1470BOLB   C1D35277  31.445  19.041  23.169 -0.0220  0.1248 -0.3027
 1470BOLB   C2D35278  31.245  19.419  23.024  0.0062 -0.1570  0.0993
 1470BOLB   C3D35279  31.394  19.713  22.952 -0.2553 -0.0375  0.1566
 1470BOLB   C4D35280  31.716  19.947  22.721  0.3002 -0.1277  0.2604
 1471BOLB   NC135281  35.712  31.339  19.218 -0.4029  0.2344 -0.0765
 1471BOLB   PO135282  35.856  31.420  19.630 -0.3158 -0.1509  0.1865
 1471BOLB   GL135283  36.172  31.405  19.819  0.0048 -0.2581 -0.1608
 1471BOLB   GL235284  36.423  31.089  19.827  0.0576  0.2104  0.1657
 1471BOLB   C1A35285  36.587  31.458  20.079  0.2698  0.0889  0.2082
 1471BOLB   C2A35286  36.920  31.581  20.152 -0.1124  0.0799  0.0776
 1471BOLB   C3A35287  37.386  31.692  19.984  0.0187  0.1629  0.1944
 1471BOLB   C4A35288  37.717  31.824  20.059  0.0277 -0.1466 -0.0964
 1471BOLB   C1B35289  36.474  30.655  19.880 -0.2359 -0.0588 -0.0892
 1471BOLB   C2B35290  36.866  30.507  19.753  0.0011  0.1467 -0.1471
 1471BOLB   C3B35291  37.205  30.248  19.438  0.2065 -0.2229  0.1347
 1471BOLB   C4B35292  37.484  30.265  19.134 -0.2443  0.0188 -0.1291
 1471BOLB   NC235293  39.734  33.506  20.212  0.0405  0.0650 -0.1027
 1471BOLB   PO235294  39.465  33.166  20.122  0.0764 -0.0260  0.0779
 1471BOLB   GL335295  39.186  32.821  20.067 -0.1159  0.2161  0.0174
 1471BOLB   GL435296  39.114  32.688  20.310 -0.1513 -0.1145  0.4050
 1471BOLB   C1C35297  38.882  32.664  19.752  0.0620 -0.1264  0.1487
 1471BOLB   C2C35298  38.465  32.336  19.655  0.1937  0.2406 -0.5291
 1471BOLB   C3C35299  38.207  32.203  19.778  0.2535  0.0433  0.4106
 1471BOLB   C4C35300  37.882  32.201  20.027 -0.0732 -0.0881 -0.3457
 1471BOLB   C1D35301  38.749  32.617  20.644 -0.0914  0.4354  0.3024
 1471BOLB   C2D35302  38.679  32.262  20.871 -0.0401 -0.1103 -0.0522
 1471BOLB   C3D35303  38.572  31.962  21.119  0.1335  0.0588 -0.0833
 1471BOLB   C4D35304  38.858  31.607  21.221  0.0013 -0.2145  0.0001
 1472BOLB   NC135305  40.380  32.012  23.253  0.1547 -0.0961  0.0277
 1472BOLB   PO135306  40.050  31.865  23.046  0.2374  0.0439 -0.0422
 1472BOLB   GL135307  39.600  31.669  23.139 -0.0613  0.1057 -0.0089
 1472BOLB   GL235308  39.292  31.840  23.254  0.2152  0.0257 -0.2769
 1472BOLB   C1A35309  39.336  31.209  23.186  0.4011 -0.0887  0.0979
 1472BOLB   C2A35310  38.962  31.047  23.320  0.0200  0.0580  0.3355
 1472BOLB   C3A35311  38.526  31.067  23.506 -0.0578  0.1016 -0.3046
 1472BOLB   C4A35312  38.409  31.174  23.898  0.1560  0.1159 -0.0526
 1472BOLB   C1B35313  38.828  31.830  23.228 -0.4373 -0.0428  0.4302
 1472BOLB   C2B35314  38.616  31.444  23.099  0.0508  0.2099 -0.0434
 1472BOLB   C3B35315  38.303  31.257  22.956 -0.2934 -0.4550 -0.1943
 1472BOLB   C4B35316  38.165  31.260  22.598  0.1178  0.0987  0.0483
 1472BOLB   NC235317  39.573  29.718  24.651  0.1569 -0.1682 -0.1713
 1472BOLB   PO235318  39.794  30.069  24.828  0.6102  0.2571  0.0624
 1472BOLB   GL335319  39.414  30.234  24.841 -0.2160  0.0209 -0.0459
 1472BOLB   GL435320  39.246  30.232  24.529  0.2066  0.2664  0.0460
 1472BOLB   C1C35321  38.943  30.489  24.867 -0.0224  0.0372  0.2984
 1472BOLB   C2C35322  38.764  30.841  24.841 -0.2254 -0.3834  0.1491
 1472BOLB   C3C35323  38.585  30.967  24.462 -0.0753 -0.0717 -0.3413
 1472BOLB   C4C35324  38.263  31.055  24.275 -0.1900  0.0342 -0.3096
 1472BOLB   C1D35325  38.900  29.988  24.545 -0.0566 -0.3474 -0.2344
 1472BOLB   C2D35326  38.418  29.873  24.515  0.1628  0.0405 -0.4739
 1472BOLB   C3D35327  38.073  29.844  24.273  0.2051  0.2530 -0.0101
 1472BOLB   C4D35328  37.959  29.832  23.861 -0.1345 -0.1735 -0.0795
 1473BOLB   NC135329  27.384  35.190   1.020  0.3515 -0.1107 -0.0609
 1473BOLB   PO135330  27.662  35.149   1.176 -0.3890 -0.1417  0.0746
 1473BOLB   GL135331  27.673  35.482   1.451 -0.1952 -0.0970  0.0388
 1473BOLB   GL235332  27.914  35.436   1.697 -0.1919 -0.1540  0.0512
 1473BOLB   C1A35333  27.737  35.912   1.575  0.1366 -0.1087  0.0038
 1473BOLB   C2A35334  27.874  36.213   1.748  0.0291 -0.0193  0.1508
 1473BOLB   C3A35335  28.117  36.267   2.071  0.1655 -0.2257  0.2175
 1473BOLB   C4A35336  28.424  36.470   2.214 -0.2281  0.0945  0.0595
 1473BOLB   C1B35337  27.978  35.737   1.971  0.1055 -0.1106 -0.0181
 1473BOLB   C2B35338  28.004  35.989   2.469  0.2183  0.0396  0.2005
 1473BOLB   C3B35339  28.308  35.793   2.793  0.5051 -0.3576 -0.1750
 1473BOLB   C4B35340  28.360  35.794   3.194 -0.0273 -0.1774 -0.0209
 1473BOLB   NC235341  28.989  37.040   4.680 -0.2758 -0.1067 -0.3344
 1473BOLB   PO235342  28.871  37.371   4.533  0.0553  0.0738 -0.0543
 1473BOLB   GL335343  28.905  37.474   4.097  0.1724  0.0036 -0.2688
 1473BOLB   GL435344  28.546  37.593   3.953 -0.1102 -0.0073 -0.1446
 1473BOLB   C1C35345  28.917  37.283   3.611  0.1004 -0.0003 -0.0693
 1473BOLB   C2C35346  28.954  37.426   3.111  0.0195 -0.1131 -0.4756
 1473BOLB   C3C35347  28.762  37.099   2.700  0.3032 -0.0558  0.2780
 1473BOLB   C4C35348  28.784  36.812   2.288  0.4358 -0.1286 -0.0710
 1473BOLB   C1D35349  28.448  37.141   3.730  0.2716 -0.1267 -0.0428
 1473BOLB   C2D35350  28.360  36.719   3.469  0.1235 -0.0128  0.0777
 1473BOLB   C3D35351  28.369  36.720   3.036  0.2563 -0.1525 -0.3175
 1473BOLB   C4D35352  28.711  36.574   2.757  0.4616 -0.0273 -0.0347
 1474BOLB   NC135353  32.323  26.799  16.010 -0.2314  0.0520  0.0273
 1474BOLB   PO135354  32.728  26.608  15.969  0.0381  0.1225  0.0760
 1474BOLB   GL135355  33.099  26.408  15.805 -0.0092  0.1303  0.0271
 1474BOLB   GL235356  33.159  26.462  15.478 -0.0297 -0.1695 -0.3914
 1474BOLB   C1A35357  33.311  26.077  15.662 -0.0197 -0.1527 -0.0090
 1474BOLB   C2A35358  33.705  25.931  15.503 -0.0585  0.1026  0.0911
 1474BOLB   C3A35359  34.007  25.637  15.568 -0.1733  0.0647 -0.0351
 1474BOLB   C4A35360  34.258  25.292  15.740  0.1747 -0.3572  0.0748
 1474BOLB   C1B35361  33.586  26.449  15.468 -0.2900  0.0028  0.0410
 1474BOLB   C2B35362  34.047  26.443  15.260 -0.2706  0.2670 -0.2124
 1474BOLB   C3B35363  34.395  26.233  15.338  0.0239 -0.3237 -0.1362
 1474BOLB   C4B35364  34.749  26.129  15.036  0.0836 -0.0728 -0.0510
 1474BOLB   NC235365  35.748  24.964  13.889  0.2540 -0.0215 -0.1048
 1474BOLB   PO235366  35.904  24.874  14.285  0.3571  0.1282  0.0063
 1474BOLB   GL335367  35.596  25.051  14.364  0.2954  0.1277  0.1164
 1474BOLB   GL435368  35.635  25.266  14.581  0.1492 -0.2251 -0.3125
 1474BOLB   C1C35369  35.224  25.033  14.587  0.0519  0.0597  0.1024
 1474BOLB   C2C35370  35.085  25.139  15.005  0.1303  0.1869  0.0382
 1474BOLB   C3C35371  34.944  25.044  15.383  0.1181  0.0377 -0.0883
 1474BOLB   C4C35372  34.575  25.140  15.696 -0.2306  0.0045  0.0756
 1474BOLB   C1D35373  35.565  25.294  14.964  0.0761  0.2440 -0.0188
 1474BOLB   C2D35374  35.381  25.238  15.375 -0.2210 -0.3944  0.0507
 1474BOLB   C3D35375  35.338  25.022  15.867 -0.0981  0.0354 -0.1356
 1474BOLB   C4D35376  35.014  25.196  16.072 -0.1119 -0.0083  0.0320
 1475BOLB   NC135377  26.819  18.568   5.317  0.2824 -0.1098  0.1379
 1475BOLB   PO135378  26.452  18.755   5.459 -0.0080 -0.1463 -0.0288
 1475BOLB   GL135379  26.713  19.069   5.171 -0.1728 -0.0398  0.0595
 1475BOLB   GL235380  26.598  19.343   5.265  0.2612  0.3797 -0.1968
 1475BOLB   C1A35381  26.795  18.969   4.704  0.1396  0.2993 -0.0881
 1475BOLB   C2A35382  26.799  18.866   4.221 -0.1126 -0.0828  0.1504
 1475BOLB   C3A35383  26.551  18.506   4.096  0.4017 -0.1168 -0.2027
 1475BOLB   C4A35384  26.385  18.495   3.737 -0.3866 -0.1953  0.0661
 1475BOLB   C1B35385  26.229  19.710   5.340 -0.2700  0.0352 -0.4210
 1475BOLB   C2B35386  26.176  20.115   5.242 -0.0200 -0.2075  0.2617
 1475BOLB   C3B35387  25.855  20.402   5.144  0.0229 -0.2014  0.2486
 1475BOLB   C4B35388  25.653  20.403   4.689  0.0829 -0.2174 -0.2144
 1475BOLB   NC235389  27.854  17.614   3.272  0.2560 -0.0871 -0.2983
 1475BOLB   PO235390  27.501  17.453   2.862 -0.0765 -0.0910 -0.0171
 1475BOLB   GL335391  27.229  17.649   2.628  0.2757  0.0118 -0.0246
 1475BOLB   GL435392  26.922  17.545   2.669  0.0242 -0.0719  0.2708
 1475BOLB   C1C35393  27.045  18.034   2.600  0.0449 -0.2030  0.0139
 1475BOLB   C2C35394  26.699  18.108   2.822  0.0303 -0.0616  0.3127
 1475BOLB   C3C35395  26.213  18.174   3.050  0.0210  0.1136 -0.0524
 1475BOLB   C4C35396  26.063  18.476   3.418  0.1416 -0.0411  0.1131
 1475BOLB   C1D35397  26.557  17.749   2.480 -0.0908 -0.0310 -0.3881
 1475BOLB   C2D35398  26.356  17.823   2.110 -0.0964 -0.0916 -0.1564
 1475BOLB   C3D35399  26.117  17.983   1.749 -0.1444 -0.0242  0.2607
 1475BOLB   C4D35400  25.775  17.739   1.572  0.3486  0.2181  0.0397
 1476BOLB   NC135401  27.467  36.263  17.546 -0.0329 -0.2365 -0.1241
 1476BOLB   PO135402  27.601  36.485  17.259 -0.0178 -0.1301 -0.1528
 1476BOLB   GL135403  27.293  36.832  16.981 -0.0847  0.1077  0.0747
 1476BOLB   GL235404  27.079  36.630  16.773 -0.1780  0.3633 -0.1245
 1476BOLB   C1A35405  27.300  37.160  16.833 -0.1373  0.0332  0.2784
 1476BOLB   C2A35406  27.043  37.487  16.492  0.0370 -0.0171 -0.2247
 1476BOLB   C3A35407  27.270  37.814  16.302  0.0553 -0.3155  0.0257
 1476BOLB   C4A35408  27.414  38.018  16.040 -0.1185 -0.1386 -0.0042
 1476BOLB   C1B35409  27.016  36.917  16.401  0.0502 -0.0988 -0.1068
 1476BOLB   C2B35410  26.879  37.336  16.047 -0.2378  0.1158 -0.1999
 1476BOLB   C3B35411  26.564  37.500  15.785 -0.4852 -0.2108  0.0007
 1476BOLB   C4B35412  26.538  37.734  15.493 -0.1769  0.1330  0.1950
 1476BOLB   NC235413  27.442  40.337  15.143 -0.2990  0.1181  0.0509
 1476BOLB   PO235414  27.137  40.096  14.897  0.1796 -0.3033  0.0357
 1476BOLB   GL335415  27.160  39.774  15.197 -0.5020 -0.1699  0.0555
 1476BOLB   GL435416  26.885  39.924  15.490  0.1705  0.0822 -0.0624
 1476BOLB   C1C35417  27.066  39.465  15.315 -0.1410  0.2172 -0.1059
 1476BOLB   C2C35418  27.108  39.067  15.498 -0.1585 -0.0708  0.0105
 1476BOLB   C3C35419  27.460  38.753  15.591 -0.2708 -0.2222 -0.0139
 1476BOLB   C4C35420  27.413  38.390  15.878  0.0622  0.3299  0.0423
 1476BOLB   C1D35421  26.954  39.507  15.762 -0.1963  0.0737 -0.0014
 1476BOLB   C2D35422  26.860  39.118  15.890 -0.0756  0.2265  0.2101
 1476BOLB   C3D35423  27.048  38.745  15.888 -0.1042 -0.0884  0.1709
 1476BOLB   C4D35424  27.005  38.320  16.189 -0.0903  0.0453 -0.1810
 1477BOLB   NC135425  30.140  37.337  25.033 -0.1442  0.0983 -0.0018
 1477BOLB   PO135426  29.973  37.299  25.448 -0.0534 -0.0256 -0.0945
 1477BOLB   GL135427  30.193  37.704  25.409 -0.3154  0.0757  0.0047
 1477BOLB   GL235428  30.313  37.785  25.132  0.2628  0.1231  0.0299
 1477BOLB   C1A35429  30.203  38.158  25.421  0.0342  0.1287  0.0532
 1477BOLB   C2A35430  30.294  38.661  25.475  0.1082 -0.1411  0.1950
 1477BOLB   C3A35431  29.962  38.747  25.700  0.2402 -0.0053 -0.0696
 1477BOLB   C4A35432  29.904  38.991  26.078  0.0529  0.0770  0.2227
 1477BOLB   C1B35433  30.616  38.006  25.410 -0.1537 -0.0265  0.3309
 1477BOLB   C2B35434  30.610  38.387  25.757  0.2792 -0.0115 -0.0067
 1477BOLB   C3B35435  30.338  38.708  25.967  0.1415  0.2601 -0.0584
 1477BOLB   C4B35436  30.482  39.006  26.262 -0.1103  0.3125 -0.1368
 1477BOLB   NC235437  29.307  41.213  26.668 -0.1567 -0.0625  0.0261
 1477BOLB   PO235438  29.374  40.909   0.076 -0.1188  0.0346  0.1601
 1477BOLB   GL335439  29.471  40.537   0.024  0.0880 -0.2405  0.2669
 1477BOLB   GL435440  29.798  40.477   0.091 -0.0138  0.3716 -0.2630
 1477BOLB   C1C35441  29.200  40.225  26.919  0.1129  0.2123  0.2327
 1477BOLB   C2C35442  29.066  39.851  26.694  0.0800 -0.1766 -0.0960
 1477BOLB   C3C35443  29.302  39.476  26.424  0.0318 -0.1299  0.0511
 1477BOLB   C4C35444  29.609  39.119  26.243  0.0759  0.2202 -0.5262
 1477BOLB   C1D35445  29.899  40.043   0.055  0.2198 -0.0754 -0.1164
 1477BOLB   C2D35446  30.096  39.513   0.199  0.0346 -0.0481  0.0993
 1477BOLB   C3D35447  30.298  39.157   0.077 -0.0716  0.0408 -0.0888
 1477BOLB   C4D35448  30.187  38.688   0.044  0.1966  0.1953 -0.0756
 1478BOLB   NC135449  29.629  28.447  13.899 -0.1305 -0.2638  0.0042
 1478BOLB   PO135450  29.505  28.052  13.925  0.5091  0.1827 -0.3787
 1478BOLB   GL135451  29.497  28.041  13.502  0.0462 -0.4412 -0.0845
 1478BOLB   GL235452  29.666  28.303  13.394 -0.0228 -0.3615  0.0572
 1478BOLB   C1A35453  29.570  27.831  13.197 -0.1327 -0.0337  0.0323
 1478BOLB   C2A35454  29.547  27.781  12.830  0.3978 -0.1641 -0.2026
 1478BOLB   C3A35455  29.326  28.002  12.539  0.2550  0.1799  0.0240
 1478BOLB   C4A35456  29.141  28.222  12.115 -0.0292  0.4315 -0.2744
 1478BOLB   C1B35457  29.412  28.277  12.995 -0.1763 -0.2532 -0.0629
 1478BOLB   C2B35458  29.367  28.503  12.653  0.1836 -0.2486 -0.0902
 1478BOLB   C3B35459  29.725  28.706  12.488  0.0194  0.1442 -0.0057
 1478BOLB   C4B35460  29.918  28.753  12.096 -0.0108  0.2055 -0.0210
 1478BOLB   NC235461  29.544  27.197   9.969 -0.1965  0.1975  0.1020
 1478BOLB   PO235462  29.504  27.692   9.775  0.0729 -0.3078  0.1633
 1478BOLB   GL335463  29.124  27.811  10.114  0.1284 -0.4245  0.1887
 1478BOLB   GL435464  29.092  27.580  10.221  0.0824  0.0434  0.0306
 1478BOLB   C1C35465  29.165  28.098  10.524 -0.0725  0.1885 -0.2129
 1478BOLB   C2C35466  29.227  28.359  10.992  0.2443 -0.0432  0.0461
 1478BOLB   C3C35467  29.171  28.533  11.416 -0.0468 -0.2484 -0.0019
 1478BOLB   C4C35468  29.163  28.384  11.762 -0.1937 -0.0712  0.3565
 1478BOLB   C1D35469  29.024  27.646  10.602 -0.0940  0.2711 -0.0781
 1478BOLB   C2D35470  29.246  27.802  11.001  0.1993  0.1939 -0.1229
 1478BOLB   C3D35471  29.152  28.056  11.344 -0.1353 -0.0401  0.2438
 1478BOLB   C4D35472  28.940  27.951  11.768  0.1566 -0.2731  0.1761
 1479BOLB   NC135473  33.553  40.740  18.356  0.0647  0.1768  0.2801
 1479BOLB   PO135474  33.556  40.551  18.770 -0.1705  0.2497 -0.0632
 1479BOLB   GL135475  33.496  40.149  18.984 -0.0837 -0.1131 -0.0391
 1479BOLB   GL235476  33.731  39.878  19.138  0.0231  0.3608  0.0318
 1479BOLB   C1A35477  33.224  39.916  19.187 -0.1311  0.1119  0.2691
 1479BOLB   C2A35478  33.031  39.611  19.207  0.0242  0.1248 -0.0867
 1479BOLB   C3A35479  32.798  39.442  19.572  0.1468  0.0903  0.0154
 1479BOLB   C4A35480  32.473  39.529  19.890  0.0775 -0.0404  0.0769
 1479BOLB   C1B35481  33.536  39.561  19.420  0.2040  0.1033  0.1790
 1479BOLB   C2B35482  33.358  39.262  19.649  0.0932 -0.1033  0.1127
 1479BOLB   C3B35483  32.987  38.955  19.526 -0.1386  0.2702 -0.1524
 1479BOLB   C4B35484  32.831  38.574  19.628  0.2982 -0.2248  0.3416
 1479BOLB   NC235485  32.767  41.740  20.638 -0.1374 -0.0902  0.1056
 1479BOLB   PO235486  32.457  41.532  20.442  0.0883 -0.0213  0.1069
 1479BOLB   GL335487  32.576  41.026  20.507  0.1270 -0.2591 -0.1348
 1479BOLB   GL435488  32.265  40.878  20.508 -0.0358 -0.1370  0.0203
 1479BOLB   C1C35489  32.582  40.682  20.175  0.0867 -0.1019  0.4811
 1479BOLB   C2C35490  32.574  40.192  20.240  0.1331  0.2528 -0.6415
 1479BOLB   C3C35491  32.342  39.918  20.496 -0.0689  0.6766  0.0603
 1479BOLB   C4C35492  32.267  39.629  20.323 -0.0331  0.1264  0.2013
 1479BOLB   C1D35493  32.198  40.463  20.403 -0.2120 -0.0661 -0.2845
 1479BOLB   C2D35494  32.019  40.144  20.226  0.2605  0.0470  0.1504
 1479BOLB   C3D35495  31.616  39.905  20.105 -0.3439 -0.2705 -0.1141
 1479BOLB   C4D35496  31.309  39.621  20.055  0.0389  0.2611 -0.1585
 1480BOLB   NC135497  35.872  30.477  22.837 -0.2380  0.1215 -0.0827
 1480BOLB   PO135498  35.780  30.865  23.024 -0.1829 -0.2926  0.0693
 1480BOLB   GL135499  36.250  30.856  22.987 -0.1971  0.1900  0.0097
 1480BOLB   GL235500  36.396  30.855  22.678  0.0080 -0.0397 -0.0781
 1480BOLB   C1A35501  36.566  30.892  23.217 -0.0971  0.2684 -0.2101
 1480BOLB   C2A35502  36.999  31.013  23.409 -0.2255  0.1037  0.1980
 1480BOLB   C3A35503  37.476  30.908  23.530  0.0255  0.0921  0.2576
 1480BOLB   C4A35504  37.850  30.670  23.516 -0.1274  0.2246  0.1551
 1480BOLB   C1B35505  36.827  30.946  22.823 -0.0261 -0.3197  0.2953
 1480BOLB   C2B35506  37.280  31.066  23.004 -0.2076  0.1880  0.5215
 1480BOLB   C3B35507  37.316  31.385  23.300 -0.0111  0.4141  0.0054
 1480BOLB   C4B35508  37.274  31.310  23.790 -0.2692  0.0657 -0.0866
 1480BOLB   NC235509  39.994  29.597  22.834 -0.3314  0.2403 -0.0759
 1480BOLB   PO235510  39.894  29.796  22.495  0.1314 -0.1706 -0.1877
 1480BOLB   GL335511  39.531  29.790  22.637 -0.0228  0.2469  0.1207
 1480BOLB   GL435512  39.565  30.123  22.665 -0.1037  0.0509 -0.1103
 1480BOLB   C1C35513  39.049  29.974  22.718 -0.1907 -0.2106  0.0615
 1480BOLB   C2C35514  38.859  30.341  22.859 -0.3362  0.1627  0.0109
 1480BOLB   C3C35515  38.590  30.609  23.155 -0.4369 -0.1124  0.0145
 1480BOLB   C4C35516  38.201  30.708  23.340 -0.1681  0.0931  0.0427
 1480BOLB   C1D35517  39.320  30.466  22.557  0.0751 -0.0929  0.0044
 1480BOLB   C2D35518  38.937  30.706  22.440 -0.1884  0.1650  0.1370
 1480BOLB   C3D35519  38.538  30.658  22.610  0.1837  0.1215 -0.1467
 1480BOLB   C4D35520  38.064  30.763  22.614 -0.1324  0.1566  0.1905
 1481BOLB   NC135521  26.238  32.873  14.039 -0.1202 -0.0617 -0.2592
 1481BOLB   PO135522  26.335  33.113  14.326  0.0937 -0.1409  0.1463
 1481BOLB   GL135523  26.257  33.401  14.030 -0.0103 -0.0429 -0.0594
 1481BOLB   GL235524  26.421  33.757  14.100  0.3751  0.2026 -0.0279
 1481BOLB   C1A35525  26.442  33.392  13.666  0.1441 -0.1260  0.2932
 1481BOLB   C2A35526  26.368  33.662  13.254  0.4806  0.2774 -0.1024
 1481BOLB   C3A35527  26.173  33.927  12.943  0.1144 -0.1013  0.0107
 1481BOLB   C4A35528  26.317  33.856  12.488  0.1930  0.0414 -0.0034
 1481BOLB   C1B35529  26.242  33.852  13.706  0.1092 -0.2753 -0.0929
 1481BOLB   C2B35530  26.221  34.183  13.348 -0.2302  0.0682  0.0542
 1481BOLB   C3B35531  26.190  34.606  13.188 -0.2555 -0.1784 -0.0758
 1481BOLB   C4B35532  26.149  35.029  13.160  0.0309  0.1569 -0.1807
 1481BOLB   NC235533  26.759  33.990  10.230 -0.0801  0.0432  0.0374
 1481BOLB   PO235534  27.187  33.947  10.485 -0.1500 -0.3472  0.0764
 1481BOLB   GL335535  27.137  33.612  10.757 -0.3083 -0.1838  0.2482
 1481BOLB   GL435536  27.366  33.810  10.921 -0.1484  0.1005  0.2028
 1481BOLB   C1C35537  26.763  33.417  10.998  0.0436  0.1866 -0.0459
 1481BOLB   C2C35538  26.823  33.493  11.480  0.1228 -0.1435  0.2122
 1481BOLB   C3C35539  26.523  33.573  11.761  0.3441  0.0536 -0.2274
 1481BOLB   C4C35540  26.463  33.560  12.140 -0.3039  0.1458 -0.3229
 1481BOLB   C1D35541  27.421  33.548  11.268  0.0766 -0.1742 -0.0420
 1481BOLB   C2D35542  27.363  33.647  11.676 -0.0844 -0.0563 -0.3011
 1481BOLB   C3D35543  27.534  33.890  11.898  0.2878 -0.0168 -0.0097
 1481BOLB   C4D35544  27.530  33.959  12.235  0.1473  0.0738 -0.1227
 1482BOLB   NC135545  32.968  29.288   0.949 -0.1128 -0.1635  0.0421
 1482BOLB   PO135546  33.242  29.481   0.616 -0.0673  0.1621 -0.2038
 1482BOLB   GL135547  33.641  29.412   0.934  0.1026  0.2735  0.4182
 1482BOLB   GL235548  33.727  29.199   1.052  0.1140 -0.1378 -0.0765
 1482BOLB   C1A35549  34.054  29.537   0.846  0.2271  0.1483  0.4135
 1482BOLB   C2A35550  34.450  29.666   0.938  0.1323 -0.2280  0.2910
 1482BOLB   C3A35551  34.813  29.700   1.158  0.0238  0.2648  0.2088
 1482BOLB   C4A35552  35.081  29.656   1.351  0.0346 -0.0263 -0.1222
 1482BOLB   C1B35553  33.979  29.234   1.287  0.1077  0.0031  0.2093
 1482BOLB   C2B35554  34.350  29.426   1.394  0.0485 -0.3168 -0.2805
 1482BOLB   C3B35555  34.667  29.513   1.670 -0.5357 -0.1866  0.1209
 1482BOLB   C4B35556  34.725  29.261   2.150 -0.1108  0.0044  0.2679
 1482BOLB   NC235557  37.108  28.557   1.908  0.1683 -0.1014 -0.0411
 1482BOLB   PO235558  37.060  28.812   2.280 -0.2259 -0.2755  0.2687
 1482BOLB   GL335559  36.805  29.203   2.075  0.2096  0.0327  0.1103
 1482BOLB   GL435560  36.980  29.410   1.957  0.1742 -0.0815  0.1282
 1482BOLB   C1C35561  36.443  29.439   1.935  0.3376  0.0080  0.3541
 1482BOLB   C2C35562  36.193  29.615   1.657 -0.0680 -0.0447 -0.1416
 1482BOLB   C3C35563  35.902  29.606   1.427 -0.0147  0.2549  0.0524
 1482BOLB   C4C35564  35.480  29.435   1.382  0.0467  0.0961  0.2374
 1482BOLB   C1D35565  36.948  29.413   1.529 -0.1924  0.1248 -0.0814
 1482BOLB   C2D35566  36.586  29.413   1.274  0.4035 -0.3072  0.1575
 1482BOLB   C3D35567  36.248  29.347   0.983  0.1016  0.0521  0.2041
 1482BOLB   C4D35568  36.204  28.989   0.655 -0.2552 -0.0424  0.0777
 1483BOLB   NC135569  20.347  28.160  17.755  0.1902  0.0407  0.0058
 1483BOLB   PO135570  20.545  28.464  17.568 -0.0046  0.1886 -0.1878
 1483BOLB   GL135571  20.111  28.339  17.357  0.1672  0.3237  0.1194
 1483BOLB   GL235572  20.143  28.248  17.021  0.0505  0.0546  0.3302
 1483BOLB   C1A35573  19.716  28.253  17.264  0.0956  0.1079 -0.1323
 1483BOLB   C2A35574  19.428  27.982  17.357  0.1585 -0.2749 -0.1371
 1483BOLB   C3A35575  19.087  27.699  17.463  0.0223 -0.1097  0.1911
 1483BOLB   C4A35576  18.742  27.593  17.401 -0.1948  0.1316  0.0423
 1483BOLB   C1B35577  19.907  28.492  16.714 -0.1440 -0.1843  0.3271
 1483BOLB   C2B35578  20.056  28.666  16.385  0.0544  0.4163 -0.1443
 1483BOLB   C3B35579  20.142  28.516  15.932 -0.1759 -0.0954  0.2042
 1483BOLB   C4B35580  19.766  28.491  15.656  0.0608  0.0491  0.0200
 1483BOLB   NC235581  16.830  27.213  15.790  0.1302  0.0110 -0.0295
 1483BOLB   PO235582  16.929  27.714  15.783 -0.1509  0.2330  0.2391
 1483BOLB   GL335583  17.265  27.729  16.173  0.2395  0.1023  0.0937
 1483BOLB   GL435584  17.092  27.558  16.416  0.0937  0.0408  0.3737
 1483BOLB   C1C35585  17.511  27.928  16.513  0.1089  0.3724  0.3177
 1483BOLB   C2C35586  17.731  27.974  16.870  0.2809  0.1532  0.0849
 1483BOLB   C3C35587  18.077  27.906  17.141 -0.4474  0.3152 -0.1018
 1483BOLB   C4C35588  18.373  27.720  17.385  0.0480  0.1102 -0.1161
 1483BOLB   C1D35589  17.523  27.355  16.488  0.0052 -0.3114  0.2142
 1483BOLB   C2D35590  17.867  27.036  16.468  0.1133  0.1572 -0.2185
 1483BOLB   C3D35591  18.293  27.251  16.386 -0.3847  0.0838 -0.2891
 1483BOLB   C4D35592  18.509  27.521  16.347  0.2804  0.0064  0.3432
 1484BOLB   NC135593  24.434  29.286  13.785 -0.2702 -0.2887  0.0809
 1484BOLB   PO135594  24.718  29.058  13.446 -0.0139 -0.0711  0.2175
 1484BOLB   GL135595  24.510  28.987  13.067 -0.3696  0.0546 -0.1884
 1484BOLB   GL235596  24.458  29.364  12.932  0.0235 -0.1919  0.0030
 1484BOLB   C1A35597  24.534  28.957  12.591  0.0738  0.1962  0.1420
 1484BOLB   C2A35598  24.321  29.182  12.242  0.1097  0.2122 -0.0046
 1484BOLB   C3A35599  24.385  29.466  11.961 -0.0128  0.3406  0.2588
 1484BOLB   C4A35600  24.462  29.466  11.582  0.1964 -0.2149  0.3315
 1484BOLB   C1B35601  23.947  29.368  12.790  0.1652  0.0515 -0.0201
 1484BOLB   C2B35602  23.835  29.433  12.384 -0.1236 -0.2783 -0.0441
 1484BOLB   C3B35603  23.857  29.494  11.938  0.0191  0.1354  0.4318
 1484BOLB   C4B35604  23.977  29.453  11.415 -0.2361  0.1429 -0.0913
 1484BOLB   NC235605  23.327  29.745   9.485  0.0639 -0.0464  0.2808
 1484BOLB   PO235606  22.784  29.654   9.653  0.1811 -0.2072 -0.2730
 1484BOLB   GL335607  23.145  29.764   9.971 -0.2332 -0.4608  0.1407
 1484BOLB   GL435608  22.951  29.616  10.200  0.2258 -0.2414  0.3042
 1484BOLB   C1C35609  23.507  29.807  10.175 -0.3006 -0.1030 -0.3379
 1484BOLB   C2C35610  23.885  29.741  10.437 -0.2411 -0.1133 -0.1731
 1484BOLB   C3C35611  24.230  29.800  10.775  0.5064 -0.0870  0.1250
 1484BOLB   C4C35612  24.483  29.604  11.011 -0.4798 -0.1208 -0.0371
 1484BOLB   C1D35613  22.971  29.251  10.626 -0.0473 -0.0955  0.3642
 1484BOLB   C2D35614  22.882  29.221  10.993 -0.0404  0.1380 -0.4053
 1484BOLB   C3D35615  23.071  29.193  11.411  0.0414  0.2645  0.3233
 1484BOLB   C4D35616  23.011  29.257  11.830 -0.0230  0.0619 -0.3333
 1485BOLB   NC135617  28.008  36.623  16.562  0.0851 -0.0890  0.1822
 1485BOLB   PO135618  28.409  36.645  16.640 -0.1098 -0.2145 -0.1162
 1485BOLB   GL135619  28.567  36.777  16.204  0.3501 -0.0597  0.4452
 1485BOLB   GL235620  28.365  36.765  15.966 -0.1963 -0.0080  0.1008
 1485BOLB   C1A35621  28.895  36.753  15.882 -0.0480 -0.0275 -0.0506
 1485BOLB   C2A35622  29.082  37.066  15.613  0.1034  0.1985  0.0701
 1485BOLB   C3A35623  29.243  37.452  15.379  0.0404  0.0700  0.2733
 1485BOLB   C4A35624  29.196  37.722  15.055 -0.0504 -0.0270 -0.1235
 1485BOLB   C1B35625  28.509  37.200  15.782 -0.1395 -0.0765 -0.3387
 1485BOLB   C2B35626  28.795  37.457  15.575  0.3017 -0.1263 -0.4032
 1485BOLB   C3B35627  28.929  37.890  15.443 -0.0397 -0.1391 -0.1129
 1485BOLB   C4B35628  29.173  38.314  15.411  0.0431 -0.0398 -0.2748
 1485BOLB   NC235629  29.165  40.012  15.325 -0.0876  0.3321  0.1005
 1485BOLB   PO235630  29.602  40.077  15.115  0.4320  0.0358  0.0677
 1485BOLB   GL335631  29.460  39.608  15.280  0.5066 -0.1528  0.1989
 1485BOLB   GL435632  29.635  39.492  15.594 -0.2969  0.1208  0.0276
 1485BOLB   C1C35633  29.521  39.160  15.249 -0.0282 -0.1422  0.0273
 1485BOLB   C2C35634  29.736  38.866  15.055 -0.1079  0.1309  0.2631
 1485BOLB   C3C35635  29.516  38.500  15.095  0.1702 -0.0908 -0.2233
 1485BOLB   C4C35636  29.272  38.169  14.878  0.1807  0.4037  0.2252
 1485BOLB   C1D35637  29.278  39.174  15.746 -0.0176  0.0489  0.1413
 1485BOLB   C2D35638  28.864  39.193  15.931  0.2672 -0.0524  0.3599
 1485BOLB   C3D35639  28.710  38.828  16.194 -0.1756  0.0749 -0.2403
 1485BOLB   C4D35640  28.965  38.698  16.619  0.2080 -0.0049 -0.2545
 1486BOLB   NC135641  34.259  32.162  17.006 -0.0676 -0.0405 -0.1746
 1486BOLB   PO135642  34.460  32.486  16.847  0.0729 -0.1024 -0.1338
 1486BOLB   GL135643  34.790  32.653  16.699 -0.0603 -0.2354 -0.0178
 1486BOLB   GL235644  35.074  32.744  16.918  0.0756  0.1103 -0.1609
 1486BOLB   C1A35645  34.997  32.710  16.305  0.0823  0.2845  0.1410
 1486BOLB   C2A35646  35.001  32.798  15.821 -0.2444  0.0739 -0.0203
 1486BOLB   C3A35647  34.631  32.927  15.415  0.2020  0.4495  0.1167
 1486BOLB   C4A35648  34.631  32.760  14.938  0.0099 -0.1597 -0.2285
 1486BOLB   C1B35649  35.433  32.947  16.744 -0.0301  0.2282  0.2130
 1486BOLB   C2B35650  35.729  33.058  16.611 -0.2726  0.1641 -0.1827
 1486BOLB   C3B35651  35.997  33.304  16.428 -0.1356  0.0990  0.2910
 1486BOLB   C4B35652  36.087  33.756  16.501  0.0506  0.1365 -0.0250
 1486BOLB   NC235653  36.203  32.895  13.433  0.2096 -0.0947 -0.2906
 1486BOLB   PO235654  35.902  32.815  13.029 -0.1841 -0.2632  0.0820
 1486BOLB   GL335655  35.546  32.874  13.340 -0.1967 -0.0524  0.1115
 1486BOLB   GL435656  35.456  32.591  13.170  0.0601  0.2338 -0.0606
 1486BOLB   C1C35657  35.511  32.572  13.708  0.0386  0.1059  0.0510
 1486BOLB   C2C35658  35.142  32.475  14.112  0.0881 -0.1139  0.1923
 1486BOLB   C3C35659  34.893  32.401  14.458  0.2991 -0.4126 -0.4879
 1486BOLB   C4C35660  34.881  32.471  14.814 -0.1277  0.0864 -0.2367
 1486BOLB   C1D35661  35.079  32.513  13.436 -0.1037 -0.1970 -0.0363
 1486BOLB   C2D35662  34.848  32.162  13.543 -0.0776  0.0458 -0.0776
 1486BOLB   C3D35663  34.304  32.238  13.568  0.3730 -0.2099 -0.1221
 1486BOLB   C4D35664  33.821  32.352  13.510 -0.0714  0.0814 -0.2312
 1487BOLB   NC135665  34.428  29.188  16.404  0.0532 -0.3296 -0.1950
 1487BOLB   PO135666  34.385  28.790  16.634 -0.1864  0.1285  0.0144
 1487BOLB   GL135667  34.716  28.600  16.410 -0.3417  0.0044  0.2000
 1487BOLB   GL235668  35.040  28.506  16.617 -0.1235  0.1113  0.2159
 1487BOLB   C1A35669  34.939  28.415  16.022 -0.0194 -0.0975  0.3724
 1487BOLB   C2A35670  35.217  28.169  15.939 -0.3620  0.2114 -0.1616
 1487BOLB   C3A35671  35.549  28.011  15.933  0.1319 -0.1013  0.0346
 1487BOLB   C4A35672  35.956  28.265  16.015 -0.2860  0.2802  0.1400
 1487BOLB   C1B35673  35.329  28.563  16.305 -0.1941 -0.2269 -0.1032
 1487BOLB   C2B35674  35.637  28.634  15.941  0.2117  0.1666  0.1419
 1487BOLB   C3B35675  35.629  28.425  15.595 -0.2109 -0.1593 -0.2359
 1487BOLB   C4B35676  35.863  28.404  15.221  0.2813 -0.0013  0.2863
 1487BOLB   NC235677  38.517  28.581  16.205  0.0073 -0.1813  0.3417
 1487BOLB   PO235678  38.188  28.468  16.191 -0.0464 -0.0379  0.0391
 1487BOLB   GL335679  37.972  28.715  16.073  0.0098  0.1725  0.2156
 1487BOLB   GL435680  38.125  28.960  16.317  0.0745 -0.2792 -0.0212
 1487BOLB   C1C35681  37.541  28.839  16.302 -0.0682 -0.1599 -0.4670
 1487BOLB   C2C35682  37.155  28.603  16.508 -0.0964 -0.0357  0.1290
 1487BOLB   C3C35683  36.753  28.490  16.286  0.0408  0.1451 -0.0984
 1487BOLB   C4C35684  36.226  28.556  16.205 -0.0357  0.2487  0.2012
 1487BOLB   C1D35685  37.809  28.872  16.722 -0.0387 -0.0881  0.0296
 1487BOLB   C2D35686  37.582  29.067  16.990  0.0416  0.0655  0.0134
 1487BOLB   C3D35687  37.251  29.447  17.161 -0.1466  0.0891 -0.3193
 1487BOLB   C4D35688  36.896  29.701  17.084 -0.0900  0.1031  0.1012
 1488BOLB   NC135689  31.948  27.123   1.477  0.1258 -0.0712 -0.2932
 1488BOLB   PO135690  32.106  27.469   1.311  0.0895 -0.2124 -0.2989
 1488BOLB   GL135691  32.407  27.135   1.580 -0.3093 -0.1242 -0.0380
 1488BOLB   GL235692  32.678  27.178   1.372  0.1002  0.0562 -0.0720
 1488BOLB   C1A35693  32.497  26.917   1.967 -0.0348 -0.0709 -0.3473
 1488BOLB   C2A35694  32.732  27.271   2.173 -0.1036  0.1352 -0.0301
 1488BOLB   C3A35695  32.805  27.271   2.552  0.0216 -0.0581 -0.3130
 1488BOLB   C4A35696  32.839  27.309   2.970  0.0380 -0.2672  0.0518
 1488BOLB   C1B35697  32.871  26.947   1.656 -0.0703  0.1622 -0.0591
 1488BOLB   C2B35698  32.993  26.790   2.057  0.2176 -0.1396 -0.4744
 1488BOLB   C3B35699  33.245  26.711   2.301 -0.2492  0.3137 -0.2060
 1488BOLB   C4B35700  33.539  26.451   2.509  0.0810 -0.0615  0.2171
 1488BOLB   NC235701  34.749  26.963   4.126  0.0929  0.1840 -0.2335
 1488BOLB   PO235702  34.669  27.240   4.340 -0.4343 -0.1446 -0.0367
 1488BOLB   GL335703  34.262  27.389   4.178 -0.3056 -0.0275 -0.1199
 1488BOLB   GL435704  34.006  27.651   4.387  0.2369 -0.4558  0.0421
 1488BOLB   C1C35705  33.949  27.342   3.957 -0.0681  0.3153 -0.2979
 1488BOLB   C2C35706  33.591  27.297   3.695 -0.0470  0.0946 -0.2534
 1488BOLB   C3C35707  33.303  26.957   3.460  0.1421 -0.1983 -0.0180
 1488BOLB   C4C35708  32.894  27.050   3.277 -0.3931 -0.1149 -0.2397
 1488BOLB   C1D35709  33.862  27.892   4.000 -0.2127  0.1069 -0.1708
 1488BOLB   C2D35710  33.598  27.776   3.800 -0.2751 -0.2865 -0.2115
 1488BOLB   C3D35711  33.646  27.698   3.350  0.0155  0.0571 -0.1140
 1488BOLB   C4D35712  33.442  27.780   2.971 -0.1265 -0.1732 -0.1317
 1489BOLB   NC135713  35.953  31.399  23.719 -0.1431 -0.3121 -0.0672
 1489BOLB   PO135714  35.945  30.966  23.923 -0.1601  0.0075 -0.0252
 1489BOLB   GL135715  36.358  31.141  23.805 -0.0490  0.1782 -0.1547
 1489BOLB   GL235716  36.478  31.230  23.544  0.0037  0.1135  0.3884
 1489BOLB   C1A35717  36.769  30.948  23.797  0.1921 -0.0553  0.0281
 1489BOLB   C2A35718  37.137  30.726  23.878 -0.5496 -0.2689  0.2796
 1489BOLB   C3A35719  37.438  30.787  24.099 -0.0109  0.1714  0.2155
 1489BOLB   C4A35720  37.856  30.767  24.408  0.3912  0.1744 -0.0241
 1489BOLB   C1B35721  36.835  31.465  23.567  0.0507 -0.1480  0.1526
 1489BOLB   C2B35722  37.201  31.812  23.612 -0.0710 -0.1845 -0.0252
 1489BOLB   C3B35723  37.432  32.211  23.541 -0.1261 -0.0220 -0.3969
 1489BOLB   C4B35724  37.210  32.440  23.304  0.0152  0.0214  0.5712
 1489BOLB   NC235725  39.560  32.149  25.392  0.0925  0.0829 -0.1700
 1489BOLB   PO235726  39.619  32.147  25.024  0.1709 -0.0600  0.3470
 1489BOLB   GL335727  39.248  31.979  24.945 -0.0383  0.1964 -0.0694
 1489BOLB   GL435728  39.110  31.912  24.615  0.1404 -0.2303 -0.1422
 1489BOLB   C1C35729  38.800  31.968  25.132 -0.1656 -0.0906 -0.0338
 1489BOLB   C2C35730  38.546  31.599  25.001 -0.1603 -0.0618 -0.0009
 1489BOLB   C3C35731  38.373  31.167  24.934 -0.0303  0.2096 -0.0096
 1489BOLB   C4C35732  38.217  30.775  24.711  0.2007 -0.1070 -0.1488
 1489BOLB   C1D35733  38.807  31.612  24.506  0.1724  0.2099 -0.0577
 1489BOLB   C2D35734  38.342  31.528  24.519 -0.1011 -0.0355  0.0770
 1489BOLB   C3D35735  37.866  31.621  24.475  0.1139  0.1559 -0.1520
 1489BOLB   C4D35736  37.502  31.499  24.646 -0.2365  0.0254 -0.1029
 1490BOLB   NC135737  20.719  33.119  24.622 -0.1880  0.0897 -0.0207
 1490BOLB   PO135738  20.696  33.502  24.417  0.0846  0.0843 -0.1469
 1490BOLB   GL135739  20.633  33.911  24.384  0.1820  0.4833 -0.1096
 1490BOLB   GL235740  20.798  34.154  24.604  0.2818 -0.0717  0.0926
 1490BOLB   C1A35741  20.304  34.195  24.445  0.3000  0.2755 -0.0964
 1490BOLB   C2A35742  19.997  34.449  24.429 -0.2581  0.1944 -0.1027
 1490BOLB   C3A35743  19.634  34.732  24.594  0.1209  0.2877 -0.1630
 1490BOLB   C4A35744  19.548  35.274  24.717  0.1857 -0.0282  0.0012
 1490BOLB   C1B35745  20.602  34.509  24.763 -0.0456  0.0214  0.1266
 1490BOLB   C2B35746  20.279  34.841  24.669 -0.0620 -0.0975  0.2665
 1490BOLB   C3B35747  19.987  35.172  24.911  0.3166 -0.1795  0.1848
 1490BOLB   C4B35748  19.894  35.587  25.077  0.0148  0.1798 -0.0082
 1490BOLB   NC235749  17.470  36.294  23.688 -0.1942  0.0304  0.2061
 1490BOLB   PO235750  17.553  36.763  23.708  0.0079  0.5125  0.2274
 1490BOLB   GL335751  17.944  36.665  23.918 -0.1225  0.0845 -0.2811
 1490BOLB   GL435752  18.128  36.414  23.687  0.0439 -0.3208  0.1761
 1490BOLB   C1C35753  18.194  36.404  24.132 -0.0471  0.2958 -0.0909
 1490BOLB   C2C35754  18.690  36.226  24.188  0.2508 -0.3107  0.0377
 1490BOLB   C3C35755  19.021  35.890  24.304  0.2103  0.2277  0.1932
 1490BOLB   C4C35756  19.365  35.581  24.451  0.0499  0.0074  0.0063
 1490BOLB   C1D35757  18.545  36.228  23.697  0.1250  0.0247 -0.0301
 1490BOLB   C2D35758  18.927  36.046  23.819 -0.0467  0.0229  0.1219
 1490BOLB   C3D35759  19.100  35.588  23.765 -0.1295 -0.3218  0.2307
 1490BOLB   C4D35760  18.917  35.234  23.880 -0.3094 -0.0108 -0.0593
 1491BOLB   NC135761  29.819  30.962  13.888  0.0703 -0.1521  0.0349
 1491BOLB   PO135762  30.196  31.207  13.987  0.0220 -0.2332  0.1945
 1491BOLB   GL135763  30.259  31.275  13.593  0.0503  0.1397  0.2609
 1491BOLB   GL235764  30.533  31.452  13.554  0.2939  0.2915 -0.1767
 1491BOLB   C1A35765  30.150  31.285  13.144  0.2256  0.0242 -0.1306
 1491BOLB   C2A35766  30.056  31.263  12.728  0.0012 -0.0484 -0.1584
 1491BOLB   C3A35767  29.930  31.181  12.292 -0.2329  0.1508 -0.0792
 1491BOLB   C4A35768  29.827  30.934  12.014 -0.0087  0.1617 -0.3892
 1491BOLB   C1B35769  30.554  31.675  13.157  0.1446  0.1482  0.0491
 1491BOLB   C2B35770  30.435  31.575  12.629 -0.1309  0.1391 -0.1011
 1491BOLB   C3B35771  30.426  31.527  12.097 -0.0584 -0.2435 -0.0232
 1491BOLB   C4B35772  30.395  31.497  11.642 -0.1041  0.0674 -0.1415
 1491BOLB   NC235773  30.188  30.931   9.754 -0.1195 -0.2240 -0.1722
 1491BOLB   PO235774  30.026  31.342   9.856 -0.1282  0.1200  0.1001
 1491BOLB   GL335775  29.952  31.311  10.281  0.0335 -0.1053 -0.2864
 1491BOLB   GL435776  30.075  31.040  10.322  0.2036  0.0708 -0.2347
 1491BOLB   C1C35777  29.824  31.373  10.743  0.0496  0.4594  0.2195
 1491BOLB   C2C35778  29.736  31.187  10.966 -0.1977  0.0238 -0.1632
 1491BOLB   C3C35779  29.684  31.042  11.310  0.0737 -0.1738 -0.0886
 1491BOLB   C4C35780  29.524  30.906  11.692  0.1293 -0.3845 -0.0113
 1491BOLB   C1D35781  29.842  30.809  10.630 -0.0916  0.0084  0.1233
 1491BOLB   C2D35782  29.536  30.739  10.918 -0.2054 -0.1211  0.0238
 1491BOLB   C3D35783  29.334  30.678  11.285  0.0043  0.0382  0.0982
 1491BOLB   C4D35784  29.032  30.805  11.495 -0.2767 -0.1867  0.3241
 1492BOLB   NC135785  23.592  31.190   2.230 -0.1030 -0.0914  0.0274
 1492BOLB   PO135786  23.149  31.267   2.103  0.4062 -0.6810  0.0738
 1492BOLB   GL135787  22.910  30.968   2.356  0.0083  0.0527  0.1873
 1492BOLB   GL235788  22.624  30.878   2.340 -0.1700  0.0048 -0.1193
 1492BOLB   C1A35789  22.830  31.023   2.811  0.1363  0.1753 -0.0407
 1492BOLB   C2A35790  22.630  31.125   3.123  0.0057  0.3958 -0.0598
 1492BOLB   C3A35791  22.526  31.302   3.463 -0.0492  0.2455 -0.2896
 1492BOLB   C4A35792  22.389  31.273   3.854 -0.2172 -0.2760 -0.0678
 1492BOLB   C1B35793  22.955  30.477   2.547 -0.0562 -0.2969  0.0800
 1492BOLB   C2B35794  23.285  30.403   2.877  0.0589 -0.0987  0.1225
 1492BOLB   C3B35795  23.279  30.580   3.310 -0.0872  0.0218 -0.4259
 1492BOLB   C4B35796  23.435  30.655   3.720  0.2152 -0.3163 -0.1677
 1492BOLB   NC235797  21.821  32.910   5.535 -0.2158 -0.0318  0.1195
 1492BOLB   PO235798  21.569  32.546   5.368 -0.0289  0.1612  0.1040
 1492BOLB   GL335799  21.717  32.472   4.973  0.1036  0.2024  0.1244
 1492BOLB   GL435800  21.472  32.384   4.847 -0.2175 -0.2778 -0.1646
 1492BOLB   C1C35801  21.869  32.556   4.576 -0.0543  0.0775 -0.2023
 1492BOLB   C2C35802  22.194  32.413   4.308  0.1807 -0.1750 -0.3039
 1492BOLB   C3C35803  22.348  32.010   4.235 -0.0472 -0.0099 -0.1020
 1492BOLB   C4C35804  22.333  31.558   4.134 -0.3046 -0.0161  0.2262
 1492BOLB   C1D35805  21.402  31.963   4.725  0.2940 -0.0725  0.1931
 1492BOLB   C2D35806  21.523  31.682   4.497 -0.0992  0.1662  0.0327
 1492BOLB   C3D35807  21.312  31.476   4.224 -0.0427 -0.1157  0.3031
 1492BOLB   C4D35808  21.177  31.447   3.888 -0.1315 -0.1186 -0.0370
 1493BOLB   NC135809  31.898  29.698  15.576  0.2998 -0.1292  0.2490
 1493BOLB   PO135810  31.814  29.433  15.240  0.1840  0.1275  0.1768
 1493BOLB   GL135811  32.263  29.342  14.915  0.4634 -0.0522  0.2270
 1493BOLB   GL235812  32.578  29.349  14.858  0.2021  0.2961 -0.0435
 1493BOLB   C1A35813  32.368  29.230  14.415 -0.0618  0.0909 -0.2387
 1493BOLB   C2A35814  32.306  29.089  13.930 -0.1057  0.1167 -0.1600
 1493BOLB   C3A35815  32.621  28.899  13.688  0.0252 -0.3788  0.0109
 1493BOLB   C4A35816  32.995  28.691  13.504  0.2709 -0.4095 -0.0277
 1493BOLB   C1B35817  32.807  29.482  14.516 -0.1961  0.2844  0.4322
 1493BOLB   C2B35818  32.653  29.593  14.191 -0.1408 -0.1219  0.1118
 1493BOLB   C3B35819  32.666  29.550  13.689  0.1362  0.2067  0.0165
 1493BOLB   C4B35820  32.916  29.772  13.505  0.3797  0.1237  0.1524
 1493BOLB   NC235821  33.753  27.795  11.536 -0.0857 -0.0554 -0.0366
 1493BOLB   PO235822  34.027  28.096  11.482 -0.1621 -0.1577 -0.0454
 1493BOLB   GL335823  33.872  28.133  11.885 -0.0321  0.2688 -0.0483
 1493BOLB   GL435824  33.940  28.464  11.866  0.0825  0.1740  0.1371
 1493BOLB   C1C35825  33.656  28.131  12.289 -0.1778  0.0192  0.1546
 1493BOLB   C2C35826  33.410  28.124  12.566 -0.0329  0.1468  0.0318
 1493BOLB   C3C35827  33.222  28.049  12.991  0.1741 -0.3495  0.1066
 1493BOLB   C4C35828  33.116  28.329  13.356 -0.0318 -0.3744 -0.0187
 1493BOLB   C1D35829  33.500  28.523  11.989  0.1588 -0.0084 -0.2304
 1493BOLB   C2D35830  33.332  28.916  12.059 -0.0853  0.1400 -0.1084
 1493BOLB   C3D35831  32.990  29.150  11.825  0.3071  0.2283 -0.2609
 1493BOLB   C4D35832  32.547  29.121  11.697  0.0319  0.1238 -0.2590
 1494BOLB   NC135833  25.987  34.476   1.994 -0.1242  0.0104  0.1164
 1494BOLB   PO135834  26.335  34.126   2.062  0.1114 -0.1937  0.0560
 1494BOLB   GL135835  26.133  34.067   2.419 -0.0196  0.2380  0.2569
 1494BOLB   GL235836  25.914  34.356   2.425 -0.0592  0.0958  0.2761
 1494BOLB   C1A35837  25.958  34.094   2.874  0.1759 -0.4797  0.0354
 1494BOLB   C2A35838  25.939  34.297   3.302  0.1923 -0.1375  0.3192
 1494BOLB   C3A35839  25.886  34.486   3.632  0.1265 -0.0294  0.1195
 1494BOLB   C4A35840  25.845  34.735   3.979 -0.1319  0.0270 -0.1024
 1494BOLB   C1B35841  25.640  34.468   2.784  0.0213  0.0856 -0.2325
 1494BOLB   C2B35842  25.659  34.717   3.253 -0.0951  0.0633  0.0451
 1494BOLB   C3B35843  25.854  35.079   3.622 -0.5947  0.0256 -0.0713
 1494BOLB   C4B35844  25.970  35.328   3.927  0.1712  0.1770  0.0995
 1494BOLB   NC235845  25.095  36.716   5.505  0.2101 -0.1451 -0.2324
 1494BOLB   PO235846  25.399  36.598   5.272 -0.0490 -0.1521  0.2471
 1494BOLB   GL335847  25.407  36.603   4.808  0.1451  0.1865  0.0151
 1494BOLB   GL435848  25.666  36.775   4.545  0.2588  0.0994  0.1517
 1494BOLB   C1C35849  25.434  36.317   4.501 -0.1507 -0.2529 -0.1901
 1494BOLB   C2C35850  25.425  35.883   4.359 -0.0200  0.1660  0.3218
 1494BOLB   C3C35851  25.568  35.554   4.089  0.3087 -0.1189  0.0501
 1494BOLB   C4C35852  25.540  35.069   4.042 -0.3002  0.0941 -0.1976
 1494BOLB   C1D35853  25.817  36.422   4.206  0.1297  0.1570 -0.1530
 1494BOLB   C2D35854  25.512  36.283   3.985  0.0383 -0.0197 -0.3167
 1494BOLB   C3D35855  25.268  36.181   3.710 -0.1085 -0.0586 -0.3843
 1494BOLB   C4D35856  25.387  36.381   3.400  0.0133 -0.0014  0.1068
 1495BOLB   NC135857  30.927  26.178   0.898  0.0223 -0.2723  0.1904
 1495BOLB   PO135858  30.884  26.320   1.327  0.0971  0.0615  0.2174
 1495BOLB   GL135859  31.064  26.058   1.636 -0.1615 -0.1853 -0.1362
 1495BOLB   GL235860  31.071  26.279   1.926  0.1266 -0.0838  0.2527
 1495BOLB   C1A35861  31.343  25.838   1.921 -0.0650 -0.0305 -0.3678
 1495BOLB   C2A35862  31.508  25.830   2.302  0.1601  0.1325 -0.1234
 1495BOLB   C3A35863  31.623  25.471   2.532 -0.0941  0.2949  0.1221
 1495BOLB   C4A35864  31.683  25.206   2.885 -0.0104 -0.0024  0.1272
 1495BOLB   C1B35865  31.316  26.244   2.367 -0.2211  0.0327  0.1008
 1495BOLB   C2B35866  31.344  26.041   2.795 -0.0262  0.0941  0.1172
 1495BOLB   C3B35867  31.263  25.876   3.286  0.0396  0.0808 -0.0956
 1495BOLB   C4B35868  31.324  25.618   3.580 -0.0772  0.2639  0.5093
 1495BOLB   NC235869  32.191  24.010   4.769  0.1450 -0.2682 -0.0580
 1495BOLB   PO235870  31.738  23.902   4.786 -0.0737  0.1194  0.0155
 1495BOLB   GL335871  31.746  24.235   4.501  0.1381 -0.1273  0.0266
 1495BOLB   GL435872  31.392  24.147   4.396 -0.0529 -0.0712 -0.1447
 1495BOLB   C1C35873  31.612  24.608   4.259 -0.0948  0.2614 -0.0297
 1495BOLB   C2C35874  31.671  24.700   3.783 -0.0901  0.2030  0.1408
 1495BOLB   C3C35875  31.862  24.678   3.427  0.0671  0.0951 -0.1222
 1495BOLB   C4C35876  31.902  24.906   3.048 -0.1248 -0.0357  0.2149
 1495BOLB   C1D35877  30.996  24.242   4.139 -0.2101 -0.4434  0.4706
 1495BOLB   C2D35878  30.572  24.177   3.919 -0.1156 -0.0626 -0.1554
 1495BOLB   C3D35879  30.176  24.452   3.662  0.0691 -0.1500 -0.0009
 1495BOLB   C4D35880  30.111  24.914   3.631 -0.2998  0.1049 -0.0033
 1496BOLB   NC135881  23.120  27.031  15.839  0.1728  0.2226 -0.0652
 1496BOLB   PO135882  23.224  26.850  15.530 -0.0990  0.0497 -0.0805
 1496BOLB   GL135883  23.065  26.608  15.241  0.2038  0.2583 -0.0957
 1496BOLB   GL235884  23.196  26.614  14.987  0.2480 -0.2948 -0.2677
 1496BOLB   C1A35885  22.612  26.363  15.074  0.0614 -0.3043  0.0356
 1496BOLB   C2A35886  22.437  26.121  14.780  0.2151 -0.0211 -0.2377
 1496BOLB   C3A35887  22.138  26.266  14.557  0.2322  0.3050 -0.2467
 1496BOLB   C4A35888  21.769  26.332  14.245 -0.3935 -0.1968  0.0792
 1496BOLB   C1B35889  22.924  26.532  14.695 -0.2219  0.2312 -0.2070
 1496BOLB   C2B35890  22.627  26.472  14.319  0.0229  0.0396  0.1342
 1496BOLB   C3B35891  22.391  26.110  14.097  0.1034 -0.2148 -0.0204
 1496BOLB   C4B35892  22.091  25.993  13.993  0.0192 -0.1107 -0.2259
 1496BOLB   NC235893  20.691  25.302  12.794  0.0434 -0.0799  0.2589
 1496BOLB   PO235894  20.909  25.479  12.414  0.3509  0.0773 -0.0458
 1496BOLB   GL335895  21.140  25.613  12.730 -0.2258  0.0120  0.0967
 1496BOLB   GL435896  21.154  25.489  12.936  0.1921 -0.0169  0.1438
 1496BOLB   C1C35897  21.217  26.092  12.780 -0.1213 -0.0866  0.2371
 1496BOLB   C2C35898  21.358  26.164  13.236  0.0790  0.0401 -0.0157
 1496BOLB   C3C35899  21.459  26.461  13.565 -0.1409 -0.0544  0.1864
 1496BOLB   C4C35900  21.691  26.293  13.849 -0.1839 -0.2006 -0.0559
 1496BOLB   C1D35901  21.500  25.768  13.035  0.1016 -0.2388 -0.2498
 1496BOLB   C2D35902  21.792  25.931  13.108  0.0799 -0.0022 -0.0569
 1496BOLB   C3D35903  21.894  25.963  13.456 -0.2276  0.1557 -0.3455
 1496BOLB   C4D35904  21.484  25.901  13.638 -0.0750 -0.3316 -0.0960
 1497BOLB   NC135905  34.839  28.880  25.524 -0.0591  0.1980  0.2314
 1497BOLB   PO135906  35.060  28.780  25.305 -0.1584  0.2234  0.2387
 1497BOLB   GL135907  35.417  28.825  25.480  0.1520  0.0387  0.0914
 1497BOLB   GL235908  35.545  29.093  25.297 -0.0430 -0.0506  0.1123
 1497BOLB   C1A35909  35.642  28.716  25.778 -0.4169  0.5487  0.2030
 1497BOLB   C2A35910  35.966  28.550  26.074 -0.0855 -0.0227 -0.0752
 1497BOLB   C3A35911  36.343  28.521  26.309 -0.2231  0.0826  0.1016
 1497BOLB   C4A35912  36.652  28.576  26.386 -0.1831 -0.1763  0.2578
 1497BOLB   C1B35913  35.948  29.152  25.587 -0.2676 -0.1089  0.0739
 1497BOLB   C2B35914  36.223  28.926  25.875 -0.1869 -0.1954  0.2541
 1497BOLB   C3B35915  36.625  28.879  25.970  0.2919 -0.2618 -0.0013
 1497BOLB   C4B35916  37.012  28.944  26.222 -0.2201 -0.1936  0.3100
 1497BOLB   NC235917  37.495  26.403   0.770 -0.1464 -0.0167 -0.2836
 1497BOLB   PO235918  37.668  26.712   0.764  0.1320  0.0261  0.3335
 1497BOLB   GL335919  37.357  26.966   0.617  0.2513  0.1384 -0.3359
 1497BOLB   GL435920  37.141  26.674   0.487  0.0517  0.0317 -0.4744
 1497BOLB   C1C35921  37.285  27.249   0.282 -0.1198  0.0734 -0.1369
 1497BOLB   C2C35922  37.103  27.738   0.255  0.1755  0.1959 -0.1506
 1497BOLB   C3C35923  36.989  28.005  26.763 -0.0382  0.0910 -0.2263
 1497BOLB   C4C35924  36.901  28.473  26.740  0.5284  0.4519  0.2290
 1497BOLB   C1D35925  36.945  26.900   0.188  0.0016 -0.0581 -0.1306
 1497BOLB   C2D35926  36.838  27.340   0.030 -0.0961  0.2241  0.2223
 1497BOLB   C3D35927  36.551  27.613  26.753 -0.1214  0.0480 -0.1018
 1497BOLB   C4D35928  36.122  27.844  26.816 -0.1182  0.1203 -0.1185
 1498BOLB   NC135929  35.914  29.703  22.908  0.0956 -0.2807 -0.0215
 1498BOLB   PO135930  36.087  30.073  23.025  0.1678  0.0007 -0.0519
 1498BOLB   GL135931  36.467  29.934  22.931  0.2112 -0.1781 -0.1170
 1498BOLB   GL235932  36.475  29.657  22.842 -0.2231  0.0421 -0.3178
 1498BOLB   C1A35933  36.938  29.748  23.007 -0.1079 -0.1133  0.3686
 1498BOLB   C2A35934  37.256  29.651  22.870  0.1200 -0.1982  0.1492
 1498BOLB   C3A35935  37.632  29.601  22.791 -0.0843 -0.0528  0.1322
 1498BOLB   C4A35936  37.994  29.435  22.586  0.2050 -0.2158 -0.1238
 1498BOLB   C1B35937  36.723  29.493  22.623 -0.1049 -0.0760  0.0607
 1498BOLB   C2B35938  37.159  29.370  22.519  0.0544  0.0590 -0.0460
 1498BOLB   C3B35939  37.472  29.074  22.437  0.0502  0.3757  0.2185
 1498BOLB   C4B35940  37.911  28.957  22.170 -0.0442 -0.2903  0.0769
 1498BOLB   NC235941  39.982  27.950  22.732 -0.0493 -0.2514 -0.1588
 1498BOLB   PO235942  39.663  27.714  22.921  0.2684  0.3076  0.2104
 1498BOLB   GL335943  39.200  27.865  22.702 -0.1020 -0.0899 -0.0151
 1498BOLB   GL435944  39.253  28.070  22.522 -0.2216  0.2559 -0.0870
 1498BOLB   C1C35945  38.794  28.127  22.697  0.0462  0.2218  0.0665
 1498BOLB   C2C35946  38.515  28.303  22.381  0.1759 -0.0489  0.1902
 1498BOLB   C3C35947  38.367  28.781  22.450 -0.1328  0.0228 -0.0968
 1498BOLB   C4C35948  38.328  29.164  22.429 -0.3792  0.1010 -0.0460
 1498BOLB   C1D35949  39.028  28.297  22.358  0.2161 -0.1197  0.0701
 1498BOLB   C2D35950  38.858  28.778  22.318 -0.0225  0.1721 -0.0046
 1498BOLB   C3D35951  38.786  29.299  22.314  0.0641 -0.0509 -0.2486
 1498BOLB   C4D35952  38.809  29.733  22.256  0.0422 -0.2441  0.1780
 1499BOLB   NC135953  22.198  35.853  23.046 -0.1937  0.0886 -0.1840
 1499BOLB   PO135954  22.617  36.066  23.166 -0.0828 -0.1431 -0.4375
 1499BOLB   GL135955  22.250  36.252  23.369  0.0175 -0.2270  0.1001
 1499BOLB   GL235956  22.315  36.482  23.382 -0.0536  0.0499  0.2506
 1499BOLB   C1A35957  21.860  36.350  23.204  0.1145  0.1561  0.0652
 1499BOLB   C2A35958  21.721  36.554  22.909  0.1322 -0.0735 -0.0245
 1499BOLB   C3A35959  21.508  36.919  23.097 -0.2372 -0.3093 -0.0224
 1499BOLB   C4A35960  21.478  37.313  22.869  0.1416  0.3179  0.1042
 1499BOLB   C1B35961  22.360  36.888  23.326 -0.0838  0.0195  0.0807
 1499BOLB   C2B35962  22.280  37.284  23.330  0.1247 -0.0364  0.0088
 1499BOLB   C3B35963  22.204  37.730  23.496 -0.1413  0.0869  0.0689
 1499BOLB   C4B35964  21.942  38.133  23.589 -0.3365  0.2333  0.1590
 1499BOLB   NC235965  19.629  39.513  23.292 -0.0710 -0.0711  0.1403
 1499BOLB   PO235966  19.796  39.246  23.048  0.1549  0.1937 -0.1856
 1499BOLB   GL335967  20.115  38.925  23.118 -0.1406 -0.0425  0.3042
 1499BOLB   GL435968  20.044  38.533  23.026  0.0032  0.1818  0.2939
 1499BOLB   C1C35969  20.514  38.617  22.915  0.0169  0.1882 -0.0305
 1499BOLB   C2C35970  20.522  38.245  22.767  0.3398  0.0288 -0.2199
 1499BOLB   C3C35971  20.706  37.756  22.774 -0.0305  0.1661  0.2598
 1499BOLB   C4C35972  21.141  37.474  22.655  0.0907  0.2615  0.0452
 1499BOLB   C1D35973  20.309  38.261  23.228 -0.3545  0.0171  0.0347
 1499BOLB   C2D35974  20.705  38.024  23.270 -0.2025  0.1279 -0.2325
 1499BOLB   C3D35975  20.947  37.653  23.310 -0.0264  0.0902 -0.2938
 1499BOLB   C4D35976  21.256  37.629  23.118 -0.1265  0.2677 -0.1179
 1500BOLB   NC135977  20.378  31.188  25.541  0.1713  0.2851 -0.1621
 1500BOLB   PO135978  20.316  31.392  25.229  0.0533  0.2362  0.1154
 1500BOLB   GL135979  19.884  31.466  25.437  0.0182 -0.2087 -0.1131
 1500BOLB   GL235980  19.903  31.484  25.823 -0.1373  0.0072  0.0065
 1500BOLB   C1A35981  19.528  31.709  25.438  0.0882 -0.4245  0.0329
 1500BOLB   C2A35982  19.173  31.922  25.214  0.2466 -0.0199  0.0042
 1500BOLB   C3A35983  18.761  32.133  25.097  0.1908 -0.1816 -0.1204
 1500BOLB   C4A35984  18.344  32.309  25.191 -0.0217  0.0028  0.0549
 1500BOLB   C1B35985  19.563  31.320  26.173  0.0738 -0.2181  0.0736
 1500BOLB   C2B35986  19.237  30.996  26.135  0.1487  0.0972  0.3245
 1500BOLB   C3B35987  18.889  30.946  26.359  0.0111 -0.3231  0.0394
 1500BOLB   C4B35988  18.563  30.913  26.309 -0.1910  0.0119  0.2189
 1500BOLB   NC235989  16.415  33.599  26.360 -0.0239 -0.0279 -0.2791
 1500BOLB   PO235990  16.466  33.543  25.939  0.2389  0.1292 -0.0524
 1500BOLB   GL335991  16.631  33.126  25.841 -0.1332  0.1756 -0.2295
 1500BOLB   GL435992  16.454  32.982  25.958  0.0689  0.0977  0.1643
 1500BOLB   C1C35993  17.018  32.876  25.848  0.2471  0.1423 -0.2797
 1500BOLB   C2C35994  17.371  32.649  25.933  0.0035 -0.0476 -0.0925
 1500BOLB   C3C35995  17.667  32.540  25.611  0.1555  0.0178 -0.1226
 1500BOLB   C4C35996  18.104  32.611  25.326 -0.2349  0.2017 -0.1078
 1500BOLB   C1D35997  16.584  32.648  25.653  0.1633  0.0132  0.0375
 1500BOLB   C2D35998  17.027  32.447  25.613 -0.0033 -0.0189 -0.3022
 1500BOLB   C3D35999  17.388  32.185  25.773  0.0436  0.2646 -0.0427
 1500BOLB   C4D36000  17.786  31.985  25.665 -0.1504 -0.0700 -0.0047
 1501BOLB   NC136001  21.770  28.520  15.518 -0.0155 -0.2099  0.3248
 1501BOLB   PO136002  22.172  28.435  15.406  0.0474  0.2345  0.1112
 1501BOLB   GL136003  21.874  28.226  15.139  0.2277 -0.2575 -0.3310
 1501BOLB   GL236004  22.120  27.941  15.005 -0.1187  0.0465  0.4302
 1501BOLB   C1A36005  21.693  28.317  14.796 -0.2241 -0.0926  0.0239
 1501BOLB   C2A36006  21.235  28.433  14.658  0.1861  0.0113 -0.0893
 1501BOLB   C3A36007  20.856  28.391  14.506  0.0105 -0.2938 -0.3004
 1501BOLB   C4A36008  20.568  27.996  14.492 -0.0608 -0.0314 -0.0500
 1501BOLB   C1B36009  22.125  27.726  14.536 -0.1746 -0.2980 -0.0564
 1501BOLB   C2B36010  21.756  27.672  14.295 -0.0949 -0.0451 -0.4260
 1501BOLB   C3B36011  21.466  27.492  14.041 -0.1181 -0.1862 -0.4336
 1501BOLB   C4B36012  21.016  27.347  13.872  0.3264  0.1613 -0.3634
 1501BOLB   NC236013  18.447  27.509  12.773  0.0726  0.1472  0.0509
 1501BOLB   PO236014  18.866  27.679  13.081 -0.0465  0.0842 -0.0820
 1501BOLB   GL336015  19.150  27.835  13.434 -0.0542 -0.1137 -0.2480
 1501BOLB   GL436016  19.123  28.133  13.708 -0.1058  0.3017 -0.2603
 1501BOLB   C1C36017  19.548  27.814  13.682 -0.0514  0.0811 -0.2021
 1501BOLB   C2C36018  19.609  27.641  14.114  0.0880 -0.1152  0.1327
 1501BOLB   C3C36019  19.899  27.565  14.357  0.0768 -0.1501  0.0139
 1501BOLB   C4C36020  20.168  27.766  14.540  0.0932 -0.1571 -0.0131
 1501BOLB   C1D36021  19.452  28.193  14.071 -0.2103 -0.1185  0.1514
 1501BOLB   C2D36022  19.829  28.082  14.202  0.0642  0.0030 -0.1979
 1501BOLB   C3D36023  20.034  28.369  14.358 -0.0541 -0.1480 -0.2314
 1501BOLB   C4D36024  20.430  28.558  14.448 -0.0728 -0.3542  0.3940
 1502BOLB   NC136025  28.308  22.509  17.675  0.1124 -0.0212 -0.1106
 1502BOLB   PO136026  28.584  22.209  17.397 -0.2149  0.2787 -0.2005
 1502BOLB   GL136027  28.693  21.937  17.044 -0.1954 -0.1719 -0.1832
 1502BOLB   GL236028  28.452  22.034  16.747  0.2066 -0.0432  0.2065
 1502BOLB   C1A36029  28.758  21.628  16.748  0.1944 -0.3304 -0.0298
 1502BOLB   C2A36030  28.682  21.311  16.459  0.2145 -0.1935 -0.1417
 1502BOLB   C3A36031  28.496  21.132  16.207 -0.1674 -0.0786 -0.1249
 1502BOLB   C4A36032  28.472  20.737  16.123 -0.0620  0.2170 -0.0037
 1502BOLB   C1B36033  28.403  21.777  16.335 -0.1770 -0.0155  0.1699
 1502BOLB   C2B36034  28.617  21.596  16.016 -0.0241 -0.2273  0.3231
 1502BOLB   C3B36035  28.692  21.320  15.680  0.0662  0.0184 -0.0048
 1502BOLB   C4B36036  29.108  21.406  15.641  0.1673 -0.0565 -0.2731
 1502BOLB   NC236037  28.662  18.466  15.103  0.1505  0.3889 -0.3018
 1502BOLB   PO236038  28.805  18.871  15.147 -0.2674 -0.1099  0.1056
 1502BOLB   GL336039  28.891  19.400  15.259  0.2418  0.0482  0.3190
 1502BOLB   GL436040  29.080  19.664  15.170  0.2554 -0.2290  0.0735
 1502BOLB   C1C36041  28.897  19.569  15.644  0.2152  0.0230  0.2915
 1502BOLB   C2C36042  29.125  19.931  15.664  0.2696  0.1668 -0.1567
 1502BOLB   C3C36043  28.987  20.367  15.628  0.0701  0.0022 -0.1077
 1502BOLB   C4C36044  28.773  20.606  15.869  0.2476 -0.1210 -0.1588
 1502BOLB   C1D36045  28.982  20.109  15.176  0.3605  0.2062  0.2802
 1502BOLB   C2D36046  28.844  20.515  15.181  0.3158 -0.0139  0.0916
 1502BOLB   C3D36047  28.655  20.849  15.419 -0.2627 -0.3809  0.1339
 1502BOLB   C4D36048  28.281  20.990  15.774 -0.0265 -0.0042 -0.0092
 1503BOLB   NC136049  34.092  35.188  19.373 -0.1855  0.1651 -0.0221
 1503BOLB   PO136050  34.030  35.556  19.685 -0.1192 -0.1286  0.1803
 1503BOLB   GL136051  34.415  35.724  19.613 -0.2224  0.0044  0.0294
 1503BOLB   GL236052  34.459  35.540  19.360  0.1145  0.1700 -0.1105
 1503BOLB   C1A36053  34.886  35.739  19.575 -0.1177  0.1726 -0.0529
 1503BOLB   C2A36054  35.392  35.727  19.582  0.1374  0.2807  0.0120
 1503BOLB   C3A36055  35.624  36.140  19.761 -0.3187 -0.0142  0.0559
 1503BOLB   C4A36056  35.817  36.488  19.669 -0.2854 -0.0673 -0.3626
 1503BOLB   C1B36057  34.686  35.936  19.174 -0.0809  0.1808 -0.1006
 1503BOLB   C2B36058  34.964  36.214  19.108  0.2054  0.1867  0.0021
 1503BOLB   C3B36059  35.317  36.644  19.144 -0.2340 -0.0292  0.1575
 1503BOLB   C4B36060  35.464  37.052  19.185  0.1319  0.0124  0.1080
 1503BOLB   NC236061  36.911  38.326  17.630 -0.2730 -0.0467 -0.0649
 1503BOLB   PO236062  36.743  38.084  17.985  0.1051 -0.0827 -0.0244
 1503BOLB   GL336063  36.485  37.678  18.210  0.0963 -0.0520 -0.0287
 1503BOLB   GL436064  36.103  37.571  18.040 -0.3534 -0.0389 -0.0298
 1503BOLB   C1C36065  36.528  37.354  18.609 -0.1782 -0.0163 -0.0827
 1503BOLB   C2C36066  36.344  37.246  19.001 -0.0315 -0.0127 -0.0831
 1503BOLB   C3C36067  36.004  37.044  19.145 -0.0202  0.3274  0.0772
 1503BOLB   C4C36068  35.789  36.617  19.326 -0.1068 -0.3191 -0.0543
 1503BOLB   C1D36069  36.408  37.215  18.108  0.0359 -0.0611  0.2916
 1503BOLB   C2D36070  36.200  36.838  18.055 -0.0408 -0.1302  0.0798
 1503BOLB   C3D36071  36.105  36.546  18.375 -0.1264  0.2816  0.1834
 1503BOLB   C4D36072  35.936  36.248  18.690  0.0786 -0.0179 -0.1076
 1504BOLB   NC136073  16.151  18.755  22.732 -0.1012  0.1062 -0.2095
 1504BOLB   PO136074  16.449  19.042  22.809  0.1359  0.2685 -0.1632
 1504BOLB   GL136075  16.709  19.474  22.689 -0.2250  0.2276  0.1686
 1504BOLB   GL236076  16.629  19.555  22.327 -0.4155  0.0924 -0.0943
 1504BOLB   C1A36077  17.070  19.669  22.780 -0.1483 -0.1468  0.0947
 1504BOLB   C2A36078  17.503  19.741  22.880 -0.0075 -0.0984  0.0621
 1504BOLB   C3A36079  17.818  19.892  22.948  0.1487 -0.1533 -0.0950
 1504BOLB   C4A36080  18.296  19.881  22.970  0.0658 -0.1318 -0.2080
 1504BOLB   C1B36081  16.987  19.791  22.326 -0.0929  0.0428  0.2024
 1504BOLB   C2B36082  17.306  20.260  22.272  0.2465  0.0532  0.2448
 1504BOLB   C3B36083  17.422  20.732  22.296 -0.1521  0.1800 -0.2707
 1504BOLB   C4B36084  17.721  21.024  22.135 -0.1063 -0.0618  0.1020
 1504BOLB   NC236085  17.891  18.218  24.844  0.4696  0.0186 -0.3725
 1504BOLB   PO236086  17.689  18.558  24.594  0.0929 -0.3739  0.0988
 1504BOLB   GL336087  17.846  18.918  24.372 -0.0931  0.2007 -0.2259
 1504BOLB   GL436088  17.571  19.208  24.275  0.3934  0.0726  0.1081
 1504BOLB   C1C36089  18.031  19.274  24.064 -0.1879  0.0734 -0.0433
 1504BOLB   C2C36090  18.458  19.497  24.012 -0.2653  0.2074  0.1186
 1504BOLB   C3C36091  18.646  19.670  23.735  0.2536 -0.2150  0.4157
 1504BOLB   C4C36092  18.441  19.755  23.366 -0.0090  0.3115 -0.0846
 1504BOLB   C1D36093  17.809  19.480  24.491  0.1239 -0.0954 -0.3467
 1504BOLB   C2D36094  18.225  19.660  24.384 -0.0817  0.1311 -0.0328
 1504BOLB   C3D36095  18.039  20.147  24.430 -0.2374 -0.0503 -0.1684
 1504BOLB   C4D36096  18.409  20.258  24.648  0.0459  0.1717  0.0685
 1505BOLB   NC136097  26.420  34.956  15.372  0.1272  0.2342  0.1532
 1505BOLB   PO136098  26.795  35.037  15.488 -0.0348  0.5414 -0.0453
 1505BOLB   GL136099  26.838  35.318  15.174  0.0285 -0.0474  0.3203
 1505BOLB   GL236100  26.600  35.211  14.960  0.0843 -0.3968  0.1149
 1505BOLB   C1A36101  26.776  35.698  14.879 -0.1111 -0.1113  0.0165
 1505BOLB   C2A36102  26.722  36.092  14.591 -0.0085  0.1507  0.1681
 1505BOLB   C3A36103  26.847  36.347  14.301 -0.1157  0.0212  0.2614
 1505BOLB   C4A36104  26.654  36.681  14.075 -0.1378 -0.1047 -0.2224
 1505BOLB   C1B36105  26.350  35.378  14.631  0.0595 -0.2878 -0.0326
 1505BOLB   C2B36106  26.460  35.459  14.217  0.1211  0.1824 -0.2590
 1505BOLB   C3B36107  26.379  35.505  13.854 -0.1051  0.3731 -0.0069
 1505BOLB   C4B36108  26.215  35.384  13.482  0.2236 -0.1599 -0.3529
 1505BOLB   NC236109  27.277  38.270  12.266 -0.0104 -0.1102  0.2324
 1505BOLB   PO236110  27.556  38.286  12.666  0.1693  0.0470  0.0939
 1505BOLB   GL336111  27.609  38.142  13.030  0.3734  0.3603 -0.2650
 1505BOLB   GL436112  27.296  38.192  13.065 -0.0776 -0.1123 -0.0296
 1505BOLB   C1C36113  27.511  37.862  13.347 -0.0162 -0.2655  0.0337
 1505BOLB   C2C36114  27.324  37.555  13.402 -0.2350  0.0415  0.3134
 1505BOLB   C3C36115  27.185  37.173  13.599  0.2836 -0.0914  0.1827
 1505BOLB   C4C36116  26.983  36.878  13.860  0.1469  0.1795 -0.1960
 1505BOLB   C1D36117  27.013  37.927  13.345 -0.0846  0.0378 -0.0327
 1505BOLB   C2D36118  26.959  37.734  13.741 -0.2893  0.2305  0.0579
 1505BOLB   C3D36119  26.893  37.426  13.982 -0.1002  0.2783 -0.0694
 1505BOLB   C4D36120  26.791  37.087  14.265 -0.0554 -0.1199  0.4289
 1506BOLB   NC136121  23.202  32.903   1.240 -0.1715  0.2550 -0.2202
 1506BOLB   PO136122  22.806  32.822   1.132 -0.1914  0.1464  0.0006
 1506BOLB   GL136123  22.498  32.931   1.364  0.1664  0.0392 -0.0622
 1506BOLB   GL236124  22.207  33.023   1.154  0.1520  0.0589  0.3231
 1506BOLB   C1A36125  22.350  33.090   1.710 -0.0416 -0.4313 -0.1288
 1506BOLB   C2A36126  22.194  33.088   2.172  0.0025 -0.0198  0.0378
 1506BOLB   C3A36127  22.075  33.016   2.638 -0.0347  0.1977  0.2674
 1506BOLB   C4A36128  21.670  32.943   2.836 -0.1960 -0.2434  0.0783
 1506BOLB   C1B36129  21.776  32.970   1.342 -0.3349 -0.0643  0.0342
 1506BOLB   C2B36130  21.420  33.093   1.631  0.1038  0.1188 -0.1315
 1506BOLB   C3B36131  21.165  33.250   1.788 -0.2556 -0.0779 -0.0295
 1506BOLB   C4B36132  20.795  33.500   1.598 -0.0290  0.3188  0.0150
 1506BOLB   NC236133  20.519  33.937   5.147 -0.3123  0.0656 -0.3218
 1506BOLB   PO236134  20.275  33.992   4.765  0.3398 -0.1994  0.0157
 1506BOLB   GL336135  20.329  33.655   4.314 -0.1719  0.1474 -0.1678
 1506BOLB   GL436136  20.216  33.305   4.197  0.0595  0.2473 -0.1147
 1506BOLB   C1C36137  20.611  33.561   3.966  0.0596 -0.1353  0.2637
 1506BOLB   C2C36138  20.941  33.521   3.550 -0.3705  0.0556 -0.1738
 1506BOLB   C3C36139  21.337  33.469   3.399 -0.0403 -0.1039  0.1323
 1506BOLB   C4C36140  21.522  33.037   3.186 -0.1464  0.1840 -0.0619
 1506BOLB   C1D36141  20.346  32.994   3.954 -0.0832 -0.0974  0.4417
 1506BOLB   C2D36142  20.200  32.768   3.492  0.0916 -0.0312 -0.1492
 1506BOLB   C3D36143  20.527  32.657   3.126 -0.0170 -0.0582 -0.1726
 1506BOLB   C4D36144  20.648  32.574   2.697 -0.1655 -0.2840 -0.3544
 1507BOLB   NC136145  28.408  21.903  21.445  0.1190  0.0386  0.3824
 1507BOLB   PO136146  28.607  21.534  21.128 -0.1056 -0.0645  0.2826
 1507BOLB   GL136147  28.892  21.321  20.816 -0.2019  0.0697 -0.1006
 1507BOLB   GL236148  29.154  21.384  20.721  0.4224 -0.1929  0.2077
 1507BOLB   C1A36149  28.922  20.860  20.910 -0.2319 -0.1196 -0.2104
 1507BOLB   C2A36150  29.002  20.399  20.937  0.1575  0.0233 -0.0811
 1507BOLB   C3A36151  29.067  20.052  20.751 -0.1996 -0.1371 -0.0511
 1507BOLB   C4A36152  29.442  19.775  20.630  0.1322  0.3697 -0.0060
 1507BOLB   C1B36153  29.355  20.936  20.606  0.1502 -0.2244 -0.1383
 1507BOLB   C2B36154  29.551  20.698  20.343  0.3032 -0.0093 -0.2046
 1507BOLB   C3B36155  29.885  20.595  20.130  0.0314  0.0902  0.0467
 1507BOLB   C4B36156  30.299  20.650  20.014  0.2369 -0.0603  0.0475
 1507BOLB   NC236157  30.608  17.566  19.440 -0.0744 -0.1847  0.0602
 1507BOLB   PO236158  30.634  17.803  19.931  0.0879  0.4128  0.2568
 1507BOLB   GL336159  30.802  18.136  20.145  0.0685 -0.0210  0.5760
 1507BOLB   GL436160  30.690  18.415  19.846  0.0704 -0.0840 -0.2573
 1507BOLB   C1C36161  30.697  18.517  20.342  0.3090 -0.0640 -0.2235
 1507BOLB   C2C36162  30.319  18.703  20.460  0.0953  0.0819 -0.1751
 1507BOLB   C3C36163  29.935  19.006  20.395  0.1474 -0.1109  0.1076
 1507BOLB   C4C36164  29.676  19.340  20.613 -0.4165  0.0966  0.2275
 1507BOLB   C1D36165  30.943  18.723  19.731  0.0136 -0.0950 -0.2085
 1507BOLB   C2D36166  31.085  19.158  19.845  0.2662  0.0369 -0.3592
 1507BOLB   C3D36167  30.914  19.588  19.920  0.0380  0.0891  0.0388
 1507BOLB   C4D36168  30.950  19.995  19.798  0.2386  0.0860 -0.0611
 1508BOLB   NC136169  27.518  36.617  26.015  0.0230 -0.2652 -0.2023
 1508BOLB   PO136170  27.694  37.029  25.902  0.2953 -0.0351  0.0294
 1508BOLB   GL136171  27.528  37.549  25.901  0.1316 -0.0414 -0.0509
 1508BOLB   GL236172  27.575  37.717  26.229  0.1468  0.1460  0.1678
 1508BOLB   C1A36173  27.683  37.908  25.771  0.3079 -0.1776 -0.3782
 1508BOLB   C2A36174  27.769  38.327  25.726  0.1372 -0.1855 -0.1812
 1508BOLB   C3A36175  27.600  38.666  25.531 -0.1224  0.1899  0.0421
 1508BOLB   C4A36176  27.406  39.035  25.623 -0.2563 -0.3481  0.1453
 1508BOLB   C1B36177  27.610  37.963  26.629  0.0273  0.1012  0.0993
 1508BOLB   C2B36178  27.584  38.214   0.017 -0.1814 -0.0376  0.4347
 1508BOLB   C3B36179  27.554  38.328   0.411 -0.3470 -0.2372 -0.3018
 1508BOLB   C4B36180  27.207  38.375   0.699  0.0374 -0.3140  0.1552
 1508BOLB   NC236181  27.472  41.227  26.832 -0.0823 -0.0180  0.0326
 1508BOLB   PO236182  27.093  40.915   0.038 -0.1790  0.0457  0.0196
 1508BOLB   GL336183  27.032  40.775  26.622  0.0389 -0.3823  0.1167
 1508BOLB   GL436184  26.771  40.792  26.448 -0.2173 -0.0526  0.2061
 1508BOLB   C1C36185  27.171  40.473  26.433 -0.1396 -0.0879 -0.1939
 1508BOLB   C2C36186  27.160  40.103  26.260  0.1794  0.1574  0.2929
 1508BOLB   C3C36187  27.157  39.725  26.035  0.0683 -0.5621 -0.1353
 1508BOLB   C4C36188  27.220  39.427  25.769  0.1295 -0.1784  0.0038
 1508BOLB   C1D36189  26.734  40.316  26.366 -0.0369 -0.1528 -0.1041
 1508BOLB   C2D36190  26.590  39.948  26.475 -0.0504 -0.3956  0.0161
 1508BOLB   C3D36191  26.484  39.520  26.458 -0.0976 -0.0835 -0.0969
 1508BOLB   C4D36192  26.627  39.230  26.405  0.0382 -0.1134  0.0250
 1509BOLB   NC136193  29.694  36.883  25.633 -0.1063 -0.2908  0.2453
 1509BOLB   PO136194  30.186  36.724  25.651  0.3633 -0.1126  0.1050
 1509BOLB   GL136195  30.078  37.205  25.922 -0.0964  0.0929  0.0706
 1509BOLB   GL236196  29.774  37.395  25.964 -0.6343 -0.0838 -0.1471
 1509BOLB   C1A36197  30.325  37.607  26.119  0.2986 -0.0112  0.0521
 1509BOLB   C2A36198  30.379  38.120  26.127  0.0096  0.3529  0.1041
 1509BOLB   C3A36199  30.599  38.454  26.307  0.2608  0.1366  0.1700
 1509BOLB   C4A36200  30.679  38.825  26.683  0.4561 -0.2081 -0.2136
 1509BOLB   C1B36201  29.846  37.836  26.123  0.0047  0.2320  0.1508
 1509BOLB   C2B36202  29.660  38.045  26.478 -0.0421  0.0834 -0.0756
 1509BOLB   C3B36203  29.325  38.211  26.724  0.4642 -0.1549  0.0332
 1509BOLB   C4B36204  29.101  37.839  26.849 -0.0614  0.0814 -0.0239
 1509BOLB   NC236205  31.952  40.555  26.712  0.0097  0.1636  0.1059
 1509BOLB   PO236206  32.194  40.297  26.409 -0.0021  0.1921  0.1893
 1509BOLB   GL336207  31.944  40.013  26.412 -0.4777 -0.1386 -0.0065
 1509BOLB   GL436208  32.238  39.806  26.243  0.0781  0.0222 -0.4906
 1509BOLB   C1C36209  31.479  39.997  26.319  0.1659 -0.0622  0.1064
 1509BOLB   C2C36210  31.228  39.801  26.277  0.0399 -0.0471 -0.2619
 1509BOLB   C3C36211  30.989  39.366  26.374 -0.4082 -0.0605 -0.1136
 1509BOLB   C4C36212  30.914  39.059  26.645 -0.4855  0.3485  0.0364
 1509BOLB   C1D36213  31.983  39.596  26.045  0.1489 -0.3280  0.3021
 1509BOLB   C2D36214  31.492  39.507  25.909 -0.2746  0.3014 -0.1544
 1509BOLB   C3D36215  31.046  39.651  25.805 -0.0296 -0.1650 -0.0506
 1509BOLB   C4D36216  30.572  39.800  25.725 -0.0113  0.3076  0.1508
 1510BOLB   NC136217  26.472  30.163   2.870 -0.1237 -0.4396  0.0381
 1510BOLB   PO136218  26.109  30.001   3.188  0.0448 -0.0830 -0.2258
 1510BOLB   GL136219  26.149  29.959   3.621 -0.1736 -0.2814  0.1802
 1510BOLB   GL236220  25.889  29.819   3.558  0.1273  0.2977 -0.0875
 1510BOLB   C1A36221  26.255  29.919   4.046  0.4324  0.0603 -0.3088
 1510BOLB   C2A36222  26.232  29.835   4.377 -0.0832 -0.1591 -0.0347
 1510BOLB   C3A36223  26.051  29.844   4.822 -0.4806  0.0243 -0.3063
 1510BOLB   C4A36224  25.852  29.687   5.213  0.0287  0.1724 -0.0581
 1510BOLB   C1B36225  25.497  29.799   3.593 -0.1663  0.3050 -0.2335
 1510BOLB   C2B36226  25.245  29.459   3.563 -0.2650 -0.1807  0.0857
 1510BOLB   C3B36227  24.995  29.166   3.795 -0.1216  0.1873 -0.0243
 1510BOLB   C4B36228  24.797  28.762   3.733 -0.1782  0.1369 -0.0440
 1510BOLB   NC236229  26.458  29.625   7.188 -0.0401  0.0353  0.0634
 1510BOLB   PO236230  26.095  29.826   7.469  0.1078  0.0989 -0.0419
 1510BOLB   GL336231  25.799  29.823   7.109  0.3918  0.3862 -0.3667
 1510BOLB   GL436232  25.918  29.604   6.890 -0.2295 -0.1543  0.2582
 1510BOLB   C1C36233  25.617  30.023   6.734  0.0572 -0.1998  0.0112
 1510BOLB   C2C36234  25.425  30.215   6.356  0.0195  0.2912 -0.0811
 1510BOLB   C3C36235  25.522  30.209   5.887  0.1816  0.2282 -0.0551
 1510BOLB   C4C36236  25.595  29.890   5.583  0.2224  0.2517 -0.1159
 1510BOLB   C1D36237  26.001  29.846   6.514  0.1935  0.3165 -0.0130
 1510BOLB   C2D36238  25.724  29.802   6.173  0.0536 -0.1307 -0.1858
 1510BOLB   C3D36239  25.540  29.337   6.054  0.1876  0.1199 -0.0354
 1510BOLB   C4D36240  25.530  29.097   5.606 -0.0199  0.1567 -0.0633
 1511BOLB   NC136241  31.054  32.832  15.282  0.2593  0.1711 -0.0848
 1511BOLB   PO136242  31.259  33.179  15.097 -0.3868  0.1943 -0.0014
 1511BOLB   GL136243  31.449  33.342  14.736 -0.2357 -0.2252  0.2635
 1511BOLB   GL236244  31.420  33.065  14.557 -0.0252  0.2741 -0.1309
 1511BOLB   C1A36245  31.628  33.598  14.474 -0.3286 -0.0730 -0.3065
 1511BOLB   C2A36246  31.882  33.631  14.175 -0.2823  0.0931  0.0711
 1511BOLB   C3A36247  32.082  33.989  14.069  0.0240 -0.0933  0.0901
 1511BOLB   C4A36248  32.091  34.452  14.142 -0.1481 -0.0277 -0.3429
 1511BOLB   C1B36249  31.661  33.172  14.251  0.1160  0.4399  0.1945
 1511BOLB   C2B36250  31.816  33.258  13.911 -0.0604  0.0987  0.2768
 1511BOLB   C3B36251  31.788  33.231  13.393 -0.2006 -0.1372  0.2629
 1511BOLB   C4B36252  31.973  33.131  12.966  0.0200  0.3025  0.3002
 1511BOLB   NC236253  33.013  35.130  11.554 -0.2859 -0.0249  0.1053
 1511BOLB   PO236254  33.071  34.958  12.010 -0.4856 -0.2196 -0.2802
 1511BOLB   GL336255  32.715  34.922  12.211  0.1484 -0.0485 -0.0186
 1511BOLB   GL436256  32.453  35.028  12.002  0.0905  0.0693 -0.1310
 1511BOLB   C1C36257  32.677  34.831  12.579  0.2758  0.1109 -0.0097
 1511BOLB   C2C36258  32.640  34.919  13.054  0.0081 -0.0745  0.1489
 1511BOLB   C3C36259  32.622  34.850  13.609 -0.0798 -0.2373  0.3253
 1511BOLB   C4C36260  32.260  34.686  13.783  0.0801 -0.0209 -0.2041
 1511BOLB   C1D36261  32.006  34.824  12.092 -0.2748  0.0907  0.1081
 1511BOLB   C2D36262  31.625  34.776  12.185 -0.3271  0.0552  0.1621
 1511BOLB   C3D36263  31.309  34.764  12.483 -0.1803  0.1545 -0.2505
 1511BOLB   C4D36264  31.415  34.545  12.838 -0.0484 -0.1240  0.2404
 1512BOLB   NC136265  29.467  30.727   3.227 -0.1148 -0.0609  0.2808
 1512BOLB   PO136266  29.641  31.168   3.033 -0.1023  0.1995 -0.0832
 1512BOLB   GL136267  29.735  31.091   3.371 -0.0039  0.1301  0.1807
 1512BOLB   GL236268  29.492  31.257   3.543 -0.2340 -0.1856  0.3230
 1512BOLB   C1A36269  29.892  30.998   3.800  0.1843  0.0320  0.1625
 1512BOLB   C2A36270  29.924  30.966   4.210  0.0010 -0.0228  0.0269
 1512BOLB   C3A36271  29.999  30.941   4.603 -0.0240 -0.3388  0.1386
 1512BOLB   C4A36272  30.319  30.960   4.851 -0.1934 -0.1848  0.0899
 1512BOLB   C1B36273  29.419  31.437   3.955 -0.3031  0.1326  0.0153
 1512BOLB   C2B36274  29.435  31.438   4.375 -0.0604  0.0542  0.2079
 1512BOLB   C3B36275  29.609  31.375   4.836  0.1248  0.0225 -0.1395
 1512BOLB   C4B36276  29.602  31.017   5.062 -0.1998 -0.3138 -0.2552
 1512BOLB   NC236277  29.901  30.685   7.710  0.2452 -0.0768 -0.0288
 1512BOLB   PO236278  29.969  30.861   7.272  0.2079 -0.0532 -0.0608
 1512BOLB   GL336279  29.997  30.612   6.829  0.1034 -0.1902  0.0401
 1512BOLB   GL436280  30.304  30.457   6.863 -0.1488 -0.1946 -0.2073
 1512BOLB   C1C36281  29.833  30.653   6.313 -0.2606 -0.1990  0.4470
 1512BOLB   C2C36282  29.840  30.748   5.857 -0.0654  0.0508 -0.0422
 1512BOLB   C3C36283  30.029  30.728   5.471  0.0884  0.2474 -0.1128
 1512BOLB   C4C36284  30.405  30.962   5.281  0.3038  0.0086  0.0822
 1512BOLB   C1D36285  30.198  30.286   6.531 -0.0562  0.0328 -0.2517
 1512BOLB   C2D36286  30.116  29.932   6.221 -0.1506 -0.0321 -0.2282
 1512BOLB   C3D36287  30.336  29.808   5.847 -0.0961 -0.1438 -0.1277
 1512BOLB   C4D36288  30.667  29.597   5.570 -0.0044 -0.1027 -0.0912
 1513BOLB   NC136289  29.479  37.373  20.443  0.0144 -0.0622  0.1703
 1513BOLB   PO136290  29.249  37.767  20.310  0.1077 -0.0097  0.1574
 1513BOLB   GL136291  29.286  38.263  20.214  0.1096  0.0140  0.2811
 1513BOLB   GL236292  28.936  38.225  20.322  0.3422 -0.3087 -0.2138
 1513BOLB   C1A36293  29.350  38.583  20.025 -0.2307  0.1457  0.0459
 1513BOLB   C2A36294  29.230  38.956  19.968 -0.1765  0.1521  0.1144
 1513BOLB   C3A36295  29.307  39.374  19.865 -0.1489 -0.0279 -0.1482
 1513BOLB   C4A36296  29.472  39.844  19.925 -0.0994 -0.0413 -0.0967
 1513BOLB   C1B36297  28.962  38.636  20.314  0.1406  0.2685  0.2884
 1513BOLB   C2B36298  28.844  39.069  20.271 -0.2566 -0.1824 -0.0814
 1513BOLB   C3B36299  28.954  39.463  20.247  0.0840 -0.0448  0.3828
 1513BOLB   C4B36300  29.222  39.709  20.383 -0.2956  0.1482  0.2283
 1513BOLB   NC236301  30.227  41.758  18.727 -0.3603  0.0711  0.0514
 1513BOLB   PO236302  29.863  41.584  18.570  0.0681  0.3212  0.2767
 1513BOLB   GL336303  29.866  41.418  18.990  0.5416  0.1462  0.0539
 1513BOLB   GL436304  29.520  41.432  18.992 -0.1709 -0.1380  0.2167
 1513BOLB   C1C36305  29.787  41.025  19.161 -0.3353 -0.1433  0.2137
 1513BOLB   C2C36306  29.846  40.709  19.369 -0.0741  0.1374  0.1209
 1513BOLB   C3C36307  29.805  40.515  19.819  0.0199 -0.1322  0.1168
 1513BOLB   C4C36308  29.717  40.166  19.987 -0.1020 -0.1319  0.1112
 1513BOLB   C1D36309  29.543  41.001  18.744 -0.1266 -0.1410 -0.0845
 1513BOLB   C2D36310  29.462  40.569  18.677  0.1064  0.2254  0.2548
 1513BOLB   C3D36311  29.717  40.373  18.389  0.2418 -0.1297 -0.0863
 1513BOLB   C4D36312  30.079  40.053  18.513  0.1459  0.2280  0.0681
 1514BOLB   NC136313  24.205  35.394   0.145 -0.0018 -0.1186  0.1434
 1514BOLB   PO136314  24.227  35.002   0.325 -0.3083 -0.3233 -0.0077
 1514BOLB   GL136315  23.890  35.247   0.551 -0.2723  0.2130 -0.1066
 1514BOLB   GL236316  23.986  35.557   0.617  0.3397  0.2436 -0.0720
 1514BOLB   C1A36317  23.502  35.352   0.766  0.2392 -0.1651  0.2064
 1514BOLB   C2A36318  23.250  35.306   1.217  0.0875  0.3121  0.0025
 1514BOLB   C3A36319  22.917  35.262   1.335 -0.1135 -0.0634 -0.0719
 1514BOLB   C4A36320  22.619  35.364   1.312  0.0569 -0.1049 -0.0105
 1514BOLB   C1B36321  23.962  35.881   0.900 -0.1506 -0.1631  0.0634
 1514BOLB   C2B36322  23.631  36.093   1.179  0.1380  0.2362  0.1248
 1514BOLB   C3B36323  23.489  36.457   1.279 -0.0801  0.1048  0.4048
 1514BOLB   C4B36324  23.381  36.923   1.342  0.2191 -0.0215 -0.3280
 1514BOLB   NC236325  20.664  36.721   1.960 -0.2778 -0.0358  0.2486
 1514BOLB   PO236326  20.891  37.089   1.813  0.3910  0.1057 -0.0582
 1514BOLB   GL336327  21.101  36.762   1.692  0.0045 -0.1362 -0.1968
 1514BOLB   GL436328  21.082  36.813   1.423 -0.2378  0.1228  0.1207
 1514BOLB   C1C36329  21.284  36.306   1.556 -0.0891  0.1608 -0.0854
 1514BOLB   C2C36330  21.610  35.937   1.500 -0.0455 -0.1218 -0.0967
 1514BOLB   C3C36331  21.717  35.552   1.539  0.0325  0.1401 -0.2802
 1514BOLB   C4C36332  22.178  35.446   1.367 -0.4341 -0.0179 -0.3502
 1514BOLB   C1D36333  20.888  36.448   1.237 -0.1388  0.2123 -0.1935
 1514BOLB   C2D36334  21.129  36.122   1.057  0.0245  0.0572  0.1065
 1514BOLB   C3D36335  21.465  35.957   0.843  0.0902 -0.0454 -0.0854
 1514BOLB   C4D36336  21.866  35.805   1.078 -0.0068  0.1973  0.2484
 1515BOLB   NC136337  17.571  23.702   4.836  0.2676  0.3022  0.1791
 1515BOLB   PO136338  17.409  23.992   5.149 -0.0753  0.1828 -0.0163
 1515BOLB   GL136339  17.787  24.158   4.917  0.1468  0.1671 -0.3549
 1515BOLB   GL236340  18.051  23.875   4.900  0.1071 -0.0800  0.3153
 1515BOLB   C1A36341  18.150  24.287   4.698 -0.0694  0.0683 -0.1885
 1515BOLB   C2A36342  18.533  24.366   4.507  0.1310  0.1340  0.0422
 1515BOLB   C3A36343  18.819  24.609   4.460 -0.0794  0.0879 -0.4054
 1515BOLB   C4A36344  19.122  24.833   4.639 -0.3480 -0.3653  0.0439
 1515BOLB   C1B36345  18.403  23.814   4.705 -0.0836 -0.3302  0.0892
 1515BOLB   C2B36346  18.775  23.835   4.556  0.0598 -0.0138 -0.1314
 1515BOLB   C3B36347  18.970  24.105   4.319  0.3614 -0.4359  0.1942
 1515BOLB   C4B36348  19.080  24.210   3.813  0.0412  0.0918  0.0721
 1515BOLB   NC236349  17.808  25.032   6.758 -0.0236  0.0341 -0.3370
 1515BOLB   PO236350  18.224  25.247   6.584 -0.3143 -0.0545 -0.4079
 1515BOLB   GL336351  18.439  25.533   6.267  0.0010 -0.0782  0.2565
 1515BOLB   GL436352  18.518  25.894   6.350 -0.1354  0.1384 -0.1796
 1515BOLB   C1C36353  18.780  25.616   5.906  0.2370  0.1794  0.2892
 1515BOLB   C2C36354  19.144  25.553   5.608 -0.4472  0.0088 -0.0228
 1515BOLB   C3C36355  19.127  25.383   5.190  0.1453 -0.1473 -0.0246
 1515BOLB   C4C36356  19.227  25.021   4.990 -0.0310  0.0288 -0.0441
 1515BOLB   C1D36357  18.736  26.267   6.592  0.1466 -0.0690  0.1346
 1515BOLB   C2D36358  19.145  26.375   6.653 -0.1294  0.0648  0.1533
 1515BOLB   C3D36359  19.290  26.625   6.591  0.0151 -0.0517 -0.2282
 1515BOLB   C4D36360  19.579  26.766   6.406 -0.1145 -0.1833  0.1181
 1516BOLB   NC136361  27.549  34.716   1.284  0.1285  0.2874  0.1041
 1516BOLB   PO136362  27.124  34.778   1.505  0.4043 -0.2960  0.1992
 1516BOLB   GL136363  27.197  35.213   1.564  0.1456  0.3018  0.1344
 1516BOLB   GL236364  27.046  35.162   1.836  0.0352 -0.2408  0.0365
 1516BOLB   C1A36365  27.468  35.377   1.896  0.2916 -0.1713  0.1688
 1516BOLB   C2A36366  27.513  35.793   2.043 -0.0481  0.2064  0.1121
 1516BOLB   C3A36367  27.646  36.275   2.196  0.3388  0.1263 -0.1048
 1516BOLB   C4A36368  27.877  36.540   2.501  0.0677 -0.1511 -0.1427
 1516BOLB   C1B36369  27.066  35.459   2.146  0.1870  0.0284 -0.4153
 1516BOLB   C2B36370  26.907  35.805   2.445 -0.0983 -0.0168 -0.2329
 1516BOLB   C3B36371  26.875  35.906   2.917  0.0168 -0.2570 -0.0588
 1516BOLB   C4B36372  27.113  36.192   3.095 -0.1001  0.2793 -0.2851
 1516BOLB   NC236373  27.289  37.543   4.496  0.2020  0.3629  0.1889
 1516BOLB   PO236374  26.821  37.681   4.401  0.0953  0.1931  0.0837
 1516BOLB   GL336375  27.043  37.632   4.032  0.4053 -0.2045  0.2539
 1516BOLB   GL436376  27.303  37.669   4.019 -0.2679 -0.1714  0.0767
 1516BOLB   C1C36377  27.160  37.760   3.531 -0.1991 -0.1220 -0.1031
 1516BOLB   C2C36378  27.400  37.532   3.289 -0.0204  0.2057  0.2274
 1516BOLB   C3C36379  27.623  37.112   3.100 -0.2074  0.3766 -0.1033
 1516BOLB   C4C36380  27.837  36.790   2.919  0.0454  0.0072  0.5509
 1516BOLB   C1D36381  27.444  37.288   3.835 -0.0116 -0.0646 -0.1569
 1516BOLB   C2D36382  27.835  37.314   3.537  0.3657  0.1407  0.0787
 1516BOLB   C3D36383  28.034  37.009   3.334  0.1778  0.0350 -0.1729
 1516BOLB   C4D36384  27.954  36.498   3.261 -0.0470 -0.3941  0.1347
 1517BOLB   NC136385  20.849  17.154   0.188  0.0894 -0.1965  0.1962
 1517BOLB   PO136386  21.108  17.287   0.494 -0.2749 -0.1778 -0.1558
 1517BOLB   GL136387  21.331  17.718   0.425  0.1539 -0.1113  0.2169
 1517BOLB   GL236388  21.113  17.846   0.196 -0.2536 -0.0890 -0.0090
 1517BOLB   C1A36389  21.713  17.927   0.322  0.2001  0.2463 -0.1293
 1517BOLB   C2A36390  21.999  17.901   0.034  0.1666  0.3729 -0.0084
 1517BOLB   C3A36391  22.115  17.738  26.604 -0.1899  0.2140 -0.2841
 1517BOLB   C4A36392  22.425  17.714  26.320 -0.1487  0.0582 -0.0892
 1517BOLB   C1B36393  21.263  18.180   0.172 -0.0471 -0.0395 -0.1379
 1517BOLB   C2B36394  21.602  18.299  26.803 -0.0455  0.3947 -0.1228
 1517BOLB   C3B36395  21.718  18.533  26.380  0.3462  0.0021  0.0398
 1517BOLB   C4B36396  22.169  18.727  26.334  0.0703 -0.2826 -0.2794
 1517BOLB   NC236397  22.532  15.879  25.979 -0.1066  0.1804 -0.0387
 1517BOLB   PO236398  22.310  16.222  25.742  0.0959  0.2434 -0.1194
 1517BOLB   GL336399  22.453  16.567  25.810  0.1843 -0.2810  0.3994
 1517BOLB   GL436400  22.652  16.560  25.445  0.0172  0.2793 -0.0314
 1517BOLB   C1C36401  22.480  16.995  25.652  0.2529 -0.1935  0.0643
 1517BOLB   C2C36402  22.820  17.344  25.528  0.1905  0.0801 -0.1918
 1517BOLB   C3C36403  22.753  17.711  25.648  0.0714  0.1381  0.2811
 1517BOLB   C4C36404  22.787  17.744  26.107 -0.0948 -0.0247  0.0148
 1517BOLB   C1D36405  22.672  16.919  25.173  0.1629 -0.3576 -0.1312
 1517BOLB   C2D36406  22.504  17.344  25.001 -0.1710 -0.1371 -0.1859
 1517BOLB   C3D36407  22.550  17.565  24.553  0.0717  0.0038 -0.0545
 1517BOLB   C4D36408  22.554  17.189  24.237 -0.0442  0.1640 -0.2864
 1518BOLB   NC136409  33.526  34.311  24.955 -0.0398  0.1077 -0.0213
 1518BOLB   PO136410  34.026  34.432  25.003  0.2406  0.0571  0.4107
 1518BOLB   GL136411  34.252  34.695  25.187  0.0960  0.2775 -0.1097
 1518BOLB   GL236412  34.125  34.875  25.377 -0.0500 -0.0999  0.2001
 1518BOLB   C1A36413  34.648  34.922  24.953 -0.0361  0.2125  0.0208
 1518BOLB   C2A36414  35.042  35.227  25.092  0.5672 -0.2986 -0.1578
 1518BOLB   C3A36415  34.991  35.457  25.445 -0.1353 -0.2024  0.0507
 1518BOLB   C4A36416  35.005  35.469  25.863 -0.0450  0.3624  0.1174
 1518BOLB   C1B36417  34.481  35.099  25.411 -0.2003 -0.0505 -0.2068
 1518BOLB   C2B36418  34.562  35.491  25.245  0.1979  0.3231 -0.0207
 1518BOLB   C3B36419  34.699  35.815  25.583 -0.0107  0.1459 -0.0092
 1518BOLB   C4B36420  34.697  36.059  25.968 -0.0239  0.1318 -0.2226
 1518BOLB   NC236421  36.831  36.824   0.604 -0.2777 -0.2242  0.1068
 1518BOLB   PO236422  36.622  36.504   0.469  0.1193  0.0268 -0.2839
 1518BOLB   GL336423  36.392  36.308   0.100 -0.1063 -0.1898 -0.1789
 1518BOLB   GL436424  36.166  36.495   0.125  0.2415 -0.1464  0.2722
 1518BOLB   C1C36425  36.119  36.079  26.645  0.0816 -0.1439 -0.0200
 1518BOLB   C2C36426  35.821  35.854  26.501 -0.0227  0.0478 -0.0032
 1518BOLB   C3C36427  35.476  35.793  26.443 -0.0227  0.0914 -0.0783
 1518BOLB   C4C36428  35.158  35.772  26.184 -0.0694 -0.0402 -0.1295
 1518BOLB   C1D36429  35.794  36.156   0.181  0.2414  0.1050  0.4779
 1518BOLB   C2D36430  35.413  36.057   0.153 -0.1638  0.1373 -0.1638
 1518BOLB   C3D36431  35.164  35.959  26.841 -0.2502  0.1107 -0.0016
 1518BOLB   C4D36432  34.851  36.000  26.460  0.0743  0.4435 -0.0057
 1519BOLB   NC136433  35.234  31.885  23.452 -0.2557  0.2953 -0.3408
 1519BOLB   PO136434  35.782  31.917  23.554  0.0528  0.0862 -0.1992
 1519BOLB   GL136435  36.212  31.725  23.420  0.1163 -0.0411  0.2219
 1519BOLB   GL236436  36.338  31.759  23.700  0.3338  0.2983  0.0802
 1519BOLB   C1A36437  36.614  31.851  23.184 -0.0489  0.1657  0.0456
 1519BOLB   C2A36438  37.081  31.897  23.138  0.1506 -0.1133  0.0037
 1519BOLB   C3A36439  37.478  32.068  23.042  0.1191  0.2679 -0.0518
 1519BOLB   C4A36440  37.699  32.495  23.155  0.1363  0.2412  0.1340
 1519BOLB   C1B36441  36.717  31.918  23.655  0.3359 -0.0536 -0.1005
 1519BOLB   C2B36442  36.998  32.194  23.907 -0.0368  0.0685 -0.0750
 1519BOLB   C3B36443  37.302  32.383  24.019 -0.2894  0.3354  0.2316
 1519BOLB   C4B36444  37.753  32.212  23.980 -0.1587 -0.2944  0.4515
 1519BOLB   NC236445  40.173  33.266  23.120  0.3287 -0.1035 -0.2132
 1519BOLB   PO236446  39.827  33.331  23.413 -0.2383 -0.0140  0.1168
 1519BOLB   GL336447  39.406  33.299  23.457  0.1019 -0.0518  0.0037
 1519BOLB   GL436448  39.395  33.406  23.797  0.2180  0.0732 -0.1641
 1519BOLB   C1C36449  38.998  33.279  23.260  0.2736 -0.1338  0.1593
 1519BOLB   C2C36450  38.626  33.158  23.083 -0.1534 -0.0289  0.1032
 1519BOLB   C3C36451  38.182  33.159  22.942 -0.0561  0.4193  0.0476
 1519BOLB   C4C36452  37.914  32.835  22.930 -0.2987 -0.0807 -0.2596
 1519BOLB   C1D36453  38.931  33.292  23.782 -0.2121 -0.0114  0.1325
 1519BOLB   C2D36454  38.549  33.075  23.527 -0.0022 -0.0252 -0.2577
 1519BOLB   C3D36455  38.150  32.814  23.365  0.1393 -0.0151 -0.0535
 1519BOLB   C4D36456  37.995  32.473  23.534 -0.2230  0.1648  0.0262
 1520BOLB   NC136457  31.342  22.011  22.276  0.1945  0.0273 -0.0505
 1520BOLB   PO136458  31.201  22.033  22.731 -0.1002  0.1249 -0.1001
 1520BOLB   GL136459  31.299  21.590  22.690 -0.1717 -0.0978  0.1004
 1520BOLB   GL236460  30.998  21.456  22.695  0.0564  0.2415 -0.1011
 1520BOLB   C1A36461  31.587  21.206  22.788  0.0709  0.0136  0.4828
 1520BOLB   C2A36462  31.866  20.921  22.518 -0.0654 -0.0093  0.1488
 1520BOLB   C3A36463  32.135  20.625  22.301 -0.2078  0.3855  0.1432
 1520BOLB   C4A36464  32.602  20.577  22.198 -0.0835 -0.1413  0.1470
 1520BOLB   C1B36465  31.138  21.030  22.730  0.1076  0.0381 -0.0466
 1520BOLB   C2B36466  31.238  20.614  22.801 -0.2927 -0.2820  0.0677
 1520BOLB   C3B36467  30.860  20.306  22.842 -0.0864  0.1465  0.0623
 1520BOLB   C4B36468  30.826  19.845  23.060 -0.2463  0.1444 -0.1691
 1520BOLB   NC236469  34.283  19.533  23.265 -0.0144  0.2034 -0.0260
 1520BOLB   PO236470  34.243  19.171  23.246 -0.0538  0.0481  0.0604
 1520BOLB   GL336471  33.754  19.417  23.307  0.0921 -0.1178  0.1758
 1520BOLB   GL436472  33.658  19.549  23.617  0.3364  0.2834  0.1241
 1520BOLB   C1C36473  33.454  19.672  23.191  0.2699  0.0577  0.0201
 1520BOLB   C2C36474  33.279  19.960  23.009  0.1452  0.2552 -0.0337
 1520BOLB   C3C36475  33.075  20.215  22.737  0.3443 -0.0590  0.3108
 1520BOLB   C4C36476  32.975  20.340  22.334  0.0751  0.0720 -0.1830
 1520BOLB   C1D36477  33.339  19.831  23.755  0.0697  0.0148 -0.2466
 1520BOLB   C2D36478  32.952  20.013  23.825 -0.0468 -0.1991 -0.1401
 1520BOLB   C3D36479  32.735  20.439  23.832  0.1774  0.2940  0.0555
 1520BOLB   C4D36480  32.852  20.870  23.866  0.0549 -0.4363 -0.0566
 1521BOLB   NC136481  35.019  30.149  17.124 -0.2504 -0.1381  0.2822
 1521BOLB   PO136482  34.914  30.346  17.448 -0.2964  0.0083 -0.0140
 1521BOLB   GL136483  35.329  30.530  17.423  0.2026  0.0941 -0.2014
 1521BOLB   GL236484  35.498  30.272  17.186 -0.1651  0.2383 -0.1613
 1521BOLB   C1A36485  35.746  30.765  17.371 -0.0806  0.4262 -0.0101
 1521BOLB   C2A36486  36.025  30.810  17.042 -0.1289 -0.2308  0.2165
 1521BOLB   C3A36487  36.297  30.716  16.586  0.2155 -0.1192 -0.0795
 1521BOLB   C4A36488  36.621  30.647  16.243 -0.0094  0.1750 -0.1844
 1521BOLB   C1B36489  35.877  30.182  16.906 -0.2774 -0.0734 -0.0582
 1521BOLB   C2B36490  36.249  30.281  16.799 -0.2599  0.1136  0.0639
 1521BOLB   C3B36491  36.729  30.238  16.677 -0.2568 -0.0384  0.0103
 1521BOLB   C4B36492  37.055  30.154  16.742  0.1621 -0.2471  0.0863
 1521BOLB   NC236493  38.184  30.226  14.687 -0.1731 -0.1720 -0.0200
 1521BOLB   PO236494  38.344  30.541  15.163 -0.2592  0.2398  0.2035
 1521BOLB   GL336495  37.944  30.377  15.187 -0.0046 -0.2106 -0.0812
 1521BOLB   GL436496  37.934  30.337  15.479  0.3014  0.1326  0.1408
 1521BOLB   C1C36497  37.503  30.403  15.259 -0.0278 -0.0716 -0.2583
 1521BOLB   C2C36498  37.130  30.535  15.357  0.2670 -0.2578 -0.1134
 1521BOLB   C3C36499  36.849  30.721  15.508 -0.5791 -0.2138  0.0618
 1521BOLB   C4C36500  36.553  30.812  15.841 -0.0934 -0.1073 -0.0677
 1521BOLB   C1D36501  37.506  30.501  15.717 -0.1220  0.0348  0.0424
 1521BOLB   C2D36502  37.160  30.623  16.000  0.1090 -0.0143  0.1904
 1521BOLB   C3D36503  37.074  30.594  16.485  0.2905 -0.0926  0.0642
 1521BOLB   C4D36504  37.274  30.617  16.884  0.1069 -0.1340  0.1409
 1522BOLB   NC136505  22.398  28.815  15.625 -0.3752 -0.2093 -0.3446
 1522BOLB   PO136506  22.421  29.262  15.469  0.3539 -0.0556 -0.1764
 1522BOLB   GL136507  22.189  29.493  15.130 -0.0394 -0.3095  0.0202
 1522BOLB   GL236508  22.313  29.541  14.864 -0.0089 -0.1532  0.1658
 1522BOLB   C1A36509  21.843  29.373  14.761  0.0423 -0.0240 -0.0372
 1522BOLB   C2A36510  21.488  29.333  14.517 -0.2092  0.0994  0.1684
 1522BOLB   C3A36511  21.199  29.133  14.323 -0.0614 -0.0261  0.1629
 1522BOLB   C4A36512  21.087  29.004  13.885 -0.0311  0.1464 -0.0604
 1522BOLB   C1B36513  22.118  29.642  14.440  0.1223 -0.3631  0.0450
 1522BOLB   C2B36514  22.008  29.521  13.912  0.1012 -0.1080  0.0685
 1522BOLB   C3B36515  21.995  29.388  13.566  0.1575 -0.1311  0.3139
 1522BOLB   C4B36516  22.081  29.079  13.309  0.0296  0.1433 -0.1170
 1522BOLB   NC236517  19.843  30.103  11.385  0.5362 -0.0101 -0.1665
 1522BOLB   PO236518  19.842  29.941  11.835  0.0998  0.0738 -0.3620
 1522BOLB   GL336519  20.156  29.679  12.118  0.3628 -0.0994  0.5253
 1522BOLB   GL436520  20.127  29.391  12.340 -0.2008  0.1081 -0.2083
 1522BOLB   C1C36521  20.530  29.607  12.437 -0.0450 -0.3099 -0.2528
 1522BOLB   C2C36522  20.741  29.262  12.667  0.1278  0.0740  0.1273
 1522BOLB   C3C36523  20.912  29.221  13.116 -0.5586  0.1422 -0.0209
 1522BOLB   C4C36524  21.116  29.025  13.493  0.2583  0.0581  0.1176
 1522BOLB   C1D36525  20.257  29.234  12.734  0.1095 -0.0730 -0.0945
 1522BOLB   C2D36526  20.285  28.862  13.105  0.1429 -0.2974  0.1670
 1522BOLB   C3D36527  20.534  28.510  13.335  0.0626  0.1020 -0.0225
 1522BOLB   C4D36528  20.544  28.168  13.580 -0.1271 -0.0688  0.0504
 1523BOLB   NC136529  32.668  21.305   2.321  0.0418  0.2876 -0.1333
 1523BOLB   PO136530  32.485  21.665   2.414  0.1818  0.0403 -0.0583
 1523BOLB   GL136531  32.154  21.797   2.471  0.0804 -0.0096  0.2464
 1523BOLB   GL236532  32.297  22.139   2.364  0.1742  0.1762 -0.1236
 1523BOLB   C1A36533  31.739  21.937   2.419  0.2300 -0.2002 -0.1051
 1523BOLB   C2A36534  31.370  22.142   2.174 -0.3217  0.0433  0.2888
 1523BOLB   C3A36535  31.142  22.509   2.169  0.0164 -0.0509  0.0398
 1523BOLB   C4A36536  31.098  22.896   1.875 -0.0115 -0.2793 -0.2106
 1523BOLB   C1B36537  31.904  22.299   2.102 -0.0114 -0.2457  0.1904
 1523BOLB   C2B36538  31.512  22.470   1.830  0.2403  0.0451  0.0855
 1523BOLB   C3B36539  31.403  22.759   1.531 -0.1748  0.0645  0.2594
 1523BOLB   C4B36540  31.311  23.173   1.283 -0.2344 -0.0661 -0.1743
 1523BOLB   NC236541  29.968  25.193   1.370 -0.2866 -0.2685  0.2460
 1523BOLB   PO236542  29.881  24.973   1.120  0.0776 -0.0324 -0.2526
 1523BOLB   GL336543  29.990  24.646   1.482  0.2588  0.2254  0.0485
 1523BOLB   GL436544  30.112  24.826   1.676  0.2106 -0.3310 -0.1351
 1523BOLB   C1C36545  30.272  24.269   1.649 -0.0979 -0.0194  0.1255
 1523BOLB   C2C36546  30.600  24.036   1.584 -0.0083 -0.2093 -0.2575
 1523BOLB   C3C36547  31.031  23.829   1.673 -0.3423 -0.0885 -0.3413
 1523BOLB   C4C36548  31.174  23.358   1.769  0.2159 -0.0726 -0.0023
 1523BOLB   C1D36549  30.004  24.505   2.017  0.1570  0.4939 -0.0924
 1523BOLB   C2D36550  29.913  24.245   2.327 -0.1955  0.0936  0.0582
 1523BOLB   C3D36551  30.111  24.138   2.657  0.1020  0.1105  0.1177
 1523BOLB   C4D36552  30.051  23.917   3.099  0.2602 -0.2572  0.0715
 1524BOLB   NC136553  35.215  21.772   0.500  0.1056 -0.1341  0.0064
 1524BOLB   PO136554  34.947  21.849   0.872 -0.0224  0.1526  0.1839
 1524BOLB   GL136555  34.722  22.041   0.660  0.0379 -0.0975  0.1866
 1524BOLB   GL236556  34.432  21.981   0.886 -0.3316  0.0218 -0.3024
 1524BOLB   C1A36557  34.474  22.176   0.238  0.1086 -0.1180  0.1642
 1524BOLB   C2A36558  34.054  22.426   0.233  0.1996  0.0844 -0.0200
 1524BOLB   C3A36559  33.899  22.809   0.188 -0.0392 -0.0067 -0.1080
 1524BOLB   C4A36560  33.804  23.225   0.012  0.3501  0.2423 -0.1225
 1524BOLB   C1B36561  34.072  22.075   0.898  0.0576 -0.0085 -0.1083
 1524BOLB   C2B36562  33.763  22.350   0.648 -0.3743  0.1357 -0.0664
 1524BOLB   C3B36563  33.666  22.752   0.704 -0.2014 -0.1744 -0.1610
 1524BOLB   C4B36564  33.670  23.253   0.541  0.0580 -0.1512  0.2965
 1524BOLB   NC236565  32.994  25.331  26.470  0.3205 -0.0550 -0.0304
 1524BOLB   PO236566  32.661  25.166  26.863 -0.0037  0.1075 -0.2468
 1524BOLB   GL336567  33.019  24.879  26.782  0.0810 -0.3746 -0.4176
 1524BOLB   GL436568  32.844  24.686   0.112  0.0778  0.3764  0.0837
 1524BOLB   C1C36569  33.323  24.640  26.893  0.0318  0.0441 -0.0262
 1524BOLB   C2C36570  33.514  24.306  26.722 -0.0420  0.2498 -0.1627
 1524BOLB   C3C36571  33.484  23.942   0.139 -0.0124  0.1135  0.1056
 1524BOLB   C4C36572  33.750  23.657   0.130 -0.2438 -0.0855 -0.0346
 1524BOLB   C1D36573  32.968  24.816   0.519  0.3942  0.0942  0.1766
 1524BOLB   C2D36574  33.265  24.752   0.893 -0.1464  0.1127 -0.0793
 1524BOLB   C3D36575  33.687  24.586   0.876 -0.1020  0.2468  0.0707
 1524BOLB   C4D36576  34.044  24.428   0.833 -0.0692 -0.0919  0.0774
 1525BOLB   NC136577  22.152  34.813  19.779  0.2516  0.1453  0.0930
 1525BOLB   PO136578  21.809  34.754  19.531 -0.0964  0.3643  0.2373
 1525BOLB   GL136579  21.590  35.061  19.430  0.0651  0.0238 -0.0089
 1525BOLB   GL236580  21.695  35.384  19.586  0.0074  0.1342  0.0615
 1525BOLB   C1A36581  21.261  35.358  19.350 -0.1438 -0.2583 -0.1438
 1525BOLB   C2A36582  21.083  35.762  19.294  0.1166 -0.1336  0.0015
 1525BOLB   C3A36583  20.818  35.988  18.963 -0.0154 -0.0061  0.1667
 1525BOLB   C4A36584  20.288  36.018  19.129  0.0743 -0.0794  0.4510
 1525BOLB   C1B36585  21.591  35.784  19.539 -0.2847  0.2194 -0.3418
 1525BOLB   C2B36586  21.363  36.079  19.528  0.2061 -0.1824 -0.2777
 1525BOLB   C3B36587  21.313  36.294  19.255  0.1077  0.0165 -0.2339
 1525BOLB   C4B36588  20.976  36.544  19.067  0.0633  0.5468  0.1064
 1525BOLB   NC236589  18.894  38.225  20.223 -0.0624 -0.1131  0.3176
 1525BOLB   PO236590  18.722  37.831  20.046 -0.4908 -0.0643 -0.2119
 1525BOLB   GL336591  18.802  37.405  19.824  0.3626  0.0088  0.0600
 1525BOLB   GL436592  18.820  37.331  20.185  0.3246 -0.0063 -0.0432
 1525BOLB   C1C36593  19.238  37.366  19.507  0.0769 -0.0794  0.1324
 1525BOLB   C2C36594  19.374  37.036  19.345  0.2077  0.3687  0.2080
 1525BOLB   C3C36595  19.756  36.721  19.177 -0.2087  0.0100  0.0293
 1525BOLB   C4C36596  20.051  36.299  19.089  0.1634 -0.0773 -0.3212
 1525BOLB   C1D36597  19.047  36.989  19.916 -0.0100 -0.0912  0.2496
 1525BOLB   C2D36598  19.266  36.618  19.817  0.3188 -0.0079 -0.0114
 1525BOLB   C3D36599  19.704  36.562  19.615 -0.0151  0.2354  0.1366
 1525BOLB   C4D36600  20.164  36.618  19.565  0.0573  0.1365  0.0338
 1526BOLB   NC136601  33.816  32.600  26.659  0.1272  0.0439  0.2600
 1526BOLB   PO136602  33.493  32.795  26.462 -0.1107 -0.2170  0.2639
 1526BOLB   GL136603  33.781  33.105  26.601  0.2726  0.0926  0.0108
 1526BOLB   GL236604  33.901  33.447  26.432  0.2467  0.1193 -0.3755
 1526BOLB   C1A36605  33.922  33.298   0.116  0.0048  0.1181 -0.1983
 1526BOLB   C2A36606  34.307  33.356   0.387  0.1052 -0.2043  0.2206
 1526BOLB   C3A36607  34.673  33.423   0.604 -0.0820 -0.1888 -0.1798
 1526BOLB   C4A36608  35.122  33.342   0.622 -0.0068 -0.1451 -0.1095
 1526BOLB   C1B36609  34.267  33.572  26.603  0.4428 -0.4007 -0.2386
 1526BOLB   C2B36610  34.643  33.786  26.748 -0.2892 -0.1177 -0.0140
 1526BOLB   C3B36611  34.904  34.043   0.111  0.1391 -0.1240 -0.1229
 1526BOLB   C4B36612  35.187  34.148   0.373  0.1217 -0.0387 -0.0199
 1526BOLB   NC236613  37.225  33.929   1.112  0.0205  0.1174 -0.0651
 1526BOLB   PO236614  37.140  34.181   0.760 -0.0343  0.1386  0.2077
 1526BOLB   GL336615  36.894  34.000   0.718 -0.0282 -0.1406 -0.2996
 1526BOLB   GL436616  36.606  34.061   0.853 -0.1278  0.2210  0.6148
 1526BOLB   C1C36617  36.644  33.811   0.336  0.1185  0.0995 -0.1148
 1526BOLB   C2C36618  36.151  33.660   0.262 -0.5876 -0.0646 -0.0011
 1526BOLB   C3C36619  35.820  33.405   0.378  0.0025  0.2136 -0.1181
 1526BOLB   C4C36620  35.551  33.199   0.635  0.2340  0.1538 -0.1872
 1526BOLB   C1D36621  36.384  34.245   0.520  0.3039 -0.1101 -0.1792
 1526BOLB   C2D36622  36.060  34.170   0.231 -0.0183  0.0464 -0.1380
 1526BOLB   C3D36623  35.698  34.047   0.121 -0.0469  0.3850 -0.0342
 1526BOLB   C4D36624  35.595  33.637  26.859 -0.1179  0.0676 -0.1156
 1527BOLB   NC136625  24.586  23.277  16.939  0.2401  0.0341  0.0618
 1527BOLB   PO136626  24.435  22.996  17.326  0.1762  0.2390  0.0286
 1527BOLB   GL136627  24.196  22.870  16.956 -0.4406 -0.0961 -0.3785
 1527BOLB   GL236628  23.869  22.774  17.085 -0.0269 -0.0712 -0.1908
 1527BOLB   C1A36629  24.344  22.457  16.641 -0.0729  0.2829  0.1765
 1527BOLB   C2A36630  24.274  22.151  16.304 -0.2994  0.0941 -0.0514
 1527BOLB   C3A36631  24.334  21.670  16.052  0.1680  0.0283 -0.1928
 1527BOLB   C4A36632  24.334  21.535  15.621  0.1474  0.2145 -0.1606
 1527BOLB   C1B36633  23.949  22.279  17.111  0.3862 -0.1057  0.1765
 1527BOLB   C2B36634  23.630  22.017  17.033  0.0163 -0.1011  0.1203
 1527BOLB   C3B36635  23.350  21.822  16.677 -0.2034  0.0732  0.0827
 1527BOLB   C4B36636  22.985  21.795  16.380  0.2396 -0.1360  0.1413
 1527BOLB   NC236637  23.455  21.909  13.158 -0.1497 -0.0238 -0.2902
 1527BOLB   PO236638  23.185  22.156  13.402  0.1165  0.5394  0.0613
 1527BOLB   GL336639  23.464  22.007  13.760  0.0897 -0.1517  0.1062
 1527BOLB   GL436640  23.731  21.781  13.670 -0.2377 -0.1114 -0.4321
 1527BOLB   C1C36641  23.601  22.074  14.170 -0.0728 -0.0385  0.1289
 1527BOLB   C2C36642  23.709  22.002  14.583 -0.2661 -0.1200 -0.0466
 1527BOLB   C3C36643  23.883  21.844  14.954 -0.0101  0.1020  0.1686
 1527BOLB   C4C36644  24.275  21.693  15.263  0.1370  0.1323 -0.2834
 1527BOLB   C1D36645  23.717  21.565  14.038  0.0156  0.0543  0.2212
 1527BOLB   C2D36646  23.532  21.611  14.431 -0.0622  0.1028  0.0481
 1527BOLB   C3D36647  23.300  21.754  14.845  0.2904  0.0275 -0.2323
 1527BOLB   C4D36648  23.061  22.140  14.913 -0.1350  0.2857  0.0137
 1528BOLB   NC136649  35.520  32.547  22.060 -0.0918 -0.2353  0.3014
 1528BOLB   PO136650  35.503  32.480  21.633 -0.1524  0.1459 -0.1945
 1528BOLB   GL136651  35.965  32.643  21.714  0.2027  0.1545 -0.1028
 1528BOLB   GL236652  36.128  32.848  21.420 -0.0904  0.1244  0.1408
 1528BOLB   C1A36653  36.249  32.937  21.950 -0.0903 -0.0486 -0.1679
 1528BOLB   C2A36654  36.529  33.315  22.038  0.1122 -0.0011  0.1189
 1528BOLB   C3A36655  36.739  33.679  22.129  0.1413  0.0365  0.1071
 1528BOLB   C4A36656  36.907  34.045  22.289  0.0701 -0.2205 -0.2101
 1528BOLB   C1B36657  36.407  32.584  21.398  0.0064 -0.0964 -0.3470
 1528BOLB   C2B36658  36.617  32.309  21.244  0.1037  0.1300 -0.2077
 1528BOLB   C3B36659  36.907  32.083  21.140  0.0951  0.1644 -0.1591
 1528BOLB   C4B36660  37.310  32.055  20.952 -0.1626 -0.0960 -0.1301
 1528BOLB   NC236661  39.379  35.065  23.267 -0.1011  0.1564 -0.0460
 1528BOLB   PO236662  39.174  34.885  22.911 -0.1965  0.0294 -0.0995
 1528BOLB   GL336663  38.770  34.753  22.956 -0.0214  0.0790  0.0759
 1528BOLB   GL436664  38.545  34.929  23.259 -0.0070 -0.1466  0.2604
 1528BOLB   C1C36665  38.417  34.567  22.763  0.1533 -0.1961 -0.1486
 1528BOLB   C2C36666  37.954  34.603  22.762  0.0431 -0.2508  0.2105
 1528BOLB   C3C36667  37.631  34.558  22.537  0.0781 -0.1737  0.1954
 1528BOLB   C4C36668  37.265  34.498  22.270  0.3462 -0.2213  0.2036
 1528BOLB   C1D36669  38.204  34.621  23.230 -0.1151  0.0619  0.0613
 1528BOLB   C2D36670  38.059  34.249  23.049  0.3052  0.1445 -0.1836
 1528BOLB   C3D36671  37.606  34.199  22.977 -0.1530  0.0157 -0.0334
 1528BOLB   C4D36672  37.176  34.360  22.760  0.0730  0.2028  0.1681
 1529BOLB   NC136673  30.981  34.220   0.888  0.0709 -0.2059  0.2459
 1529BOLB   PO136674  31.408  34.154   0.879 -0.0591  0.0558  0.0539
 1529BOLB   GL136675  31.801  34.313   1.038 -0.2080 -0.1350 -0.3791
 1529BOLB   GL236676  31.975  34.666   1.016 -0.0021  0.0161 -0.1127
 1529BOLB   C1A36677  32.120  34.186   1.318 -0.0952 -0.1446  0.1387
 1529BOLB   C2A36678  32.216  34.339   1.714 -0.0044 -0.0122  0.1419
 1529BOLB   C3A36679  32.328  34.554   2.151 -0.2070  0.1213  0.1207
 1529BOLB   C4A36680  32.238  34.522   2.474 -0.0773  0.0282 -0.3125
 1529BOLB   C1B36681  31.925  34.781   1.307 -0.2329  0.1564 -0.1606
 1529BOLB   C2B36682  32.122  35.132   1.570 -0.0584 -0.4685 -0.1216
 1529BOLB   C3B36683  32.543  35.294   1.739  0.0287 -0.1011  0.0988
 1529BOLB   C4B36684  32.918  35.479   1.611  0.0682  0.2089  0.0554
 1529BOLB   NC236685  32.247  35.926   4.439 -0.1072 -0.0540  0.3927
 1529BOLB   PO236686  32.478  36.099   4.199 -0.0835  0.3695 -0.0862
 1529BOLB   GL336687  32.311  35.591   4.114  0.2082  0.0138  0.0872
 1529BOLB   GL436688  32.236  35.416   4.360 -0.0496 -0.3733  0.1090
 1529BOLB   C1C36689  32.116  35.301   3.924 -0.2450 -0.1668 -0.1658
 1529BOLB   C2C36690  31.913  34.933   3.727  0.0034  0.0584 -0.2512
 1529BOLB   C3C36691  31.952  34.757   3.295  0.1996 -0.0301  0.1323
 1529BOLB   C4C36692  32.081  34.454   2.930 -0.2040  0.0125 -0.2242
 1529BOLB   C1D36693  32.162  34.961   4.318 -0.2175  0.0103 -0.0468
 1529BOLB   C2D36694  31.989  34.590   4.141 -0.1104 -0.2250  0.0390
 1529BOLB   C3D36695  31.767  34.151   4.147 -0.0359 -0.1771 -0.0356
 1529BOLB   C4D36696  31.630  33.953   3.833 -0.0815 -0.3745 -0.0024
 1530BOLB   NC136697  32.146  22.742  21.031 -0.0204  0.1165  0.0121
 1530BOLB   PO136698  32.523  22.778  21.234  0.0885 -0.1055 -0.0836
 1530BOLB   GL136699  32.642  22.626  20.890  0.1516  0.2649  0.2939
 1530BOLB   GL236700  32.441  22.494  20.748 -0.0127 -0.1682 -0.0645
 1530BOLB   C1A36701  33.028  22.381  20.820  0.1865  0.0124  0.1323
 1530BOLB   C2A36702  33.235  22.079  20.643  0.1743  0.0186 -0.0565
 1530BOLB   C3A36703  33.462  21.804  20.660  0.1275 -0.1459  0.0225
 1530BOLB   C4A36704  33.704  21.639  20.898 -0.3469 -0.1252 -0.0706
 1530BOLB   C1B36705  32.665  22.173  20.479  0.0856 -0.3790  0.1128
 1530BOLB   C2B36706  32.984  22.123  20.200 -0.1621  0.0999 -0.0301
 1530BOLB   C3B36707  33.101  22.084  19.854 -0.1839  0.3129  0.4012
 1530BOLB   C4B36708  33.508  21.763  19.775 -0.0948  0.0871 -0.0499
 1530BOLB   NC236709  35.067  20.316  20.973  0.0693  0.0802  0.1844
 1530BOLB   PO236710  35.509  20.369  20.879 -0.0025  0.3070  0.2796
 1530BOLB   GL336711  35.360  20.703  20.811  0.0625 -0.3279 -0.2116
 1530BOLB   GL436712  35.473  20.796  21.106 -0.1169 -0.1595 -0.0620
 1530BOLB   C1C36713  34.941  20.919  20.776 -0.1610  0.1713 -0.0926
 1530BOLB   C2C36714  34.497  20.880  20.648 -0.0655  0.0521 -0.0945
 1530BOLB   C3C36715  34.145  20.994  20.921 -0.0212  0.3365 -0.3592
 1530BOLB   C4C36716  33.962  21.293  20.907 -0.1910 -0.0303  0.3109
 1530BOLB   C1D36717  35.081  20.963  21.247 -0.0902  0.0022 -0.0626
 1530BOLB   C2D36718  34.915  21.281  21.229 -0.0365 -0.0638 -0.0637
 1530BOLB   C3D36719  35.055  21.714  21.317  0.3977  0.4070  0.0231
 1530BOLB   C4D36720  35.096  22.048  21.083  0.0049  0.1861  0.0865
 1531BOLB   NC136721  35.984  35.486   2.269 -0.2534  0.0014 -0.0397
 1531BOLB   PO136722  36.343  35.639   1.929  0.1238  0.2146 -0.1224
 1531BOLB   GL136723  36.055  35.786   1.587  0.0902 -0.1285 -0.0964
 1531BOLB   GL236724  36.021  35.854   1.327 -0.0307  0.0803  0.0045
 1531BOLB   C1A36725  35.626  35.532   1.629 -0.1535  0.2787  0.0102
 1531BOLB   C2A36726  35.441  35.223   1.747 -0.1610  0.5687  0.5058
 1531BOLB   C3A36727  35.102  34.982   1.684 -0.2999  0.1333  0.4715
 1531BOLB   C4A36728  34.743  34.721   1.566  0.1049 -0.0876  0.5114
 1531BOLB   C1B36729  35.903  35.531   1.062 -0.1977 -0.0588 -0.0705
 1531BOLB   C2B36730  35.621  35.288   0.813  0.0822  0.2914 -0.3516
 1531BOLB   C3B36731  35.572  34.859   0.752  0.0493 -0.0611 -0.1333
 1531BOLB   C4B36732  35.610  34.394   0.663  0.5806 -0.2085  0.0088
 1531BOLB   NC236733  32.962  33.215   0.450  0.2553 -0.1443 -0.1163
 1531BOLB   PO236734  32.879  33.524   0.813 -0.0949  0.1196 -0.3251
 1531BOLB   GL336735  33.162  33.792   0.960  0.2538 -0.2070 -0.1002
 1531BOLB   GL436736  33.156  33.909   1.292  0.1808  0.1374  0.1433
 1531BOLB   C1C36737  33.419  33.998   0.770 -0.1607  0.1592 -0.1673
 1531BOLB   C2C36738  33.753  34.126   1.003  0.1097 -0.2536  0.1021
 1531BOLB   C3C36739  33.952  34.529   1.104 -0.1171 -0.2315  0.2855
 1531BOLB   C4C36740  34.461  34.662   1.229  0.3239  0.0991 -0.2286
 1531BOLB   C1D36741  33.320  34.144   1.586 -0.0733 -0.3747 -0.0275
 1531BOLB   C2D36742  33.478  34.090   2.032 -0.1841 -0.1432 -0.1004
 1531BOLB   C3D36743  33.328  33.859   2.471  0.1968 -0.0343  0.2307
 1531BOLB   C4D36744  33.148  33.516   2.355  0.0036 -0.1468  0.0068
 1532BOLB   NC136745  22.109  21.476   7.170  0.2564 -0.1486 -0.0547
 1532BOLB   PO136746  22.529  21.393   6.974 -0.3615 -0.1229  0.1731
 1532BOLB   GL136747  22.470  21.594   6.443  0.0372  0.2581  0.1248
 1532BOLB   GL236748  22.322  21.937   6.326  0.0453 -0.1656  0.0952
 1532BOLB   C1A36749  22.862  21.855   6.194  0.1031 -0.1122 -0.1068
 1532BOLB   C2A36750  23.244  21.873   5.845 -0.1753 -0.3774  0.0346
 1532BOLB   C3A36751  23.212  22.233   5.606 -0.1522 -0.0029  0.0436
 1532BOLB   C4A36752  23.141  22.583   5.289 -0.2688 -0.1331 -0.0296
 1532BOLB   C1B36753  22.373  21.699   5.891 -0.3094  0.0774 -0.0523
 1532BOLB   C2B36754  22.401  21.340   5.597  0.0466  0.1627 -0.0367
 1532BOLB   C3B36755  22.691  21.398   5.270 -0.1304 -0.0239 -0.2445
 1532BOLB   C4B36756  23.024  21.368   5.086 -0.2263  0.0999 -0.0313
 1532BOLB   NC236757  21.357  22.796   7.190 -0.0711  0.1145 -0.1542
 1532BOLB   PO236758  21.510  22.485   6.871 -0.1345  0.1465  0.0623
 1532BOLB   GL336759  21.643  22.587   6.412 -0.2064  0.4073  0.1112
 1532BOLB   GL436760  21.916  22.384   6.322  0.0678  0.0824 -0.3030
 1532BOLB   C1C36761  21.790  22.917   6.123 -0.0644  0.0902  0.1387
 1532BOLB   C2C36762  22.128  23.093   5.790  0.1168  0.1707  0.0579
 1532BOLB   C3C36763  22.329  22.964   5.364  0.1077 -0.2186 -0.2000
 1532BOLB   C4C36764  22.767  22.800   5.305 -0.3279  0.1589  0.2505
 1532BOLB   C1D36765  21.991  22.270   5.972  0.1711  0.1484  0.0450
 1532BOLB   C2D36766  22.347  22.349   5.616  0.1555 -0.3402 -0.2772
 1532BOLB   C3D36767  22.476  22.374   5.243  0.0548  0.2288  0.1776
 1532BOLB   C4D36768  22.429  22.159   4.828  0.1496 -0.2411 -0.1150
 1533BOLB   NC136769  28.667  26.829   2.683 -0.1445 -0.3966  0.2495
 1533BOLB   PO136770  29.047  26.861   2.666 -0.1174  0.2351 -0.2691
 1533BOLB   GL136771  29.043  26.833   3.136  0.1159 -0.0366 -0.0861
 1533BOLB   GL236772  28.993  27.082   3.241  0.1829 -0.5172  0.0772
 1533BOLB   C1A36773  29.186  26.772   3.536  0.0106 -0.2037  0.0828
 1533BOLB   C2A36774  29.342  26.370   3.825 -0.0042 -0.0649  0.1204
 1533BOLB   C3A36775  29.484  26.114   4.088  0.0204  0.1931 -0.0842
 1533BOLB   C4A36776  29.667  25.744   4.338 -0.1706  0.2921  0.3359
 1533BOLB   C1B36777  28.989  27.432   3.682  0.0328 -0.1638 -0.1023
 1533BOLB   C2B36778  28.849  27.804   3.771  0.0671  0.0069  0.0864
 1533BOLB   C3B36779  28.713  28.108   4.033  0.1502  0.1080  0.1728
 1533BOLB   C4B36780  28.536  28.122   4.356  0.2041  0.1895  0.2862
 1533BOLB   NC236781  31.383  24.204   4.953 -0.0391  0.3780 -0.1573
 1533BOLB   PO236782  31.346  24.485   5.308 -0.3584 -0.3104  0.0940
 1533BOLB   GL336783  31.096  24.683   4.976  0.0788 -0.1233  0.0207
 1533BOLB   GL436784  31.018  24.971   4.997 -0.1651 -0.0207  0.0229
 1533BOLB   C1C36785  30.905  24.747   4.491  0.0095 -0.1478 -0.1142
 1533BOLB   C2C36786  30.462  24.977   4.368  0.2646  0.3296  0.1124
 1533BOLB   C3C36787  30.072  25.015   4.159 -0.2312 -0.1909 -0.1700
 1533BOLB   C4C36788  29.763  25.334   4.123 -0.0341 -0.2067  0.1787
 1533BOLB   C1D36789  30.569  25.009   4.917  0.3728 -0.2658  0.1124
 1533BOLB   C2D36790  30.231  25.124   4.801 -0.3255 -0.4035  0.1929
 1533BOLB   C3D36791  29.859  25.223   4.599  0.1417  0.3060 -0.0002
 1533BOLB   C4D36792  29.545  24.920   4.447 -0.2782 -0.0680 -0.0152
 1534BOLB   NC136793  28.932  34.840   1.337  0.1205 -0.2594  0.2531
 1534BOLB   PO136794  29.306  34.960   1.404 -0.4232  0.1467 -0.2933
 1534BOLB   GL136795  29.378  35.006   1.749 -0.2687  0.1334 -0.0161
 1534BOLB   GL236796  29.238  34.711   2.019  0.0877 -0.2743 -0.1622
 1534BOLB   C1A36797  29.524  35.248   2.155  0.1878 -0.3014  0.1636
 1534BOLB   C2A36798  29.650  35.283   2.607  0.0585  0.0656  0.0752
 1534BOLB   C3A36799  30.025  35.442   2.932  0.1226  0.0545  0.2034
 1534BOLB   C4A36800  30.366  35.727   2.982  0.1259 -0.0448 -0.0222
 1534BOLB   C1B36801  29.289  34.928   2.457  0.1745  0.0881  0.0440
 1534BOLB   C2B36802  29.304  34.887   2.853  0.2035 -0.3013  0.0067
 1534BOLB   C3B36803  29.044  34.951   3.133 -0.0919  0.2595 -0.2927
 1534BOLB   C4B36804  28.985  34.716   3.473 -0.0182 -0.0517 -0.2895
 1534BOLB   NC236805  31.013  37.978   3.886  0.1181  0.0170  0.0526
 1534BOLB   PO236806  30.694  37.837   4.189  0.0726 -0.4843  0.1125
 1534BOLB   GL336807  30.558  37.586   3.788  0.3494 -0.0099  0.1918
 1534BOLB   GL436808  30.202  37.631   3.663  0.2023 -0.3178 -0.0082
 1534BOLB   C1C36809  30.565  37.257   3.435 -0.3212  0.2945 -0.2092
 1534BOLB   C2C36810  30.344  36.912   3.217 -0.4268 -0.1467  0.1523
 1534BOLB   C3C36811  30.468  36.458   3.105 -0.0258 -0.0714  0.2285
 1534BOLB   C4C36812  30.643  36.033   3.095  0.5381  0.0458  0.1539
 1534BOLB   C1D36813  30.150  37.148   3.645  0.1988 -0.1672 -0.2295
 1534BOLB   C2D36814  29.899  36.931   3.378  0.1274 -0.2490 -0.1362
 1534BOLB   C3D36815  29.896  36.531   3.308  0.1240 -0.2047  0.2642
 1534BOLB   C4D36816  29.502  36.191   3.029 -0.0537 -0.0153  0.1405
 1535BOLB   NC136817  20.428  32.645  18.788  0.0565 -0.1849 -0.0937
 1535BOLB   PO136818  20.532  33.039  18.675  0.2110  0.0305  0.0224
 1535BOLB   GL136819  20.173  33.142  18.830 -0.0290 -0.1268  0.0380
 1535BOLB   GL236820  20.045  33.421  18.921 -0.3682 -0.1057 -0.1360
 1535BOLB   C1A36821  19.727  33.099  18.744 -0.2598 -0.0230  0.4507
 1535BOLB   C2A36822  19.368  32.967  18.846 -0.3571 -0.3488 -0.0532
 1535BOLB   C3A36823  18.937  32.828  18.810  0.2902 -0.0033 -0.1318
 1535BOLB   C4A36824  18.535  33.050  18.601 -0.1482  0.0045 -0.0916
 1535BOLB   C1B36825  19.592  33.618  18.762 -0.1243  0.1555  0.2128
 1535BOLB   C2B36826  19.196  33.908  18.699  0.2307  0.1079  0.0483
 1535BOLB   C3B36827  18.943  34.005  18.442  0.3217  0.0072  0.1785
 1535BOLB   C4B36828  18.589  34.232  18.322 -0.2183  0.0493 -0.0008
 1535BOLB   NC236829  17.640  34.432  16.776 -0.2079 -0.4241 -0.0875
 1535BOLB   PO236830  17.524  34.070  16.936  0.1385 -0.0117  0.2383
 1535BOLB   GL336831  17.676  34.134  17.328  0.2861  0.1938  0.1164
 1535BOLB   GL436832  17.499  34.379  17.366 -0.1437 -0.0154 -0.1155
 1535BOLB   C1C36833  17.593  33.986  17.742 -0.0211 -0.0887 -0.0409
 1535BOLB   C2C36834  17.865  33.623  17.865 -0.2671  0.3614  0.1325
 1535BOLB   C3C36835  18.156  33.541  18.242 -0.0308  0.0238  0.1296
 1535BOLB   C4C36836  18.203  33.298  18.538 -0.0141  0.2387 -0.0363
 1535BOLB   C1D36837  17.840  34.628  17.487 -0.0047 -0.7060  0.1673
 1535BOLB   C2D36838  18.158  34.566  17.807  0.0027  0.1681 -0.0418
 1535BOLB   C3D36839  18.533  34.649  18.091 -0.2836  0.1257  0.2764
 1535BOLB   C4D36840  18.906  34.969  18.270 -0.0772  0.0621  0.0143
 1536BOLB   NC136841  34.837  34.047  19.218  0.0697  0.2630 -0.1842
 1536BOLB   PO136842  35.075  33.621  19.077  0.1112 -0.0329  0.1153
 1536BOLB   GL136843  35.446  33.647  18.788 -0.2930  0.0065 -0.0834
 1536BOLB   GL236844  35.222  33.780  18.598  0.0432  0.0211 -0.0719
 1536BOLB   C1A36845  35.824  33.865  18.720 -0.1997  0.0233  0.0258
 1536BOLB   C2A36846  36.259  33.733  18.670  0.4304  0.1306  0.4707
 1536BOLB   C3A36847  36.612  33.885  18.495  0.0277  0.1243 -0.0430
 1536BOLB   C4A36848  36.757  34.257  18.329 -0.0046  0.6483  0.0081
 1536BOLB   C1B36849  35.376  34.159  18.401 -0.1104  0.2606 -0.0861
 1536BOLB   C2B36850  35.471  34.539  18.247  0.4862 -0.0245  0.0259
 1536BOLB   C3B36851  35.505  34.899  18.476 -0.0001 -0.0684 -0.1986
 1536BOLB   C4B36852  35.683  35.231  18.568  0.2768 -0.0566 -0.0809
 1536BOLB   NC236853  38.288  35.641  18.754  0.1148 -0.0562 -0.2776
 1536BOLB   PO236854  38.068  36.014  18.688 -0.0289 -0.0793  0.2125
 1536BOLB   GL336855  37.824  35.679  18.512 -0.4184  0.1135 -0.3189
 1536BOLB   GL436856  37.690  35.771  18.865 -0.5670  0.2397 -0.1984
 1536BOLB   C1C36857  37.627  35.325  18.464  0.2992 -0.3348  0.2960
 1536BOLB   C2C36858  37.247  35.225  18.691  0.1023 -0.1788  0.0172
 1536BOLB   C3C36859  37.032  34.882  18.873  0.0626  0.0560 -0.1180
 1536BOLB   C4C36860  36.706  34.699  18.534 -0.0150  0.1947 -0.0318
 1536BOLB   C1D36861  37.518  35.744  19.327  0.1942  0.1559  0.2290
 1536BOLB   C2D36862  37.395  35.417  19.573  0.1262  0.0759 -0.0964
 1536BOLB   C3D36863  36.955  35.235  19.633 -0.5706  0.0906  0.0409
 1536BOLB   C4D36864  36.646  35.067  19.854 -0.2616 -0.2642  0.2477
 1537BOLB   NC136865  20.899  34.177  23.965 -0.1520 -0.1859 -0.0000
 1537BOLB   PO136866  21.205  34.320  24.219 -0.3391  0.0262 -0.0339
 1537BOLB   GL136867  20.826  34.613  24.361  0.1618  0.0925  0.1649
 1537BOLB   GL236868  20.593  34.514  24.157  0.0598  0.1446  0.0737
 1537BOLB   C1A36869  20.588  35.188  24.514 -0.1054  0.0145  0.1395
 1537BOLB   C2A36870  20.288  35.529  24.623  0.3465 -0.2545 -0.0700
 1537BOLB   C3A36871  20.094  35.817  24.620  0.1355 -0.0236  0.1312
 1537BOLB   C4A36872  19.661  36.002  24.652 -0.1905  0.0285 -0.3246
 1537BOLB   C1B36873  20.299  34.907  24.175  0.1060  0.3199 -0.0051
 1537BOLB   C2B36874  19.909  35.169  24.260  0.3798 -0.0623 -0.0863
 1537BOLB   C3B36875  19.882  35.565  24.263 -0.3455 -0.0538 -0.1414
 1537BOLB   C4B36876  19.611  35.940  24.136 -0.3476  0.1264 -0.1066
 1537BOLB   NC236877  17.814  37.194  23.547  0.1033  0.0120  0.1134
 1537BOLB   PO236878  18.132  37.403  23.816  0.0517 -0.0576 -0.0607
 1537BOLB   GL336879  18.307  37.064  23.829 -0.2021  0.1838  0.0304
 1537BOLB   GL436880  18.515  37.170  23.564 -0.0612  0.4671 -0.0118
 1537BOLB   C1C36881  18.505  36.723  23.921  0.3066 -0.1323 -0.2397
 1537BOLB   C2C36882  18.895  36.553  23.812 -0.0645  0.2492  0.1260
 1537BOLB   C3C36883  19.268  36.358  24.032 -0.1899  0.1357  0.0471
 1537BOLB   C4C36884  19.475  36.396  24.370  0.1070  0.0783 -0.2032
 1537BOLB   C1D36885  18.582  36.743  23.407 -0.0676  0.3239 -0.4526
 1537BOLB   C2D36886  18.695  36.320  23.235  0.3339 -0.0429 -0.1302
 1537BOLB   C3D36887  18.650  36.022  22.930 -0.0841  0.2170  0.1556
 1537BOLB   C4D36888  18.806  35.614  22.863 -0.1354  0.0260  0.1125
 1538BOLB   NC136889  35.248  29.751  23.359  0.0332  0.0841  0.1448
 1538BOLB   PO136890  35.650  29.794  23.346  0.1330 -0.1034  0.0117
 1538BOLB   GL136891  36.008  29.725  23.447 -0.1589 -0.2331  0.4379
 1538BOLB   GL236892  36.030  29.629  23.871 -0.1104  0.0704 -0.1397
 1538BOLB   C1A36893  36.391  29.612  23.341  0.1527 -0.2650  0.1457
 1538BOLB   C2A36894  36.601  29.345  23.240 -0.1215  0.1745  0.2284
 1538BOLB   C3A36895  37.034  29.298  23.160 -0.0816 -0.0055  0.1541
 1538BOLB   C4A36896  37.484  29.125  22.962 -0.1062 -0.0027  0.0711
 1538BOLB   C1B36897  36.452  29.569  23.846 -0.1734  0.3146 -0.0795
 1538BOLB   C2B36898  36.862  29.798  23.963  0.1935  0.4815 -0.2002
 1538BOLB   C3B36899  37.246  29.550  24.114  0.0027 -0.3651  0.3612
 1538BOLB   C4B36900  37.492  29.228  24.213 -0.1255  0.0146 -0.0147
 1538BOLB   NC236901  40.193  28.446  23.268  0.0619 -0.0054  0.0577
 1538BOLB   PO236902  39.883  28.159  23.224 -0.2452 -0.1594  0.1324
 1538BOLB   GL336903  39.480  28.205  22.939  0.1002 -0.0080 -0.1106
 1538BOLB   GL436904  39.283  28.005  23.228  0.0964  0.1605  0.1872
 1538BOLB   C1C36905  39.066  28.417  22.975  0.0734  0.1469  0.0765
 1538BOLB   C2C36906  38.594  28.612  22.958 -0.1260 -0.0521 -0.0369
 1538BOLB   C3C36907  38.147  28.791  22.921  0.0159 -0.1575 -0.3147
 1538BOLB   C4C36908  37.896  29.026  22.826 -0.1320 -0.3492 -0.1411
 1538BOLB   C1D36909  38.894  28.009  23.140  0.2051  0.0686 -0.0798
 1538BOLB   C2D36910  38.496  28.207  23.295 -0.0076  0.1100  0.2319
 1538BOLB   C3D36911  38.144  28.368  23.204  0.1874 -0.1097  0.0548
 1538BOLB   C4D36912  37.663  28.232  22.994  0.3186  0.1440 -0.1209
 1539BOLB   NC136913  27.765  37.669  22.724 -0.3940  0.4003  0.0556
 1539BOLB   PO136914  27.441  37.920  22.581  0.2073 -0.1973 -0.1567
 1539BOLB   GL136915  27.441  38.303  22.372 -0.0617 -0.1128  0.0813
 1539BOLB   GL236916  27.249  38.333  22.089  0.2471 -0.1785  0.3430
 1539BOLB   C1A36917  27.656  38.767  22.393 -0.2594  0.2285 -0.0483
 1539BOLB   C2A36918  27.765  39.171  22.315 -0.1179  0.1088 -0.0581
 1539BOLB   C3A36919  27.691  39.588  22.547 -0.0864 -0.2174 -0.0819
 1539BOLB   C4A36920  27.545  39.893  22.785  0.0800 -0.3652  0.1900
 1539BOLB   C1B36921  27.220  38.772  22.119  0.4551 -0.1913  0.2036
 1539BOLB   C2B36922  27.476  39.156  21.870  0.0319 -0.0547  0.1794
 1539BOLB   C3B36923  27.289  39.411  21.624 -0.2928 -0.2061  0.1436
 1539BOLB   C4B36924  27.476  39.847  21.434  0.1019 -0.4429 -0.0804
 1539BOLB   NC236925  28.632  42.194  23.158 -0.3309  0.1107 -0.0381
 1539BOLB   PO236926  28.699  41.891  22.748  0.3686 -0.1336 -0.2141
 1539BOLB   GL336927  28.452  41.574  22.775  0.0324 -0.0169  0.1566
 1539BOLB   GL436928  28.408  41.309  22.477  0.1518  0.2069  0.1355
 1539BOLB   C1C36929  28.111  41.346  23.021  0.2888 -0.0380  0.0675
 1539BOLB   C2C36930  27.810  41.069  23.008 -0.4340 -0.1342 -0.1877
 1539BOLB   C3C36931  27.628  40.670  23.125  0.0932 -0.1686  0.0490
 1539BOLB   C4C36932  27.354  40.287  22.971 -0.0983  0.1234  0.2580
 1539BOLB   C1D36933  28.221  41.006  22.650 -0.1781  0.1624 -0.1511
 1539BOLB   C2D36934  27.997  40.625  22.783 -0.0660  0.2066  0.1754
 1539BOLB   C3D36935  27.895  40.217  23.053 -0.1217 -0.2719  0.1457
 1539BOLB   C4D36936  27.921  39.772  23.114  0.1523 -0.2741 -0.1009
 1540BOLB   NC136937  26.977  24.368  15.791 -0.3765 -0.0217 -0.1462
 1540BOLB   PO136938  27.358  24.489  15.593  0.4872 -0.2878 -0.0539
 1540BOLB   GL136939  27.346  24.258  15.172  0.0460 -0.0156 -0.0039
 1540BOLB   GL236940  27.107  24.031  15.295 -0.0324  0.4007  0.1718
 1540BOLB   C1A36941  27.218  24.070  14.750 -0.2095 -0.0369  0.1955
 1540BOLB   C2A36942  27.072  23.789  14.427  0.1901 -0.2969 -0.3235
 1540BOLB   C3A36943  26.867  23.442  14.274  0.1273  0.0829 -0.3189
 1540BOLB   C4A36944  26.679  23.381  13.872  0.1617  0.0902  0.1307
 1540BOLB   C1B36945  27.276  23.696  15.055 -0.2351 -0.2313 -0.1829
 1540BOLB   C2B36946  27.256  23.374  14.722  0.2479 -0.0185  0.1591
 1540BOLB   C3B36947  27.180  23.028  14.419  0.1179  0.1497  0.2529
 1540BOLB   C4B36948  26.922  22.590  14.232  0.0106 -0.0166 -0.1122
 1540BOLB   NC236949  25.343  22.604  11.701 -0.1721 -0.2097 -0.0790
 1540BOLB   PO236950  25.665  22.715  11.878 -0.1544 -0.2411 -0.1072
 1540BOLB   GL336951  25.741  22.531  12.178  0.0999  0.3081  0.2830
 1540BOLB   GL436952  26.075  22.680  12.219  0.0630 -0.0834 -0.0765
 1540BOLB   C1C36953  25.832  22.762  12.624 -0.3106 -0.1310 -0.3923
 1540BOLB   C2C36954  25.939  22.981  12.981 -0.1375  0.1055 -0.0440
 1540BOLB   C3C36955  26.167  23.145  13.322 -0.0624 -0.2944 -0.0631
 1540BOLB   C4C36956  26.390  23.388  13.657 -0.0557 -0.1743  0.1686
 1540BOLB   C1D36957  26.296  22.993  12.571 -0.0649  0.3785  0.0924
 1540BOLB   C2D36958  26.210  23.386  12.789 -0.0545 -0.1201  0.0229
 1540BOLB   C3D36959  26.169  23.690  13.131 -0.0031  0.0656  0.2037
 1540BOLB   C4D36960  26.121  23.775  13.516 -0.2198  0.0099  0.1586
 1541BOLB   NC136961  35.106  29.676  17.781 -0.0341  0.1263  0.1497
 1541BOLB   PO136962  35.182  29.644  17.357  0.0267 -0.1307 -0.1921
 1541BOLB   GL136963  35.458  29.760  17.061 -0.0153 -0.1227 -0.2581
 1541BOLB   GL236964  35.504  29.565  16.888  0.0135  0.1561 -0.0154
 1541BOLB   C1A36965  35.904  29.706  17.138 -0.2040 -0.1826  0.1867
 1541BOLB   C2A36966  36.335  29.878  17.223 -0.0043 -0.0658  0.1736
 1541BOLB   C3A36967  36.633  30.123  17.179  0.0295 -0.2715 -0.3357
 1541BOLB   C4A36968  37.110  30.157  17.302  0.0157  0.0815 -0.1576
 1541BOLB   C1B36969  35.723  29.757  16.643  0.2832 -0.1476 -0.1231
 1541BOLB   C2B36970  35.952  30.065  16.398  0.1877 -0.1095 -0.1848
 1541BOLB   C3B36971  36.444  30.189  16.284  0.2009  0.0160  0.0234
 1541BOLB   C4B36972  36.846  30.067  16.184 -0.0377 -0.1921  0.3005
 1541BOLB   NC236973  39.175  29.620  17.082 -0.0706  0.0980  0.1361
 1541BOLB   PO236974  39.265  29.355  17.399  0.1033 -0.3532  0.3088
 1541BOLB   GL336975  38.916  29.690  17.506  0.4109  0.2841  0.0177
 1541BOLB   GL436976  38.981  29.631  17.852 -0.2408  0.2292  0.2285
 1541BOLB   C1C36977  38.507  29.804  17.545 -0.1072 -0.3713 -0.0362
 1541BOLB   C2C36978  38.236  30.134  17.788 -0.1069  0.1007  0.0316
 1541BOLB   C3C36979  37.842  30.303  17.593  0.0971 -0.0232 -0.2199
 1541BOLB   C4C36980  37.503  30.281  17.289  0.1959  0.1532 -0.0907
 1541BOLB   C1D36981  38.645  29.347  17.764 -0.0117  0.1026 -0.0292
 1541BOLB   C2D36982  38.344  29.163  17.964  0.1158  0.1231  0.0230
 1541BOLB   C3D36983  37.985  29.103  18.098 -0.0229 -0.0155  0.1123
 1541BOLB   C4D36984  37.810  28.876  17.787  0.0114 -0.1882  0.0419
 1542BOLB   NC136985  31.510  28.112   1.868 -0.2044  0.1302 -0.0270
 1542BOLB   PO136986  31.943  28.107   1.755  0.1943 -0.4137 -0.3639
 1542BOLB   GL136987  32.244  27.969   2.070 -0.2340 -0.2080 -0.0417
 1542BOLB   GL236988  32.489  27.741   1.938 -0.0701 -0.0117 -0.0492
 1542BOLB   C1A36989  32.454  27.687   2.413  0.1084  0.2230  0.2762
 1542BOLB   C2A36990  32.430  27.595   2.875  0.3148  0.1962  0.0059
 1542BOLB   C3A36991  32.433  27.638   3.264 -0.1283  0.0071 -0.2650
 1542BOLB   C4A36992  32.499  27.588   3.671  0.0718  0.2725  0.5105
 1542BOLB   C1B36993  32.935  27.745   2.289  0.2379 -0.2453 -0.0098
 1542BOLB   C2B36994  32.875  27.748   2.734  0.5493 -0.0554 -0.2932
 1542BOLB   C3B36995  32.900  27.787   3.138  0.3184 -0.1557  0.2800
 1542BOLB   C4B36996  33.189  27.574   3.394 -0.0133 -0.3875 -0.1396
 1542BOLB   NC236997  32.766  26.635   5.834 -0.2516  0.3363  0.0050
 1542BOLB   PO236998  33.154  26.638   5.544 -0.0581  0.1117 -0.1331
 1542BOLB   GL336999  33.132  26.641   5.130 -0.0150 -0.0888 -0.3838
 1542BOLB   GL437000  33.161  26.405   4.932  0.1059 -0.1058 -0.1990
 1542BOLB   C1C37001  33.167  26.897   4.786  0.2102  0.1902  0.1055
 1542BOLB   C2C37002  33.097  27.043   4.457  0.2430 -0.1014 -0.4357
 1542BOLB   C3C37003  33.102  27.194   3.900 -0.4161  0.0351  0.0989
 1542BOLB   C4C37004  32.767  27.365   3.775 -0.3017 -0.4404  0.0712
 1542BOLB   C1D37005  33.189  26.350   4.521  0.1297 -0.1978  0.2403
 1542BOLB   C2D37006  32.956  26.254   4.198  0.0311 -0.3562  0.2083
 1542BOLB   C3D37007  32.593  26.166   3.872 -0.1599  0.1740  0.0568
 1542BOLB   C4D37008  32.130  26.219   3.854 -0.0737  0.1137 -0.1914
 1543BOLB   NC137009  33.717  24.122  23.793  0.2137 -0.2926 -0.0487
 1543BOLB   PO137010  34.128  24.283  23.872  0.1858 -0.3724 -0.0397
 1543BOLB   GL137011  34.454  24.337  23.843 -0.0732  0.2824  0.1575
 1543BOLB   GL237012  34.620  24.121  23.685 -0.1761  0.0809 -0.0450
 1543BOLB   C1A37013  34.766  24.319  24.118  0.0666  0.0555 -0.0022
 1543BOLB   C2A37014  35.097  24.174  24.379  0.1860 -0.1851  0.1104
 1543BOLB   C3A37015  35.510  24.247  24.555 -0.0606  0.0349  0.3742
 1543BOLB   C4A37016  35.750  24.298  24.927  0.1821 -0.0420  0.3711
 1543BOLB   C1B37017  35.062  23.984  23.763 -0.3642 -0.1492  0.0917
 1543BOLB   C2B37018  35.466  23.942  23.819 -0.2633 -0.0688  0.0053
 1543BOLB   C3B37019  35.897  23.681  23.718 -0.0955 -0.0619  0.1906
 1543BOLB   C4B37020  36.272  23.563  23.532 -0.1273  0.4947  0.0626
 1543BOLB   NC237021  37.407  23.805  24.536  0.2063 -0.2360 -0.2489
 1543BOLB   PO237022  37.557  23.606  24.970  0.2682  0.2873  0.0279
 1543BOLB   GL337023  37.160  23.412  25.137  0.0952 -0.1647  0.0700
 1543BOLB   GL437024  37.132  23.144  24.939  0.0754  0.2065 -0.0863
 1543BOLB   C1C37025  37.018  23.350  25.553  0.3034  0.2687 -0.0140
 1543BOLB   C2C37026  36.553  23.512  25.587 -0.0061 -0.0395 -0.3011
 1543BOLB   C3C37027  36.253  23.614  25.389 -0.1869  0.0811 -0.2539
 1543BOLB   C4C37028  35.962  23.894  25.186  0.3362 -0.1870  0.0476
 1543BOLB   C1D37029  36.852  23.580  24.864 -0.0582 -0.0088  0.2689
 1543BOLB   C2D37030  36.601  23.942  24.636  0.2133  0.1729 -0.2605
 1543BOLB   C3D37031  36.695  24.351  24.591  0.1794 -0.1925 -0.1500
 1543BOLB   C4D37032  37.077  24.514  24.418  0.0195 -0.1930  0.1573
 1544BOLB   NC137033  24.738  34.990   0.308  0.1775  0.0879  0.2173
 1544BOLB   PO137034  24.983  35.433   0.336 -0.1533  0.1470  0.0815
 1544BOLB   GL137035  24.883  35.712   0.680 -0.1204  0.0110 -0.1242
 1544BOLB   GL237036  24.546  35.885   0.748  0.0421 -0.1350  0.1416
 1544BOLB   C1A37037  25.156  36.089   0.927  0.1649 -0.2539 -0.1358
 1544BOLB   C2A37038  24.991  36.415   1.186 -0.0437 -0.0517  0.1215
 1544BOLB   C3A37039  24.752  36.671   1.234 -0.0489  0.1839 -0.2122
 1544BOLB   C4A37040  24.379  36.728   1.487 -0.1292 -0.1640 -0.3747
 1544BOLB   C1B37041  24.766  36.168   0.630 -0.0328 -0.0566 -0.0299
 1544BOLB   C2B37042  24.912  36.587   0.614 -0.5718 -0.2124 -0.0571
 1544BOLB   C3B37043  24.911  36.934   0.862  0.1352 -0.0104  0.0321
 1544BOLB   C4B37044  24.966  37.362   0.960  0.1571  0.1750  0.0495
 1544BOLB   NC237045  23.973  38.329   2.700 -0.1545  0.0252 -0.1897
 1544BOLB   PO237046  23.832  38.775   2.772 -0.2475 -0.1445  0.2571
 1544BOLB   GL337047  23.698  38.638   2.363 -0.2272 -0.1179  0.0983
 1544BOLB   GL437048  24.154  38.570   2.261 -0.0305 -0.0744 -0.0049
 1544BOLB   C1C37049  23.777  38.264   2.125  0.3077  0.1642 -0.2727
 1544BOLB   C2C37050  23.933  37.742   1.947  0.2837  0.5618 -0.1895
 1544BOLB   C3C37051  24.027  37.325   1.821 -0.0519 -0.0869 -0.0252
 1544BOLB   C4C37052  24.193  37.089   1.601 -0.1409 -0.1934  0.2587
 1544BOLB   C1D37053  24.255  38.375   1.915 -0.3481  0.1276  0.2083
 1544BOLB   C2D37054  24.728  38.323   1.746  0.0321  0.0636 -0.1001
 1544BOLB   C3D37055  25.147  38.238   1.885 -0.2509  0.2759  0.1003
 1544BOLB   C4D37056  25.365  38.053   2.122 -0.1095  0.0836 -0.2220
 1545BOLB   NC137057  20.548  32.699  25.512 -0.1894  0.3184  0.3012
 1545BOLB   PO137058  20.386  32.320  25.627 -0.2009  0.0871  0.1060
 1545BOLB   GL137059  19.981  32.300  25.559  0.1332 -0.3037  0.4964
 1545BOLB   GL237060  19.844  32.008  25.671  0.1042 -0.1399 -0.0478
 1545BOLB   C1A37061  19.745  32.607  25.829  0.0155 -0.2335 -0.2655
 1545BOLB   C2A37062  19.498  33.016  25.856  0.3098 -0.0668  0.0396
 1545BOLB   C3A37063  19.148  33.319  25.790  0.0733  0.2473 -0.2045
 1545BOLB   C4A37064  18.956  33.706  25.870 -0.2481  0.1014 -0.2205
 1545BOLB   C1B37065  19.473  31.777  25.932 -0.0560  0.1164  0.4121
 1545BOLB   C2B37066  19.056  31.460  25.954  0.1829 -0.0985 -0.0110
 1545BOLB   C3B37067  18.689  31.403  26.204 -0.0971  0.0800  0.3448
 1545BOLB   C4B37068  18.527  31.224  26.666 -0.2644  0.0266  0.1982
 1545BOLB   NC237069  17.923  34.578   0.963  0.0741  0.1337  0.0473
 1545BOLB   PO237070  18.336  34.832   1.039  0.1318 -0.0355  0.0084
 1545BOLB   GL337071  18.332  34.735   0.663 -0.2145 -0.3554  0.0504
 1545BOLB   GL437072  18.598  34.818   0.551 -0.1027 -0.3565  0.0415
 1545BOLB   C1C37073  18.120  34.372   0.356  0.3937 -0.0194  0.1533
 1545BOLB   C2C37074  18.126  34.136  26.868  0.3665 -0.0948 -0.0188
 1545BOLB   C3C37075  18.430  34.046  26.480 -0.1121  0.4057 -0.0820
 1545BOLB   C4C37076  18.705  33.881  26.129  0.1320 -0.0419  0.0340
 1545BOLB   C1D37077  19.057  34.728   0.402 -0.3901 -0.0318 -0.3411
 1545BOLB   C2D37078  19.435  34.692   0.258 -0.0312  0.0510 -0.1363
 1545BOLB   C3D37079  19.701  34.454  26.837 -0.1277 -0.5333 -0.1302
 1545BOLB   C4D37080  19.977  34.123  26.703  0.1040 -0.4061 -0.0824
 1546BOLB   NC137081  21.125  35.011  24.154 -0.2066  0.1360  0.3202
 1546BOLB   PO137082  20.947  34.606  23.784 -0.1718 -0.0882 -0.1057
 1546BOLB   GL137083  20.720  34.949  23.875  0.1967  0.0352  0.2403
 1546BOLB   GL237084  20.809  35.062  23.609 -0.0345  0.0870 -0.0125
 1546BOLB   C1A37085  20.537  35.298  24.015 -0.2565 -0.0342  0.1887
 1546BOLB   C2A37086  20.727  35.609  24.298  0.1540 -0.1063 -0.0002
 1546BOLB   C3A37087  20.632  35.858  24.651  0.3104  0.1371  0.0746
 1546BOLB   C4A37088  20.488  36.152  24.930  0.0126 -0.3571  0.1523
 1546BOLB   C1B37089  20.695  35.481  23.570  0.0992  0.1143  0.1106
 1546BOLB   C2B37090  20.504  35.759  23.909  0.1288 -0.2382 -0.1503
 1546BOLB   C3B37091  20.163  35.985  24.076 -0.2011  0.0157 -0.4159
 1546BOLB   C4B37092  19.903  36.255  24.258  0.1148  0.1684  0.0361
 1546BOLB   NC237093  19.156  38.081  26.218  0.2755  0.2955 -0.2464
 1546BOLB   PO237094  19.167  37.604  26.238  0.1570 -0.0251 -0.1373
 1546BOLB   GL337095  19.407  37.316  26.063 -0.2179  0.2592 -0.1576
 1546BOLB   GL437096  19.300  37.046  26.117  0.0180 -0.2398 -0.0027
 1546BOLB   C1C37097  19.815  37.088  26.107  0.2894  0.1471  0.1807
 1546BOLB   C2C37098  20.078  36.956  25.832  0.1811 -0.2897  0.0024
 1546BOLB   C3C37099  20.273  36.673  25.533 -0.1336  0.4098  0.0354
 1546BOLB   C4C37100  20.350  36.416  25.226  0.0202  0.0534  0.1733
 1546BOLB   C1D37101  19.603  36.698  26.308 -0.2080 -0.1664  0.2951
 1546BOLB   C2D37102  19.767  36.585  26.663  0.2098  0.0218 -0.0930
 1546BOLB   C3D37103  20.023  36.573   0.082 -0.0838 -0.3143 -0.1129
 1546BOLB   C4D37104  20.071  36.194   0.308  0.0739 -0.0863 -0.1060
 1547BOLB   NC137105  26.049  38.032  22.699  0.1776 -0.0383  0.1891
 1547BOLB   PO137106  25.704  38.031  22.315  0.0781  0.0539  0.2439
 1547BOLB   GL137107  25.785  38.443  22.376  0.2575  0.2221  0.1304
 1547BOLB   GL237108  26.005  38.519  22.741 -0.1483 -0.4610 -0.0027
 1547BOLB   C1A37109  26.128  38.805  22.290 -0.0927  0.3408  0.0118
 1547BOLB   C2A37110  26.681  38.976  22.306  0.3444  0.2144 -0.2101
 1547BOLB   C3A37111  27.118  39.246  22.328 -0.0017  0.1359  0.0105
 1547BOLB   C4A37112  27.292  39.631  22.299  0.1197 -0.3226  0.3494
 1547BOLB   C1B37113  25.907  38.884  22.908  0.1056  0.1118  0.0360
 1547BOLB   C2B37114  26.135  39.094  23.137  0.0414 -0.0441 -0.1597
 1547BOLB   C3B37115  26.231  39.330  23.556 -0.1866 -0.1215  0.2089
 1547BOLB   C4B37116  26.425  39.598  23.687  0.1468  0.0165 -0.1648
 1547BOLB   NC237117  26.229  41.762  23.034 -0.1240 -0.2033 -0.0422
 1547BOLB   PO237118  26.346  41.652  23.451 -0.0113 -0.1144  0.0013
 1547BOLB   GL337119  26.597  41.404  23.358  0.3200  0.3475  0.2561
 1547BOLB   GL437120  26.569  41.138  23.717  0.0414  0.2394 -0.4347
 1547BOLB   C1C37121  26.648  40.975  23.167  0.2911  0.0643  0.1659
 1547BOLB   C2C37122  26.805  40.671  22.870  0.0510 -0.1777  0.0082
 1547BOLB   C3C37123  26.938  40.329  22.664 -0.1395  0.0452  0.0993
 1547BOLB   C4C37124  27.108  40.021  22.346  0.3142 -0.3516 -0.0403
 1547BOLB   C1D37125  26.571  40.677  23.601 -0.1264 -0.0911  0.1430
 1547BOLB   C2D37126  26.816  40.265  23.663 -0.0669  0.2276  0.0923
 1547BOLB   C3D37127  26.831  39.797  23.515  0.2826 -0.1111  0.0560
 1547BOLB   C4D37128  27.005  39.406  23.217  0.2534  0.0124 -0.1252
 1548BOLB   NC137129  32.566  23.273  19.737  0.1223 -0.2248  0.0945
 1548BOLB   PO137130  32.677  23.655  19.969  0.2854  0.0412  0.1007
 1548BOLB   GL137131  33.019  23.499  20.199 -0.2356  0.2696 -0.1256
 1548BOLB   GL237132  32.873  23.198  20.099  0.0350  0.2315  0.2006
 1548BOLB   C1A37133  33.355  23.098  20.329 -0.0352  0.0888 -0.1826
 1548BOLB   C2A37134  33.756  22.926  20.481  0.1584  0.2977 -0.2657
 1548BOLB   C3A37135  34.066  22.598  20.489  0.1237 -0.1507 -0.1348
 1548BOLB   C4A37136  34.395  22.315  20.401 -0.3933 -0.1116 -0.0582
 1548BOLB   C1B37137  33.045  22.945  19.875 -0.1779 -0.0779  0.1928
 1548BOLB   C2B37138  33.268  22.607  19.762  0.2224 -0.0354  0.2316
 1548BOLB   C3B37139  33.602  22.283  19.655  0.2051 -0.1499 -0.1247
 1548BOLB   C4B37140  33.971  22.389  19.456 -0.0170  0.1795 -0.0839
 1548BOLB   NC237141  36.131  20.757  19.659  0.1882  0.0975 -0.0407
 1548BOLB   PO237142  35.762  20.795  19.302  0.1707  0.0306 -0.0850
 1548BOLB   GL337143  35.579  21.109  19.563 -0.0083  0.3864 -0.1130
 1548BOLB   GL437144  35.247  20.971  19.603  0.0640  0.2201  0.0713
 1548BOLB   C1C37145  35.293  21.393  19.780  0.1645  0.0480  0.0646
 1548BOLB   C2C37146  34.986  21.518  19.946 -0.1269  0.1754 -0.0276
 1548BOLB   C3C37147  34.794  21.683  20.305 -0.1435 -0.2006  0.0627
 1548BOLB   C4C37148  34.479  22.001  20.436 -0.2657  0.2462  0.0810
 1548BOLB   C1D37149  34.857  21.060  19.620 -0.0235  0.2657  0.0625
 1548BOLB   C2D37150  34.562  21.186  19.458 -0.0378 -0.2381 -0.0240
 1548BOLB   C3D37151  34.178  21.441  19.424  0.1358 -0.0494 -0.1440
 1548BOLB   C4D37152  34.099  21.854  19.595  0.0225  0.0874  0.2218
 1549BOLB   NC137153  33.234  27.467   0.067 -0.3569  0.1465  0.1423
 1549BOLB   PO137154  33.205  27.790   0.212  0.1640  0.0608 -0.1887
 1549BOLB   GL137155  33.535  27.589   0.428 -0.0064  0.2619  0.2419
 1549BOLB   GL237156  33.557  27.643   0.699 -0.0428  0.0729 -0.0038
 1549BOLB   C1A37157  33.950  27.756   0.539 -0.0062 -0.2783 -0.1103
 1549BOLB   C2A37158  34.283  27.888   0.678  0.0622 -0.5844 -0.2092
 1549BOLB   C3A37159  34.616  27.816   0.882 -0.0695 -0.0096  0.1407
 1549BOLB   C4A37160  35.015  27.919   0.877  0.0908 -0.2679 -0.1417
 1549BOLB   C1B37161  33.763  27.705   1.094  0.0404  0.1305  0.0607
 1549BOLB   C2B37162  33.977  27.879   1.521 -0.1714 -0.2666  0.0469
 1549BOLB   C3B37163  34.312  27.992   1.735 -0.4492  0.0047  0.0144
 1549BOLB   C4B37164  34.525  27.816   2.024 -0.1485 -0.3364  0.1430
 1549BOLB   NC237165  36.986  26.857   1.922  0.0351 -0.0696 -0.0821
 1549BOLB   PO237166  37.155  26.956   1.585  0.1331  0.2610  0.0676
 1549BOLB   GL337167  36.832  27.015   1.301 -0.0330 -0.1264 -0.1372
 1549BOLB   GL437168  36.867  26.904   1.007 -0.0629 -0.0431 -0.2129
 1549BOLB   C1C37169  36.678  27.446   1.332  0.0461  0.0981  0.0558
 1549BOLB   C2C37170  36.259  27.605   1.470 -0.1429 -0.0943  0.1331
 1549BOLB   C3C37171  35.909  27.550   1.208  0.2607 -0.1887 -0.1270
 1549BOLB   C4C37172  35.472  27.759   0.976 -0.0914 -0.2362 -0.0391
 1549BOLB   C1D37173  36.554  27.124   0.950 -0.2717  0.0856  0.1071
 1549BOLB   C2D37174  36.283  27.426   0.820  0.1883  0.2794  0.2008
 1549BOLB   C3D37175  35.942  27.638   0.662  0.1440 -0.0396 -0.0107
 1549BOLB   C4D37176  35.810  27.675   0.238  0.2156 -0.1281 -0.1182
 1550BOLB   NC137177  28.090  28.753   2.713  0.2530  0.2877 -0.0342
 1550BOLB   PO137178  28.048  28.785   3.145 -0.2766  0.0490 -0.3490
 1550BOLB   GL137179  27.983  28.707   3.587 -0.1072  0.2553  0.0841
 1550BOLB   GL237180  28.179  28.931   3.797 -0.1441  0.1494  0.1149
 1550BOLB   C1A37181  28.032  28.362   3.897 -0.0173 -0.5432  0.1284
 1550BOLB   C2A37182  28.092  28.318   4.399 -0.4016 -0.0250  0.1942
 1550BOLB   C3A37183  28.165  28.038   4.676 -0.1996 -0.0033 -0.0517
 1550BOLB   C4A37184  28.192  27.797   5.132  0.2872 -0.0796 -0.0354
 1550BOLB   C1B37185  28.122  29.035   4.156  0.1262  0.0360  0.1380
 1550BOLB   C2B37186  28.313  28.919   4.573 -0.2359 -0.3644 -0.2005
 1550BOLB   C3B37187  28.535  28.832   4.978 -0.1924  0.1574  0.1556
 1550BOLB   C4B37188  28.586  28.742   5.342 -0.1356  0.1380  0.2059
 1550BOLB   NC237189  29.049  26.611   7.347 -0.0941  0.1841  0.1154
 1550BOLB   PO237190  29.297  26.514   6.980 -0.2807 -0.1622  0.1743
 1550BOLB   GL337191  29.061  26.855   6.740 -0.1464 -0.0101 -0.0477
 1550BOLB   GL437192  28.987  26.544   6.615 -0.1773 -0.1826 -0.5467
 1550BOLB   C1C37193  28.795  27.074   6.313 -0.2834 -0.3541 -0.4081
 1550BOLB   C2C37194  28.539  27.156   6.029  0.0614 -0.0406 -0.2098
 1550BOLB   C3C37195  28.284  27.370   5.828 -0.2421  0.2321 -0.1941
 1550BOLB   C4C37196  28.071  27.492   5.396  0.0306  0.1749  0.0262
 1550BOLB   C1D37197  28.901  26.551   6.130  0.0056 -0.3025 -0.2696
 1550BOLB   C2D37198  28.941  26.410   5.733  0.0769  0.0768  0.1239
 1550BOLB   C3D37199  29.095  25.932   5.614 -0.0979 -0.1971  0.0724
 1550BOLB   C4D37200  28.941  25.554   5.342 -0.0915 -0.2271 -0.2065
 1551BOLB   NC137201  25.420  21.650  19.903 -0.0708 -0.0819  0.1415
 1551BOLB   PO137202  25.161  21.434  19.618 -0.1087  0.0978  0.2565
 1551BOLB   GL137203  25.164  21.079  19.471  0.0671 -0.0489  0.1827
 1551BOLB   GL237204  24.961  21.173  19.178 -0.4434  0.0081  0.0877
 1551BOLB   C1A37205  25.205  20.638  19.382  0.2024 -0.1023 -0.0150
 1551BOLB   C2A37206  25.123  20.176  19.487 -0.0933 -0.2138 -0.2112
 1551BOLB   C3A37207  25.146  19.740  19.356 -0.0355 -0.1324 -0.0974
 1551BOLB   C4A37208  25.135  19.328  18.959 -0.2910 -0.0945 -0.1947
 1551BOLB   C1B37209  24.797  20.769  19.139 -0.0962 -0.1627  0.2093
 1551BOLB   C2B37210  24.740  20.378  19.075  0.1714 -0.0931  0.2871
 1551BOLB   C3B37211  25.069  20.112  18.996  0.0553  0.1520 -0.0163
 1551BOLB   C4B37212  25.272  19.837  18.715  0.1499 -0.0060 -0.1201
 1551BOLB   NC237213  25.399  17.546  17.405  0.1813 -0.0971  0.0620
 1551BOLB   PO237214  25.857  17.557  17.377  0.2513 -0.0279 -0.3456
 1551BOLB   GL337215  25.769  18.003  17.461  0.3340  0.1808  0.2829
 1551BOLB   GL437216  26.048  18.072  17.689 -0.0564 -0.2308  0.0085
 1551BOLB   C1C37217  25.626  18.473  17.675  0.1054 -0.2579  0.0238
 1551BOLB   C2C37218  25.588  18.631  18.177 -0.0652  0.0297 -0.1156
 1551BOLB   C3C37219  25.571  18.727  18.503  0.0882 -0.0965 -0.0479
 1551BOLB   C4C37220  25.312  18.931  18.821 -0.1507  0.3238 -0.0838
 1551BOLB   C1D37221  26.268  18.367  17.791 -0.0865  0.0410 -0.0528
 1551BOLB   C2D37222  26.191  18.783  17.841  0.0755 -0.1221  0.3332
 1551BOLB   C3D37223  26.005  19.047  17.587  0.1241 -0.0822 -0.3040
 1551BOLB   C4D37224  25.531  19.031  17.617 -0.0569  0.3185  0.2427
 1552BOLB   NC137225  25.698  33.228  14.757  0.3481  0.1650 -0.2463
 1552BOLB   PO137226  25.618  33.673  14.684  0.2239  0.1198  0.0121
 1552BOLB   GL137227  25.478  33.673  14.280 -0.1554  0.1848 -0.1065
 1552BOLB   GL237228  25.807  33.708  14.075 -0.0059  0.1454 -0.0737
 1552BOLB   C1A37229  25.426  33.460  13.813 -0.0345 -0.2180  0.0585
 1552BOLB   C2A37230  25.479  33.432  13.309  0.3032 -0.2568 -0.1838
 1552BOLB   C3A37231  25.441  33.357  12.874  0.1198 -0.1129 -0.2653
 1552BOLB   C4A37232  25.432  33.582  12.516 -0.2621  0.2197  0.1080
 1552BOLB   C1B37233  25.595  33.938  13.843  0.0818  0.0778 -0.0078
 1552BOLB   C2B37234  25.383  34.192  13.577 -0.1057  0.0335  0.1780
 1552BOLB   C3B37235  25.336  34.338  13.126 -0.0696  0.0307  0.0182
 1552BOLB   C4B37236  25.382  34.467  12.726  0.0486 -0.0993 -0.2410
 1552BOLB   NC237237  25.848  33.564  10.103 -0.0424  0.0093 -0.1772
 1552BOLB   PO237238  25.442  33.380  10.360 -0.2399 -0.0463  0.3858
 1552BOLB   GL337239  25.204  33.511  10.719 -0.1271  0.1623 -0.0956
 1552BOLB   GL437240  25.072  33.860  10.596 -0.0799 -0.1124  0.0876
 1552BOLB   C1C37241  25.041  33.573  11.121  0.1126  0.0914  0.1605
 1552BOLB   C2C37242  25.085  33.738  11.559  0.0722  0.1823 -0.0311
 1552BOLB   C3C37243  25.238  33.963  11.841  0.2694  0.1461  0.0766
 1552BOLB   C4C37244  25.327  33.730  12.187  0.0739  0.3325  0.0196
 1552BOLB   C1D37245  25.048  34.113  10.889  0.1186  0.1741 -0.5290
 1552BOLB   C2D37246  25.229  34.374  11.236 -0.2262 -0.2220 -0.1668
 1552BOLB   C3D37247  25.538  34.414  11.575 -0.3923  0.3282 -0.3299
 1552BOLB   C4D37248  25.819  34.442  11.914 -0.2476 -0.1353 -0.2179
 1553BOLB   NC137249  23.990  23.856  16.778  0.0222 -0.1421 -0.0531
 1553BOLB   PO137250  23.577  23.983  16.712 -0.1275 -0.2434 -0.1093
 1553BOLB   GL137251  23.175  24.205  16.524 -0.0105 -0.1289 -0.0175
 1553BOLB   GL237252  22.730  24.321  16.644 -0.1485  0.3709  0.1169
 1553BOLB   C1A37253  22.921  23.991  16.236  0.1068  0.3296  0.2957
 1553BOLB   C2A37254  22.545  23.871  16.038  0.3160  0.1242  0.0088
 1553BOLB   C3A37255  22.467  23.798  15.692 -0.0106 -0.1053 -0.0210
 1553BOLB   C4A37256  22.729  23.450  15.549 -0.0035  0.3301  0.0929
 1553BOLB   C1B37257  22.500  24.350  16.218 -0.1767  0.1657  0.1036
 1553BOLB   C2B37258  22.205  24.280  15.992  0.0365  0.6125 -0.1591
 1553BOLB   C3B37259  22.000  23.888  15.823 -0.2922 -0.1440  0.2746
 1553BOLB   C4B37260  21.917  23.471  15.889  0.1208  0.2414  0.4395
 1553BOLB   NC237261  21.452  22.754  13.832 -0.0684  0.0127 -0.2040
 1553BOLB   PO237262  21.663  22.408  13.926  0.0778 -0.1140 -0.1730
 1553BOLB   GL337263  21.905  22.654  14.231  0.1293 -0.2306 -0.1262
 1553BOLB   GL437264  21.679  22.959  14.274  0.2835 -0.1054  0.1353
 1553BOLB   C1C37265  22.196  22.460  14.506  0.0282 -0.0137 -0.2515
 1553BOLB   C2C37266  22.493  22.481  14.845  0.0810  0.1545 -0.2009
 1553BOLB   C3C37267  22.707  22.835  14.985  0.2559 -0.1698 -0.1583
 1553BOLB   C4C37268  22.675  23.039  15.373 -0.0671 -0.1172 -0.2058
 1553BOLB   C1D37269  22.133  23.162  14.258 -0.1049  0.3126  0.0776
 1553BOLB   C2D37270  22.521  23.337  14.087 -0.1735 -0.0256  0.0979
 1553BOLB   C3D37271  22.925  23.386  14.383  0.2625 -0.2279  0.1343
 1553BOLB   C4D37272  23.104  23.717  14.580  0.3450 -0.0308  0.1361
 1554BOLB   NC137273  22.776  35.743  24.555  0.1388 -0.2316  0.5442
 1554BOLB   PO137274  22.981  35.867  25.029 -0.1111  0.0287 -0.1292
 1554BOLB   GL137275  22.726  36.080  25.060 -0.3011 -0.2895 -0.1595
 1554BOLB   GL237276  22.464  35.940  24.902  0.0194  0.3429  0.2900
 1554BOLB   C1A37277  22.455  36.324  25.245 -0.3092  0.3243 -0.2531
 1554BOLB   C2A37278  22.213  36.631  25.221 -0.1838 -0.1071 -0.1370
 1554BOLB   C3A37279  21.885  36.855  25.027 -0.0819  0.0933 -0.0664
 1554BOLB   C4A37280  21.960  37.247  24.826 -0.0040 -0.0816  0.2019
 1554BOLB   C1B37281  22.268  36.309  24.771  0.1350 -0.1227 -0.0030
 1554BOLB   C2B37282  21.851  36.472  24.731  0.2666 -0.2152  0.2992
 1554BOLB   C3B37283  21.461  36.697  24.584  0.1073  0.0778 -0.0669
 1554BOLB   C4B37284  21.170  36.800  24.267  0.0383  0.0683  0.1538
 1554BOLB   NC237285  20.095  38.403  24.408  0.0331  0.1485 -0.0089
 1554BOLB   PO237286  20.159  38.607  24.745  0.0447 -0.1718 -0.2563
 1554BOLB   GL337287  20.480  38.388  24.770 -0.2928 -0.0467  0.0574
 1554BOLB   GL437288  20.747  38.553  24.683  0.0493 -0.1867  0.0710
 1554BOLB   C1C37289  20.685  38.090  24.538 -0.0102 -0.0456 -0.0815
 1554BOLB   C2C37290  21.003  37.740  24.426  0.1285  0.2759  0.0554
 1554BOLB   C3C37291  21.386  37.739  24.525  0.2172  0.2200 -0.1956
 1554BOLB   C4C37292  21.695  37.576  24.681 -0.1505 -0.1265  0.1925
 1554BOLB   C1D37293  20.982  38.943  24.526 -0.2541  0.1154  0.0234
 1554BOLB   C2D37294  21.195  38.888  24.873 -0.0400 -0.1316  0.1893
 1554BOLB   C3D37295  21.576  38.925  25.163 -0.2185 -0.3575 -0.2124
 1554BOLB   C4D37296  21.930  38.657  25.251  0.2158 -0.0863 -0.1893
 1555BOLB   NC137297  30.373  25.393   0.798  0.1240 -0.2141  0.2231
 1555BOLB   PO137298  30.420  25.472   1.270  0.0374 -0.2476  0.1697
 1555BOLB   GL137299  30.607  25.254   1.580 -0.0591  0.1510 -0.1851
 1555BOLB   GL237300  30.380  25.305   1.866  0.1919  0.2284 -0.1728
 1555BOLB   C1A37301  30.888  25.089   1.815 -0.0962  0.0955  0.0453
 1555BOLB   C2A37302  31.059  24.769   2.182  0.1312 -0.0811  0.1038
 1555BOLB   C3A37303  31.089  24.547   2.549 -0.0911  0.2560 -0.0122
 1555BOLB   C4A37304  31.246  24.197   2.779 -0.1513 -0.0917 -0.3239
 1555BOLB   C1B37305  30.508  24.863   2.072  0.2678 -0.0978 -0.2632
 1555BOLB   C2B37306  30.481  24.448   2.110 -0.0730 -0.3447  0.0973
 1555BOLB   C3B37307  30.457  24.012   2.141 -0.0735 -0.1124  0.0295
 1555BOLB   C4B37308  30.686  23.615   2.048 -0.2575  0.1210  0.2177
 1555BOLB   NC237309  32.962  23.281   4.460  0.0717 -0.0829 -0.1034
 1555BOLB   PO237310  32.763  23.442   4.057  0.2111  0.2837  0.0737
 1555BOLB   GL337311  32.788  23.379   3.605 -0.2320 -0.1527 -0.0476
 1555BOLB   GL437312  32.452  23.247   3.572 -0.2113 -0.0567  0.0349
 1555BOLB   C1C37313  32.608  23.596   3.271 -0.0224 -0.1710  0.2418
 1555BOLB   C2C37314  32.194  23.478   2.858 -0.1612 -0.1047 -0.0381
 1555BOLB   C3C37315  31.828  23.563   2.966  0.2032 -0.2001 -0.0787
 1555BOLB   C4C37316  31.590  23.903   2.887  0.0294  0.0637 -0.0907
 1555BOLB   C1D37317  32.066  23.454   3.396 -0.0190  0.1122  0.0445
 1555BOLB   C2D37318  31.850  23.847   3.417  0.0410 -0.0101 -0.1794
 1555BOLB   C3D37319  31.822  24.188   3.612  0.0301 -0.1033 -0.0990
 1555BOLB   C4D37320  31.940  24.221   3.991 -0.0880  0.0343  0.2993
 1556BOLB   NC137321  19.644  29.709  19.111  0.2061 -0.2453 -0.0261
 1556BOLB   PO137322  19.725  29.263  18.798 -0.2165 -0.0173  0.0702
 1556BOLB   GL137323  19.273  29.491  18.686 -0.0775  0.0335  0.0456
 1556BOLB   GL237324  19.351  29.853  18.530  0.1581  0.1827 -0.1357
 1556BOLB   C1A37325  18.889  29.352  18.426  0.1738  0.2872 -0.1257
 1556BOLB   C2A37326  18.736  29.013  18.166  0.1975 -0.0569  0.0284
 1556BOLB   C3A37327  18.371  28.903  17.816  0.1098 -0.0417  0.2066
 1556BOLB   C4A37328  18.223  28.918  17.380  0.1797 -0.0580 -0.1050
 1556BOLB   C1B37329  19.026  29.816  18.204 -0.1137  0.2721  0.2587
 1556BOLB   C2B37330  18.731  29.763  17.943  0.1613 -0.2270  0.0625
 1556BOLB   C3B37331  18.468  29.641  17.589  0.0524  0.0612  0.0504
 1556BOLB   C4B37332  18.140  29.584  17.406 -0.1827 -0.1541  0.0014
 1556BOLB   NC237333  16.442  27.982  15.730  0.1151  0.4198  0.2031
 1556BOLB   PO237334  16.809  28.250  15.823 -0.1185 -0.3188 -0.0181
 1556BOLB   GL337335  16.999  28.227  16.154  0.3649  0.2315  0.0529
 1556BOLB   GL437336  16.942  28.327  16.475 -0.1239 -0.2578  0.0079
 1556BOLB   C1C37337  17.254  28.592  16.219 -0.0281 -0.0400  0.1563
 1556BOLB   C2C37338  17.480  28.819  16.495 -0.0039 -0.0538  0.0519
 1556BOLB   C3C37339  17.479  28.902  16.898 -0.5841 -0.0447  0.0155
 1556BOLB   C4C37340  17.827  28.933  17.171 -0.1891 -0.2472  0.1688
 1556BOLB   C1D37341  17.363  28.384  16.721  0.3147  0.1041 -0.2915
 1556BOLB   C2D37342  17.830  28.508  16.893 -0.2897 -0.0477  0.1071
 1556BOLB   C3D37343  17.905  28.458  17.329 -0.1683  0.2502  0.4522
 1556BOLB   C4D37344  18.033  28.130  17.620 -0.0941  0.0781 -0.0579
 1557BOLB   NC137345  23.726  33.238   1.663  0.0626 -0.3021 -0.1758
 1557BOLB   PO137346  23.578  33.152   1.377 -0.3997  0.2221  0.0642
 1557BOLB   GL137347  23.262  33.516   1.506 -0.1315 -0.1310 -0.0852
 1557BOLB   GL237348  22.967  33.807   1.325  0.2446  0.3124  0.0825
 1557BOLB   C1A37349  23.069  33.615   1.966  0.2456  0.2038 -0.0738
 1557BOLB   C2A37350  22.777  33.609   2.196  0.2461  0.1367  0.2394
 1557BOLB   C3A37351  22.397  33.925   2.228  0.1169 -0.1565 -0.0928
 1557BOLB   C4A37352  22.147  34.085   2.511 -0.0220 -0.0843 -0.1013
 1557BOLB   C1B37353  22.858  33.936   1.725  0.1202 -0.1153  0.0822
 1557BOLB   C2B37354  22.916  34.076   2.180  0.0744 -0.0386  0.4296
 1557BOLB   C3B37355  23.204  34.307   2.349  0.1638  0.1125 -0.1457
 1557BOLB   C4B37356  23.245  34.786   2.510 -0.1802  0.0088  0.0785
 1557BOLB   NC237357  21.798  35.750   4.511 -0.1055  0.1074 -0.1009
 1557BOLB   PO237358  21.879  35.267   4.587 -0.1666 -0.1034 -0.0973
 1557BOLB   GL337359  22.004  34.986   4.201  0.2963 -0.1661 -0.3708
 1557BOLB   GL437360  21.978  34.584   4.197  0.2660  0.0172  0.2092
 1557BOLB   C1C37361  22.162  34.888   3.836  0.0941  0.4958 -0.0065
 1557BOLB   C2C37362  22.057  34.782   3.436 -0.1276 -0.2563  0.1839
 1557BOLB   C3C37363  22.172  34.769   3.041 -0.1140 -0.2521 -0.4030
 1557BOLB   C4C37364  22.257  34.550   2.681  0.2087 -0.1169  0.2748
 1557BOLB   C1D37365  22.059  34.438   3.777  0.0941  0.0053 -0.1772
 1557BOLB   C2D37366  22.330  34.353   3.312 -0.0072 -0.3613  0.1570
 1557BOLB   C3D37367  22.421  34.146   2.916 -0.3880 -0.6543  0.3437
 1557BOLB   C4D37368  22.703  34.135   2.594  0.0059 -0.0158  0.0162
 1558BOLB   NC137369  30.482  29.147   2.735  0.2625 -0.0539 -0.1185
 1558BOLB   PO137370  30.656  28.659   2.642  0.0428 -0.2321  0.0820
 1558BOLB   GL137371  30.837  28.522   2.960 -0.0354 -0.0527 -0.1526
 1558BOLB   GL237372  31.022  28.229   2.835 -0.0060 -0.1387 -0.1866
 1558BOLB   C1A37373  31.235  28.639   3.094 -0.1096 -0.0251 -0.1872
 1558BOLB   C2A37374  31.686  28.544   2.824 -0.1472  0.1184  0.1266
 1558BOLB   C3A37375  32.034  28.363   3.037 -0.3761 -0.0511  0.1945
 1558BOLB   C4A37376  32.044  28.329   3.452 -0.1021  0.2012  0.0777
 1558BOLB   C1B37377  31.258  28.029   3.030  0.0017  0.1176 -0.2314
 1558BOLB   C2B37378  31.211  27.910   3.477 -0.1086 -0.2210 -0.2262
 1558BOLB   C3B37379  31.033  27.713   3.826  0.2150 -0.1378  0.1210
 1558BOLB   C4B37380  30.712  27.896   4.105 -0.1095  0.0335  0.0367
 1558BOLB   NC237381  32.709  27.859   5.943  0.1355 -0.3212 -0.0428
 1558BOLB   PO237382  32.314  27.838   5.736 -0.0201  0.1012  0.0667
 1558BOLB   GL337383  32.036  27.685   5.438  0.1424  0.0980 -0.0321
 1558BOLB   GL437384  31.744  27.601   5.470 -0.1819  0.0960 -0.2868
 1558BOLB   C1C37385  32.005  27.728   5.041  0.0775  0.2502 -0.1104
 1558BOLB   C2C37386  31.888  27.833   4.662 -0.1252  0.1355 -0.0000
 1558BOLB   C3C37387  31.929  28.109   4.196  0.1079 -0.1402 -0.2614
 1558BOLB   C4C37388  31.822  28.281   3.829 -0.1395  0.3806 -0.0358
 1558BOLB   C1D37389  31.389  27.782   5.248 -0.1589  0.1941 -0.1167
 1558BOLB   C2D37390  31.104  27.964   4.974  0.2935 -0.0943 -0.3011
 1558BOLB   C3D37391  30.936  27.934   4.572  0.0888  0.0461 -0.0104
 1558BOLB   C4D37392  31.045  27.600   4.309 -0.1511  0.0146  0.2831
 1559BOLB   NC137393  27.802  17.262   2.531  0.0226  0.0193 -0.0989
 1559BOLB   PO137394  27.556  17.452   2.224 -0.1328  0.1758  0.0574
 1559BOLB   GL137395  27.596  17.792   1.999  0.0272 -0.0969  0.1450
 1559BOLB   GL237396  27.867  17.993   2.090 -0.1482  0.1930  0.0757
 1559BOLB   C1A37397  27.237  18.015   1.666 -0.0340  0.0612 -0.2840
 1559BOLB   C2A37398  26.970  18.167   1.399 -0.2647 -0.3838  0.1321
 1559BOLB   C3A37399  27.012  18.317   1.044 -0.0370 -0.3887  0.0103
 1559BOLB   C4A37400  26.681  18.213   0.673 -0.3122  0.1067 -0.4476
 1559BOLB   C1B37401  27.754  18.453   1.991  0.1155 -0.0588 -0.0633
 1559BOLB   C2B37402  27.750  18.776   1.559 -0.1483  0.2200  0.1742
 1559BOLB   C3B37403  27.799  19.198   1.375 -0.0109 -0.1584 -0.0667
 1559BOLB   C4B37404  27.582  19.403   1.014  0.3315  0.0841  0.1010
 1559BOLB   NC237405  28.248  17.287   0.678 -0.4969  0.1485  0.1689
 1559BOLB   PO237406  28.473  17.634   0.658  0.1327  0.0899 -0.2023
 1559BOLB   GL337407  28.291  17.940   0.407 -0.1265  0.0846 -0.2406
 1559BOLB   GL437408  28.362  17.834   0.089  0.3076 -0.2222  0.1222
 1559BOLB   C1C37409  27.902  18.155   0.449  0.1137  0.0211  0.1812
 1559BOLB   C2C37410  27.460  18.266   0.259 -0.0075 -0.1221  0.0737
 1559BOLB   C3C37411  27.033  18.438   0.095 -0.1241 -0.3040 -0.1631
 1559BOLB   C4C37412  26.638  18.233   0.180  0.2233 -0.5465 -0.0840
 1559BOLB   C1D37413  28.315  17.937  26.523  0.2207  0.2517  0.3121
 1559BOLB   C2D37414  28.000  17.831  26.261 -0.3429 -0.3252 -0.0236
 1559BOLB   C3D37415  27.693  17.587  26.238 -0.1723  0.2009  0.2844
 1559BOLB   C4D37416  27.280  17.601  26.232  0.0196  0.3031 -0.1021
 1560BOLB   NC137417  30.791  37.405  23.527 -0.1876  0.0718  0.0520
 1560BOLB   PO137418  31.008  37.457  24.032 -0.0727  0.3090 -0.1080
 1560BOLB   GL137419  31.056  37.745  24.344 -0.3643 -0.0884  0.0819
 1560BOLB   GL237420  31.219  37.853  24.634  0.2927 -0.4176 -0.1922
 1560BOLB   C1A37421  30.890  38.240  24.505  0.0314  0.0493 -0.0996
 1560BOLB   C2A37422  30.871  38.638  24.748  0.3942  0.3863 -0.1702
 1560BOLB   C3A37423  30.803  39.054  24.520  0.1276  0.1959 -0.3382
 1560BOLB   C4A37424  30.670  39.208  24.129 -0.1160  0.0431 -0.0214
 1560BOLB   C1B37425  31.465  38.343  24.683  0.2024 -0.0611  0.1705
 1560BOLB   C2B37426  31.697  38.582  24.776 -0.2469  0.3175 -0.3102
 1560BOLB   C3B37427  31.890  38.908  24.738  0.5063 -0.2992  0.2903
 1560BOLB   C4B37428  32.308  38.833  24.696  0.1459 -0.1406 -0.3618
 1560BOLB   NC237429  30.997  41.682  23.499 -0.3944 -0.0676 -0.0049
 1560BOLB   PO237430  30.896  41.577  23.807 -0.0155 -0.1723 -0.3791
 1560BOLB   GL337431  30.633  41.277  24.067  0.2838  0.1000  0.1053
 1560BOLB   GL437432  30.390  41.410  24.233  0.1588  0.1513 -0.0733
 1560BOLB   C1C37433  30.460  40.905  23.962 -0.1678  0.2116  0.0364
 1560BOLB   C2C37434  30.592  40.503  24.013  0.0276  0.5036  0.0432
 1560BOLB   C3C37435  30.441  40.165  23.977  0.0190 -0.0686  0.2801
 1560BOLB   C4C37436  30.366  39.701  24.177 -0.2196 -0.0397  0.0812
 1560BOLB   C1D37437  30.195  41.083  24.377 -0.3506  0.2746  0.1160
 1560BOLB   C2D37438  29.764  40.890  24.401  0.0752 -0.2629  0.0719
 1560BOLB   C3D37439  29.719  40.562  24.075 -0.0274  0.0321 -0.2994
 1560BOLB   C4D37440  29.536  40.188  23.791 -0.1008 -0.2107 -0.0932
 1561BOLB   NC137441  30.020  37.511  19.764  0.0560 -0.2256 -0.0465
 1561BOLB   PO137442  29.714  37.593  19.544  0.0459 -0.0562 -0.0844
 1561BOLB   GL137443  29.748  38.111  19.501 -0.2537 -0.0656  0.2256
 1561BOLB   GL237444  29.596  38.230  19.227 -0.3715  0.0777  0.2680
 1561BOLB   C1A37445  29.690  38.508  19.717  0.0287 -0.0295  0.0814
 1561BOLB   C2A37446  29.762  38.909  19.898  0.0837  0.2084 -0.2019
 1561BOLB   C3A37447  29.905  39.277  19.908 -0.1959 -0.0580 -0.2064
 1561BOLB   C4A37448  29.912  39.664  19.765  0.2021 -0.1315  0.1601
 1561BOLB   C1B37449  29.702  38.578  19.228 -0.0596 -0.1013 -0.0877
 1561BOLB   C2B37450  29.734  38.989  19.423 -0.2381  0.0226  0.1118
 1561BOLB   C3B37451  29.583  39.488  19.412 -0.0129  0.4585  0.2055
 1561BOLB   C4B37452  29.255  39.683  19.483 -0.2335 -0.2180  0.0869
 1561BOLB   NC237453  30.977  42.064  19.238 -0.1772 -0.0641  0.5374
 1561BOLB   PO237454  30.689  41.738  19.410  0.0523  0.3571  0.3527
 1561BOLB   GL337455  30.777  41.297  19.341  0.2066  0.1594 -0.2229
 1561BOLB   GL437456  30.985  41.218  19.524 -0.0864 -0.0222  0.1946
 1561BOLB   C1C37457  30.677  40.933  19.112  0.1653 -0.0250  0.2374
 1561BOLB   C2C37458  30.468  40.593  19.086  0.3733 -0.0854 -0.0584
 1561BOLB   C3C37459  30.212  40.147  19.211 -0.0237  0.1816  0.0447
 1561BOLB   C4C37460  30.085  39.780  19.409  0.0925  0.2676 -0.0218
 1561BOLB   C1D37461  30.818  40.814  19.598 -0.4970 -0.2679 -0.4042
 1561BOLB   C2D37462  30.379  40.584  19.644  0.0507  0.1745  0.0485
 1561BOLB   C3D37463  30.149  40.185  19.740 -0.1280  0.2671 -0.1827
 1561BOLB   C4D37464  30.165  39.966  20.077  0.1308  0.1522 -0.1917
 1562BOLB   NC137465  21.411  32.675   0.042  0.1298  0.4499  0.1710
 1562BOLB   PO137466  21.087  32.841  26.670 -0.0979 -0.0210 -0.1948
 1562BOLB   GL137467  20.753  32.753   0.004 -0.0264  0.1207 -0.0686
 1562BOLB   GL237468  20.872  33.028   0.172  0.2915 -0.5019  0.1803
 1562BOLB   C1A37469  20.352  32.943  26.777  0.0784  0.3977 -0.0143
 1562BOLB   C2A37470  19.925  32.771  26.823 -0.1307 -0.0668  0.0526
 1562BOLB   C3A37471  19.751  32.439   0.102 -0.0017 -0.1000 -0.4241
 1562BOLB   C4A37472  19.454  32.058   0.226 -0.2796  0.0340  0.0921
 1562BOLB   C1B37473  20.469  33.044   0.320 -0.1144  0.1253  0.1263
 1562BOLB   C2B37474  20.070  33.066   0.255 -0.2230  0.0436 -0.1233
 1562BOLB   C3B37475  19.564  32.954   0.152 -0.0407  0.0290 -0.5130
 1562BOLB   C4B37476  19.308  32.804  26.781  0.0342 -0.3311  0.0088
 1562BOLB   NC237477  17.287  33.664   1.083 -0.2298  0.1075  0.2961
 1562BOLB   PO237478  17.648  33.221   1.117  0.1216  0.3372 -0.0181
 1562BOLB   GL337479  17.861  32.806   1.164 -0.1801  0.0412 -0.0825
 1562BOLB   GL437480  17.858  32.527   1.378 -0.3698 -0.0312 -0.0657
 1562BOLB   C1C37481  17.984  32.553   0.776  0.1904  0.0254 -0.0572
 1562BOLB   C2C37482  18.366  32.339   0.533  0.1632  0.0283 -0.3889
 1562BOLB   C3C37483  18.750  32.241   0.475  0.0992 -0.2457 -0.3491
 1562BOLB   C4C37484  19.028  32.091   0.238  0.1121  0.2101 -0.0976
 1562BOLB   C1D37485  18.130  32.332   1.251  0.0672  0.0109  0.0699
 1562BOLB   C2D37486  18.436  32.164   1.016 -0.0904  0.1854  0.1076
 1562BOLB   C3D37487  18.763  32.113   0.966  0.0308  0.0869 -0.0232
 1562BOLB   C4D37488  19.220  32.225   0.788  0.3656 -0.2515 -0.2669
 1563BOLB   NC137489  33.464  29.563  26.549 -0.0972  0.1666 -0.0927
 1563BOLB   PO137490  33.694  29.869  26.907  0.2252  0.0569  0.1563
 1563BOLB   GL137491  34.132  29.901   0.242 -0.1105 -0.0982  0.3207
 1563BOLB   GL237492  34.340  30.190   0.135 -0.0912  0.1260  0.2191
 1563BOLB   C1A37493  34.634  29.906   0.434  0.0723  0.0078 -0.0441
 1563BOLB   C2A37494  35.066  29.884   0.729  0.0796 -0.0280 -0.1230
 1563BOLB   C3A37495  35.434  29.807   0.977 -0.0817 -0.2585  0.2177
 1563BOLB   C4A37496  35.801  29.759   0.921  0.0095  0.2049 -0.2444
 1563BOLB   C1B37497  34.926  30.136   0.137  0.3122 -0.2376  0.0486
 1563BOLB   C2B37498  35.356  29.994   0.317  0.2055 -0.1300  0.1196
 1563BOLB   C3B37499  35.794  30.031   0.462 -0.2271  0.0048 -0.0706
 1563BOLB   C4B37500  35.991  30.241   0.823  0.1252 -0.0163 -0.2568
 1563BOLB   NC237501  37.878  29.836   1.771  0.0046 -0.0765  0.3018
 1563BOLB   PO237502  37.916  30.232   1.881 -0.0226 -0.0829  0.2800
 1563BOLB   GL337503  37.497  30.488   1.697 -0.0320  0.2264  0.0869
 1563BOLB   GL437504  37.391  30.835   1.780 -0.0813  0.3179 -0.2770
 1563BOLB   C1C37505  37.478  30.520   1.342 -0.2286  0.2914  0.0309
 1563BOLB   C2C37506  37.062  30.438   1.211 -0.1033 -0.0340  0.1667
 1563BOLB   C3C37507  36.599  30.175   1.030 -0.0267  0.2795  0.0380
 1563BOLB   C4C37508  36.262  29.845   1.019 -0.1615 -0.0443  0.3423
 1563BOLB   C1D37509  36.994  30.781   1.732  0.0226  0.0237  0.1104
 1563BOLB   C2D37510  36.636  30.642   2.058  0.1052  0.3316 -0.0416
 1563BOLB   C3D37511  36.164  30.598   2.238  0.2600 -0.1203 -0.1668
 1563BOLB   C4D37512  35.754  30.390   2.318 -0.3146  0.2312 -0.3022
 1564BOLB   NC137513  35.181  27.846  19.092 -0.3895  0.1165 -0.0960
 1564BOLB   PO137514  34.829  27.661  19.449 -0.0922  0.0314  0.0742
 1564BOLB   GL137515  35.330  27.448  19.415  0.1564 -0.0445  0.1025
 1564BOLB   GL237516  35.376  27.106  19.212  0.3366 -0.1272  0.0646
 1564BOLB   C1A37517  35.779  27.295  19.452  0.5965  0.3839  0.1223
 1564BOLB   C2A37518  36.033  27.095  19.243  0.1009 -0.1710  0.0446
 1564BOLB   C3A37519  36.244  27.002  18.789 -0.0650 -0.0186 -0.2561
 1564BOLB   C4A37520  36.607  26.824  18.535  0.1628  0.1309 -0.1077
 1564BOLB   C1B37521  35.567  26.922  18.958  0.1467 -0.3758  0.0599
 1564BOLB   C2B37522  35.860  26.679  19.015 -0.0707 -0.1094 -0.1320
 1564BOLB   C3B37523  36.215  26.394  18.945 -0.0027  0.0163  0.2552
 1564BOLB   C4B37524  36.373  26.359  19.467 -0.0454 -0.0921 -0.0385
 1564BOLB   NC237525  39.123  26.366  18.073  0.3709  0.0275 -0.1379
 1564BOLB   PO237526  38.815  26.175  17.786 -0.0201 -0.2640 -0.1008
 1564BOLB   GL337527  38.498  26.331  18.064  0.1208 -0.0586 -0.3068
 1564BOLB   GL437528  38.153  26.143  18.107 -0.1664  0.1174  0.0088
 1564BOLB   C1C37529  38.186  26.612  18.090 -0.0614 -0.0575  0.2881
 1564BOLB   C2C37530  37.737  26.703  18.300 -0.1721 -0.1032  0.4177
 1564BOLB   C3C37531  37.303  26.696  18.307  0.0876  0.1029  0.2607
 1564BOLB   C4C37532  36.996  26.634  18.522  0.2131  0.0020 -0.2357
 1564BOLB   C1D37533  37.788  26.200  18.385 -0.3196  0.0038  0.1002
 1564BOLB   C2D37534  37.422  26.355  18.696  0.0416  0.0952  0.0651
 1564BOLB   C3D37535  37.128  26.051  18.851 -0.1132  0.0858 -0.1754
 1564BOLB   C4D37536  36.805  26.051  19.080  0.0300 -0.2604 -0.0808
 1565BOLB   NC137537  33.548  35.787  20.589  0.0690 -0.1524  0.0109
 1565BOLB   PO137538  33.444  35.929  20.242  0.4513  0.0868  0.1267
 1565BOLB   GL137539  33.622  36.289  20.376  0.2200  0.5066 -0.2316
 1565BOLB   GL237540  33.840  36.213  20.575  0.1556  0.1034  0.4691
 1565BOLB   C1A37541  33.716  36.699  20.413  0.1021 -0.2002  0.0202
 1565BOLB   C2A37542  33.829  37.120  20.627  0.0860  0.1567  0.0462
 1565BOLB   C3A37543  33.775  37.469  20.469  0.0694 -0.0335  0.2776
 1565BOLB   C4A37544  34.068  37.780  20.243  0.1829 -0.0535 -0.2171
 1565BOLB   C1B37545  34.164  36.496  20.339 -0.2601  0.1267 -0.2239
 1565BOLB   C2B37546  34.531  36.642  20.057  0.2831 -0.1233  0.4822
 1565BOLB   C3B37547  34.921  36.807  19.994 -0.0014  0.1309  0.1327
 1565BOLB   C4B37548  35.269  37.150  20.043 -0.2963 -0.0958 -0.2731
 1565BOLB   NC237549  34.760  39.890  18.616  0.2392  0.2663 -0.4096
 1565BOLB   PO237550  34.983  40.011  18.997  0.1294  0.1043 -0.0669
 1565BOLB   GL337551  34.767  39.623  19.264 -0.0803 -0.3263 -0.0278
 1565BOLB   GL437552  34.785  39.327  19.055  0.1986 -0.0980  0.3105
 1565BOLB   C1C37553  34.603  39.233  19.448 -0.1967 -0.1250 -0.1804
 1565BOLB   C2C37554  34.332  38.884  19.611  0.3180  0.1169 -0.0063
 1565BOLB   C3C37555  34.276  38.489  19.839  0.1357 -0.0385 -0.1345
 1565BOLB   C4C37556  34.154  38.085  20.057 -0.0363 -0.3361  0.0584
 1565BOLB   C1D37557  34.634  39.167  18.787  0.1275 -0.3111  0.1263
 1565BOLB   C2D37558  34.208  39.096  18.833 -0.2606 -0.5221  0.1537
 1565BOLB   C3D37559  33.746  39.046  18.814  0.1800 -0.0761  0.2759
 1565BOLB   C4D37560  33.344  39.237  19.100 -0.2603  0.0273 -0.0489
 1566BOLB   NC137561  39.327  25.254  23.761 -0.0370  0.3508 -0.0361
 1566BOLB   PO137562  39.111  25.579  23.993 -0.0275  0.2744 -0.3855
 1566BOLB   GL137563  38.693  25.459  23.902 -0.1054 -0.0379 -0.2838
 1566BOLB   GL237564  38.443  25.148  23.966 -0.1979  0.1653  0.1320
 1566BOLB   C1A37565  38.314  25.734  23.835 -0.1806  0.1616  0.2916
 1566BOLB   C2A37566  37.907  25.688  23.896 -0.0654 -0.3564 -0.2067
 1566BOLB   C3A37567  37.529  25.855  23.622  0.1441  0.0909  0.1085
 1566BOLB   C4A37568  37.400  26.183  23.505 -0.0451 -0.0916  0.0113
 1566BOLB   C1B37569  37.983  25.123  23.986 -0.3242  0.0916  0.0980
 1566BOLB   C2B37570  37.549  24.914  23.896  0.0911 -0.1681 -0.0631
 1566BOLB   C3B37571  37.176  24.925  24.181 -0.0569 -0.1943 -0.0086
 1566BOLB   C4B37572  37.078  25.437  24.379  0.0437  0.1123 -0.1402
 1566BOLB   NC237573  39.601  26.588  22.056  0.2412 -0.0311 -0.2949
 1566BOLB   PO237574  39.456  26.713  22.459  0.2466  0.1569  0.3760
 1566BOLB   GL337575  39.054  26.667  22.383 -0.0024  0.1393 -0.4565
 1566BOLB   GL437576  39.112  26.804  22.016 -0.0265 -0.0668  0.1206
 1566BOLB   C1C37577  38.674  26.646  22.460 -0.0409 -0.1296 -0.1160
 1566BOLB   C2C37578  38.191  26.750  22.545  0.0468 -0.4079  0.1169
 1566BOLB   C3C37579  37.745  26.812  22.752 -0.0489 -0.2694 -0.2997
 1566BOLB   C4C37580  37.568  26.530  23.073  0.1770  0.0139 -0.4224
 1566BOLB   C1D37581  38.692  26.896  21.959  0.1077 -0.1696  0.4035
 1566BOLB   C2D37582  38.252  26.940  21.912  0.1829  0.0479  0.2253
 1566BOLB   C3D37583  37.961  26.763  21.997  0.1427  0.0320 -0.3905
 1566BOLB   C4D37584  37.644  26.683  22.268 -0.2221  0.1614 -0.1265
 1567BOLB   NC137585  25.685  31.287  13.538  0.1450 -0.2137  0.2121
 1567BOLB   PO137586  25.461  31.628  13.729 -0.4581 -0.1085 -0.0806
 1567BOLB   GL137587  25.556  31.721  13.339 -0.0341  0.0780 -0.0435
 1567BOLB   GL237588  25.361  31.467  13.244 -0.0666  0.3209 -0.0750
 1567BOLB   C1A37589  25.590  31.918  12.971  0.0715  0.0573 -0.0087
 1567BOLB   C2A37590  25.449  32.262  12.693  0.2303 -0.0771  0.0837
 1567BOLB   C3A37591  25.313  32.554  12.459 -0.1018 -0.1068 -0.7131
 1567BOLB   C4A37592  24.981  32.454  12.147  0.1169 -0.0846 -0.0645
 1567BOLB   C1B37593  25.320  31.290  12.892  0.2038  0.0686  0.1971
 1567BOLB   C2B37594  25.117  31.280  12.537 -0.0165  0.0512 -0.3837
 1567BOLB   C3B37595  24.766  31.517  12.426 -0.0449 -0.0509 -0.1465
 1567BOLB   C4B37596  24.471  31.465  12.105 -0.1085 -0.0904  0.0973
 1567BOLB   NC237597  23.856  32.347  10.183  0.0483 -0.0933  0.1086
 1567BOLB   PO237598  24.181  32.700   9.951  0.1321 -0.0267 -0.0044
 1567BOLB   GL337599  24.290  32.505  10.295 -0.1053  0.0054  0.2717
 1567BOLB   GL437600  24.462  32.776  10.455  0.1047  0.0371 -0.2244
 1567BOLB   C1C37601  24.533  32.253  10.581 -0.1760  0.0406 -0.3602
 1567BOLB   C2C37602  24.817  31.946  10.939 -0.0510  0.0232  0.2019
 1567BOLB   C3C37603  24.877  32.141  11.310  0.1535  0.0840 -0.1010
 1567BOLB   C4C37604  24.987  32.262  11.794  0.1414  0.1075 -0.2711
 1567BOLB   C1D37605  24.792  32.660  10.728  0.1644  0.0417 -0.0619
 1567BOLB   C2D37606  25.012  32.590  11.164  0.0502  0.1539 -0.2368
 1567BOLB   C3D37607  25.396  32.497  11.413 -0.0316 -0.0566  0.0400
 1567BOLB   C4D37608  25.447  32.904  11.493 -0.1990 -0.1429  0.0994
 1568BOLB   NC137609  33.872  25.296  24.564 -0.0515  0.0959 -0.2521
 1568BOLB   PO137610  34.093  25.462  24.897  0.0366  0.1763  0.0191
 1568BOLB   GL137611  34.609  25.591  24.888  0.0823  0.1303 -0.2537
 1568BOLB   GL237612  34.722  25.822  25.103 -0.3166 -0.1640 -0.3988
 1568BOLB   C1A37613  35.063  25.412  25.002  0.1529  0.2909 -0.0209
 1568BOLB   C2A37614  35.350  25.592  25.242 -0.1824  0.2182  0.0108
 1568BOLB   C3A37615  35.784  25.730  25.218 -0.2003 -0.2913  0.0238
 1568BOLB   C4A37616  36.139  25.402  25.126  0.3991  0.1320  0.0476
 1568BOLB   C1B37617  35.087  25.988  25.267 -0.0075  0.2429 -0.4393
 1568BOLB   C2B37618  35.223  25.895  25.720  0.0656  0.1854  0.0017
 1568BOLB   C3B37619  35.394  25.802  26.184 -0.0952  0.1914 -0.0029
 1568BOLB   C4B37620  35.497  25.577  26.485  0.1295 -0.0130 -0.2951
 1568BOLB   NC237621  38.575  25.403  25.699  0.2094 -0.0646 -0.2137
 1568BOLB   PO237622  38.180  25.276  25.933  0.2710  0.0713 -0.3410
 1568BOLB   GL337623  38.135  25.162  25.547  0.1845 -0.1034  0.0487
 1568BOLB   GL437624  38.132  25.443  25.390 -0.1328 -0.1587 -0.2979
 1568BOLB   C1C37625  37.825  25.058  25.180  0.0112  0.2711 -0.1425
 1568BOLB   C2C37626  37.446  25.251  25.133  0.3881 -0.4046 -0.3790
 1568BOLB   C3C37627  36.967  25.332  25.133  0.0817  0.0850  0.1702
 1568BOLB   C4C37628  36.489  25.386  25.226  0.0248 -0.0810  0.3277
 1568BOLB   C1D37629  37.686  25.391  25.574 -0.1656 -0.1924  0.1192
 1568BOLB   C2D37630  37.272  25.598  25.566  0.1105  0.1491  0.0086
 1568BOLB   C3D37631  37.028  25.784  25.342 -0.0311 -0.3207  0.2124
 1568BOLB   C4D37632  37.003  26.325  25.441 -0.1053 -0.0217  0.1708
 1569BOLB   NC137633  28.034  38.035  12.653 -0.3463  0.2133  0.0003
 1569BOLB   PO137634  28.463  38.244  12.660  0.0986  0.1219 -0.2820
 1569BOLB   GL137635  28.335  38.051  13.037  0.0921  0.0603  0.2824
 1569BOLB   GL237636  28.077  38.380  13.185 -0.0444  0.0972  0.3200
 1569BOLB   C1A37637  28.157  37.665  13.258  0.2461  0.2709  0.3107
 1569BOLB   C2A37638  27.798  37.535  13.579 -0.0899 -0.3805  0.0431
 1569BOLB   C3A37639  27.475  37.586  13.838 -0.0944 -0.2637 -0.1605
 1569BOLB   C4A37640  27.284  37.660  14.253  0.1674 -0.3898  0.2379
 1569BOLB   C1B37641  28.297  38.397  13.572 -0.1135  0.2585 -0.0902
 1569BOLB   C2B37642  28.676  38.417  13.795 -0.0311 -0.2377 -0.0193
 1569BOLB   C3B37643  28.652  38.448  14.242 -0.0579  0.2109 -0.0332
 1569BOLB   C4B37644  28.724  38.200  14.644 -0.2036  0.1030 -0.0217
 1569BOLB   NC237645  27.459  39.727  14.769 -0.2073  0.2743 -0.1126
 1569BOLB   PO237646  27.216  39.486  14.368 -0.0602 -0.0985 -0.0332
 1569BOLB   GL337647  27.511  39.203  14.427 -0.1957  0.2422 -0.3255
 1569BOLB   GL437648  27.857  39.161  14.393  0.4013  0.2600  0.3432
 1569BOLB   C1C37649  27.539  38.886  14.654 -0.2754  0.3708  0.2283
 1569BOLB   C2C37650  27.379  38.635  14.902  0.1328 -0.1139 -0.2140
 1569BOLB   C3C37651  27.146  38.353  14.789  0.2421 -0.1505 -0.0108
 1569BOLB   C4C37652  27.246  37.971  14.658  0.0494  0.0203  0.0837
 1569BOLB   C1D37653  28.014  38.752  14.472  0.1536  0.1247  0.1697
 1569BOLB   C2D37654  28.188  38.339  14.447  0.1202 -0.1983  0.0370
 1569BOLB   C3D37655  28.247  38.070  14.799 -0.0588 -0.1214  0.1377
 1569BOLB   C4D37656  28.490  38.080  15.131  0.1985  0.1385 -0.1801
 1570BOLB   NC137657  29.568  21.392  21.513  0.4477  0.0894  0.5502
 1570BOLB   PO137658  29.191  21.301  21.749 -0.0085 -0.0922  0.1201
 1570BOLB   GL137659  29.031  20.851  21.830 -0.4798  0.2951 -0.1025
 1570BOLB   GL237660  28.829  20.754  22.082 -0.1252 -0.0553  0.3170
 1570BOLB   C1A37661  29.160  20.458  21.873 -0.0917 -0.2185 -0.0945
 1570BOLB   C2A37662  28.976  19.976  21.829  0.0795  0.1100  0.0590
 1570BOLB   C3A37663  28.876  19.692  21.978  0.1447  0.0778 -0.0518
 1570BOLB   C4A37664  28.660  19.357  22.236 -0.1800  0.2274 -0.0169
 1570BOLB   C1B37665  28.729  20.374  22.169  0.0885 -0.1197  0.0483
 1570BOLB   C2B37666  28.845  19.963  22.378  0.1245  0.0262 -0.0520
 1570BOLB   C3B37667  28.997  19.659  22.571  0.0063 -0.1929 -0.0651
 1570BOLB   C4B37668  29.440  19.621  22.694  0.0418 -0.1534 -0.6096
 1570BOLB   NC237669  29.500  17.643  20.831  0.1575  0.0838  0.1288
 1570BOLB   PO237670  29.145  17.277  20.908 -0.3090 -0.1417  0.1707
 1570BOLB   GL337671  29.057  17.743  21.133 -0.4364  0.3546 -0.2027
 1570BOLB   GL437672  29.173  18.018  21.049  0.0915  0.1905  0.3794
 1570BOLB   C1C37673  28.953  17.912  21.533 -0.1910 -0.0196 -0.0908
 1570BOLB   C2C37674  28.713  18.292  21.776 -0.0902  0.0155 -0.4852
 1570BOLB   C3C37675  28.894  18.632  22.036  0.1846  0.3079 -0.4302
 1570BOLB   C4C37676  28.611  18.902  22.212 -0.4714 -0.0392 -0.1718
 1570BOLB   C1D37677  28.890  18.360  21.255  0.0842 -0.0511 -0.0453
 1570BOLB   C2D37678  28.883  18.767  21.523  0.3088 -0.0199 -0.1509
 1570BOLB   C3D37679  28.812  19.100  21.753 -0.5073 -0.0003  0.2485
 1570BOLB   C4D37680  29.100  19.202  22.064  0.1669 -0.1194 -0.3842
 1571BOLB   NC137681  27.912  37.497  23.778  0.2915  0.0549 -0.1091
 1571BOLB   PO137682  27.876  37.909  23.698 -0.0574  0.3646 -0.2926
 1571BOLB   GL137683  27.803  38.305  23.669 -0.0409 -0.0740 -0.2691
 1571BOLB   GL237684  28.045  38.493  23.653 -0.1811 -0.0926  0.0076
 1571BOLB   C1A37685  27.578  38.668  23.822  0.0880  0.0280 -0.0457
 1571BOLB   C2A37686  27.664  39.069  24.025  0.0261  0.1033 -0.1437
 1571BOLB   C3A37687  27.619  39.168  24.429 -0.1559 -0.0354 -0.0100
 1571BOLB   C4A37688  27.664  39.528  24.704 -0.2009 -0.0218 -0.1310
 1571BOLB   C1B37689  28.341  38.752  23.416  0.1177  0.1378 -0.1201
 1571BOLB   C2B37690  28.688  39.118  23.271  0.3240 -0.1486  0.1533
 1571BOLB   C3B37691  28.927  39.488  23.177  0.4152  0.2510 -0.3489
 1571BOLB   C4B37692  29.064  39.792  22.974  0.0243  0.0169  0.3689
 1571BOLB   NC237693  27.649  42.010  25.716 -0.0169  0.0122  0.2276
 1571BOLB   PO237694  27.489  41.585  25.769 -0.3336  0.0572  0.3880
 1571BOLB   GL337695  27.358  41.395  25.424  0.1089  0.4155  0.5013
 1571BOLB   GL437696  27.112  41.216  25.311 -0.0915 -0.2364 -0.0264
 1571BOLB   C1C37697  27.642  41.114  25.109 -0.0461  0.0656  0.3366
 1571BOLB   C2C37698  27.834  40.678  25.167 -0.0217  0.0192 -0.1551
 1571BOLB   C3C37699  27.560  40.244  24.982 -0.1961  0.0990 -0.0345
 1571BOLB   C4C37700  27.621  39.840  24.980 -0.0954 -0.1189  0.0155
 1571BOLB   C1D37701  27.265  40.845  25.081 -0.0707 -0.1718  0.3660
 1571BOLB   C2D37702  27.502  40.809  24.723 -0.1256  0.0788  0.0195
 1571BOLB   C3D37703  27.883  40.551  24.573  0.6239 -0.0283  0.0852
 1571BOLB   C4D37704  28.224  40.231  24.443  0.2622  0.1055  0.1038
 1572BOLB   NC137705  24.806  32.945  14.779  0.1716 -0.3847 -0.0314
 1572BOLB   PO137706  24.748  33.108  15.131  0.4771  0.1105  0.0975
 1572BOLB   GL137707  24.366  33.331  14.972 -0.1100  0.6156  0.2174
 1572BOLB   GL237708  24.545  33.415  14.646  0.0722 -0.1217  0.0226
 1572BOLB   C1A37709  24.118  33.626  14.598  0.0259 -0.1569  0.0976
 1572BOLB   C2A37710  23.861  33.981  14.439  0.0736 -0.2332  0.1083
 1572BOLB   C3A37711  23.531  34.268  14.186 -0.2044  0.1200  0.2554
 1572BOLB   C4A37712  23.275  34.466  13.914  0.0619 -0.1279  0.3738
 1572BOLB   C1B37713  24.423  33.582  14.238 -0.1736  0.0863  0.1567
 1572BOLB   C2B37714  24.596  33.779  13.864  0.0643 -0.0465  0.1256
 1572BOLB   C3B37715  24.488  33.866  13.385 -0.2365  0.1440 -0.0229
 1572BOLB   C4B37716  24.570  33.537  13.037  0.0970  0.2734  0.1074
 1572BOLB   NC237717  22.227  36.294  12.047 -0.2233  0.2295  0.1608
 1572BOLB   PO237718  22.429  35.981  12.237  0.1278  0.0366 -0.0484
 1572BOLB   GL337719  22.618  35.808  12.567  0.1754  0.0730 -0.3889
 1572BOLB   GL437720  22.872  35.668  12.509 -0.0339  0.0659  0.1487
 1572BOLB   C1C37721  22.693  35.696  13.002 -0.1762 -0.3269  0.2051
 1572BOLB   C2C37722  22.913  35.500  13.325  0.1243  0.4226  0.2666
 1572BOLB   C3C37723  23.267  35.184  13.376 -0.1708 -0.1300 -0.0837
 1572BOLB   C4C37724  23.413  34.739  13.614  0.1263  0.2567  0.0429
 1572BOLB   C1D37725  22.951  35.287  12.745 -0.1833  0.1361 -0.1328
 1572BOLB   C2D37726  22.971  34.989  12.802  0.1038  0.3023 -0.2289
 1572BOLB   C3D37727  23.043  34.804  13.133  0.1020 -0.0566  0.0327
 1572BOLB   C4D37728  23.319  34.459  13.262  0.1113 -0.1284 -0.1671
 1573BOLB   NC137729  28.478  34.128  15.502 -0.2993 -0.0971 -0.1087
 1573BOLB   PO137730  28.676  34.409  15.155  0.0036 -0.2347  0.0856
 1573BOLB   GL137731  28.545  34.542  14.734 -0.1727 -0.3273 -0.0991
 1573BOLB   GL237732  28.270  34.419  14.631  0.2567  0.3389  0.1175
 1573BOLB   C1A37733  28.766  34.743  14.432  0.1933 -0.2242  0.0337
 1573BOLB   C2A37734  28.881  34.692  14.127 -0.1480 -0.0938  0.3002
 1573BOLB   C3A37735  28.758  34.574  13.661 -0.0612 -0.0179 -0.1928
 1573BOLB   C4A37736  28.608  34.773  13.286 -0.3263  0.1536  0.2878
 1573BOLB   C1B37737  28.325  34.635  14.326  0.1096  0.0318  0.0643
 1573BOLB   C2B37738  28.413  34.897  13.937  0.0201  0.0533  0.1414
 1573BOLB   C3B37739  28.703  35.085  13.725  0.0541 -0.2382  0.0483
 1573BOLB   C4B37740  28.873  35.321  13.483  0.3647 -0.1502  0.0398
 1573BOLB   NC237741  27.816  36.548  11.455  0.0335  0.0031  0.1028
 1573BOLB   PO237742  28.169  36.345  11.644  0.2447  0.1736  0.1022
 1573BOLB   GL337743  28.026  36.271  11.989  0.0642 -0.1161  0.2505
 1573BOLB   GL437744  27.771  36.400  11.973 -0.2236  0.2331  0.0845
 1573BOLB   C1C37745  28.004  35.952  12.240 -0.1378  0.3057  0.0402
 1573BOLB   C2C37746  27.938  35.546  12.539  0.1004 -0.2815  0.0022
 1573BOLB   C3C37747  28.290  35.231  12.673 -0.2839 -0.2385 -0.1562
 1573BOLB   C4C37748  28.402  35.077  13.017  0.1865 -0.3175  0.2159
 1573BOLB   C1D37749  28.032  36.762  12.158 -0.2090  0.0094  0.2281
 1573BOLB   C2D37750  28.074  36.830  12.574  0.0980  0.1342 -0.3780
 1573BOLB   C3D37751  28.058  36.678  13.022 -0.2053  0.0033 -0.1524
 1573BOLB   C4D37752  27.913  36.423  13.241  0.1226 -0.1222  0.0305
 1574BOLB   NC137753  38.432  24.569  18.722  0.4014  0.1890 -0.0399
 1574BOLB   PO137754  38.432  24.981  18.445 -0.1843 -0.3810  0.0625
 1574BOLB   GL137755  38.024  25.162  18.487  0.0158 -0.2405 -0.0162
 1574BOLB   GL237756  37.655  25.072  18.313  0.2973  0.1557 -0.0792
 1574BOLB   C1A37757  37.670  25.449  18.636 -0.0801 -0.3646  0.0941
 1574BOLB   C2A37758  37.521  25.798  18.557  0.1635  0.0226 -0.3331
 1574BOLB   C3A37759  37.284  26.084  18.306  0.1868  0.0430  0.0922
 1574BOLB   C4A37760  37.131  26.341  18.049  0.0469  0.2288 -0.2881
 1574BOLB   C1B37761  37.254  25.171  18.354  0.0335 -0.4482  0.1232
 1574BOLB   C2B37762  36.945  25.491  18.267  0.1803 -0.0064 -0.0334
 1574BOLB   C3B37763  36.733  25.866  18.393 -0.2671  0.1795 -0.2555
 1574BOLB   C4B37764  36.604  26.256  18.509  0.3892 -0.0383 -0.3521
 1574BOLB   NC237765  38.251  25.005  16.109 -0.2627 -0.0691  0.0977
 1574BOLB   PO237766  37.893  25.048  16.327  0.2377 -0.0916 -0.0347
 1574BOLB   GL337767  37.581  25.447  16.478  0.3584 -0.0296 -0.0062
 1574BOLB   GL437768  37.627  25.551  16.808  0.1547 -0.2073 -0.1342
 1574BOLB   C1C37769  37.134  25.597  16.652  0.0410  0.0979 -0.1418
 1574BOLB   C2C37770  36.910  25.913  16.953 -0.0604  0.1080  0.1447
 1574BOLB   C3C37771  36.767  26.309  17.103 -0.4508  0.0106  0.0754
 1574BOLB   C4C37772  36.847  26.341  17.628 -0.2149  0.1750 -0.0915
 1574BOLB   C1D37773  37.453  25.975  16.954 -0.5048 -0.0584 -0.0011
 1574BOLB   C2D37774  37.280  26.282  17.241  0.0991  0.1080  0.1756
 1574BOLB   C3D37775  37.341  26.436  17.583 -0.2280  0.0010  0.0434
 1574BOLB   C4D37776  37.687  26.323  17.911 -0.0183  0.2196  0.0643
 1575BOLB   NC137777  33.888  32.554   5.415  0.2029  0.1839  0.1773
 1575BOLB   PO137778  33.686  32.179   5.190  0.1000 -0.3555 -0.0271
 1575BOLB   GL137779  33.514  32.038   4.851 -0.0987 -0.2066  0.1298
 1575BOLB   GL237780  33.482  31.723   4.643  0.0182 -0.1858  0.2260
 1575BOLB   C1A37781  33.304  32.126   4.476  0.3112  0.0131 -0.2992
 1575BOLB   C2A37782  33.330  32.332   4.047 -0.0344  0.0020  0.1747
 1575BOLB   C3A37783  33.195  32.683   3.819  0.5082  0.3334 -0.0984
 1575BOLB   C4A37784  33.288  32.873   3.446  0.4309 -0.0019  0.1743
 1575BOLB   C1B37785  33.181  31.655   4.394  0.2046  0.0472  0.1545
 1575BOLB   C2B37786  32.890  31.791   4.092 -0.1611  0.0675  0.1541
 1575BOLB   C3B37787  32.657  31.570   3.628  0.1068 -0.1853  0.0584
 1575BOLB   C4B37788  32.465  31.248   3.326 -0.1544 -0.0113  0.0564
 1575BOLB   NC237789  33.497  34.419   5.166  0.2832  0.0208  0.1671
 1575BOLB   PO237790  33.710  34.574   4.889  0.3657 -0.0289 -0.0163
 1575BOLB   GL337791  33.393  34.318   4.590 -0.3112  0.0280  0.0223
 1575BOLB   GL437792  33.689  34.250   4.385  0.0785  0.2401  0.1944
 1575BOLB   C1C37793  33.378  34.439   4.050 -0.1226  0.1503  0.0447
 1575BOLB   C2C37794  33.259  34.072   3.833  0.1961  0.1645 -0.0065
 1575BOLB   C3C37795  33.081  33.641   3.610  0.1529  0.2615  0.0790
 1575BOLB   C4C37796  33.169  33.262   3.343  0.2047  0.1747 -0.1989
 1575BOLB   C1D37797  33.389  33.898   4.306 -0.2393  0.2823  0.1677
 1575BOLB   C2D37798  33.094  33.595   4.180 -0.1763  0.3054 -0.1478
 1575BOLB   C3D37799  33.052  33.173   4.024  0.1711  0.2313 -0.1703
 1575BOLB   C4D37800  32.854  32.974   3.650  0.0413  0.1552 -0.2098
 1576BOLB   NC137801  23.088  25.757  17.607 -0.1623  0.0796  0.0442
 1576BOLB   PO137802  22.845  25.269  17.508 -0.0503 -0.1562 -0.1588
 1576BOLB   GL137803  22.487  24.931  17.428 -0.2675 -0.1624  0.1554
 1576BOLB   GL237804  22.455  24.786  17.698 -0.1285  0.2243  0.0993
 1576BOLB   C1A37805  22.144  24.692  17.136 -0.2339 -0.1267  0.1583
 1576BOLB   C2A37806  21.935  24.487  16.866 -0.2663 -0.2022 -0.0153
 1576BOLB   C3A37807  21.796  24.142  16.719 -0.0163  0.0345  0.0225
 1576BOLB   C4A37808  21.435  24.204  16.533 -0.0885  0.1989 -0.1125
 1576BOLB   C1B37809  22.219  24.405  17.833 -0.2980 -0.1669  0.1879
 1576BOLB   C2B37810  22.093  24.090  18.259  0.0053  0.0064  0.0650
 1576BOLB   C3B37811  21.964  23.707  18.283  0.4852 -0.0999  0.2806
 1576BOLB   C4B37812  22.028  23.340  18.036  0.1586  0.5425 -0.1806
 1576BOLB   NC237813  20.737  23.463  13.848  0.1978 -0.1373 -0.4915
 1576BOLB   PO237814  20.633  23.137  14.156 -0.0371 -0.1474  0.1597
 1576BOLB   GL337815  20.734  23.431  14.405 -0.3541  0.0452 -0.4703
 1576BOLB   GL437816  20.861  23.162  14.655  0.2566  0.0133  0.0805
 1576BOLB   C1C37817  20.794  23.673  14.889 -0.2128  0.0275  0.2340
 1576BOLB   C2C37818  20.886  23.683  15.315 -0.3811 -0.1042  0.0554
 1576BOLB   C3C37819  20.994  23.756  15.754 -0.1137  0.1070 -0.3311
 1576BOLB   C4C37820  21.042  23.982  16.223 -0.0514  0.1263 -0.0231
 1576BOLB   C1D37821  20.748  23.172  15.046  0.2685  0.3345 -0.2439
 1576BOLB   C2D37822  20.497  22.904  15.349  0.2711 -0.0708  0.0404
 1576BOLB   C3D37823  20.319  22.691  15.680  0.0402 -0.0999  0.1178
 1576BOLB   C4D37824  20.382  22.299  15.945  0.4366  0.0099 -0.1327
 1577BOLB   NC137825  30.831  27.431   1.680  0.2468 -0.3403 -0.1090
 1577BOLB   PO137826  30.758  27.491   2.152 -0.3105 -0.2133 -0.4076
 1577BOLB   GL137827  30.987  27.599   2.555 -0.1705 -0.0187 -0.1868
 1577BOLB   GL237828  30.914  27.637   2.843  0.0227  0.1577 -0.2624
 1577BOLB   C1A37829  31.260  27.348   2.712 -0.1851  0.1096 -0.0491
 1577BOLB   C2A37830  31.554  27.132   2.753 -0.1378  0.0773  0.1358
 1577BOLB   C3A37831  31.751  26.879   3.091 -0.3957 -0.1055  0.1079
 1577BOLB   C4A37832  32.074  26.688   3.396  0.1234  0.1730  0.0404
 1577BOLB   C1B37833  31.146  27.526   3.180 -0.6616  0.0181 -0.0206
 1577BOLB   C2B37834  31.105  27.270   3.478  0.1552  0.0111  0.3759
 1577BOLB   C3B37835  31.373  27.257   3.930 -0.1164  0.1570 -0.2035
 1577BOLB   C4B37836  31.409  27.262   4.372 -0.1776  0.0834 -0.0054
 1577BOLB   NC237837  34.003  26.440   4.480  0.2686  0.1045 -0.2208
 1577BOLB   PO237838  34.170  26.213   4.251  0.0276  0.2070  0.0493
 1577BOLB   GL337839  33.781  26.280   4.054  0.4267 -0.0909 -0.0385
 1577BOLB   GL437840  33.526  26.455   4.205  0.0215 -0.4048  0.0968
 1577BOLB   C1C37841  33.437  26.196   3.726  0.1056 -0.0747  0.2878
 1577BOLB   C2C37842  32.938  26.106   3.525  0.2493  0.0450 -0.3633
 1577BOLB   C3C37843  32.555  25.954   3.416 -0.0192 -0.0326  0.1532
 1577BOLB   C4C37844  32.358  26.279   3.361 -0.0495 -0.1143 -0.0920
 1577BOLB   C1D37845  33.247  26.580   3.958 -0.0237  0.2563  0.1769
 1577BOLB   C2D37846  32.892  26.631   3.581 -0.3830  0.1311 -0.1318
 1577BOLB   C3D37847  33.040  26.480   3.243 -0.1289  0.0806  0.1487
 1577BOLB   C4D37848  32.875  26.097   3.025 -0.1391 -0.0747  0.0718
 1578BOLB   NC137849  31.740  22.518  20.332  0.1660 -0.0034 -0.1473
 1578BOLB   PO137850  31.571  22.325  20.006 -0.3634  0.1471  0.0974
 1578BOLB   GL137851  31.754  21.942  20.109  0.1344  0.0889  0.0479
 1578BOLB   GL237852  31.868  21.785  19.920  0.0510  0.1830  0.2842
 1578BOLB   C1A37853  31.870  21.630  20.398  0.0192  0.1031  0.0412
 1578BOLB   C2A37854  32.119  21.385  20.582  0.3543 -0.1147  0.0467
 1578BOLB   C3A37855  32.478  21.138  20.575 -0.2672 -0.1247  0.1910
 1578BOLB   C4A37856  32.893  21.115  20.693  0.1157  0.0250 -0.1028
 1578BOLB   C1B37857  32.212  21.571  19.951  0.1581 -0.0316 -0.3410
 1578BOLB   C2B37858  32.610  21.296  20.070  0.1026  0.4700 -0.0127
 1578BOLB   C3B37859  32.964  21.151  20.096 -0.2797 -0.5559 -0.2939
 1578BOLB   C4B37860  33.358  21.266  19.961 -0.1166  0.0236  0.0676
 1578BOLB   NC237861  33.955  18.961  20.355 -0.0157 -0.2615 -0.0736
 1578BOLB   PO237862  33.977  18.789  20.771  0.2433  0.0157 -0.1367
 1578BOLB   GL337863  33.751  19.127  20.784  0.3093 -0.3008 -0.1951
 1578BOLB   GL437864  33.437  19.238  20.638  0.4149  0.0325 -0.0616
 1578BOLB   C1C37865  33.833  19.556  20.822  0.3485 -0.0193 -0.1715
 1578BOLB   C2C37866  33.567  20.017  20.912 -0.2715 -0.4400 -0.1754
 1578BOLB   C3C37867  33.473  20.424  20.732  0.0061 -0.0945 -0.0754
 1578BOLB   C4C37868  33.214  20.781  20.723 -0.2607  0.2358  0.3387
 1578BOLB   C1D37869  33.083  19.197  20.402  0.0739  0.0598 -0.2383
 1578BOLB   C2D37870  32.752  19.407  20.256 -0.0108  0.2389  0.0116
 1578BOLB   C3D37871  32.461  19.439  20.004  0.0162 -0.1102 -0.1849
 1578BOLB   C4D37872  32.259  19.865  20.128 -0.1380  0.1085 -0.1826
 1579BOLB   NC137873  23.672  36.753  23.554  0.2873 -0.0113 -0.0711
 1579BOLB   PO137874  23.828  36.673  23.139  0.4522  0.0184  0.2376
 1579BOLB   GL137875  23.398  36.761  23.139 -0.0642 -0.1831  0.2380
 1579BOLB   GL237876  23.205  36.707  23.383  0.3239  0.0456 -0.0121
 1579BOLB   C1A37877  23.315  37.121  23.123 -0.1331  0.0728 -0.0491
 1579BOLB   C2A37878  23.161  37.503  23.207  0.0568 -0.0623 -0.0003
 1579BOLB   C3A37879  23.015  37.866  23.471  0.3141  0.0679  0.1171
 1579BOLB   C4A37880  22.586  37.997  23.665  0.0248 -0.2727 -0.1323
 1579BOLB   C1B37881  22.957  37.065  23.518  0.0852 -0.1011 -0.0459
 1579BOLB   C2B37882  22.684  37.494  23.619 -0.4029 -0.1458 -0.3858
 1579BOLB   C3B37883  22.383  37.632  23.925 -0.5305 -0.0696 -0.0421
 1579BOLB   C4B37884  22.193  37.537  24.288  0.0963  0.1519 -0.2999
 1579BOLB   NC237885  22.226  40.551  23.888 -0.1022  0.0171  0.0915
 1579BOLB   PO237886  21.853  40.282  23.923 -0.1652 -0.1784  0.0187
 1579BOLB   GL337887  22.117  40.181  23.637  0.1011 -0.0294  0.0164
 1579BOLB   GL437888  22.120  40.257  23.333  0.1930  0.0965 -0.1242
 1579BOLB   C1C37889  22.205  39.697  23.819 -0.1453  0.1874  0.0598
 1579BOLB   C2C37890  22.206  39.185  23.936  0.1018  0.0017  0.2581
 1579BOLB   C3C37891  22.243  38.673  23.968 -0.0442  0.1629  0.3416
 1579BOLB   C4C37892  22.299  38.317  23.874 -0.1543  0.1929 -0.1292
 1579BOLB   C1D37893  22.229  39.775  23.286  0.1119 -0.0162  0.1077
 1579BOLB   C2D37894  22.185  39.363  23.420 -0.1185  0.2211 -0.2711
 1579BOLB   C3D37895  22.560  39.075  23.476  0.1696 -0.0786  0.0178
 1579BOLB   C4D37896  22.974  38.873  23.400  0.3672 -0.0430  0.0002
 1580BOLB   NC137897  33.626  33.613  17.486  0.0353 -0.0451  0.0289
 1580BOLB   PO137898  33.661  33.963  17.261 -0.0719 -0.1986 -0.4139
 1580BOLB   GL137899  33.956  34.270  16.949  0.1158  0.0632  0.2877
 1580BOLB   GL237900  33.837  34.446  16.700  0.2940  0.2695 -0.1245
 1580BOLB   C1A37901  34.184  34.541  17.213 -0.0450  0.1009  0.2898
 1580BOLB   C2A37902  34.381  34.925  17.179 -0.1236  0.1234 -0.0193
 1580BOLB   C3A37903  34.610  35.231  17.265  0.2670  0.0603 -0.2295
 1580BOLB   C4A37904  34.921  35.436  17.483  0.0175 -0.0921 -0.2402
 1580BOLB   C1B37905  34.157  34.806  16.765 -0.2651 -0.0606 -0.0297
 1580BOLB   C2B37906  34.423  35.106  16.625 -0.1854 -0.1627 -0.0452
 1580BOLB   C3B37907  34.502  35.545  16.650  0.0660 -0.0438  0.2022
 1580BOLB   C4B37908  34.837  35.454  16.741  0.5299  0.0948  0.3223
 1580BOLB   NC237909  37.400  35.420  16.722  0.1549  0.1502  0.0675
 1580BOLB   PO237910  37.422  35.755  17.101  0.5320 -0.5710  0.1263
 1580BOLB   GL337911  36.979  35.729  17.212 -0.2594 -0.1782  0.1389
 1580BOLB   GL437912  36.819  35.941  17.113  0.2492  0.3873  0.0640
 1580BOLB   C1C37913  36.658  35.632  17.508  0.2430 -0.3998  0.0200
 1580BOLB   C2C37914  36.269  35.448  17.567 -0.3749  0.0762 -0.0561
 1580BOLB   C3C37915  35.779  35.448  17.723  0.1255 -0.0993  0.2282
 1580BOLB   C4C37916  35.261  35.426  17.613 -0.0620 -0.0264 -0.0108
 1580BOLB   C1D37917  36.426  35.822  17.079  0.0057  0.2378 -0.0461
 1580BOLB   C2D37918  36.248  35.437  17.070  0.2053 -0.1677  0.0806
 1580BOLB   C3D37919  36.055  35.132  17.182  0.1051  0.0804 -0.0838
 1580BOLB   C4D37920  35.636  35.209  17.333 -0.3468  0.0001  0.0471
 1581BOLB   NC137921  24.203  27.089  14.790  0.0379  0.0135  0.4852
 1581BOLB   PO137922  24.524  26.735  14.628  0.2415  0.1541  0.0142
 1581BOLB   GL137923  24.486  26.461  14.232  0.0724 -0.0018  0.1359
 1581BOLB   GL237924  24.460  26.634  13.907  0.1140 -0.3125 -0.0114
 1581BOLB   C1A37925  24.384  26.138  13.849  0.3677 -0.1431  0.1642
 1581BOLB   C2A37926  24.587  25.801  13.684  0.0135 -0.6055 -0.3121
 1581BOLB   C3A37927  24.811  25.755  13.268 -0.1790 -0.0895 -0.2358
 1581BOLB   C4A37928  25.055  25.900  12.960 -0.1675  0.2250 -0.0854
 1581BOLB   C1B37929  24.022  26.546  13.619  0.0726 -0.1910  0.0308
 1581BOLB   C2B37930  23.870  26.084  13.557  0.2508  0.1059  0.0213
 1581BOLB   C3B37931  23.731  25.648  13.686  0.0575 -0.2318  0.4130
 1581BOLB   C4B37932  23.433  25.421  13.567  0.2898  0.3580 -0.0173
 1581BOLB   NC237933  25.923  24.573  11.163 -0.1761 -0.1366 -0.2523
 1581BOLB   PO237934  25.583  24.732  10.965 -0.1312 -0.1456 -0.1425
 1581BOLB   GL337935  25.524  24.976  11.377 -0.1769  0.0959  0.2227
 1581BOLB   GL437936  25.412  25.388  11.381  0.1082 -0.2155  0.2618
 1581BOLB   C1C37937  25.724  25.123  11.831 -0.0958 -0.0575 -0.0666
 1581BOLB   C2C37938  25.838  25.217  12.253  0.0656 -0.0491 -0.1612
 1581BOLB   C3C37939  25.757  25.391  12.609 -0.1766  0.2015 -0.1303
 1581BOLB   C4C37940  25.520  25.786  12.904 -0.1114  0.1684  0.1824
 1581BOLB   C1D37941  25.136  25.328  11.719 -0.0299 -0.0500 -0.0330
 1581BOLB   C2D37942  25.209  25.500  12.106 -0.0917  0.4284 -0.2107
 1581BOLB   C3D37943  25.252  25.506  12.582 -0.0071  0.0293 -0.0971
 1581BOLB   C4D37944  25.000  25.393  12.806  0.2808 -0.0606 -0.2104
 1582BOLB   NC137945  34.951  32.764  19.690 -0.0496  0.0523  0.2027
 1582BOLB   PO137946  35.449  32.927  19.785  0.1852  0.1078 -0.1268
 1582BOLB   GL137947  35.508  33.235  19.417 -0.0958  0.1470 -0.1305
 1582BOLB   GL237948  35.371  33.486  19.480 -0.0381 -0.5218  0.0907
 1582BOLB   C1A37949  35.751  33.551  19.160 -0.1471  0.2440 -0.0934
 1582BOLB   C2A37950  36.137  33.780  19.227  0.2345 -0.0107  0.3015
 1582BOLB   C3A37951  36.501  34.091  19.087  0.1570 -0.1355  0.0239
 1582BOLB   C4A37952  36.665  34.474  18.997 -0.0849 -0.0699  0.0342
 1582BOLB   C1B37953  35.705  33.807  19.664 -0.3121  0.0242 -0.0622
 1582BOLB   C2B37954  35.986  33.863  19.842 -0.5338  0.1282  0.1831
 1582BOLB   C3B37955  36.370  33.816  20.151  0.1364  0.0657  0.0006
 1582BOLB   C4B37956  36.760  33.893  20.343 -0.0576 -0.1276 -0.0065
 1582BOLB   NC237957  39.206  34.841  20.095 -0.1112  0.1564 -0.1640
 1582BOLB   PO237958  38.823  34.691  20.087 -0.1326 -0.1764  0.3604
 1582BOLB   GL337959  38.388  34.603  19.998 -0.2025 -0.0013 -0.1881
 1582BOLB   GL437960  38.351  34.337  19.749  0.3308  0.1470  0.0481
 1582BOLB   C1C37961  38.024  34.637  19.750 -0.1848 -0.3316  0.1069
 1582BOLB   C2C37962  37.724  34.793  19.495 -0.0269  0.3628 -0.0565
 1582BOLB   C3C37963  37.288  34.956  19.348 -0.0095  0.0299 -0.0580
 1582BOLB   C4C37964  36.784  34.879  19.260  0.2182  0.1173  0.0332
 1582BOLB   C1D37965  38.020  34.269  20.079 -0.0797 -0.2093  0.1515
 1582BOLB   C2D37966  37.978  34.330  20.467 -0.0733  0.2260  0.2061
 1582BOLB   C3D37967  37.708  34.100  20.654 -0.0960 -0.0777  0.4540
 1582BOLB   C4D37968  37.220  34.204  20.516 -0.0480 -0.0720 -0.0331
 1583BOLB   NC137969  31.332  37.139  21.338  0.0632  0.0233 -0.1957
 1583BOLB   PO137970  31.571  37.033  21.002 -0.1202 -0.1122  0.3700
 1583BOLB   GL137971  31.795  37.577  20.998 -0.1275  0.0552 -0.1262
 1583BOLB   GL237972  32.114  37.642  20.935 -0.3535 -0.1325  0.0180
 1583BOLB   C1A37973  31.647  37.941  21.246 -0.2142 -0.0471  0.5925
 1583BOLB   C2A37974  31.554  38.281  21.457  0.0318 -0.2871 -0.0051
 1583BOLB   C3A37975  31.762  38.674  21.524  0.0317 -0.3371 -0.1399
 1583BOLB   C4A37976  31.835  39.060  21.468 -0.1290 -0.1986 -0.5564
 1583BOLB   C1B37977  32.294  38.064  20.795  0.3373  0.3369 -0.1887
 1583BOLB   C2B37978  32.733  38.265  20.721 -0.0458 -0.3801 -0.4453
 1583BOLB   C3B37979  32.931  38.649  20.759  0.1886 -0.1375 -0.0406
 1583BOLB   C4B37980  33.295  38.924  20.721  0.0623  0.2460  0.0302
 1583BOLB   NC237981  33.535  40.793  20.596 -0.1174  0.2347  0.0716
 1583BOLB   PO237982  33.286  40.638  20.227 -0.0811  0.1104 -0.1752
 1583BOLB   GL337983  32.948  40.477  20.506  0.0285 -0.0242 -0.0205
 1583BOLB   GL437984  33.160  40.349  20.675 -0.0134  0.1931  0.0567
 1583BOLB   C1C37985  32.582  40.513  20.667  0.2433  0.1650  0.1242
 1583BOLB   C2C37986  32.432  40.097  20.972  0.0633  0.0572  0.2588
 1583BOLB   C3C37987  32.126  39.864  21.099  0.2618  0.0532 -0.2611
 1583BOLB   C4C37988  31.920  39.458  21.182 -0.0831  0.0310  0.0129
 1583BOLB   C1D37989  33.409  40.000  20.771 -0.1280 -0.0439  0.2870
 1583BOLB   C2D37990  33.528  39.629  20.853  0.1457 -0.1765 -0.0700
 1583BOLB   C3D37991  33.723  39.280  20.808  0.1397  0.1641 -0.2019
 1583BOLB   C4D37992  33.859  38.902  20.598 -0.1688  0.0231 -0.0842
 1584BOLB   NC137993  30.926  33.130  14.718  0.3683 -0.1643 -0.3392
 1584BOLB   PO137994  30.952  33.555  14.791 -0.1545 -0.1576 -0.2411
 1584BOLB   GL137995  31.054  33.446  14.387  0.1825  0.0105 -0.0525
 1584BOLB   GL237996  31.201  33.743  14.347  0.1483  0.0028 -0.2014
 1584BOLB   C1A37997  31.268  33.349  14.044 -0.3809  0.0022 -0.0408
 1584BOLB   C2A37998  31.331  33.231  13.659  0.1374  0.0297 -0.1528
 1584BOLB   C3A37999  31.300  33.214  13.139  0.2275 -0.1889  0.0157
 1584BOLB   C4A38000  30.932  33.258  12.905 -0.0620 -0.1467 -0.2273
 1584BOLB   C1B38001  31.437  33.875  14.088  0.1664 -0.0739  0.0404
 1584BOLB   C2B38002  31.650  33.795  13.782 -0.2790  0.1898  0.0596
 1584BOLB   C3B38003  32.045  33.874  13.555 -0.1173  0.0013  0.0584
 1584BOLB   C4B38004  32.245  33.552  13.786 -0.1447 -0.3622 -0.0866
 1584BOLB   NC238005  31.243  32.758  10.379 -0.1364  0.1504  0.3598
 1584BOLB   PO238006  31.152  33.063  10.534  0.0396 -0.1094  0.4444
 1584BOLB   GL338007  31.103  33.070  10.903  0.1933  0.3042 -0.0530
 1584BOLB   GL438008  31.349  32.981  11.119  0.0961  0.0581  0.0627
 1584BOLB   C1C38009  31.073  33.340  11.299  0.0965  0.1623 -0.0996
 1584BOLB   C2C38010  30.947  33.603  11.601  0.1726 -0.0245  0.2435
 1584BOLB   C3C38011  30.706  33.593  12.104  0.0955  0.1678 -0.2152
 1584BOLB   C4C38012  30.782  33.402  12.468 -0.1702  0.1943 -0.1354
 1584BOLB   C1D38013  31.479  32.770  11.573  0.0474  0.0467  0.0634
 1584BOLB   C2D38014  31.360  32.659  12.051  0.0592 -0.0679 -0.1774
 1584BOLB   C3D38015  31.188  32.544  12.413 -0.2171  0.1349  0.0792
 1584BOLB   C4D38016  31.093  32.694  12.853  0.0654  0.1517 -0.1331
 1585BOLB   NC138017  27.608  24.490  16.016  0.2385 -0.0755 -0.0952
 1585BOLB   PO138018  27.857  24.231  15.690 -0.0718 -0.0765 -0.2041
 1585BOLB   GL138019  27.711  23.911  15.378  0.1800 -0.0837 -0.0517
 1585BOLB   GL238020  27.607  23.615  15.459  0.2688  0.1653 -0.0685
 1585BOLB   C1A38021  27.669  23.911  14.955  0.2882  0.1029  0.0140
 1585BOLB   C2A38022  27.537  23.777  14.550 -0.6313 -0.2721  0.2528
 1585BOLB   C3A38023  27.427  23.517  14.197  0.0444  0.0655 -0.0122
 1585BOLB   C4A38024  27.478  23.364  13.830  0.0233 -0.0145 -0.3224
 1585BOLB   C1B38025  27.614  23.341  15.141 -0.0933 -0.0771 -0.1572
 1585BOLB   C2B38026  27.619  23.111  14.768 -0.3023  0.3720  0.0920
 1585BOLB   C3B38027  27.693  22.827  14.497  0.0267 -0.3849  0.2139
 1585BOLB   C4B38028  27.769  22.475  14.449  0.0341  0.2286  0.0839
 1585BOLB   NC238029  25.689  21.974  12.235 -0.1931  0.0627  0.1516
 1585BOLB   PO238030  25.921  22.104  12.653  0.2074  0.1071 -0.2469
 1585BOLB   GL338031  26.434  22.162  12.681 -0.0598 -0.1794  0.0268
 1585BOLB   GL438032  26.260  22.499  12.731  0.0509  0.3158 -0.0016
 1585BOLB   C1C38033  26.774  22.268  12.903 -0.2011 -0.2128  0.0413
 1585BOLB   C2C38034  26.955  22.575  13.081  0.1547  0.0464 -0.1895
 1585BOLB   C3C38035  27.187  22.760  13.285  0.0833  0.1269 -0.0579
 1585BOLB   C4C38036  27.489  22.956  13.604 -0.0568  0.0855  0.0211
 1585BOLB   C1D38037  26.459  22.715  13.042  0.0412  0.0060  0.0654
 1585BOLB   C2D38038  26.566  22.793  13.423  0.1763 -0.3059  0.0457
 1585BOLB   C3D38039  26.617  22.859  13.856  0.2802 -0.2111  0.1545
 1585BOLB   C4D38040  26.638  23.004  14.313  0.0761  0.0928  0.0008
 1586BOLB   NC138041  31.594  36.851  19.252 -0.1001  0.0451 -0.4177
 1586BOLB   PO138042  31.310  37.035  19.538 -0.2815  0.0270  0.0105
 1586BOLB   GL138043  31.565  37.334  19.574  0.0796 -0.1179  0.1237
 1586BOLB   GL238044  31.818  37.245  19.358  0.2512  0.2120  0.0837
 1586BOLB   C1A38045  31.796  37.687  19.662 -0.0240 -0.1215 -0.0257
 1586BOLB   C2A38046  32.036  38.023  19.457 -0.4123  0.1464 -0.0233
 1586BOLB   C3A38047  32.451  38.320  19.447  0.2252 -0.3738  0.1768
 1586BOLB   C4A38048  32.483  38.782  19.271  0.2810  0.0471  0.0071
 1586BOLB   C1B38049  31.921  37.591  19.155 -0.0503  0.0550  0.1439
 1586BOLB   C2B38050  31.688  38.082  19.011  0.1127 -0.0961  0.2142
 1586BOLB   C3B38051  31.539  38.551  18.959 -0.1858  0.2217 -0.0812
 1586BOLB   C4B38052  31.385  38.963  18.716  0.2138  0.0209 -0.1923
 1586BOLB   NC238053  32.846  40.861  19.054  0.0164  0.2854  0.0129
 1586BOLB   PO238054  32.548  41.232  19.174  0.1446 -0.2547 -0.1695
 1586BOLB   GL338055  32.322  40.857  19.184 -0.2486  0.0411  0.0621
 1586BOLB   GL438056  32.452  40.533  18.975 -0.1590  0.6657 -0.0508
 1586BOLB   C1C38057  32.425  40.496  19.472 -0.1037 -0.0170 -0.5454
 1586BOLB   C2C38058  32.454  39.958  19.460  0.0061  0.1457  0.0193
 1586BOLB   C3C38059  32.476  39.655  19.192  0.0398 -0.2799  0.3970
 1586BOLB   C4C38060  32.584  39.172  19.106 -0.1749 -0.2136  0.2129
 1586BOLB   C1D38061  32.251  40.137  19.014 -0.1129 -0.1642 -0.1612
 1586BOLB   C2D38062  32.053  39.825  19.150 -0.1036 -0.1368  0.0970
 1586BOLB   C3D38063  32.081  39.543  19.446  0.1959 -0.3094 -0.1097
 1586BOLB   C4D38064  32.399  39.158  19.552 -0.0970 -0.0797 -0.1253
 1587BOLB   NC138065  28.724  33.408  14.531 -0.0256 -0.2463 -0.1549
 1587BOLB   PO138066  29.144  33.338  14.520 -0.1802 -0.1785  0.2160
 1587BOLB   GL138067  29.266  33.331  14.137 -0.0480 -0.2533 -0.1189
 1587BOLB   GL238068  29.514  33.236  13.977  0.1270 -0.0858 -0.1602
 1587BOLB   C1A38069  29.155  33.410  13.677  0.0436  0.0349 -0.0137
 1587BOLB   C2A38070  29.005  33.519  13.239 -0.2000 -0.1561  0.3074
 1587BOLB   C3A38071  29.078  33.652  12.809 -0.2217  0.1431  0.1360
 1587BOLB   C4A38072  29.209  33.772  12.350  0.1966  0.0663 -0.1711
 1587BOLB   C1B38073  29.640  33.572  13.651  0.2885 -0.2306 -0.4609
 1587BOLB   C2B38074  29.511  33.512  13.270 -0.1030 -0.0115  0.0191
 1587BOLB   C3B38075  29.678  33.439  12.865  0.1231  0.1130  0.1435
 1587BOLB   C4B38076  29.732  33.491  12.402 -0.1720  0.2203 -0.0633
 1587BOLB   NC238077  30.246  35.740  10.590  0.0979 -0.1015 -0.1829
 1587BOLB   PO238078  30.249  35.614  11.037 -0.1327 -0.1041 -0.0185
 1587BOLB   GL338079  29.976  35.251  11.181  0.0833 -0.2892 -0.0640
 1587BOLB   GL438080  29.828  35.029  11.083 -0.2732 -0.1191  0.3369
 1587BOLB   C1C38081  29.690  35.098  11.541  0.0761  0.0986  0.0437
 1587BOLB   C2C38082  29.444  34.682  11.766 -0.0382  0.1019  0.1985
 1587BOLB   C3C38083  29.247  34.278  11.714 -0.0911 -0.1641  0.0548
 1587BOLB   C4C38084  29.187  33.816  11.924  0.1769 -0.3997 -0.0518
 1587BOLB   C1D38085  29.598  34.697  11.246  0.1087 -0.3008  0.0158
 1587BOLB   C2D38086  29.725  34.262  11.483 -0.0241 -0.0613 -0.0177
 1587BOLB   C3D38087  29.805  33.853  11.696  0.0791 -0.0881 -0.2118
 1587BOLB   C4D38088  29.900  33.424  11.906 -0.1105  0.1901  0.1196
 1588BOLB   NC138089  35.229  27.800  22.376  0.0947  0.2585 -0.0549
 1588BOLB   PO138090  35.530  27.997  22.439  0.4456 -0.1371 -0.4774
 1588BOLB   GL138091  35.883  27.868  22.673 -0.1604 -0.0110 -0.1453
 1588BOLB   GL238092  35.944  27.477  22.769 -0.1814 -0.2912  0.2914
 1588BOLB   C1A38093  36.327  27.776  22.621  0.2755  0.0800  0.4046
 1588BOLB   C2A38094  36.766  27.755  22.437  0.3899 -0.0798  0.0816
 1588BOLB   C3A38095  37.112  27.587  22.287 -0.1804 -0.0876  0.1883
 1588BOLB   C4A38096  37.548  27.596  22.335  0.1800 -0.0453  0.0543
 1588BOLB   C1B38097  36.358  27.220  22.830 -0.0622  0.0505  0.1531
 1588BOLB   C2B38098  36.685  26.854  22.968  0.1114  0.2154 -0.2849
 1588BOLB   C3B38099  36.942  26.481  23.167  0.0617  0.0980 -0.1301
 1588BOLB   C4B38100  36.933  26.332  23.585  0.1406 -0.2404  0.0748
 1588BOLB   NC238101  39.605  26.033  22.640  0.1619  0.2604  0.1412
 1588BOLB   PO238102  39.490  26.338  22.969 -0.0765 -0.0049 -0.2691
 1588BOLB   GL338103  39.228  26.634  22.898  0.0197 -0.3401 -0.1927
 1588BOLB   GL438104  38.920  26.483  22.852 -0.2519  0.0646 -0.2183
 1588BOLB   C1C38105  38.931  26.965  22.736  0.0541  0.4644  0.1068
 1588BOLB   C2C38106  38.795  27.132  22.403  0.0866 -0.1081 -0.1057
 1588BOLB   C3C38107  38.333  27.157  22.352  0.1204  0.0830 -0.2691
 1588BOLB   C4C38108  38.012  27.464  22.382  0.0638  0.0910 -0.0736
 1588BOLB   C1D38109  38.470  26.789  22.945  0.1550  0.0323 -0.2222
 1588BOLB   C2D38110  38.045  26.915  23.125 -0.0018 -0.3152  0.0095
 1588BOLB   C3D38111  37.574  26.994  23.219  0.0391  0.1173 -0.2964
 1588BOLB   C4D38112  37.205  26.873  22.967 -0.0563 -0.0509  0.2034
 1589BOLB   NC138113  20.803  34.283  20.445  0.2833  0.2995  0.0149
 1589BOLB   PO138114  20.752  34.117  20.007 -0.2764  0.1673 -0.2370
 1589BOLB   GL138115  20.493  34.006  19.690  0.1896  0.1395  0.1136
 1589BOLB   GL238116  20.276  33.901  19.883 -0.3965  0.1412  0.1980
 1589BOLB   C1A38117  20.150  34.112  19.408 -0.0328 -0.0474 -0.0214
 1589BOLB   C2A38118  19.729  34.022  19.301  0.0494 -0.2005 -0.2899
 1589BOLB   C3A38119  19.419  34.146  19.160 -0.1337  0.2933  0.2385
 1589BOLB   C4A38120  19.132  34.440  18.965  0.1833  0.3389 -0.1029
 1589BOLB   C1B38121  19.855  34.045  19.809  0.2429 -0.1162  0.1154
 1589BOLB   C2B38122  19.644  34.443  19.953  0.2977 -0.0343 -0.0531
 1589BOLB   C3B38123  19.355  34.708  20.119 -0.2462 -0.3225 -0.2595
 1589BOLB   C4B38124  19.246  35.114  20.315 -0.1023  0.2156  0.2246
 1589BOLB   NC238125  17.264  34.903  17.537 -0.2071 -0.1270 -0.0006
 1589BOLB   PO238126  17.075  34.593  17.689 -0.4002  0.0960 -0.2614
 1589BOLB   GL338127  17.459  34.512  17.893 -0.1138  0.1129  0.0718
 1589BOLB   GL438128  17.653  34.739  17.958  0.2027  0.1567  0.0334
 1589BOLB   C1C38129  17.837  34.365  18.217  0.3520  0.2858  0.2227
 1589BOLB   C2C38130  18.130  34.439  18.458  0.2140 -0.1756  0.1942
 1589BOLB   C3C38131  18.544  34.632  18.567  0.0527  0.0619 -0.0813
 1589BOLB   C4C38132  18.996  34.492  18.618  0.1082  0.0687  0.0540
 1589BOLB   C1D38133  17.981  35.007  18.028  0.0504  0.0761  0.2242
 1589BOLB   C2D38134  18.297  35.221  18.150  0.5020  0.0209 -0.0967
 1589BOLB   C3D38135  18.513  35.139  18.593  0.0173  0.3888 -0.2229
 1589BOLB   C4D38136  18.716  34.790  19.000 -0.1465 -0.0687 -0.3421
 1590BOLB   NC138137  19.135  17.872  17.898  0.2325 -0.1701  0.2756
 1590BOLB   PO138138  18.727  18.096  18.032  0.0023  0.1173  0.2738
 1590BOLB   GL138139  18.922  18.315  18.261  0.0781  0.1647  0.2547
 1590BOLB   GL238140  19.176  18.312  18.085  0.0909 -0.1225 -0.0133
 1590BOLB   C1A38141  18.758  18.464  18.708  0.2454 -0.0458 -0.1705
 1590BOLB   C2A38142  18.811  18.245  19.171 -0.0119 -0.1506  0.0126
 1590BOLB   C3A38143  18.838  17.820  19.321  0.1838 -0.0524 -0.2050
 1590BOLB   C4A38144  18.934  17.634  19.914 -0.0963 -0.0012  0.0227
 1590BOLB   C1B38145  19.123  18.669  17.932 -0.1567 -0.0681 -0.0306
 1590BOLB   C2B38146  19.243  19.009  18.130 -0.3247 -0.1800 -0.1390
 1590BOLB   C3B38147  19.168  19.358  18.376  0.3148 -0.2295 -0.0280
 1590BOLB   C4B38148  18.982  19.708  18.495  0.0840 -0.0020 -0.1293
 1590BOLB   NC238149  18.230  17.204  21.678  0.4081 -0.1159 -0.1971
 1590BOLB   PO238150  18.325  17.207  21.306  0.0990  0.2795 -0.2317
 1590BOLB   GL338151  18.649  17.442  21.079  0.1487 -0.2267  0.2683
 1590BOLB   GL438152  18.695  17.168  20.793  0.0176 -0.0201 -0.0758
 1590BOLB   C1C38153  19.031  17.630  20.969  0.2813 -0.3642  0.4830
 1590BOLB   C2C38154  19.328  17.793  20.728 -0.3738 -0.1566  0.1049
 1590BOLB   C3C38155  19.484  17.676  20.327 -0.1078 -0.0946  0.1908
 1590BOLB   C4C38156  19.330  17.474  20.082 -0.0116  0.0071 -0.0864
 1590BOLB   C1D38157  19.138  17.194  20.505  0.0460  0.1347  0.1711
 1590BOLB   C2D38158  19.549  17.144  20.385 -0.1117  0.1907  0.0782
 1590BOLB   C3D38159  19.951  16.905  20.318 -0.3661 -0.0061  0.1158
 1590BOLB   C4D38160  20.297  16.665  20.483  0.1132  0.2869  0.1652
 1591BOLB   NC138161  20.938  33.116  22.074  0.2722  0.0333  0.1376
 1591BOLB   PO138162  20.494  33.433  22.136 -0.0306  0.3746 -0.0075
 1591BOLB   GL138163  20.229  33.620  21.770  0.2365  0.1183 -0.2677
 1591BOLB   GL238164  19.900  33.724  21.962  0.0236 -0.1523  0.1329
 1591BOLB   C1A38165  19.962  33.860  21.459  0.1585  0.0724  0.0310
 1591BOLB   C2A38166  19.614  34.004  21.137  0.0703  0.3020 -0.0949
 1591BOLB   C3A38167  19.281  34.094  20.727 -0.3628  0.0017 -0.1235
 1591BOLB   C4A38168  19.077  34.330  20.496 -0.2025 -0.2932  0.1587
 1591BOLB   C1B38169  19.451  33.885  21.905 -0.1709  0.1685  0.0754
 1591BOLB   C2B38170  19.274  33.953  21.592  0.1562  0.1700  0.2550
 1591BOLB   C3B38171  19.191  34.104  21.335 -0.0094  0.0102 -0.1347
 1591BOLB   C4B38172  19.081  34.498  21.213  0.0773 -0.2460  0.2502
 1591BOLB   NC238173  17.632  36.808  20.860 -0.4019 -0.1559 -0.3780
 1591BOLB   PO238174  17.883  36.541  20.610  0.0243  0.0411 -0.0884
 1591BOLB   GL338175  18.148  36.098  20.661  0.2925  0.2373 -0.0890
 1591BOLB   GL438176  18.149  36.075  20.943  0.0503  0.2132 -0.1458
 1591BOLB   C1C38177  18.210  35.681  20.494 -0.0992 -0.0699 -0.1235
 1591BOLB   C2C38178  18.370  35.288  20.374 -0.0934  0.0659  0.3801
 1591BOLB   C3C38179  18.546  35.040  20.448 -0.1082  0.3222  0.0292
 1591BOLB   C4C38180  18.742  34.640  20.549  0.2273 -0.2432 -0.0761
 1591BOLB   C1D38181  18.265  35.708  20.952  0.0161  0.0423 -0.2249
 1591BOLB   C2D38182  18.509  35.336  20.884  0.0154 -0.2506 -0.2103
 1591BOLB   C3D38183  18.967  35.202  20.722  0.1300 -0.1105  0.4128
 1591BOLB   C4D38184  19.216  34.912  20.964  0.0868  0.4428  0.0772
 1592BOLB   NC138185  24.046  32.122  14.607  0.2977 -0.1618 -0.2381
 1592BOLB   PO138186  24.199  32.433  14.602 -0.1351 -0.1968 -0.1682
 1592BOLB   GL138187  24.052  32.590  14.292  0.1904 -0.4039  0.3899
 1592BOLB   GL238188  24.037  32.241  14.104 -0.3452 -0.2677 -0.1123
 1592BOLB   C1A38189  24.108  32.819  13.942  0.1070 -0.2273  0.1722
 1592BOLB   C2A38190  24.026  32.938  13.581  0.0428  0.0888  0.1833
 1592BOLB   C3A38191  23.633  32.967  13.328  0.0560 -0.2835 -0.2740
 1592BOLB   C4A38192  23.617  33.296  13.044  0.1443 -0.0756  0.0437
 1592BOLB   C1B38193  23.926  32.409  13.786 -0.0133  0.0471  0.0115
 1592BOLB   C2B38194  23.724  32.478  13.527 -0.0216 -0.3354 -0.0896
 1592BOLB   C3B38195  23.379  32.456  13.232  0.2868  0.2782 -0.2277
 1592BOLB   C4B38196  23.062  32.045  13.201 -0.1061  0.1929 -0.1845
 1592BOLB   NC238197  23.175  33.746  10.811 -0.2100 -0.1476 -0.0490
 1592BOLB   PO238198  23.042  33.884  11.209  0.1303 -0.0614 -0.3595
 1592BOLB   GL338199  23.285  33.841  11.529  0.0315  0.0319 -0.1192
 1592BOLB   GL438200  23.190  33.531  11.649  0.1702  0.0026  0.0509
 1592BOLB   C1C38201  23.416  34.084  11.852  0.1146  0.1956  0.2982
 1592BOLB   C2C38202  23.254  34.123  12.320  0.0744 -0.1369 -0.2921
 1592BOLB   C3C38203  23.520  34.072  12.607 -0.1292  0.3553 -0.5333
 1592BOLB   C4C38204  23.596  33.669  12.777  0.1369  0.1858 -0.0895
 1592BOLB   C1D38205  23.309  33.217  11.894  0.0257 -0.0209 -0.2957
 1592BOLB   C2D38206  23.332  32.989  12.195  0.1855 -0.0297  0.0496
 1592BOLB   C3D38207  23.470  32.944  12.675  0.1546  0.0424 -0.1993
 1592BOLB   C4D38208  23.183  32.899  13.035  0.3359  0.0053 -0.5219
 1593BOLB   NC138209  21.875  33.393   0.305  0.2747  0.0380 -0.2207
 1593BOLB   PO138210  21.827  32.890   0.269 -0.1247 -0.1618  0.1295
 1593BOLB   GL138211  21.952  33.096   0.685  0.2315  0.2585 -0.1299
 1593BOLB   GL238212  21.786  32.878   0.833  0.2312  0.1008  0.1694
 1593BOLB   C1A38213  21.822  33.378   0.996  0.4593  0.1012  0.2873
 1593BOLB   C2A38214  21.570  33.491   1.278  0.1387 -0.1372 -0.0142
 1593BOLB   C3A38215  21.245  33.742   1.399  0.2056  0.1338  0.0161
 1593BOLB   C4A38216  21.018  34.063   1.463 -0.0808  0.1397 -0.0487
 1593BOLB   C1B38217  21.406  33.014   1.039  0.1216  0.2343  0.0236
 1593BOLB   C2B38218  21.081  33.243   1.235  0.1449 -0.1048  0.3815
 1593BOLB   C3B38219  20.636  33.089   1.193 -0.0857  0.2563  0.2205
 1593BOLB   C4B38220  20.413  32.763   1.431  0.1664 -0.1693  0.2580
 1593BOLB   NC238221  19.919  35.405   2.964 -0.1977  0.1691  0.0890
 1593BOLB   PO238222  20.306  35.317   3.224 -0.2120  0.1902  0.1097
 1593BOLB   GL338223  20.401  35.220   2.769 -0.0945  0.1302 -0.1727
 1593BOLB   GL438224  20.336  35.299   2.417  0.2767  0.2986 -0.1482
 1593BOLB   C1C38225  20.703  34.972   2.628 -0.2431  0.0959  0.4852
 1593BOLB   C2C38226  20.897  35.093   2.168 -0.2466  0.0762 -0.2813
 1593BOLB   C3C38227  20.693  34.746   1.758  0.1695 -0.0394 -0.1209
 1593BOLB   C4C38228  20.755  34.395   1.484 -0.4677  0.3192  0.0276
 1593BOLB   C1D38229  20.332  34.846   2.321 -0.3058  0.2228 -0.2135
 1593BOLB   C2D38230  20.640  34.568   2.364 -0.1128 -0.1301 -0.2828
 1593BOLB   C3D38231  21.140  34.655   2.275 -0.1534 -0.0353  0.3326
 1593BOLB   C4D38232  21.517  34.878   2.105  0.2944 -0.2024 -0.0133
 1594BOLB   NC138233  20.929  30.085  17.031 -0.1726  0.1096  0.5235
 1594BOLB   PO138234  20.791  30.444  17.099 -0.0924 -0.0360  0.0863
 1594BOLB   GL138235  20.394  30.433  16.947  0.1061 -0.1709 -0.3636
 1594BOLB   GL238236  20.053  30.192  16.970 -0.2081  0.1216  0.0168
 1594BOLB   C1A38237  20.206  30.759  16.635  0.1112  0.2410 -0.0760
 1594BOLB   C2A38238  20.054  31.017  16.269 -0.1308 -0.0381  0.1037
 1594BOLB   C3A38239  20.095  31.288  15.938  0.2128 -0.0742  0.4059
 1594BOLB   C4A38240  19.902  31.221  15.519 -0.2302  0.0439 -0.2270
 1594BOLB   C1B38241  19.822  30.572  16.947  0.0988  0.1000  0.0169
 1594BOLB   C2B38242  19.471  30.794  16.743  0.0987  0.0976 -0.1229
 1594BOLB   C3B38243  19.240  31.251  16.877  0.1746 -0.0245  0.0926
 1594BOLB   C4B38244  19.057  31.768  16.877  0.1281 -0.1997  0.1979
 1594BOLB   NC238245  17.753  32.281  14.070  0.1020  0.1876 -0.0393
 1594BOLB   PO238246  18.110  32.081  13.885 -0.0705  0.0098 -0.0517
 1594BOLB   GL338247  18.513  31.980  14.017  0.2701 -0.1969  0.2460
 1594BOLB   GL438248  18.635  31.740  13.772  0.1618  0.0932 -0.0401
 1594BOLB   C1C38249  18.847  31.813  14.208  0.0175 -0.1817 -0.0121
 1594BOLB   C2C38250  19.297  31.801  14.423  0.0627  0.0590  0.0307
 1594BOLB   C3C38251  19.424  31.622  14.870  0.2126 -0.1090  0.1982
 1594BOLB   C4C38252  19.702  31.314  15.085  0.1619 -0.1288  0.0833
 1594BOLB   C1D38253  19.019  31.423  13.896  0.4343  0.1253  0.1279
 1594BOLB   C2D38254  19.300  31.150  14.035  0.2021  0.5789 -0.1722
 1594BOLB   C3D38255  19.598  31.174  14.409 -0.0369 -0.2764  0.0587
 1594BOLB   C4D38256  19.600  30.999  14.765  0.1098 -0.0971  0.0432
 1595BOLB   NC138257  34.989  29.666  25.207 -0.0536 -0.1937  0.0507
 1595BOLB   PO138258  35.108  29.321  25.399 -0.4490 -0.1159  0.2713
 1595BOLB   GL138259  35.382  29.209  25.773  0.0592  0.0267  0.1459
 1595BOLB   GL238260  35.190  28.869  25.911 -0.1118 -0.1019 -0.1497
 1595BOLB   C1A38261  35.759  29.167  26.133 -0.2469 -0.1504 -0.0761
 1595BOLB   C2A38262  36.126  29.113  26.340  0.1977  0.0115 -0.0685
 1595BOLB   C3A38263  36.485  29.089  26.529  0.2169  0.0479  0.2642
 1595BOLB   C4A38264  36.817  28.996  26.827  0.1387 -0.1385  0.2468
 1595BOLB   C1B38265  35.464  28.762  26.300  0.0253  0.2068  0.1288
 1595BOLB   C2B38266  35.684  28.634  26.589  0.0497 -0.1984  0.2954
 1595BOLB   C3B38267  36.047  28.777  26.781 -0.1163 -0.0339 -0.0703
 1595BOLB   C4B38268  36.452  28.676  26.792  0.0796  0.0550  0.0363
 1595BOLB   NC238269  39.104  29.310   0.924  0.2763  0.2179  0.0039
 1595BOLB   PO238270  39.175  29.708   0.648 -0.2109  0.1047  0.0324
 1595BOLB   GL338271  38.716  29.735   0.411  0.0446  0.3128  0.0706
 1595BOLB   GL438272  38.641  30.031   0.224 -0.0516 -0.1312  0.0748
 1595BOLB   C1C38273  38.333  29.546   0.316  0.1100 -0.0308  0.1285
 1595BOLB   C2C38274  37.986  29.568  26.870 -0.1682  0.0430 -0.4108
 1595BOLB   C3C38275  37.553  29.578  26.706  0.1357  0.1035  0.0392
 1595BOLB   C4C38276  37.203  29.274  26.900  0.3356  0.3182 -0.0080
 1595BOLB   C1D38277  38.249  29.960   0.007 -0.1951 -0.0334 -0.0966
 1595BOLB   C2D38278  37.906  30.102   0.017 -0.0654 -0.1483  0.0513
 1595BOLB   C3D38279  37.667  30.183  26.681  0.1571 -0.2070 -0.2548
 1595BOLB   C4D38280  37.292  30.296  26.375 -0.2287 -0.1302  0.1162
 1596BOLB   NC138281  29.532  23.328  16.583 -0.0684 -0.1152 -0.2790
 1596BOLB   PO138282  29.397  23.050  16.908 -0.0891 -0.1177 -0.0294
 1596BOLB   GL138283  29.643  22.807  16.706 -0.0956 -0.0509 -0.2498
 1596BOLB   GL238284  29.896  23.039  16.554 -0.1340  0.1254  0.3214
 1596BOLB   C1A38285  29.928  22.572  16.340  0.1605  0.0796 -0.1073
 1596BOLB   C2A38286  30.077  22.430  15.969 -0.0149 -0.1763 -0.0907
 1596BOLB   C3A38287  30.121  22.161  15.780  0.4582 -0.1083 -0.1678
 1596BOLB   C4A38288  30.062  21.910  15.396  0.2331 -0.0234 -0.1302
 1596BOLB   C1B38289  30.147  22.955  16.224 -0.2329  0.1471  0.0326
 1596BOLB   C2B38290  30.491  22.724  16.071 -0.0310  0.0428 -0.0889
 1596BOLB   C3B38291  30.801  22.494  15.840 -0.1759 -0.1831 -0.0015
 1596BOLB   C4B38292  31.074  22.508  15.408  0.0052  0.3160  0.1264
 1596BOLB   NC238293  30.399  20.349  14.101  0.2574  0.1148 -0.0248
 1596BOLB   PO238294  30.307  19.988  14.266 -0.0146 -0.1453 -0.4975
 1596BOLB   GL338295  30.441  20.274  14.624  0.1439  0.1307 -0.3965
 1596BOLB   GL438296  30.428  20.632  14.578 -0.0490  0.0519 -0.2501
 1596BOLB   C1C38297  30.450  20.359  14.959 -0.1266  0.1675  0.0379
 1596BOLB   C2C38298  30.424  20.636  15.256  0.1003  0.0192  0.1589
 1596BOLB   C3C38299  30.219  21.034  15.181  0.1302 -0.0016  0.1637
 1596BOLB   C4C38300  30.054  21.386  15.368  0.1358  0.0751 -0.0266
 1596BOLB   C1D38301  30.454  21.079  14.617 -0.3371 -0.1263 -0.1271
 1596BOLB   C2D38302  30.399  21.442  14.983 -0.1708  0.2603 -0.0507
 1596BOLB   C3D38303  30.470  21.623  15.337 -0.0427  0.2788  0.1280
 1596BOLB   C4D38304  30.292  21.675  15.766  0.0274 -0.5099 -0.1169
 1597BOLB   NC138305  28.349  32.635   2.424  0.2371 -0.0751 -0.3390
 1597BOLB   PO138306  28.138  32.484   2.763 -0.0110  0.2355  0.3677
 1597BOLB   GL138307  28.176  32.421   3.107  0.0026 -0.2552  0.0621
 1597BOLB   GL238308  28.025  32.216   3.188  0.1969 -0.3012 -0.1098
 1597BOLB   C1A38309  28.112  32.759   3.398 -0.1210  0.0235 -0.2093
 1597BOLB   C2A38310  28.153  32.662   3.852  0.0723  0.0801 -0.0777
 1597BOLB   C3A38311  28.153  32.742   4.220 -0.3188 -0.0920 -0.1408
 1597BOLB   C4A38312  28.064  32.710   4.697  0.4931 -0.0769 -0.1224
 1597BOLB   C1B38313  27.785  32.203   3.462  0.0661 -0.1367 -0.0632
 1597BOLB   C2B38314  27.751  32.425   3.779 -0.3446 -0.0973  0.2958
 1597BOLB   C3B38315  27.399  32.541   3.971  0.1982  0.3210 -0.1957
 1597BOLB   C4B38316  27.108  32.672   4.302  0.0200 -0.1068  0.0357
 1597BOLB   NC238317  28.379  33.721   6.441 -0.1060 -0.0210  0.1753
 1597BOLB   PO238318  28.411  33.531   6.738  0.1643 -0.2066  0.0370
 1597BOLB   GL338319  28.154  33.242   6.446  0.0580 -0.0747  0.1598
 1597BOLB   GL438320  28.206  32.917   6.468  0.2565  0.0975 -0.0655
 1597BOLB   C1C38321  27.907  33.200   6.094  0.0934  0.0581  0.0224
 1597BOLB   C2C38322  27.746  32.998   5.796  0.0345 -0.0315 -0.0405
 1597BOLB   C3C38323  27.821  32.761   5.415  0.1557  0.1695 -0.0339
 1597BOLB   C4C38324  27.862  32.654   5.011 -0.0800  0.0624  0.1951
 1597BOLB   C1D38325  27.870  32.654   6.238 -0.1225  0.0981  0.3464
 1597BOLB   C2D38326  27.694  32.372   5.889 -0.4477 -0.1982 -0.2185
 1597BOLB   C3D38327  27.673  32.282   5.495  0.1510  0.0605 -0.1287
 1597BOLB   C4D38328  27.793  32.167   5.116  0.0700  0.4635  0.1875
 1598BOLB   NC138329  30.602  37.804  21.287 -0.1821  0.1689 -0.1955
 1598BOLB   PO138330  30.312  37.932  21.440  0.1196 -0.1210 -0.4776
 1598BOLB   GL138331  30.404  38.280  21.339 -0.1704  0.0020 -0.1782
 1598BOLB   GL238332  30.675  38.302  21.179  0.1340 -0.0496  0.2048
 1598BOLB   C1A38333  30.487  38.611  21.518 -0.1658 -0.1543 -0.1491
 1598BOLB   C2A38334  30.336  38.974  21.560  0.2336 -0.3101  0.0411
 1598BOLB   C3A38335  30.265  39.349  21.725 -0.0490  0.1557 -0.0206
 1598BOLB   C4A38336  30.010  39.678  21.494  0.0944 -0.0012 -0.2007
 1598BOLB   C1B38337  30.843  38.712  21.140 -0.4402 -0.0504 -0.1049
 1598BOLB   C2B38338  30.761  39.010  21.316 -0.2192  0.2906 -0.2226
 1598BOLB   C3B38339  30.750  39.386  21.480 -0.2632 -0.1292  0.1386
 1598BOLB   C4B38340  30.507  39.819  21.391 -0.1456 -0.1091 -0.1621
 1598BOLB   NC238341  31.039  41.578  20.141 -0.3820 -0.1379 -0.1870
 1598BOLB   PO238342  30.643  41.799  20.371  0.0914  0.1690  0.0003
 1598BOLB   GL338343  30.610  41.284  20.274  0.3147 -0.2767 -0.0888
 1598BOLB   GL438344  30.951  41.134  20.467 -0.2100  0.1427 -0.0023
 1598BOLB   C1C38345  30.302  40.964  20.503  0.1345  0.1733 -0.1661
 1598BOLB   C2C38346  30.186  40.680  20.745 -0.1760  0.2612  0.1073
 1598BOLB   C3C38347  29.981  40.511  21.134  0.0019 -0.1530  0.1057
 1598BOLB   C4C38348  29.938  40.095  21.247  0.0587 -0.0127  0.0219
 1598BOLB   C1D38349  30.726  40.916  20.706  0.1839 -0.2107  0.0862
 1598BOLB   C2D38350  30.588  40.473  20.516 -0.1440  0.0711  0.0458
 1598BOLB   C3D38351  30.497  40.140  20.431  0.2167  0.1243  0.3183
 1598BOLB   C4D38352  30.426  39.713  20.477  0.1805 -0.0633 -0.1394
 1599BOLB   NC138353  33.379  33.848  25.828 -0.2475  0.0213  0.1518
 1599BOLB   PO138354  33.496  33.401  25.943 -0.2645 -0.3753 -0.0141
 1599BOLB   GL138355  33.785  33.803  26.118  0.4114  0.1772  0.3831
 1599BOLB   GL238356  33.861  34.013  25.879 -0.1817  0.0129  0.3192
 1599BOLB   C1A38357  33.933  33.991  26.416  0.3555  0.3141  0.2953
 1599BOLB   C2A38358  34.309  34.123  26.593  0.0309 -0.0354  0.1479
 1599BOLB   C3A38359  34.517  34.443  26.803 -0.0332  0.0893  0.3726
 1599BOLB   C4A38360  34.959  34.620  26.912 -0.6206 -0.0238 -0.1575
 1599BOLB   C1B38361  34.211  34.142  26.013  0.1051  0.1186 -0.2415
 1599BOLB   C2B38362  34.441  34.431  26.167  0.0797  0.3803 -0.0884
 1599BOLB   C3B38363  34.693  34.779  26.466  0.0359 -0.0411 -0.2340
 1599BOLB   C4B38364  34.842  35.119  26.723  0.2684  0.1848 -0.1032
 1599BOLB   NC238365  35.749  36.673   1.327  0.0501 -0.3788  0.1912
 1599BOLB   PO238366  36.059  36.330   1.173  0.0985  0.0310  0.1391
 1599BOLB   GL338367  35.926  36.004   0.877 -0.0836 -0.1051 -0.0635
 1599BOLB   GL438368  35.701  36.126   0.774  0.2110  0.2032  0.2161
 1599BOLB   C1C38369  36.077  35.567   0.619 -0.3169 -0.0151 -0.0865
 1599BOLB   C2C38370  35.969  35.262   0.387 -0.2368 -0.0197  0.2099
 1599BOLB   C3C38371  35.572  35.103   0.326  0.2957  0.0816 -0.1008
 1599BOLB   C4C38372  35.244  35.012   0.036 -0.0480  0.0646  0.3369
 1599BOLB   C1D38373  35.504  35.773   0.596  0.0051 -0.0643 -0.1392
 1599BOLB   C2D38374  35.315  35.513   0.373 -0.2034 -0.0617  0.0188
 1599BOLB   C3D38375  34.927  35.579   0.219 -0.0913  0.2384  0.0022
 1599BOLB   C4D38376  34.497  35.681   0.346 -0.1645 -0.0614  0.1690
 1600BOLB   NC138377  32.105  27.688  15.810 -0.3186 -0.0743 -0.1079
 1600BOLB   PO138378  32.419  27.475  15.466  0.2140  0.1988 -0.1998
 1600BOLB   GL138379  32.675  27.227  15.143 -0.0938 -0.0330 -0.2513
 1600BOLB   GL238380  32.469  27.133  14.782  0.0615  0.1796 -0.0992
 1600BOLB   C1A38381  32.985  27.124  14.840 -0.0456 -0.0028 -0.2250
 1600BOLB   C2A38382  33.199  26.963  14.458 -0.0777 -0.1592  0.0235
 1600BOLB   C3A38383  33.025  26.792  14.108  0.0135 -0.1439  0.3668
 1600BOLB   C4A38384  32.588  26.849  13.769 -0.2191 -0.0040  0.2228
 1600BOLB   C1B38385  32.624  26.740  14.652 -0.0071  0.1803  0.1376
 1600BOLB   C2B38386  32.963  26.431  14.488  0.1601 -0.0651 -0.1186
 1600BOLB   C3B38387  33.153  26.050  14.299 -0.0200 -0.3784 -0.0605
 1600BOLB   C4B38388  33.535  25.919  14.218 -0.1063  0.0589  0.1419
 1600BOLB   NC238389  33.285  27.103  11.481 -0.0816  0.0895  0.1599
 1600BOLB   PO238390  33.262  26.729  11.723 -0.3182  0.1507  0.0836
 1600BOLB   GL338391  32.980  27.052  11.877 -0.2812 -0.1029 -0.0641
 1600BOLB   GL438392  32.858  27.320  11.645  0.0943 -0.1160  0.4461
 1600BOLB   C1C38393  32.593  27.197  12.169  0.1989  0.0557  0.3373
 1600BOLB   C2C38394  32.366  26.957  12.494 -0.3014  0.1875 -0.1164
 1600BOLB   C3C38395  32.504  26.940  12.902 -0.0004  0.2412  0.1755
 1600BOLB   C4C38396  32.503  26.826  13.367 -0.4507  0.0059 -0.1285
 1600BOLB   C1D38397  32.836  27.712  11.920 -0.0601 -0.2785 -0.1148
 1600BOLB   C2D38398  32.804  27.648  12.404  0.0777  0.1731 -0.1116
 1600BOLB   C3D38399  32.764  27.871  12.716  0.0770  0.1402  0.0084
 1600BOLB   C4D38400  32.631  27.781  13.217  0.2232 -0.0029  0.3145
 1601BOLB   NC138401  25.545  36.431  17.541  0.2506 -0.0411  0.2873
 1601BOLB   PO138402  25.456  36.113  17.293 -0.1710  0.1396 -0.0467
 1601BOLB   GL138403  25.586  36.409  16.975 -0.0173  0.0938 -0.1147
 1601BOLB   GL238404  25.802  36.454  16.766 -0.2930 -0.0609 -0.0818
 1601BOLB   C1A38405  25.437  36.734  16.715  0.0240 -0.0941 -0.2570
 1601BOLB   C2A38406  25.511  37.123  16.687  0.1119 -0.2529  0.2612
 1601BOLB   C3A38407  25.412  37.628  16.592  0.1668 -0.1528 -0.1801
 1601BOLB   C4A38408  25.376  38.033  16.392  0.1731  0.0115  0.0984
 1601BOLB   C1B38409  25.731  36.719  16.358 -0.0651  0.0761 -0.0300
 1601BOLB   C2B38410  25.609  36.984  16.050  0.1100 -0.0490  0.0558
 1601BOLB   C3B38411  25.433  37.246  15.755  0.1395 -0.2721 -0.1433
 1601BOLB   C4B38412  25.089  37.442  15.572  0.1255  0.0477 -0.3555
 1601BOLB   NC238413  24.953  39.551  14.516  0.1560 -0.0659  0.1425
 1601BOLB   PO238414  24.953  39.760  14.872 -0.0480 -0.0380  0.1086
 1601BOLB   GL338415  25.108  39.439  15.053 -0.4080 -0.1050  0.1252
 1601BOLB   GL438416  25.290  39.280  14.801 -0.1144 -0.2822  0.0721
 1601BOLB   C1C38417  25.217  39.211  15.312  0.0647  0.0255 -0.1685
 1601BOLB   C2C38418  25.229  39.110  15.808 -0.2577  0.0704 -0.1558
 1601BOLB   C3C38419  25.328  38.848  16.150 -0.0957  0.0913 -0.0981
 1601BOLB   C4C38420  25.410  38.412  16.265  0.3203 -0.0729  0.1073
 1601BOLB   C1D38421  25.471  38.853  15.008  0.1588 -0.1676 -0.0552
 1601BOLB   C2D38422  25.804  38.545  15.162  0.2635 -0.1964  0.0224
 1601BOLB   C3D38423  25.845  38.162  15.466  0.0463  0.0438 -0.1949
 1601BOLB   C4D38424  25.595  37.791  15.519  0.0270 -0.0235  0.1684
 1602BOLB   NC138425  25.032  36.188  16.915 -0.1615  0.0181  0.1959
 1602BOLB   PO138426  24.696  35.916  17.032  0.0816  0.0084  0.1027
 1602BOLB   GL138427  24.597  36.102  16.663  0.0893 -0.1144 -0.1232
 1602BOLB   GL238428  24.570  36.486  16.857  0.1528  0.0825  0.1570
 1602BOLB   C1A38429  24.315  36.389  16.427 -0.0583  0.1180 -0.0056
 1602BOLB   C2A38430  24.463  36.742  16.208 -0.0084 -0.1853 -0.0509
 1602BOLB   C3A38431  24.289  37.160  16.031 -0.0516 -0.1767  0.4155
 1602BOLB   C4A38432  24.175  37.520  15.885  0.1708  0.0838 -0.0188
 1602BOLB   C1B38433  24.290  36.761  16.756 -0.1885  0.1997  0.4180
 1602BOLB   C2B38434  24.017  36.803  16.480  0.0766  0.1653 -0.1546
 1602BOLB   C3B38435  23.857  36.966  16.209  0.1477 -0.0827  0.2415
 1602BOLB   C4B38436  23.577  37.158  15.765 -0.0740 -0.3914  0.3466
 1602BOLB   NC238437  23.208  38.543  13.880 -0.0012 -0.0342 -0.2585
 1602BOLB   PO238438  23.005  38.262  13.841  0.2226 -0.2446 -0.3917
 1602BOLB   GL338439  23.128  38.256  14.305  0.2232 -0.2586 -0.0389
 1602BOLB   GL438440  23.461  38.342  14.324 -0.0347 -0.0439 -0.0641
 1602BOLB   C1C38441  23.267  38.287  14.756  0.2040 -0.5695  0.2354
 1602BOLB   C2C38442  23.410  38.274  15.068  0.0407 -0.2391  0.4362
 1602BOLB   C3C38443  23.524  37.887  15.360  0.2340 -0.2999  0.0930
 1602BOLB   C4C38444  23.761  37.627  15.685  0.0008 -0.1709 -0.2154
 1602BOLB   C1D38445  23.768  38.372  14.559 -0.0789 -0.0661 -0.1552
 1602BOLB   C2D38446  24.146  38.040  14.650 -0.0398 -0.0689 -0.0483
 1602BOLB   C3D38447  24.232  37.628  14.603 -0.0140  0.0228  0.4086
 1602BOLB   C4D38448  24.202  37.278  14.861 -0.1641 -0.0735  0.0917
 1603BOLB   NC138449  26.638  34.850   1.494  0.0505 -0.1662 -0.0334
 1603BOLB   PO138450  26.567  35.082   1.825 -0.3042 -0.2115 -0.2572
 1603BOLB   GL138451  26.512  35.339   2.175 -0.0967  0.2759  0.1630
 1603BOLB   GL238452  26.667  35.381   2.479 -0.0480 -0.0321  0.0280
 1603BOLB   C1A38453  26.165  35.357   2.494  0.2303  0.0598  0.1873
 1603BOLB   C2A38454  25.898  35.643   2.806  0.1242 -0.1143 -0.4107
 1603BOLB   C3A38455  25.575  35.966   2.801  0.0049  0.2371 -0.3229
 1603BOLB   C4A38456  25.297  36.201   2.899 -0.0982  0.1407 -0.0966
 1603BOLB   C1B38457  27.117  35.365   2.725  0.1460  0.0589  0.1626
 1603BOLB   C2B38458  27.533  35.319   2.935 -0.1385 -0.2384 -0.0172
 1603BOLB   C3B38459  27.839  35.665   3.026  0.1340  0.1140  0.0339
 1603BOLB   C4B38460  27.954  36.109   3.024 -0.3405 -0.0980  0.6907
 1603BOLB   NC238461  26.039  37.636   4.381 -0.2021  0.1737 -0.1758
 1603BOLB   PO238462  25.635  37.688   4.252  0.0717 -0.0027  0.4048
 1603BOLB   GL338463  25.838  37.378   4.008 -0.1138  0.1315  0.0948
 1603BOLB   GL438464  26.081  37.198   4.118  0.0390 -0.2968  0.2760
 1603BOLB   C1C38465  25.803  37.235   3.607 -0.2413  0.0734 -0.1062
 1603BOLB   C2C38466  25.767  37.166   3.176  0.4349  0.0641 -0.0284
 1603BOLB   C3C38467  25.485  37.028   2.990 -0.0088  0.2054  0.1533
 1603BOLB   C4C38468  25.320  36.695   2.878  0.1185  0.0787 -0.0849
 1603BOLB   C1D38469  26.281  36.858   3.831  0.1510  0.1261  0.0066
 1603BOLB   C2D38470  26.337  36.632   3.475  0.0420 -0.3984 -0.0856
 1603BOLB   C3D38471  26.166  36.312   3.282  0.0139  0.0680 -0.0447
 1603BOLB   C4D38472  25.739  36.073   3.250 -0.3056 -0.0575 -0.3108
 1604BOLB   NC138473  22.086  34.888  18.739  0.1349  0.0776  0.0691
 1604BOLB   PO138474  21.859  34.934  19.026 -0.0151 -0.5331 -0.2447
 1604BOLB   GL138475  21.573  35.036  18.833  0.1142  0.0189  0.0821
 1604BOLB   GL238476  21.289  35.071  18.944  0.0332 -0.1070 -0.0974
 1604BOLB   C1A38477  21.395  35.246  18.409 -0.4564 -0.1522  0.1973
 1604BOLB   C2A38478  21.043  35.367  18.204  0.2495  0.4963  0.2981
 1604BOLB   C3A38479  20.712  35.539  18.083  0.3000  0.0850 -0.2384
 1604BOLB   C4A38480  20.501  35.937  18.068 -0.5263 -0.2355  0.1912
 1604BOLB   C1B38481  21.178  35.542  18.857  0.1468  0.0836 -0.2511
 1604BOLB   C2B38482  20.938  35.811  18.456 -0.3349 -0.0020 -0.3214
 1604BOLB   C3B38483  21.069  36.058  18.062  0.1735  0.0426 -0.0699
 1604BOLB   C4B38484  20.807  36.151  17.752  0.0301 -0.0743 -0.0162
 1604BOLB   NC238485  18.718  37.212  18.252  0.2826  0.0520  0.1810
 1604BOLB   PO238486  18.921  37.510  17.999  0.2244 -0.0086  0.2175
 1604BOLB   GL338487  19.273  37.269  18.048  0.5034 -0.0423 -0.2036
 1604BOLB   GL438488  19.524  37.097  17.794  0.1172 -0.2146  0.0644
 1604BOLB   C1C38489  19.625  37.167  18.274  0.0968 -0.0762  0.2108
 1604BOLB   C2C38490  19.619  36.714  18.447  0.0177 -0.0764  0.0652
 1604BOLB   C3C38491  19.838  36.330  18.332  0.0359  0.3322 -0.0312
 1604BOLB   C4C38492  20.205  36.079  18.324  0.1143  0.3766 -0.1488
 1604BOLB   C1D38493  19.873  37.392  17.930 -0.3399 -0.1905 -0.2494
 1604BOLB   C2D38494  20.323  37.460  17.996  0.3766 -0.2107  0.0197
 1604BOLB   C3D38495  20.697  37.721  18.146 -0.1433  0.0921  0.2586
 1604BOLB   C4D38496  20.857  37.950  18.492  0.1334 -0.0755  0.0951
 1605BOLB   NC138497  30.015  28.305   2.459  0.3991 -0.2421  0.2192
 1605BOLB   PO138498  29.919  27.954   2.473 -0.2250 -0.0347  0.3145
 1605BOLB   GL138499  30.040  27.619   2.711  0.3491  0.0413 -0.1550
 1605BOLB   GL238500  30.400  27.591   2.912  0.0188  0.0741 -0.0139
 1605BOLB   C1A38501  29.941  27.501   3.189  0.1081 -0.1615  0.1667
 1605BOLB   C2A38502  29.814  27.580   3.661  0.1711 -0.2269  0.0491
 1605BOLB   C3A38503  29.416  27.579   3.915 -0.4731  0.4897  0.0994
 1605BOLB   C4A38504  29.133  27.755   4.224  0.0494 -0.3775 -0.1190
 1605BOLB   C1B38505  30.585  27.475   3.216  0.3075  0.2168 -0.3655
 1605BOLB   C2B38506  30.523  27.345   3.619 -0.1339  0.2632 -0.0386
 1605BOLB   C3B38507  30.798  27.270   3.904  0.2710 -0.0740  0.1824
 1605BOLB   C4B38508  30.952  27.140   4.167 -0.1176  0.1331 -0.1500
 1605BOLB   NC238509  29.063  27.946   6.879  0.0475 -0.0582 -0.0216
 1605BOLB   PO238510  29.415  27.771   6.617 -0.0759  0.2247  0.0408
 1605BOLB   GL338511  29.337  27.935   6.263 -0.1871 -0.4108  0.2167
 1605BOLB   GL438512  29.005  27.916   6.352 -0.1792 -0.2701  0.1096
 1605BOLB   C1C38513  29.350  27.828   5.898  0.1280 -0.1918 -0.1092
 1605BOLB   C2C38514  29.223  27.817   5.495  0.1577 -0.4021 -0.1556
 1605BOLB   C3C38515  29.109  27.734   5.005 -0.0575  0.0712  0.1631
 1605BOLB   C4C38516  28.979  27.823   4.524 -0.0977 -0.1219  0.0538
 1605BOLB   C1D38517  28.903  28.001   5.918  0.1792 -0.1606 -0.2722
 1605BOLB   C2D38518  28.740  28.022   5.501  0.0158  0.0124  0.0034
 1605BOLB   C3D38519  28.753  28.117   5.116  0.0715  0.0366 -0.1052
 1605BOLB   C4D38520  28.666  28.410   4.754 -0.1836 -0.0678  0.0393
 1606BOLB   NC138521  27.881  37.069  18.506 -0.0788  0.0762  0.1942
 1606BOLB   PO138522  27.650  37.123  18.267 -0.0470  0.2531  0.3155
 1606BOLB   GL138523  27.767  37.533  18.009 -0.0397 -0.1314 -0.0682
 1606BOLB   GL238524  28.156  37.531  18.009  0.0661 -0.1108 -0.1817
 1606BOLB   C1A38525  27.686  37.967  17.754 -0.0175  0.1881  0.0360
 1606BOLB   C2A38526  27.726  38.331  17.586 -0.0387  0.2062 -0.2921
 1606BOLB   C3A38527  27.822  38.484  17.112 -0.3782 -0.1044 -0.1266
 1606BOLB   C4A38528  27.795  38.798  16.783  0.0618 -0.0537 -0.1943
 1606BOLB   C1B38529  27.961  37.908  18.242 -0.0585 -0.0371 -0.0733
 1606BOLB   C2B38530  27.753  38.370  18.161 -0.2552  0.2057 -0.2866
 1606BOLB   C3B38531  27.803  38.744  17.904  0.0384  0.3062  0.1604
 1606BOLB   C4B38532  28.042  39.135  17.787 -0.1749  0.3567  0.1477
 1606BOLB   NC238533  28.194  40.143  14.491 -0.0018  0.0022 -0.3957
 1606BOLB   PO238534  28.006  39.785  14.627  0.2316 -0.2001 -0.4411
 1606BOLB   GL338535  28.221  39.583  14.915 -0.1580 -0.0130  0.2633
 1606BOLB   GL438536  28.417  39.393  14.787 -0.0620  0.2318  0.0032
 1606BOLB   C1C38537  28.453  39.440  15.340 -0.0909  0.2635  0.1035
 1606BOLB   C2C38538  28.435  39.311  15.710 -0.0701 -0.0812  0.1423
 1606BOLB   C3C38539  28.320  39.225  16.149  0.2415  0.2753  0.2442
 1606BOLB   C4C38540  28.015  39.081  16.459 -0.0471 -0.0453 -0.2019
 1606BOLB   C1D38541  28.086  39.149  15.050 -0.1550 -0.2617 -0.0073
 1606BOLB   C2D38542  27.559  39.223  15.134 -0.4932 -0.0277 -0.2435
 1606BOLB   C3D38543  27.133  39.197  14.933  0.0778  0.0554  0.2302
 1606BOLB   C4D38544  26.705  39.334  14.975 -0.3313 -0.0692  0.0702
 1607BOLB   NC138545  33.959  26.238  18.715 -0.3294 -0.1645  0.1353
 1607BOLB   PO138546  33.871  26.103  19.108  0.0732  0.1945  0.4790
 1607BOLB   GL138547  34.162  25.730  19.040  0.1842  0.1135 -0.0576
 1607BOLB   GL238548  34.462  25.798  19.200 -0.1194  0.0466  0.0613
 1607BOLB   C1A38549  34.365  25.608  18.672  0.1885  0.1598 -0.3161
 1607BOLB   C2A38550  34.718  25.274  18.570 -0.1419  0.1507 -0.1295
 1607BOLB   C3A38551  35.118  25.105  18.339  0.1764  0.2254 -0.2032
 1607BOLB   C4A38552  35.375  24.707  18.218  0.2654  0.1665  0.1370
 1607BOLB   C1B38553  34.825  25.508  19.020 -0.1644  0.1372  0.0440
 1607BOLB   C2B38554  35.109  25.085  18.909  0.2973 -0.4462  0.2264
 1607BOLB   C3B38555  35.355  24.725  18.779 -0.0886 -0.0329  0.1678
 1607BOLB   C4B38556  35.410  24.270  18.723  0.0156 -0.1302  0.2831
 1607BOLB   NC238557  37.307  22.593  17.313 -0.1516 -0.3244  0.0382
 1607BOLB   PO238558  36.826  22.823  17.166  0.1541 -0.1139  0.2969
 1607BOLB   GL338559  36.411  23.099  17.285  0.1567  0.1030 -0.0119
 1607BOLB   GL438560  36.380  22.985  17.536 -0.1009  0.1471 -0.1552
 1607BOLB   C1C38561  36.263  23.561  17.456  0.0659  0.0099  0.3252
 1607BOLB   C2C38562  36.118  23.707  17.830  0.0723  0.0849  0.0619
 1607BOLB   C3C38563  35.945  24.059  18.029  0.0353 -0.2661 -0.3473
 1607BOLB   C4C38564  35.654  24.348  18.234 -0.2160 -0.0425 -0.2357
 1607BOLB   C1D38565  35.982  23.068  17.562  0.0465  0.1446 -0.1544
 1607BOLB   C2D38566  35.582  23.119  17.527 -0.1162 -0.1755 -0.1219
 1607BOLB   C3D38567  35.141  22.927  17.502  0.0582 -0.0651  0.2395
 1607BOLB   C4D38568  34.879  23.114  17.828 -0.0910  0.1579  0.1334
 1608BOLB   NC138569  29.054  29.052  14.094 -0.0121  0.1087  0.0984
 1608BOLB   PO138570  29.546  28.940  13.912  0.1092 -0.0302 -0.0132
 1608BOLB   GL138571  29.433  28.782  13.515 -0.1349  0.0585  0.0075
 1608BOLB   GL238572  29.242  29.097  13.413 -0.0394  0.3213  0.1785
 1608BOLB   C1A38573  29.653  28.741  13.065  0.2599  0.3448  0.2310
 1608BOLB   C2A38574  29.748  29.118  12.736  0.2672  0.0053 -0.1120
 1608BOLB   C3A38575  29.976  29.301  12.361  0.0334  0.0330  0.1496
 1608BOLB   C4A38576  30.185  29.684  12.015  0.4353 -0.3289 -0.1912
 1608BOLB   C1B38577  29.728  29.220  13.223  0.0499  0.2622 -0.6021
 1608BOLB   C2B38578  29.988  29.488  12.984  0.1755  0.0895 -0.3652
 1608BOLB   C3B38579  30.086  29.663  12.616  0.0484  0.0866 -0.0974
 1608BOLB   C4B38580  30.514  29.673  12.426 -0.0527 -0.0733  0.0384
 1608BOLB   NC238581  31.376  29.653   9.901  0.1233 -0.0603  0.1908
 1608BOLB   PO238582  30.953  29.483   9.725 -0.3930  0.1489  0.3425
 1608BOLB   GL338583  31.014  29.638  10.197 -0.0430 -0.1524 -0.0118
 1608BOLB   GL438584  31.325  29.711  10.394  0.0518  0.0229  0.0588
 1608BOLB   C1C38585  30.874  29.659  10.668 -0.0494  0.0908  0.0234
 1608BOLB   C2C38586  30.589  29.580  10.876  0.2513  0.0556 -0.3921
 1608BOLB   C3C38587  30.389  29.706  11.233 -0.0484 -0.0517 -0.0879
 1608BOLB   C4C38588  30.269  29.518  11.568  0.0384 -0.2900 -0.0110
 1608BOLB   C1D38589  31.427  29.748  10.872 -0.0745  0.1026  0.2853
 1608BOLB   C2D38590  31.561  29.789  11.349  0.3647  0.3120  0.2749
 1608BOLB   C3D38591  31.568  30.049  11.733 -0.2397  0.0496 -0.2848
 1608BOLB   C4D38592  31.383  30.009  12.107  0.0328 -0.1075 -0.3452
 1609BOLB   NC138593  28.534  25.185  15.045 -0.3695 -0.2719 -0.1138
 1609BOLB   PO138594  28.744  25.636  15.003 -0.0091 -0.2634  0.0761
 1609BOLB   GL138595  28.977  25.426  14.771 -0.2203  0.0731  0.1171
 1609BOLB   GL238596  28.950  25.569  14.468  0.1131 -0.2137 -0.2691
 1609BOLB   C1A38597  29.265  25.168  14.323  0.0845 -0.3886  0.1673
 1609BOLB   C2A38598  29.443  24.976  13.842  0.1086 -0.2097 -0.0760
 1609BOLB   C3A38599  29.725  24.824  13.496 -0.1736  0.0670  0.1822
 1609BOLB   C4A38600  29.774  24.724  13.115  0.0401 -0.0572  0.1079
 1609BOLB   C1B38601  29.054  25.559  14.103  0.2036  0.1744  0.0031
 1609BOLB   C2B38602  29.082  25.336  13.716 -0.4406 -0.1572 -0.2190
 1609BOLB   C3B38603  29.161  25.083  13.413  0.0828 -0.0692  0.0062
 1609BOLB   C4B38604  29.301  24.698  13.064 -0.0024  0.0117 -0.3830
 1609BOLB   NC238605  30.459  23.355  11.001  0.1316  0.1118 -0.0483
 1609BOLB   PO238606  30.167  23.099  11.206  0.2362 -0.4556 -0.0045
 1609BOLB   GL338607  30.013  23.474  11.453  0.0176 -0.4147 -0.0885
 1609BOLB   GL438608  29.652  23.659  11.398 -0.0629  0.2561  0.0144
 1609BOLB   C1C38609  30.113  23.848  11.773 -0.3438 -0.1057  0.1249
 1609BOLB   C2C38610  30.064  23.952  12.242  0.1755 -0.1672 -0.0939
 1609BOLB   C3C38611  29.758  24.192  12.432  0.0821  0.1690 -0.1199
 1609BOLB   C4C38612  29.715  24.288  12.836  0.6085  0.1606 -0.0015
 1609BOLB   C1D38613  29.669  23.735  11.993 -0.0506  0.0375  0.1113
 1609BOLB   C2D38614  29.481  23.715  12.332  0.2856  0.0045 -0.0810
 1609BOLB   C3D38615  29.253  23.465  12.574  0.0796  0.5113  0.1182
 1609BOLB   C4D38616  29.137  23.090  12.736 -0.1768 -0.1594  0.1712
 1610BOLB   NC138617  19.834  29.224  19.332  0.0029 -0.0879  0.1990
 1610BOLB   PO138618  19.598  29.512  19.563 -0.1203 -0.1044  0.0231
 1610BOLB   GL138619  19.164  29.447  19.541 -0.2703  0.0162  0.3263
 1610BOLB   GL238620  19.054  29.699  19.528 -0.0701 -0.1479  0.1638
 1610BOLB   C1A38621  18.751  29.320  19.466  0.2178 -0.0951  0.2585
 1610BOLB   C2A38622  18.486  29.673  19.339 -0.3003 -0.0656 -0.0449
 1610BOLB   C3A38623  18.055  29.551  19.310  0.3328  0.0360 -0.2274
 1610BOLB   C4A38624  17.756  29.674  19.191 -0.3558  0.4468  0.2504
 1610BOLB   C1B38625  18.972  29.675  19.125 -0.0327 -0.1023  0.4310
 1610BOLB   C2B38626  18.785  29.809  18.627 -0.0083  0.3381  0.0598
 1610BOLB   C3B38627  18.392  29.909  18.370 -0.1342  0.1313  0.0486
 1610BOLB   C4B38628  18.048  29.813  18.030 -0.1084  0.1427  0.1277
 1610BOLB   NC238629  16.569  30.468  17.274 -0.5661  0.1888  0.1385
 1610BOLB   PO238630  16.335  30.028  17.468 -0.0758 -0.0794 -0.0349
 1610BOLB   GL338631  16.709  30.173  17.674 -0.0489  0.1081  0.1581
 1610BOLB   GL438632  16.870  30.055  17.364 -0.0355  0.2326  0.0477
 1610BOLB   C1C38633  16.898  30.167  18.011  0.1122  0.0809  0.4764
 1610BOLB   C2C38634  17.003  30.190  18.406  0.0067  0.1405 -0.1142
 1610BOLB   C3C38635  17.090  29.960  18.710  0.0864  0.0243  0.3672
 1610BOLB   C4C38636  17.415  29.790  18.921 -0.0502 -0.0636 -0.0655
 1610BOLB   C1D38637  17.231  29.989  17.517  0.1023 -0.0171  0.1358
 1610BOLB   C2D38638  17.450  30.212  17.727 -0.0241  0.3767  0.0538
 1610BOLB   C3D38639  17.441  30.322  18.026  0.0277 -0.1172 -0.1710
 1610BOLB   C4D38640  17.379  30.470  18.535 -0.1356  0.4289  0.1687
 1611BOLB   NC138641  22.348  32.730   0.723  0.4232  0.0150  0.0189
 1611BOLB   PO138642  22.392  32.437   1.031  0.0070  0.1115  0.0242
 1611BOLB   GL138643  22.174  32.520   1.397  0.0858  0.1807  0.5871
 1611BOLB   GL238644  22.306  32.507   1.738  0.1147 -0.2096  0.0634
 1611BOLB   C1A38645  21.911  32.781   1.770  0.1959  0.0186 -0.0061
 1611BOLB   C2A38646  21.830  32.693   2.295 -0.0381  0.1129 -0.0469
 1611BOLB   C3A38647  21.637  32.456   2.668 -0.1164  0.2876  0.1310
 1611BOLB   C4A38648  21.436  32.115   2.979  0.1883  0.0329  0.1694
 1611BOLB   C1B38649  22.275  32.564   2.166  0.2262  0.2323  0.1117
 1611BOLB   C2B38650  22.283  32.521   2.577  0.0450  0.0453 -0.1770
 1611BOLB   C3B38651  22.161  32.547   2.993 -0.2285  0.2133 -0.0837
 1611BOLB   C4B38652  21.805  32.437   3.217 -0.0543 -0.2035  0.1415
 1611BOLB   NC238653  21.124  32.640   5.166 -0.1444  0.4872 -0.3212
 1611BOLB   PO238654  20.807  32.233   5.046  0.0177 -0.0436 -0.1058
 1611BOLB   GL338655  20.963  31.833   4.897  0.1698  0.1104  0.0475
 1611BOLB   GL438656  20.905  31.592   5.052 -0.1770 -0.1714 -0.1068
 1611BOLB   C1C38657  20.988  31.715   4.550 -0.1359  0.0892 -0.1264
 1611BOLB   C2C38658  21.147  31.917   4.267  0.2810 -0.2457 -0.0830
 1611BOLB   C3C38659  21.483  32.000   4.002  0.2784 -0.2573 -0.0274
 1611BOLB   C4C38660  21.396  32.131   3.500  0.1522 -0.2576  0.3721
 1611BOLB   C1D38661  21.296  31.454   4.862 -0.1778  0.1049  0.0177
 1611BOLB   C2D38662  21.581  31.203   4.694 -0.0723  0.2178 -0.0144
 1611BOLB   C3D38663  21.700  30.798   4.527  0.1578 -0.3881  0.4340
 1611BOLB   C4D38664  21.721  30.583   4.152  0.1019 -0.4407  0.3259
 1612BOLB   NC138665  27.251  37.449  24.829 -0.0083 -0.1661 -0.0803
 1612BOLB   PO138666  27.020  37.344  25.284 -0.1215 -0.1349 -0.1406
 1612BOLB   GL138667  26.869  37.416  25.561 -0.0432 -0.0554  0.0192
 1612BOLB   GL238668  26.988  37.379  25.805 -0.1386 -0.1570  0.2468
 1612BOLB   C1A38669  26.757  37.829  25.648  0.0804  0.2829 -0.0784
 1612BOLB   C2A38670  26.778  38.250  25.559 -0.1362 -0.0814  0.1559
 1612BOLB   C3A38671  26.610  38.584  25.343 -0.0427  0.1487 -0.2318
 1612BOLB   C4A38672  26.200  38.817  25.319  0.0246 -0.0897 -0.0552
 1612BOLB   C1B38673  27.099  37.851  25.975  0.2137  0.0628  0.4062
 1612BOLB   C2B38674  26.981  38.249  26.116  0.0862 -0.1398  0.1236
 1612BOLB   C3B38675  26.980  38.673  26.410  0.4476 -0.2699  0.1526
 1612BOLB   C4B38676  27.250  39.081  26.572 -0.3239  0.0331 -0.0082
 1612BOLB   NC238677  24.508  40.538  26.289  0.2185 -0.0337  0.2374
 1612BOLB   PO238678  24.789  40.499  26.598 -0.0173 -0.3167 -0.1142
 1612BOLB   GL338679  25.241  40.308  26.377  0.2367 -0.0391 -0.2116
 1612BOLB   GL438680  25.428  40.248  26.687 -0.1950 -0.1841  0.1554
 1612BOLB   C1C38681  25.299  39.937  26.153 -0.0440  0.1933 -0.3597
 1612BOLB   C2C38682  25.617  39.781  25.940  0.2163 -0.4253  0.3553
 1612BOLB   C3C38683  25.903  39.467  25.797  0.0193  0.1172  0.1717
 1612BOLB   C4C38684  25.936  39.058  25.452  0.1655  0.0761  0.1086
 1612BOLB   C1D38685  25.715  40.147  26.390 -0.3241  0.1428  0.2001
 1612BOLB   C2D38686  26.070  39.813  26.154 -0.0924  0.1043  0.4368
 1612BOLB   C3D38687  26.429  39.570  25.879  0.1231  0.1766  0.0428
 1612BOLB   C4D38688  26.762  39.426  25.953 -0.1268  0.1820 -0.2787
 1613BOLB   NC138689  29.317  35.132  16.099 -0.2118  0.2165 -0.1205
 1613BOLB   PO138690  29.508  35.427  15.834 -0.2895 -0.3487 -0.0987
 1613BOLB   GL138691  29.597  35.782  15.632 -0.1529 -0.0467 -0.0290
 1613BOLB   GL238692  29.471  36.050  15.759 -0.1387 -0.0594 -0.2086
 1613BOLB   C1A38693  29.544  35.931  15.217 -0.0460  0.1298 -0.2250
 1613BOLB   C2A38694  29.832  36.284  15.236 -0.2131  0.0874 -0.2845
 1613BOLB   C3A38695  30.002  36.660  15.067 -0.3429 -0.0942 -0.0921
 1613BOLB   C4A38696  29.810  37.106  15.202 -0.1076  0.1511  0.1090
 1613BOLB   C1B38697  29.591  36.412  15.671 -0.0381  0.2179  0.1667
 1613BOLB   C2B38698  29.447  36.759  15.468  0.0534 -0.2824 -0.3013
 1613BOLB   C3B38699  29.242  36.944  15.113 -0.2249  0.0062  0.4397
 1613BOLB   C4B38700  28.889  37.253  14.972 -0.2971 -0.0086 -0.1174
 1613BOLB   NC238701  30.393  39.339  13.661  0.4903  0.2445  0.0562
 1613BOLB   PO238702  30.209  39.453  14.044 -0.1197 -0.3307  0.0904
 1613BOLB   GL338703  30.093  39.012  14.301 -0.2331 -0.1459 -0.2545
 1613BOLB   GL438704  30.382  38.912  14.449  0.2318  0.2019 -0.2986
 1613BOLB   C1C38705  29.994  38.683  14.202  0.0183  0.2957  0.0741
 1613BOLB   C2C38706  29.918  38.240  14.416  0.3144 -0.2214  0.1162
 1613BOLB   C3C38707  29.644  37.840  14.719  0.1413 -0.0425  0.2068
 1613BOLB   C4C38708  29.637  37.419  15.031  0.0274  0.0524 -0.1634
 1613BOLB   C1D38709  30.711  38.545  14.644  0.0403  0.0690 -0.1506
 1613BOLB   C2D38710  30.858  38.193  14.822 -0.1017  0.1025  0.2815
 1613BOLB   C3D38711  30.819  37.907  15.126  0.0120  0.0392 -0.1398
 1613BOLB   C4D38712  30.922  37.836  15.559  0.0335 -0.1231 -0.2053
 1614BOLB   NC138713  24.205  22.505  19.067  0.2428  0.1330 -0.2893
 1614BOLB   PO138714  24.426  22.117  18.736  0.0100 -0.2784  0.0974
 1614BOLB   GL138715  24.394  22.004  18.252 -0.3257 -0.0481 -0.1780
 1614BOLB   GL238716  24.607  21.727  18.240  0.1650 -0.1409  0.2765
 1614BOLB   C1A38717  24.210  21.821  17.850 -0.1175 -0.2019 -0.1015
 1614BOLB   C2A38718  24.193  21.452  17.643  0.1414 -0.1093  0.0189
 1614BOLB   C3A38719  24.152  20.982  17.455 -0.2717 -0.0977  0.1967
 1614BOLB   C4A38720  24.030  20.517  17.472 -0.0079  0.1140 -0.1019
 1614BOLB   C1B38721  24.544  21.448  18.042  0.0564  0.2121  0.0067
 1614BOLB   C2B38722  24.427  21.107  18.316  0.2532  0.0192  0.1557
 1614BOLB   C3B38723  24.270  20.657  18.131 -0.3099 -0.1904 -0.2743
 1614BOLB   C4B38724  24.010  20.400  18.003  0.3252  0.0087  0.0174
 1614BOLB   NC238725  24.986  18.314  16.946  0.3020  0.0669 -0.1970
 1614BOLB   PO238726  24.812  18.435  16.678 -0.0992 -0.2012 -0.3250
 1614BOLB   GL338727  24.602  18.897  16.725 -0.4160 -0.3216 -0.2453
 1614BOLB   GL438728  24.743  19.044  16.914  0.0897 -0.0622 -0.1238
 1614BOLB   C1C38729  24.330  19.333  16.663 -0.0297  0.4098  0.0561
 1614BOLB   C2C38730  23.955  19.483  16.816  0.1903  0.2111 -0.2259
 1614BOLB   C3C38731  23.858  19.830  17.049 -0.2586 -0.1313  0.2164
 1614BOLB   C4C38732  23.821  20.149  17.321  0.0227  0.1827 -0.0334
 1614BOLB   C1D38733  24.769  19.272  17.184  0.1000 -0.2407 -0.1841
 1614BOLB   C2D38734  24.614  19.620  17.574 -0.1348 -0.2393 -0.0277
 1614BOLB   C3D38735  24.358  19.721  17.907  0.0072 -0.0633  0.0232
 1614BOLB   C4D38736  24.385  20.105  18.217 -0.1915 -0.1382  0.1540
 1615BOLB   NC138737  27.018  21.408  19.753  0.0446 -0.2670  0.3255
 1615BOLB   PO138738  26.920  21.178  20.218  0.3031 -0.1183 -0.1097
 1615BOLB   GL138739  26.873  20.765  20.185  0.0073 -0.1485  0.1275
 1615BOLB   GL238740  26.601  20.661  19.959  0.2591  0.1686  0.0441
 1615BOLB   C1A38741  26.957  20.325  20.061  0.0727 -0.1937 -0.2724
 1615BOLB   C2A38742  26.914  20.002  20.048 -0.0092  0.0546  0.0864
 1615BOLB   C3A38743  26.878  19.759  19.729  0.3123 -0.0308  0.1798
 1615BOLB   C4A38744  27.027  19.410  19.601  0.0605  0.0041  0.3905
 1615BOLB   C1B38745  26.475  20.341  19.724  0.1916 -0.1612 -0.0015
 1615BOLB   C2B38746  26.581  19.989  19.415 -0.2515  0.0579  0.2593
 1615BOLB   C3B38747  26.606  19.534  19.290 -0.2533  0.0245 -0.0808
 1615BOLB   C4B38748  26.934  19.158  19.178  0.2648 -0.0853  0.0386
 1615BOLB   NC238749  27.585  17.112  19.112 -0.0046 -0.1207  0.0824
 1615BOLB   PO238750  27.389  17.243  19.434 -0.2146  0.0916 -0.1038
 1615BOLB   GL338751  27.077  17.626  19.501 -0.0523  0.0140  0.3159
 1615BOLB   GL438752  26.857  17.789  19.422 -0.0049 -0.1623 -0.2889
 1615BOLB   C1C38753  27.211  17.951  19.752 -0.4221  0.0415  0.3770
 1615BOLB   C2C38754  27.357  18.203  19.519  0.3059  0.1714  0.3697
 1615BOLB   C3C38755  27.151  18.658  19.507  0.1466 -0.0281  0.0821
 1615BOLB   C4C38756  27.117  19.063  19.717 -0.0448  0.1788  0.2018
 1615BOLB   C1D38757  26.497  18.139  19.196 -0.1761  0.1395 -0.3777
 1615BOLB   C2D38758  26.365  18.446  19.348 -0.0115 -0.0238  0.0823
 1615BOLB   C3D38759  26.377  18.793  19.674 -0.0665 -0.0767  0.0395
 1615BOLB   C4D38760  26.582  19.210  19.721 -0.3864  0.0927  0.1266
 1616BOLB   NC138761  39.644  31.476  18.384  0.2094 -0.0753 -0.0100
 1616BOLB   PO138762  39.840  31.206  18.709  0.3044  0.1484 -0.0636
 1616BOLB   GL138763  39.380  31.062  18.876  0.1764  0.1276  0.2148
 1616BOLB   GL238764  39.311  31.040  18.521  0.4579 -0.1107  0.2755
 1616BOLB   C1A38765  38.909  30.897  19.063  0.1127  0.2024  0.3259
 1616BOLB   C2A38766  38.547  30.879  18.874 -0.2773  0.1606  0.1210
 1616BOLB   C3A38767  38.187  30.521  18.739 -0.1714 -0.1790  0.1925
 1616BOLB   C4A38768  37.949  30.092  18.743  0.1800  0.0867 -0.0434
 1616BOLB   C1B38769  38.926  30.764  18.570  0.0598  0.1690 -0.0075
 1616BOLB   C2B38770  38.742  30.385  18.855 -0.0668  0.1141  0.0901
 1616BOLB   C3B38771  38.351  30.299  19.175  0.1537 -0.3909  0.1558
 1616BOLB   C4B38772  37.913  30.358  19.298 -0.0300  0.2264  0.0812
 1616BOLB   NC238773  39.803  29.830  18.775  0.2968 -0.2061 -0.1533
 1616BOLB   PO238774  39.780  29.476  18.464  0.4191  0.1836 -0.1423
 1616BOLB   GL338775  39.459  29.290  18.361 -0.1203  0.0343  0.2289
 1616BOLB   GL438776  39.445  29.047  18.630  0.1983  0.1713  0.1444
 1616BOLB   C1C38777  39.083  29.231  18.269 -0.1040  0.3286 -0.1972
 1616BOLB   C2C38778  38.663  29.223  18.336  0.0473 -0.0706 -0.0458
 1616BOLB   C3C38779  38.303  29.381  18.432  0.3819 -0.3193  0.3647
 1616BOLB   C4C38780  38.048  29.718  18.500 -0.0358  0.1161 -0.0414
 1616BOLB   C1D38781  39.080  29.121  18.801 -0.1422  0.0330 -0.4323
 1616BOLB   C2D38782  38.826  29.454  18.708 -0.0663 -0.1409 -0.1542
 1616BOLB   C3D38783  38.581  29.719  18.624 -0.1449  0.3207 -0.1500
 1616BOLB   C4D38784  38.437  30.068  18.708 -0.1205  0.3293 -0.0988
 1617BOLB   NC138785  29.152  37.445  18.812 -0.1151 -0.0371  0.2167
 1617BOLB   PO138786  28.807  37.377  18.809 -0.0497  0.0711 -0.0942
 1617BOLB   GL138787  28.761  37.782  18.605 -0.3576  0.0709 -0.0828
 1617BOLB   GL238788  29.001  37.915  18.638 -0.0273  0.0037  0.1444
 1617BOLB   C1A38789  28.522  38.195  18.436 -0.1590  0.1646  0.0202
 1617BOLB   C2A38790  28.284  38.513  18.156 -0.1016  0.0003 -0.3187
 1617BOLB   C3A38791  28.328  38.823  18.062  0.3102 -0.3552 -0.0225
 1617BOLB   C4A38792  28.483  38.988  17.775  0.0713 -0.0317  0.1090
 1617BOLB   C1B38793  29.013  38.302  18.498  0.3756 -0.0645 -0.0743
 1617BOLB   C2B38794  29.012  38.764  18.450  0.0068  0.0051 -0.3333
 1617BOLB   C3B38795  29.366  38.968  18.379  0.2517 -0.2001 -0.2426
 1617BOLB   C4B38796  29.458  39.336  18.476 -0.0619 -0.0460 -0.1689
 1617BOLB   NC238797  29.039  40.321  16.068 -0.0437  0.1460 -0.0417
 1617BOLB   PO238798  29.226  40.006  15.796 -0.1374  0.0843  0.0852
 1617BOLB   GL338799  29.112  39.763  16.062  0.0980  0.1995 -0.0578
 1617BOLB   GL438800  29.343  39.567  16.007  0.3244  0.3297 -0.0798
 1617BOLB   C1C38801  29.051  39.739  16.404 -0.0764 -0.3157 -0.2298
 1617BOLB   C2C38802  28.776  39.634  16.823 -0.0891  0.2020  0.1426
 1617BOLB   C3C38803  28.658  39.654  17.255 -0.0902  0.1497 -0.1441
 1617BOLB   C4C38804  28.386  39.421  17.519  0.0571 -0.3701  0.2808
 1617BOLB   C1D38805  29.298  39.286  16.383  0.0731 -0.1725 -0.1299
 1617BOLB   C2D38806  29.383  39.001  16.754 -0.0647  0.0763 -0.2508
 1617BOLB   C3D38807  29.322  38.885  17.107  0.0982 -0.0842 -0.0548
 1617BOLB   C4D38808  29.340  38.607  17.414 -0.1822 -0.2820 -0.3470
 1618BOLB   NC138809  21.507  26.501  17.140 -0.0172 -0.3047 -0.1142
 1618BOLB   PO138810  21.237  26.418  17.588 -0.0102 -0.0906  0.1329
 1618BOLB   GL138811  21.010  26.293  17.199 -0.1194 -0.0197 -0.1227
 1618BOLB   GL238812  20.706  26.209  17.207  0.2172 -0.0712 -0.3426
 1618BOLB   C1A38813  20.968  26.163  16.785 -0.2214  0.3085 -0.0506
 1618BOLB   C2A38814  20.592  26.160  16.634  0.0625 -0.2734  0.0350
 1618BOLB   C3A38815  20.246  26.026  16.455  0.2808  0.1398  0.0887
 1618BOLB   C4A38816  19.755  26.006  16.492  0.0990 -0.1782 -0.0084
 1618BOLB   C1B38817  20.331  26.084  17.099 -0.3004 -0.2549 -0.1201
 1618BOLB   C2B38818  20.083  26.368  16.810 -0.5560  0.0253  0.1863
 1618BOLB   C3B38819  19.649  26.492  16.757  0.0148 -0.0133  0.1217
 1618BOLB   C4B38820  19.246  26.283  16.506  0.0610  0.1435 -0.0354
 1618BOLB   NC238821  18.969  24.309  15.125  0.0428  0.0854  0.4300
 1618BOLB   PO238822  18.900  24.695  14.882  0.0210  0.1801  0.2923
 1618BOLB   GL338823  19.027  25.047  15.097 -0.2363 -0.0692  0.1907
 1618BOLB   GL438824  19.167  24.846  15.290 -0.1088 -0.1283 -0.1621
 1618BOLB   C1C38825  19.139  25.348  15.288 -0.2512 -0.1769  0.1135
 1618BOLB   C2C38826  19.182  25.499  15.543 -0.0337 -0.1446 -0.5466
 1618BOLB   C3C38827  19.347  25.769  15.866 -0.0734  0.2100  0.0762
 1618BOLB   C4C38828  19.428  25.976  16.192  0.0789 -0.0894  0.1445
 1618BOLB   C1D38829  19.343  24.859  15.679 -0.0164  0.0933  0.3317
 1618BOLB   C2D38830  19.408  25.253  16.006 -0.2966 -0.2308  0.0303
 1618BOLB   C3D38831  19.484  25.528  16.370  0.0801 -0.4231  0.3999
 1618BOLB   C4D38832  19.360  25.452  16.678 -0.0361 -0.3164 -0.0069
 1619BOLB   NC138833  34.161  33.654  17.444 -0.0600  0.2142 -0.1507
 1619BOLB   PO138834  34.396  33.127  17.457  0.1042 -0.0271 -0.0878
 1619BOLB   GL138835  34.554  33.244  17.067 -0.0446  0.1989 -0.0340
 1619BOLB   GL238836  34.607  33.071  16.925  0.3045  0.0503  0.2015
 1619BOLB   C1A38837  34.820  33.560  16.912 -0.0173  0.0683 -0.0603
 1619BOLB   C2A38838  34.794  33.975  16.843 -0.0136 -0.0643  0.2016
 1619BOLB   C3A38839  34.768  34.197  16.440  0.1276  0.1429  0.1430
 1619BOLB   C4A38840  35.059  34.486  16.221 -0.1337 -0.2778  0.1491
 1619BOLB   C1B38841  34.957  33.112  16.652  0.2015 -0.3512  0.0858
 1619BOLB   C2B38842  35.267  33.146  16.304  0.1587 -0.2823 -0.0211
 1619BOLB   C3B38843  35.626  33.009  16.078  0.1380 -0.1802 -0.0122
 1619BOLB   C4B38844  36.033  32.805  16.136 -0.0101  0.0398  0.0386
 1619BOLB   NC238845  35.355  36.282  14.642  0.1370 -0.1235 -0.0827
 1619BOLB   PO238846  35.517  35.978  14.377  0.0135  0.0950  0.0282
 1619BOLB   GL338847  35.322  35.742  14.590 -0.2108  0.0871 -0.0200
 1619BOLB   GL438848  35.017  35.899  14.648 -0.0928 -0.0884 -0.1784
 1619BOLB   C1C38849  35.165  35.368  14.920  0.2754 -0.3051 -0.3026
 1619BOLB   C2C38850  34.873  35.093  15.164  0.1102  0.1869 -0.0566
 1619BOLB   C3C38851  35.028  34.927  15.485  0.0931  0.1745 -0.2319
 1619BOLB   C4C38852  35.025  34.684  15.789  0.0378 -0.0501 -0.0904
 1619BOLB   C1D38853  34.733  36.140  14.864 -0.0002  0.0568 -0.0333
 1619BOLB   C2D38854  34.441  36.235  15.184  0.0326 -0.2853  0.1063
 1619BOLB   C3D38855  34.007  36.144  15.182 -0.0858 -0.2388  0.1616
 1619BOLB   C4D38856  33.767  35.765  15.437  0.2408 -0.2838 -0.0432
 1620BOLB   NC138857  34.644  26.554  19.745  0.3712  0.0526  0.1168
 1620BOLB   PO138858  34.614  26.519  19.381 -0.3652  0.2006 -0.1560
 1620BOLB   GL138859  35.039  26.564  19.208 -0.1560  0.0617 -0.0389
 1620BOLB   GL238860  34.907  26.381  18.964  0.1391  0.1603  0.2358
 1620BOLB   C1A38861  35.391  26.409  19.049  0.2780 -0.1358 -0.1361
 1620BOLB   C2A38862  35.723  26.161  18.900 -0.3558 -0.3578 -0.0377
 1620BOLB   C3A38863  36.054  26.077  18.549  0.0896 -0.2387 -0.1061
 1620BOLB   C4A38864  36.403  25.755  18.748 -0.2588  0.0356  0.0913
 1620BOLB   C1B38865  34.788  25.972  18.664  0.0583  0.1796  0.2211
 1620BOLB   C2B38866  35.006  25.677  18.389  0.1672  0.1586  0.0416
 1620BOLB   C3B38867  35.254  25.498  18.023 -0.2602 -0.0648  0.3593
 1620BOLB   C4B38868  35.553  25.274  17.709 -0.1422 -0.3388  0.2042
 1620BOLB   NC238869  38.672  25.942  18.384  0.0875 -0.0541  0.2351
 1620BOLB   PO238870  38.820  26.043  18.842  0.3882 -0.1369  0.1955
 1620BOLB   GL338871  38.419  25.931  18.994 -0.2521  0.3190  0.2040
 1620BOLB   GL438872  38.170  25.999  19.287 -0.0924 -0.0687 -0.1399
 1620BOLB   C1C38873  38.020  25.541  18.959  0.0618 -0.1429 -0.4249
 1620BOLB   C2C38874  37.664  25.545  19.173 -0.2773 -0.0899 -0.1548
 1620BOLB   C3C38875  37.237  25.491  18.937  0.1335  0.1604  0.2640
 1620BOLB   C4C38876  36.780  25.584  18.881  0.1577  0.1782  0.2906
 1620BOLB   C1D38877  38.133  26.298  19.514 -0.1253  0.1038  0.0333
 1620BOLB   C2D38878  38.113  26.742  19.592 -0.1410 -0.1504 -0.4698
 1620BOLB   C3D38879  37.986  27.186  19.723  0.2643  0.1909 -0.2621
 1620BOLB   C4D38880  38.163  27.572  19.816  0.3934 -0.1381  0.0381
 1621BOLB   NC138881  31.969  25.478  17.216 -0.0309 -0.0613 -0.1998
 1621BOLB   PO138882  32.277  25.182  16.912  0.0611  0.2926  0.4157
 1621BOLB   GL138883  32.519  24.875  16.610 -0.0077 -0.0955 -0.1714
 1621BOLB   GL238884  32.659  25.142  16.424 -0.1785  0.2175  0.0825
 1621BOLB   C1A38885  32.657  24.417  16.472  0.0950  0.0770  0.0701
 1621BOLB   C2A38886  32.817  24.243  16.028  0.0975 -0.1161  0.0266
 1621BOLB   C3A38887  33.152  23.922  15.828 -0.0701 -0.3425  0.2005
 1621BOLB   C4A38888  33.190  23.593  15.511 -0.2166  0.2054 -0.2860
 1621BOLB   C1B38889  32.849  24.788  16.226  0.1230  0.2730  0.4930
 1621BOLB   C2B38890  33.076  24.687  15.949  0.2689 -0.0594  0.1029
 1621BOLB   C3B38891  33.168  24.400  15.653 -0.1322  0.1948 -0.3100
 1621BOLB   C4B38892  33.025  24.061  15.357 -0.0539 -0.1914  0.0995
 1621BOLB   NC238893  34.420  21.886  14.454  0.2133  0.1819  0.3176
 1621BOLB   PO238894  34.260  22.089  14.034  0.3299 -0.2507 -0.0553
 1621BOLB   GL338895  34.221  22.365  14.319  0.3867  0.1973  0.1364
 1621BOLB   GL438896  34.023  22.205  14.542  0.2382  0.1958  0.1646
 1621BOLB   C1C38897  33.882  22.664  14.401  0.2640  0.0573 -0.3064
 1621BOLB   C2C38898  33.754  22.941  14.791  0.0376 -0.3019 -0.2240
 1621BOLB   C3C38899  33.376  23.184  14.798  0.1312 -0.0755 -0.0638
 1621BOLB   C4C38900  33.186  23.422  15.092  0.0992  0.0206  0.0719
 1621BOLB   C1D38901  34.226  22.577  14.794  0.0133  0.0751  0.0131
 1621BOLB   C2D38902  34.122  22.926  15.111 -0.1595  0.1695  0.0177
 1621BOLB   C3D38903  33.811  22.971  15.407  0.1315 -0.1071  0.1632
 1621BOLB   C4D38904  33.428  23.150  15.461  0.3102  0.0552  0.0040
 1622BOLB   NC138905  34.195  24.577  20.828  0.0035  0.2049  0.0288
 1622BOLB   PO138906  34.204  24.444  20.433  0.0472 -0.2474  0.0575
 1622BOLB   GL138907  34.583  24.362  20.325 -0.0869  0.2400 -0.2139
 1622BOLB   GL238908  34.784  24.568  20.498 -0.0527 -0.1154  0.1684
 1622BOLB   C1A38909  35.007  24.271  20.163 -0.1521  0.0941  0.0167
 1622BOLB   C2A38910  35.502  24.317  20.150  0.2020  0.2979 -0.0053
 1622BOLB   C3A38911  35.993  24.415  20.346 -0.1151 -0.2081  0.0905
 1622BOLB   C4A38912  36.361  24.154  20.333 -0.0318  0.1901 -0.1396
 1622BOLB   C1B38913  35.310  24.675  20.431 -0.1353  0.3426 -0.1372
 1622BOLB   C2B38914  35.669  24.812  20.197 -0.1549  0.0112 -0.2687
 1622BOLB   C3B38915  35.960  24.849  19.930  0.0552 -0.0688  0.0740
 1622BOLB   C4B38916  36.380  24.958  20.005 -0.1529 -0.0727  0.2175
 1622BOLB   NC238917  36.804  21.756  19.890  0.2448  0.2925  0.1922
 1622BOLB   PO238918  37.126  22.044  19.714 -0.0219  0.0128  0.0050
 1622BOLB   GL338919  37.031  22.446  19.894 -0.4439 -0.0721  0.0776
 1622BOLB   GL438920  36.934  22.630  20.120 -0.1718 -0.0437  0.0433
 1622BOLB   C1C38921  37.014  22.876  19.667 -0.0862 -0.2852  0.0345
 1622BOLB   C2C38922  36.638  23.121  19.781 -0.1838  0.1028  0.3156
 1622BOLB   C3C38923  36.457  23.345  20.116 -0.5360 -0.1752  0.1132
 1622BOLB   C4C38924  36.292  23.694  20.395  0.0343 -0.3780  0.2199
 1622BOLB   C1D38925  36.595  22.876  20.241 -0.1361 -0.3113  0.1531
 1622BOLB   C2D38926  36.172  23.066  20.369  0.1661 -0.1858  0.0404
 1622BOLB   C3D38927  35.891  22.999  20.755  0.0786  0.1307  0.0401
 1622BOLB   C4D38928  35.510  23.184  20.934 -0.1035  0.0280  0.1243
 1623BOLB   NC138929  22.201  34.242  26.180  0.1050  0.0861 -0.0235
 1623BOLB   PO138930  22.009  33.823  26.266  0.2558  0.4469  0.0833
 1623BOLB   GL138931  21.629  33.893  26.478  0.0059  0.0575 -0.0693
 1623BOLB   GL238932  21.349  33.817  26.377  0.1361 -0.0103  0.1518
 1623BOLB   C1A38933  21.507  33.834  26.903  0.0575  0.1703  0.0190
 1623BOLB   C2A38934  21.409  33.869   0.383 -0.1027 -0.3367  0.1188
 1623BOLB   C3A38935  21.281  34.304   0.580  0.1536 -0.0649 -0.1901
 1623BOLB   C4A38936  21.037  34.392   0.907  0.0505  0.0522  0.0417
 1623BOLB   C1B38937  21.104  33.956  26.611  0.2175  0.2498 -0.1516
 1623BOLB   C2B38938  21.009  33.887   0.020 -0.1026 -0.0442  0.2741
 1623BOLB   C3B38939  20.815  34.144   0.307  0.0638 -0.2333 -0.3064
 1623BOLB   C4B38940  20.410  34.065   0.542 -0.5432 -0.1601  0.0475
 1623BOLB   NC238941  19.781  36.117   2.669 -0.1100  0.1731  0.0013
 1623BOLB   PO238942  20.181  36.137   2.526  0.0366  0.0730 -0.0051
 1623BOLB   GL338943  20.355  35.811   2.224 -0.2421  0.0095 -0.2127
 1623BOLB   GL438944  20.127  35.614   1.999 -0.1341 -0.1197 -0.2385
 1623BOLB   C1C38945  20.621  35.512   1.967 -0.0142  0.0339  0.1286
 1623BOLB   C2C38946  20.613  35.254   1.666 -0.2098 -0.1862  0.1999
 1623BOLB   C3C38947  20.394  34.901   1.451  0.0869  0.1309 -0.1666
 1623BOLB   C4C38948  20.702  34.683   1.014  0.2016  0.0579  0.0919
 1623BOLB   C1D38949  20.139  35.441   1.635  0.1657 -0.1891 -0.2348
 1623BOLB   C2D38950  20.120  35.235   1.181 -0.1845 -0.0978 -0.0551
 1623BOLB   C3D38951  20.384  35.008   0.952 -0.0374 -0.0827  0.0600
 1623BOLB   C4D38952  20.284  34.499   0.754  0.1691  0.0166 -0.1837
 1624BOLB   NC138953  30.631  21.593  23.621  0.3026  0.1021 -0.0843
 1624BOLB   PO138954  31.032  21.901  23.608  0.3849  0.1956  0.0850
 1624BOLB   GL138955  31.394  21.812  23.720 -0.0855 -0.1956 -0.0831
 1624BOLB   GL238956  31.581  21.940  23.817 -0.0620  0.0299 -0.3409
 1624BOLB   C1A38957  31.688  21.487  23.638  0.0035  0.0160  0.0152
 1624BOLB   C2A38958  31.856  21.243  23.350 -0.0354 -0.3392 -0.2482
 1624BOLB   C3A38959  32.001  21.069  22.943 -0.1132 -0.0061  0.0401
 1624BOLB   C4A38960  32.298  20.757  22.943  0.1738  0.1889 -0.0861
 1624BOLB   C1B38961  31.548  21.592  24.093  0.1457 -0.3258  0.3369
 1624BOLB   C2B38962  31.752  21.301  24.358 -0.2450 -0.1407  0.0529
 1624BOLB   C3B38963  32.184  21.100  24.359 -0.2041 -0.3616  0.1616
 1624BOLB   C4B38964  32.273  20.729  24.045  0.0303  0.0279 -0.3107
 1624BOLB   NC238965  33.114  18.781  22.782  0.2563  0.0733  0.1194
 1624BOLB   PO238966  33.375  18.565  22.496  0.3026  0.2567 -0.1671
 1624BOLB   GL338967  33.047  18.949  22.328  0.4715  0.2481  0.3966
 1624BOLB   GL438968  32.744  18.752  22.074  0.0689  0.2880 -0.0352
 1624BOLB   C1C38969  32.886  19.311  22.188 -0.0166 -0.1144  0.2021
 1624BOLB   C2C38970  32.645  19.666  22.118 -0.0502  0.0621  0.1966
 1624BOLB   C3C38971  32.622  19.994  22.309  0.0682  0.1649 -0.1159
 1624BOLB   C4C38972  32.587  20.369  22.688  0.1392  0.1837 -0.0205
 1624BOLB   C1D38973  32.630  19.032  21.837 -0.0794 -0.1702  0.0278
 1624BOLB   C2D38974  32.548  19.477  21.648  0.0854 -0.1951 -0.0259
 1624BOLB   C3D38975  32.707  19.850  21.621  0.2757  0.1321 -0.3221
 1624BOLB   C4D38976  33.041  20.192  21.834  0.1666  0.0910  0.0710
 1625BOLB   NC138977  35.809  31.724  22.975  0.0529 -0.1157 -0.0331
 1625BOLB   PO138978  35.838  31.938  22.594  0.0940 -0.1685 -0.0656
 1625BOLB   GL138979  36.167  32.052  22.873  0.2377  0.1108 -0.2029
 1625BOLB   GL238980  36.437  31.714  22.639 -0.1784 -0.0399  0.1032
 1625BOLB   C1A38981  36.508  32.279  22.854  0.2952  0.3475 -0.1642
 1625BOLB   C2A38982  36.831  32.457  22.822 -0.0949  0.1412 -0.0713
 1625BOLB   C3A38983  37.144  32.711  22.891 -0.1782 -0.0523 -0.1326
 1625BOLB   C4A38984  37.490  32.949  23.132 -0.0466  0.0667 -0.4173
 1625BOLB   C1B38985  36.813  31.867  22.605 -0.0999 -0.0815  0.0196
 1625BOLB   C2B38986  37.277  31.977  22.588 -0.0893 -0.1680 -0.0897
 1625BOLB   C3B38987  37.454  32.395  22.670 -0.0253 -0.1058  0.0417
 1625BOLB   C4B38988  37.826  32.624  22.493  0.2510  0.5770  0.2642
 1625BOLB   NC238989  39.521  34.070  23.206 -0.3680 -0.1244  0.4183
 1625BOLB   PO238990  39.510  33.844  23.581 -0.3392  0.1035  0.2540
 1625BOLB   GL338991  39.193  33.712  23.435  0.1642  0.0549 -0.0001
 1625BOLB   GL438992  39.125  33.780  23.121  0.3350 -0.1147  0.0083
 1625BOLB   C1C38993  38.765  33.695  23.500  0.0548  0.0380 -0.2646
 1625BOLB   C2C38994  38.387  33.589  23.543 -0.4221 -0.3165  0.2584
 1625BOLB   C3C38995  38.076  33.372  23.339 -0.0295 -0.1007 -0.0144
 1625BOLB   C4C38996  37.752  33.184  23.305  0.2832 -0.0288 -0.2534
 1625BOLB   C1D38997  38.871  33.649  22.885 -0.3414 -0.3058 -0.0306
 1625BOLB   C2D38998  38.467  33.525  22.750 -0.1843  0.0250 -0.3922
 1625BOLB   C3D38999  38.125  33.602  22.512  0.0918 -0.2124  0.1271
 1625BOLB   C4D39000  37.706  33.523  22.324  0.2352 -0.1330  0.0521
 1626BOLB   NC139001  35.041  28.172  18.356 -0.0778 -0.3527  0.0738
 1626BOLB   PO139002  35.050  28.224  17.951  0.1013 -0.1047  0.1152
 1626BOLB   GL139003  35.428  28.356  17.818 -0.0555 -0.0728 -0.0693
 1626BOLB   GL239004  35.367  28.319  17.438 -0.0498 -0.1258  0.3666
 1626BOLB   C1A39005  35.778  28.577  17.808 -0.4871 -0.0286  0.1154
 1626BOLB   C2A39006  35.844  28.981  17.605 -0.1054 -0.1445  0.2740
 1626BOLB   C3A39007  36.092  29.300  17.319 -0.0690 -0.2340  0.0520
 1626BOLB   C4A39008  36.394  29.386  16.931 -0.1967  0.0745  0.0986
 1626BOLB   C1B39009  35.837  28.199  17.393 -0.1135 -0.1432  0.0747
 1626BOLB   C2B39010  36.193  28.238  17.240 -0.1411 -0.1236 -0.1369
 1626BOLB   C3B39011  36.516  28.563  17.147  0.0044 -0.1943  0.0451
 1626BOLB   C4B39012  36.582  29.056  17.259  0.1394  0.0746  0.2696
 1626BOLB   NC239013  38.710  29.126  16.127 -0.0324 -0.0700  0.0497
 1626BOLB   PO239014  38.697  29.502  16.250  0.4242 -0.2852 -0.1428
 1626BOLB   GL339015  38.431  29.591  16.600 -0.1816  0.0335 -0.1196
 1626BOLB   GL439016  38.194  29.816  16.443 -0.2853 -0.0313  0.0067
 1626BOLB   C1C39017  38.011  29.314  16.628 -0.0790 -0.2300 -0.1834
 1626BOLB   C2C39018  37.525  29.367  16.648  0.1092  0.4022  0.1695
 1626BOLB   C3C39019  37.170  29.132  16.613 -0.0996 -0.0723  0.0910
 1626BOLB   C4C39020  36.797  29.265  16.799 -0.0385 -0.2972 -0.0085
 1626BOLB   C1D39021  37.886  29.902  16.682  0.1820  0.0373  0.0611
 1626BOLB   C2D39022  37.714  30.311  16.846  0.1873  0.2550  0.1727
 1626BOLB   C3D39023  37.948  30.655  17.086  0.2151  0.1061 -0.1931
 1626BOLB   C4D39024  38.129  30.853  16.838 -0.0647 -0.1366 -0.1371
 1627BOLB   NC139025  33.962  29.083  16.748 -0.0264  0.1359  0.1924
 1627BOLB   PO139026  33.998  29.476  16.465 -0.0088  0.1913 -0.0899
 1627BOLB   GL139027  34.181  29.342  16.002  0.5470 -0.0998 -0.2154
 1627BOLB   GL239028  34.218  29.200  15.723  0.2055  0.1146 -0.0123
 1627BOLB   C1A39029  34.550  29.573  15.854  0.1476 -0.0402  0.0116
 1627BOLB   C2A39030  34.753  29.599  15.507  0.1208  0.0251  0.0225
 1627BOLB   C3A39031  34.989  29.630  15.159  0.0606 -0.2255  0.4203
 1627BOLB   C4A39032  35.296  29.892  15.056 -0.1638  0.0507 -0.3939
 1627BOLB   C1B39033  34.450  29.010  15.364 -0.1969 -0.1012  0.0754
 1627BOLB   C2B39034  34.819  29.119  15.256 -0.1364  0.2699  0.1030
 1627BOLB   C3B39035  35.212  29.202  15.298  0.1374  0.1265  0.1377
 1627BOLB   C4B39036  35.584  28.926  15.462 -0.0568 -0.2795 -0.0119
 1627BOLB   NC239037  37.200  30.046  13.343 -0.1456 -0.1271  0.1238
 1627BOLB   PO239038  37.266  30.460  13.555  0.1303  0.4165 -0.0841
 1627BOLB   GL339039  36.966  30.188  13.781  0.0359 -0.1987  0.1307
 1627BOLB   GL439040  36.904  30.442  13.960  0.1996  0.1447 -0.1818
 1627BOLB   C1C39041  36.746  30.034  14.158 -0.1560  0.1402 -0.0877
 1627BOLB   C2C39042  36.420  30.085  14.412 -0.2118 -0.2542  0.0398
 1627BOLB   C3C39043  36.131  30.232  14.823 -0.1200  0.0494 -0.0306
 1627BOLB   C4C39044  35.681  29.958  14.953 -0.0576  0.0768 -0.1356
 1627BOLB   C1D39045  36.877  30.513  14.385  0.0309  0.0323 -0.1481
 1627BOLB   C2D39046  36.533  30.517  14.693  0.2056 -0.0388  0.0683
 1627BOLB   C3D39047  36.263  30.770  14.840 -0.0484  0.1087 -0.0663
 1627BOLB   C4D39048  35.978  31.150  14.842  0.1890  0.3297 -0.1454
 1628BOLB   NC139049  18.339  32.245   3.585 -0.2544  0.0150 -0.1282
 1628BOLB   PO139050  18.608  32.525   3.403  0.1084 -0.0160  0.3472
 1628BOLB   GL139051  18.693  32.178   3.213  0.1915 -0.2883 -0.0828
 1628BOLB   GL239052  19.018  32.182   3.285  0.2295  0.0653  0.1488
 1628BOLB   C1A39053  18.789  31.702   3.099  0.0300  0.0279  0.0647
 1628BOLB   C2A39054  18.966  31.228   3.133  0.4635 -0.2496 -0.1446
 1628BOLB   C3A39055  18.860  31.196   3.530  0.1253 -0.0024  0.1757
 1628BOLB   C4A39056  19.119  30.805   3.779  0.2316  0.0917 -0.3206
 1628BOLB   C1B39057  19.351  31.837   3.260 -0.0750  0.2100 -0.5458
 1628BOLB   C2B39058  19.380  31.421   3.004 -0.0520 -0.3050 -0.2039
 1628BOLB   C3B39059  19.130  31.217   2.657  0.2963 -0.2247 -0.1470
 1628BOLB   C4B39060  18.674  31.349   2.676 -0.3766 -0.0661  0.2048
 1628BOLB   NC239061  19.454  31.293   4.844 -0.1667 -0.0843  0.2294
 1628BOLB   PO239062  19.294  31.302   5.284  0.1066 -0.0750  0.1871
 1628BOLB   GL339063  19.129  30.882   5.157  0.2605  0.0068 -0.1076
 1628BOLB   GL439064  19.254  30.851   4.865  0.0244  0.1247 -0.0621
 1628BOLB   C1C39065  19.037  30.421   4.899 -0.1148 -0.0436  0.2666
 1628BOLB   C2C39066  19.135  30.121   4.520 -0.0612 -0.0837  0.0380
 1628BOLB   C3C39067  18.863  30.182   4.112 -0.5179 -0.0647  0.2896
 1628BOLB   C4C39068  18.840  30.554   3.848 -0.1213  0.2658  0.1816
 1628BOLB   C1D39069  19.473  30.572   4.598  0.1155 -0.0795 -0.1210
 1628BOLB   C2D39070  19.753  30.270   4.324  0.0425  0.1833 -0.2058
 1628BOLB   C3D39071  19.786  29.883   4.136  0.3403  0.2938  0.4520
 1628BOLB   C4D39072  19.577  29.461   4.050 -0.0187  0.3216 -0.1425
 1629BOLB   NC139073  27.192  37.124  17.866  0.1005 -0.1719 -0.1017
 1629BOLB   PO139074  27.405  36.814  17.794 -0.0478 -0.0870  0.1818
 1629BOLB   GL139075  27.745  37.168  17.521  0.1111 -0.1072  0.2129
 1629BOLB   GL239076  27.541  37.103  17.359 -0.2015 -0.2367 -0.1254
 1629BOLB   C1A39077  27.941  37.538  17.473  0.1202  0.2949  0.1042
 1629BOLB   C2A39078  28.028  37.884  17.348 -0.1458  0.0375 -0.0562
 1629BOLB   C3A39079  28.263  38.271  17.210  0.0796 -0.0776  0.4262
 1629BOLB   C4A39080  28.395  38.583  17.054  0.0909 -0.1098 -0.4707
 1629BOLB   C1B39081  27.706  37.306  17.063 -0.0275 -0.1370  0.1083
 1629BOLB   C2B39082  28.102  37.540  16.772 -0.0333 -0.2743  0.0429
 1629BOLB   C3B39083  28.281  38.019  16.811 -0.2039  0.1418 -0.0602
 1629BOLB   C4B39084  28.549  38.434  16.587 -0.0800  0.2130  0.0847
 1629BOLB   NC239085  28.586  39.916  14.744 -0.2241  0.0372  0.2598
 1629BOLB   PO239086  28.672  40.014  15.218  0.1235 -0.0951  0.0441
 1629BOLB   GL339087  28.683  39.892  15.673 -0.1400 -0.0012  0.2392
 1629BOLB   GL439088  28.947  39.625  15.599  0.2580 -0.1739  0.2563
 1629BOLB   C1C39089  28.588  39.670  16.021  0.2869  0.0471  0.1914
 1629BOLB   C2C39090  28.728  39.402  16.329 -0.1346  0.2812 -0.2155
 1629BOLB   C3C39091  28.831  39.134  16.602 -0.2328 -0.2904 -0.0019
 1629BOLB   C4C39092  28.442  38.877  16.668  0.1320  0.0986 -0.0953
 1629BOLB   C1D39093  28.913  39.240  15.469  0.1151 -0.1032 -0.2698
 1629BOLB   C2D39094  29.189  38.840  15.358  0.1972 -0.1853  0.1855
 1629BOLB   C3D39095  29.557  38.684  15.544 -0.2930  0.2064  0.0175
 1629BOLB   C4D39096  29.846  38.813  15.826  0.1806  0.1090  0.0348
 1630BOLB   NC139097  34.720  33.841  23.913 -0.0092 -0.1356 -0.0107
 1630BOLB   PO139098  34.975  33.623  23.621 -0.3952 -0.1966 -0.2620
 1630BOLB   GL139099  35.357  33.753  23.533 -0.1290 -0.0912 -0.0543
 1630BOLB   GL239100  35.420  33.912  23.830  0.2869  0.3846 -0.5975
 1630BOLB   C1A39101  35.761  33.753  23.430 -0.2989  0.0482 -0.1800
 1630BOLB   C2A39102  35.903  33.988  23.778 -0.2660 -0.0467  0.0909
 1630BOLB   C3A39103  36.070  34.171  24.174  0.0100 -0.2144  0.1710
 1630BOLB   C4A39104  36.439  34.091  24.523 -0.2294 -0.1976  0.1575
 1630BOLB   C1B39105  35.607  33.835  24.200 -0.2260  0.2679 -0.1366
 1630BOLB   C2B39106  35.823  33.790  24.575  0.2116 -0.2773  0.1373
 1630BOLB   C3B39107  35.823  33.395  24.759 -0.0572  0.0155 -0.2937
 1630BOLB   C4B39108  35.921  33.185  25.178  0.0786  0.2319 -0.1820
 1630BOLB   NC239109  38.321  35.018  24.718  0.0885 -0.0506 -0.2603
 1630BOLB   PO239110  38.409  34.991  25.131  0.0734  0.0909 -0.2436
 1630BOLB   GL339111  37.952  34.963  25.033 -0.0911  0.1262 -0.1246
 1630BOLB   GL439112  37.879  35.184  25.281 -0.1746  0.0086 -0.2801
 1630BOLB   C1C39113  37.576  34.824  24.840  0.0068  0.0208 -0.1752
 1630BOLB   C2C39114  37.274  34.458  24.839  0.2403  0.0201 -0.1759
 1630BOLB   C3C39115  37.250  34.093  24.638  0.0599 -0.2224  0.3421
 1630BOLB   C4C39116  36.779  33.930  24.567 -0.0702  0.2316 -0.0367
 1630BOLB   C1D39117  37.492  35.148  25.502  0.2665 -0.0496  0.0743
 1630BOLB   C2D39118  37.086  35.017  25.687  0.2117  0.1041 -0.1479
 1630BOLB   C3D39119  36.673  35.001  25.670  0.1359 -0.1015  0.2807
 1630BOLB   C4D39120  36.427  35.322  25.682 -0.2008  0.2933  0.0686
 1631BOLB   NC139121  32.601  32.852   0.025  0.1807 -0.0227  0.1699
 1631BOLB   PO139122  32.979  33.117  26.842  0.1427 -0.2271  0.0581
 1631BOLB   GL139123  33.249  33.431   0.071  0.0421  0.0223  0.0399
 1631BOLB   GL239124  33.352  33.607  26.736  0.0326  0.1505 -0.2247
 1631BOLB   C1A39125  33.568  33.708   0.356  0.1280  0.2778  0.4768
 1631BOLB   C2A39126  33.944  33.707   0.610 -0.3291 -0.1854  0.1242
 1631BOLB   C3A39127  34.364  33.754   0.792  0.4065 -0.0605 -0.1946
 1631BOLB   C4A39128  34.626  33.824   1.057  0.1140  0.1056 -0.1533
 1631BOLB   C1B39129  33.646  33.793  26.826  0.0801  0.1377 -0.0503
 1631BOLB   C2B39130  34.096  33.782   0.091  0.2409  0.0005 -0.1742
 1631BOLB   C3B39131  34.495  33.777   0.260  0.1568 -0.1052  0.0955
 1631BOLB   C4B39132  34.753  33.960   0.586  0.0949  0.1946 -0.1237
 1631BOLB   NC239133  36.560  35.321   1.682  0.0167 -0.2183  0.1315
 1631BOLB   PO239134  36.620  34.871   1.944 -0.4699  0.2009 -0.1494
 1631BOLB   GL339135  36.354  34.693   1.671 -0.1814 -0.0391 -0.1811
 1631BOLB   GL439136  36.049  34.479   1.754  0.2016  0.1288  0.0541
 1631BOLB   C1C39137  36.060  34.794   1.382 -0.0571  0.3250 -0.1069
 1631BOLB   C2C39138  35.785  34.495   1.217 -0.1660 -0.1023 -0.0180
 1631BOLB   C3C39139  35.508  34.184   1.183  0.2269 -0.1260 -0.1326
 1631BOLB   C4C39140  35.080  33.879   1.336 -0.1741  0.2015 -0.1583
 1631BOLB   C1D39141  35.921  34.078   1.433 -0.0963 -0.2159  0.0214
 1631BOLB   C2D39142  36.284  33.820   1.311 -0.1154 -0.2926 -0.0221
 1631BOLB   C3D39143  36.334  33.388   1.149 -0.0501 -0.0852 -0.0397
 1631BOLB   C4D39144  36.644  33.092   1.073  0.0911 -0.1498  0.0687
 1632BOLB   NC139145  30.808  25.368  15.298  0.2587  0.0675  0.0682
 1632BOLB   PO139146  31.071  25.743  15.094 -0.0742  0.1666  0.1127
 1632BOLB   GL139147  31.264  25.842  14.723  0.0534  0.0135 -0.0997
 1632BOLB   GL239148  31.505  25.965  14.854  0.0186  0.1750  0.0813
 1632BOLB   C1A39149  31.503  25.707  14.303  0.2439  0.2916  0.0615
 1632BOLB   C2A39150  31.807  25.804  14.103 -0.3112  0.0531 -0.3894
 1632BOLB   C3A39151  32.281  26.054  14.020  0.1048  0.1217  0.0014
 1632BOLB   C4A39152  32.504  26.037  13.666  0.0717 -0.4209 -0.2640
 1632BOLB   C1B39153  31.799  25.673  14.655 -0.0010  0.3212  0.1595
 1632BOLB   C2B39154  31.857  25.284  14.544 -0.3733 -0.0978 -0.1926
 1632BOLB   C3B39155  31.775  24.871  14.546 -0.5123 -0.1178 -0.0851
 1632BOLB   C4B39156  32.008  24.538  14.516  0.0834 -0.0697 -0.1560
 1632BOLB   NC239157  33.228  23.950  12.930  0.1946 -0.0314 -0.1873
 1632BOLB   PO239158  33.243  24.370  12.695 -0.1053 -0.1003 -0.0666
 1632BOLB   GL339159  32.953  24.384  12.989 -0.1225 -0.0653 -0.3431
 1632BOLB   GL439160  32.824  24.127  13.178 -0.0466  0.0236 -0.0207
 1632BOLB   C1C39161  32.875  24.744  13.122 -0.0742 -0.1014 -0.1804
 1632BOLB   C2C39162  33.078  25.195  13.086  0.0854  0.0800 -0.1347
 1632BOLB   C3C39163  32.838  25.596  13.161 -0.0360  0.0422 -0.0482
 1632BOLB   C4C39164  32.818  25.933  13.424 -0.0794 -0.0327 -0.1230
 1632BOLB   C1D39165  32.813  24.411  13.529  0.1673  0.0995  0.1478
 1632BOLB   C2D39166  33.006  24.506  13.894 -0.0198 -0.0863  0.1485
 1632BOLB   C3D39167  32.802  24.459  14.247 -0.1100  0.0521 -0.0351
 1632BOLB   C4D39168  32.509  24.410  14.508  0.0797 -0.4190  0.4820
 1633BOLB   NC139169  38.625  33.234  26.919 -0.0282 -0.0505 -0.0395
 1633BOLB   PO139170  38.192  33.445   0.079 -0.4958 -0.0188  0.0300
 1633BOLB   GL139171  37.809  33.376   0.020  0.2316 -0.0404 -0.0231
 1633BOLB   GL239172  37.722  33.674  26.795  0.1965 -0.0622  0.0491
 1633BOLB   C1A39173  37.386  33.206  26.913  0.2302 -0.0487  0.1351
 1633BOLB   C2A39174  37.129  32.920  26.635  0.1405  0.1928 -0.0834
 1633BOLB   C3A39175  36.961  32.685  26.340  0.0520  0.0212 -0.0613
 1633BOLB   C4A39176  36.782  32.657  25.984 -0.0313  0.2382 -0.0267
 1633BOLB   C1B39177  37.315  33.840  26.802  0.1207 -0.1571 -0.4229
 1633BOLB   C2B39178  36.948  33.752  26.887  0.0480  0.0826  0.0540
 1633BOLB   C3B39179  36.692  33.607  26.586 -0.1104 -0.0383 -0.0037
 1633BOLB   C4B39180  36.335  33.537  26.682 -0.1670 -0.0062 -0.2830
 1633BOLB   NC239181  34.914  31.782  24.668  0.0954 -0.0804 -0.3583
 1633BOLB   PO239182  34.922  32.154  24.702 -0.4151  0.3884 -0.0979
 1633BOLB   GL339183  35.364  32.378  24.690 -0.1181  0.0178  0.1666
 1633BOLB   GL439184  35.604  32.436  24.364  0.2344 -0.2079  0.0689
 1633BOLB   C1C39185  35.731  32.236  24.892 -0.1170 -0.4975  0.0691
 1633BOLB   C2C39186  35.989  32.446  25.247 -0.3758 -0.1012 -0.3223
 1633BOLB   C3C39187  36.162  32.582  25.558  0.0183 -0.1854 -0.0274
 1633BOLB   C4C39188  36.375  32.761  25.923 -0.1373  0.0688 -0.0647
 1633BOLB   C1D39189  36.051  32.444  24.477  0.0133 -0.0852 -0.0473
 1633BOLB   C2D39190  36.370  32.391  24.814 -0.0160 -0.0845  0.0546
 1633BOLB   C3D39191  36.722  32.516  24.947  0.2990 -0.0133 -0.0627
 1633BOLB   C4D39192  37.054  32.786  25.033 -0.1010  0.0414 -0.3225
 1634BOLB   NC139193  26.899  35.833  17.069 -0.0328 -0.1163 -0.0347
 1634BOLB   PO139194  26.805  36.138  16.734 -0.1290  0.1116 -0.2439
 1634BOLB   GL139195  26.728  36.442  16.434 -0.0830 -0.3440 -0.3032
 1634BOLB   GL239196  26.916  36.229  16.212 -0.1371 -0.1743 -0.3276
 1634BOLB   C1A39197  26.559  36.635  16.066 -0.2919  0.0422 -0.1794
 1634BOLB   C2A39198  26.510  36.950  15.855 -0.0170  0.2956 -0.1816
 1634BOLB   C3A39199  26.313  37.162  15.485 -0.4260  0.2141  0.0060
 1634BOLB   C4A39200  26.188  37.459  15.169  0.0931  0.2529  0.1259
 1634BOLB   C1B39201  26.978  36.556  15.877 -0.3009  0.0302  0.1014
 1634BOLB   C2B39202  26.890  36.876  15.552  0.0359  0.1394  0.0010
 1634BOLB   C3B39203  26.743  37.081  15.186 -0.0690 -0.0135 -0.0287
 1634BOLB   C4B39204  26.934  37.193  14.759  0.0249  0.2008 -0.1991
 1634BOLB   NC239205  25.709  38.844  13.659 -0.2646 -0.0826 -0.0182
 1634BOLB   PO239206  26.021  39.001  13.694 -0.1991 -0.1903  0.1439
 1634BOLB   GL339207  25.918  38.852  14.102  0.4265 -0.2722 -0.0505
 1634BOLB   GL439208  25.993  39.038  14.221  0.0835 -0.2704 -0.2249
 1634BOLB   C1C39209  26.120  38.497  14.269  0.2455 -0.0730  0.2342
 1634BOLB   C2C39210  26.284  38.228  14.504  0.1319  0.2117  0.1754
 1634BOLB   C3C39211  26.138  38.262  14.871  0.3188 -0.2819 -0.1246
 1634BOLB   C4C39212  26.149  37.948  15.110  0.0705 -0.0260  0.1643
 1634BOLB   C1D39213  26.146  39.281  14.506 -0.0879 -0.0206 -0.3592
 1634BOLB   C2D39214  26.231  39.477  14.869 -0.0428 -0.3441 -0.1109
 1634BOLB   C3D39215  26.056  39.579  15.324  0.2321  0.3206 -0.1959
 1634BOLB   C4D39216  26.054  39.334  15.630 -0.1843 -0.0604 -0.0774
 1635BOLB   NC139217  18.683  17.495  23.767  0.0035  0.1437  0.2410
 1635BOLB   PO139218  18.560  17.902  23.667  0.0505 -0.1831 -0.2899
 1635BOLB   GL139219  18.774  18.184  23.618 -0.1653  0.1274 -0.4335
 1635BOLB   GL239220  18.835  18.356  23.913  0.4088  0.0171  0.0394
 1635BOLB   C1A39221  19.092  18.216  23.273  0.1341  0.0063 -0.1051
 1635BOLB   C2A39222  19.417  18.399  22.960  0.2556  0.1919 -0.1422
 1635BOLB   C3A39223  19.456  18.528  22.506  0.0116  0.0728  0.1403
 1635BOLB   C4A39224  19.256  18.747  22.192  0.5219 -0.0034  0.1328
 1635BOLB   C1B39225  19.184  18.565  23.718  0.2920 -0.3378  0.1463
 1635BOLB   C2B39226  19.512  18.766  23.705  0.2543 -0.2510 -0.1403
 1635BOLB   C3B39227  19.835  19.008  23.613 -0.0657 -0.1112  0.3330
 1635BOLB   C4B39228  19.948  19.297  23.306 -0.3807 -0.1276  0.1078
 1635BOLB   NC239229  17.426  17.336  20.518  0.0692 -0.0112  0.2180
 1635BOLB   PO239230  17.693  17.536  20.849 -0.0323 -0.1285  0.0737
 1635BOLB   GL339231  18.071  17.857  20.921  0.1401 -0.1689  0.1291
 1635BOLB   GL439232  18.389  17.804  20.788 -0.0075  0.1986  0.0020
 1635BOLB   C1C39233  18.373  18.277  21.023 -0.0556  0.2244  0.2321
 1635BOLB   C2C39234  18.388  18.718  21.280 -0.3068  0.1955  0.0186
 1635BOLB   C3C39235  18.659  18.735  21.563  0.2035 -0.1557  0.0181
 1635BOLB   C4C39236  18.998  18.684  21.803  0.1165 -0.1603 -0.0044
 1635BOLB   C1D39237  18.797  18.054  20.793 -0.1954 -0.1150  0.0958
 1635BOLB   C2D39238  19.197  18.176  20.981 -0.1667 -0.1871 -0.2245
 1635BOLB   C3D39239  19.544  18.521  20.975  0.0079 -0.1588  0.0294
 1635BOLB   C4D39240  19.836  18.759  21.051 -0.0524  0.0974  0.0711
 1636BOLB   NC139241  29.376  22.090  19.382 -0.1393  0.0992 -0.3438
 1636BOLB   PO139242  28.989  21.928  19.181  0.2893  0.0271 -0.0420
 1636BOLB   GL139243  29.040  21.489  19.033 -0.2752 -0.3129 -0.2370
 1636BOLB   GL239244  28.896  21.262  19.358 -0.1098 -0.3463 -0.1568
 1636BOLB   C1A39245  29.130  21.334  18.567  0.0369 -0.1258  0.0139
 1636BOLB   C2A39246  29.268  21.105  18.275  0.1748  0.3654 -0.1799
 1636BOLB   C3A39247  29.442  20.692  18.151  0.0454  0.2236 -0.0196
 1636BOLB   C4A39248  29.641  20.480  17.854 -0.0630 -0.0483  0.1201
 1636BOLB   C1B39249  29.112  20.935  19.112  0.0421 -0.0715  0.0665
 1636BOLB   C2B39250  29.441  20.821  18.650  0.0835  0.3552 -0.0149
 1636BOLB   C3B39251  29.642  20.527  18.578 -0.0345 -0.0955 -0.0167
 1636BOLB   C4B39252  29.724  20.173  18.277  0.1287 -0.1715 -0.1223
 1636BOLB   NC239253  29.137  18.660  16.443 -0.1348 -0.0640  0.1076
 1636BOLB   PO239254  29.587  18.761  16.354  0.1401 -0.0457 -0.0539
 1636BOLB   GL339255  29.563  19.094  16.613  0.0212  0.2804 -0.1990
 1636BOLB   GL439256  29.398  18.954  17.011 -0.3445 -0.1447 -0.0014
 1636BOLB   C1C39257  29.570  19.462  16.771 -0.1123 -0.0388 -0.0696
 1636BOLB   C2C39258  29.648  19.584  17.149  0.0066 -0.1110 -0.1069
 1636BOLB   C3C39259  29.963  19.741  17.623  0.1597 -0.0794  0.2679
 1636BOLB   C4C39260  29.901  20.147  17.807  0.1770  0.0598  0.1308
 1636BOLB   C1D39261  29.220  19.351  17.368  0.0880 -0.0705  0.0219
 1636BOLB   C2D39262  29.115  19.638  17.645 -0.0934  0.3265  0.3885
 1636BOLB   C3D39263  28.857  19.923  17.714 -0.0592 -0.1771  0.0256
 1636BOLB   C4D39264  28.491  19.963  17.449  0.2709 -0.0694  0.3197
 1637BOLB   NC139265  14.943  31.242   1.163 -0.2150  0.0837 -0.1680
 1637BOLB   PO139266  15.027  31.038   1.578  0.1194  0.0798 -0.2819
 1637BOLB   GL139267  15.101  30.794   1.128 -0.0135 -0.1369 -0.1462
 1637BOLB   GL239268  15.084  30.743   0.738  0.1037 -0.1047 -0.6236
 1637BOLB   C1A39269  15.360  30.491   1.129  0.1602  0.3285 -0.0373
 1637BOLB   C2A39270  15.823  30.477   1.236 -0.4017  0.1803 -0.0620
 1637BOLB   C3A39271  16.060  30.268   0.923 -0.1071 -0.0560  0.2427
 1637BOLB   C4A39272  16.018  30.294   0.405 -0.2651 -0.1559 -0.2118
 1637BOLB   C1B39273  15.242  30.342   0.481  0.1273 -0.0891  0.1404
 1637BOLB   C2B39274  15.300  29.935   0.476 -0.0768  0.2157 -0.0588
 1637BOLB   C3B39275  15.590  29.542   0.392  0.4101 -0.1225 -0.1080
 1637BOLB   C4B39276  15.927  29.352   0.614 -0.1281 -0.1100 -0.4862
 1637BOLB   NC239277  13.726  29.955  26.711 -0.0737 -0.0308  0.3150
 1637BOLB   PO239278  14.123  30.162  26.578  0.1002 -0.0114 -0.1048
 1637BOLB   GL339279  14.557  30.011  26.637  0.0425  0.0874 -0.2247
 1637BOLB   GL439280  14.379  29.801   0.031  0.0644  0.1407  0.0426
 1637BOLB   C1C39281  14.876  29.792  26.627 -0.2205 -0.0614 -0.0120
 1637BOLB   C2C39282  15.226  29.821  26.901  0.2487 -0.0265  0.0610
 1637BOLB   C3C39283  15.373  30.105  26.921  0.1899 -0.0678  0.2949
 1637BOLB   C4C39284  15.723  30.037   0.220 -0.1647 -0.1144  0.0207
 1637BOLB   C1D39285  14.358  29.451   0.271 -0.2349  0.0457  0.2099
 1637BOLB   C2D39286  14.565  29.038   0.370  0.0625  0.0660 -0.0289
 1637BOLB   C3D39287  14.900  28.699   0.370  0.0776 -0.5119  0.0391
 1637BOLB   C4D39288  14.971  28.361   0.113  0.0888  0.0623  0.0719
 1638BOLB   NC139289  38.970  32.860  25.512  0.1648  0.3294 -0.2411
 1638BOLB   PO139290  38.819  33.227  25.707 -0.0542  0.0256  0.2359
 1638BOLB   GL139291  38.415  33.156  25.687  0.2451 -0.1811 -0.0287
 1638BOLB   GL239292  38.248  32.809  25.920  0.1189 -0.1762  0.2285
 1638BOLB   C1A39293  37.984  33.259  25.538 -0.1593 -0.5086  0.0197
 1638BOLB   C2A39294  37.800  33.103  25.167  0.2089  0.0763  0.0167
 1638BOLB   C3A39295  37.530  32.838  25.016  0.0035  0.0715 -0.4628
 1638BOLB   C4A39296  37.503  32.692  24.629 -0.2609  0.0601 -0.1803
 1638BOLB   C1B39297  38.018  32.517  26.251  0.1796 -0.0236  0.1372
 1638BOLB   C2B39298  37.686  32.419  26.528  0.2435  0.1538  0.3023
 1638BOLB   C3B39299  37.750  32.115  26.852 -0.1091 -0.0685 -0.2072
 1638BOLB   C4B39300  37.712  32.414   0.308 -0.1366  0.2920  0.0718
 1638BOLB   NC239301  39.875  33.514  23.901  0.0608  0.1168  0.2599
 1638BOLB   PO239302  39.616  33.489  24.367 -0.0864  0.0576  0.2074
 1638BOLB   GL339303  39.142  33.386  24.288 -0.1264  0.2313  0.0108
 1638BOLB   GL439304  38.905  33.469  24.330 -0.0294 -0.1633 -0.2061
 1638BOLB   C1C39305  38.709  33.031  24.159  0.0618  0.2106  0.1448
 1638BOLB   C2C39306  38.279  32.821  24.162  0.3497 -0.2327 -0.0864
 1638BOLB   C3C39307  37.949  32.632  24.193  0.0086 -0.0903 -0.2873
 1638BOLB   C4C39308  37.577  32.844  24.247  0.4097  0.4652  0.2933
 1638BOLB   C1D39309  38.629  33.545  23.981 -0.1603 -0.0449  0.0121
 1638BOLB   C2D39310  38.259  33.258  23.858  0.1987 -0.2126 -0.1249
 1638BOLB   C3D39311  37.927  32.951  23.804 -0.3098  0.2080 -0.2317
 1638BOLB   C4D39312  37.572  32.705  23.618 -0.3641 -0.2980 -0.1519
 1639BOLB   NC139313  30.694  36.971  17.959 -0.1302  0.0752  0.0204
 1639BOLB   PO139314  30.397  37.265  18.148  0.1010 -0.1226  0.2634
 1639BOLB   GL139315  30.383  37.669  18.289  0.1847  0.0833 -0.2916
 1639BOLB   GL239316  30.676  37.757  18.191  0.2931  0.1179  0.3083
 1639BOLB   C1A39317  30.307  38.109  18.256  0.1337 -0.1002  0.1112
 1639BOLB   C2A39318  30.248  38.424  17.943  0.2200  0.2281 -0.0748
 1639BOLB   C3A39319  30.282  38.870  17.891 -0.1368 -0.0221  0.2519
 1639BOLB   C4A39320  30.249  39.328  17.974  0.2668  0.1589 -0.0250
 1639BOLB   C1B39321  30.848  38.148  17.934 -0.0908 -0.0537  0.0770
 1639BOLB   C2B39322  30.651  38.369  17.634  0.0818  0.2446 -0.0342
 1639BOLB   C3B39323  30.472  38.781  17.487 -0.1013  0.0341 -0.2425
 1639BOLB   C4B39324  30.359  38.974  17.042 -0.1668  0.1527 -0.2805
 1639BOLB   NC239325  30.958  41.810  18.229  0.1358  0.6120  0.0809
 1639BOLB   PO239326  30.732  41.490  18.422 -0.0271 -0.1435 -0.0618
 1639BOLB   GL339327  30.669  41.048  18.483 -0.3807 -0.0836 -0.2721
 1639BOLB   GL439328  30.784  40.946  18.192 -0.1090  0.0896 -0.1861
 1639BOLB   C1C39329  30.680  40.706  18.658 -0.0832  0.1332 -0.0067
 1639BOLB   C2C39330  30.809  40.390  18.484  0.1855 -0.0863  0.0663
 1639BOLB   C3C39331  30.632  39.989  18.316  0.3416  0.1154  0.0726
 1639BOLB   C4C39332  30.319  39.689  18.254  0.0560  0.1469  0.0218
 1639BOLB   C1D39333  30.748  40.601  17.997  0.0557 -0.6328 -0.0408
 1639BOLB   C2D39334  30.697  40.332  17.735 -0.3612  0.3090  0.1327
 1639BOLB   C3D39335  30.345  40.387  17.428 -0.3017 -0.1908 -0.0363
 1639BOLB   C4D39336  29.842  40.473  17.403 -0.3181  0.0229 -0.0366
 1640BOLB   NC139337  31.586  24.715  16.273  0.0972 -0.4937 -0.0478
 1640BOLB   PO139338  31.263  24.649  16.593  0.1890 -0.0445  0.0964
 1640BOLB   GL139339  31.489  24.247  16.277  0.1210 -0.3393  0.1051
 1640BOLB   GL239340  31.300  23.915  16.178  0.1067  0.4604 -0.0539
 1640BOLB   C1A39341  31.857  23.990  16.319 -0.0792  0.3641 -0.1892
 1640BOLB   C2A39342  31.898  23.493  16.331 -0.0392 -0.1804 -0.0465
 1640BOLB   C3A39343  32.096  23.333  16.075 -0.1734 -0.1364  0.0693
 1640BOLB   C4A39344  32.313  23.039  15.793  0.1497 -0.2272  0.0214
 1640BOLB   C1B39345  31.405  23.539  16.356 -0.0218 -0.1235  0.1836
 1640BOLB   C2B39346  31.552  23.336  16.635 -0.4105 -0.1879 -0.0422
 1640BOLB   C3B39347  31.964  23.129  16.679 -0.0032 -0.0464  0.2340
 1640BOLB   C4B39348  32.144  22.909  16.332  0.0111 -0.1364  0.0304
 1640BOLB   NC239349  33.761  20.765  15.406 -0.0211 -0.0932  0.0452
 1640BOLB   PO239350  33.755  21.182  15.208 -0.5359  0.1291 -0.3933
 1640BOLB   GL339351  33.844  21.502  15.416 -0.0341 -0.1350 -0.0438
 1640BOLB   GL439352  33.984  21.562  15.764 -0.0610 -0.2581 -0.1080
 1640BOLB   C1C39353  33.594  21.879  15.336 -0.3868  0.0710  0.2539
 1640BOLB   C2C39354  33.342  22.221  15.315  0.0636  0.2253 -0.1063
 1640BOLB   C3C39355  32.997  22.558  15.410  0.1731  0.2511  0.2186
 1640BOLB   C4C39356  32.596  22.726  15.569  0.1816 -0.0761 -0.3390
 1640BOLB   C1D39357  33.952  22.061  15.791  0.1841  0.2957  0.1025
 1640BOLB   C2D39358  33.863  22.307  15.545  0.0182 -0.0803 -0.3323
 1640BOLB   C3D39359  33.480  22.638  15.548 -0.1176  0.2277  0.3290
 1640BOLB   C4D39360  33.109  22.909  15.758 -0.0029 -0.0285  0.3606
 1641BOLB   NC139361  32.992  26.568  11.320 -0.3323  0.2079  0.2278
 1641BOLB   PO139362  32.852  27.012  11.237 -0.2642 -0.2239  0.0166
 1641BOLB   GL139363  32.605  26.849  11.571  0.0398 -0.2539 -0.2704
 1641BOLB   GL239364  32.206  26.869  11.617  0.0259 -0.0141 -0.0450
 1641BOLB   C1A39365  32.575  26.664  11.919 -0.1070 -0.2555  0.1763
 1641BOLB   C2A39366  32.591  26.527  12.265  0.2949 -0.4563 -0.2260
 1641BOLB   C3A39367  32.425  26.388  12.563  0.0433  0.0925 -0.3694
 1641BOLB   C4A39368  32.118  26.523  12.872  0.1921  0.2741  0.1786
 1641BOLB   C1B39369  31.740  26.780  11.751 -0.0593  0.1514 -0.1166
 1641BOLB   C2B39370  31.529  26.842  12.192  0.1173  0.1552  0.0421
 1641BOLB   C3B39371  31.671  27.344  12.348 -0.0466 -0.0518  0.1362
 1641BOLB   C4B39372  31.785  27.672  12.692  0.0448  0.2816 -0.0458
 1641BOLB   NC239373  31.606  26.810  15.625 -0.0675  0.0556  0.2587
 1641BOLB   PO239374  31.845  26.947  15.247 -0.0023 -0.3494  0.4118
 1641BOLB   GL339375  32.000  26.882  14.847 -0.0029 -0.1582  0.4814
 1641BOLB   GL439376  32.148  26.557  14.616  0.0818  0.3079 -0.3329
 1641BOLB   C1C39377  32.087  26.957  14.406  0.1441 -0.0918 -0.1570
 1641BOLB   C2C39378  32.138  27.035  13.964  0.2544  0.1424  0.0481
 1641BOLB   C3C39379  32.075  27.029  13.530  0.0880 -0.2255 -0.0803
 1641BOLB   C4C39380  32.007  26.785  13.124 -0.1359 -0.0339  0.1677
 1641BOLB   C1D39381  32.491  26.215  14.461 -0.0271  0.0901  0.1449
 1641BOLB   C2D39382  32.663  25.887  14.274  0.1411  0.2260  0.0104
 1641BOLB   C3D39383  32.901  25.816  13.918  0.1080 -0.5199  0.2249
 1641BOLB   C4D39384  32.715  25.474  13.617 -0.1112 -0.3301  0.1147
 1642BOLB   NC139385  34.562  34.824  20.337 -0.0196 -0.1507 -0.0407
 1642BOLB   PO139386  34.768  34.786  20.661  0.2269 -0.2371 -0.2386
 1642BOLB   GL139387  35.046  35.010  20.507  0.2436  0.4561 -0.0170
 1642BOLB   GL239388  34.933  35.223  20.271  0.0422  0.1440 -0.1271
 1642BOLB   C1A39389  35.328  35.272  20.653 -0.0731 -0.1828  0.4541
 1642BOLB   C2A39390  35.557  35.612  20.596  0.0677 -0.3564 -0.1765
 1642BOLB   C3A39391  35.718  36.051  20.758 -0.0253  0.4137 -0.3293
 1642BOLB   C4A39392  35.837  36.434  20.584  0.0339  0.0255 -0.1753
 1642BOLB   C1B39393  35.132  35.660  20.376  0.2103  0.3200  0.2230
 1642BOLB   C2B39394  35.352  35.998  20.402  0.0069 -0.0801  0.0438
 1642BOLB   C3B39395  35.730  36.083  20.242 -0.1647 -0.0134 -0.3972
 1642BOLB   C4B39396  36.044  36.313  20.045  0.3656  0.0897 -0.1234
 1642BOLB   NC239397  36.745  38.560  18.924 -0.0557 -0.0209  0.2119
 1642BOLB   PO239398  36.906  38.318  19.184 -0.1195 -0.0649  0.0832
 1642BOLB   GL339399  36.700  37.871  19.254 -0.2493 -0.2837 -0.0977
 1642BOLB   GL439400  36.441  37.734  19.023 -0.0178  0.0827 -0.0692
 1642BOLB   C1C39401  36.399  37.551  19.441 -0.0716 -0.0583 -0.0293
 1642BOLB   C2C39402  36.074  37.279  19.608  0.0563  0.0781 -0.0321
 1642BOLB   C3C39403  36.003  36.974  19.878 -0.0659 -0.1037 -0.0736
 1642BOLB   C4C39404  36.095  36.756  20.369  0.1429  0.1134 -0.2774
 1642BOLB   C1D39405  36.017  37.559  19.104  0.4511 -0.0209  0.2359
 1642BOLB   C2D39406  35.780  37.442  18.896  0.1021  0.1050  0.1359
 1642BOLB   C3D39407  35.396  37.221  18.603  0.0219  0.0541  0.0940
 1642BOLB   C4D39408  35.113  36.882  18.619  0.0205  0.0890 -0.0942
 1643BOLB   NC139409  29.270  34.734   0.956  0.1314 -0.0578  0.1464
 1643BOLB   PO139410  29.511  35.111   0.917  0.0223  0.1706 -0.0871
 1643BOLB   GL139411  29.711  35.557   1.085  0.1531 -0.3271  0.0141
 1643BOLB   GL239412  29.601  35.443   1.398  0.2617 -0.0230  0.1607
 1643BOLB   C1A39413  29.813  35.889   1.225  0.1018 -0.1272 -0.1635
 1643BOLB   C2A39414  29.913  36.119   1.576 -0.0067 -0.5530  0.0713
 1643BOLB   C3A39415  30.176  36.378   1.809  0.1360 -0.0190  0.0407
 1643BOLB   C4A39416  30.297  36.484   2.220 -0.1860  0.0639 -0.0357
 1643BOLB   C1B39417  29.726  35.554   1.836 -0.0704 -0.1441  0.0131
 1643BOLB   C2B39418  29.854  35.890   2.028  0.0986  0.1069  0.1281
 1643BOLB   C3B39419  30.031  36.083   2.362 -0.0564 -0.0565 -0.0183
 1643BOLB   C4B39420  30.345  36.074   2.640 -0.3469  0.2117  0.0562
 1643BOLB   NC239421  30.675  38.553   3.181 -0.1119  0.0493  0.2802
 1643BOLB   PO239422  30.374  38.409   3.544 -0.1089  0.1578  0.0414
 1643BOLB   GL339423  30.597  38.005   3.500  0.3161  0.0000 -0.5064
 1643BOLB   GL439424  30.846  38.018   3.311 -0.0525  0.1466  0.0608
 1643BOLB   C1C39425  30.446  37.718   3.273 -0.0470  0.2173 -0.1369
 1643BOLB   C2C39426  30.575  37.418   2.919  0.1514 -0.2304 -0.2952
 1643BOLB   C3C39427  30.626  37.008   2.800 -0.1264 -0.0556  0.1457
 1643BOLB   C4C39428  30.370  36.838   2.496 -0.3834  0.4224  0.1340
 1643BOLB   C1D39429  30.998  37.663   3.034 -0.2042  0.0242  0.0646
 1643BOLB   C2D39430  31.028  37.364   2.773 -0.2632  0.1488 -0.1620
 1643BOLB   C3D39431  31.104  36.916   2.650 -0.4966 -0.3613 -0.0734
 1643BOLB   C4D39432  31.126  36.753   2.320  0.1143 -0.1184 -0.2044
 1644BOLB   NC139433  36.020  30.276  21.947  0.0887 -0.1888  0.0353
 1644BOLB   PO139434  36.029  30.690  21.827  0.2147  0.3669 -0.6083
 1644BOLB   GL139435  36.332  30.756  21.605  0.1418 -0.3033 -0.1375
 1644BOLB   GL239436  36.401  30.439  21.572 -0.0009  0.5768  0.5374
 1644BOLB   C1A39437  36.617  31.105  21.670  0.0098  0.0163 -0.1379
 1644BOLB   C2A39438  36.918  31.284  21.789 -0.0601 -0.0797  0.0224
 1644BOLB   C3A39439  37.333  31.482  21.720  0.3705  0.0398  0.0830
 1644BOLB   C4A39440  37.675  31.719  21.768  0.3615  0.0556  0.1005
 1644BOLB   C1B39441  36.856  30.702  21.785 -0.0370  0.0112  0.2659
 1644BOLB   C2B39442  37.235  30.904  21.889  0.0812  0.3844  0.2790
 1644BOLB   C3B39443  37.571  31.170  22.073 -0.1582  0.1849 -0.0331
 1644BOLB   C4B39444  37.880  31.528  22.170 -0.0283  0.3167 -0.2422
 1644BOLB   NC239445  40.448  32.368  22.008 -0.4263  0.3982  0.1325
 1644BOLB   PO239446  40.078  32.394  22.200 -0.0922 -0.0297 -0.3681
 1644BOLB   GL339447  39.673  32.146  22.234  0.1947  0.0268 -0.0409
 1644BOLB   GL439448  39.723  31.923  22.014  0.0421 -0.3506 -0.0978
 1644BOLB   C1C39449  39.209  31.911  22.367  0.2124  0.1050  0.0795
 1644BOLB   C2C39450  38.833  31.954  22.064 -0.0529  0.0068  0.3860
 1644BOLB   C3C39451  38.433  32.011  22.003  0.1335  0.2174  0.1110
 1644BOLB   C4C39452  38.033  31.878  21.818  0.0867  0.1461 -0.0898
 1644BOLB   C1D39453  39.300  31.978  21.822  0.3174  0.2041  0.1065
 1644BOLB   C2D39454  38.909  31.569  21.736 -0.1972  0.3591 -0.0723
 1644BOLB   C3D39455  38.483  31.462  21.970 -0.0904 -0.4189 -0.3436
 1644BOLB   C4D39456  38.156  31.094  22.107 -0.0424  0.4820  0.1371
 1645BOLB   NC139457  21.838  27.174   8.332  0.0391  0.2299 -0.3072
 1645BOLB   PO139458  21.328  27.248   8.367  0.0095 -0.0235  0.1056
 1645BOLB   GL139459  21.421  27.071   8.010  0.2529 -0.0526 -0.0516
 1645BOLB   GL239460  21.653  27.296   7.783 -0.5552  0.0562 -0.0150
 1645BOLB   C1A39461  21.539  26.702   7.816 -0.0312 -0.1752  0.0068
 1645BOLB   C2A39462  21.557  26.403   7.359 -0.0147 -0.3498  0.3035
 1645BOLB   C3A39463  21.470  26.473   7.012 -0.1628 -0.1011 -0.1192
 1645BOLB   C4A39464  21.664  26.534   6.681 -0.2195  0.0937  0.2313
 1645BOLB   C1B39465  21.729  27.040   7.445  0.1483  0.0148  0.2709
 1645BOLB   C2B39466  21.645  26.976   7.061  0.0467  0.0694 -0.2431
 1645BOLB   C3B39467  21.562  27.070   6.710  0.3712  0.1582 -0.1124
 1645BOLB   C4B39468  21.616  26.943   6.353  0.0686 -0.2963  0.1969
 1645BOLB   NC239469  22.460  26.595   8.739 -0.2829 -0.2436  0.1322
 1645BOLB   PO239470  22.101  26.320   8.587 -0.2283 -0.0566  0.4325
 1645BOLB   GL339471  22.438  26.413   8.235 -0.0287 -0.2871  0.0239
 1645BOLB   GL439472  22.622  26.719   8.254 -0.0000  0.2007  0.2662
 1645BOLB   C1C39473  22.490  26.536   7.682  0.0603 -0.0482  0.0828
 1645BOLB   C2C39474  22.647  26.413   7.291  0.1627 -0.3609 -0.1868
 1645BOLB   C3C39475  22.564  26.452   6.811 -0.2184 -0.2348 -0.0831
 1645BOLB   C4C39476  22.172  26.501   6.625  0.1043 -0.0663  0.1143
 1645BOLB   C1D39477  22.983  26.666   8.071  0.3981  0.0913 -0.6595
 1645BOLB   C2D39478  23.300  27.073   7.869  0.0753 -0.0227 -0.2312
 1645BOLB   C3D39479  23.661  27.198   7.603 -0.0437 -0.0188  0.0864
 1645BOLB   C4D39480  23.791  27.147   7.185 -0.0899  0.0516  0.0156
 1646BOLB   NC139481  26.114  29.014  13.834 -0.2401  0.0654  0.2140
 1646BOLB   PO139482  26.046  28.848  13.474 -0.2094  0.0822 -0.0827
 1646BOLB   GL139483  26.358  29.146  13.174  0.0816 -0.4070 -0.1743
 1646BOLB   GL239484  26.544  28.911  13.049  0.2071  0.2041 -0.3105
 1646BOLB   C1A39485  26.325  29.240  12.675  0.0728 -0.2064 -0.0478
 1646BOLB   C2A39486  25.979  29.359  12.286 -0.1531  0.3034  0.1246
 1646BOLB   C3A39487  25.847  29.097  11.899  0.1462  0.1281  0.2480
 1646BOLB   C4A39488  25.714  28.711  11.718  0.0447  0.0916 -0.2567
 1646BOLB   C1B39489  26.615  28.812  12.547  0.1541 -0.0924  0.1406
 1646BOLB   C2B39490  26.714  28.572  12.083  0.0006 -0.0543  0.2172
 1646BOLB   C3B39491  26.581  28.386  11.768  0.0961 -0.5692  0.0523
 1646BOLB   C4B39492  26.658  28.412  11.315 -0.3637  0.2428 -0.3935
 1646BOLB   NC239493  24.779  28.579   9.747 -0.1000 -0.0631  0.0803
 1646BOLB   PO239494  24.662  28.290  10.043  0.0040  0.0820 -0.2369
 1646BOLB   GL339495  24.791  28.205  10.476 -0.4833  0.1013  0.0625
 1646BOLB   GL439496  24.616  27.904  10.697  0.2994 -0.1928  0.0463
 1646BOLB   C1C39497  25.218  28.009  10.663  0.1811 -0.2854  0.1575
 1646BOLB   C2C39498  25.226  27.975  10.984 -0.1869  0.1939  0.0027
 1646BOLB   C3C39499  25.249  28.284  11.290 -0.0170 -0.2373 -0.0908
 1646BOLB   C4C39500  25.366  28.648  11.403 -0.3234  0.0782  0.0959
 1646BOLB   C1D39501  24.817  28.221  10.993 -0.2635  0.1774 -0.1796
 1646BOLB   C2D39502  24.687  27.963  11.347 -0.0718  0.1893  0.1726
 1646BOLB   C3D39503  24.738  27.936  11.801 -0.1535  0.1452 -0.1536
 1646BOLB   C4D39504  24.865  27.692  12.237 -0.0407  0.0732  0.1314
 1647BOLB   NC139505  33.227  35.741  21.366  0.0324 -0.2867  0.0716
 1647BOLB   PO139506  33.479  35.913  21.111 -0.0417 -0.4562  0.3610
 1647BOLB   GL139507  33.692  36.291  21.089  0.1265 -0.3014 -0.3442
 1647BOLB   GL239508  33.660  36.335  21.366 -0.0826  0.0561 -0.0721
 1647BOLB   C1A39509  34.084  36.440  21.004  0.0823 -0.0131  0.4017
 1647BOLB   C2A39510  34.411  36.481  21.145  0.0361  0.3007 -0.1353
 1647BOLB   C3A39511  34.645  36.875  21.079 -0.0745 -0.2126 -0.0108
 1647BOLB   C4A39512  34.648  37.209  20.848  0.0883 -0.2007  0.0267
 1647BOLB   C1B39513  33.926  36.718  21.452 -0.2938 -0.0420 -0.0831
 1647BOLB   C2B39514  34.001  36.983  21.793  0.2710 -0.3463 -0.3141
 1647BOLB   C3B39515  33.992  37.260  22.116  0.2862 -0.0289  0.0056
 1647BOLB   C4B39516  34.067  37.004  22.576 -0.0736  0.2953 -0.2318
 1647BOLB   NC239517  36.619  38.821  21.016 -0.2916  0.1180  0.3913
 1647BOLB   PO239518  36.598  39.096  20.685 -0.0076  0.3490 -0.1253
 1647BOLB   GL339519  36.180  38.666  20.758  0.0615 -0.0952 -0.3814
 1647BOLB   GL439520  36.205  38.533  20.472 -0.2231  0.1035 -0.2796
 1647BOLB   C1C39521  35.932  38.365  21.080 -0.0390 -0.1574 -0.1294
 1647BOLB   C2C39522  35.594  38.121  20.884  0.1181  0.2383 -0.1033
 1647BOLB   C3C39523  35.201  37.882  20.703 -0.2071  0.3393 -0.2277
 1647BOLB   C4C39524  34.823  37.672  20.733  0.3461  0.1102  0.0852
 1647BOLB   C1D39525  36.006  38.193  20.597 -0.4422 -0.0384 -0.2660
 1647BOLB   C2D39526  36.124  37.838  20.786 -0.1435  0.2816 -0.0748
 1647BOLB   C3D39527  36.464  37.602  20.637 -0.0088  0.4432  0.1739
 1647BOLB   C4D39528  36.673  37.214  20.417  0.1320 -0.0484 -0.0190
 1648BOLB   NC139529  34.799  26.089  20.610  0.1804  0.1541 -0.1444
 1648BOLB   PO139530  34.816  26.279  20.159  0.0683  0.0224 -0.3305
 1648BOLB   GL139531  35.147  26.357  19.906 -0.1798 -0.1463 -0.0193
 1648BOLB   GL239532  35.146  26.322  19.663 -0.2606 -0.1829 -0.1065
 1648BOLB   C1A39533  35.647  26.406  19.977  0.0079  0.2811  0.0007
 1648BOLB   C2A39534  36.021  26.256  19.965  0.0303  0.0062 -0.0703
 1648BOLB   C3A39535  36.266  26.030  20.199 -0.2365 -0.2131  0.1234
 1648BOLB   C4A39536  36.484  25.646  20.185 -0.1557 -0.0706  0.0047
 1648BOLB   C1B39537  35.495  26.137  19.563 -0.1473 -0.2215  0.1869
 1648BOLB   C2B39538  35.594  25.876  19.292 -0.1242  0.2931  0.0745
 1648BOLB   C3B39539  35.882  25.694  18.943  0.0850 -0.0573  0.0648
 1648BOLB   C4B39540  35.967  25.392  18.547  0.2100  0.0768 -0.0485
 1648BOLB   NC239541  39.028  24.624  19.635  0.0368  0.3174 -0.1604
 1648BOLB   PO239542  38.459  24.740  19.705 -0.2627 -0.1319  0.1010
 1648BOLB   GL339543  38.138  24.650  19.591  0.2682  0.2585 -0.2880
 1648BOLB   GL439544  38.067  24.588  19.269 -0.0017  0.0041  0.0843
 1648BOLB   C1C39545  37.707  24.739  19.617 -0.1315 -0.0567  0.2574
 1648BOLB   C2C39546  37.338  24.931  19.844 -0.1683  0.0506  0.0451
 1648BOLB   C3C39547  36.906  25.141  19.885  0.1849 -0.0439 -0.1152
 1648BOLB   C4C39548  36.716  25.505  19.958 -0.0086  0.0717  0.3630
 1648BOLB   C1D39549  37.747  24.484  19.143 -0.2307  0.0598  0.0219
 1648BOLB   C2D39550  37.316  24.649  19.280 -0.1147  0.0541  0.3543
 1648BOLB   C3D39551  36.946  24.714  19.284 -0.0819  0.1916 -0.0793
 1648BOLB   C4D39552  36.638  24.971  19.092  0.0063  0.0288 -0.1812
 1649BOLB   NC139553  33.179  32.632  26.799  0.1563  0.2128  0.0100
 1649BOLB   PO139554  33.521  32.480   0.173  0.2277 -0.1901 -0.0266
 1649BOLB   GL139555  34.004  32.533   0.347  0.1369 -0.1219  0.0441
 1649BOLB   GL239556  34.122  32.743   0.108  0.3349 -0.3173  0.0465
 1649BOLB   C1A39557  34.403  32.617   0.590  0.1948  0.0914 -0.1333
 1649BOLB   C2A39558  34.662  32.902   0.856 -0.2121 -0.2041  0.0602
 1649BOLB   C3A39559  34.743  33.280   1.030 -0.1046  0.2103 -0.0858
 1649BOLB   C4A39560  34.851  33.443   1.469  0.0317 -0.2619  0.3210
 1649BOLB   C1B39561  34.635  32.929   0.298 -0.3604 -0.2497  0.3229
 1649BOLB   C2B39562  35.125  32.974   0.243 -0.1161 -0.2128  0.1098
 1649BOLB   C3B39563  35.546  33.123   0.088  0.0800  0.0225  0.2628
 1649BOLB   C4B39564  35.942  33.146  26.817  0.1630 -0.0500 -0.1536
 1649BOLB   NC239565  36.607  35.280   2.243  0.4029 -0.5387  0.2993
 1649BOLB   PO239566  36.257  35.170   2.553 -0.2134 -0.1433  0.1811
 1649BOLB   GL339567  35.869  34.847   2.437  0.4294 -0.2454 -0.0019
 1649BOLB   GL439568  35.708  35.084   2.243 -0.1467 -0.2357 -0.0456
 1649BOLB   C1C39569  35.532  34.589   2.191  0.0504  0.1046 -0.2250
 1649BOLB   C2C39570  35.103  34.532   2.018  0.0996  0.2267  0.1461
 1649BOLB   C3C39571  34.825  34.231   1.853  0.1042 -0.0718  0.0512
 1649BOLB   C4C39572  34.647  33.903   1.615  0.0834  0.0909 -0.1196
 1649BOLB   C1D39573  35.693  34.824   1.805 -0.1270  0.2171  0.3210
 1649BOLB   C2D39574  35.498  34.761   1.477 -0.2782 -0.2516  0.1638
 1649BOLB   C3D39575  35.278  34.587   1.057 -0.0941 -0.1380  0.0981
 1649BOLB   C4D39576  35.109  34.107   0.897  0.0978 -0.0292 -0.3721
 1650BOLB   NC139577  30.306  28.473  14.481  0.2754 -0.0226  0.3719
 1650BOLB   PO139578  30.401  27.945  14.380 -0.0301  0.3749  0.3448
 1650BOLB   GL139579  30.469  27.979  13.945  0.2335 -0.0963 -0.1085
 1650BOLB   GL239580  30.554  28.290  13.888  0.1183  0.0273  0.1763
 1650BOLB   C1A39581  30.491  27.801  13.454  0.0455  0.3164  0.0020
 1650BOLB   C2A39582  30.860  27.708  13.386 -0.0481  0.2434 -0.1050
 1650BOLB   C3A39583  30.889  27.394  13.161 -0.0429  0.2896 -0.0738
 1650BOLB   C4A39584  31.028  26.969  13.004 -0.0372 -0.1235 -0.0787
 1650BOLB   C1B39585  30.701  28.224  13.476  0.0255 -0.0146 -0.1919
 1650BOLB   C2B39586  30.566  28.141  13.042 -0.1421 -0.2042  0.0968
 1650BOLB   C3B39587  30.456  28.056  12.751 -0.3904 -0.1557 -0.2385
 1650BOLB   C4B39588  30.371  27.892  12.383 -0.0432 -0.3593  0.1658
 1650BOLB   NC239589  33.003  25.791  11.603  0.1561 -0.0635 -0.0881
 1650BOLB   PO239590  32.749  26.071  11.353  0.0944 -0.0143 -0.1598
 1650BOLB   GL339591  32.405  26.040  11.583  0.0141 -0.2423 -0.1033
 1650BOLB   GL439592  32.433  26.051  11.932  0.1043  0.1242  0.0690
 1650BOLB   C1C39593  31.898  25.982  11.663 -0.1326  0.1502 -0.0106
 1650BOLB   C2C39594  31.619  26.263  11.863  0.1537 -0.1828  0.1953
 1650BOLB   C3C39595  31.320  26.432  12.245  0.2495 -0.2968 -0.1977
 1650BOLB   C4C39596  31.110  26.659  12.696 -0.0439  0.0329  0.5031
 1650BOLB   C1D39597  32.415  25.943  12.433  0.1011 -0.0550  0.1304
 1650BOLB   C2D39598  32.250  26.052  12.916 -0.2667  0.1234  0.1424
 1650BOLB   C3D39599  32.317  25.919  13.185 -0.3283 -0.0129  0.2742
 1650BOLB   C4D39600  32.316  25.419  13.236  0.2879  0.2481 -0.1063
 1651BOLB   NC139601  24.878  23.114   8.898 -0.4589 -0.1991 -0.0455
 1651BOLB   PO139602  24.657  23.367   8.616  0.2166 -0.1921 -0.1514
 1651BOLB   GL139603  24.720  23.611   8.230  0.1355  0.3547  0.3105
 1651BOLB   GL239604  24.962  23.383   8.059  0.0969  0.3928 -0.0795
 1651BOLB   C1A39605  24.652  23.930   7.905 -0.2181  0.2792  0.2338
 1651BOLB   C2A39606  24.545  24.100   7.570  0.1588  0.0792  0.1162
 1651BOLB   C3A39607  24.397  24.341   7.198 -0.1610  0.2495 -0.0113
 1651BOLB   C4A39608  24.108  24.656   7.260 -0.0572 -0.0497 -0.1820
 1651BOLB   C1B39609  25.092  23.276   7.628  0.2752  0.3347 -0.1120
 1651BOLB   C2B39610  25.384  23.317   7.242  0.0885 -0.2399  0.1364
 1651BOLB   C3B39611  25.379  23.450   6.963 -0.1124 -0.3052  0.3654
 1651BOLB   C4B39612  25.644  23.792   6.664 -0.0415 -0.1027  0.2229
 1651BOLB   NC239613  24.068  26.492   8.761  0.2740  0.1108  0.3200
 1651BOLB   PO239614  24.187  26.149   8.677  0.4057 -0.3996 -0.0500
 1651BOLB   GL339615  24.037  25.989   8.329  0.1788 -0.0468  0.2186
 1651BOLB   GL439616  24.117  26.244   8.159 -0.0611  0.0489  0.2087
 1651BOLB   C1C39617  23.967  25.733   7.984 -0.1730 -0.0446  0.0294
 1651BOLB   C2C39618  23.958  25.798   7.465 -0.1624 -0.1735  0.1516
 1651BOLB   C3C39619  24.076  25.501   7.107 -0.1689  0.0276  0.1014
 1651BOLB   C4C39620  23.868  25.033   7.108  0.2533  0.2833 -0.2467
 1651BOLB   C1D39621  24.362  26.651   7.931  0.0008  0.2055 -0.1364
 1651BOLB   C2D39622  24.615  26.872   7.634  0.0728  0.3823 -0.1320
 1651BOLB   C3D39623  25.048  27.068   7.527 -0.0411  0.0216  0.1712
 1651BOLB   C4D39624  25.359  27.205   7.917  0.2631 -0.1259 -0.2552
 1652BOLB   NC139625  29.748  24.644  16.440  0.0405  0.4019 -0.1435
 1652BOLB   PO139626  29.764  24.176  16.167 -0.2012 -0.0350  0.0128
 1652BOLB   GL139627  29.853  24.040  15.751 -0.2505 -0.0006 -0.0816
 1652BOLB   GL239628  29.990  24.191  15.488 -0.3097  0.4991 -0.0208
 1652BOLB   C1A39629  30.058  23.701  15.507 -0.1801  0.1234 -0.0149
 1652BOLB   C2A39630  30.423  23.542  15.327 -0.0606  0.0814 -0.0564
 1652BOLB   C3A39631  30.677  23.127  15.160 -0.0513  0.2233  0.1037
 1652BOLB   C4A39632  30.821  22.718  15.062  0.0454 -0.2094 -0.1501
 1652BOLB   C1B39633  30.171  23.963  15.104  0.0616  0.2080 -0.1086
 1652BOLB   C2B39634  30.464  23.704  14.824 -0.0229  0.0581 -0.0408
 1652BOLB   C3B39635  30.783  23.421  14.771 -0.1965  0.2461  0.4745
 1652BOLB   C4B39636  30.965  22.976  14.673  0.1311  0.0059  0.1150
 1652BOLB   NC239637  31.727  20.755  14.103 -0.1266 -0.0588  0.1241
 1652BOLB   PO239638  31.390  20.895  13.854 -0.0214 -0.2186  0.2251
 1652BOLB   GL339639  31.296  21.251  14.091 -0.0299  0.0923 -0.3132
 1652BOLB   GL439640  31.527  21.545  14.072  0.1966  0.2853 -0.0223
 1652BOLB   C1C39641  31.236  21.470  14.488  0.0547  0.2213 -0.0319
 1652BOLB   C2C39642  31.192  21.760  14.796  0.3732 -0.2984 -0.1336
 1652BOLB   C3C39643  31.197  22.076  15.073  0.2654 -0.2044 -0.0868
 1652BOLB   C4C39644  31.041  22.471  14.855 -0.2995 -0.0780 -0.0807
 1652BOLB   C1D39645  31.818  21.892  14.130  0.0164 -0.2365  0.1509
 1652BOLB   C2D39646  31.915  22.225  14.378  0.2621 -0.2231  0.1962
 1652BOLB   C3D39647  31.974  22.645  14.531 -0.0626 -0.0904  0.1505
 1652BOLB   C4D39648  31.741  23.017  14.698  0.0691  0.0924  0.1093
 1653BOLB   NC139649  29.303  23.185   6.703  0.0811  0.2037 -0.1332
 1653BOLB   PO139650  29.303  23.405   6.344 -0.3355 -0.1919 -0.0390
 1653BOLB   GL139651  29.367  23.140   6.052  0.3758 -0.1348  0.0685
 1653BOLB   GL239652  29.123  23.086   5.896 -0.1001  0.2217 -0.1768
 1653BOLB   C1A39653  29.377  23.418   5.624  0.0236 -0.2252 -0.1668
 1653BOLB   C2A39654  29.237  23.667   5.263 -0.3968 -0.1039  0.0564
 1653BOLB   C3A39655  28.829  23.748   5.084 -0.0464 -0.1413 -0.1137
 1653BOLB   C4A39656  28.603  23.426   5.071  0.0829 -0.1816 -0.0335
 1653BOLB   C1B39657  28.924  23.307   5.572  0.1572  0.1874 -0.2741
 1653BOLB   C2B39658  28.732  23.612   5.564  0.2136 -0.1575  0.1944
 1653BOLB   C3B39659  28.327  23.789   5.623  0.1123  0.1425  0.1197
 1653BOLB   C4B39660  27.976  23.907   5.504  0.2731 -0.1288  0.0483
 1653BOLB   NC239661  29.421  21.611   5.626  0.0493  0.0021  0.2159
 1653BOLB   PO239662  29.576  21.280   5.312 -0.1042  0.0304  0.0251
 1653BOLB   GL339663  29.356  21.578   5.098  0.1849  0.0830 -0.0414
 1653BOLB   GL439664  29.567  21.731   4.847  0.0412 -0.0252 -0.1846
 1653BOLB   C1C39665  29.093  21.931   4.919 -0.1282 -0.1967 -0.2051
 1653BOLB   C2C39666  29.072  22.335   4.927  0.1096 -0.0097  0.2397
 1653BOLB   C3C39667  28.847  22.543   4.959  0.0107  0.0698 -0.0959
 1653BOLB   C4C39668  28.604  22.962   5.040  0.2065  0.0913  0.0788
 1653BOLB   C1D39669  29.199  21.461   4.610 -0.1319  0.0729 -0.1030
 1653BOLB   C2D39670  28.983  21.100   4.345 -0.1849 -0.1231  0.0706
 1653BOLB   C3D39671  28.756  20.752   4.340 -0.1236 -0.0003  0.2953
 1653BOLB   C4D39672  28.302  20.623   4.500 -0.0499 -0.0866  0.1948
 1654BOLB   NC139673  13.552  29.380  25.262  0.0554  0.0931 -0.3188
 1654BOLB   PO139674  13.592  29.230  25.660 -0.0390  0.1275  0.0751
 1654BOLB   GL139675  13.739  28.753  25.754 -0.4538 -0.2621  0.0540
 1654BOLB   GL239676  14.055  28.952  25.785  0.0731 -0.2354 -0.3030
 1654BOLB   C1A39677  13.741  28.422  25.460 -0.2703  0.2926 -0.1337
 1654BOLB   C2A39678  13.890  28.333  25.085 -0.0647 -0.0660 -0.0964
 1654BOLB   C3A39679  14.134  28.061  24.875  0.0937 -0.0462 -0.1352
 1654BOLB   C4A39680  14.339  27.853  24.525  0.2530  0.1051 -0.2619
 1654BOLB   C1B39681  14.503  28.665  25.783 -0.2512 -0.1733  0.1185
 1654BOLB   C2B39682  14.882  28.383  25.636  0.1044  0.0321 -0.0638
 1654BOLB   C3B39683  15.192  28.602  25.489  0.1009 -0.0564  0.2538
 1654BOLB   C4B39684  15.036  29.016  25.253 -0.1797  0.2292 -0.2512
 1654BOLB   NC239685  12.536  27.245  22.600  0.2487 -0.1725  0.0779
 1654BOLB   PO239686  13.082  27.223  22.489  0.1560  0.0634  0.0908
 1654BOLB   GL339687  13.359  27.123  22.750  0.0171 -0.0124 -0.0062
 1654BOLB   GL439688  13.361  26.874  23.031 -0.1700 -0.0138 -0.1172
 1654BOLB   C1C39689  13.754  27.239  23.079 -0.2799 -0.3889 -0.0212
 1654BOLB   C2C39690  13.742  27.287  23.464  0.1802 -0.0754 -0.1188
 1654BOLB   C3C39691  14.080  27.377  23.809  0.0311 -0.0917 -0.2100
 1654BOLB   C4C39692  14.192  27.634  24.151 -0.0731 -0.1439 -0.1477
 1654BOLB   C1D39693  13.766  26.713  23.028 -0.3947  0.1555  0.2964
 1654BOLB   C2D39694  14.323  26.684  23.280  0.1619 -0.2721 -0.0943
 1654BOLB   C3D39695  14.513  26.500  23.650  0.0602  0.1926 -0.2341
 1654BOLB   C4D39696  14.926  26.397  23.861  0.0993  0.3834  0.1715
 1655BOLB   NC139697  35.816  29.965  24.355 -0.1974 -0.2600  0.1355
 1655BOLB   PO139698  35.616  29.594  24.496  0.0104 -0.1509 -0.0052
 1655BOLB   GL139699  35.776  29.794  24.865 -0.0065  0.2294  0.3404
 1655BOLB   GL239700  36.073  29.913  24.754  0.0572  0.1740  0.3861
 1655BOLB   C1A39701  35.970  29.418  25.114  0.1331  0.2566  0.3655
 1655BOLB   C2A39702  36.353  29.119  25.214 -0.2219 -0.2566 -0.2010
 1655BOLB   C3A39703  36.707  29.196  25.518 -0.0241  0.0790 -0.0587
 1655BOLB   C4A39704  37.019  29.326  25.788 -0.1504 -0.1243 -0.2166
 1655BOLB   C1B39705  36.495  29.642  24.818 -0.0090  0.0804 -0.0307
 1655BOLB   C2B39706  36.960  29.624  24.967  0.0455  0.0969  0.1742
 1655BOLB   C3B39707  37.372  29.766  25.004  0.2403  0.1904 -0.1280
 1655BOLB   C4B39708  37.680  29.471  25.192  0.1769  0.2051 -0.0131
 1655BOLB   NC239709  38.511  28.473   1.062  0.0463  0.0547  0.1461
 1655BOLB   PO239710  38.399  28.923   0.997  0.2072  0.0508  0.2831
 1655BOLB   GL339711  38.257  29.021   0.647  0.3893 -0.4420 -0.3783
 1655BOLB   GL439712  37.955  28.806   0.734  0.2902  0.2799 -0.1329
 1655BOLB   C1C39713  38.064  29.081   0.258 -0.0048 -0.0052 -0.1113
 1655BOLB   C2C39714  37.977  29.045  26.803 -0.1296 -0.0007  0.1092
 1655BOLB   C3C39715  37.657  29.145  26.456 -0.1526  0.3271  0.1215
 1655BOLB   C4C39716  37.427  29.263  26.142  0.0879 -0.0350 -0.5661
 1655BOLB   C1D39717  37.955  28.557   0.283  0.2462 -0.1974 -0.2474
 1655BOLB   C2D39718  37.628  28.268   0.226 -0.0206 -0.2071 -0.0796
 1655BOLB   C3D39719  37.417  28.174  26.687  0.1148 -0.2926 -0.2671
 1655BOLB   C4D39720  37.389  27.953  26.305  0.0156  0.0636 -0.2387
 1656BOLB   NC139721  27.829  36.363  26.749  0.1906 -0.0019 -0.1946
 1656BOLB   PO139722  27.530  36.389   0.199  0.1321 -0.3117  0.2802
 1656BOLB   GL139723  27.590  36.666   0.604  0.0704 -0.2653  0.1321
 1656BOLB   GL239724  27.951  36.637   0.759 -0.0019  0.0953 -0.0116
 1656BOLB   C1A39725  27.531  36.979   0.814  0.3893 -0.2595 -0.0826
 1656BOLB   C2A39726  27.326  37.305   0.956  0.1986 -0.1632  0.0553
 1656BOLB   C3A39727  27.207  37.587   1.150  0.0397  0.3957  0.2644
 1656BOLB   C4A39728  27.366  37.909   1.281  0.0947 -0.2872 -0.1306
 1656BOLB   C1B39729  27.964  36.933   1.050  0.1998 -0.1439  0.0464
 1656BOLB   C2B39730  27.927  36.814   1.494  0.1031 -0.0040  0.0404
 1656BOLB   C3B39731  27.858  36.711   1.992 -0.0837  0.1868 -0.0392
 1656BOLB   C4B39732  27.488  36.730   2.227  0.1106  0.3701 -0.0283
 1656BOLB   NC239733  27.884  39.791   2.327  0.0194  0.0034  0.0906
 1656BOLB   PO239734  28.098  39.891   1.942  0.2881  0.0968 -0.0485
 1656BOLB   GL339735  28.196  39.510   1.989  0.1174  0.0592  0.3392
 1656BOLB   GL439736  28.500  39.383   2.149 -0.0828  0.1979 -0.0155
 1656BOLB   C1C39737  28.124  39.019   2.083  0.3658 -0.3101 -0.0887
 1656BOLB   C2C39738  27.969  38.706   1.976  0.1327 -0.2288  0.0381
 1656BOLB   C3C39739  27.673  38.493   1.942  0.1212 -0.1015  0.0040
 1656BOLB   C4C39740  27.347  38.185   1.680 -0.3119  0.4073  0.0881
 1656BOLB   C1D39741  28.471  39.117   1.786 -0.0417 -0.1671  0.0857
 1656BOLB   C2D39742  28.699  38.901   1.624  0.2707 -0.4913 -0.1293
 1656BOLB   C3D39743  29.023  38.895   1.365  0.2719  0.1178 -0.0871
 1656BOLB   C4D39744  29.445  38.712   1.301 -0.0132 -0.0545 -0.1046
 1657BOLB   NC139745  20.498  27.437  17.969 -0.1316  0.1659  0.0165
 1657BOLB   PO139746  20.273  27.675  17.788  0.1466 -0.0154 -0.0521
 1657BOLB   GL139747  19.989  27.451  17.902  0.5549  0.0252  0.0539
 1657BOLB   GL239748  20.117  27.167  17.807  0.1422 -0.1119  0.2897
 1657BOLB   C1A39749  19.680  27.257  18.170  0.1427  0.0494  0.0610
 1657BOLB   C2A39750  19.271  26.971  18.156 -0.2116  0.1177  0.0617
 1657BOLB   C3A39751  18.901  26.762  18.041  0.1766  0.0981 -0.2168
 1657BOLB   C4A39752  18.419  26.689  18.105  0.0064  0.2807 -0.1325
 1657BOLB   C1B39753  19.662  26.986  17.683 -0.0759 -0.0005  0.1492
 1657BOLB   C2B39754  19.280  26.798  17.630  0.0111  0.1351 -0.4442
 1657BOLB   C3B39755  18.973  26.376  17.690  0.1250  0.0854  0.2181
 1657BOLB   C4B39756  18.514  26.224  17.621  0.1384  0.0450 -0.3419
 1657BOLB   NC239757  17.696  25.880  15.705 -0.2503 -0.1144 -0.1703
 1657BOLB   PO239758  17.433  26.327  15.782  0.3993 -0.2119 -0.3171
 1657BOLB   GL339759  17.671  26.293  16.132 -0.0178  0.2666  0.1610
 1657BOLB   GL439760  17.551  25.965  16.202  0.2120  0.2266 -0.0016
 1657BOLB   C1C39761  17.974  26.526  16.374  0.1511  0.1702 -0.1613
 1657BOLB   C2C39762  18.199  26.499  16.883  0.0517  0.2439 -0.0405
 1657BOLB   C3C39763  18.095  26.656  17.351 -0.3907 -0.3134 -0.0629
 1657BOLB   C4C39764  18.384  26.762  17.686 -0.1345 -0.1786  0.1673
 1657BOLB   C1D39765  17.580  25.745  16.509  0.4343 -0.4161  0.2567
 1657BOLB   C2D39766  17.653  25.708  16.927 -0.0325 -0.1735  0.1310
 1657BOLB   C3D39767  17.690  25.737  17.394  0.0415  0.1065 -0.1835
 1657BOLB   C4D39768  17.740  25.797  17.793  0.2245  0.0811 -0.1827
 1658BOLB   NC139769  21.521  29.213  16.807 -0.0108 -0.0723  0.4187
 1658BOLB   PO139770  21.731  29.458  16.379 -0.1649 -0.2484 -0.1131
 1658BOLB   GL139771  21.575  29.800  15.991  0.2823  0.0407 -0.0666
 1658BOLB   GL239772  21.283  29.778  16.035  0.1574 -0.1850  0.3709
 1658BOLB   C1A39773  21.320  29.717  15.534 -0.0264 -0.1742  0.1310
 1658BOLB   C2A39774  21.024  29.937  15.222  0.3376  0.0004 -0.0738
 1658BOLB   C3A39775  20.551  29.812  15.003 -0.2466 -0.4141  0.0940
 1658BOLB   C4A39776  20.185  29.692  14.937 -0.2938  0.0172  0.4401
 1658BOLB   C1B39777  20.956  30.050  15.735 -0.0917  0.0365  0.0761
 1658BOLB   C2B39778  20.603  30.064  15.486  0.0459  0.3625  0.1097
 1658BOLB   C3B39779  20.199  29.993  15.377  0.2151 -0.1335 -0.1425
 1658BOLB   C4B39780  19.742  29.870  15.174  0.0379  0.0005 -0.2507
 1658BOLB   NC239781  19.262  29.728  12.597  0.1610 -0.1787  0.0410
 1658BOLB   PO239782  18.865  29.577  12.752 -0.2583  0.1208 -0.0168
 1658BOLB   GL339783  19.093  29.338  13.051 -0.4587  0.1247 -0.1032
 1658BOLB   GL439784  19.435  29.420  13.027  0.2515 -0.0462  0.0850
 1658BOLB   C1C39785  19.260  29.122  13.526 -0.0869 -0.0172  0.2110
 1658BOLB   C2C39786  19.447  29.311  13.888  0.0089 -0.0734 -0.0228
 1658BOLB   C3C39787  19.609  29.372  14.393  0.1133  0.1929  0.0589
 1658BOLB   C4C39788  19.831  29.658  14.710  0.3209  0.3240 -0.2267
 1658BOLB   C1D39789  19.722  29.325  13.353  0.1683 -0.0408 -0.1190
 1658BOLB   C2D39790  19.982  29.385  13.659 -0.0319 -0.2174  0.3624
 1658BOLB   C3D39791  20.379  29.383  13.946  0.0036  0.0986 -0.0639
 1658BOLB   C4D39792  20.725  29.432  14.191 -0.0336  0.0705  0.2688
 1659BOLB   NC139793  32.984  18.530  23.519 -0.1620 -0.3324 -0.0172
 1659BOLB   PO139794  32.535  18.395  23.504  0.1794 -0.1034  0.0374
 1659BOLB   GL139795  32.442  18.750  23.227 -0.0704 -0.0203 -0.2786
 1659BOLB   GL239796  32.837  18.920  23.199 -0.0897  0.2721 -0.3380
 1659BOLB   C1A39797  32.270  19.176  22.935  0.1229 -0.0775  0.0975
 1659BOLB   C2A39798  32.188  19.614  22.740 -0.0085  0.2363  0.1395
 1659BOLB   C3A39799  32.180  20.045  22.467  0.0944 -0.1140  0.0225
 1659BOLB   C4A39800  32.144  20.168  22.026 -0.1618  0.1287 -0.2368
 1659BOLB   C1B39801  32.627  19.299  23.260 -0.0317  0.3777  0.0130
 1659BOLB   C2B39802  32.406  19.672  23.237 -0.2847  0.0937  0.0177
 1659BOLB   C3B39803  32.415  20.098  23.358  0.0769 -0.1638  0.0659
 1659BOLB   C4B39804  32.255  20.459  23.383  0.1478 -0.0678  0.1143
 1659BOLB   NC239805  33.187  18.199  22.184  0.1026  0.0853 -0.0878
 1659BOLB   PO239806  33.065  18.323  21.753 -0.2476  0.2167  0.0055
 1659BOLB   GL339807  32.895  18.774  21.532  0.1505  0.3349  0.0855
 1659BOLB   GL439808  33.035  18.967  21.620 -0.4049 -0.2986  0.0121
 1659BOLB   C1C39809  32.665  19.121  21.324  0.0780 -0.3112 -0.0827
 1659BOLB   C2C39810  32.472  19.480  21.121  0.0532  0.3379 -0.2426
 1659BOLB   C3C39811  32.347  19.871  21.287  0.0450 -0.0169  0.1106
 1659BOLB   C4C39812  32.190  19.994  21.664 -0.0962 -0.1469 -0.4502
 1659BOLB   C1D39813  33.257  19.209  21.792 -0.1958 -0.0953 -0.2410
 1659BOLB   C2D39814  33.721  19.383  21.816 -0.1258  0.2212 -0.1551
 1659BOLB   C3D39815  33.784  19.740  21.998  0.2190 -0.0624  0.1030
 1659BOLB   C4D39816  33.546  20.080  21.870 -0.0045 -0.0966  0.0567
 1660BOLB   NC139817  24.057  35.349  18.297 -0.1447 -0.5588 -0.0758
 1660BOLB   PO139818  23.744  35.585  18.078 -0.1351 -0.1568 -0.0667
 1660BOLB   GL139819  23.428  35.885  17.763 -0.0424  0.0280  0.0175
 1660BOLB   GL239820  23.328  36.109  18.025  0.0716 -0.3205 -0.0977
 1660BOLB   C1A39821  23.444  36.168  17.474 -0.0147 -0.1010  0.0035
 1660BOLB   C2A39822  23.281  36.362  17.146  0.1526  0.3807 -0.0839
 1660BOLB   C3A39823  23.146  36.378  16.741  0.1883 -0.3054  0.1888
 1660BOLB   C4A39824  22.785  36.320  16.503 -0.0107 -0.0923 -0.1762
 1660BOLB   C1B39825  23.268  36.483  17.891 -0.0893 -0.1210 -0.0550
 1660BOLB   C2B39826  23.217  36.647  17.541 -0.0929  0.0386  0.0227
 1660BOLB   C3B39827  22.990  36.821  17.249 -0.0833  0.1223  0.0282
 1660BOLB   C4B39828  22.796  37.268  17.155 -0.2260 -0.1710  0.0343
 1660BOLB   NC239829  21.760  38.259  14.842 -0.0341  0.0820  0.0234
 1660BOLB   PO239830  21.922  37.772  14.753 -0.1410 -0.2391  0.1403
 1660BOLB   GL339831  22.112  37.552  15.110  0.3713  0.2270 -0.0476
 1660BOLB   GL439832  22.279  37.610  15.440  0.0313 -0.0879  0.3203
 1660BOLB   C1C39833  22.236  37.198  15.113 -0.0879 -0.1879 -0.1152
 1660BOLB   C2C39834  22.162  36.886  15.493 -0.1475 -0.0267  0.1436
 1660BOLB   C3C39835  22.199  36.450  15.815  0.0895 -0.0826 -0.1884
 1660BOLB   C4C39836  22.470  36.437  16.160 -0.3801  0.1837 -0.2121
 1660BOLB   C1D39837  22.452  37.271  15.697 -0.0811  0.2607  0.0414
 1660BOLB   C2D39838  22.520  36.836  15.842 -0.1650  0.1009 -0.1661
 1660BOLB   C3D39839  22.681  36.413  15.595 -0.1834  0.2672 -0.0021
 1660BOLB   C4D39840  23.082  36.405  15.362  0.1957 -0.5225  0.1973
 1661BOLB   NC139841  28.162  23.842  15.625 -0.4277  0.2183  0.0608
 1661BOLB   PO139842  28.536  23.862  15.458 -0.0983  0.0614  0.2589
 1661BOLB   GL139843  28.866  23.779  15.191 -0.0374 -0.1967  0.1823
 1661BOLB   GL239844  29.192  23.570  15.253  0.1189  0.0444 -0.0080
 1661BOLB   C1A39845  28.968  23.605  14.827  0.1047 -0.2385 -0.1893
 1661BOLB   C2A39846  29.090  23.431  14.518  0.0332 -0.1203 -0.2208
 1661BOLB   C3A39847  28.958  23.027  14.418  0.1263 -0.0819 -0.0245
 1661BOLB   C4A39848  29.138  22.738  14.183  0.0613 -0.4097 -0.3330
 1661BOLB   C1B39849  29.337  23.312  14.983  0.0651 -0.2164  0.0029
 1661BOLB   C2B39850  29.317  22.969  14.784  0.0903 -0.1140 -0.2424
 1661BOLB   C3B39851  29.523  22.785  14.546  0.1165 -0.1686 -0.3283
 1661BOLB   C4B39852  29.726  22.582  14.203  0.0863 -0.4506 -0.2007
 1661BOLB   NC239853  30.472  21.319  12.398 -0.2566  0.4679  0.0605
 1661BOLB   PO239854  30.073  21.432  12.651 -0.1219 -0.4467  0.0652
 1661BOLB   GL339855  29.731  21.708  12.738 -0.0307  0.1092 -0.4042
 1661BOLB   GL439856  29.574  21.464  12.845 -0.0584 -0.4880  0.1268
 1661BOLB   C1C39857  29.525  22.113  12.800  0.1042 -0.1254  0.6272
 1661BOLB   C2C39858  29.404  22.256  13.212  0.1896 -0.0998 -0.0273
 1661BOLB   C3C39859  29.384  22.235  13.605  0.1154 -0.1808 -0.1771
 1661BOLB   C4C39860  29.310  22.543  13.923 -0.1358 -0.0459 -0.1054
 1661BOLB   C1D39861  29.303  21.754  13.122 -0.1395 -0.2077 -0.0091
 1661BOLB   C2D39862  29.172  21.638  13.613  0.1418 -0.2005 -0.0023
 1661BOLB   C3D39863  29.072  21.521  14.080  0.1027 -0.0534 -0.1893
 1661BOLB   C4D39864  29.209  21.717  14.523  0.1439  0.0895 -0.0712
 1662BOLB   NC139865  26.589  25.584  15.057  0.1131 -0.0319  0.0250
 1662BOLB   PO139866  26.799  25.470  15.406  0.1892 -0.1895  0.0331
 1662BOLB   GL139867  26.824  25.107  14.993 -0.0996  0.2272 -0.0117
 1662BOLB   GL239868  27.003  25.256  14.815 -0.0911  0.4289  0.2539
 1662BOLB   C1A39869  26.880  24.705  14.808 -0.2207 -0.1927 -0.1257
 1662BOLB   C2A39870  26.790  24.559  14.468 -0.2747  0.2553 -0.1864
 1662BOLB   C3A39871  26.887  24.235  14.142  0.1002  0.2456 -0.2580
 1662BOLB   C4A39872  26.984  24.144  13.679 -0.0642  0.0484  0.1217
 1662BOLB   C1B39873  26.921  25.148  14.334  0.2142  0.1572 -0.0150
 1662BOLB   C2B39874  26.686  24.897  14.069  0.3101  0.0321 -0.1321
 1662BOLB   C3B39875  26.774  24.697  13.663 -0.0546  0.0057  0.0720
 1662BOLB   C4B39876  27.092  24.514  13.333  0.0214  0.2340  0.1448
 1662BOLB   NC239877  26.787  23.086  11.577  0.3081  0.0002  0.0527
 1662BOLB   PO239878  27.043  22.716  11.559  0.0492  0.2921  0.1727
 1662BOLB   GL339879  27.075  22.946  11.976 -0.1014  0.2629 -0.0558
 1662BOLB   GL439880  26.963  22.783  12.199  0.1534 -0.0482  0.0861
 1662BOLB   C1C39881  27.251  23.239  12.387  0.1130  0.1574  0.3130
 1662BOLB   C2C39882  27.240  23.570  12.670 -0.2332  0.3799  0.1812
 1662BOLB   C3C39883  27.069  23.838  12.986 -0.0867  0.0690  0.1340
 1662BOLB   C4C39884  27.110  23.979  13.333 -0.2444 -0.2661 -0.0136
 1662BOLB   C1D39885  26.812  22.874  12.680  0.0244 -0.1548 -0.0620
 1662BOLB   C2D39886  26.833  23.101  13.075  0.0180 -0.0237  0.0731
 1662BOLB   C3D39887  26.993  23.132  13.516  0.1416 -0.1424 -0.0642
 1662BOLB   C4D39888  27.129  23.004  13.918 -0.0365 -0.0166 -0.0615
 1663BOLB   NC139889  27.187  27.646  13.859  0.1356  0.1479 -0.2198
 1663BOLB   PO139890  27.595  27.892  13.838  0.1246 -0.0208  0.2762
 1663BOLB   GL139891  27.409  27.899  13.432 -0.0929 -0.0623  0.2059
 1663BOLB   GL239892  27.540  27.959  13.122 -0.0394  0.0124 -0.2361
 1663BOLB   C1A39893  27.158  27.625  13.182 -0.2022 -0.2087 -0.0828
 1663BOLB   C2A39894  27.160  27.479  12.715 -0.4124  0.2946 -0.3917
 1663BOLB   C3A39895  27.094  27.036  12.619 -0.4022 -0.1038 -0.1648
 1663BOLB   C4A39896  27.148  26.631  12.283 -0.1766  0.0181 -0.3454
 1663BOLB   C1B39897  27.529  27.835  12.575 -0.0631  0.0242 -0.1650
 1663BOLB   C2B39898  27.530  27.681  12.223 -0.2305  0.3545  0.0294
 1663BOLB   C3B39899  27.503  27.749  11.859 -0.0261  0.0740  0.1842
 1663BOLB   C4B39900  27.442  27.465  11.472  0.0667  0.0261  0.0190
 1663BOLB   NC239901  27.009  25.921  10.403 -0.0735  0.2780  0.0005
 1663BOLB   PO239902  27.411  25.916  10.476 -0.1511  0.2728 -0.2207
 1663BOLB   GL339903  27.835  25.887  10.583 -0.0258 -0.1208  0.1171
 1663BOLB   GL439904  28.039  26.187  10.575  0.1231 -0.0006 -0.0168
 1663BOLB   C1C39905  27.926  25.909  10.945  0.2115 -0.2813 -0.1638
 1663BOLB   C2C39906  27.762  26.047  11.270  0.0248  0.2049 -0.0759
 1663BOLB   C3C39907  27.617  26.263  11.623 -0.2251 -0.0263 -0.1552
 1663BOLB   C4C39908  27.400  26.470  12.007  0.0186 -0.0762 -0.0145
 1663BOLB   C1D39909  27.694  26.303  10.883  0.1758 -0.3399 -0.0749
 1663BOLB   C2D39910  27.312  26.060  11.125  0.0558 -0.0787  0.0506
 1663BOLB   C3D39911  26.915  25.927  11.295 -0.0480 -0.0542 -0.3325
 1663BOLB   C4D39912  26.674  25.865  11.662  0.1428  0.1409  0.2437
 1664BOLB   NC139913  29.366  29.410  13.865 -0.1789 -0.2958 -0.0728
 1664BOLB   PO139914  28.983  29.406  13.695  0.1068 -0.1114  0.0874
 1664BOLB   GL139915  29.173  29.577  13.340 -0.3539 -0.1050 -0.2165
 1664BOLB   GL239916  29.550  29.650  13.405 -0.1438  0.0979  0.3893
 1664BOLB   C1A39917  29.396  29.500  12.943  0.2187 -0.0570  0.0464
 1664BOLB   C2A39918  29.602  29.652  12.516 -0.1554 -0.0767 -0.1136
 1664BOLB   C3A39919  29.797  29.932  12.207 -0.1378  0.0605 -0.2131
 1664BOLB   C4A39920  29.694  29.967  11.831 -0.0902  0.0496 -0.2319
 1664BOLB   C1B39921  29.719  29.912  12.960 -0.0925  0.0236  0.0571
 1664BOLB   C2B39922  29.873  30.254  12.712  0.0669  0.2411 -0.1058
 1664BOLB   C3B39923  30.338  30.293  12.528 -0.0634  0.2071 -0.1340
 1664BOLB   C4B39924  30.346  30.086  12.150 -0.2685 -0.3583  0.0810
 1664BOLB   NC239925  29.106  29.028   9.232 -0.1211 -0.0773 -0.1422
 1664BOLB   PO239926  29.273  29.360   9.544 -0.0453 -0.0718 -0.0737
 1664BOLB   GL339927  29.244  29.299  10.047 -0.1096  0.0804  0.2920
 1664BOLB   GL439928  29.348  29.073  10.183 -0.2535 -0.0609 -0.3750
 1664BOLB   C1C39929  29.543  29.475  10.308  0.2222 -0.2858 -0.2619
 1664BOLB   C2C39930  29.416  29.542  10.723 -0.0858 -0.3904 -0.2106
 1664BOLB   C3C39931  29.416  29.630  11.149  0.2432  0.2700  0.0209
 1664BOLB   C4C39932  29.528  29.969  11.392 -0.1803  0.1876 -0.4006
 1664BOLB   C1D39933  28.852  29.000  10.229  0.0162  0.1980 -0.0243
 1664BOLB   C2D39934  28.679  28.976  10.558  0.2830  0.0657 -0.1888
 1664BOLB   C3D39935  28.357  28.917  10.899 -0.0473  0.0464 -0.0243
 1664BOLB   C4D39936  28.375  28.832  11.320  0.0926 -0.2237  0.0857
 1665BOLB   NC139937  26.377  35.188  16.311 -0.2173  0.0276 -0.0514
 1665BOLB   PO139938  26.386  35.247  15.810  0.2589 -0.1139  0.0582
 1665BOLB   GL139939  26.160  35.372  15.525 -0.0335  0.3613  0.1874
 1665BOLB   GL239940  26.398  35.511  15.370 -0.0607  0.0562 -0.1346
 1665BOLB   C1A39941  25.918  35.502  15.103 -0.2817 -0.1054  0.0325
 1665BOLB   C2A39942  25.864  35.705  14.721  0.3419  0.2310 -0.3827
 1665BOLB   C3A39943  25.726  35.967  14.461  0.1924  0.1478 -0.1153
 1665BOLB   C4A39944  25.314  36.225  14.262  0.0349 -0.0555  0.0565
 1665BOLB   C1B39945  26.269  35.812  15.005 -0.1251  0.6499 -0.3625
 1665BOLB   C2B39946  26.228  35.908  14.504 -0.0631 -0.2432 -0.0324
 1665BOLB   C3B39947  26.055  35.878  14.035 -0.2270 -0.1391 -0.1221
 1665BOLB   C4B39948  26.156  35.928  13.608  0.3265 -0.1546  0.0252
 1665BOLB   NC239949  25.491  37.628  12.516  0.0271 -0.2601 -0.0075
 1665BOLB   PO239950  25.130  37.765  12.753 -0.2842  0.0937  0.0562
 1665BOLB   GL339951  25.003  37.368  12.865 -0.1716  0.1167 -0.2055
 1665BOLB   GL439952  25.252  37.218  12.778  0.1947 -0.0731  0.0828
 1665BOLB   C1C39953  24.829  37.059  13.083  0.0870  0.0776 -0.1283
 1665BOLB   C2C39954  25.020  36.794  13.309 -0.0313 -0.2869 -0.2128
 1665BOLB   C3C39955  25.015  36.689  13.656  0.0258 -0.4599  0.0740
 1665BOLB   C4C39956  25.187  36.501  13.962 -0.3149 -0.0098  0.1113
 1665BOLB   C1D39957  25.453  36.958  13.136 -0.2269 -0.0028 -0.1002
 1665BOLB   C2D39958  25.442  36.541  13.372 -0.2933 -0.1722  0.1712
 1665BOLB   C3D39959  25.205  36.160  13.645 -0.2909  0.1530  0.0608
 1665BOLB   C4D39960  24.996  36.000  13.957  0.0494  0.1278  0.1110
 1666BOLB   NC139961  23.931  29.953  13.904  0.2738  0.1645 -0.0811
 1666BOLB   PO139962  23.978  29.483  13.771 -0.1367  0.1645  0.1121
 1666BOLB   GL139963  23.584  29.540  13.557  0.2496 -0.0837 -0.1053
 1666BOLB   GL239964  23.538  29.945  13.465  0.2176  0.0549 -0.0804
 1666BOLB   C1A39965  23.137  29.529  13.544  0.0595  0.1030 -0.2144
 1666BOLB   C2A39966  22.859  29.557  13.122  0.1948  0.0670  0.2419
 1666BOLB   C3A39967  22.687  29.861  12.859 -0.0195  0.1341  0.1235
 1666BOLB   C4A39968  22.465  30.203  12.861  0.0279  0.4380  0.2636
 1666BOLB   C1B39969  23.190  29.955  13.189  0.0509  0.0746 -0.2705
 1666BOLB   C2B39970  23.128  30.207  12.817  0.1463  0.1372  0.2071
 1666BOLB   C3B39971  22.828  30.170  12.479 -0.0121 -0.2176 -0.0089
 1666BOLB   C4B39972  23.150  30.075  12.127  0.0369  0.0900 -0.1365
 1666BOLB   NC239973  20.233  31.172  11.361  0.0174  0.1638 -0.2447
 1666BOLB   PO239974  20.544  30.720  11.455  0.1144  0.0638 -0.1363
 1666BOLB   GL339975  20.717  30.703  11.824  0.0397 -0.0586 -0.2178
 1666BOLB   GL439976  20.370  30.566  12.061 -0.1211 -0.0091  0.1922
 1666BOLB   C1C39977  21.174  30.632  11.936 -0.0028 -0.0593 -0.0444
 1666BOLB   C2C39978  21.547  30.419  12.167 -0.0043  0.2787 -0.5530
 1666BOLB   C3C39979  21.899  30.165  12.307  0.2319 -0.1151  0.0775
 1666BOLB   C4C39980  22.071  30.136  12.720  0.2788  0.1256 -0.1401
 1666BOLB   C1D39981  20.467  30.106  12.235 -0.4309 -0.0940 -0.0047
 1666BOLB   C2D39982  20.261  30.064  12.659 -0.1032  0.2375 -0.1194
 1666BOLB   C3D39983  20.094  30.334  12.952 -0.0287  0.0635  0.2239
 1666BOLB   C4D39984  20.312  30.657  13.187  0.3656 -0.0512 -0.3291
 1667BOLB   NC139985  23.196  23.884  17.763 -0.3644 -0.1004  0.0608
 1667BOLB   PO139986  22.899  24.076  17.501  0.1367 -0.1528 -0.2544
 1667BOLB   GL139987  22.690  23.913  17.174 -0.0152 -0.2309 -0.1639
 1667BOLB   GL239988  22.896  23.828  16.890  0.1865 -0.0323 -0.4465
 1667BOLB   C1A39989  22.354  23.603  17.032 -0.1022 -0.1369 -0.0963
 1667BOLB   C2A39990  22.245  23.213  16.884  0.1318 -0.2013  0.3324
 1667BOLB   C3A39991  22.258  22.800  16.862  0.0895  0.1702  0.1001
 1667BOLB   C4A39992  22.197  22.445  16.913 -0.1680  0.4270  0.1501
 1667BOLB   C1B39993  22.699  23.748  16.584 -0.1107  0.0790 -0.1953
 1667BOLB   C2B39994  22.290  23.581  16.410  0.0244  0.2855  0.1839
 1667BOLB   C3B39995  22.033  23.218  16.339 -0.1175  0.2206  0.2075
 1667BOLB   C4B39996  21.758  22.851  16.361 -0.0709 -0.2259 -0.0282
 1667BOLB   NC239997  22.922  20.339  15.516 -0.2440  0.2689  0.1318
 1667BOLB   PO239998  22.533  20.408  15.388  0.2329 -0.3235 -0.0989
 1667BOLB   GL339999  22.347  20.648  15.559 -0.1693  0.0302  0.2984
 1667BOLB   GL440000  22.341  20.923  15.309  0.3743  0.0233 -0.0310
 1667BOLB   C1C40001  22.330  20.974  15.869 -0.0427 -0.1026  0.1072
 1667BOLB   C2C40002  22.183  21.352  16.145 -0.0028 -0.0777  0.2065
 1667BOLB   C3C40003  22.109  21.554  16.570 -0.0518 -0.1035  0.1876
 1667BOLB   C4C40004  22.082  21.985  16.759 -0.0122  0.0673 -0.2644
 1667BOLB   C1D40005  22.519  21.280  15.412  0.1538  0.0239 -0.2101
 1667BOLB   C2D40006  22.545  21.437  15.799  0.0608 -0.4430 -0.0269
 1667BOLB   C3D40007  22.830  21.703  15.902 -0.1624  0.2792 -0.3066
 1667BOLB   C4D40008  22.966  22.101  15.890  0.0140  0.1859  0.2810
 1668BOLB   NC140009  39.356  29.314  25.403  0.0183 -0.3163  0.2036
 1668BOLB   PO140010  39.315  28.896  25.720 -0.1408  0.3631  0.3222
 1668BOLB   GL140011  38.934  28.997  25.613 -0.0002  0.0530 -0.1772
 1668BOLB   GL240012  38.866  29.239  25.723 -0.1678 -0.1213 -0.2852
 1668BOLB   C1A40013  38.600  28.948  25.301 -0.1038 -0.3890 -0.2497
 1668BOLB   C2A40014  38.166  29.076  25.013  0.0219  0.1214 -0.0602
 1668BOLB   C3A40015  37.733  28.972  25.033  0.3603  0.1711  0.0085
 1668BOLB   C4A40016  37.354  28.816  25.130 -0.2591  0.0454  0.1759
 1668BOLB   C1B40017  38.369  29.239  25.674  0.4468  0.1122  0.0888
 1668BOLB   C2B40018  37.825  29.092  25.535 -0.0602  0.0118  0.2761
 1668BOLB   C3B40019  37.407  29.082  25.611 -0.1244 -0.1693  0.1312
 1668BOLB   C4B40020  37.156  29.258  25.233 -0.2005 -0.1787  0.3605
 1668BOLB   NC240021  38.495  28.249   0.106  0.0816  0.1421 -0.1747
 1668BOLB   PO240022  38.496  27.855   0.149 -0.0396 -0.3200  0.1789
 1668BOLB   GL340023  38.301  28.028  26.641  0.1526 -0.4973 -0.3594
 1668BOLB   GL440024  38.443  27.929  26.385 -0.2936 -0.3224  0.0011
 1668BOLB   C1C40025  37.900  27.994  26.375 -0.1302 -0.1517 -0.0503
 1668BOLB   C2C40026  37.812  27.863  25.951  0.0373 -0.0903 -0.3117
 1668BOLB   C3C40027  37.541  27.896  25.568  0.4420 -0.1537 -0.0713
 1668BOLB   C4C40028  37.298  28.321  25.221 -0.2232 -0.1529  0.1464
 1668BOLB   C1D40029  38.284  27.969  25.982 -0.0948  0.1458 -0.1500
 1668BOLB   C2D40030  38.369  28.299  25.659  0.1242  0.0283  0.0993
 1668BOLB   C3D40031  38.495  28.200  25.161 -0.3125  0.2088  0.0278
 1668BOLB   C4D40032  38.337  28.206  24.673  0.0761 -0.0456 -0.1472
 1669BOLB   NC140033  25.542  34.155  15.412  0.0661  0.2891  0.1961
 1669BOLB   PO140034  25.593  33.905  15.129  0.2671 -0.1047  0.0485
 1669BOLB   GL140035  25.518  34.182  14.765 -0.1222 -0.0927 -0.0384
 1669BOLB   GL240036  25.561  34.463  14.868  0.3106 -0.1562  0.2530
 1669BOLB   C1A40037  25.599  34.290  14.293  0.1557 -0.3306  0.2160
 1669BOLB   C2A40038  25.439  34.561  13.983 -0.3416 -0.2680 -0.0871
 1669BOLB   C3A40039  25.308  34.785  13.679 -0.0814 -0.1289 -0.2215
 1669BOLB   C4A40040  25.126  34.929  13.233  0.2962 -0.1590 -0.3348
 1669BOLB   C1B40041  25.266  34.681  14.552  0.0565  0.1662 -0.0354
 1669BOLB   C2B40042  25.138  34.862  14.228  0.0964  0.0287 -0.0821
 1669BOLB   C3B40043  24.803  35.050  13.940  0.1852  0.4132  0.0561
 1669BOLB   C4B40044  24.396  35.175  13.624  0.0389  0.1803  0.2344
 1669BOLB   NC240045  24.594  36.344  11.405  0.2094  0.0456  0.2572
 1669BOLB   PO240046  24.914  36.530  11.284 -0.1157  0.1163  0.1651
 1669BOLB   GL340047  24.927  36.324  11.731  0.0920 -0.0590 -0.2480
 1669BOLB   GL440048  25.309  36.281  11.730 -0.0927 -0.2809  0.3991
 1669BOLB   C1C40049  24.993  36.043  12.128 -0.2968 -0.1573 -0.0327
 1669BOLB   C2C40050  25.060  35.597  12.121  0.0777 -0.2135  0.0333
 1669BOLB   C3C40051  24.955  35.156  12.348 -0.0924 -0.3082  0.0748
 1669BOLB   C4C40052  24.904  35.153  12.769 -0.0845  0.0367 -0.0324
 1669BOLB   C1D40053  25.210  35.836  11.663  0.1913 -0.1163  0.2665
 1669BOLB   C2D40054  25.197  35.586  11.438  0.0548  0.4951  0.1477
 1669BOLB   C3D40055  25.390  35.149  11.420  0.2647 -0.1913 -0.1502
 1669BOLB   C4D40056  25.604  34.926  11.608  0.2736  0.0778 -0.2344
 1670BOLB   NC140057  24.579  24.271  16.362  0.0019 -0.3546 -0.1072
 1670BOLB   PO140058  24.241  24.667  16.335 -0.0795  0.0999 -0.0245
 1670BOLB   GL140059  23.992  24.530  16.019 -0.1151  0.0848  0.1097
 1670BOLB   GL240060  24.060  24.271  15.921 -0.0549  0.2167 -0.3634
 1670BOLB   C1A40061  23.851  24.558  15.590  0.3080 -0.2734  0.2029
 1670BOLB   C2A40062  23.977  24.622  15.100  0.3073 -0.2039 -0.2529
 1670BOLB   C3A40063  23.699  24.608  14.765 -0.1169  0.3204 -0.2401
 1670BOLB   C4A40064  23.467  24.535  14.430  0.2765 -0.1415 -0.2926
 1670BOLB   C1B40065  23.743  24.071  15.685  0.0183  0.1063 -0.0883
 1670BOLB   C2B40066  23.489  23.815  15.415 -0.1407  0.0994  0.3995
 1670BOLB   C3B40067  23.130  23.745  15.187 -0.0132  0.0994 -0.1424
 1670BOLB   C4B40068  22.949  23.463  15.001  0.2152  0.0438 -0.0580
 1670BOLB   NC240069  22.362  23.535  12.651 -0.3924  0.2270  0.1755
 1670BOLB   PO240070  22.117  23.914  12.653 -0.4248  0.1449  0.0736
 1670BOLB   GL340071  22.393  23.949  12.993 -0.2926  0.1153  0.1442
 1670BOLB   GL440072  22.592  23.966  12.732 -0.0933  0.1700 -0.0070
 1670BOLB   C1C40073  22.353  24.089  13.415 -0.3088  0.2121 -0.1364
 1670BOLB   C2C40074  22.541  24.355  13.740  0.2758  0.0416 -0.1789
 1670BOLB   C3C40075  22.877  24.526  13.999 -0.0714 -0.0706 -0.2191
 1670BOLB   C4C40076  23.246  24.551  14.212 -0.1396 -0.0220  0.2033
 1670BOLB   C1D40077  22.971  24.068  12.966  0.0989 -0.2036 -0.3909
 1670BOLB   C2D40078  23.302  23.992  13.256 -0.2952  0.1697 -0.0681
 1670BOLB   C3D40079  23.602  23.893  13.635  0.2742  0.3101 -0.0752
 1670BOLB   C4D40080  23.898  23.780  13.937 -0.2424 -0.1350 -0.2928
 1671BOLB   NC140081  30.829  25.811  10.322 -0.0728  0.0371 -0.0208
 1671BOLB   PO140082  31.176  25.679  10.647  0.0687  0.0232  0.0222
 1671BOLB   GL140083  31.219  25.897  10.982 -0.2045  0.1195 -0.2291
 1671BOLB   GL240084  31.255  26.223  10.878  0.0578  0.0331 -0.1936
 1671BOLB   C1A40085  31.403  26.099  11.294 -0.2294  0.1009  0.0244
 1671BOLB   C2A40086  31.226  26.033  11.723  0.1759 -0.3105  0.2275
 1671BOLB   C3A40087  30.910  26.122  11.965  0.0425 -0.0247 -0.0348
 1671BOLB   C4A40088  30.473  26.321  12.011 -0.4373 -0.2174  0.1803
 1671BOLB   C1B40089  31.059  26.653  11.026  0.0440 -0.2961 -0.1499
 1671BOLB   C2B40090  30.670  26.800  10.938  0.1585 -0.0853 -0.1777
 1671BOLB   C3B40091  30.378  26.587  11.169  0.1764  0.1243  0.2833
 1671BOLB   C4B40092  30.016  26.274  11.285 -0.0495  0.0984 -0.2867
 1671BOLB   NC240093  29.702  25.482  10.019 -0.2997  0.0713 -0.0079
 1671BOLB   PO240094  29.516  25.746  10.288 -0.2447 -0.1024  0.2742
 1671BOLB   GL340095  29.515  25.963  10.670 -0.2096  0.0781  0.2162
 1671BOLB   GL440096  29.333  25.802  10.874  0.0315 -0.1248 -0.1737
 1671BOLB   C1C40097  29.634  26.301  10.958  0.0933  0.1543 -0.1133
 1671BOLB   C2C40098  29.853  26.745  11.169  0.2010  0.2726  0.0595
 1671BOLB   C3C40099  29.986  26.836  11.513  0.0600  0.0727 -0.1600
 1671BOLB   C4C40100  30.189  26.640  11.810 -0.1653  0.0349 -0.0670
 1671BOLB   C1D40101  29.403  26.097  11.316  0.0720 -0.0154 -0.0366
 1671BOLB   C2D40102  29.199  26.256  11.729 -0.1855 -0.1135  0.0337
 1671BOLB   C3D40103  28.836  26.364  11.957 -0.0674  0.3254 -0.0191
 1671BOLB   C4D40104  28.585  26.015  12.069  0.2296  0.2336 -0.0211
 1672BOLB   NC140105  33.624  30.223  26.016 -0.0303 -0.0712  0.0740
 1672BOLB   PO140106  33.850  29.845  26.211  0.1461 -0.1504  0.2349
 1672BOLB   GL140107  34.307  29.754  26.273 -0.0619 -0.0550  0.0966
 1672BOLB   GL240108  34.403  29.446  26.319 -0.0286  0.0880  0.3319
 1672BOLB   C1A40109  34.722  29.827  26.517 -0.3179 -0.1674  0.0735
 1672BOLB   C2A40110  35.070  29.560  26.544 -0.1133 -0.0825 -0.0145
 1672BOLB   C3A40111  35.425  29.586  26.841  0.0664 -0.1535 -0.3095
 1672BOLB   C4A40112  35.819  29.745   0.044  0.3191  0.0635 -0.2825
 1672BOLB   C1B40113  34.675  29.150  26.548  0.1596 -0.0504  0.0913
 1672BOLB   C2B40114  35.027  29.127  26.758  0.3000  0.1751 -0.2746
 1672BOLB   C3B40115  35.403  29.041   0.010  0.0234  0.3756  0.0915
 1672BOLB   C4B40116  35.799  29.193   0.277 -0.1965  0.1138  0.3785
 1672BOLB   NC240117  38.515  30.156   1.172 -0.2984 -0.0545 -0.0344
 1672BOLB   PO240118  38.113  29.929   1.234 -0.0014 -0.2129  0.0954
 1672BOLB   GL340119  37.790  29.840   0.865 -0.1630  0.1544 -0.0092
 1672BOLB   GL440120  37.883  29.750   0.494 -0.1478 -0.0912  0.1428
 1672BOLB   C1C40121  37.408  29.736   0.646  0.1708 -0.2474 -0.1268
 1672BOLB   C2C40122  37.043  29.625   0.370  0.0228  0.1549 -0.0560
 1672BOLB   C3C40123  36.637  29.620   0.117  0.0143  0.1062 -0.1927
 1672BOLB   C4C40124  36.224  29.842   0.073 -0.2266 -0.1139 -0.2071
 1672BOLB   C1D40125  37.637  29.424   0.324 -0.1156  0.1441 -0.0486
 1672BOLB   C2D40126  37.554  28.985   0.216 -0.0009  0.4425 -0.3571
 1672BOLB   C3D40127  37.399  28.687   0.049 -0.3303  0.1666 -0.1130
 1672BOLB   C4D40128  37.251  28.735  26.594  0.1259 -0.0958 -0.1754
 1673BOLB   NC140129  30.956  19.527   1.298  0.0462  0.0612 -0.1530
 1673BOLB   PO140130  30.714  19.405   0.888 -0.4825 -0.3331 -0.2323
 1673BOLB   GL140131  30.815  19.819   0.832  0.1575  0.2277  0.2413
 1673BOLB   GL240132  30.487  19.913   0.612  0.1013 -0.3980  0.0090
 1673BOLB   C1A40133  30.550  20.199   0.990  0.2486  0.0811 -0.2742
 1673BOLB   C2A40134  30.207  20.427   0.701 -0.1092  0.0975  0.2727
 1673BOLB   C3A40135  30.185  20.672   0.413  0.3078 -0.4024  0.1629
 1673BOLB   C4A40136  30.025  20.957   0.222  0.0669  0.1318  0.2654
 1673BOLB   C1B40137  30.221  19.984   0.208 -0.0228  0.0489 -0.0705
 1673BOLB   C2B40138  29.985  19.901  26.847  0.0275  0.0432 -0.3563
 1673BOLB   C3B40139  29.907  20.250  26.528  0.0313 -0.1287 -0.0383
 1673BOLB   C4B40140  30.009  20.788  26.587  0.1024 -0.2019  0.2228
 1673BOLB   NC240141  29.811  22.758  25.910  0.0761  0.1039 -0.2111
 1673BOLB   PO240142  29.454  22.859  26.012  0.0532  0.2203  0.1197
 1673BOLB   GL340143  29.440  22.650  26.334  0.1356 -0.0982 -0.2328
 1673BOLB   GL440144  29.190  22.421  26.426 -0.0641  0.0766 -0.1678
 1673BOLB   C1C40145  29.521  22.405  26.753 -0.0825  0.0520  0.1673
 1673BOLB   C2C40146  29.698  21.972  26.865  0.0542 -0.2214  0.0395
 1673BOLB   C3C40147  29.814  21.660   0.102 -0.0364  0.0789  0.1947
 1673BOLB   C4C40148  30.083  21.421   0.008 -0.2967 -0.2497  0.0295
 1673BOLB   C1D40149  29.215  22.041  26.714  0.1658  0.3987  0.0072
 1673BOLB   C2D40150  29.292  21.765   0.147  0.0387  0.1761  0.0167
 1673BOLB   C3D40151  29.503  21.583   0.491 -0.0065 -0.2209 -0.1364
 1673BOLB   C4D40152  29.613  21.379   0.882 -0.2881 -0.0637  0.2096
 1674BOLB   NC140153  26.995  28.418   7.798 -0.0699 -0.0627 -0.1156
 1674BOLB   PO140154  26.668  28.497   7.436 -0.2642  0.1763 -0.0950
 1674BOLB   GL140155  26.599  28.457   7.004  0.0491 -0.2523  0.1668
 1674BOLB   GL240156  26.327  28.761   7.059 -0.0078  0.4454 -0.1241
 1674BOLB   C1A40157  26.641  28.555   6.588 -0.0348  0.2604  0.0394
 1674BOLB   C2A40158  26.787  28.499   6.220  0.2111  0.1365 -0.0484
 1674BOLB   C3A40159  26.955  28.071   5.923 -0.2494 -0.0596  0.2383
 1674BOLB   C4A40160  27.279  27.966   5.694  0.1647  0.0384 -0.1081
 1674BOLB   C1B40161  26.070  29.129   6.881  0.0347 -0.3285 -0.3020
 1674BOLB   C2B40162  25.862  29.192   6.425 -0.0247 -0.1857  0.0106
 1674BOLB   C3B40163  26.016  29.368   6.092  0.0209  0.2597 -0.1492
 1674BOLB   C4B40164  25.936  29.486   5.656 -0.1973 -0.0521 -0.1099
 1674BOLB   NC240165  29.214  27.293   6.860 -0.0568 -0.1365 -0.3072
 1674BOLB   PO240166  28.814  27.255   7.029 -0.0937  0.1788 -0.0569
 1674BOLB   GL340167  28.815  27.481   6.556 -0.1322  0.0743 -0.0905
 1674BOLB   GL440168  29.188  27.429   6.390 -0.2095  0.0829  0.2402
 1674BOLB   C1C40169  28.601  27.673   6.149 -0.4156  0.1064  0.1549
 1674BOLB   C2C40170  28.244  27.986   5.851  0.1661 -0.2786 -0.2210
 1674BOLB   C3C40171  27.940  28.068   5.577  0.3274  0.4359 -0.2037
 1674BOLB   C4C40172  27.564  28.190   5.623 -0.0253  0.1767  0.0168
 1674BOLB   C1D40173  29.051  27.423   5.992 -0.0416  0.0715  0.0432
 1674BOLB   C2D40174  28.730  27.584   5.585 -0.0839 -0.1715 -0.1782
 1674BOLB   C3D40175  28.628  27.594   5.205 -0.2124 -0.0589 -0.1875
 1674BOLB   C4D40176  28.590  27.666   4.850  0.2888 -0.0447 -0.4625
 1675BOLB   NC140177  34.022  40.055  25.679 -0.2755  0.0727 -0.0651
 1675BOLB   PO140178  33.790  39.854  25.292 -0.2704  0.1165  0.3418
 1675BOLB   GL140179  33.616  39.653  24.992 -0.1761 -0.3954 -0.2135
 1675BOLB   GL240180  33.812  39.476  24.760  0.1735 -0.0396  0.0698
 1675BOLB   C1A40181  33.252  39.587  24.768  0.1538  0.0709 -0.1545
 1675BOLB   C2A40182  32.937  39.428  24.493  0.2745 -0.0422  0.1025
 1675BOLB   C3A40183  32.573  39.276  24.174  0.3629  0.0379 -0.1433
 1675BOLB   C4A40184  32.214  39.127  24.271  0.0945  0.0403  0.2837
 1675BOLB   C1B40185  33.476  39.164  24.957  0.0650 -0.0943 -0.0110
 1675BOLB   C2B40186  33.065  38.918  24.934  0.2358  0.0542  0.1426
 1675BOLB   C3B40187  32.764  38.945  24.578 -0.3473 -0.3071 -0.3037
 1675BOLB   C4B40188  32.761  38.797  24.071 -0.1072  0.0758 -0.0007
 1675BOLB   NC240189  31.906  36.399  24.068 -0.0936  0.1039 -0.0649
 1675BOLB   PO240190  31.726  36.683  23.840  0.0481  0.0844  0.0596
 1675BOLB   GL340191  31.745  37.138  23.873  0.3954 -0.2870 -0.2231
 1675BOLB   GL440192  31.430  37.315  23.767 -0.4370  0.1928 -0.0634
 1675BOLB   C1C40193  31.937  37.532  24.098 -0.0634 -0.0625 -0.2643
 1675BOLB   C2C40194  32.152  37.877  23.903 -0.3855 -0.0289  0.2614
 1675BOLB   C3C40195  32.324  38.350  24.047  0.0867 -0.0129 -0.0990
 1675BOLB   C4C40196  32.256  38.680  24.206 -0.4010  0.0651 -0.2255
 1675BOLB   C1D40197  31.697  37.693  23.726 -0.1155  0.2213  0.1010
 1675BOLB   C2D40198  31.734  38.186  23.746  0.1479  0.2712 -0.4122
 1675BOLB   C3D40199  31.998  38.627  23.691 -0.2844  0.0258  0.1783
 1675BOLB   C4D40200  32.238  38.856  23.319 -0.0296  0.2476  0.2113
 1676BOLB   NC140201  24.229  34.412   0.578  0.1075  0.0557 -0.1378
 1676BOLB   PO140202  23.920  34.359   0.966 -0.0500  0.2787  0.0376
 1676BOLB   GL140203  23.616  34.169   1.151  0.3031 -0.1163 -0.0237
 1676BOLB   GL240204  23.736  34.280   1.378  0.1524 -0.2653  0.1364
 1676BOLB   C1A40205  23.243  34.317   1.332  0.0618 -0.0631  0.0553
 1676BOLB   C2A40206  22.793  34.366   1.386  0.2063  0.0288  0.1001
 1676BOLB   C3A40207  22.521  34.708   1.711 -0.0204  0.3588  0.1383
 1676BOLB   C4A40208  22.144  34.680   1.941 -0.0417 -0.1787 -0.3016
 1676BOLB   C1B40209  23.565  34.424   1.716  0.1520 -0.2173 -0.2014
 1676BOLB   C2B40210  23.548  34.768   2.006 -0.1148 -0.0070 -0.1804
 1676BOLB   C3B40211  23.371  35.122   2.137 -0.1236 -0.1422 -0.2860
 1676BOLB   C4B40212  23.461  35.217   2.548 -0.1067  0.1373 -0.2072
 1676BOLB   NC240213  21.747  34.770   4.639  0.0932 -0.1221  0.3367
 1676BOLB   PO240214  21.525  34.958   4.247  0.1734  0.0919  0.1520
 1676BOLB   GL340215  21.628  34.938   3.789  0.2335 -0.3555 -0.2705
 1676BOLB   GL440216  21.636  34.640   3.830 -0.0784 -0.4245 -0.0043
 1676BOLB   C1C40217  21.696  35.113   3.359 -0.1267  0.0516 -0.1197
 1676BOLB   C2C40218  21.700  34.829   3.034 -0.0729 -0.0955  0.0352
 1676BOLB   C3C40219  21.737  34.776   2.662  0.0759  0.1801  0.2487
 1676BOLB   C4C40220  22.039  34.785   2.327  0.0683 -0.0642  0.0691
 1676BOLB   C1D40221  21.476  34.604   3.458  0.4281 -0.0028 -0.0463
 1676BOLB   C2D40222  21.389  34.421   3.177  0.1885  0.1011 -0.1172
 1676BOLB   C3D40223  21.406  34.203   2.748 -0.2433 -0.0748  0.2381
 1676BOLB   C4D40224  21.696  34.303   2.498  0.2374  0.1727  0.0500
 1677BOLB   NC140225  26.732  38.109  21.437  0.3923  0.3388 -0.0197
 1677BOLB   PO140226  26.754  38.200  21.929  0.2638 -0.2512  0.2441
 1677BOLB   GL140227  26.639  38.592  21.879 -0.1623 -0.2821  0.0144
 1677BOLB   GL240228  26.639  38.719  21.518 -0.2697 -0.0947  0.0787
 1677BOLB   C1A40229  26.471  39.066  21.829  0.2318 -0.0894 -0.0848
 1677BOLB   C2A40230  26.180  39.255  21.949  0.0420 -0.0257  0.0701
 1677BOLB   C3A40231  26.014  39.499  21.654 -0.1536 -0.0098 -0.0281
 1677BOLB   C4A40232  26.197  39.863  21.284 -0.0281 -0.0561 -0.2595
 1677BOLB   C1B40233  26.704  38.952  21.340 -0.1614 -0.0612  0.2534
 1677BOLB   C2B40234  26.737  39.292  21.488 -0.1829  0.1106  0.0503
 1677BOLB   C3B40235  26.501  39.684  21.688  0.1836 -0.0891  0.1958
 1677BOLB   C4B40236  26.168  39.955  21.825  0.0345 -0.1937  0.0714
 1677BOLB   NC240237  27.042  41.986  21.295  0.0237  0.2222  0.0329
 1677BOLB   PO240238  27.092  41.940  21.768 -0.0330 -0.0218  0.1392
 1677BOLB   GL340239  27.048  41.607  22.013  0.0544  0.0063  0.2858
 1677BOLB   GL440240  26.873  41.564  22.347 -0.1862  0.0214 -0.0901
 1677BOLB   C1C40241  26.963  41.188  22.022  0.2305 -0.1634  0.0968
 1677BOLB   C2C40242  26.882  40.765  21.785  0.0904  0.1528  0.1500
 1677BOLB   C3C40243  26.794  40.542  21.492  0.2010 -0.0117  0.0643
 1677BOLB   C4C40244  26.629  40.112  21.434 -0.1911  0.2282 -0.0016
 1677BOLB   C1D40245  26.990  41.052  22.476 -0.0271 -0.0979 -0.0641
 1677BOLB   C2D40246  27.112  40.645  22.250 -0.2744  0.1453  0.2307
 1677BOLB   C3D40247  27.237  40.353  21.867 -0.2269  0.2114  0.3196
 1677BOLB   C4D40248  27.144  40.205  21.429  0.0503 -0.0641  0.1937
 1678BOLB   NC140249  33.711  32.947  26.039 -0.1251  0.1397  0.0339
 1678BOLB   PO140250  34.032  32.650  26.171 -0.1758  0.1623 -0.1818
 1678BOLB   GL140251  34.171  32.877  26.472 -0.1123 -0.1133 -0.0837
 1678BOLB   GL240252  34.284  33.123  26.268  0.1288 -0.3072 -0.2681
 1678BOLB   C1A40253  34.369  33.130  26.822  0.0420  0.1275  0.0866
 1678BOLB   C2A40254  34.725  33.379   0.098  0.1070 -0.1409  0.0376
 1678BOLB   C3A40255  35.147  33.480   0.116  0.2051  0.0135 -0.1046
 1678BOLB   C4A40256  35.352  33.650   0.373 -0.1277 -0.1049  0.0968
 1678BOLB   C1B40257  34.642  33.256  26.363  0.0217  0.1165 -0.3457
 1678BOLB   C2B40258  35.011  33.352  26.597 -0.1043  0.0089  0.2551
 1678BOLB   C3B40259  35.156  33.764  26.612  0.1186  0.2254  0.1899
 1678BOLB   C4B40260  35.310  34.140  26.779  0.2172  0.1383  0.1796
 1678BOLB   NC240261  36.448  36.030   1.052  0.0491 -0.0636 -0.1179
 1678BOLB   PO240262  36.522  35.594   1.242  0.0153  0.2051  0.3024
 1678BOLB   GL340263  36.282  35.267   1.208  0.3142  0.1153  0.3085
 1678BOLB   GL440264  36.071  35.289   1.558 -0.0143  0.1152  0.0039
 1678BOLB   C1C40265  36.023  35.019   0.919  0.3081 -0.2219 -0.0261
 1678BOLB   C2C40266  36.154  34.533   0.928  0.3221 -0.2670  0.1445
 1678BOLB   C3C40267  36.014  34.181   0.833 -0.1356 -0.0002  0.0452
 1678BOLB   C4C40268  35.664  33.889   0.607 -0.3155 -0.0882  0.2401
 1678BOLB   C1D40269  35.753  35.165   1.345  0.1022  0.1445  0.3815
 1678BOLB   C2D40270  35.241  35.063   1.215  0.1251 -0.0113  0.1099
 1678BOLB   C3D40271  35.032  35.429   1.435 -0.1180  0.1491  0.1156
 1678BOLB   C4D40272  34.921  35.859   1.205 -0.0055 -0.1430 -0.0452
 1679BOLB   NC140273  24.818  16.697  19.149  0.0409 -0.3011  0.0265
 1679BOLB   PO140274  24.864  16.922  18.857 -0.2713 -0.3835  0.0014
 1679BOLB   GL140275  24.678  17.229  18.876 -0.2020  0.2427  0.2636
 1679BOLB   GL240276  24.577  17.271  18.592 -0.3029  0.2304  0.1695
 1679BOLB   C1A40277  24.757  17.526  19.100 -0.2699  0.0066  0.1266
 1679BOLB   C2A40278  24.981  17.787  19.418  0.1694  0.0593 -0.2088
 1679BOLB   C3A40279  25.061  18.094  19.748 -0.4142  0.2913 -0.1728
 1679BOLB   C4A40280  25.131  18.257  20.157 -0.2113 -0.2978 -0.1356
 1679BOLB   C1B40281  24.448  17.721  18.718  0.1227  0.0042 -0.3066
 1679BOLB   C2B40282  24.533  18.010  19.074 -0.0351  0.5345 -0.0026
 1679BOLB   C3B40283  24.550  18.302  19.228  0.1550 -0.0900 -0.0198
 1679BOLB   C4B40284  24.372  18.467  19.603 -0.0573  0.0802 -0.3480
 1679BOLB   NC240285  26.399  16.351  21.515  0.3967 -0.1167  0.0600
 1679BOLB   PO240286  26.654  16.741  21.525 -0.1752  0.2221  0.0632
 1679BOLB   GL340287  26.284  16.945  21.404 -0.2367  0.2347  0.1874
 1679BOLB   GL440288  26.477  17.232  21.152 -0.3348 -0.1171 -0.1156
 1679BOLB   C1C40289  25.944  17.046  21.200  0.0223 -0.0589  0.0987
 1679BOLB   C2C40290  25.612  17.241  20.865 -0.0018  0.0300  0.1658
 1679BOLB   C3C40291  25.236  17.597  20.750  0.1973 -0.2270 -0.0402
 1679BOLB   C4C40292  25.244  18.025  20.567 -0.0969  0.0911 -0.0227
 1679BOLB   C1D40293  26.330  17.537  21.460 -0.1051 -0.2150  0.3348
 1679BOLB   C2D40294  26.203  17.760  21.927  0.0738  0.1177  0.1055
 1679BOLB   C3D40295  25.865  17.879  21.999  0.1934 -0.3637 -0.2665
 1679BOLB   C4D40296  25.493  17.989  22.183  0.1794  0.0140  0.2617
 1680BOLB   NC140297  19.277  31.337  22.610  0.1587  0.1767  0.0445
 1680BOLB   PO140298  19.403  30.933  22.323 -0.0897  0.1140 -0.3205
 1680BOLB   GL140299  18.979  30.883  22.544 -0.0293  0.2765  0.2615
 1680BOLB   GL240300  18.862  30.957  22.308  0.2678 -0.0564  0.0374
 1680BOLB   C1A40301  18.644  30.670  22.743  0.0655  0.0552  0.2488
 1680BOLB   C2A40302  18.307  30.669  22.912  0.0669 -0.1683  0.1404
 1680BOLB   C3A40303  17.915  30.576  22.996  0.1779  0.0001  0.5108
 1680BOLB   C4A40304  17.507  30.713  22.857  0.1302  0.1625  0.4657
 1680BOLB   C1B40305  18.653  30.717  22.124 -0.1281 -0.2724 -0.1996
 1680BOLB   C2B40306  18.271  30.506  21.981 -0.0557 -0.1753 -0.1597
 1680BOLB   C3B40307  18.165  30.159  21.858 -0.1673  0.2804  0.0281
 1680BOLB   C4B40308  17.835  29.995  21.474  0.0262 -0.1583  0.0952
 1680BOLB   NC240309  15.171  31.525  23.773  0.3109 -0.1561  0.0761
 1680BOLB   PO240310  15.646  31.672  23.678  0.1896 -0.0177 -0.1073
 1680BOLB   GL340311  15.965  31.581  23.382  0.0049 -0.0712  0.0341
 1680BOLB   GL440312  16.081  31.801  23.117  0.1300 -0.1265  0.1135
 1680BOLB   C1C40313  16.247  31.315  23.304  0.0566 -0.1500 -0.0963
 1680BOLB   C2C40314  16.487  31.287  22.939 -0.1854  0.0721 -0.1414
 1680BOLB   C3C40315  16.797  31.143  22.725 -0.1264  0.0319  0.4422
 1680BOLB   C4C40316  17.147  30.927  22.554 -0.0136  0.0515  0.0006
 1680BOLB   C1D40317  16.517  31.890  22.940  0.2835 -0.2237  0.2615
 1680BOLB   C2D40318  16.820  31.666  22.825  0.0093  0.0169 -0.1517
 1680BOLB   C3D40319  17.145  31.549  22.540 -0.0177 -0.3962 -0.0072
 1680BOLB   C4D40320  17.521  31.484  22.340 -0.2171  0.1160  0.0333
 1681BOLB   NC140321  20.090  31.649  22.495  0.2741  0.0953  0.0087
 1681BOLB   PO140322  19.791  31.905  22.270  0.1692  0.4523 -0.1466
 1681BOLB   GL140323  19.416  32.162  22.226  0.0649  0.0723  0.0057
 1681BOLB   GL240324  19.534  32.288  21.958  0.0790 -0.1026  0.0012
 1681BOLB   C1A40325  19.099  32.553  22.153  0.0871  0.5010  0.2063
 1681BOLB   C2A40326  18.683  32.742  22.036 -0.1245 -0.0095 -0.3636
 1681BOLB   C3A40327  18.327  32.755  22.298  0.0932  0.3182 -0.1020
 1681BOLB   C4A40328  18.299  32.709  22.682 -0.1626 -0.0570  0.2503
 1681BOLB   C1B40329  19.243  32.492  21.703 -0.3752  0.0420 -0.0064
 1681BOLB   C2B40330  18.816  32.718  21.554 -0.0240  0.3471  0.0454
 1681BOLB   C3B40331  18.472  32.995  21.572 -0.0943  0.1684  0.0391
 1681BOLB   C4B40332  18.472  33.459  21.504 -0.1469 -0.0936 -0.0832
 1681BOLB   NC240333  16.079  33.630  23.011 -0.2818 -0.2073 -0.0629
 1681BOLB   PO240334  16.134  33.521  22.667 -0.1270 -0.4276 -0.1427
 1681BOLB   GL340335  16.460  33.225  22.889  0.0888 -0.0361  0.1301
 1681BOLB   GL440336  16.316  33.003  22.860  0.2600 -0.0557 -0.0527
 1681BOLB   C1C40337  16.849  33.019  22.961  0.1006  0.2313  0.0428
 1681BOLB   C2C40338  17.081  32.746  22.885 -0.3190  0.1024 -0.1415
 1681BOLB   C3C40339  17.472  32.628  22.796 -0.3426  0.2598 -0.0112
 1681BOLB   C4C40340  17.899  32.826  22.906 -0.0045  0.0744 -0.1648
 1681BOLB   C1D40341  16.330  32.732  22.554 -0.2111 -0.1163  0.1679
 1681BOLB   C2D40342  16.541  32.377  22.277  0.1374 -0.0762 -0.0458
 1681BOLB   C3D40343  16.813  32.241  21.889 -0.0801 -0.0866 -0.0976
 1681BOLB   C4D40344  17.030  32.070  21.761 -0.1549  0.1773  0.2299
 1682BOLB   NC140345  20.473  31.345  23.402 -0.0026  0.0479  0.0789
 1682BOLB   PO140346  20.140  31.393  23.476 -0.0832 -0.3365  0.1020
 1682BOLB   GL140347  19.760  31.459  23.625 -0.1820 -0.0638  0.1366
 1682BOLB   GL240348  19.559  31.178  23.607 -0.0331  0.0593  0.1054
 1682BOLB   C1A40349  19.254  31.592  23.670  0.0101 -0.1496 -0.2251
 1682BOLB   C2A40350  18.856  31.601  23.746 -0.3442  0.0450  0.0064
 1682BOLB   C3A40351  18.400  31.529  23.695  0.1178 -0.1169 -0.1001
 1682BOLB   C4A40352  18.045  31.410  23.487 -0.2683 -0.0837 -0.2296
 1682BOLB   C1B40353  19.089  31.111  23.569 -0.1708  0.1557 -0.0159
 1682BOLB   C2B40354  18.744  31.138  23.851 -0.0621  0.3180  0.0232
 1682BOLB   C3B40355  18.473  31.305  24.113  0.0717 -0.2207 -0.3147
 1682BOLB   C4B40356  18.124  31.429  24.118 -0.1577 -0.5188 -0.0429
 1682BOLB   NC240357  15.569  31.655  24.158 -0.0942  0.4868  0.0113
 1682BOLB   PO240358  15.830  32.083  24.248  0.2351 -0.0010 -0.1463
 1682BOLB   GL340359  16.239  31.961  24.128  0.1562  0.0015  0.4582
 1682BOLB   GL440360  16.070  31.631  23.983 -0.0105 -0.0900 -0.2296
 1682BOLB   C1C40361  16.538  31.607  24.082 -0.0687  0.1404 -0.1409
 1682BOLB   C2C40362  16.929  31.577  23.919  0.2723  0.1593  0.3315
 1682BOLB   C3C40363  17.282  31.435  23.498  0.0914 -0.0233 -0.2018
 1682BOLB   C4C40364  17.683  31.547  23.440 -0.1781  0.3006 -0.0357
 1682BOLB   C1D40365  16.107  31.284  23.833 -0.1365  0.0726  0.1374
 1682BOLB   C2D40366  16.022  30.821  24.084  0.0909  0.3257 -0.1084
 1682BOLB   C3D40367  15.901  30.760  24.460 -0.1378 -0.0170  0.0814
 1682BOLB   C4D40368  15.951  30.311  24.599 -0.0005  0.1833 -0.1112
 1683BOLB   NC140369  34.337  34.104  18.495 -0.0143  0.3168 -0.0377
 1683BOLB   PO140370  34.045  34.295  18.296  0.3887  0.0271 -0.1868
 1683BOLB   GL140371  34.454  34.498  18.176 -0.3203  0.2032  0.0607
 1683BOLB   GL240372  34.363  34.841  18.136 -0.1287 -0.0440 -0.4157
 1683BOLB   C1A40373  34.928  34.483  18.064  0.1674  0.0649  0.2990
 1683BOLB   C2A40374  35.246  34.458  17.786 -0.0593  0.1070  0.0843
 1683BOLB   C3A40375  35.598  34.867  17.740 -0.2778  0.2210  0.1773
 1683BOLB   C4A40376  36.094  34.912  17.647 -0.1839 -0.1763 -0.1596
 1683BOLB   C1B40377  34.803  35.107  18.061 -0.1824 -0.2043  0.2048
 1683BOLB   C2B40378  35.218  35.017  18.022  0.0857 -0.3816 -0.2005
 1683BOLB   C3B40379  35.506  35.214  18.092 -0.1493 -0.1711  0.1272
 1683BOLB   C4B40380  35.499  35.663  18.367  0.2387  0.0378  0.0484
 1683BOLB   NC240381  37.729  36.223  16.356  0.3150  0.2406  0.2611
 1683BOLB   PO240382  37.477  35.884  16.375 -0.2616  0.1496 -0.3041
 1683BOLB   GL340383  37.003  35.886  16.312  0.0955  0.3622  0.3970
 1683BOLB   GL440384  36.939  35.582  16.273 -0.1809 -0.2822  0.0174
 1683BOLB   C1C40385  36.745  35.801  16.653  0.3134 -0.1446 -0.1344
 1683BOLB   C2C40386  36.751  35.397  16.868 -0.0721  0.2658 -0.0455
 1683BOLB   C3C40387  36.662  35.090  17.219  0.1929  0.3504  0.5247
 1683BOLB   C4C40388  36.466  34.990  17.492 -0.0370 -0.0388 -0.1974
 1683BOLB   C1D40389  36.903  35.186  16.422 -0.0354 -0.0128 -0.1591
 1683BOLB   C2D40390  36.744  34.828  16.426  0.0271  0.1820  0.3381
 1683BOLB   C3D40391  36.683  34.321  16.490 -0.0241 -0.1935 -0.1827
 1683BOLB   C4D40392  36.581  33.893  16.457  0.1107 -0.1205 -0.2420
 1684BOLB   NC140393  27.777  35.978  16.569  0.1271  0.0077 -0.2498
 1684BOLB   PO140394  27.767  36.344  16.262 -0.0333  0.2646 -0.1028
 1684BOLB   GL140395  27.888  36.760  16.114  0.0067 -0.1137 -0.1113
 1684BOLB   GL240396  27.916  36.946  15.774  0.1577  0.0210 -0.0932
 1684BOLB   C1A40397  28.002  37.326  16.115 -0.2499  0.0814 -0.0362
 1684BOLB   C2A40398  28.007  37.701  15.937  0.0839 -0.3661  0.0790
 1684BOLB   C3A40399  28.039  37.866  15.495 -0.0930 -0.1810  0.2362
 1684BOLB   C4A40400  27.935  38.158  15.201 -0.0740 -0.2385  0.0030
 1684BOLB   C1B40401  28.033  37.363  15.567  0.0705  0.1634  0.0835
 1684BOLB   C2B40402  27.685  37.530  15.463 -0.0375  0.0941  0.1471
 1684BOLB   C3B40403  27.535  38.005  15.546 -0.2357 -0.3367  0.1111
 1684BOLB   C4B40404  27.427  38.265  15.359  0.1643 -0.1200 -0.0034
 1684BOLB   NC240405  29.134  38.985  13.810  0.0665  0.1988  0.2857
 1684BOLB   PO240406  28.895  39.072  13.408  0.0890 -0.1157  0.2147
 1684BOLB   GL340407  28.627  38.927  13.717  0.1624 -0.2570 -0.2393
 1684BOLB   GL440408  28.658  38.954  13.940  0.1990  0.3802 -0.3304
 1684BOLB   C1C40409  28.265  38.641  13.994  0.3755 -0.2195 -0.1896
 1684BOLB   C2C40410  27.920  38.400  14.008 -0.0327 -0.0206  0.1276
 1684BOLB   C3C40411  27.644  38.386  14.352 -0.0971  0.0740  0.1038
 1684BOLB   C4C40412  27.763  38.220  14.736  0.1009  0.0385 -0.1494
 1684BOLB   C1D40413  28.561  39.022  14.289  0.0170  0.4047 -0.1487
 1684BOLB   C2D40414  28.534  38.778  14.667  0.0275  0.0522 -0.0927
 1684BOLB   C3D40415  28.274  38.533  14.875  0.2834 -0.3270  0.0940
 1684BOLB   C4D40416  27.919  38.659  15.032  0.0295  0.0679 -0.0712
 1685BOLB   NC140417  32.388  28.763   1.255 -0.0197  0.1512 -0.2833
 1685BOLB   PO140418  32.530  29.048   1.239 -0.1667  0.1052 -0.3618
 1685BOLB   GL140419  32.731  28.813   1.630 -0.1405 -0.2229  0.2228
 1685BOLB   GL240420  32.715  28.659   1.951 -0.0997 -0.5061 -0.0342
 1685BOLB   C1A40421  33.118  28.791   1.711 -0.0078  0.1178  0.1699
 1685BOLB   C2A40422  33.461  28.745   1.944  0.1503  0.1658  0.2687
 1685BOLB   C3A40423  33.880  28.716   2.182  0.2305  0.0525  0.2078
 1685BOLB   C4A40424  34.336  28.707   2.334 -0.0612 -0.1780  0.1707
 1685BOLB   C1B40425  33.027  28.620   2.179 -0.1850  0.1084 -0.2533
 1685BOLB   C2B40426  33.338  28.462   2.435 -0.1862 -0.2934  0.3329
 1685BOLB   C3B40427  33.501  28.044   2.505 -0.0381  0.1237  0.0311
 1685BOLB   C4B40428  33.927  27.895   2.597 -0.1100  0.1615 -0.0068
 1685BOLB   NC240429  35.990  30.108   4.004 -0.3438  0.0913 -0.2770
 1685BOLB   PO240430  36.307  29.937   3.800  0.1846  0.0911  0.1044
 1685BOLB   GL340431  35.993  29.667   3.570  0.1875  0.5379  0.1644
 1685BOLB   GL440432  36.049  29.684   3.310  0.0766 -0.0874  0.2504
 1685BOLB   C1C40433  35.692  29.340   3.292 -0.3801 -0.0988  0.1307
 1685BOLB   C2C40434  35.425  29.039   2.970  0.0875  0.0829 -0.0318
 1685BOLB   C3C40435  34.863  28.911   2.991  0.1289  0.1988 -0.4398
 1685BOLB   C4C40436  34.731  28.834   2.504  0.1861  0.0702 -0.1910
 1685BOLB   C1D40437  35.732  29.933   3.137  0.0742  0.2753  0.2087
 1685BOLB   C2D40438  35.372  30.034   3.105  0.1360  0.2817  0.3567
 1685BOLB   C3D40439  35.038  29.941   2.881  0.1169  0.1040 -0.4181
 1685BOLB   C4D40440  34.791  30.122   2.605  0.1116 -0.1151  0.1514
 1686BOLB   NC140441  26.865  30.717   7.483  0.1025  0.0375  0.0370
 1686BOLB   PO140442  26.945  31.008   7.169 -0.3922  0.0715 -0.0358
 1686BOLB   GL140443  26.968  30.958   6.707  0.2473 -0.2613 -0.0262
 1686BOLB   GL240444  27.320  30.809   6.759 -0.1179 -0.1749  0.3061
 1686BOLB   C1A40445  27.181  30.643   6.266  0.1694 -0.0265 -0.2319
 1686BOLB   C2A40446  27.595  30.605   6.089  0.0629  0.3608 -0.1989
 1686BOLB   C3A40447  27.821  30.901   5.911 -0.3613  0.1823 -0.1749
 1686BOLB   C4A40448  27.956  31.117   5.610  0.1350  0.1600 -0.0018
 1686BOLB   C1B40449  27.496  30.468   6.611  0.2073  0.1739  0.1124
 1686BOLB   C2B40450  27.554  30.075   6.519  0.0040  0.2502  0.0583
 1686BOLB   C3B40451  27.660  29.693   6.197 -0.0693 -0.2799  0.2211
 1686BOLB   C4B40452  27.462  29.584   5.776 -0.1568 -0.1913  0.4036
 1686BOLB   NC240453  27.500  31.382   2.965 -0.0643 -0.3191 -0.0343
 1686BOLB   PO240454  27.860  31.596   3.060  0.1055  0.0111 -0.1351
 1686BOLB   GL340455  27.921  31.489   3.523  0.1664  0.1597 -0.0189
 1686BOLB   GL440456  28.146  31.704   3.491  0.1965 -0.1615  0.0085
 1686BOLB   C1C40457  27.811  31.489   3.956  0.0091 -0.0372  0.0416
 1686BOLB   C2C40458  27.890  31.334   4.362 -0.3716 -0.2825 -0.2123
 1686BOLB   C3C40459  27.935  31.217   4.753  0.2948 -0.4259 -0.2496
 1686BOLB   C4C40460  27.966  31.095   5.170  0.0532 -0.1540 -0.5325
 1686BOLB   C1D40461  28.125  32.051   3.847 -0.0941 -0.1238 -0.1023
 1686BOLB   C2D40462  27.988  32.290   4.163  0.0107  0.1428  0.0215
 1686BOLB   C3D40463  27.753  32.259   4.608 -0.0403  0.0443  0.0568
 1686BOLB   C4D40464  27.428  31.984   4.860 -0.1169 -0.2348  0.0720
 1687BOLB   NC140465  34.138  33.854  18.024 -0.0547  0.0614 -0.0936
 1687BOLB   PO140466  33.828  33.945  17.771 -0.1980 -0.0924  0.0097
 1687BOLB   GL140467  34.154  34.181  17.539 -0.1497  0.2946  0.0958
 1687BOLB   GL240468  34.466  34.143  17.781 -0.0402 -0.2921 -0.0020
 1687BOLB   C1A40469  34.580  34.242  17.302  0.1481  0.1473 -0.0961
 1687BOLB   C2A40470  34.822  34.590  17.101  0.2571 -0.0415 -0.2398
 1687BOLB   C3A40471  35.230  34.530  16.829 -0.1309 -0.0319  0.4122
 1687BOLB   C4A40472  35.485  34.693  16.533 -0.1474  0.0964 -0.0906
 1687BOLB   C1B40473  34.876  34.172  17.700 -0.2591 -0.1653  0.0113
 1687BOLB   C2B40474  35.131  34.130  17.359 -0.1361 -0.0373  0.0530
 1687BOLB   C3B40475  35.238  33.910  16.938 -0.0623 -0.1396  0.2055
 1687BOLB   C4B40476  35.310  34.155  16.597 -0.1412  0.2943  0.0203
 1687BOLB   NC240477  36.830  36.826  16.463  0.2124  0.1588  0.1220
 1687BOLB   PO240478  36.962  36.751  16.021  0.0908 -0.0768 -0.0039
 1687BOLB   GL340479  36.817  36.333  16.206  0.1870  0.1801  0.3135
 1687BOLB   GL440480  36.835  36.310  16.491  0.0549 -0.1210  0.1593
 1687BOLB   C1C40481  36.460  36.012  16.229  0.5380  0.1060  0.2906
 1687BOLB   C2C40482  36.079  35.714  16.210 -0.1004  0.1650 -0.0980
 1687BOLB   C3C40483  35.899  35.276  16.191 -0.0464 -0.1189 -0.3169
 1687BOLB   C4C40484  35.851  34.806  16.352  0.0183 -0.0371  0.0917
 1687BOLB   C1D40485  36.398  36.182  16.683  0.0577 -0.0906 -0.2496
 1687BOLB   C2D40486  36.187  35.822  16.675 -0.2817  0.3402 -0.0322
 1687BOLB   C3D40487  35.871  35.430  16.789  0.1482  0.0317 -0.0701
 1687BOLB   C4D40488  35.481  35.019  16.865  0.0643 -0.0903  0.0082
 1688BOLB   NC140489  15.070  28.693   3.410  0.0335  0.2021  0.2079
 1688BOLB   PO140490  15.185  28.283   3.466 -0.0833 -0.2390 -0.0895
 1688BOLB   GL140491  15.672  28.224   3.359  0.2164  0.5078  0.2519
 1688BOLB   GL240492  15.811  27.911   3.387 -0.1178  0.1979  0.0088
 1688BOLB   C1A40493  15.944  28.506   3.115  0.1726 -0.1410 -0.2931
 1688BOLB   C2A40494  16.232  28.642   3.051  0.0097 -0.1160  0.1238
 1688BOLB   C3A40495  16.601  28.881   2.955  0.2598 -0.0552 -0.0419
 1688BOLB   C4A40496  16.896  28.956   3.327  0.2853  0.0755 -0.0353
 1688BOLB   C1B40497  15.992  28.022   3.004  0.1469 -0.1638 -0.1288
 1688BOLB   C2B40498  16.079  28.279   2.678 -0.1949  0.2849  0.0019
 1688BOLB   C3B40499  16.296  28.715   2.567 -0.2364  0.0176 -0.0200
 1688BOLB   C4B40500  16.438  29.168   2.505 -0.0091 -0.1789  0.0775
 1688BOLB   NC240501  16.655  29.295   5.427 -0.0003 -0.2125 -0.1948
 1688BOLB   PO240502  16.981  29.207   5.094  0.1273 -0.0069  0.0789
 1688BOLB   GL340503  17.080  28.919   4.842 -0.1518  0.0456  0.2299
 1688BOLB   GL440504  17.304  29.092   4.714  0.5190 -0.1594 -0.2291
 1688BOLB   C1C40505  16.890  28.682   4.602  0.0116  0.2390  0.0527
 1688BOLB   C2C40506  17.003  28.360   4.280  0.0650  0.0771  0.0672
 1688BOLB   C3C40507  17.245  28.489   3.991 -0.1209  0.0748  0.3515
 1688BOLB   C4C40508  17.092  28.726   3.614 -0.0638 -0.0048  0.0363
 1688BOLB   C1D40509  17.744  29.172   4.544  0.1459 -0.1957 -0.0744
 1688BOLB   C2D40510  18.063  29.013   4.457 -0.1055  0.0024 -0.1054
 1688BOLB   C3D40511  18.416  28.824   4.313 -0.0890 -0.1772 -0.0437
 1688BOLB   C4D40512  18.607  28.510   4.108  0.1499  0.2197 -0.4205
 1689BOLB   NC140513  28.857  33.070  14.178 -0.0485  0.0764 -0.1050
 1689BOLB   PO140514  28.408  33.132  14.310 -0.0300  0.0965 -0.1565
 1689BOLB   GL140515  28.407  32.994  13.900  0.0844  0.0110 -0.0233
 1689BOLB   GL240516  28.119  33.298  13.641  0.1894 -0.1603 -0.2151
 1689BOLB   C1A40517  28.573  33.041  13.511 -0.0590 -0.3028 -0.0798
 1689BOLB   C2A40518  28.697  33.159  13.087  0.1733  0.3116 -0.0306
 1689BOLB   C3A40519  28.667  33.172  12.579 -0.2241 -0.0546  0.1444
 1689BOLB   C4A40520  28.934  33.203  12.317 -0.0206 -0.1821 -0.0198
 1689BOLB   C1B40521  27.865  33.642  13.442  0.1672 -0.3377 -0.1019
 1689BOLB   C2B40522  27.856  33.482  13.014  0.1246 -0.1136 -0.1983
 1689BOLB   C3B40523  27.606  33.432  12.626  0.0566  0.2414 -0.1926
 1689BOLB   C4B40524  27.397  33.482  12.226  0.1315  0.1503  0.2687
 1689BOLB   NC240525  30.682  33.339  10.587 -0.1720 -0.0724 -0.2973
 1689BOLB   PO240526  30.317  33.101  10.489 -0.3724 -0.5993 -0.0149
 1689BOLB   GL340527  30.422  32.940  10.875  0.3183 -0.1459  0.2303
 1689BOLB   GL440528  30.642  33.106  11.062 -0.0227  0.4784 -0.0534
 1689BOLB   C1C40529  29.983  32.897  11.224 -0.2210  0.2906 -0.0132
 1689BOLB   C2C40530  29.793  32.953  11.536 -0.0116  0.0558 -0.2950
 1689BOLB   C3C40531  29.548  32.813  11.849  0.1864 -0.0903  0.0544
 1689BOLB   C4C40532  29.039  32.923  12.006 -0.3462  0.1443  0.1066
 1689BOLB   C1D40533  30.453  32.794  11.500  0.3292 -0.0567  0.1060
 1689BOLB   C2D40534  30.166  32.524  11.645 -0.1354 -0.0131 -0.0980
 1689BOLB   C3D40535  30.061  32.828  12.002  0.1990  0.0697  0.0884
 1689BOLB   C4D40536  29.930  33.052  12.296 -0.0691  0.1691 -0.1077
 1690BOLB   NC140537  30.789  23.312  18.840  0.0737  0.3721  0.2988
 1690BOLB   PO140538  30.597  22.870  18.749  0.0123 -0.0449  0.0195
 1690BOLB   GL140539  30.957  22.600  18.832 -0.0555  0.0814  0.0155
 1690BOLB   GL240540  30.943  22.429  19.202  0.0932 -0.0406  0.0007
 1690BOLB   C1A40541  31.154  22.322  18.717  0.1750  0.1717  0.0193
 1690BOLB   C2A40542  31.314  21.976  18.527  0.0912 -0.0425 -0.0846
 1690BOLB   C3A40543  31.552  21.607  18.540 -0.0004 -0.0988 -0.2619
 1690BOLB   C4A40544  31.703  21.278  18.283 -0.0358  0.1204  0.1311
 1690BOLB   C1B40545  30.747  22.130  19.097  0.0505  0.0055 -0.2705
 1690BOLB   C2B40546  30.831  21.768  18.928 -0.1375 -0.2541 -0.2333
 1690BOLB   C3B40547  30.867  21.447  18.685  0.1269 -0.0941  0.2486
 1690BOLB   C4B40548  31.118  21.227  18.475 -0.1703 -0.1910  0.0838
 1690BOLB   NC240549  31.905  18.824  16.624  0.4455 -0.0313 -0.1425
 1690BOLB   PO240550  31.793  19.265  16.794  0.1941 -0.2327 -0.3468
 1690BOLB   GL340551  31.628  19.631  17.008  0.0688 -0.0228  0.0471
 1690BOLB   GL440552  31.485  19.706  16.671 -0.1743 -0.1221 -0.1041
 1690BOLB   C1C40553  31.486  19.965  17.273  0.0227  0.1536  0.2436
 1690BOLB   C2C40554  31.521  20.157  17.611 -0.1767  0.0707  0.0341
 1690BOLB   C3C40555  31.449  20.536  17.911 -0.1611  0.1596  0.2040
 1690BOLB   C4C40556  31.563  20.861  18.075 -0.2323  0.2121 -0.1457
 1690BOLB   C1D40557  31.093  19.818  16.787 -0.0037  0.2207  0.1200
 1690BOLB   C2D40558  31.114  20.199  17.098  0.2161  0.3833 -0.3355
 1690BOLB   C3D40559  30.880  20.557  17.168 -0.0322 -0.0202  0.5574
 1690BOLB   C4D40560  30.547  20.671  17.478 -0.0673 -0.2747  0.1083
 1691BOLB   NC140561  33.968  33.279  18.260 -0.4450 -0.2378  0.2278
 1691BOLB   PO140562  33.999  33.379  17.855 -0.0091  0.0724  0.2942
 1691BOLB   GL140563  34.476  33.507  17.839  0.1153 -0.2868  0.0483
 1691BOLB   GL240564  34.727  33.459  18.030  0.1906 -0.2244 -0.1417
 1691BOLB   C1A40565  34.899  33.648  17.580  0.0869  0.0951  0.1631
 1691BOLB   C2A40566  35.342  33.611  17.384 -0.1126 -0.0157 -0.0750
 1691BOLB   C3A40567  35.655  33.891  17.321  0.1844  0.1060 -0.1772
 1691BOLB   C4A40568  35.684  34.287  17.070  0.0233  0.1597  0.0864
 1691BOLB   C1B40569  35.094  33.783  18.074  0.2679  0.0368 -0.0622
 1691BOLB   C2B40570  35.394  33.963  17.827  0.1101  0.3616  0.0916
 1691BOLB   C3B40571  35.664  34.215  17.842  0.0525 -0.1638  0.1457
 1691BOLB   C4B40572  35.831  34.471  17.487  0.0837  0.0698  0.1316
 1691BOLB   NC240573  37.115  35.588  15.256  0.0395  0.1902 -0.0634
 1691BOLB   PO240574  37.251  36.005  15.419  0.0179  0.0097 -0.0500
 1691BOLB   GL340575  37.033  35.555  15.753  0.0317 -0.0449  0.1369
 1691BOLB   GL440576  37.187  35.287  15.741  0.2441  0.0919  0.1962
 1691BOLB   C1C40577  36.563  35.522  16.009  0.0945 -0.1458 -0.0097
 1691BOLB   C2C40578  36.381  35.424  16.541  0.0177 -0.4617 -0.0776
 1691BOLB   C3C40579  36.215  35.044  16.725 -0.0298  0.1358  0.2676
 1691BOLB   C4C40580  35.855  34.673  16.839  0.1099 -0.2220 -0.0719
 1691BOLB   C1D40581  37.131  34.977  16.023  0.1149  0.2681  0.1587
 1691BOLB   C2D40582  36.990  34.561  16.097  0.1603  0.1472 -0.1383
 1691BOLB   C3D40583  37.082  34.175  16.181  0.0455 -0.3564  0.0352
 1691BOLB   C4D40584  36.844  33.906  15.991  0.2537 -0.2698 -0.1794
 1692BOLB   NC140585  34.262  34.947  21.554  0.1094  0.0169 -0.4432
 1692BOLB   PO140586  34.245  35.056  21.930  0.0294 -0.1434  0.1366
 1692BOLB   GL140587  34.628  35.101  22.223 -0.1252 -0.2867 -0.2300
 1692BOLB   GL240588  34.550  34.881  22.540 -0.0843 -0.0051  0.0104
 1692BOLB   C1A40589  35.083  35.263  22.195  0.0101  0.1969  0.2149
 1692BOLB   C2A40590  35.491  35.372  22.152 -0.1287 -0.0128 -0.0873
 1692BOLB   C3A40591  35.787  35.608  22.061  0.1145  0.0248  0.0659
 1692BOLB   C4A40592  36.192  35.669  22.067 -0.2641  0.2120 -0.0474
 1692BOLB   C1B40593  34.870  35.221  22.641 -0.0634 -0.1520  0.0804
 1692BOLB   C2B40594  35.232  35.501  22.590 -0.2646  0.2611  0.0031
 1692BOLB   C3B40595  35.685  35.657  22.553  0.0675 -0.1668  0.0320
 1692BOLB   C4B40596  35.986  35.928  22.518  0.5819 -0.2361 -0.2237
 1692BOLB   NC240597  37.247  37.316  23.806 -0.1913  0.3529  0.3469
 1692BOLB   PO240598  37.635  37.027  23.675  0.5303 -0.1573  0.1317
 1692BOLB   GL340599  37.315  36.881  23.396  0.1194  0.1610  0.2010
 1692BOLB   GL440600  37.354  36.595  23.331  0.0243  0.0581  0.1943
 1692BOLB   C1C40601  36.935  36.733  23.103  0.3536  0.1103  0.1888
 1692BOLB   C2C40602  36.743  36.277  23.106  0.0542 -0.3419 -0.1341
 1692BOLB   C3C40603  36.614  36.084  22.801  0.0337 -0.0514 -0.3707
 1692BOLB   C4C40604  36.486  35.873  22.467  0.1810  0.0926  0.1027
 1692BOLB   C1D40605  37.176  36.306  22.877 -0.0027 -0.1206 -0.2861
 1692BOLB   C2D40606  36.996  35.945  22.423  0.3959  0.0804  0.2658
 1692BOLB   C3D40607  36.853  35.459  22.418  0.0006  0.0601 -0.0302
 1692BOLB   C4D40608  36.540  35.298  22.119  0.0093 -0.1631 -0.0060
 1693BOLB   NC140609  25.773  37.432  22.485 -0.0640 -0.2439 -0.1775
 1693BOLB   PO140610  25.647  37.632  22.780  0.0466 -0.0988  0.3138
 1693BOLB   GL140611  25.601  38.061  22.944  0.1410  0.0456  0.3271
 1693BOLB   GL240612  25.385  38.150  23.281 -0.0086  0.0493  0.0392
 1693BOLB   C1A40613  25.509  38.465  22.821 -0.0355  0.0685  0.2405
 1693BOLB   C2A40614  25.294  38.766  23.008 -0.2044 -0.1565  0.0089
 1693BOLB   C3A40615  25.238  39.003  23.312  0.3135  0.0371 -0.2995
 1693BOLB   C4A40616  24.797  39.208  23.356 -0.0626 -0.0002  0.3061
 1693BOLB   C1B40617  25.287  38.515  23.416  0.1609  0.0935 -0.0288
 1693BOLB   C2B40618  25.155  38.716  23.801 -0.0752 -0.1721 -0.0499
 1693BOLB   C3B40619  25.295  39.026  23.917  0.2029  0.0783 -0.0274
 1693BOLB   C4B40620  25.203  39.426  23.938 -0.2699 -0.0494 -0.2324
 1693BOLB   NC240621  24.663  41.129  23.966  0.1986  0.1829 -0.0829
 1693BOLB   PO240622  24.255  41.202  24.246 -0.2224  0.0739 -0.3472
 1693BOLB   GL340623  24.021  40.843  24.006  0.3461 -0.3213  0.4263
 1693BOLB   GL440624  23.800  40.591  23.782 -0.1343 -0.0639 -0.2899
 1693BOLB   C1C40625  24.049  40.345  24.133 -0.3904 -0.1363 -0.0360
 1693BOLB   C2C40626  24.348  40.075  23.953 -0.1807 -0.2191 -0.1291
 1693BOLB   C3C40627  24.557  39.825  23.685  0.0421  0.3672 -0.0971
 1693BOLB   C4C40628  24.528  39.471  23.497 -0.1655 -0.1014  0.0885
 1693BOLB   C1D40629  24.071  40.233  23.598  0.1200  0.0886  0.0700
 1693BOLB   C2D40630  24.131  39.798  23.435  0.2622 -0.0266 -0.1302
 1693BOLB   C3D40631  24.263  39.743  23.045  0.1330 -0.1098 -0.1151
 1693BOLB   C4D40632  24.226  39.527  22.631 -0.1301 -0.1051  0.1029
 1694BOLB   NC140633  20.808  27.923  16.326  0.1015 -0.2079  0.1131
 1694BOLB   PO140634  21.182  27.998  16.159  0.0690 -0.1580  0.1655
 1694BOLB   GL140635  20.800  27.882  15.856 -0.3395  0.2071  0.1189
 1694BOLB   GL240636  20.600  27.630  15.973  0.0388 -0.1568 -0.0938
 1694BOLB   C1A40637  20.386  28.074  15.802  0.2516 -0.0491  0.3197
 1694BOLB   C2A40638  19.926  28.037  15.794  0.0580  0.3204 -0.0937
 1694BOLB   C3A40639  19.397  28.155  15.837  0.2931  0.0979  0.0815
 1694BOLB   C4A40640  19.177  28.006  16.174 -0.1338  0.1247  0.2231
 1694BOLB   C1B40641  20.508  27.696  15.500 -0.0981 -0.1890 -0.2069
 1694BOLB   C2B40642  20.538  27.939  15.315  0.0627  0.2414  0.1024
 1694BOLB   C3B40643  20.377  28.094  14.978  0.2428  0.0695 -0.2070
 1694BOLB   C4B40644  20.007  28.179  14.785 -0.0696  0.1183  0.0977
 1694BOLB   NC240645  17.475  26.816  14.163  0.0485 -0.3253  0.3352
 1694BOLB   PO240646  17.628  26.944  14.518 -0.0198 -0.2350 -0.1284
 1694BOLB   GL340647  17.877  26.995  14.851 -0.1468  0.2946  0.0311
 1694BOLB   GL440648  18.189  27.165  14.745  0.1875 -0.0016 -0.0487
 1694BOLB   C1C40649  18.200  27.143  15.252  0.3050  0.2307  0.1126
 1694BOLB   C2C40650  18.473  27.524  15.305 -0.1233 -0.1340  0.0808
 1694BOLB   C3C40651  18.735  27.494  15.738 -0.0550  0.1400  0.0139
 1694BOLB   C4C40652  18.914  27.612  16.092 -0.0399  0.0632  0.4251
 1694BOLB   C1D40653  18.553  26.804  14.840  0.0839 -0.1360 -0.0370
 1694BOLB   C2D40654  18.939  26.711  15.008 -0.1227  0.1418  0.0250
 1694BOLB   C3D40655  19.205  26.356  15.293 -0.0066  0.0736  0.0464
 1694BOLB   C4D40656  19.394  25.943  15.360 -0.0605 -0.1387 -0.2818
 1695BOLB   NC140657  26.049  22.496  18.967  0.1180  0.0043  0.0495
 1695BOLB   PO140658  26.273  22.059  18.867  0.1023  0.0322 -0.0007
 1695BOLB   GL140659  26.205  21.657  18.698  0.1683  0.1657  0.3478
 1695BOLB   GL240660  26.016  21.504  18.455  0.1307  0.0280 -0.0198
 1695BOLB   C1A40661  26.436  21.297  18.424 -0.1381 -0.0432  0.0888
 1695BOLB   C2A40662  26.421  21.012  18.032 -0.1186  0.0638  0.1759
 1695BOLB   C3A40663  26.362  20.630  17.727 -0.0643  0.1582  0.1480
 1695BOLB   C4A40664  26.275  20.242  17.590 -0.0397 -0.0732 -0.1839
 1695BOLB   C1B40665  26.068  21.297  18.095  0.0743 -0.2411  0.0442
 1695BOLB   C2B40666  26.048  21.298  17.669 -0.0240  0.0779  0.2444
 1695BOLB   C3B40667  25.788  21.328  17.353 -0.0974 -0.0037  0.1390
 1695BOLB   C4B40668  25.432  21.288  17.123  0.1164 -0.0090 -0.2355
 1695BOLB   NC240669  26.333  19.488  15.040  0.0550  0.2667  0.3571
 1695BOLB   PO240670  26.477  19.089  15.279 -0.2271  0.0086  0.1702
 1695BOLB   GL340671  26.580  19.310  15.551 -0.1535  0.1031 -0.3141
 1695BOLB   GL440672  26.785  19.510  15.390 -0.0435  0.0602 -0.1726
 1695BOLB   C1C40673  26.396  19.354  15.974  0.1937  0.2011 -0.0794
 1695BOLB   C2C40674  26.385  19.588  16.407  0.2305  0.1676 -0.1871
 1695BOLB   C3C40675  26.373  19.695  16.827  0.0783  0.0829 -0.1920
 1695BOLB   C4C40676  26.304  19.959  17.207  0.2618 -0.3846  0.0518
 1695BOLB   C1D40677  26.705  19.853  15.739 -0.1314 -0.0180  0.0567
 1695BOLB   C2D40678  26.421  20.171  15.807 -0.1216  0.0360  0.0819
 1695BOLB   C3D40679  26.350  20.448  16.159  0.0084  0.2552  0.0209
 1695BOLB   C4D40680  26.226  20.686  16.562 -0.2454  0.0794  0.0722
 1696BOLB   NC140681  14.140  24.664   1.066 -0.0659 -0.1090 -0.3116
 1696BOLB   PO140682  14.467  24.875   0.780  0.1205  0.2140  0.1760
 1696BOLB   GL140683  14.707  25.362   0.750 -0.1167  0.2621  0.1233
 1696BOLB   GL240684  14.407  25.597   0.623  0.0924  0.1022  0.0032
 1696BOLB   C1A40685  14.942  25.697   0.742  0.5296 -0.1080  0.0693
 1696BOLB   C2A40686  15.175  26.023   0.910 -0.1846  0.0728 -0.1094
 1696BOLB   C3A40687  15.438  26.338   1.022 -0.0801 -0.5669  0.2962
 1696BOLB   C4A40688  15.691  26.705   0.815  0.2643  0.0304 -0.1283
 1696BOLB   C1B40689  14.720  25.600   0.338 -0.0220  0.1564  0.1467
 1696BOLB   C2B40690  15.168  25.546   0.112 -0.0205 -0.0029  0.0127
 1696BOLB   C3B40691  15.506  25.205   0.151  0.0248  0.4212 -0.0207
 1696BOLB   C4B40692  15.740  25.086  26.818  0.0202  0.0505  0.3242
 1696BOLB   NC240693  13.799  27.944   1.482  0.2522  0.0923  0.2993
 1696BOLB   PO240694  13.963  27.582   1.265 -0.1314  0.0227 -0.0061
 1696BOLB   GL340695  14.257  27.465   0.881 -0.0088  0.0313 -0.0931
 1696BOLB   GL440696  14.234  27.184   0.839  0.0358 -0.0789 -0.0671
 1696BOLB   C1C40697  14.692  27.460   0.774  0.0905  0.1051 -0.0319
 1696BOLB   C2C40698  15.056  27.552   0.673 -0.1810  0.0594 -0.0030
 1696BOLB   C3C40699  15.522  27.462   0.569 -0.0692  0.3512  0.1046
 1696BOLB   C4C40700  15.750  27.135   0.756  0.0962  0.0207 -0.0432
 1696BOLB   C1D40701  14.614  26.945   0.660 -0.1640 -0.2752 -0.2235
 1696BOLB   C2D40702  14.981  27.044   0.641 -0.0891 -0.1530  0.1497
 1696BOLB   C3D40703  15.341  26.998   0.490 -0.0448 -0.1804  0.2825
 1696BOLB   C4D40704  15.798  26.818   0.288  0.0771 -0.1012 -0.3418
 1697BOLB   NC140705  32.788  30.033   1.293 -0.3133  0.5076 -0.0219
 1697BOLB   PO140706  32.567  29.995   1.727 -0.5545 -0.0759 -0.0054
 1697BOLB   GL140707  32.958  29.789   1.781  0.3297  0.0732 -0.2345
 1697BOLB   GL240708  32.825  29.748   2.101 -0.3252 -0.0549  0.2729
 1697BOLB   C1A40709  33.320  29.674   1.885 -0.2106  0.0311  0.3595
 1697BOLB   C2A40710  33.559  29.938   2.172  0.1331  0.1704  0.3238
 1697BOLB   C3A40711  33.944  29.923   2.330 -0.1625  0.1095  0.4016
 1697BOLB   C4A40712  34.313  29.898   2.269 -0.1881 -0.0913 -0.3328
 1697BOLB   C1B40713  32.888  30.002   2.384 -0.3618  0.0455 -0.1613
 1697BOLB   C2B40714  33.007  30.041   2.806 -0.4298  0.1758 -0.0492
 1697BOLB   C3B40715  33.237  30.179   3.008  0.1146 -0.0495  0.0593
 1697BOLB   C4B40716  33.480  30.509   3.213 -0.0505 -0.2128 -0.1869
 1697BOLB   NC240717  37.010  30.567   2.817 -0.1440 -0.2047  0.0582
 1697BOLB   PO240718  36.634  30.216   2.752 -0.3435 -0.0686 -0.0918
 1697BOLB   GL340719  36.265  30.146   2.796 -0.1922  0.1495  0.0283
 1697BOLB   GL440720  36.111  30.433   2.714  0.1004  0.2264  0.0804
 1697BOLB   C1C40721  35.859  29.946   2.552  0.0617  0.0734 -0.0323
 1697BOLB   C2C40722  35.388  29.822   2.436 -0.2690  0.0778  0.0890
 1697BOLB   C3C40723  34.987  29.731   2.319  0.2921 -0.2325  0.2912
 1697BOLB   C4C40724  34.675  29.817   2.037  0.6471 -0.2379 -0.0958
 1697BOLB   C1D40725  35.844  30.737   2.690 -0.0547 -0.0432 -0.0725
 1697BOLB   C2D40726  35.674  30.890   2.263 -0.3079 -0.0622 -0.0437
 1697BOLB   C3D40727  35.357  30.977   2.041 -0.1388 -0.1273 -0.2114
 1697BOLB   C4D40728  35.333  31.309   1.818  0.3282  0.0069 -0.0719
 1698BOLB   NC140729  32.704  24.303  24.664  0.0039  0.0845 -0.2914
 1698BOLB   PO140730  33.010  24.413  24.996  0.0244  0.1273  0.0666
 1698BOLB   GL140731  33.340  24.018  25.122  0.0807 -0.3901 -0.0913
 1698BOLB   GL240732  33.712  24.122  25.138  0.0400 -0.2520  0.0543
 1698BOLB   C1A40733  33.580  23.620  25.153  0.0192 -0.0086 -0.3442
 1698BOLB   C2A40734  33.703  23.184  25.042  0.2184  0.1630 -0.2057
 1698BOLB   C3A40735  33.848  22.790  24.840  0.0262  0.0925  0.1774
 1698BOLB   C4A40736  33.952  22.358  24.772 -0.3094  0.2891  0.0352
 1698BOLB   C1B40737  33.986  23.851  25.261  0.0631  0.1831  0.1048
 1698BOLB   C2B40738  34.175  23.429  25.545 -0.1532 -0.0233  0.4608
 1698BOLB   C3B40739  34.077  23.065  25.878  0.4974 -0.0467 -0.2849
 1698BOLB   C4B40740  34.435  22.853  26.099  0.0547 -0.2128  0.1994
 1698BOLB   NC240741  36.568  21.470  24.371 -0.0042  0.1296 -0.0429
 1698BOLB   PO240742  36.112  21.295  24.199  0.2257  0.0266 -0.1936
 1698BOLB   GL340743  35.772  21.513  24.337  0.1442 -0.2925  0.0416
 1698BOLB   GL440744  35.782  21.829  24.370  0.0009 -0.2580 -0.3913
 1698BOLB   C1C40745  35.391  21.650  24.061 -0.1673  0.1445  0.3374
 1698BOLB   C2C40746  35.028  21.762  24.208 -0.1156  0.2582  0.1457
 1698BOLB   C3C40747  34.653  22.017  24.342  0.2455 -0.0340 -0.3731
 1698BOLB   C4C40748  34.342  22.233  24.529 -0.2207 -0.2616  0.1069
 1698BOLB   C1D40749  35.389  21.992  24.403 -0.0121 -0.4192  0.1913
 1698BOLB   C2D40750  35.065  22.212  24.105 -0.1392  0.0384  0.0194
 1698BOLB   C3D40751  35.112  22.428  23.710  0.1829 -0.0063 -0.0888
 1698BOLB   C4D40752  34.872  22.576  23.358 -0.2184  0.1612 -0.0491
 1699BOLB   NC140753  32.061  35.319  16.826  0.5128 -0.0963  0.0163
 1699BOLB   PO140754  32.138  35.452  17.254 -0.1273 -0.0570  0.2821
 1699BOLB   GL140755  32.484  35.491  17.046 -0.3117 -0.0125 -0.0733
 1699BOLB   GL240756  32.343  35.663  16.694  0.1942 -0.0556  0.1614
 1699BOLB   C1A40757  32.769  35.752  16.897  0.0314  0.0520 -0.0249
 1699BOLB   C2A40758  33.106  35.915  16.728 -0.1696 -0.3425 -0.0165
 1699BOLB   C3A40759  33.335  36.289  16.822 -0.1645  0.0240 -0.0329
 1699BOLB   C4A40760  33.771  36.329  16.692  0.1077  0.2372  0.1809
 1699BOLB   C1B40761  32.496  35.846  16.313 -0.3002 -0.0514  0.3352
 1699BOLB   C2B40762  32.554  36.188  16.072 -0.2228  0.4387 -0.3171
 1699BOLB   C3B40763  32.496  36.551  15.972  0.0685  0.0501  0.0959
 1699BOLB   C4B40764  32.520  36.934  15.760 -0.0805  0.0232  0.0317
 1699BOLB   NC240765  34.447  38.615  15.224  0.2687 -0.0156  0.0016
 1699BOLB   PO240766  34.380  38.535  15.638  0.2312  0.1315  0.2478
 1699BOLB   GL340767  34.334  38.147  15.777  0.1371  0.3269  0.2241
 1699BOLB   GL440768  34.482  38.160  16.029  0.2050 -0.0424 -0.0986
 1699BOLB   C1C40769  34.181  37.666  15.893 -0.1806 -0.1033 -0.1101
 1699BOLB   C2C40770  34.278  37.434  16.262  0.0024 -0.2008 -0.0503
 1699BOLB   C3C40771  34.250  37.063  16.445 -0.0108  0.0419 -0.1367
 1699BOLB   C4C40772  34.014  36.692  16.508  0.2165 -0.1762  0.2936
 1699BOLB   C1D40773  34.412  37.892  16.399 -0.3934  0.0902  0.0076
 1699BOLB   C2D40774  34.395  37.930  16.782 -0.3554 -0.1852  0.4174
 1699BOLB   C3D40775  34.614  38.094  17.207 -0.1184  0.1438 -0.0369
 1699BOLB   C4D40776  34.839  38.337  17.475  0.2623  0.1994  0.2566
 1700BOLB   NC140777  32.093  29.627   1.636 -0.0383  0.2343  0.1962
 1700BOLB   PO140778  32.273  29.608   2.032  0.1334  0.1213  0.0606
 1700BOLB   GL140779  32.319  29.625   2.402 -0.1994  0.0027  0.1524
 1700BOLB   GL240780  32.157  29.554   2.811  0.1049 -0.0754  0.4349
 1700BOLB   C1A40781  32.634  29.662   2.693  0.2777 -0.1642  0.0870
 1700BOLB   C2A40782  33.053  29.589   2.988 -0.0435  0.0606  0.1030
 1700BOLB   C3A40783  33.185  29.680   3.395  0.0066  0.0076  0.1306
 1700BOLB   C4A40784  33.164  29.456   3.750 -0.0521 -0.0713  0.1350
 1700BOLB   C1B40785  32.333  29.296   3.135  0.1133  0.1877  0.0738
 1700BOLB   C2B40786  32.638  29.143   3.462  0.1211 -0.2266  0.4536
 1700BOLB   C3B40787  32.869  28.904   3.668  0.1034 -0.1644 -0.1789
 1700BOLB   C4B40788  32.634  28.781   4.046  0.2775 -0.0690 -0.0006
 1700BOLB   NC240789  34.503  29.940   5.809 -0.0047  0.0391  0.0680
 1700BOLB   PO240790  34.219  30.134   5.561 -0.1842  0.1185 -0.1249
 1700BOLB   GL340791  33.997  29.960   5.178 -0.2368  0.1966  0.2348
 1700BOLB   GL440792  34.293  29.931   4.969  0.2193 -0.1333  0.3335
 1700BOLB   C1C40793  33.615  29.896   5.132  0.1554 -0.0987 -0.3405
 1700BOLB   C2C40794  33.158  29.847   4.889  0.1596 -0.2324 -0.0564
 1700BOLB   C3C40795  32.862  29.641   4.593 -0.0725  0.3684  0.1664
 1700BOLB   C4C40796  33.047  29.456   4.172 -0.0301  0.1428 -0.0463
 1700BOLB   C1D40797  33.833  29.888   4.719 -0.0456 -0.0469  0.1191
 1700BOLB   C2D40798  33.534  30.159   4.589  0.2900 -0.1601 -0.1504
 1700BOLB   C3D40799  33.129  30.077   4.384 -0.1045  0.2494  0.0212
 1700BOLB   C4D40800  32.786  29.948   4.142  0.1339 -0.2937 -0.0056
 1701BOLB   NC140801  32.965  33.655  15.989  0.1284  0.2074 -0.2324
 1701BOLB   PO140802  32.606  33.872  16.248  0.0998 -0.0746 -0.2280
 1701BOLB   GL140803  32.712  34.199  16.070  0.1204  0.2104 -0.2640
 1701BOLB   GL240804  32.924  34.157  15.910  0.1809 -0.0707  0.0840
 1701BOLB   C1A40805  32.858  34.614  15.910 -0.0951  0.1577 -0.0598
 1701BOLB   C2A40806  33.070  34.813  15.522 -0.1742 -0.1839 -0.1319
 1701BOLB   C3A40807  33.437  34.559  15.181 -0.0028  0.5526 -0.0646
 1701BOLB   C4A40808  33.743  34.526  14.948 -0.0861  0.0774 -0.2811
 1701BOLB   C1B40809  33.315  34.370  15.766  0.1422 -0.1282 -0.1870
 1701BOLB   C2B40810  33.680  34.301  15.512  0.2058  0.1578  0.0335
 1701BOLB   C3B40811  33.949  34.147  15.297  0.1180  0.1062 -0.0445
 1701BOLB   C4B40812  34.266  34.277  15.131  0.1954  0.1238  0.1512
 1701BOLB   NC240813  35.401  35.538  13.557  0.0911 -0.0328  0.3494
 1701BOLB   PO240814  35.137  35.497  13.184  0.2560  0.1017  0.0714
 1701BOLB   GL340815  34.902  35.297  13.413 -0.0583 -0.5375 -0.1112
 1701BOLB   GL440816  34.621  35.145  13.439  0.0156  0.2966  0.1626
 1701BOLB   C1C40817  34.787  35.448  13.915  0.5181 -0.0488  0.2684
 1701BOLB   C2C40818  34.508  35.224  14.300  0.1650  0.1187 -0.2319
 1701BOLB   C3C40819  34.307  34.968  14.581 -0.0365  0.0983  0.3294
 1701BOLB   C4C40820  34.183  34.696  14.932  0.3261  0.0809  0.1313
 1701BOLB   C1D40821  34.331  35.319  13.513  0.1776  0.3227 -0.2525
 1701BOLB   C2D40822  34.063  35.492  13.897 -0.1653  0.2301  0.3828
 1701BOLB   C3D40823  34.369  35.700  14.083 -0.3720  0.1418  0.1125
 1701BOLB   C4D40824  34.704  35.974  14.260  0.1004  0.0628  0.0271
 1702BOLB   NC140825  20.989  25.934  17.581  0.0094 -0.4986 -0.2784
 1702BOLB   PO140826  21.443  25.952  17.473  0.0327 -0.2008 -0.2060
 1702BOLB   GL140827  21.327  25.737  17.151  0.0963  0.2436  0.0829
 1702BOLB   GL240828  20.983  25.566  17.215  0.1151 -0.0862  0.0711
 1702BOLB   C1A40829  21.283  25.666  16.624  0.1647  0.0023  0.3763
 1702BOLB   C2A40830  21.170  25.414  16.375 -0.2011  0.0514  0.2108
 1702BOLB   C3A40831  20.917  25.461  16.075  0.0358 -0.1814  0.1163
 1702BOLB   C4A40832  20.779  25.788  15.726  0.2212 -0.0421 -0.0584
 1702BOLB   C1B40833  20.722  25.761  16.985  0.1404 -0.1174  0.1084
 1702BOLB   C2B40834  20.301  25.629  16.794  0.1950  0.0535  0.0538
 1702BOLB   C3B40835  19.929  25.554  16.593  0.3220 -0.2208  0.0122
 1702BOLB   C4B40836  19.828  25.165  16.356  0.0984  0.1949 -0.2063
 1702BOLB   NC240837  20.187  24.788  13.445 -0.4320 -0.1975 -0.2010
 1702BOLB   PO240838  19.968  25.130  13.575 -0.1172  0.1602  0.0346
 1702BOLB   GL340839  20.119  24.838  13.937 -0.0146  0.0771  0.1516
 1702BOLB   GL440840  19.910  24.987  14.179 -0.1075 -0.2547 -0.4965
 1702BOLB   C1C40841  20.336  24.880  14.416  0.0926  0.1459  0.0745
 1702BOLB   C2C40842  20.584  25.280  14.475 -0.1867  0.0659 -0.0429
 1702BOLB   C3C40843  20.446  25.606  14.857  0.0305 -0.2926 -0.2161
 1702BOLB   C4C40844  20.645  25.691  15.285  0.0950 -0.2670  0.1801
 1702BOLB   C1D40845  20.105  25.366  14.482 -0.2909  0.0813 -0.0683
 1702BOLB   C2D40846  20.078  25.853  14.451 -0.2601  0.0121  0.0318
 1702BOLB   C3D40847  20.093  26.157  14.644  0.0825 -0.1756  0.0180
 1702BOLB   C4D40848  19.990  26.337  15.015 -0.0520  0.0492 -0.2350
 1703BOLB   NC140849  35.019  32.443  24.279  0.2138 -0.1749  0.0201
 1703BOLB   PO140850  35.024  32.455  23.814  0.2534 -0.0210  0.2617
 1703BOLB   GL140851  35.414  32.655  23.969 -0.3964  0.1787 -0.4247
 1703BOLB   GL240852  35.383  33.000  23.983  0.2233 -0.0904  0.1773
 1703BOLB   C1A40853  35.750  32.916  24.360  0.0403  0.0840 -0.2712
 1703BOLB   C2A40854  36.035  32.877  24.732  0.0217 -0.1532 -0.0549
 1703BOLB   C3A40855  36.303  32.834  25.061  0.0340 -0.1149 -0.0510
 1703BOLB   C4A40856  36.585  32.733  25.437 -0.0689 -0.1278 -0.2847
 1703BOLB   C1B40857  35.769  33.006  23.795 -0.1274 -0.1746 -0.2251
 1703BOLB   C2B40858  36.103  33.075  23.944 -0.1724 -0.1376 -0.0379
 1703BOLB   C3B40859  36.377  32.900  24.273  0.3063 -0.1470  0.0054
 1703BOLB   C4B40860  36.642  32.835  24.609  0.1031  0.0858 -0.0084
 1703BOLB   NC240861  38.458  32.718   0.626  0.0167  0.1136  0.1996
 1703BOLB   PO240862  38.277  32.991   0.317 -0.1840  0.2973 -0.1424
 1703BOLB   GL340863  37.981  32.772   0.106  0.2095 -0.1777  0.1187
 1703BOLB   GL440864  37.735  32.900   0.177 -0.4676  0.0982  0.4546
 1703BOLB   C1C40865  37.754  32.918  26.670 -0.1928 -0.0610  0.0562
 1703BOLB   C2C40866  37.569  32.939  26.233  0.2025  0.0662 -0.1943
 1703BOLB   C3C40867  37.186  32.959  25.922 -0.2502 -0.2177 -0.1163
 1703BOLB   C4C40868  36.934  32.887  25.526 -0.0473 -0.2683 -0.0105
 1703BOLB   C1D40869  37.446  32.693   0.030  0.0687  0.1192  0.0950
 1703BOLB   C2D40870  37.203  32.274   0.131  0.2236  0.2518  0.1854
 1703BOLB   C3D40871  36.926  31.977   0.164  0.1469 -0.0083 -0.0592
 1703BOLB   C4D40872  36.507  32.162   0.189 -0.3270 -0.0923 -0.0733
 1704BOLB   NC140873  32.854  26.247  26.566 -0.0912 -0.0560  0.0014
 1704BOLB   PO140874  33.210  26.226  26.785 -0.0691 -0.0054 -0.2799
 1704BOLB   GL140875  33.518  26.080   0.062 -0.0454  0.0257 -0.0140
 1704BOLB   GL240876  33.738  26.231   0.086 -0.0537 -0.3596  0.1954
 1704BOLB   C1A40877  33.818  25.755   0.354  0.1642 -0.1926  0.0612
 1704BOLB   C2A40878  33.667  25.475   0.536 -0.1107  0.2292  0.1179
 1704BOLB   C3A40879  33.722  25.078   0.784  0.6578  0.0804 -0.0313
 1704BOLB   C4A40880  33.976  24.937   1.098 -0.1842 -0.3278 -0.0872
 1704BOLB   C1B40881  33.915  26.623   0.354  0.1973  0.2666  0.1989
 1704BOLB   C2B40882  33.985  26.731   0.720 -0.0022 -0.1789 -0.4491
 1704BOLB   C3B40883  34.018  26.708   1.196 -0.1153  0.1129  0.1029
 1704BOLB   C4B40884  33.870  26.759   1.709 -0.3152 -0.1807  0.1533
 1704BOLB   NC240885  36.179  24.107   2.708  0.0649  0.0704  0.0663
 1704BOLB   PO240886  35.776  24.250   2.729 -0.0480 -0.1266  0.5424
 1704BOLB   GL340887  35.376  24.253   2.531 -0.0702  0.0361 -0.1933
 1704BOLB   GL440888  35.147  24.412   2.753 -0.2193 -0.3039 -0.0827
 1704BOLB   C1C40889  35.054  24.209   2.197 -0.1119 -0.0086 -0.0080
 1704BOLB   C2C40890  34.776  24.297   1.857  0.2702 -0.1321  0.1283
 1704BOLB   C3C40891  34.452  24.519   1.713 -0.0294 -0.0402  0.0353
 1704BOLB   C4C40892  34.239  24.845   1.418 -0.0326 -0.0139  0.0204
 1704BOLB   C1D40893  34.768  24.535   2.542  0.1357 -0.0971 -0.0490
 1704BOLB   C2D40894  34.475  24.708   2.203  0.1476  0.2353  0.0878
 1704BOLB   C3D40895  34.294  24.964   1.903 -0.0338  0.0825  0.2096
 1704BOLB   C4D40896  33.983  25.318   1.634 -0.2444  0.2625 -0.1319
 1705BOLB   NC140897  38.430  30.201  15.608  0.0219  0.0773  0.0409
 1705BOLB   PO140898  38.705  29.811  15.694  0.2336 -0.1982 -0.0124
 1705BOLB   GL140899  38.340  29.738  15.901  0.1656 -0.0593  0.3573
 1705BOLB   GL240900  38.180  29.747  15.640 -0.1369  0.1887  0.1564
 1705BOLB   C1A40901  38.012  29.550  16.101 -0.1584  0.2763 -0.1350
 1705BOLB   C2A40902  37.741  29.273  16.057  0.1019  0.3480  0.2292
 1705BOLB   C3A40903  37.503  29.054  15.759  0.1080 -0.1616 -0.1826
 1705BOLB   C4A40904  37.087  28.945  15.727  0.2241 -0.0273  0.1002
 1705BOLB   C1B40905  37.760  29.780  15.618 -0.0658 -0.3469 -0.0974
 1705BOLB   C2B40906  37.355  29.916  15.707 -0.0669  0.3241  0.4752
 1705BOLB   C3B40907  37.012  30.218  15.766 -0.0515  0.1668 -0.0334
 1705BOLB   C4B40908  36.661  30.272  15.678 -0.0377 -0.0433 -0.0436
 1705BOLB   NC240909  37.423  28.875  13.810  0.3251 -0.4890  0.0618
 1705BOLB   PO240910  37.059  29.026  13.564 -0.0395 -0.0901 -0.2765
 1705BOLB   GL340911  36.650  28.883  13.658  0.0991 -0.0024 -0.2222
 1705BOLB   GL440912  36.335  29.065  13.755  0.0048  0.0507 -0.1209
 1705BOLB   C1C40913  36.455  28.653  13.991  0.1391 -0.1963  0.2491
 1705BOLB   C2C40914  36.413  28.493  14.487  0.2396 -0.5709  0.2362
 1705BOLB   C3C40915  36.608  28.669  14.893  0.1451  0.0897  0.4153
 1705BOLB   C4C40916  36.724  28.815  15.326  0.0693 -0.2925  0.0460
 1705BOLB   C1D40917  35.876  29.140  13.932 -0.0225  0.1474 -0.1934
 1705BOLB   C2D40918  35.492  29.244  14.172  0.0928  0.0608  0.1976
 1705BOLB   C3D40919  35.460  29.203  14.593  0.0329  0.3034 -0.1190
 1705BOLB   C4D40920  35.070  29.164  14.821  0.0232  0.0281  0.1466
 1706BOLB   NC140921  13.836  23.526  25.357  0.0812 -0.2882 -0.0581
 1706BOLB   PO140922  14.238  23.239  25.191 -0.0959  0.1073 -0.0733
 1706BOLB   GL140923  14.275  23.716  25.369 -0.5062 -0.2396  0.3193
 1706BOLB   GL240924  14.256  23.682  25.674 -0.0479  0.1673 -0.2469
 1706BOLB   C1A40925  14.628  23.939  25.181 -0.0044  0.0335 -0.3126
 1706BOLB   C2A40926  15.009  24.118  25.313  0.2920  0.0774 -0.0223
 1706BOLB   C3A40927  15.418  24.283  25.129 -0.1383  0.2470 -0.0977
 1706BOLB   C4A40928  15.678  24.040  24.843  0.1750 -0.0506 -0.0423
 1706BOLB   C1B40929  14.578  23.993  25.812  0.0739 -0.2470  0.1826
 1706BOLB   C2B40930  14.802  24.163  26.089  0.1329 -0.1129 -0.0310
 1706BOLB   C3B40931  15.082  24.202  26.453 -0.1952 -0.0452  0.1421
 1706BOLB   C4B40932  15.412  24.221  26.630 -0.0419 -0.0239 -0.1834
 1706BOLB   NC240933  15.536  21.920  24.630 -0.1068 -0.1490 -0.1337
 1706BOLB   PO240934  15.314  21.774  24.986  0.2847 -0.4449  0.1859
 1706BOLB   GL340935  15.720  22.074  25.120  0.0836  0.3122 -0.2615
 1706BOLB   GL440936  16.038  21.990  25.199 -0.1431  0.5377  0.2240
 1706BOLB   C1C40937  15.855  22.510  25.117 -0.1027  0.2022 -0.2771
 1706BOLB   C2C40938  15.966  22.988  25.123 -0.2279  0.2434 -0.3626
 1706BOLB   C3C40939  16.197  23.429  25.157  0.0927 -0.3052  0.1582
 1706BOLB   C4C40940  15.990  23.801  24.912 -0.4068  0.0244 -0.0836
 1706BOLB   C1D40941  16.284  22.267  24.995 -0.2192  0.1353 -0.1233
 1706BOLB   C2D40942  16.423  22.649  24.792 -0.1086 -0.0009 -0.3856
 1706BOLB   C3D40943  16.677  22.627  24.453  0.4194 -0.2414 -0.0592
 1706BOLB   C4D40944  16.784  22.677  23.993  0.1501 -0.1791  0.1732
 1707BOLB   NC140945  26.945  25.030  15.529 -0.1888 -0.1662 -0.1290
 1707BOLB   PO140946  26.708  24.756  15.929  0.0140 -0.1224 -0.0787
 1707BOLB   GL140947  26.479  24.657  15.558  0.1967 -0.1137  0.0570
 1707BOLB   GL240948  26.681  24.702  15.265  0.5228 -0.1591  0.0933
 1707BOLB   C1A40949  26.331  24.257  15.363 -0.0504  0.4026 -0.0324
 1707BOLB   C2A40950  26.227  23.997  15.053 -0.1566  0.1896 -0.3249
 1707BOLB   C3A40951  26.174  23.700  14.700 -0.0980 -0.1333 -0.0983
 1707BOLB   C4A40952  26.315  23.405  14.334  0.1144  0.3953 -0.1452
 1707BOLB   C1B40953  26.744  24.334  15.137  0.2125 -0.2837  0.1588
 1707BOLB   C2B40954  26.690  24.077  14.730  0.0715  0.0696 -0.0516
 1707BOLB   C3B40955  26.550  23.849  14.443  0.0955  0.0033 -0.0354
 1707BOLB   C4B40956  26.569  23.837  13.944  0.2428 -0.0655 -0.1490
 1707BOLB   NC240957  24.948  22.152  12.516 -0.0268 -0.1842 -0.2934
 1707BOLB   PO240958  25.356  21.954  12.655 -0.1078  0.3673  0.2274
 1707BOLB   GL340959  25.146  22.238  12.995 -0.1231  0.2600  0.5330
 1707BOLB   GL440960  24.865  22.522  13.023  0.1011 -0.1654 -0.4618
 1707BOLB   C1C40961  25.446  22.455  13.134  0.0405  0.1496 -0.4777
 1707BOLB   C2C40962  25.664  22.625  13.465  0.0703  0.0750 -0.0733
 1707BOLB   C3C40963  26.043  22.863  13.723 -0.1114  0.2474 -0.3301
 1707BOLB   C4C40964  26.232  23.079  14.054 -0.0936 -0.1602  0.0946
 1707BOLB   C1D40965  24.601  22.723  13.385  0.0378  0.1729  0.3884
 1707BOLB   C2D40966  24.641  22.631  13.752 -0.1476  0.1337 -0.0117
 1707BOLB   C3D40967  24.398  22.272  13.889  0.0782 -0.2083 -0.1465
 1707BOLB   C4D40968  24.109  22.104  13.699  0.2302 -0.0722 -0.3033
 1708BOLB   NC140969  27.917  23.475  16.378 -0.1060 -0.2574 -0.3079
 1708BOLB   PO140970  27.563  23.494  16.696 -0.2860  0.0528  0.1956
 1708BOLB   GL140971  27.539  23.098  16.341  0.1250  0.1934  0.0204
 1708BOLB   GL240972  27.576  22.796  16.437  0.0359 -0.0492 -0.2741
 1708BOLB   C1A40973  27.443  22.821  15.984  0.0110  0.1869 -0.1565
 1708BOLB   C2A40974  27.540  22.592  15.653  0.3339 -0.2091  0.0973
 1708BOLB   C3A40975  27.542  22.265  15.397 -0.0781  0.0411 -0.2589
 1708BOLB   C4A40976  27.636  22.173  14.974  0.0261 -0.1985 -0.1689
 1708BOLB   C1B40977  27.795  22.484  16.238 -0.0931  0.3513 -0.1945
 1708BOLB   C2B40978  27.772  22.074  15.988 -0.3330 -0.0234  0.0251
 1708BOLB   C3B40979  27.874  21.903  15.583  0.0141  0.0975  0.0264
 1708BOLB   C4B40980  27.889  21.786  15.151 -0.3499 -0.1664  0.0467
 1708BOLB   NC240981  28.226  21.174  12.417 -0.2757  0.3975 -0.0747
 1708BOLB   PO240982  28.223  21.059  12.795  0.2563  0.2651  0.0966
 1708BOLB   GL340983  27.847  21.292  13.205  0.0246 -0.0474 -0.0637
 1708BOLB   GL440984  27.626  21.508  13.086 -0.1023  0.1846 -0.1543
 1708BOLB   C1C40985  27.556  21.327  13.531  0.0673  0.1971 -0.0086
 1708BOLB   C2C40986  27.531  21.522  13.854  0.0004 -0.0722 -0.2396
 1708BOLB   C3C40987  27.458  21.740  14.169  0.1957  0.0407 -0.0923
 1708BOLB   C4C40988  27.628  21.995  14.505  0.4312 -0.1081 -0.0359
 1708BOLB   C1D40989  27.526  21.795  13.372 -0.0160 -0.0192 -0.2298
 1708BOLB   C2D40990  27.457  22.072  13.755  0.1583  0.0961 -0.0356
 1708BOLB   C3D40991  27.750  22.156  13.966 -0.0832 -0.3638 -0.0543
 1708BOLB   C4D40992  28.019  22.533  14.055  0.0880  0.3468  0.1233
 1709BOLB   NC140993  27.852  21.480  22.656 -0.0137 -0.0571  0.1995
 1709BOLB   PO140994  27.694  21.176  22.403 -0.1168  0.0083  0.3021
 1709BOLB   GL140995  27.437  20.751  22.451 -0.3498  0.2533 -0.0860
 1709BOLB   GL240996  27.290  20.663  22.211  0.1942 -0.4199  0.0468
 1709BOLB   C1A40997  27.454  20.297  22.520 -0.1477  0.2662  0.1772
 1709BOLB   C2A40998  27.578  20.016  22.831  0.0255  0.0030 -0.1829
 1709BOLB   C3A40999  27.550  19.688  22.888  0.3627  0.1299  0.0563
 1709BOLB   C4A41000  27.427  19.279  22.853  0.0044  0.1940 -0.3035
 1709BOLB   C1B41001  27.058  20.232  22.121  0.1846 -0.0474 -0.1657
 1709BOLB   C2B41002  26.746  20.369  21.883  0.0681  0.3605  0.0403
 1709BOLB   C3B41003  26.381  20.486  21.540  0.3784 -0.1611 -0.0053
 1709BOLB   C4B41004  26.164  20.470  21.253  0.2551 -0.2680  0.0122
 1709BOLB   NC241005  28.880  17.155  22.477 -0.2710 -0.0666 -0.2732
 1709BOLB   PO241006  28.874  17.329  22.865  0.0320  0.1458 -0.0504
 1709BOLB   GL341007  28.467  17.493  22.919  0.1533  0.1686  0.0150
 1709BOLB   GL441008  28.638  17.774  23.102 -0.1932 -0.1018 -0.2132
 1709BOLB   C1C41009  28.087  17.667  23.098  0.0248  0.0990 -0.0049
 1709BOLB   C2C41010  27.930  18.069  23.052  0.0706 -0.0870  0.3588
 1709BOLB   C3C41011  27.696  18.424  23.138 -0.3606  0.1688  0.2675
 1709BOLB   C4C41012  27.522  18.901  22.994  0.2078 -0.0475 -0.0980
 1709BOLB   C1D41013  28.898  18.023  22.798  0.1557  0.3134 -0.0389
 1709BOLB   C2D41014  29.219  18.197  22.742  0.4090 -0.1222  0.1438
 1709BOLB   C3D41015  29.242  18.553  22.860 -0.1888  0.3288 -0.3013
 1709BOLB   C4D41016  29.023  18.708  22.550  0.2325  0.0636  0.4875
 1710BOLB   NC141017  29.842  23.111  26.260 -0.0196 -0.3737  0.1897
 1710BOLB   PO141018  29.372  23.314  26.378  0.1729 -0.1672 -0.0204
 1710BOLB   GL141019  29.480  22.956  26.712 -0.3241 -0.5130  0.0817
 1710BOLB   GL241020  29.228  22.925  26.768  0.2554  0.1545 -0.1700
 1710BOLB   C1A41021  29.760  22.752   0.020  0.1447 -0.0651 -0.3582
 1710BOLB   C2A41022  29.786  22.401   0.247  0.5447  0.1234 -0.1539
 1710BOLB   C3A41023  29.831  22.023   0.447 -0.2534  0.2163 -0.0296
 1710BOLB   C4A41024  29.999  21.745   0.774  0.1615  0.0178  0.2304
 1710BOLB   C1B41025  29.113  22.580  26.911  0.0814  0.3495  0.0662
 1710BOLB   C2B41026  29.280  22.286   0.242  0.0594 -0.0652  0.1119
 1710BOLB   C3B41027  29.342  22.092   0.597 -0.0828 -0.0568  0.1776
 1710BOLB   C4B41028  29.494  21.833   0.977 -0.3076  0.1506  0.0465
 1710BOLB   NC241029  30.100  19.377   1.506 -0.1042 -0.1893 -0.5331
 1710BOLB   PO241030  30.474  19.405   1.377 -0.0096 -0.2463 -0.1969
 1710BOLB   GL341031  30.500  19.730   1.477  0.0427 -0.2757 -0.3868
 1710BOLB   GL441032  30.187  19.837   1.707  0.1847  0.0763  0.0379
 1710BOLB   C1C41033  30.478  20.209   1.629  0.3645  0.0215 -0.0822
 1710BOLB   C2C41034  30.384  20.621   1.527  0.0019 -0.0278  0.0773
 1710BOLB   C3C41035  30.208  21.007   1.250 -0.4912 -0.0015 -0.0238
 1710BOLB   C4C41036  30.157  21.483   0.998 -0.3997  0.0401  0.1138
 1710BOLB   C1D41037  29.757  20.042   1.574  0.0049 -0.1637  0.2039
 1710BOLB   C2D41038  29.903  20.495   1.531  0.0012  0.2225  0.0011
 1710BOLB   C3D41039  30.010  20.777   1.874  0.3436 -0.4052  0.1573
 1710BOLB   C4D41040  30.371  20.623   2.066 -0.1449  0.1323  0.0283
 1711BOLB   NC141041  20.266  30.757  18.976 -0.1542  0.0331 -0.0162
 1711BOLB   PO141042  20.137  30.526  18.609  0.0111 -0.0097  0.0582
 1711BOLB   GL141043  19.790  30.640  18.327  0.1805 -0.1816  0.1954
 1711BOLB   GL241044  19.523  30.991  18.364  0.0151  0.0617 -0.1133
 1711BOLB   C1A41045  19.590  30.780  17.892 -0.2221  0.1063 -0.2091
 1711BOLB   C2A41046  19.339  31.151  17.695  0.0179  0.0635 -0.2240
 1711BOLB   C3A41047  19.111  31.371  17.392 -0.2346 -0.0252  0.3303
 1711BOLB   C4A41048  18.788  31.430  17.086 -0.0430  0.2872 -0.1195
 1711BOLB   C1B41049  19.101  30.908  18.106 -0.0212 -0.1484 -0.0750
 1711BOLB   C2B41050  18.675  30.787  18.018  0.0940  0.2045  0.2615
 1711BOLB   C3B41051  18.328  30.987  17.719 -0.0881 -0.1998  0.0500
 1711BOLB   C4B41052  17.900  30.925  17.370  0.0881 -0.1630 -0.0307
 1711BOLB   NC241053  16.213  31.148  15.804  0.1399  0.1802 -0.0873
 1711BOLB   PO241054  16.774  31.086  15.879  0.1139  0.1437  0.0735
 1711BOLB   GL341055  17.243  31.107  15.952 -0.2122  0.3528 -0.1960
 1711BOLB   GL441056  17.419  30.801  16.090 -0.1215  0.1016 -0.0930
 1711BOLB   C1C41057  17.440  31.369  16.287 -0.1210  0.0975  0.1088
 1711BOLB   C2C41058  17.891  31.294  16.296  0.1449 -0.0373 -0.1351
 1711BOLB   C3C41059  18.260  31.235  16.581 -0.2428 -0.0715  0.0427
 1711BOLB   C4C41060  18.684  31.228  16.811 -0.1002 -0.0234 -0.0642
 1711BOLB   C1D41061  17.686  30.832  16.480 -0.2234 -0.0163 -0.0150
 1711BOLB   C2D41062  17.970  30.838  16.802  0.0259 -0.1981 -0.0891
 1711BOLB   C3D41063  18.385  30.788  16.877 -0.2672  0.2474 -0.1198
 1711BOLB   C4D41064  18.779  30.803  17.053  0.0326 -0.2047  0.0714
 1712BOLB   NC141065  28.888  30.327  13.757 -0.0191 -0.0529 -0.2237
 1712BOLB   PO141066  29.275  30.474  13.773  0.0006 -0.3692  0.0453
 1712BOLB   GL141067  29.107  30.626  13.406  0.0423 -0.3639 -0.0325
 1712BOLB   GL241068  28.888  30.432  13.289 -0.2896 -0.1726  0.1012
 1712BOLB   C1A41069  29.227  30.824  12.943 -0.0211 -0.1963  0.1360
 1712BOLB   C2A41070  29.192  31.225  12.713  0.1145 -0.0203 -0.1783
 1712BOLB   C3A41071  29.558  31.437  12.607 -0.2573  0.2977 -0.1236
 1712BOLB   C4A41072  29.812  31.666  12.426 -0.1648 -0.0677 -0.2639
 1712BOLB   C1B41073  28.931  30.400  12.816 -0.5003  0.2342  0.0928
 1712BOLB   C2B41074  29.325  30.500  12.559 -0.1652 -0.0054 -0.0736
 1712BOLB   C3B41075  29.304  30.771  12.179  0.1946  0.1245 -0.0046
 1712BOLB   C4B41076  29.083  31.043  11.909  0.0955  0.1470  0.1311
 1712BOLB   NC241077  30.977  31.971  10.238 -0.1096  0.2826  0.0201
 1712BOLB   PO241078  30.822  32.376  10.322 -0.0232  0.1259 -0.0673
 1712BOLB   GL341079  31.077  32.249  10.649  0.2723 -0.1304  0.0514
 1712BOLB   GL441080  31.049  32.533  10.843  0.0742 -0.3396 -0.2683
 1712BOLB   C1C41081  30.958  32.122  11.080  0.0479 -0.5293 -0.2984
 1712BOLB   C2C41082  30.460  31.980  11.223  0.0276  0.1250  0.2146
 1712BOLB   C3C41083  30.127  31.932  11.571 -0.2510 -0.2748 -0.0227
 1712BOLB   C4C41084  29.971  31.868  12.068 -0.3727 -0.0239  0.1087
 1712BOLB   C1D41085  30.844  32.703  11.161  0.0212 -0.0590 -0.0248
 1712BOLB   C2D41086  30.966  32.897  11.535  0.0134  0.3594 -0.1714
 1712BOLB   C3D41087  31.029  33.151  11.816 -0.2664  0.1153  0.1611
 1712BOLB   C4D41088  31.265  33.494  12.038  0.1622 -0.1577 -0.2534
 1713BOLB   NC141089  24.743  26.267  14.629  0.1934 -0.0674  0.4396
 1713BOLB   PO141090  24.864  26.126  15.007 -0.0389  0.0336 -0.0679
 1713BOLB   GL141091  24.813  25.787  14.749  0.2128  0.1104  0.1909
 1713BOLB   GL241092  24.483  25.873  14.771 -0.1598 -0.1415 -0.0351
 1713BOLB   C1A41093  24.845  25.685  14.253  0.2725 -0.1764 -0.0133
 1713BOLB   C2A41094  24.776  25.418  13.978 -0.3685  0.1610 -0.0262
 1713BOLB   C3A41095  24.558  25.282  13.558  0.2062 -0.0706 -0.0802
 1713BOLB   C4A41096  24.546  25.321  13.188  0.3337 -0.2349  0.0528
 1713BOLB   C1B41097  24.462  25.443  14.569 -0.1371 -0.2131 -0.0110
 1713BOLB   C2B41098  24.427  25.192  14.172  0.2725 -0.0942  0.0809
 1713BOLB   C3B41099  24.260  24.991  13.842  0.0871 -0.0534 -0.0070
 1713BOLB   C4B41100  24.164  24.652  13.622 -0.0263 -0.1744 -0.0060
 1713BOLB   NC241101  23.561  24.688  10.720  0.2910  0.0651  0.3137
 1713BOLB   PO241102  23.820  24.748  10.981  0.3647 -0.2423  0.2394
 1713BOLB   GL341103  23.852  24.970  11.462 -0.0274  0.1301  0.0984
 1713BOLB   GL441104  24.151  25.035  11.513 -0.3920 -0.3218  0.0097
 1713BOLB   C1C41105  23.769  25.027  11.914 -0.2528 -0.0779  0.2201
 1713BOLB   C2C41106  23.730  24.860  12.290 -0.1426 -0.1149 -0.1357
 1713BOLB   C3C41107  24.043  24.965  12.574 -0.1159 -0.0915 -0.0003
 1713BOLB   C4C41108  24.330  25.224  12.873  0.4190 -0.1037 -0.1836
 1713BOLB   C1D41109  24.130  25.412  11.884 -0.0486  0.0307 -0.3012
 1713BOLB   C2D41110  24.276  25.676  12.198  0.3826  0.2965  0.2527
 1713BOLB   C3D41111  24.419  25.641  12.660 -0.1016  0.1182 -0.2355
 1713BOLB   C4D41112  24.262  25.699  13.050 -0.0965  0.3619 -0.1815
 1714BOLB   NC141113  32.551  29.444   1.659 -0.1529  0.0943 -0.1613
 1714BOLB   PO141114  32.292  29.055   1.682 -0.1307 -0.4129 -0.0631
 1714BOLB   GL141115  32.478  29.149   2.027  0.0344  0.1972  0.1865
 1714BOLB   GL241116  32.167  29.139   2.259 -0.0512  0.0716 -0.2546
 1714BOLB   C1A41117  32.809  29.325   2.291  0.1586  0.0553 -0.1687
 1714BOLB   C2A41118  33.127  29.517   2.416  0.0256  0.1441  0.0173
 1714BOLB   C3A41119  33.405  29.806   2.642  0.0102 -0.2719 -0.1603
 1714BOLB   C4A41120  33.638  29.873   3.096 -0.0419 -0.3232 -0.1910
 1714BOLB   C1B41121  32.425  29.171   2.628 -0.1330 -0.0343 -0.0085
 1714BOLB   C2B41122  32.798  29.158   2.856 -0.1253  0.2920 -0.0472
 1714BOLB   C3B41123  33.091  29.165   3.193  0.1776  0.4532 -0.1174
 1714BOLB   C4B41124  33.449  29.096   3.416 -0.0964  0.1497  0.0613
 1714BOLB   NC241125  34.514  29.481   5.079  0.1094  0.2262  0.0070
 1714BOLB   PO241126  34.955  29.482   4.921 -0.1009  0.1108  0.5034
 1714BOLB   GL341127  34.600  29.326   4.623 -0.3316 -0.1197  0.0021
 1714BOLB   GL441128  34.694  29.028   4.623 -0.1733  0.1734  0.1101
 1714BOLB   C1C41129  34.451  29.265   4.188 -0.2228 -0.0072 -0.0677
 1714BOLB   C2C41130  34.186  29.403   3.983  0.1924 -0.1126 -0.2315
 1714BOLB   C3C41131  34.169  29.588   3.609  0.1422  0.2550 -0.1064
 1714BOLB   C4C41132  33.914  29.671   3.340 -0.1040 -0.0675 -0.0661
 1714BOLB   C1D41133  34.272  28.957   4.524 -0.2146 -0.1050 -0.4929
 1714BOLB   C2D41134  33.981  28.867   4.638 -0.0267  0.0340  0.1183
 1714BOLB   C3D41135  33.536  29.008   4.684 -0.2438 -0.4518  0.1466
 1714BOLB   C4D41136  33.218  29.133   4.541 -0.1419  0.1818  0.1302
 1715BOLB   NC141137  22.298  33.480  26.431  0.1053  0.3873  0.0502
 1715BOLB   PO141138  22.445  33.611   0.038 -0.1314  0.2547 -0.3341
 1715BOLB   GL141139  22.283  33.982   0.237 -0.1087 -0.0432  0.1391
 1715BOLB   GL241140  22.277  34.056   0.492  0.2635  0.1690 -0.1650
 1715BOLB   C1A41141  21.820  34.054   0.277 -0.3421 -0.0562 -0.2875
 1715BOLB   C2A41142  21.494  34.284   0.077  0.4153  0.4819 -0.0147
 1715BOLB   C3A41143  21.268  34.595   0.193  0.1510  0.0289 -0.1870
 1715BOLB   C4A41144  20.951  34.573   0.067 -0.0942  0.0487  0.1021
 1715BOLB   C1B41145  21.881  34.240   0.756  0.1007 -0.1914 -0.2884
 1715BOLB   C2B41146  21.540  34.492   0.941 -0.1008 -0.1078  0.0695
 1715BOLB   C3B41147  21.316  34.568   1.376  0.0124 -0.0848  0.2530
 1715BOLB   C4B41148  21.165  34.719   1.783  0.2427  0.0888  0.0035
 1715BOLB   NC241149  19.524  35.395   1.233  0.2865 -0.0926 -0.2340
 1715BOLB   PO241150  19.164  35.100   1.276 -0.1475 -0.0195 -0.3001
 1715BOLB   GL341151  19.143  34.840   0.915  0.0556  0.3196 -0.0541
 1715BOLB   GL441152  18.906  34.694   1.005  0.2283  0.2848 -0.0406
 1715BOLB   C1C41153  19.422  34.812   0.748  0.1685  0.3885  0.1860
 1715BOLB   C2C41154  19.905  34.770   0.440  0.1575  0.1045 -0.0683
 1715BOLB   C3C41155  20.198  34.432   0.177 -0.1554  0.1997 -0.0664
 1715BOLB   C4C41156  20.517  34.444   0.009 -0.0398  0.2428 -0.1057
 1715BOLB   C1D41157  19.020  34.295   0.720  0.0138 -0.0212  0.2228
 1715BOLB   C2D41158  19.181  34.145   0.369  0.1039 -0.0131  0.0994
 1715BOLB   C3D41159  19.462  33.786   0.261  0.2012 -0.5404  0.0061
 1715BOLB   C4D41160  19.743  33.672   0.087 -0.3428  0.0371  0.2807
 1716BOLB   NC141161  33.364  26.467  25.743  0.2344 -0.0916 -0.1674
 1716BOLB   PO141162  33.229  26.056  25.969 -0.1375 -0.1263 -0.0811
 1716BOLB   GL141163  33.530  25.725  26.059  0.0679 -0.0029 -0.1753
 1716BOLB   GL241164  33.469  25.491  26.218 -0.0330  0.2468 -0.3205
 1716BOLB   C1A41165  33.954  25.610  26.229  0.0068 -0.1619  0.1620
 1716BOLB   C2A41166  34.454  25.418  26.383 -0.0403 -0.0770  0.1179
 1716BOLB   C3A41167  34.737  25.337  26.635 -0.1945  0.0572 -0.0966
 1716BOLB   C4A41168  35.068  25.065  26.908 -0.2309  0.0321 -0.1202
 1716BOLB   C1B41169  33.704  25.228  26.516  0.2432  0.0110  0.0537
 1716BOLB   C2B41170  34.108  25.083  26.552  0.4445  0.1017 -0.0558
 1716BOLB   C3B41171  34.476  24.897  26.577  0.1867  0.2398 -0.1110
 1716BOLB   C4B41172  34.789  24.921  26.395  0.1223 -0.3172  0.3661
 1716BOLB   NC241173  36.868  23.491   0.133  0.2256 -0.1265 -0.0099
 1716BOLB   PO241174  36.949  23.689   0.545  0.1020  0.2683  0.0098
 1716BOLB   GL341175  36.682  23.962   0.179 -0.4189 -0.0891 -0.0107
 1716BOLB   GL441176  36.730  23.864  26.789 -0.0924  0.1742 -0.0418
 1716BOLB   C1C41177  36.293  24.368   0.258  0.0217 -0.0157  0.1322
 1716BOLB   C2C41178  36.086  24.659  26.923  0.2602 -0.3123 -0.1939
 1716BOLB   C3C41179  35.868  24.898  26.848  0.1689 -0.0132 -0.1825
 1716BOLB   C4C41180  35.484  25.193  26.864  0.1782 -0.0254  0.2141
 1716BOLB   C1D41181  36.298  23.899  26.826 -0.0760  0.3780  0.3390
 1716BOLB   C2D41182  35.922  23.956  26.877 -0.0731  0.5168 -0.0446
 1716BOLB   C3D41183  35.647  24.247   0.050 -0.2622  0.2498  0.0318
 1716BOLB   C4D41184  35.261  24.199  26.752 -0.3198 -0.0363  0.1866
 1717BOLB   NC141185  30.596  22.624  25.090  0.1171  0.0174  0.1868
 1717BOLB   PO141186  30.750  22.496  24.668 -0.0026  0.2037  0.0451
 1717BOLB   GL141187  30.845  22.234  24.923 -0.0528 -0.2009  0.0925
 1717BOLB   GL241188  31.097  22.390  25.175  0.1374 -0.0263  0.4353
 1717BOLB   C1A41189  30.792  21.927  25.317  0.2347  0.1188 -0.0873
 1717BOLB   C2A41190  30.911  21.668  25.497 -0.0474  0.3089  0.3603
 1717BOLB   C3A41191  31.163  21.583  25.763  0.1456  0.0565  0.0823
 1717BOLB   C4A41192  31.203  21.252  25.957  0.1833  0.3812 -0.0179
 1717BOLB   C1B41193  31.296  22.105  25.455  0.1227  0.2427  0.2197
 1717BOLB   C2B41194  31.584  21.875  25.714 -0.0997 -0.0877  0.0145
 1717BOLB   C3B41195  31.956  21.801  25.714 -0.1800  0.2455 -0.1465
 1717BOLB   C4B41196  32.281  21.535  25.530 -0.2467  0.0117  0.1611
 1717BOLB   NC241197  32.939  19.304   0.054  0.2137  0.4945  0.0939
 1717BOLB   PO241198  32.467  19.338  26.872 -0.0152 -0.1661 -0.1986
 1717BOLB   GL341199  32.377  19.815  26.729  0.0872 -0.0921 -0.0096
 1717BOLB   GL441200  32.503  20.044   0.121 -0.0366 -0.1554  0.3326
 1717BOLB   C1C41201  32.129  20.112  26.471  0.1086 -0.3906  0.1538
 1717BOLB   C2C41202  31.898  20.403  26.416  0.0606 -0.1246  0.1808
 1717BOLB   C3C41203  31.779  20.739  26.478  0.2453 -0.0286  0.2428
 1717BOLB   C4C41204  31.557  21.002  26.246  0.3766  0.2829  0.0373
 1717BOLB   C1D41205  32.584  20.312  26.823  0.1528 -0.2087  0.4149
 1717BOLB   C2D41206  32.332  20.592  26.626  0.1636 -0.2296 -0.2141
 1717BOLB   C3D41207  32.229  20.968  26.340 -0.0480 -0.0204  0.1271
 1717BOLB   C4D41208  32.126  21.173  25.957  0.0630 -0.2797 -0.0128
 1718BOLB   NC141209  13.262  28.546  22.955 -0.2926  0.0055  0.1980
 1718BOLB   PO141210  13.134  28.392  23.362  0.2069  0.0420 -0.1195
 1718BOLB   GL141211  13.536  28.009  23.242  0.0691  0.1271 -0.1186
 1718BOLB   GL241212  13.471  27.610  23.183 -0.1427  0.0263 -0.1318
 1718BOLB   C1A41213  13.946  27.974  23.413 -0.0788 -0.0286  0.1364
 1718BOLB   C2A41214  14.110  27.529  23.337  0.1101 -0.2411  0.1139
 1718BOLB   C3A41215  14.305  27.105  23.071 -0.1243 -0.1760  0.1090
 1718BOLB   C4A41216  14.132  26.851  22.658  0.0459 -0.3277 -0.0647
 1718BOLB   C1B41217  13.790  27.646  22.845  0.1457  0.1860  0.0825
 1718BOLB   C2B41218  14.144  27.469  22.738  0.2196 -0.1057 -0.0492
 1718BOLB   C3B41219  14.445  27.256  22.549  0.1265  0.2269  0.0759
 1718BOLB   C4B41220  14.811  27.215  22.514 -0.0287 -0.3578 -0.0561
 1718BOLB   NC241221  13.002  25.206  23.282  0.2902  0.0208  0.5316
 1718BOLB   PO241222  13.017  25.065  22.850  0.0395  0.2030 -0.0288
 1718BOLB   GL341223  13.350  25.106  22.522 -0.0949 -0.1711  0.1820
 1718BOLB   GL441224  13.638  24.969  22.438  0.0033  0.1160  0.1624
 1718BOLB   C1C41225  13.529  25.466  22.476 -0.2369  0.0037 -0.0146
 1718BOLB   C2C41226  13.624  25.776  22.563 -0.0953  0.0537  0.1278
 1718BOLB   C3C41227  13.891  26.048  22.441 -0.3218  0.2132 -0.1954
 1718BOLB   C4C41228  13.998  26.504  22.510 -0.1172  0.2634 -0.2935
 1718BOLB   C1D41229  14.011  25.214  22.703 -0.0023 -0.2370  0.0875
 1718BOLB   C2D41230  14.150  25.548  22.626 -0.0063 -0.0451 -0.0855
 1718BOLB   C3D41231  14.462  25.938  22.652 -0.3643  0.0270 -0.0468
 1718BOLB   C4D41232  14.800  26.090  22.451 -0.1470 -0.2463  0.0279
 1719BOLB   NC141233  26.303  22.048   7.971 -0.0941  0.1141  0.1991
 1719BOLB   PO141234  26.364  22.071   7.523  0.4343  0.2720 -0.0813
 1719BOLB   GL141235  26.355  22.236   7.246  0.0098 -0.0630 -0.3559
 1719BOLB   GL241236  26.057  22.358   7.187  0.0891 -0.0204 -0.0606
 1719BOLB   C1A41237  26.591  22.500   7.000  0.2071 -0.0169  0.3129
 1719BOLB   C2A41238  26.621  22.412   6.525 -0.2061  0.0862  0.0769
 1719BOLB   C3A41239  26.443  22.144   6.155  0.3633 -0.1144  0.1692
 1719BOLB   C4A41240  26.290  22.124   5.667  0.1751 -0.1202  0.0027
 1719BOLB   C1B41241  26.057  22.499   6.781  0.1958 -0.0969 -0.1275
 1719BOLB   C2B41242  25.772  22.435   6.409  0.1885  0.1157  0.2015
 1719BOLB   C3B41243  25.538  22.716   6.479  0.3002  0.0980 -0.0434
 1719BOLB   C4B41244  25.221  23.073   6.669  0.1227  0.1030  0.2328
 1719BOLB   NC241245  26.383  20.891   7.187 -0.1082 -0.3886 -0.2757
 1719BOLB   PO241246  26.359  21.315   7.200 -0.3145  0.0211 -0.2234
 1719BOLB   GL341247  26.111  21.551   6.911  0.1551  0.1850 -0.2495
 1719BOLB   GL441248  25.876  21.841   6.928 -0.0568  0.4998  0.0561
 1719BOLB   C1C41249  25.914  21.359   6.585 -0.4074 -0.1248 -0.1738
 1719BOLB   C2C41250  25.816  21.509   6.167 -0.1081  0.0503 -0.0165
 1719BOLB   C3C41251  25.646  21.711   5.745 -0.2497 -0.0528  0.0500
 1719BOLB   C4C41252  25.919  21.950   5.475 -0.2500  0.3067  0.0220
 1719BOLB   C1D41253  25.780  21.861   6.500 -0.0469 -0.2452 -0.1228
 1719BOLB   C2D41254  26.024  21.951   6.186 -0.2347 -0.0513  0.2186
 1719BOLB   C3D41255  26.214  21.674   5.901  0.1063 -0.1700 -0.3077
 1719BOLB   C4D41256  26.575  21.593   5.736  0.1742 -0.1671 -0.0207
 1720BOLB   NC141257  33.735  30.360  15.951 -0.1083 -0.0670 -0.2189
 1720BOLB   PO141258  33.646  30.657  15.794 -0.0683  0.0864 -0.3230
 1720BOLB   GL141259  33.836  30.523  15.383  0.1378  0.4640  0.1684
 1720BOLB   GL241260  33.742  30.343  15.098 -0.0422 -0.2696  0.1255
 1720BOLB   C1A41261  34.232  30.432  15.069  0.2326  0.2272  0.0249
 1720BOLB   C2A41262  34.408  30.535  14.685 -0.1091 -0.2306 -0.3797
 1720BOLB   C3A41263  34.737  30.603  14.473 -0.0661  0.2533  0.0223
 1720BOLB   C4A41264  35.155  30.578  14.262 -0.1153  0.0962  0.1452
 1720BOLB   C1B41265  33.965  30.267  14.702  0.4499  0.1036 -0.0304
 1720BOLB   C2B41266  34.325  30.102  14.450  0.1293 -0.0031  0.2910
 1720BOLB   C3B41267  34.705  29.937  14.209 -0.1820  0.0876  0.1502
 1720BOLB   C4B41268  35.081  30.112  14.107 -0.0367 -0.0522  0.3332
 1720BOLB   NC241269  35.999  30.336  11.879  0.3680 -0.0206 -0.2460
 1720BOLB   PO241270  35.695  30.533  12.245 -0.3934  0.0889  0.0154
 1720BOLB   GL341271  35.811  30.625  12.663  0.2850 -0.3856  0.0945
 1720BOLB   GL441272  35.834  30.335  12.888  0.0423  0.2572  0.1697
 1720BOLB   C1C41273  35.577  30.777  13.116  0.1975  0.2417 -0.0610
 1720BOLB   C2C41274  35.405  30.943  13.408 -0.1296  0.0371  0.1123
 1720BOLB   C3C41275  35.439  30.698  13.736 -0.2698  0.1326 -0.0685
 1720BOLB   C4C41276  35.463  30.565  14.100  0.1783  0.0979 -0.1518
 1720BOLB   C1D41277  35.589  30.250  13.254  0.0778 -0.1880 -0.0741
 1720BOLB   C2D41278  35.225  30.059  13.498 -0.5006  0.1210  0.2904
 1720BOLB   C3D41279  34.901  29.896  13.657 -0.0079 -0.2007  0.2317
 1720BOLB   C4D41280  34.588  29.698  13.517 -0.0780 -0.0823 -0.4076
 1721BOLB   NC141281  35.815  30.354  20.160  0.1101  0.0412  0.0195
 1721BOLB   PO141282  35.791  30.135  19.796 -0.1854  0.0792 -0.1472
 1721BOLB   GL141283  36.202  30.169  19.827 -0.0853  0.2034  0.0568
 1721BOLB   GL241284  36.364  30.337  19.567  0.1653 -0.4523 -0.1595
 1721BOLB   C1A41285  36.561  29.947  19.908 -0.2412  0.0121  0.1444
 1721BOLB   C2A41286  36.994  29.946  19.759  0.0938 -0.1948  0.1316
 1721BOLB   C3A41287  37.074  29.461  19.755  0.0485 -0.0565  0.0064
 1721BOLB   C4A41288  37.323  29.304  19.480 -0.0365 -0.1351 -0.0920
 1721BOLB   C1B41289  36.718  30.224  19.387  0.0927  0.0533 -0.0047
 1721BOLB   C2B41290  36.971  30.081  19.006 -0.2739  0.3430 -0.3172
 1721BOLB   C3B41291  37.148  30.222  18.623  0.2909  0.0223 -0.0752
 1721BOLB   C4B41292  37.590  30.439  18.623 -0.1400  0.0123  0.1337
 1721BOLB   NC241293  39.743  28.926  19.512 -0.2541  0.4043 -0.2596
 1721BOLB   PO241294  39.741  29.391  19.540  0.1528 -0.0034 -0.1161
 1721BOLB   GL341295  39.381  29.261  19.718 -0.1501  0.1360 -0.0574
 1721BOLB   GL441296  39.486  29.065  19.974  0.1233  0.2181  0.2017
 1721BOLB   C1C41297  38.877  29.359  19.724  0.1166 -0.1485  0.0605
 1721BOLB   C2C41298  38.465  29.609  19.709  0.2634 -0.0107 -0.0607
 1721BOLB   C3C41299  38.046  29.348  19.524 -0.1465  0.0726 -0.0143
 1721BOLB   C4C41300  37.681  29.128  19.490 -0.3628  0.2196 -0.1325
 1721BOLB   C1D41301  39.068  28.954  20.051  0.1149  0.2860  0.0908
 1721BOLB   C2D41302  38.617  29.138  20.192 -0.0937  0.0683 -0.0514
 1721BOLB   C3D41303  38.260  29.380  20.110  0.0854  0.1145  0.2809
 1721BOLB   C4D41304  38.072  29.751  19.966 -0.0291  0.2542  0.2369
 1722BOLB   NC141305  24.779  33.583  15.136  0.4458  0.1606 -0.0530
 1722BOLB   PO141306  24.419  33.624  15.400 -0.0384  0.0457 -0.3004
 1722BOLB   GL141307  24.340  33.933  15.049  0.1675 -0.0524  0.2853
 1722BOLB   GL241308  24.551  34.075  14.869  0.1729  0.1528 -0.0517
 1722BOLB   C1A41309  23.935  34.287  14.925 -0.0179 -0.0815  0.2893
 1722BOLB   C2A41310  23.765  34.714  14.948 -0.0503 -0.1930 -0.0557
 1722BOLB   C3A41311  23.648  35.111  14.686  0.0741 -0.0346 -0.0969
 1722BOLB   C4A41312  23.177  34.954  14.531 -0.0116  0.0016  0.0704
 1722BOLB   C1B41313  24.466  34.118  14.437  0.1554 -0.1257  0.0588
 1722BOLB   C2B41314  24.258  34.034  14.102  0.2732  0.2228  0.0254
 1722BOLB   C3B41315  24.271  34.158  13.708  0.3509 -0.0694 -0.0985
 1722BOLB   C4B41316  24.288  34.388  13.222  0.0976  0.3565  0.2525
 1722BOLB   NC241317  21.990  36.748  13.493 -0.1713  0.0372  0.0068
 1722BOLB   PO241318  21.706  36.904  13.856 -0.0369  0.0733  0.1311
 1722BOLB   GL341319  21.909  36.484  14.142  0.5198 -0.1389  0.1074
 1722BOLB   GL441320  21.570  36.247  14.229  0.2545  0.5130 -0.2547
 1722BOLB   C1C41321  22.182  36.140  14.329  0.1666  0.4383 -0.2078
 1722BOLB   C2C41322  22.379  35.743  14.363  0.0179 -0.2511  0.1163
 1722BOLB   C3C41323  22.497  35.378  14.274 -0.0537 -0.1871 -0.1133
 1722BOLB   C4C41324  22.787  35.104  14.455  0.0861  0.1950  0.1142
 1722BOLB   C1D41325  21.646  35.801  14.114 -0.0674 -0.1467  0.1442
 1722BOLB   C2D41326  21.936  35.421  14.252  0.1063  0.1242 -0.2779
 1722BOLB   C3D41327  22.155  35.070  14.449  0.0256  0.4783  0.1991
 1722BOLB   C4D41328  22.268  34.979  14.952 -0.0026 -0.3576 -0.3128
 1723BOLB   NC141329  26.598  37.508  24.118  0.0434  0.2990  0.2292
 1723BOLB   PO141330  26.509  37.350  24.624 -0.0511  0.0579 -0.4389
 1723BOLB   GL141331  26.764  37.608  24.910  0.3203  0.1626  0.0807
 1723BOLB   GL241332  26.561  37.564  25.115 -0.3405 -0.1998 -0.3405
 1723BOLB   C1A41333  26.681  38.033  24.998 -0.1598  0.0686 -0.0836
 1723BOLB   C2A41334  26.340  38.179  25.218 -0.1497 -0.0530  0.0420
 1723BOLB   C3A41335  26.176  38.395  25.641 -0.2807  0.0917  0.0901
 1723BOLB   C4A41336  25.910  38.698  25.911 -0.1421  0.1629  0.0880
 1723BOLB   C1B41337  26.323  37.640  25.358  0.2582 -0.4711 -0.1247
 1723BOLB   C2B41338  26.001  37.837  25.591 -0.2488  0.4050  0.0060
 1723BOLB   C3B41339  25.873  38.115  25.924 -0.0230 -0.0789 -0.2058
 1723BOLB   C4B41340  25.883  38.396  26.364 -0.2678  0.1928  0.0713
 1723BOLB   NC241341  25.086  40.842   0.378 -0.1298  0.1590  0.0500
 1723BOLB   PO241342  25.396  40.553   0.645 -0.1989  0.0146 -0.4231
 1723BOLB   GL341343  25.377  40.201   0.453  0.3551  0.2927  0.1193
 1723BOLB   GL441344  25.404  39.936   0.669 -0.2532 -0.2671 -0.0690
 1723BOLB   C1C41345  25.523  39.892   0.187 -0.0187  0.0562 -0.1811
 1723BOLB   C2C41346  25.558  39.431   0.083 -0.1214 -0.0373  0.3567
 1723BOLB   C3C41347  25.617  39.099  26.648 -0.2578  0.1334 -0.1580
 1723BOLB   C4C41348  25.735  38.850  26.304  0.0001 -0.4150  0.1778
 1723BOLB   C1D41349  25.300  39.569   0.452 -0.0591  0.2577  0.0621
 1723BOLB   C2D41350  25.274  39.207   0.453 -0.1237  0.2153  0.1561
 1723BOLB   C3D41351  25.083  38.945   0.302 -0.2310  0.2585 -0.0053
 1723BOLB   C4D41352  25.073  38.427   0.288  0.3681 -0.1993 -0.1592
 1724BOLB   NC141353  34.241  34.064  21.074  0.2053  0.1687 -0.2440
 1724BOLB   PO141354  34.649  34.284  21.167 -0.2868  0.1358 -0.1089
 1724BOLB   GL141355  35.029  34.587  21.138 -0.0704  0.0450 -0.3061
 1724BOLB   GL241356  35.080  34.910  21.233 -0.2847 -0.0845  0.2034
 1724BOLB   C1A41357  35.478  34.707  20.985  0.0519  0.3176  0.1969
 1724BOLB   C2A41358  36.030  34.833  20.951  0.0806  0.3058 -0.2579
 1724BOLB   C3A41359  36.534  34.894  20.861  0.3648  0.0083  0.2117
 1724BOLB   C4A41360  36.810  34.515  20.984  0.1230 -0.2378  0.1792
 1724BOLB   C1B41361  35.578  35.203  21.112  0.0638  0.2862  0.1304
 1724BOLB   C2B41362  35.930  35.239  21.276  0.0122 -0.1088  0.2087
 1724BOLB   C3B41363  36.233  35.280  21.150  0.2012  0.0104 -0.1530
 1724BOLB   C4B41364  36.437  35.553  20.992  0.0183 -0.2512 -0.0305
 1724BOLB   NC241365  39.254  35.847  20.099  0.2649 -0.0188  0.0019
 1724BOLB   PO241366  39.029  35.722  20.531 -0.0732  0.0761 -0.2550
 1724BOLB   GL341367  38.606  35.409  20.730  0.0770 -0.2333 -0.1248
 1724BOLB   GL441368  38.584  35.141  20.508  0.4784  0.1844 -0.1602
 1724BOLB   C1C41369  38.245  35.201  20.889  0.2084  0.0143  0.0097
 1724BOLB   C2C41370  37.855  34.958  21.095  0.1124 -0.1993 -0.0703
 1724BOLB   C3C41371  37.495  34.885  21.098  0.1394  0.0794  0.4954
 1724BOLB   C4C41372  37.178  34.428  20.951 -0.0231  0.0039  0.2875
 1724BOLB   C1D41373  38.308  34.869  20.356 -0.0272 -0.2342 -0.1699
 1724BOLB   C2D41374  37.830  34.779  20.144 -0.0966 -0.1259  0.2157
 1724BOLB   C3D41375  37.413  34.621  20.092 -0.1134 -0.3012  0.2782
 1724BOLB   C4D41376  37.096  34.726  19.770  0.2632 -0.4237  0.0962
 1725BOLB   NC141377  27.393  34.612  14.973  0.1873 -0.0223 -0.2763
 1725BOLB   PO141378  27.204  34.743  15.256  0.0349 -0.0941  0.3536
 1725BOLB   GL141379  27.285  35.097  15.060 -0.3813 -0.3389 -0.0681
 1725BOLB   GL241380  27.127  35.048  14.802 -0.0250 -0.1833 -0.2210
 1725BOLB   C1A41381  27.200  35.508  14.914  0.1532  0.1241 -0.0722
 1725BOLB   C2A41382  27.334  35.792  14.647  0.2293 -0.1519  0.3912
 1725BOLB   C3A41383  27.253  36.110  14.396 -0.1000  0.0273 -0.1088
 1725BOLB   C4A41384  27.129  36.184  13.877 -0.0976 -0.2129  0.4306
 1725BOLB   C1B41385  26.941  35.324  14.528 -0.1339 -0.0638  0.0280
 1725BOLB   C2B41386  26.886  35.696  14.324  0.1245 -0.1441  0.1879
 1725BOLB   C3B41387  26.628  35.918  14.110  0.0444  0.0701 -0.2127
 1725BOLB   C4B41388  26.404  36.292  13.926 -0.1585  0.3283 -0.0107
 1725BOLB   NC241389  27.644  37.552  11.981 -0.0817  0.0658 -0.1124
 1725BOLB   PO241390  27.276  37.209  12.023 -0.0646  0.0990  0.4740
 1725BOLB   GL341391  27.246  36.897  12.339  0.2290  0.0350  0.1681
 1725BOLB   GL441392  27.416  36.665  12.195  0.1821  0.3431 -0.1160
 1725BOLB   C1C41393  27.142  36.556  12.647 -0.0647  0.1392 -0.0559
 1725BOLB   C2C41394  26.862  36.476  13.015  0.2331  0.2153 -0.0232
 1725BOLB   C3C41395  26.845  36.776  13.396  0.0641 -0.2284  0.0617
 1725BOLB   C4C41396  26.908  36.450  13.707 -0.0884  0.2440 -0.2695
 1725BOLB   C1D41397  27.489  36.237  12.361  0.0112 -0.6662  0.0155
 1725BOLB   C2D41398  27.644  35.961  12.673 -0.1591 -0.2480 -0.0282
 1725BOLB   C3D41399  27.653  35.624  13.067 -0.0426 -0.0239 -0.2408
 1725BOLB   C4D41400  27.436  35.298  13.202  0.1708 -0.1443  0.3488
 1726BOLB   NC141401  29.431  18.684  14.986 -0.1006  0.0835 -0.3230
 1726BOLB   PO141402  29.733  19.090  15.025  0.0998 -0.0060  0.0027
 1726BOLB   GL141403  29.607  19.451  15.260  0.0940 -0.1583 -0.2709
 1726BOLB   GL241404  29.352  19.369  15.453  0.3803  0.0908 -0.0416
 1726BOLB   C1A41405  29.549  19.854  15.371 -0.2721 -0.1894  0.1626
 1726BOLB   C2A41406  29.602  20.313  15.505 -0.0961 -0.0399  0.1317
 1726BOLB   C3A41407  29.392  20.639  15.679 -0.1942 -0.1251 -0.1579
 1726BOLB   C4A41408  29.610  20.943  15.732  0.1691 -0.1124 -0.0849
 1726BOLB   C1B41409  29.427  19.646  15.885  0.2334  0.0289  0.0314
 1726BOLB   C2B41410  29.430  19.825  16.352 -0.2919  0.3564 -0.0385
 1726BOLB   C3B41411  29.660  19.945  16.745 -0.0819  0.0278 -0.0488
 1726BOLB   C4B41412  29.644  20.064  17.105  0.1973 -0.1430 -0.0093
 1726BOLB   NC241413  30.812  19.988  14.514 -0.3729 -0.2106  0.1948
 1726BOLB   PO241414  30.828  20.366  14.292 -0.1150 -0.1772 -0.0016
 1726BOLB   GL341415  30.966  20.432  14.751  0.0330 -0.0300  0.0414
 1726BOLB   GL441416  30.886  20.199  14.990 -0.0117 -0.1249 -0.1137
 1726BOLB   C1C41417  30.903  20.678  15.067  0.2221  0.2136  0.1581
 1726BOLB   C2C41418  30.852  21.124  15.409  0.0401 -0.2479  0.4170
 1726BOLB   C3C41419  30.458  21.194  15.646  0.1158 -0.2098 -0.2516
 1726BOLB   C4C41420  30.011  20.951  15.634  0.2066 -0.2599 -0.1103
 1726BOLB   C1D41421  30.775  20.270  15.369  0.1581 -0.0299  0.0811
 1726BOLB   C2D41422  30.567  20.467  15.709  0.3202  0.1831 -0.1097
 1726BOLB   C3D41423  30.330  20.778  15.994  0.2971 -0.0195 -0.0859
 1726BOLB   C4D41424  30.178  21.226  16.260 -0.2259  0.0049  0.0106
 1727BOLB   NC141425  34.299  34.760  19.541  0.1824 -0.2581 -0.2943
 1727BOLB   PO141426  34.171  34.727  19.868 -0.3733 -0.2345 -0.0964
 1727BOLB   GL141427  34.411  35.108  19.829  0.1228 -0.4078  0.3179
 1727BOLB   GL241428  34.327  35.356  20.062  0.1157  0.1339  0.0091
 1727BOLB   C1A41429  34.807  35.172  19.798  0.2532 -0.1167  0.2935
 1727BOLB   C2A41430  35.221  35.391  19.895 -0.0870  0.0098 -0.0856
 1727BOLB   C3A41431  35.680  35.648  20.070  0.3406  0.0574 -0.3563
 1727BOLB   C4A41432  36.091  35.788  19.953  0.0880 -0.0312 -0.3519
 1727BOLB   C1B41433  34.713  35.597  20.045  0.0149 -0.1141 -0.4483
 1727BOLB   C2B41434  35.147  35.902  19.959  0.0994 -0.0472  0.0666
 1727BOLB   C3B41435  35.184  36.187  19.601  0.1154 -0.3511 -0.0924
 1727BOLB   C4B41436  35.458  36.207  19.203 -0.0914  0.1404 -0.3625
 1727BOLB   NC241437  38.064  36.399  18.972  0.3277  0.1596 -0.1856
 1727BOLB   PO241438  37.998  36.589  19.418  0.0739  0.0654  0.2771
 1727BOLB   GL341439  37.578  36.524  19.168 -0.2973 -0.2679  0.1089
 1727BOLB   GL441440  37.532  36.748  18.933  0.3348  0.0505 -0.2427
 1727BOLB   C1C41441  37.247  36.261  19.323  0.2648 -0.1332  0.3260
 1727BOLB   C2C41442  37.047  36.176  19.613 -0.0775  0.0385 -0.1775
 1727BOLB   C3C41443  36.807  36.083  19.994 -0.2985  0.3477  0.1964
 1727BOLB   C4C41444  36.425  36.027  20.083  0.1858  0.1774 -0.0815
 1727BOLB   C1D41445  37.159  36.487  18.800  0.4585  0.0773  0.3825
 1727BOLB   C2D41446  37.121  35.994  18.896  0.0039 -0.0333 -0.0567
 1727BOLB   C3D41447  36.887  35.660  18.770 -0.1908 -0.1193  0.1125
 1727BOLB   C4D41448  36.718  35.271  18.846 -0.1801  0.1325  0.1474
 1728BOLB   NC141449  19.486  20.852   3.444  0.1387 -0.2008 -0.0089
 1728BOLB   PO141450  19.769  20.612   3.712 -0.1169  0.3702 -0.1310
 1728BOLB   GL141451  20.153  20.758   3.738  0.0719  0.0561  0.2470
 1728BOLB   GL241452  20.101  21.052   3.690 -0.1267  0.1867 -0.1806
 1728BOLB   C1A41453  20.570  20.887   3.638  0.2379 -0.1936 -0.2020
 1728BOLB   C2A41454  20.865  21.139   3.670 -0.1481 -0.2978  0.1642
 1728BOLB   C3A41455  21.023  21.434   3.246  0.2445 -0.0918  0.1478
 1728BOLB   C4A41456  20.875  21.449   2.713  0.3272  0.0383  0.0603
 1728BOLB   C1B41457  20.392  21.416   3.766  0.1410 -0.2090 -0.0686
 1728BOLB   C2B41458  20.655  21.679   3.678  0.1165  0.2242  0.0063
 1728BOLB   C3B41459  20.610  22.039   3.419  0.1301 -0.1104  0.4226
 1728BOLB   C4B41460  20.806  22.360   3.221  0.0201  0.0735 -0.0774
 1728BOLB   NC241461  19.387  19.462   3.320 -0.0208 -0.1431  0.0652
 1728BOLB   PO241462  19.710  19.480   2.896 -0.2153 -0.3923  0.0871
 1728BOLB   GL341463  19.953  19.908   2.720  0.2046  0.1287  0.2314
 1728BOLB   GL441464  20.032  19.951   2.407 -0.4506  0.0239  0.0676
 1728BOLB   C1C41465  20.118  20.245   2.845 -0.0626 -0.1025 -0.1683
 1728BOLB   C2C41466  20.028  20.708   2.854 -0.2318  0.3115  0.1784
 1728BOLB   C3C41467  20.134  21.111   2.716 -0.3580  0.0412 -0.3042
 1728BOLB   C4C41468  20.500  21.351   2.612  0.0926 -0.0271  0.0604
 1728BOLB   C1D41469  20.381  20.353   2.450  0.0974  0.1892 -0.2082
 1728BOLB   C2D41470  20.566  20.737   2.719  0.2617 -0.0069 -0.1700
 1728BOLB   C3D41471  20.924  20.934   2.718 -0.1014  0.1134  0.0393
 1728BOLB   C4D41472  21.047  21.084   2.294  0.2102 -0.1460  0.1384
 1729BOLB   NC141473  33.702  39.836  15.901  0.0850 -0.0731 -0.0961
 1729BOLB   PO141474  33.813  39.370  15.837 -0.2682  0.0931 -0.0603
 1729BOLB   GL141475  33.699  39.070  16.098 -0.2085  0.0416  0.1299
 1729BOLB   GL241476  33.844  38.796  16.287  0.0064 -0.0243  0.0234
 1729BOLB   C1A41477  33.353  38.813  16.263  0.4346  0.0901  0.2549
 1729BOLB   C2A41478  33.531  38.344  16.374 -0.3143 -0.0368 -0.3114
 1729BOLB   C3A41479  33.275  38.052  16.475 -0.1425  0.3809 -0.0735
 1729BOLB   C4A41480  32.972  37.962  16.708  0.0672  0.2158  0.0957
 1729BOLB   C1B41481  33.719  38.624  16.693  0.2292 -0.0388 -0.0392
 1729BOLB   C2B41482  34.069  38.344  16.825 -0.0515 -0.3387 -0.2236
 1729BOLB   C3B41483  34.070  38.029  17.133  0.1902  0.3353  0.0120
 1729BOLB   C4B41484  33.778  37.860  17.507  0.2016 -0.2458  0.0552
 1729BOLB   NC241485  33.714  40.078  17.595  0.0927  0.0706 -0.0852
 1729BOLB   PO241486  33.346  40.087  17.496 -0.2435  0.1481  0.2682
 1729BOLB   GL341487  33.114  39.716  17.497  0.1481 -0.1769  0.3703
 1729BOLB   GL441488  32.856  39.667  17.302 -0.1895 -0.1678 -0.1404
 1729BOLB   C1C41489  32.988  39.211  17.474 -0.0387 -0.0411  0.0718
 1729BOLB   C2C41490  32.919  38.780  17.526 -0.2576  0.1517 -0.1496
 1729BOLB   C3C41491  32.827  38.306  17.449  0.1997  0.0542  0.0322
 1729BOLB   C4C41492  32.967  38.069  17.041 -0.0729  0.2312  0.0682
 1729BOLB   C1D41493  32.546  39.531  17.627 -0.2275 -0.1076 -0.1377
 1729BOLB   C2D41494  32.180  39.215  17.575  0.0775  0.1354  0.4603
 1729BOLB   C3D41495  32.047  38.859  17.475  0.1987 -0.1265  0.0243
 1729BOLB   C4D41496  32.010  38.411  17.404 -0.0757 -0.0006  0.1268
 1730BOLB   NC141497  33.585  26.598  26.730 -0.0245 -0.0877  0.1923
 1730BOLB   PO141498  33.301  26.377  26.357 -0.1362  0.0102 -0.2552
 1730BOLB   GL141499  33.568  26.031  26.459 -0.0821  0.0532  0.0428
 1730BOLB   GL241500  33.864  26.105  26.528 -0.0548 -0.2801  0.1123
 1730BOLB   C1A41501  33.620  25.685  26.690 -0.2055  0.0545 -0.0276
 1730BOLB   C2A41502  33.984  25.550  26.812  0.1647  0.2708  0.0429
 1730BOLB   C3A41503  34.352  25.243  26.912 -0.5172  0.0585 -0.2824
 1730BOLB   C4A41504  34.626  25.061   0.324  0.2460  0.0232 -0.2397
 1730BOLB   C1B41505  34.272  25.856  26.532  0.4581 -0.0151  0.2696
 1730BOLB   C2B41506  34.575  25.825  26.860 -0.0358  0.1049 -0.3547
 1730BOLB   C3B41507  34.827  25.560   0.222 -0.1450  0.1387 -0.0426
 1730BOLB   C4B41508  35.130  25.560   0.509 -0.2859  0.0662 -0.1884
 1730BOLB   NC241509  36.461  24.647   1.689 -0.0981 -0.2090 -0.0478
 1730BOLB   PO241510  36.373  24.561   1.360 -0.0511 -0.0930 -0.2390
 1730BOLB   GL341511  36.008  24.612   1.288  0.0166  0.0398 -0.0759
 1730BOLB   GL441512  35.838  24.466   0.982 -0.1943  0.0660  0.0007
 1730BOLB   C1C41513  35.624  24.908   1.420  0.1118  0.1336  0.0453
 1730BOLB   C2C41514  35.447  25.074   1.121 -0.2229 -0.2711  0.1185
 1730BOLB   C3C41515  35.277  25.183   0.784  0.1031 -0.1342  0.2421
 1730BOLB   C4C41516  34.986  24.990   0.497 -0.1492 -0.1063  0.0776
 1730BOLB   C1D41517  35.527  24.244   0.771 -0.1395 -0.3045  0.0093
 1730BOLB   C2D41518  35.208  24.419   0.460 -0.1406 -0.0850 -0.7491
 1730BOLB   C3D41519  34.895  24.568   0.132  0.1261  0.0324  0.0073
 1730BOLB   C4D41520  34.415  24.633   0.077 -0.2260 -0.1027  0.4798
 1731BOLB   NC141521  31.937  22.798  23.296  0.1358 -0.2415 -0.0122
 1731BOLB   PO141522  32.363  22.872  23.504  0.2745  0.0671  0.0996
 1731BOLB   GL141523  32.451  22.448  23.768  0.1045  0.1497  0.0095
 1731BOLB   GL241524  32.587  22.113  23.653 -0.0850 -0.1237  0.0961
 1731BOLB   C1A41525  32.528  22.297  24.197  0.0274 -0.3516  0.2597
 1731BOLB   C2A41526  32.616  22.063  24.491  0.0392 -0.0288  0.3428
 1731BOLB   C3A41527  32.728  21.677  24.560 -0.2314  0.4115  0.3096
 1731BOLB   C4A41528  32.722  21.263  24.451  0.1371 -0.4436 -0.1057
 1731BOLB   C1B41529  32.599  21.850  24.001 -0.0458 -0.0418 -0.2605
 1731BOLB   C2B41530  32.251  21.686  24.405 -0.0117  0.3515  0.2634
 1731BOLB   C3B41531  32.257  21.400  24.756  0.2745 -0.2241  0.0974
 1731BOLB   C4B41532  32.490  21.190  25.176  0.0635  0.2101  0.0576
 1731BOLB   NC241533  33.266  18.986  24.311 -0.4507  0.0825  0.0973
 1731BOLB   PO241534  32.997  18.759  23.989  0.3701  0.1230 -0.1729
 1731BOLB   GL341535  32.933  19.295  24.136 -0.1065 -0.0869  0.2113
 1731BOLB   GL441536  32.560  19.325  24.027  0.0284  0.1588  0.0276
 1731BOLB   C1C41537  32.881  19.674  24.267 -0.3208  0.3115 -0.2093
 1731BOLB   C2C41538  32.824  20.065  24.345  0.0490 -0.1154  0.2877
 1731BOLB   C3C41539  32.713  20.543  24.320  0.2564 -0.0810 -0.2851
 1731BOLB   C4C41540  32.643  20.940  24.298  0.0215 -0.0301  0.0825
 1731BOLB   C1D41541  32.279  19.358  23.664  0.0428 -0.1337 -0.1668
 1731BOLB   C2D41542  32.129  19.043  23.415 -0.1201 -0.2408  0.2694
 1731BOLB   C3D41543  31.887  18.812  23.057  0.3392  0.0682 -0.0964
 1731BOLB   C4D41544  31.566  18.551  23.014 -0.0744 -0.2072 -0.0342
 1732BOLB   NC141545  24.506  29.605  13.379 -0.3176 -0.1274  0.2013
 1732BOLB   PO141546  24.350  29.848  13.736  0.1272 -0.3678 -0.2492
 1732BOLB   GL141547  24.061  29.893  13.425  0.0319  0.0535  0.0137
 1732BOLB   GL241548  24.297  29.991  13.113  0.2763 -0.2910  0.0985
 1732BOLB   C1A41549  23.818  29.728  13.077 -0.3428 -0.4159  0.1027
 1732BOLB   C2A41550  23.783  29.874  12.674 -0.0909  0.0889  0.1404
 1732BOLB   C3A41551  23.695  30.144  12.320 -0.0143 -0.0156  0.2811
 1732BOLB   C4A41552  23.783  30.225  11.873 -0.0357  0.0210  0.1853
 1732BOLB   C1B41553  24.274  29.805  12.777 -0.0961  0.0356 -0.1110
 1732BOLB   C2B41554  24.550  29.623  12.433  0.1968  0.0010 -0.2194
 1732BOLB   C3B41555  24.809  29.275  12.230  0.1211  0.0274 -0.5276
 1732BOLB   C4B41556  25.041  28.866  12.327 -0.0516  0.1133  0.3603
 1732BOLB   NC241557  23.797  28.480   9.886  0.3773  0.3462  0.3699
 1732BOLB   PO241558  23.884  28.921   9.780 -0.2740  0.1365 -0.0824
 1732BOLB   GL341559  23.803  28.916  10.116  0.2827 -0.2299  0.0152
 1732BOLB   GL441560  23.458  28.978  10.091  0.1247  0.3710 -0.2125
 1732BOLB   C1C41561  23.828  29.081  10.576 -0.3569  0.0201  0.3976
 1732BOLB   C2C41562  23.866  29.504  10.887 -0.0071  0.5261 -0.1612
 1732BOLB   C3C41563  23.850  29.852  11.094 -0.2003  0.1092 -0.0131
 1732BOLB   C4C41564  23.803  30.123  11.428 -0.2675  0.0268  0.0203
 1732BOLB   C1D41565  23.401  29.322  10.316  0.2235 -0.2078 -0.1105
 1732BOLB   C2D41566  23.247  29.620  10.594  0.1362 -0.0914 -0.2578
 1732BOLB   C3D41567  23.392  30.037  10.816  0.2709  0.1605 -0.1322
 1732BOLB   C4D41568  23.368  30.093  11.182 -0.1653  0.0443  0.0509
 1733BOLB   NC141569  35.059  34.085  22.345  0.1945 -0.1801  0.1168
 1733BOLB   PO141570  35.274  34.054  21.884 -0.2406 -0.1662 -0.2244
 1733BOLB   GL141571  35.545  34.366  22.044 -0.1364  0.0142 -0.1447
 1733BOLB   GL241572  35.444  34.418  22.369  0.0916  0.0977 -0.0663
 1733BOLB   C1A41573  35.742  34.833  21.964 -0.0638 -0.1673 -0.2412
 1733BOLB   C2A41574  36.021  35.108  21.861 -0.1222 -0.2294  0.0218
 1733BOLB   C3A41575  36.253  35.205  21.668  0.1481 -0.0071 -0.2278
 1733BOLB   C4A41576  36.465  35.564  21.684  0.0217  0.1994 -0.3237
 1733BOLB   C1B41577  35.831  34.533  22.409 -0.2549  0.0492 -0.2426
 1733BOLB   C2B41578  36.130  34.777  22.553  0.1572  0.1064  0.1202
 1733BOLB   C3B41579  36.415  35.017  22.771  0.0279  0.0402  0.0809
 1733BOLB   C4B41580  36.700  35.177  23.099 -0.0720 -0.2739  0.0638
 1733BOLB   NC241581  37.948  36.855  20.684 -0.0713  0.1334 -0.0476
 1733BOLB   PO241582  37.729  37.161  20.677  0.0020  0.0053 -0.3294
 1733BOLB   GL341583  37.421  37.162  20.902 -0.2818 -0.2165 -0.0223
 1733BOLB   GL441584  37.173  37.155  20.734  0.0633 -0.1375  0.0886
 1733BOLB   C1C41585  37.271  36.830  21.194  0.2745 -0.0394  0.1448
 1733BOLB   C2C41586  37.202  36.352  21.341  0.2886 -0.1674  0.0931
 1733BOLB   C3C41587  37.170  35.916  21.413  0.1542  0.0297  0.1407
 1733BOLB   C4C41588  36.799  35.721  21.635 -0.0506 -0.0110 -0.0646
 1733BOLB   C1D41589  36.896  36.828  20.603  0.1884  0.2499  0.2826
 1733BOLB   C2D41590  36.443  36.678  20.744 -0.0835  0.2154 -0.1274
 1733BOLB   C3D41591  36.161  36.835  20.954  0.0892  0.4469  0.0413
 1733BOLB   C4D41592  35.915  36.752  21.295 -0.1276 -0.0164 -0.1070
 1734BOLB   NC141593  23.549  36.010  24.144  0.0962 -0.0553  0.1341
 1734BOLB   PO141594  23.239  35.884  24.463  0.2090  0.0574 -0.3505
 1734BOLB   GL141595  23.112  36.231  24.601  0.0528  0.1462 -0.0820
 1734BOLB   GL241596  22.799  36.244  24.637  0.3279 -0.0776 -0.1291
 1734BOLB   C1A41597  23.036  36.693  24.573  0.0636 -0.1443  0.0225
 1734BOLB   C2A41598  22.839  37.101  24.610 -0.0425 -0.0088  0.3374
 1734BOLB   C3A41599  22.595  37.427  24.588 -0.0989  0.0607 -0.2358
 1734BOLB   C4A41600  22.512  37.814  24.745  0.0254 -0.0549  0.2554
 1734BOLB   C1B41601  22.713  36.607  24.918  0.0434 -0.3978 -0.1186
 1734BOLB   C2B41602  22.792  36.752  25.281 -0.0172  0.0463  0.2154
 1734BOLB   C3B41603  22.669  37.043  25.534  0.0520  0.0425 -0.2273
 1734BOLB   C4B41604  22.660  37.407  25.569 -0.1629  0.2209  0.0109
 1734BOLB   NC241605  20.625  39.074  25.759 -0.0344 -0.3656  0.1470
 1734BOLB   PO241606  21.198  39.230  25.790  0.0250 -0.2631 -0.0464
 1734BOLB   GL341607  21.671  39.254  25.615 -0.0802  0.2796  0.3477
 1734BOLB   GL441608  21.743  39.301  25.897 -0.0262 -0.1705 -0.1005
 1734BOLB   C1C41609  22.104  39.090  25.591 -0.1777  0.0729  0.2724
 1734BOLB   C2C41610  22.395  38.713  25.522  0.5214  0.2713  0.0192
 1734BOLB   C3C41611  22.373  38.414  25.327  0.0738 -0.0601  0.1310
 1734BOLB   C4C41612  22.244  38.157  24.944  0.0759 -0.1737  0.1372
 1734BOLB   C1D41613  21.806  38.848  25.912 -0.2127  0.0011  0.0728
 1734BOLB   C2D41614  21.914  38.473  25.777 -0.3145  0.0415 -0.3765
 1734BOLB   C3D41615  22.136  38.067  25.916  0.0308 -0.2313  0.5570
 1734BOLB   C4D41616  22.292  37.775  25.758 -0.3077  0.3249 -0.0416
 1735BOLB   NC141617  30.098  32.671   1.851  0.0848 -0.1118 -0.0333
 1735BOLB   PO141618  30.299  32.501   2.109  0.2253 -0.0821  0.1122
 1735BOLB   GL141619  30.546  32.540   2.494 -0.1714  0.2439 -0.3392
 1735BOLB   GL241620  30.827  32.731   2.495 -0.1507 -0.1135  0.1991
 1735BOLB   C1A41621  30.510  32.430   2.831 -0.1054  0.0578 -0.3099
 1735BOLB   C2A41622  30.486  32.464   3.243 -0.0361  0.0153  0.1871
 1735BOLB   C3A41623  30.686  32.598   3.542 -0.3007  0.0410  0.0134
 1735BOLB   C4A41624  30.520  32.660   3.979  0.1439  0.0907 -0.0466
 1735BOLB   C1B41625  30.979  32.909   2.995  0.1293  0.4971 -0.2475
 1735BOLB   C2B41626  31.308  33.011   3.086 -0.1403  0.0929 -0.3118
 1735BOLB   C3B41627  31.388  33.086   3.524 -0.0704  0.1153  0.0194
 1735BOLB   C4B41628  31.264  32.990   3.922  0.1633 -0.1622  0.0701
 1735BOLB   NC241629  29.758  33.703   6.188  0.2361 -0.1285 -0.1619
 1735BOLB   PO241630  30.244  33.586   6.359 -0.0511  0.0118  0.1388
 1735BOLB   GL341631  30.388  33.530   5.846  0.5740 -0.1660 -0.1622
 1735BOLB   GL441632  30.660  33.543   5.706 -0.1778  0.2717 -0.2056
 1735BOLB   C1C41633  30.181  33.348   5.406 -0.0847  0.0584 -0.2065
 1735BOLB   C2C41634  30.211  33.282   4.888 -0.0807  0.4263 -0.1295
 1735BOLB   C3C41635  30.357  32.860   4.702 -0.1538  0.1193  0.2347
 1735BOLB   C4C41636  30.311  32.671   4.360 -0.0975 -0.3896  0.0083
 1735BOLB   C1D41637  30.707  33.484   5.318  0.1511 -0.2402 -0.2071
 1735BOLB   C2D41638  30.693  33.388   4.930 -0.1849 -0.1014 -0.1091
 1735BOLB   C3D41639  30.692  33.290   4.638  0.0167  0.1276  0.0675
 1735BOLB   C4D41640  30.845  32.854   4.662  0.0093 -0.1277  0.2913
 1736BOLB   NC141641  31.446  29.600  14.530 -0.0544 -0.1070  0.0095
 1736BOLB   PO141642  31.075  29.900  14.476 -0.1577 -0.2391  0.3305
 1736BOLB   GL141643  31.212  29.728  14.083 -0.0466 -0.1830  0.1249
 1736BOLB   GL241644  31.569  29.717  14.005  0.1561  0.0329  0.1367
 1736BOLB   C1A41645  31.255  29.440  13.720 -0.0609  0.1169  0.1585
 1736BOLB   C2A41646  31.318  29.243  13.321  0.0481  0.1505 -0.0916
 1736BOLB   C3A41647  31.670  29.205  13.010  0.3676 -0.0647  0.1305
 1736BOLB   C4A41648  31.567  29.519  12.617 -0.2125 -0.1044 -0.3540
 1736BOLB   C1B41649  31.648  29.735  13.550 -0.0213  0.0907 -0.1449
 1736BOLB   C2B41650  31.849  29.687  13.176  0.2992  0.0349 -0.0089
 1736BOLB   C3B41651  32.079  29.480  12.924  0.3626 -0.1949 -0.1272
 1736BOLB   C4B41652  32.496  29.358  12.662  0.2160 -0.1433  0.0588
 1736BOLB   NC241653  32.797  29.777   9.987 -0.0411  0.0392  0.0279
 1736BOLB   PO241654  32.688  29.540  10.352 -0.0683  0.0126  0.0339
 1736BOLB   GL341655  32.553  29.743  10.791  0.3753 -0.0266 -0.0829
 1736BOLB   GL441656  32.775  29.808  10.983 -0.0840  0.1891 -0.0607
 1736BOLB   C1C41657  32.249  29.634  11.115 -0.0658  0.3952 -0.0636
 1736BOLB   C2C41658  32.019  29.786  11.509  0.0729  0.0717  0.1025
 1736BOLB   C3C41659  31.724  29.570  11.843  0.1012 -0.1829 -0.0911
 1736BOLB   C4C41660  31.727  29.590  12.261  0.0943  0.1254 -0.2313
 1736BOLB   C1D41661  32.692  29.490  11.321 -0.2784 -0.0935 -0.1065
 1736BOLB   C2D41662  32.760  29.592  11.743  0.1043 -0.0274 -0.1395
 1736BOLB   C3D41663  32.801  29.595  12.089  0.3954  0.1239  0.0353
 1736BOLB   C4D41664  32.806  29.730  12.484 -0.0385 -0.3050  0.1557
 1737BOLB   NC141665  23.258  28.212  14.957  0.1917  0.0708  0.2450
 1737BOLB   PO141666  23.002  28.429  14.709 -0.2838  0.1123 -0.1335
 1737BOLB   GL141667  22.784  28.319  14.277 -0.2458  0.0504 -0.1274
 1737BOLB   GL241668  22.510  28.472  14.241 -0.1291 -0.1802 -0.0355
 1737BOLB   C1A41669  22.824  28.374  13.778 -0.0336  0.0189 -0.1585
 1737BOLB   C2A41670  22.607  28.310  13.410  0.1145  0.1444  0.0670
 1737BOLB   C3A41671  22.317  28.169  13.078 -0.2524  0.1047  0.1839
 1737BOLB   C4A41672  21.940  27.997  13.045 -0.0770  0.2716 -0.2907
 1737BOLB   C1B41673  22.317  28.331  13.855 -0.1361 -0.2328  0.1165
 1737BOLB   C2B41674  22.281  27.968  13.512 -0.0614  0.2570  0.0966
 1737BOLB   C3B41675  22.024  27.574  13.316  0.1904 -0.0364 -0.1458
 1737BOLB   C4B41676  21.592  27.547  13.124 -0.3318 -0.1409 -0.1286
 1737BOLB   NC241677  21.991  26.800  10.643  0.0520  0.0344 -0.0285
 1737BOLB   PO241678  21.900  26.991  11.026  0.2600 -0.0192 -0.0718
 1737BOLB   GL341679  21.868  26.975  11.397  0.3703 -0.1359 -0.0598
 1737BOLB   GL441680  22.087  26.772  11.600  0.4027  0.0758 -0.2434
 1737BOLB   C1C41681  21.816  27.235  11.748 -0.2062 -0.2306 -0.1409
 1737BOLB   C2C41682  21.689  27.357  12.244 -0.2641 -0.2326 -0.2119
 1737BOLB   C3C41683  21.671  27.637  12.381 -0.2181 -0.2299  0.0926
 1737BOLB   C4C41684  21.834  27.706  12.714  0.0899 -0.1186  0.0099
 1737BOLB   C1D41685  22.015  26.846  12.023  0.1406 -0.3715  0.1204
 1737BOLB   C2D41686  22.085  26.958  12.359  0.1223  0.0267  0.3593
 1737BOLB   C3D41687  22.385  27.233  12.543  0.0818 -0.3272 -0.1536
 1737BOLB   C4D41688  22.696  27.628  12.602 -0.1131 -0.1716  0.1363
 1738BOLB   NC141689  16.417  26.164  15.836  0.0710 -0.2629 -0.2317
 1738BOLB   PO141690  16.631  25.905  16.145  0.1633  0.1612  0.2253
 1738BOLB   GL141691  17.054  25.969  16.332  0.1671  0.3240 -0.0733
 1738BOLB   GL241692  17.245  26.378  16.307  0.0505 -0.0066  0.3326
 1738BOLB   C1A41693  17.172  25.897  16.754  0.0145  0.0078 -0.0443
 1738BOLB   C2A41694  17.259  25.920  17.188 -0.0482  0.2769 -0.1843
 1738BOLB   C3A41695  17.015  26.055  17.596  0.0022 -0.2591  0.0100
 1738BOLB   C4A41696  17.252  26.420  17.964  0.0843  0.1207 -0.2065
 1738BOLB   C1B41697  17.585  26.229  16.718  0.1320  0.0627  0.1165
 1738BOLB   C2B41698  17.924  26.056  16.692 -0.2310  0.1426  0.0088
 1738BOLB   C3B41699  18.061  25.932  16.309  0.2062  0.2292  0.2024
 1738BOLB   C4B41700  18.293  25.778  15.968  0.3861 -0.1106  0.3229
 1738BOLB   NC241701  15.045  27.275  16.945  0.0330 -0.2559 -0.1711
 1738BOLB   PO241702  15.306  26.880  17.114  0.1469 -0.2169  0.0272
 1738BOLB   GL341703  15.675  27.044  17.299  0.0083  0.0349  0.0257
 1738BOLB   GL441704  15.669  26.973  17.599 -0.0906 -0.3092  0.3052
 1738BOLB   C1C41705  16.100  26.840  17.414  0.0612  0.1759  0.0357
 1738BOLB   C2C41706  16.446  26.923  17.577 -0.2206 -0.1732  0.2203
 1738BOLB   C3C41707  16.705  27.016  17.974  0.0082  0.0081  0.0617
 1738BOLB   C4C41708  17.109  26.782  18.121 -0.0891  0.0662  0.1208
 1738BOLB   C1D41709  16.006  26.966  17.858  0.1499 -0.2263  0.2735
 1738BOLB   C2D41710  16.227  27.018  18.202  0.0577 -0.0339 -0.0142
 1738BOLB   C3D41711  16.574  27.139  18.494 -0.2437  0.2485  0.4074
 1738BOLB   C4D41712  16.724  27.484  18.626 -0.1267 -0.1616  0.1656
 1739BOLB   NC141713  34.342  29.879  16.434  0.2819 -0.1760 -0.0568
 1739BOLB   PO141714  34.479  29.537  16.714 -0.0041  0.0315  0.0016
 1739BOLB   GL141715  34.756  29.573  16.343 -0.0789 -0.0108  0.1231
 1739BOLB   GL241716  34.994  29.451  16.320 -0.1236 -0.0766 -0.0888
 1739BOLB   C1A41717  35.070  29.857  16.008  0.0098  0.2379  0.2686
 1739BOLB   C2A41718  35.321  29.600  15.710 -0.1308 -0.0788 -0.1874
 1739BOLB   C3A41719  35.640  29.492  15.345  0.1225 -0.2707  0.1139
 1739BOLB   C4A41720  35.712  29.175  15.091  0.2494 -0.0466  0.0547
 1739BOLB   C1B41721  35.531  29.405  16.324 -0.2637  0.2606  0.0210
 1739BOLB   C2B41722  36.013  29.493  16.252 -0.0422 -0.1202  0.1518
 1739BOLB   C3B41723  36.453  29.704  16.026  0.2661 -0.0394 -0.2651
 1739BOLB   C4B41724  36.795  29.729  15.766 -0.2133 -0.3919 -0.1042
 1739BOLB   NC241725  36.833  27.686  13.756 -0.2795  0.1360 -0.2853
 1739BOLB   PO241726  36.841  27.308  13.902 -0.0365 -0.0571  0.3539
 1739BOLB   GL341727  36.494  27.537  14.131 -0.2115 -0.1032 -0.2443
 1739BOLB   GL441728  36.318  27.349  14.436 -0.2021  0.1202  0.3493
 1739BOLB   C1C41729  36.302  27.895  14.444  0.2439  0.3343 -0.0991
 1739BOLB   C2C41730  36.104  28.188  14.701 -0.0964 -0.4100  0.2473
 1739BOLB   C3C41731  35.871  28.521  14.675  0.1743 -0.3378  0.1686
 1739BOLB   C4C41732  35.672  28.814  14.875 -0.1434  0.0071  0.0253
 1739BOLB   C1D41733  35.968  27.346  14.328  0.2678 -0.2975  0.1022
 1739BOLB   C2D41734  35.562  27.461  14.331  0.0529 -0.3311 -0.1045
 1739BOLB   C3D41735  35.281  27.657  14.596 -0.1873  0.0469 -0.0061
 1739BOLB   C4D41736  35.081  27.848  14.944 -0.0047  0.2850  0.2605
 1740BOLB   NC141737  30.432  27.744   2.446 -0.0462 -0.2935 -0.0771
 1740BOLB   PO141738  30.312  27.286   2.358  0.1741  0.1786  0.4273
 1740BOLB   GL141739  30.600  27.251   2.554  0.0871  0.2695 -0.1680
 1740BOLB   GL241740  30.870  27.105   2.452  0.2471  0.0642 -0.1576
 1740BOLB   C1A41741  30.788  27.157   2.923  0.0953  0.1234  0.1616
 1740BOLB   C2A41742  31.146  26.971   3.056 -0.2150  0.0867 -0.1860
 1740BOLB   C3A41743  31.189  26.566   3.073  0.1894 -0.0390  0.0759
 1740BOLB   C4A41744  31.337  26.358   3.350 -0.1865 -0.1438  0.1555
 1740BOLB   C1B41745  30.898  26.745   2.641 -0.4036 -0.3730 -0.3540
 1740BOLB   C2B41746  30.692  26.639   3.002  0.1345 -0.2653 -0.1527
 1740BOLB   C3B41747  30.732  26.345   3.378  0.1079  0.3852 -0.1737
 1740BOLB   C4B41748  30.860  25.962   3.724  0.0238  0.2091 -0.0384
 1740BOLB   NC241749  31.489  26.351   5.989  0.3019  0.0822  0.0824
 1740BOLB   PO241750  31.950  26.284   5.760  0.0594 -0.2700 -0.0128
 1740BOLB   GL341751  31.915  26.507   5.370 -0.1545  0.2838  0.1517
 1740BOLB   GL441752  32.004  26.764   5.297 -0.0586  0.2563  0.1007
 1740BOLB   C1C41753  31.770  26.451   4.902  0.1708 -0.3734  0.2085
 1740BOLB   C2C41754  31.414  26.382   4.578 -0.1230  0.0270  0.0262
 1740BOLB   C3C41755  31.416  26.143   4.260  0.0697 -0.0294  0.0353
 1740BOLB   C4C41756  31.478  26.246   3.788  0.4993 -0.1001  0.2455
 1740BOLB   C1D41757  31.918  27.105   5.054 -0.2033  0.2424  0.0541
 1740BOLB   C2D41758  31.906  27.362   4.624  0.0713  0.0804 -0.2117
 1740BOLB   C3D41759  32.035  27.512   4.214 -0.0265 -0.1158 -0.0333
 1740BOLB   C4D41760  32.123  27.864   3.814  0.0214  0.0403  0.1575
 1741BOLB   NC141761  17.420  20.419  16.963 -0.1759 -0.1500  0.2013
 1741BOLB   PO141762  17.036  20.555  16.993 -0.1195 -0.2146  0.3173
 1741BOLB   GL141763  17.077  20.397  17.413 -0.0028  0.1824  0.0160
 1741BOLB   GL241764  17.331  20.599  17.469 -0.1090 -0.2066  0.1072
 1741BOLB   C1A41765  17.278  20.241  17.805 -0.3772 -0.1362 -0.3647
 1741BOLB   C2A41766  17.178  20.333  18.134  0.0290  0.0453  0.0019
 1741BOLB   C3A41767  17.334  20.233  18.501  0.1926 -0.1112  0.1637
 1741BOLB   C4A41768  17.724  20.382  18.684  0.0751 -0.0143 -0.0488
 1741BOLB   C1B41769  17.565  20.937  17.368 -0.0363 -0.1760  0.0502
 1741BOLB   C2B41770  17.664  21.350  17.526  0.0237 -0.0919 -0.2269
 1741BOLB   C3B41771  17.802  21.787  17.562  0.1234  0.2532 -0.0033
 1741BOLB   C4B41772  17.702  22.209  17.537 -0.2264 -0.3403 -0.0890
 1741BOLB   NC241773  17.750  18.008  18.442 -0.0928  0.2589 -0.1152
 1741BOLB   PO241774  17.939  18.458  18.312 -0.3910 -0.0150 -0.0629
 1741BOLB   GL341775  18.273  18.636  18.613 -0.1595  0.1844 -0.0316
 1741BOLB   GL441776  18.434  18.526  19.038 -0.1189  0.0927  0.0104
 1741BOLB   C1C41777  18.396  19.013  18.806 -0.1347  0.2398 -0.3004
 1741BOLB   C2C41778  18.552  19.443  18.575  0.4140 -0.2353  0.0576
 1741BOLB   C3C41779  18.470  19.933  18.527  0.0318  0.2096  0.0317
 1741BOLB   C4C41780  18.062  20.094  18.756  0.1670  0.1649 -0.0528
 1741BOLB   C1D41781  18.801  18.804  19.211 -0.0081 -0.1810 -0.2121
 1741BOLB   C2D41782  19.020  19.108  19.206 -0.0697  0.3074 -0.2138
 1741BOLB   C3D41783  19.233  19.349  18.924 -0.0296  0.2690 -0.0641
 1741BOLB   C4D41784  19.428  19.721  19.241 -0.2093  0.2141 -0.2322
 1742BOLB   NC141785  28.432  16.541  21.251 -0.2477 -0.0627  0.2566
 1742BOLB   PO141786  28.129  16.849  21.396 -0.0034  0.0756  0.1141
 1742BOLB   GL141787  28.212  17.284  21.368 -0.3046 -0.0657 -0.3696
 1742BOLB   GL241788  27.975  17.382  21.733 -0.1761  0.2727  0.3873
 1742BOLB   C1A41789  28.153  17.666  21.142  0.0050 -0.0326  0.1194
 1742BOLB   C2A41790  28.232  18.022  20.868  0.2279 -0.2518 -0.1991
 1742BOLB   C3A41791  28.410  18.348  20.873  0.3838  0.0127  0.2675
 1742BOLB   C4A41792  28.564  18.649  20.889 -0.0171 -0.0202 -0.2283
 1742BOLB   C1B41793  27.775  17.825  21.569  0.1372  0.0579 -0.2137
 1742BOLB   C2B41794  27.554  18.065  21.643  0.0292 -0.1794  0.1286
 1742BOLB   C3B41795  27.455  17.962  22.135  0.0313 -0.2902 -0.2602
 1742BOLB   C4B41796  27.232  17.932  22.526  0.0228  0.0364 -0.2092
 1742BOLB   NC241797  30.309  17.694  20.885  0.0310 -0.3001 -0.0248
 1742BOLB   PO241798  29.944  17.540  21.057 -0.2154 -0.2769 -0.2174
 1742BOLB   GL341799  30.107  17.959  21.300 -0.2628  0.1608  0.1228
 1742BOLB   GL441800  29.871  17.914  21.432  0.1848 -0.0531 -0.1765
 1742BOLB   C1C41801  30.030  18.370  21.234  0.0269  0.3608  0.0206
 1742BOLB   C2C41802  29.648  18.588  21.429 -0.1972 -0.0455 -0.1320
 1742BOLB   C3C41803  29.373  18.850  21.224  0.0480 -0.2448 -0.0822
 1742BOLB   C4C41804  29.042  18.781  20.916  0.1358  0.0698  0.0590
 1742BOLB   C1D41805  29.406  18.129  21.407 -0.0402 -0.1542  0.1954
 1742BOLB   C2D41806  29.232  18.442  21.631  0.0606  0.1277  0.2429
 1742BOLB   C3D41807  29.333  18.895  21.724  0.1135 -0.3612 -0.0831
 1742BOLB   C4D41808  29.549  19.219  21.958  0.2724  0.0641 -0.1399
 1743BOLB   NC141809  25.435  24.144  16.203 -0.0838  0.0225  0.0693
 1743BOLB   PO141810  25.887  24.025  16.252  0.1471  0.2839 -0.1350
 1743BOLB   GL141811  25.893  23.681  16.088  0.0685  0.2367 -0.0686
 1743BOLB   GL241812  25.544  23.661  16.067  0.3922  0.0595  0.2119
 1743BOLB   C1A41813  25.838  23.446  15.633  0.1305 -0.2907 -0.1800
 1743BOLB   C2A41814  25.826  23.068  15.466  0.1337 -0.0156  0.1746
 1743BOLB   C3A41815  25.717  22.668  15.327  0.2770 -0.0493  0.3458
 1743BOLB   C4A41816  25.659  22.380  14.997  0.1776 -0.1131  0.1542
 1743BOLB   C1B41817  25.411  23.298  15.888 -0.0539  0.1586  0.0567
 1743BOLB   C2B41818  25.342  22.996  15.576  0.1156  0.0892 -0.2946
 1743BOLB   C3B41819  25.035  22.770  15.447  0.3218 -0.1532  0.1960
 1743BOLB   C4B41820  24.644  22.512  15.506 -0.1362  0.1204  0.2191
 1743BOLB   NC241821  24.399  19.693  14.206  0.1572 -0.1453  0.4759
 1743BOLB   PO241822  24.629  20.008  14.352 -0.0550  0.0428 -0.0303
 1743BOLB   GL341823  24.662  20.510  14.495  0.0370 -0.0385  0.0675
 1743BOLB   GL441824  24.392  20.681  14.672  0.0712 -0.4366  0.0901
 1743BOLB   C1C41825  24.824  20.924  14.548 -0.0649  0.2653 -0.3222
 1743BOLB   C2C41826  25.209  21.283  14.530  0.1639 -0.2602  0.2522
 1743BOLB   C3C41827  25.533  21.447  14.743  0.0610 -0.1153 -0.0747
 1743BOLB   C4C41828  25.619  21.919  14.839 -0.0201 -0.2613  0.0709
 1743BOLB   C1D41829  24.346  21.119  14.789 -0.0194 -0.2300  0.1350
 1743BOLB   C2D41830  24.555  21.320  14.965  0.0152 -0.0428 -0.0731
 1743BOLB   C3D41831  25.039  21.256  14.974  0.1225 -0.2948 -0.0776
 1743BOLB   C4D41832  25.394  20.950  15.002 -0.1332  0.0635 -0.0796
 1744BOLB   NC141833  32.467  24.788  17.731 -0.0007  0.1899 -0.1130
 1744BOLB   PO141834  32.732  25.229  17.868  0.2292  0.2316  0.2600
 1744BOLB   GL141835  32.957  24.824  17.669 -0.1643 -0.2989  0.1147
 1744BOLB   GL241836  32.868  24.464  17.508 -0.0233 -0.1215  0.0225
 1744BOLB   C1A41837  33.401  24.662  17.535 -0.0547 -0.3479  0.3358
 1744BOLB   C2A41838  33.632  24.305  17.429 -0.0668  0.1293  0.3841
 1744BOLB   C3A41839  33.682  23.922  17.113 -0.0413  0.1773 -0.0204
 1744BOLB   C4A41840  33.595  23.756  16.732 -0.0206 -0.1648 -0.1351
 1744BOLB   C1B41841  33.056  24.253  17.161  0.0448 -0.0400 -0.2311
 1744BOLB   C2B41842  33.180  24.019  16.838 -0.2141 -0.2165  0.0512
 1744BOLB   C3B41843  33.109  23.556  16.844 -0.2188 -0.3154 -0.0476
 1744BOLB   C4B41844  32.964  23.277  16.543  0.0390  0.3007  0.2714
 1744BOLB   NC241845  35.033  22.452  14.728 -0.0330  0.0361 -0.0497
 1744BOLB   PO241846  35.196  22.670  15.133 -0.2707  0.2933  0.2827
 1744BOLB   GL341847  34.953  23.014  15.357  0.0490 -0.0150 -0.2945
 1744BOLB   GL441848  34.567  23.045  15.370  0.1408 -0.3368  0.1206
 1744BOLB   C1C41849  34.926  23.261  15.671  0.1971  0.3649  0.0627
 1744BOLB   C2C41850  34.469  23.470  15.797  0.0838 -0.2179  0.0131
 1744BOLB   C3C41851  34.076  23.540  16.089 -0.0575  0.1686  0.3821
 1744BOLB   C4C41852  33.819  23.601  16.356 -0.0703  0.4556  0.1053
 1744BOLB   C1D41853  34.226  23.144  15.523 -0.0809 -0.0894  0.0290
 1744BOLB   C2D41854  33.822  23.386  15.639 -0.1443  0.3100  0.2518
 1744BOLB   C3D41855  33.501  23.564  15.881 -0.2574  0.4212 -0.0462
 1744BOLB   C4D41856  33.407  23.840  16.281 -0.0325 -0.1777 -0.2697
 1745BOLB   NC141857  32.808  27.729  15.342 -0.2584  0.0775  0.1631
 1745BOLB   PO141858  32.912  27.379  15.586 -0.0527 -0.0410  0.1999
 1745BOLB   GL141859  33.198  27.194  15.422 -0.1585 -0.0922  0.1980
 1745BOLB   GL241860  33.391  27.444  15.345  0.3129  0.0461 -0.0441
 1745BOLB   C1A41861  33.404  26.824  15.216  0.4870  0.2238 -0.2045
 1745BOLB   C2A41862  33.684  26.644  14.946  0.2190  0.1562  0.0215
 1745BOLB   C3A41863  33.443  26.510  14.505  0.1064  0.1438  0.1891
 1745BOLB   C4A41864  33.463  26.482  14.002 -0.3482 -0.0259 -0.0906
 1745BOLB   C1B41865  33.585  27.293  15.072  0.1484  0.0063  0.1401
 1745BOLB   C2B41866  33.648  27.088  14.608 -0.3273 -0.0162  0.0230
 1745BOLB   C3B41867  33.930  26.721  14.486  0.1027 -0.0034  0.3418
 1745BOLB   C4B41868  34.248  26.595  14.357  0.1943 -0.3242  0.0766
 1745BOLB   NC241869  34.390  26.857  11.723  0.0727  0.0938  0.0268
 1745BOLB   PO241870  33.931  26.852  11.829  0.1589  0.2753  0.2125
 1745BOLB   GL341871  33.896  26.956  12.257  0.0739  0.1758 -0.1435
 1745BOLB   GL441872  33.841  26.615  12.332  0.3745  0.0888 -0.1623
 1745BOLB   C1C41873  33.450  27.058  12.539 -0.1032  0.1519 -0.0379
 1745BOLB   C2C41874  33.348  27.057  12.999 -0.1237  0.1982  0.2055
 1745BOLB   C3C41875  33.487  26.938  13.325  0.0697  0.2143 -0.1822
 1745BOLB   C4C41876  33.383  26.692  13.657 -0.0679 -0.0802  0.0803
 1745BOLB   C1D41877  33.870  26.298  12.717  0.1580  0.1100  0.0697
 1745BOLB   C2D41878  33.973  26.192  13.019  0.2837 -0.4543 -0.2235
 1745BOLB   C3D41879  34.163  26.082  13.476  0.4364 -0.1184 -0.0510
 1745BOLB   C4D41880  34.419  25.917  13.786 -0.5003 -0.3074  0.1366
 1746BOLB   NC141881  25.179  36.967  18.292 -0.2090  0.1937  0.5433
 1746BOLB   PO141882  24.764  36.854  18.163  0.1222 -0.1266 -0.1172
 1746BOLB   GL141883  24.501  37.231  18.158 -0.1406 -0.3189 -0.0156
 1746BOLB   GL241884  24.460  37.319  17.828 -0.0730  0.2478 -0.0039
 1746BOLB   C1A41885  24.142  37.688  18.051  0.0720 -0.0571 -0.0475
 1746BOLB   C2A41886  24.297  38.079  17.875  0.1018  0.0106  0.2910
 1746BOLB   C3A41887  24.152  38.428  17.680  0.2344 -0.1617  0.1023
 1746BOLB   C4A41888  24.113  38.839  17.557 -0.3470 -0.0947  0.2966
 1746BOLB   C1B41889  24.378  37.604  17.482 -0.1101 -0.7264  0.3611
 1746BOLB   C2B41890  24.214  37.956  17.406  0.0053 -0.0591  0.0613
 1746BOLB   C3B41891  24.282  38.319  17.100  0.0254  0.0369  0.0716
 1746BOLB   C4B41892  23.939  38.517  16.750 -0.0980  0.1084 -0.2585
 1746BOLB   NC241893  24.421  40.733  16.500  0.1363  0.0437 -0.1431
 1746BOLB   PO241894  24.049  40.503  16.449  0.2346  0.0544 -0.0279
 1746BOLB   GL341895  24.191  40.133  16.490 -0.2791 -0.0117 -0.0921
 1746BOLB   GL441896  24.012  39.863  16.384 -0.1160  0.2240  0.0636
 1746BOLB   C1C41897  24.235  39.872  16.866 -0.0973  0.0336 -0.1327
 1746BOLB   C2C41898  24.048  39.816  17.138 -0.0094 -0.3036 -0.0246
 1746BOLB   C3C41899  23.681  39.620  17.254 -0.0275 -0.0150  0.1181
 1746BOLB   C4C41900  23.771  39.257  17.570  0.0547 -0.3544 -0.1960
 1746BOLB   C1D41901  24.272  39.579  16.514  0.1674  0.0274 -0.0262
 1746BOLB   C2D41902  24.367  39.148  16.513  0.1338 -0.0356  0.1633
 1746BOLB   C3D41903  24.174  38.895  16.577  0.2558 -0.4190 -0.0848
 1746BOLB   C4D41904  23.661  38.878  16.567  0.0256  0.1023 -0.2344
 1747BOLB   NC141905  30.760  31.332  14.421 -0.3197 -0.2921  0.3187
 1747BOLB   PO141906  31.076  31.476  14.308  0.2023 -0.4250  0.2290
 1747BOLB   GL141907  30.980  31.454  13.946  0.0181 -0.2461 -0.2758
 1747BOLB   GL241908  31.269  31.490  13.778 -0.1348  0.3321 -0.1161
 1747BOLB   C1A41909  30.856  31.767  13.678 -0.2341  0.0210  0.1878
 1747BOLB   C2A41910  30.991  31.872  13.245  0.2510 -0.1605  0.0755
 1747BOLB   C3A41911  31.215  31.673  12.836  0.0327 -0.1155 -0.1171
 1747BOLB   C4A41912  31.343  31.567  12.463  0.2303 -0.1027  0.0618
 1747BOLB   C1B41913  31.410  31.559  13.345  0.1615  0.0544 -0.4463
 1747BOLB   C2B41914  31.635  31.723  13.050  0.1184 -0.1604  0.1647
 1747BOLB   C3B41915  31.941  32.002  12.879 -0.2271 -0.0042 -0.0933
 1747BOLB   C4B41916  32.468  32.123  12.961 -0.3015  0.0773 -0.1917
 1747BOLB   NC241917  32.943  31.530  10.533  0.0188 -0.0950  0.1433
 1747BOLB   PO241918  32.727  31.925  10.390  0.0718 -0.0736 -0.0700
 1747BOLB   GL341919  32.503  31.886  10.737 -0.1420 -0.2954 -0.2329
 1747BOLB   GL441920  32.598  31.540  10.884  0.2228 -0.0530 -0.1262
 1747BOLB   C1C41921  32.248  31.883  11.004 -0.1012  0.0580 -0.3652
 1747BOLB   C2C41922  32.073  31.770  11.474  0.3214 -0.2990 -0.1867
 1747BOLB   C3C41923  31.743  31.792  11.811  0.0315  0.1078 -0.2149
 1747BOLB   C4C41924  31.485  31.645  12.131  0.0299  0.2201 -0.2756
 1747BOLB   C1D41925  32.649  31.172  11.206  0.0945  0.2502  0.0288
 1747BOLB   C2D41926  32.508  31.074  11.567  0.0629 -0.2237  0.1079
 1747BOLB   C3D41927  32.187  30.879  11.797  0.1977 -0.0503  0.0006
 1747BOLB   C4D41928  32.013  30.813  12.196  0.0920 -0.3395  0.1393
 1748BOLB   NC141929  33.008  35.165  18.881  0.1160 -0.2049  0.0784
 1748BOLB   PO141930  33.009  35.508  18.583 -0.0304  0.2028  0.0013
 1748BOLB   GL141931  33.391  35.768  18.515  0.1041  0.0591  0.1107
 1748BOLB   GL241932  33.667  35.633  18.595 -0.1135  0.1380 -0.0342
 1748BOLB   C1A41933  33.688  36.163  18.617 -0.1550 -0.0193  0.2558
 1748BOLB   C2A41934  34.184  36.374  18.393  0.0820  0.2300  0.2151
 1748BOLB   C3A41935  34.616  36.555  18.387 -0.2427  0.0848 -0.1760
 1748BOLB   C4A41936  34.938  36.557  18.182 -0.1760 -0.0374 -0.0281
 1748BOLB   C1B41937  33.972  35.888  18.350 -0.0002  0.2049 -0.2165
 1748BOLB   C2B41938  34.358  35.895  18.132 -0.1001 -0.0162  0.2354
 1748BOLB   C3B41939  34.777  36.045  18.242  0.1358  0.3930 -0.2096
 1748BOLB   C4B41940  35.168  36.013  18.206 -0.3559  0.0703  0.0466
 1748BOLB   NC241941  36.489  38.128  16.784  0.0321  0.0712 -0.2120
 1748BOLB   PO241942  36.653  38.033  17.350  0.1581  0.1575  0.0129
 1748BOLB   GL341943  36.406  37.542  17.365 -0.2546 -0.0288 -0.2536
 1748BOLB   GL441944  36.607  37.223  17.296 -0.0796 -0.3092 -0.2802
 1748BOLB   C1C41945  36.259  37.245  17.606  0.1882  0.1332  0.2415
 1748BOLB   C2C41946  36.004  36.941  17.634  0.0093 -0.2436 -0.0026
 1748BOLB   C3C41947  35.646  36.679  17.785 -0.0467  0.0813 -0.2386
 1748BOLB   C4C41948  35.291  36.510  17.963 -0.3290 -0.2309 -0.0306
 1748BOLB   C1D41949  36.377  36.795  17.313  0.0835  0.0990 -0.2922
 1748BOLB   C2D41950  36.281  36.534  17.584  0.0556 -0.7051  0.2188
 1748BOLB   C3D41951  36.033  36.347  17.852  0.0204 -0.2974 -0.1064
 1748BOLB   C4D41952  35.674  36.207  18.215 -0.0070  0.0052 -0.1266
 1749BOLB   NC141953  30.837  24.563   0.122 -0.2012  0.1195 -0.0830
 1749BOLB   PO141954  31.292  24.688  26.790 -0.0319 -0.0316 -0.3882
 1749BOLB   GL141955  31.536  24.290   0.092 -0.0138 -0.0575  0.0270
 1749BOLB   GL241956  31.707  24.356   0.279  0.0258  0.3684  0.0547
 1749BOLB   C1A41957  31.567  23.953   0.513  0.1488 -0.2005  0.0431
 1749BOLB   C2A41958  31.713  23.705   0.949  0.1156  0.0727  0.2982
 1749BOLB   C3A41959  32.064  23.608   1.083  0.1543 -0.2413 -0.0427
 1749BOLB   C4A41960  32.425  23.716   1.241  0.3762 -0.0844  0.0945
 1749BOLB   C1B41961  32.031  24.092   0.504 -0.1617  0.2597 -0.2114
 1749BOLB   C2B41962  32.409  23.836   0.627 -0.3225 -0.0483 -0.0091
 1749BOLB   C3B41963  32.780  23.872   0.901  0.1932 -0.1106  0.0289
 1749BOLB   C4B41964  33.243  23.761   0.630 -0.1786 -0.1243 -0.1701
 1749BOLB   NC241965  33.628  22.317   2.054 -0.1680  0.2903 -0.0466
 1749BOLB   PO241966  33.914  22.569   2.125 -0.1684  0.0889 -0.0323
 1749BOLB   GL341967  33.540  22.807   2.049 -0.0708 -0.2884 -0.2659
 1749BOLB   GL441968  33.313  22.638   2.161 -0.1286  0.0081  0.2800
 1749BOLB   C1C41969  33.536  23.109   1.854  0.6099 -0.2027  0.3110
 1749BOLB   C2C41970  33.324  23.116   1.510 -0.0478  0.0075 -0.2023
 1749BOLB   C3C41971  32.853  23.152   1.461  0.1607  0.0853 -0.2517
 1749BOLB   C4C41972  32.612  23.528   1.478 -0.0141  0.0369  0.0851
 1749BOLB   C1D41973  33.221  22.666   1.647  0.0852  0.1095  0.2373
 1749BOLB   C2D41974  33.462  22.755   1.199 -0.1751  0.0853 -0.0902
 1749BOLB   C3D41975  33.970  22.576   1.124 -0.0414  0.1194 -0.2349
 1749BOLB   C4D41976  34.371  22.534   0.750 -0.0261  0.0802 -0.1431
 1750BOLB   NC141977  26.372  41.495  17.361  0.0316  0.1693  0.2612
 1750BOLB   PO141978  26.452  41.312  17.019  0.4041  0.2088  0.0054
 1750BOLB   GL141979  26.350  40.793  17.061  0.3815  0.0014  0.1331
 1750BOLB   GL241980  26.151  40.743  16.914 -0.0687  0.0057  0.1539
 1750BOLB   C1A41981  26.561  40.474  17.326 -0.0741 -0.1278 -0.1207
 1750BOLB   C2A41982  26.562  40.038  17.199 -0.2256 -0.0274 -0.0343
 1750BOLB   C3A41983  26.274  39.709  17.082 -0.2607 -0.0619  0.5134
 1750BOLB   C4A41984  26.284  39.328  16.837 -0.1909  0.1692  0.0564
 1750BOLB   C1B41985  26.052  40.287  17.011 -0.3932  0.2777 -0.1651
 1750BOLB   C2B41986  25.809  39.882  16.899 -0.2195  0.1700  0.0711
 1750BOLB   C3B41987  25.694  39.460  16.977  0.0495 -0.0794  0.0634
 1750BOLB   C4B41988  25.728  38.996  17.181  0.1423 -0.3695  0.5132
 1750BOLB   NC241989  25.443  40.377  15.308  0.2408 -0.1609  0.0595
 1750BOLB   PO241990  25.155  40.068  15.331 -0.0339 -0.1306 -0.2003
 1750BOLB   GL341991  25.076  39.962  15.763 -0.1479 -0.0262 -0.1964
 1750BOLB   GL441992  24.764  39.955  15.737 -0.2108  0.2432  0.1510
 1750BOLB   C1C41993  25.192  39.656  15.969  0.1120 -0.1328  0.2420
 1750BOLB   C2C41994  25.278  39.363  16.325 -0.0643  0.1252  0.1508
 1750BOLB   C3C41995  25.516  39.117  16.547  0.4449 -0.4713  0.0517
 1750BOLB   C4C41996  25.947  39.078  16.701 -0.1530 -0.2549  0.0037
 1750BOLB   C1D41997  24.776  39.596  15.604  0.1481  0.2215 -0.2255
 1750BOLB   C2D41998  24.624  39.257  15.220 -0.1487  0.0777  0.3883
 1750BOLB   C3D41999  24.335  38.962  15.122 -0.2908 -0.0156  0.1213
 1750BOLB   C4D42000  24.209  38.694  15.428  0.2453 -0.4443 -0.2103
 1751BOLB   NC142001  32.902  40.432  17.437  0.0317  0.3474  0.2155
 1751BOLB   PO142002  32.510  40.541  17.455 -0.0920  0.2751 -0.1159
 1751BOLB   GL142003  32.146  40.294  17.268  0.0371  0.1546 -0.1192
 1751BOLB   GL242004  31.829  40.423  17.400 -0.1630 -0.4038 -0.2020
 1751BOLB   C1A42005  32.069  39.856  17.161 -0.2573 -0.2844  0.0382
 1751BOLB   C2A42006  31.859  39.584  16.939 -0.2844  0.0294  0.1680
 1751BOLB   C3A42007  31.613  39.324  16.763  0.1272  0.0772 -0.2656
 1751BOLB   C4A42008  31.484  38.879  16.497  0.1090 -0.0076 -0.0299
 1751BOLB   C1B42009  31.832  40.078  17.561  0.3336  0.1618 -0.3340
 1751BOLB   C2B42010  31.927  39.681  17.582  0.0641 -0.1422  0.2065
 1751BOLB   C3B42011  31.752  39.247  17.886 -0.3436 -0.1752  0.1425
 1751BOLB   C4B42012  31.588  39.059  18.208 -0.1843  0.1447 -0.1016
 1751BOLB   NC242013  31.605  39.778  14.508 -0.1855 -0.0273  0.0784
 1751BOLB   PO242014  31.749  39.333  14.576 -0.0553 -0.0784 -0.2638
 1751BOLB   GL342015  31.857  38.935  14.822 -0.1657 -0.1521 -0.1844
 1751BOLB   GL442016  31.751  38.600  14.721 -0.0061 -0.0903  0.0158
 1751BOLB   C1C42017  31.663  38.743  15.171 -0.1391  0.0181  0.1236
 1751BOLB   C2C42018  31.396  38.501  15.512 -0.4207  0.1905 -0.2765
 1751BOLB   C3C42019  31.230  38.261  15.843  0.1068  0.0353 -0.1193
 1751BOLB   C4C42020  31.286  38.633  16.160 -0.2813  0.0644  0.0272
 1751BOLB   C1D42021  31.739  38.160  14.661 -0.3931 -0.3595  0.2492
 1751BOLB   C2D42022  31.713  37.829  14.844 -0.1785 -0.2483 -0.2671
 1751BOLB   C3D42023  31.516  37.398  14.830 -0.0794 -0.0558  0.2488
 1751BOLB   C4D42024  31.653  37.009  14.573 -0.1264 -0.3068  0.1844
 1752BOLB   NC142025  34.593  27.230  25.110  0.2615  0.2152  0.0009
 1752BOLB   PO142026  34.808  27.183  24.793 -0.0087 -0.1254  0.1000
 1752BOLB   GL142027  35.078  27.039  24.945 -0.1548  0.4709 -0.1332
 1752BOLB   GL242028  35.147  26.680  24.834 -0.1510 -0.1307 -0.1098
 1752BOLB   C1A42029  35.575  26.894  24.941 -0.1004 -0.0164  0.0835
 1752BOLB   C2A42030  35.872  26.606  25.215  0.0307  0.0306 -0.0112
 1752BOLB   C3A42031  36.235  26.462  25.292 -0.2703 -0.3315 -0.2810
 1752BOLB   C4A42032  36.575  26.599  25.451  0.3264  0.2168  0.0937
 1752BOLB   C1B42033  35.315  26.447  25.195  0.1243  0.1313 -0.0250
 1752BOLB   C2B42034  35.609  26.096  25.484 -0.2328  0.0107  0.1838
 1752BOLB   C3B42035  35.772  25.867  25.742 -0.1476  0.0023 -0.1905
 1752BOLB   C4B42036  36.018  25.670  26.066 -0.0948 -0.3409 -0.0717
 1752BOLB   NC242037  38.477  26.274   0.242  0.2517  0.1849  0.2051
 1752BOLB   PO242038  38.546  26.278  26.687  0.0585 -0.0946  0.3412
 1752BOLB   GL342039  38.204  26.273  26.549  0.0961  0.3589  0.2370
 1752BOLB   GL442040  38.013  26.227  26.853  0.1130 -0.1282 -0.0624
 1752BOLB   C1C42041  37.915  26.216  26.210  0.2686 -0.2257 -0.1811
 1752BOLB   C2C42042  37.551  26.275  25.998 -0.0487  0.1079 -0.3559
 1752BOLB   C3C42043  37.236  26.558  25.881  0.1128  0.0890  0.1533
 1752BOLB   C4C42044  36.866  26.750  25.708 -0.4829 -0.3562 -0.1732
 1752BOLB   C1D42045  37.609  26.255  26.683 -0.0557  0.0875 -0.0920
 1752BOLB   C2D42046  37.467  26.000  26.400 -0.1348  0.2135 -0.2912
 1752BOLB   C3D42047  37.073  25.879  26.418 -0.2878  0.1398  0.3784
 1752BOLB   C4D42048  36.592  25.763  26.173 -0.0533 -0.0762 -0.3368
 1753BOLB   NC142049  29.848  32.371   2.398 -0.3194  0.1152  0.1916
 1753BOLB   PO142050  30.121  31.988   2.365 -0.0908 -0.0941 -0.4030
 1753BOLB   GL142051  30.072  32.067   2.814  0.0153  0.2651 -0.4436
 1753BOLB   GL242052  29.886  32.336   2.892  0.2267 -0.0964 -0.2794
 1753BOLB   C1A42053  30.225  32.022   3.228 -0.2931 -0.1630 -0.1053
 1753BOLB   C2A42054  30.164  32.069   3.768  0.1288 -0.2469  0.0661
 1753BOLB   C3A42055  30.086  32.345   4.038 -0.1094  0.3461 -0.6561
 1753BOLB   C4A42056  29.815  32.278   4.390 -0.2909  0.0239  0.1454
 1753BOLB   C1B42057  29.576  32.714   3.131  0.1969  0.4628  0.1577
 1753BOLB   C2B42058  29.781  33.087   3.300  0.2198 -0.0285 -0.1017
 1753BOLB   C3B42059  30.009  33.246   3.505 -0.0362 -0.1983  0.1994
 1753BOLB   C4B42060  30.209  33.244   3.828 -0.2310 -0.0558 -0.0664
 1753BOLB   NC242061  30.627  31.499   6.444 -0.2996  0.3420 -0.1254
 1753BOLB   PO242062  30.344  31.787   6.599 -0.1232  0.3100 -0.1526
 1753BOLB   GL342063  30.366  31.810   6.193 -0.1289 -0.2073  0.1287
 1753BOLB   GL442064  30.413  31.535   5.977 -0.0920 -0.2281  0.3508
 1753BOLB   C1C42065  30.346  32.138   5.889 -0.3828 -0.0933 -0.0235
 1753BOLB   C2C42066  30.023  32.271   5.661  0.0059 -0.1240  0.1762
 1753BOLB   C3C42067  29.832  32.265   5.263  0.1147 -0.1254  0.1567
 1753BOLB   C4C42068  29.692  32.292   4.838 -0.0337  0.0209 -0.0570
 1753BOLB   C1D42069  30.456  31.751   5.571  0.1556  0.2234  0.2370
 1753BOLB   C2D42070  30.630  31.761   5.258  0.0324  0.0678  0.3299
 1753BOLB   C3D42071  30.516  32.004   4.828 -0.2340 -0.2790  0.0351
 1753BOLB   C4D42072  30.620  32.351   4.637 -0.1992  0.0363  0.0914
 1754BOLB   NC142073  22.112  16.049  19.701 -0.0935  0.2522  0.2141
 1754BOLB   PO142074  22.035  16.101  20.122  0.1859  0.0561 -0.2664
 1754BOLB   GL142075  22.010  16.533  20.012  0.1257  0.1604  0.1508
 1754BOLB   GL242076  21.674  16.677  19.899  0.0182  0.0161  0.1387
 1754BOLB   C1A42077  22.186  17.047  19.960 -0.2013 -0.2188 -0.0561
 1754BOLB   C2A42078  22.208  17.302  19.538  0.2204  0.0020 -0.0976
 1754BOLB   C3A42079  22.388  17.659  19.439 -0.3670  0.1868 -0.1126
 1754BOLB   C4A42080  22.398  18.034  19.136 -0.1533 -0.2685 -0.0120
 1754BOLB   C1B42081  21.198  16.661  20.096  0.0893 -0.3471  0.2572
 1754BOLB   C2B42082  20.834  16.809  20.319  0.2320 -0.1416  0.3527
 1754BOLB   C3B42083  20.677  17.292  20.566  0.0664 -0.0358 -0.0483
 1754BOLB   C4B42084  20.963  17.606  20.600  0.2001 -0.1119  0.2386
 1754BOLB   NC242085  21.640  17.699  16.952  0.2758  0.0386  0.0812
 1754BOLB   PO242086  21.819  18.160  16.872 -0.0121 -0.0193 -0.1046
 1754BOLB   GL342087  22.033  18.343  17.323  0.1402 -0.4063 -0.1359
 1754BOLB   GL442088  22.361  18.275  17.338 -0.2869 -0.1275 -0.0750
 1754BOLB   C1C42089  21.876  18.675  17.653 -0.0010  0.0359  0.1023
 1754BOLB   C2C42090  21.853  18.697  18.129 -0.2523 -0.0910  0.0863
 1754BOLB   C3C42091  21.922  18.409  18.484  0.1090  0.1176  0.0219
 1754BOLB   C4C42092  22.060  18.236  18.926 -0.1113  0.3667  0.1521
 1754BOLB   C1D42093  22.841  18.454  17.391 -0.0662 -0.0929  0.0011
 1754BOLB   C2D42094  23.212  18.254  17.568 -0.0120  0.3833  0.1640
 1754BOLB   C3D42095  23.577  18.287  17.926 -0.1153 -0.2144 -0.0940
 1754BOLB   C4D42096  23.618  18.588  18.197  0.1946  0.1345  0.0692
 1755BOLB   NC142097  21.121  31.335  25.977 -0.1739  0.2983 -0.1630
 1755BOLB   PO142098  20.717  31.205  25.978  0.1278 -0.0277 -0.1777
 1755BOLB   GL142099  20.347  31.400  26.049  0.1543  0.0275 -0.0315
 1755BOLB   GL242100  20.169  31.064  26.041  0.3112  0.1097 -0.2261
 1755BOLB   C1A42101  20.071  31.608  26.295 -0.3067 -0.3396  0.2743
 1755BOLB   C2A42102  19.665  31.788  26.357 -0.0093  0.0852  0.2047
 1755BOLB   C3A42103  19.177  31.923  26.364 -0.0827  0.0219  0.0349
 1755BOLB   C4A42104  18.788  32.091  26.604 -0.1982  0.0890  0.1624
 1755BOLB   C1B42105  20.363  30.834  26.414  0.1131  0.3204 -0.0392
 1755BOLB   C2B42106  20.581  30.512  26.382  0.1047 -0.0520 -0.0431
 1755BOLB   C3B42107  20.514  30.173  26.566 -0.2416  0.0687  0.2346
 1755BOLB   C4B42108  20.416  29.727  26.732 -0.5006  0.5756  0.1186
 1755BOLB   NC242109  17.578  33.778   0.168  0.3627 -0.0983  0.0388
 1755BOLB   PO242110  17.424  33.684   0.611 -0.0849 -0.0301  0.0409
 1755BOLB   GL342111  17.592  33.334   0.437 -0.1446  0.0127 -0.0947
 1755BOLB   GL442112  17.924  33.426   0.398  0.0742  0.0531  0.3623
 1755BOLB   C1C42113  17.785  32.915   0.365 -0.0198  0.1720  0.1091
 1755BOLB   C2C42114  18.087  32.711   0.360  0.1352  0.1787 -0.3583
 1755BOLB   C3C42115  18.274  32.611   0.028  0.3031  0.1357  0.0983
 1755BOLB   C4C42116  18.602  32.363  26.810 -0.0151 -0.0096 -0.1279
 1755BOLB   C1D42117  18.228  33.244   0.382  0.0851  0.0760  0.0133
 1755BOLB   C2D42118  18.523  32.862   0.394  0.1518 -0.0253 -0.2166
 1755BOLB   C3D42119  18.892  32.717   0.257 -0.1821 -0.0056  0.3489
 1755BOLB   C4D42120  19.296  32.553   0.293 -0.2578 -0.1981  0.1270
 1756BOLB   NC142121  32.885  25.448  17.473 -0.3056  0.1339  0.0907
 1756BOLB   PO142122  33.251  25.412  17.710 -0.1283  0.0822 -0.0185
 1756BOLB   GL142123  33.614  25.080  17.723 -0.0270 -0.0784  0.0628
 1756BOLB   GL242124  33.952  25.293  17.760 -0.2045  0.0187 -0.0630
 1756BOLB   C1A42125  33.924  24.752  17.567 -0.0156  0.3109  0.0004
 1756BOLB   C2A42126  34.226  24.637  17.391  0.1455  0.0928 -0.2286
 1756BOLB   C3A42127  34.560  24.346  17.345  0.0580  0.1227  0.2183
 1756BOLB   C4A42128  35.012  24.392  17.432  0.2140 -0.2142  0.0499
 1756BOLB   C1B42129  34.320  25.008  17.746 -0.1248  0.2003  0.0148
 1756BOLB   C2B42130  34.726  24.814  17.568 -0.0112 -0.0098  0.2001
 1756BOLB   C3B42131  34.880  24.770  17.140 -0.0141 -0.0385  0.2195
 1756BOLB   C4B42132  35.196  24.834  16.874 -0.0826  0.0532 -0.1363
 1756BOLB   NC242133  37.411  24.609  15.926 -0.0245 -0.1817  0.1451
 1756BOLB   PO242134  36.928  24.732  15.967 -0.1400  0.3457  0.0511
 1756BOLB   GL342135  36.796  24.871  16.409  0.0747  0.0356 -0.1162
 1756BOLB   GL442136  36.997  25.179  16.526 -0.0856  0.1857  0.2539
 1756BOLB   C1C42137  36.630  24.497  16.741 -0.3416  0.3548  0.0458
 1756BOLB   C2C42138  36.230  24.409  17.009 -0.0515 -0.0241 -0.2295
 1756BOLB   C3C42139  35.746  24.513  17.121 -0.4784  0.1185  0.0007
 1756BOLB   C4C42140  35.408  24.577  17.269 -0.0832 -0.3440 -0.0137
 1756BOLB   C1D42141  36.525  25.320  16.508 -0.0691  0.0793  0.1365
 1756BOLB   C2D42142  36.283  25.156  16.791  0.0492  0.1335 -0.0240
 1756BOLB   C3D42143  36.143  24.872  17.140  0.2844  0.1461 -0.2644
 1756BOLB   C4D42144  35.786  24.922  17.410  0.3704 -0.1127 -0.4999
 1757BOLB   NC142145  30.834  37.031  19.693 -0.0418 -0.0291 -0.2465
 1757BOLB   PO142146  30.582  37.465  19.712  0.0845  0.0101 -0.0124
 1757BOLB   GL142147  30.369  37.873  19.934  0.0745  0.1910  0.3567
 1757BOLB   GL242148  30.674  38.047  19.936 -0.1406 -0.5124 -0.0459
 1757BOLB   C1A42149  30.166  38.254  19.761  0.1563 -0.4047  0.4109
 1757BOLB   C2A42150  30.183  38.747  19.655 -0.1468  0.1567 -0.0630
 1757BOLB   C3A42151  30.224  39.197  19.390  0.3219  0.1547 -0.4686
 1757BOLB   C4A42152  30.129  39.416  19.039 -0.0282 -0.0680  0.2053
 1757BOLB   C1B42153  30.651  38.303  19.591 -0.1779  0.3147 -0.0667
 1757BOLB   C2B42154  30.647  38.723  19.364  0.1992 -0.0683  0.0992
 1757BOLB   C3B42155  30.644  38.902  18.965 -0.0531 -0.0430  0.3285
 1757BOLB   C4B42156  30.595  39.326  18.816  0.0615 -0.3417 -0.1057
 1757BOLB   NC242157  30.604  41.160  17.102  0.0692 -0.1364  0.0486
 1757BOLB   PO242158  30.297  41.206  17.521 -0.0225  0.1320 -0.2462
 1757BOLB   GL342159  30.132  40.974  17.838 -0.1971 -0.1001  0.3381
 1757BOLB   GL442160  30.141  40.697  17.777 -0.0919  0.0599  0.0621
 1757BOLB   C1C42161  30.277  40.780  18.253 -0.1376 -0.1191  0.0748
 1757BOLB   C2C42162  30.273  40.479  18.503  0.0209  0.0544 -0.3331
 1757BOLB   C3C42163  30.485  40.171  18.744  0.1734  0.0310 -0.3674
 1757BOLB   C4C42164  30.251  39.770  18.891 -0.0490 -0.0065 -0.0101
 1757BOLB   C1D42165  30.211  40.311  18.024 -0.0223 -0.2109  0.0650
 1757BOLB   C2D42166  30.312  39.998  17.780  0.2527 -0.0158  0.1132
 1757BOLB   C3D42167  30.420  39.659  17.599  0.0372 -0.2239 -0.2555
 1757BOLB   C4D42168  30.409  39.296  17.539 -0.2770  0.3540  0.1708
 1758BOLB   NC142169  35.703  31.163  24.385  0.1937 -0.3326 -0.1351
 1758BOLB   PO142170  35.641  31.526  24.087  0.0096 -0.0246  0.2001
 1758BOLB   GL142171  36.035  31.534  24.330  0.1580 -0.0567  0.1654
 1758BOLB   GL242172  36.160  31.346  24.199  0.1012  0.2096 -0.1116
 1758BOLB   C1A42173  36.306  31.403  24.645  0.0869 -0.1297 -0.0794
 1758BOLB   C2A42174  36.415  31.570  24.935 -0.1240  0.0674  0.0747
 1758BOLB   C3A42175  36.246  31.953  25.076  0.2428  0.0255 -0.1549
 1758BOLB   C4A42176  36.495  32.202  25.285  0.3046  0.2644  0.0979
 1758BOLB   C1B42177  36.605  31.340  24.185 -0.0357 -0.0978  0.0299
 1758BOLB   C2B42178  36.916  31.498  24.522  0.1480  0.1806 -0.4946
 1758BOLB   C3B42179  36.921  31.400  24.881  0.1384 -0.1400  0.0043
 1758BOLB   C4B42180  37.057  31.064  25.033 -0.1585  0.0773  0.2588
 1758BOLB   NC242181  38.538  33.508  26.032 -0.0209 -0.0185 -0.1283
 1758BOLB   PO242182  38.538  33.146  26.220  0.0103 -0.1457 -0.2678
 1758BOLB   GL342183  38.035  33.260  26.138 -0.2210 -0.0568 -0.0164
 1758BOLB   GL442184  37.862  33.342  26.422 -0.0852 -0.3099 -0.1804
 1758BOLB   C1C42185  37.600  33.293  25.838 -0.1114 -0.2585  0.2004
 1758BOLB   C2C42186  37.419  33.001  25.506 -0.1080  0.0807 -0.0861
 1758BOLB   C3C42187  37.316  32.607  25.437  0.1999  0.1920 -0.1147
 1758BOLB   C4C42188  36.912  32.292  25.385  0.3112  0.0564 -0.1353
 1758BOLB   C1D42189  37.432  33.378  26.384 -0.0465 -0.3283  0.1246
 1758BOLB   C2D42190  37.017  33.263  26.312 -0.0326 -0.0720 -0.0385
 1758BOLB   C3D42191  36.677  33.133  26.124 -0.1705  0.3223 -0.1469
 1758BOLB   C4D42192  36.331  32.846  26.415 -0.0570 -0.1121 -0.3654
 1759BOLB   NC142193  24.134  34.009   1.209 -0.0366  0.1331  0.0661
 1759BOLB   PO142194  24.425  33.811   1.549 -0.0875  0.2488  0.0810
 1759BOLB   GL142195  24.298  34.245   1.650 -0.1259 -0.0656 -0.1071
 1759BOLB   GL242196  24.429  34.130   1.926  0.3108  0.1584 -0.0850
 1759BOLB   C1A42197  24.031  34.670   1.869  0.0932 -0.1069  0.1698
 1759BOLB   C2A42198  23.912  35.001   2.283  0.1353  0.1036  0.2128
 1759BOLB   C3A42199  23.947  35.112   2.682  0.4140 -0.2318 -0.0587
 1759BOLB   C4A42200  23.998  35.461   2.979  0.0287 -0.0404 -0.2202
 1759BOLB   C1B42201  24.124  34.066   2.447 -0.1361 -0.0357 -0.0837
 1759BOLB   C2B42202  23.956  34.007   2.936 -0.0382 -0.2984 -0.5589
 1759BOLB   C3B42203  24.105  34.009   3.381 -0.0240 -0.0290 -0.0082
 1759BOLB   C4B42204  24.301  34.297   3.683 -0.0451 -0.2991 -0.2017
 1759BOLB   NC242205  23.496  37.520   3.731 -0.2102 -0.1199 -0.0456
 1759BOLB   PO242206  23.196  37.408   3.427 -0.1252  0.2803 -0.1625
 1759BOLB   GL342207  23.194  37.268   3.016  0.2893 -0.1141 -0.1891
 1759BOLB   GL442208  23.114  37.374   2.702 -0.1163  0.1119  0.1559
 1759BOLB   C1C42209  23.510  36.862   2.967  0.0702 -0.1403 -0.0566
 1759BOLB   C2C42210  23.568  36.358   3.120  0.1838  0.1129 -0.0432
 1759BOLB   C3C42211  23.834  36.058   3.265 -0.1691 -0.0222 -0.2892
 1759BOLB   C4C42212  24.016  35.734   3.194 -0.5016 -0.0528  0.0327
 1759BOLB   C1D42213  23.347  37.134   2.524 -0.0280  0.2195  0.0245
 1759BOLB   C2D42214  23.473  36.759   2.371 -0.3037 -0.1073  0.0297
 1759BOLB   C3D42215  23.340  36.462   2.105  0.0969  0.1950  0.1469
 1759BOLB   C4D42216  23.526  36.226   1.770 -0.0909 -0.2488  0.1053
 1760BOLB   NC142217  27.071  30.809   3.044  0.2366 -0.4103  0.0645
 1760BOLB   PO142218  26.913  31.306   2.977 -0.1006 -0.0937 -0.1174
 1760BOLB   GL142219  27.076  31.266   3.343 -0.4998  0.1804 -0.3485
 1760BOLB   GL242220  26.970  31.413   3.520  0.3667 -0.0083 -0.3349
 1760BOLB   C1A42221  27.386  31.183   3.797 -0.1966  0.3317 -0.0316
 1760BOLB   C2A42222  27.388  31.441   4.211 -0.3866  0.1962 -0.2737
 1760BOLB   C3A42223  27.449  31.476   4.571  0.3352  0.1741  0.0390
 1760BOLB   C4A42224  27.452  31.470   4.882 -0.1390 -0.0553  0.0773
 1760BOLB   C1B42225  26.842  31.259   3.859 -0.2211  0.2719 -0.1048
 1760BOLB   C2B42226  26.585  31.599   3.993 -0.3536 -0.0282 -0.2667
 1760BOLB   C3B42227  26.221  31.758   4.122 -0.1763 -0.1427 -0.2067
 1760BOLB   C4B42228  25.948  32.070   4.033 -0.1588 -0.2512 -0.0445
 1760BOLB   NC242229  28.231  32.122   6.815 -0.1794  0.1203 -0.1522
 1760BOLB   PO242230  28.511  31.778   7.011  0.0204  0.1276 -0.0140
 1760BOLB   GL342231  28.438  31.686   6.621 -0.0334 -0.2494 -0.1971
 1760BOLB   GL442232  28.305  31.369   6.668 -0.1230  0.2824  0.1654
 1760BOLB   C1C42233  28.595  31.464   6.218 -0.1395  0.0478  0.1131
 1760BOLB   C2C42234  28.534  31.502   5.786 -0.1055 -0.1778  0.3942
 1760BOLB   C3C42235  28.390  31.492   5.377  0.2710 -0.0777 -0.2725
 1760BOLB   C4C42236  27.868  31.575   5.151 -0.2054 -0.0705 -0.1556
 1760BOLB   C1D42237  28.652  31.102   6.517 -0.0200 -0.0944  0.1811
 1760BOLB   C2D42238  29.070  31.107   6.358  0.4355 -0.0544  0.0334
 1760BOLB   C3D42239  29.237  30.993   5.903  0.0275  0.1599 -0.0245
 1760BOLB   C4D42240  29.326  30.948   5.483  0.0135 -0.1249  0.1938
 1761BOLB   NC142241  23.640  27.376  15.069 -0.0628 -0.0499 -0.0969
 1761BOLB   PO142242  23.528  27.802  14.891 -0.5821 -0.0089  0.1412
 1761BOLB   GL142243  23.452  27.482  14.603 -0.0607 -0.0338  0.3491
 1761BOLB   GL242244  23.794  27.343  14.557 -0.1435 -0.0777 -0.0793
 1761BOLB   C1A42245  23.063  27.377  14.328 -0.4154 -0.1501  0.1281
 1761BOLB   C2A42246  22.780  27.404  14.033  0.1978 -0.3583  0.3465
 1761BOLB   C3A42247  22.314  27.377  13.795 -0.0069 -0.3879  0.0363
 1761BOLB   C4A42248  21.994  27.209  13.694  0.0442  0.0827  0.1790
 1761BOLB   C1B42249  23.601  27.393  14.123  0.6188  0.2386 -0.1562
 1761BOLB   C2B42250  23.216  27.167  13.788 -0.3940  0.1085  0.1361
 1761BOLB   C3B42251  22.999  26.778  13.575 -0.4011  0.2464 -0.2313
 1761BOLB   C4B42252  22.680  26.815  13.264 -0.0449 -0.1949 -0.2460
 1761BOLB   NC242253  20.299  27.869  12.149  0.0815  0.2214 -0.2094
 1761BOLB   PO242254  20.311  27.442  12.126  0.2886 -0.0141 -0.3265
 1761BOLB   GL342255  20.413  27.556  12.535  0.0346 -0.0770 -0.2815
 1761BOLB   GL442256  20.723  27.462  12.525  0.0442 -0.1332 -0.0354
 1761BOLB   C1C42257  20.566  27.409  13.022 -0.1943  0.1156  0.1196
 1761BOLB   C2C42258  20.789  27.421  13.420 -0.0588  0.0719  0.0897
 1761BOLB   C3C42259  21.240  27.464  13.451  0.1761 -0.1807  0.2253
 1761BOLB   C4C42260  21.640  27.342  13.611  0.0596  0.3441 -0.2177
 1761BOLB   C1D42261  20.788  27.834  12.756 -0.1518 -0.0431  0.2895
 1761BOLB   C2D42262  20.971  27.850  13.207 -0.3346  0.1430  0.0436
 1761BOLB   C3D42263  21.024  28.086  13.527 -0.1812 -0.2930 -0.0316
 1761BOLB   C4D42264  20.881  28.274  14.019 -0.2296  0.1794  0.0702
 1762BOLB   NC142265  33.297  35.329  25.107  0.1900 -0.0796  0.0939
 1762BOLB   PO142266  32.972  35.357  25.234 -0.1078 -0.1390 -0.0556
 1762BOLB   GL142267  33.111  35.575  25.525  0.0130 -0.0314  0.1751
 1762BOLB   GL242268  33.422  35.671  25.492 -0.0987 -0.2807 -0.0243
 1762BOLB   C1A42269  33.334  36.054  25.725 -0.2521 -0.0203  0.1094
 1762BOLB   C2A42270  33.630  36.353  25.758  0.3982 -0.1482  0.5364
 1762BOLB   C3A42271  33.524  36.766  25.628  0.0975 -0.0966 -0.4907
 1762BOLB   C4A42272  33.356  37.189  25.558 -0.3654 -0.5167 -0.0848
 1762BOLB   C1B42273  33.787  35.847  25.504 -0.3316  0.0971 -0.2226
 1762BOLB   C2B42274  34.160  35.811  25.878 -0.1124  0.1274 -0.1102
 1762BOLB   C3B42275  34.538  35.534  26.016 -0.0058  0.2201  0.1341
 1762BOLB   C4B42276  34.784  35.430  26.364  0.2733  0.0349 -0.2378
 1762BOLB   NC242277  34.444  39.320  26.242 -0.2416 -0.1287 -0.0397
 1762BOLB   PO242278  34.097  39.448  25.992 -0.0385  0.0293  0.3549
 1762BOLB   GL342279  33.810  39.099  25.873  0.0012 -0.1870 -0.2442
 1762BOLB   GL442280  33.873  38.862  25.723 -0.0832 -0.1136 -0.0745
 1762BOLB   C1C42281  33.389  38.926  25.787 -0.3208  0.1080 -0.2923
 1762BOLB   C2C42282  33.311  38.436  25.690  0.1906 -0.0154 -0.2547
 1762BOLB   C3C42283  33.544  38.028  25.610  0.0612 -0.1029 -0.0250
 1762BOLB   C4C42284  33.617  37.542  25.559 -0.1972  0.0616  0.0731
 1762BOLB   C1D42285  34.228  38.727  25.950  0.0312 -0.2349 -0.0789
 1762BOLB   C2D42286  34.489  38.557  26.080  0.1794 -0.5158  0.0462
 1762BOLB   C3D42287  34.622  38.204  26.123  0.0126 -0.1465 -0.2633
 1762BOLB   C4D42288  34.375  37.801  26.199  0.1893  0.1602  0.1914
 1763BOLB   NC142289  19.165  22.381  15.409  0.1192  0.2392 -0.0222
 1763BOLB   PO142290  19.165  22.750  15.098  0.2940 -0.0985 -0.1430
 1763BOLB   GL142291  19.480  22.813  15.367 -0.0176 -0.0883  0.0470
 1763BOLB   GL242292  19.787  22.593  15.531 -0.0463 -0.2547  0.2987
 1763BOLB   C1A42293  19.367  22.972  15.797  0.0577  0.0814  0.0285
 1763BOLB   C2A42294  19.251  22.889  16.199 -0.4304  0.1476 -0.2885
 1763BOLB   C3A42295  18.944  23.018  16.503 -0.0051  0.0592  0.0545
 1763BOLB   C4A42296  18.545  22.962  16.408  0.4690 -0.0495  0.2154
 1763BOLB   C1B42297  19.854  22.788  15.863  0.0644 -0.1209 -0.2642
 1763BOLB   C2B42298  19.720  22.799  16.292 -0.1521  0.0861 -0.0248
 1763BOLB   C3B42299  19.448  22.633  16.612  0.1225  0.0507  0.1919
 1763BOLB   C4B42300  18.945  22.535  16.636 -0.0814  0.4435  0.3474
 1763BOLB   NC242301  16.609  21.353  16.595 -0.2794  0.0524  0.3194
 1763BOLB   PO242302  16.568  21.809  16.541  0.0128  0.2984 -0.0241
 1763BOLB   GL342303  16.976  21.938  16.606 -0.1247 -0.2251  0.0799
 1763BOLB   GL442304  16.798  22.031  16.916  0.0991  0.0138 -0.0828
 1763BOLB   C1C42305  17.283  22.053  17.051 -0.0678 -0.0378  0.2833
 1763BOLB   C2C42306  17.615  22.397  17.103  0.0309 -0.0680 -0.2802
 1763BOLB   C3C42307  17.850  22.704  16.787  0.2948  0.2844 -0.1363
 1763BOLB   C4C42308  18.147  22.696  16.402  0.0720 -0.1258  0.1581
 1763BOLB   C1D42309  16.943  22.321  17.334  0.1342  0.1742  0.2743
 1763BOLB   C2D42310  16.853  22.640  17.654 -0.0806  0.0916 -0.2214
 1763BOLB   C3D42311  17.047  22.605  18.086 -0.1370 -0.0749  0.0447
 1763BOLB   C4D42312  17.230  22.559  18.494 -0.6140 -0.0606  0.1296
 1764BOLB   NC142313  32.836  28.649  15.962  0.1351 -0.0971  0.1346
 1764BOLB   PO142314  32.953  28.871  15.567  0.0800  0.0132  0.1543
 1764BOLB   GL142315  33.134  28.938  15.151 -0.1982 -0.1272 -0.2249
 1764BOLB   GL242316  33.469  29.185  15.028 -0.0964 -0.3388  0.0665
 1764BOLB   C1A42317  33.199  28.797  14.671  0.0183  0.2526  0.0578
 1764BOLB   C2A42318  33.295  28.847  14.248  0.1932 -0.1006 -0.1581
 1764BOLB   C3A42319  33.719  28.833  14.047 -0.4176  0.1941 -0.1970
 1764BOLB   C4A42320  34.137  28.629  13.987  0.2965 -0.3507 -0.2569
 1764BOLB   C1B42321  33.651  28.918  14.834 -0.0226  0.2234  0.1674
 1764BOLB   C2B42322  33.742  28.699  14.543 -0.3522 -0.1207 -0.0126
 1764BOLB   C3B42323  33.865  28.352  14.264  0.0981 -0.0739 -0.2069
 1764BOLB   C4B42324  33.909  28.106  13.886 -0.1131  0.2785  0.0993
 1764BOLB   NC242325  35.431  27.365  12.224  0.5029 -0.1449  0.1229
 1764BOLB   PO242326  35.675  27.696  12.454 -0.0977 -0.3561  0.1402
 1764BOLB   GL342327  35.352  27.652  12.709  0.0259 -0.1073  0.2526
 1764BOLB   GL442328  35.061  27.573  12.529 -0.3575 -0.0074  0.1631
 1764BOLB   C1C42329  34.932  27.953  12.821  0.2193 -0.0486 -0.2521
 1764BOLB   C2C42330  34.732  27.983  13.246  0.0655 -0.4656  0.3006
 1764BOLB   C3C42331  34.776  28.282  13.634 -0.2779 -0.1071  0.0034
 1764BOLB   C4C42332  34.515  28.516  13.887  0.2211  0.1451  0.0122
 1764BOLB   C1D42333  34.732  27.385  12.772 -0.3315 -0.0533 -0.2662
 1764BOLB   C2D42334  34.515  27.422  13.249 -0.5572  0.1247 -0.1064
 1764BOLB   C3D42335  34.483  27.424  13.710 -0.1348 -0.2681 -0.2546
 1764BOLB   C4D42336  34.824  27.250  13.899  0.2695 -0.0820  0.3340
 1765BOLB   NC142337  21.993  30.732   0.089  0.1614 -0.1735 -0.1578
 1765BOLB   PO142338  21.613  30.899   0.299 -0.1375 -0.0774  0.2075
 1765BOLB   GL142339  21.468  30.900   0.716  0.0269  0.0983 -0.0840
 1765BOLB   GL242340  21.707  30.785   0.881  0.1782  0.0905 -0.0461
 1765BOLB   C1A42341  21.154  31.024   1.197  0.1736 -0.2639 -0.2097
 1765BOLB   C2A42342  20.777  31.204   1.405  0.0002  0.0432 -0.2169
 1765BOLB   C3A42343  20.517  31.521   1.558 -0.2919  0.0727 -0.0702
 1765BOLB   C4A42344  20.133  31.426   1.712  0.0196 -0.2287 -0.0540
 1765BOLB   C1B42345  21.398  30.602   1.270 -0.1290 -0.0974  0.1060
 1765BOLB   C2B42346  21.063  30.462   1.444  0.0951  0.0760  0.0957
 1765BOLB   C3B42347  20.869  30.140   1.285  0.0431 -0.1634 -0.2501
 1765BOLB   C4B42348  20.582  30.067   1.021  0.0046  0.1177  0.0424
 1765BOLB   NC242349  18.547  32.539   2.888  0.0121  0.0998  0.3938
 1765BOLB   PO242350  18.091  32.629   2.666 -0.0408 -0.2585  0.0315
 1765BOLB   GL342351  18.452  32.378   2.401  0.0223  0.0433  0.0197
 1765BOLB   GL442352  18.511  32.377   2.073 -0.3303  0.3637 -0.0550
 1765BOLB   C1C42353  18.866  32.289   2.390 -0.0856 -0.0295 -0.0054
 1765BOLB   C2C42354  19.282  32.104   2.325 -0.2309 -0.0602 -0.0380
 1765BOLB   C3C42355  19.520  31.842   2.106  0.1490  0.3578  0.1195
 1765BOLB   C4C42356  19.768  31.490   2.073 -0.0133  0.1737 -0.1866
 1765BOLB   C1D42357  18.672  31.990   2.017 -0.0117  0.3132  0.3957
 1765BOLB   C2D42358  19.057  31.857   1.877  0.0903  0.1726  0.2091
 1765BOLB   C3D42359  19.505  31.651   1.689  0.1335  0.2639 -0.2109
 1765BOLB   C4D42360  19.715  31.289   1.541 -0.1042  0.0200 -0.4373
 1766BOLB   NC142361  30.144  23.841   0.033  0.4211 -0.2382  0.1771
 1766BOLB   PO142362  29.749  23.938   0.074  0.2988 -0.1610 -0.2431
 1766BOLB   GL142363  29.836  23.677   0.363  0.1080  0.2468  0.1212
 1766BOLB   GL242364  29.508  23.608   0.527 -0.0542  0.3885 -0.0283
 1766BOLB   C1A42365  30.070  23.375   0.670  0.0343  0.0172  0.3664
 1766BOLB   C2A42366  30.061  22.974   0.936  0.0608  0.0124  0.2895
 1766BOLB   C3A42367  29.984  22.675   1.229 -0.0238  0.0870  0.1219
 1766BOLB   C4A42368  30.032  22.368   1.465  0.2114 -0.2072 -0.0504
 1766BOLB   C1B42369  29.612  23.220   0.724 -0.0117 -0.1813 -0.1865
 1766BOLB   C2B42370  29.598  22.979   1.100  0.1397 -0.2744 -0.0161
 1766BOLB   C3B42371  29.688  22.874   1.577  0.2916 -0.2560  0.0361
 1766BOLB   C4B42372  29.659  22.563   1.830 -0.0497 -0.0965  0.2920
 1766BOLB   NC242373  31.290  20.640   2.978  0.3678  0.0892  0.3399
 1766BOLB   PO242374  31.570  20.857   2.930 -0.2158 -0.0026 -0.0187
 1766BOLB   GL342375  31.301  21.224   2.821 -0.0770 -0.0722 -0.0774
 1766BOLB   GL442376  31.475  21.531   2.837  0.1906 -0.0525 -0.0002
 1766BOLB   C1C42377  30.895  21.376   2.628 -0.0855  0.0353 -0.0319
 1766BOLB   C2C42378  30.481  21.641   2.386 -0.2167  0.1129  0.1570
 1766BOLB   C3C42379  30.179  21.863   2.219 -0.3097  0.0647 -0.0495
 1766BOLB   C4C42380  30.036  22.050   1.852 -0.1228  0.2294  0.0940
 1766BOLB   C1D42381  31.300  21.594   2.491  0.2756  0.2609 -0.1880
 1766BOLB   C2D42382  30.981  21.804   2.244 -0.1541  0.0132  0.2095
 1766BOLB   C3D42383  30.657  21.813   1.884  0.3597 -0.1604 -0.3137
 1766BOLB   C4D42384  30.459  22.043   1.561 -0.2243 -0.0161 -0.1315
 1767BOLB   NC142385  28.396  30.325   2.746  0.1075  0.0861 -0.1393
 1767BOLB   PO142386  28.046  30.068   2.906  0.0834 -0.0222  0.0569
 1767BOLB   GL142387  28.217  30.130   3.251 -0.1113 -0.0796  0.1272
 1767BOLB   GL242388  28.494  29.903   3.340 -0.1450 -0.1352 -0.3910
 1767BOLB   C1A42389  27.895  30.133   3.545 -0.0634  0.0564  0.0885
 1767BOLB   C2A42390  27.619  30.309   3.888 -0.2296 -0.1450  0.1735
 1767BOLB   C3A42391  27.649  30.220   4.366 -0.0182  0.1010 -0.3074
 1767BOLB   C4A42392  27.700  30.164   4.872 -0.2527 -0.1642 -0.0659
 1767BOLB   C1B42393  28.396  29.958   3.774 -0.1912  0.1235  0.0484
 1767BOLB   C2B42394  28.009  30.026   3.993  0.0934 -0.0418  0.0063
 1767BOLB   C3B42395  27.908  29.817   4.379  0.3005  0.1580 -0.2581
 1767BOLB   C4B42396  27.614  29.682   4.622 -0.0273 -0.0178 -0.0389
 1767BOLB   NC242397  28.895  29.720   7.053  0.0121  0.2574 -0.2446
 1767BOLB   PO242398  28.716  30.144   7.251  0.2611  0.2634 -0.1495
 1767BOLB   GL342399  28.631  30.123   6.811 -0.2122 -0.4105  0.0638
 1767BOLB   GL442400  28.511  29.726   6.773  0.1430  0.2913  0.0948
 1767BOLB   C1C42401  28.546  30.181   6.353  0.2384 -0.3692  0.1371
 1767BOLB   C2C42402  28.517  30.187   5.926  0.0086  0.0194 -0.0207
 1767BOLB   C3C42403  28.279  30.136   5.622  0.0960 -0.0764  0.3093
 1767BOLB   C4C42404  27.972  30.180   5.214 -0.1371 -0.0254  0.0211
 1767BOLB   C1D42405  28.670  29.669   6.419  0.0358 -0.0701  0.0526
 1767BOLB   C2D42406  28.724  29.700   5.989  0.2372 -0.1883 -0.1085
 1767BOLB   C3D42407  28.683  29.682   5.546  0.0265  0.0583 -0.4563
 1767BOLB   C4D42408  28.409  29.761   5.241  0.2680 -0.0972 -0.1834
 1768BOLB   NC142409  29.638  26.619  14.896 -0.0038  0.0202 -0.0550
 1768BOLB   PO142410  29.831  26.661  14.501  0.0134 -0.0770 -0.0694
 1768BOLB   GL142411  30.043  26.397  14.200  0.0115  0.0372  0.3065
 1768BOLB   GL242412  30.038  25.981  14.268  0.0468  0.2345 -0.0612
 1768BOLB   C1A42413  30.228  26.128  13.800  0.0608 -0.1426  0.2386
 1768BOLB   C2A42414  30.296  26.106  13.393  0.0436  0.1028  0.0327
 1768BOLB   C3A42415  30.297  25.923  13.014 -0.0099  0.4178 -0.4482
 1768BOLB   C4A42416  30.334  25.598  12.804 -0.0107  0.1005  0.6315
 1768BOLB   C1B42417  30.123  25.672  14.001 -0.0910  0.1994  0.2226
 1768BOLB   C2B42418  29.925  25.752  13.666 -0.4796  0.0247  0.0607
 1768BOLB   C3B42419  29.906  25.499  13.210  0.0009  0.0682  0.0440
 1768BOLB   C4B42420  29.882  25.340  12.754  0.0793 -0.0527 -0.1131
 1768BOLB   NC242421  31.886  24.358  11.538 -0.3163 -0.1379 -0.0642
 1768BOLB   PO242422  31.458  24.521  11.244 -0.3207 -0.2316 -0.0452
 1768BOLB   GL342423  31.103  24.480  11.534  0.1042 -0.0913  0.1134
 1768BOLB   GL442424  30.923  24.137  11.555 -0.2941  0.1921  0.1152
 1768BOLB   C1C42425  30.872  24.751  11.876  0.1818 -0.0551 -0.0869
 1768BOLB   C2C42426  30.719  24.580  12.203  0.1998  0.0825  0.0299
 1768BOLB   C3C42427  30.518  24.916  12.530  0.0135 -0.0515 -0.0035
 1768BOLB   C4C42428  30.393  25.330  12.585  0.0394 -0.2276  0.3664
 1768BOLB   C1D42429  30.474  24.369  11.842  0.0881  0.0984 -0.0821
 1768BOLB   C2D42430  30.329  24.816  11.911  0.0639  0.1334  0.2050
 1768BOLB   C3D42431  30.089  25.119  12.283 -0.1003  0.0980  0.4600
 1768BOLB   C4D42432  29.623  25.101  12.237  0.0889  0.3645  0.1747
 1769BOLB   NC142433  33.147  31.869   0.368 -0.0931 -0.0266  0.0890
 1769BOLB   PO142434  32.797  32.104   0.773  0.1168 -0.3161  0.1448
 1769BOLB   GL142435  33.097  32.073   1.208  0.3088  0.1603  0.5017
 1769BOLB   GL242436  33.333  32.102   0.905 -0.1016  0.1598 -0.0744
 1769BOLB   C1A42437  33.143  32.017   1.676 -0.3911  0.0842  0.1687
 1769BOLB   C2A42438  33.081  31.780   2.091  0.1116 -0.0805  0.1921
 1769BOLB   C3A42439  33.256  31.622   2.413  0.2175  0.1149 -0.2175
 1769BOLB   C4A42440  33.399  31.543   2.907 -0.0207  0.2187  0.0322
 1769BOLB   C1B42441  33.808  32.213   0.987 -0.1591  0.3174 -0.0515
 1769BOLB   C2B42442  33.969  32.393   1.312 -0.1164  0.0808  0.0072
 1769BOLB   C3B42443  34.068  32.472   1.749 -0.3376  0.2591  0.2609
 1769BOLB   C4B42444  34.381  32.348   2.165 -0.1181 -0.0160  0.2581
 1769BOLB   NC242445  34.676  32.238   4.949 -0.0209 -0.1106 -0.0516
 1769BOLB   PO242446  34.547  32.137   4.586  0.0917  0.1099 -0.2095
 1769BOLB   GL342447  34.405  32.463   4.331 -0.3069  0.0356 -0.3362
 1769BOLB   GL442448  34.328  32.279   4.061 -0.0241 -0.1773 -0.1031
 1769BOLB   C1C42449  33.978  32.595   4.198 -0.1764  0.3412  0.0294
 1769BOLB   C2C42450  33.885  32.357   3.811 -0.3368 -0.1219  0.2629
 1769BOLB   C3C42451  33.570  32.076   3.640  0.2478 -0.3953  0.1927
 1769BOLB   C4C42452  33.567  31.715   3.284  0.2155 -0.0082 -0.2512
 1769BOLB   C1D42453  34.360  32.374   3.652 -0.2116 -0.2046 -0.0191
 1769BOLB   C2D42454  34.247  32.417   3.231 -0.4553 -0.2705 -0.0434
 1769BOLB   C3D42455  34.004  32.657   3.004 -0.4635  0.1502  0.3301
 1769BOLB   C4D42456  33.675  32.733   2.602 -0.1761 -0.1755 -0.0325
 1770BOLB   NC142457  32.427  35.844  18.455 -0.0809  0.3004 -0.2885
 1770BOLB   PO142458  32.162  36.074  18.558  0.3372 -0.0091  0.1856
 1770BOLB   GL142459  32.235  36.545  18.466 -0.0780 -0.0404 -0.2465
 1770BOLB   GL242460  32.389  36.631  18.746  0.1711 -0.0302 -0.0482
 1770BOLB   C1A42461  32.444  36.802  18.188 -0.2397 -0.2751  0.2925
 1770BOLB   C2A42462  32.779  36.900  17.782 -0.1624  0.1235 -0.0550
 1770BOLB   C3A42463  33.074  37.297  17.761 -0.1620 -0.0812 -0.0936
 1770BOLB   C4A42464  33.399  37.617  17.799  0.1450 -0.0714  0.2706
 1770BOLB   C1B42465  32.556  36.955  18.672  0.3497  0.1738 -0.1149
 1770BOLB   C2B42466  32.867  37.337  18.700 -0.1547  0.0824  0.1017
 1770BOLB   C3B42467  33.303  37.490  18.830 -0.4494 -0.0011 -0.0587
 1770BOLB   C4B42468  33.634  37.817  18.813  0.0247 -0.3334 -0.2090
 1770BOLB   NC242469  35.658  38.691  17.588 -0.2374 -0.2719 -0.1147
 1770BOLB   PO242470  35.226  38.869  17.338 -0.0327  0.2036 -0.2279
 1770BOLB   GL342471  34.908  38.843  17.535 -0.1028 -0.0702  0.0126
 1770BOLB   GL442472  34.705  38.891  17.263 -0.1213  0.3113 -0.1233
 1770BOLB   C1C42473  34.568  38.604  17.800  0.0021 -0.0678 -0.0123
 1770BOLB   C2C42474  34.165  38.566  18.047  0.1796 -0.1883 -0.1099
 1770BOLB   C3C42475  33.887  38.310  17.947  0.2786  0.3289 -0.0061
 1770BOLB   C4C42476  33.494  38.006  17.988 -0.0513 -0.0278  0.1963
 1770BOLB   C1D42477  34.361  38.672  17.371 -0.1468 -0.1715  0.4245
 1770BOLB   C2D42478  34.236  38.308  17.487  0.1789 -0.0082 -0.4018
 1770BOLB   C3D42479  34.301  37.831  17.580 -0.2323  0.0801 -0.1145
 1770BOLB   C4D42480  34.661  37.580  17.439 -0.2111 -0.2353 -0.1758
 1771BOLB   NC142481  29.628  41.899  19.137 -0.0688 -0.0625  0.2101
 1771BOLB   PO142482  29.264  41.626  19.428 -0.3073 -0.0282  0.3870
 1771BOLB   GL142483  29.055  41.326  19.141 -0.3138  0.2880 -0.1990
 1771BOLB   GL242484  28.708  41.322  19.076  0.2646 -0.1762  0.3530
 1771BOLB   C1A42485  29.112  40.946  19.018  0.1422  0.2783  0.3524
 1771BOLB   C2A42486  29.339  40.673  19.172  0.1027 -0.0238 -0.0291
 1771BOLB   C3A42487  29.437  40.506  19.527 -0.0119 -0.0570  0.1718
 1771BOLB   C4A42488  29.395  40.716  19.978  0.0505  0.1600 -0.1051
 1771BOLB   C1B42489  28.567  40.864  19.338 -0.4740 -0.1307  0.2998
 1771BOLB   C2B42490  28.611  40.541  19.681  0.1497  0.2996  0.3039
 1771BOLB   C3B42491  28.318  40.399  19.615  0.3583 -0.1003  0.2259
 1771BOLB   C4B42492  28.009  40.285  19.380  0.2017 -0.0369 -0.1190
 1771BOLB   NC242493  30.625  41.783  20.941  0.0166 -0.0219  0.0505
 1771BOLB   PO242494  30.894  41.822  21.269  0.0360 -0.2705  0.0476
 1771BOLB   GL342495  30.729  41.535  21.588 -0.1979  0.0929 -0.2012
 1771BOLB   GL442496  30.531  41.349  21.877  0.0455 -0.0629  0.0279
 1771BOLB   C1C42497  30.555  41.133  21.442  0.3321  0.0331 -0.5093
 1771BOLB   C2C42498  30.155  40.952  21.140  0.0653  0.1520  0.0690
 1771BOLB   C3C42499  29.766  40.936  20.724 -0.0795 -0.0797  0.0569
 1771BOLB   C4C42500  29.664  40.678  20.325 -0.0240 -0.3130 -0.0653
 1771BOLB   C1D42501  30.366  40.968  21.969  0.0622 -0.3617  0.4010
 1771BOLB   C2D42502  30.459  40.477  22.036  0.1376  0.1336  0.1537
 1771BOLB   C3D42503  30.691  40.214  22.386 -0.0943  0.0988 -0.0188
 1771BOLB   C4D42504  30.818  39.770  22.491  0.2690  0.3223  0.1329
 1772BOLB   NC142505  26.180  36.978  17.439  0.2912  0.2107 -0.0293
 1772BOLB   PO142506  26.489  37.210  17.563 -0.2700 -0.2389 -0.1136
 1772BOLB   GL142507  26.578  37.480  17.288  0.0352 -0.0675 -0.3577
 1772BOLB   GL242508  26.300  37.361  17.039 -0.0566  0.1336 -0.1184
 1772BOLB   C1A42509  26.747  37.801  17.266  0.3122 -0.1080 -0.2272
 1772BOLB   C2A42510  26.659  38.133  16.977 -0.2246  0.0457  0.1535
 1772BOLB   C3A42511  26.449  38.336  16.628 -0.0314  0.1719  0.0507
 1772BOLB   C4A42512  26.065  38.387  16.416 -0.2425 -0.5004 -0.0279
 1772BOLB   C1B42513  26.135  37.745  17.193  0.0347  0.3716 -0.0073
 1772BOLB   C2B42514  26.045  38.060  17.460 -0.0169 -0.1748  0.2501
 1772BOLB   C3B42515  25.789  38.305  17.744 -0.0505  0.1232  0.0365
 1772BOLB   C4B42516  25.618  38.740  17.729  0.0866 -0.3536  0.0928
 1772BOLB   NC242517  26.109  40.909  16.062 -0.1999 -0.0160 -0.0003
 1772BOLB   PO242518  25.740  40.878  16.353 -0.4789  0.1350 -0.1302
 1772BOLB   GL342519  25.656  40.337  16.277 -0.2477  0.0146  0.0290
 1772BOLB   GL442520  25.727  40.363  16.532 -0.0134 -0.4346 -0.0857
 1772BOLB   C1C42521  25.733  39.895  15.981  0.1851 -0.0209 -0.0970
 1772BOLB   C2C42522  25.685  39.527  16.020 -0.0170 -0.0643  0.1475
 1772BOLB   C3C42523  25.797  39.148  16.060 -0.1388  0.1592 -0.0094
 1772BOLB   C4C42524  25.867  38.712  16.259  0.1202 -0.2177  0.0344
 1772BOLB   C1D42525  26.064  40.069  16.508  0.1366  0.1314  0.0342
 1772BOLB   C2D42526  26.400  40.064  16.740 -0.0700 -0.0395 -0.2898
 1772BOLB   C3D42527  26.875  40.139  16.792  0.1334 -0.0828 -0.0688
 1772BOLB   C4D42528  27.192  40.192  17.072  0.0815 -0.1622 -0.0739
 1773BOLB   NC142529  33.294  36.081  22.135 -0.0155  0.1048  0.0550
 1773BOLB   PO142530  33.560  35.978  21.773 -0.0605 -0.1577 -0.1704
 1773BOLB   GL142531  34.046  35.914  21.781  0.0001 -0.0526 -0.1580
 1773BOLB   GL242532  34.142  36.240  21.659 -0.3705  0.1835 -0.1291
 1773BOLB   C1A42533  34.390  35.971  22.025 -0.0157  0.0925  0.3017
 1773BOLB   C2A42534  34.699  36.347  22.075 -0.0447  0.1274  0.2368
 1773BOLB   C3A42535  34.813  36.757  21.948 -0.0215 -0.0771  0.1922
 1773BOLB   C4A42536  35.165  37.003  22.001 -0.0238  0.4729  0.1520
 1773BOLB   C1B42537  34.377  36.652  21.630  0.0046 -0.2236 -0.2934
 1773BOLB   C2B42538  34.534  37.028  21.597  0.2522  0.0929  0.0638
 1773BOLB   C3B42539  34.844  37.232  21.640 -0.3135  0.2492 -0.3967
 1773BOLB   C4B42540  35.125  37.546  21.927  0.2948 -0.0712  0.0138
 1773BOLB   NC242541  35.656  39.332  21.633 -0.3186  0.0799  0.0050
 1773BOLB   PO242542  35.566  39.247  22.020  0.0145  0.1715 -0.0785
 1773BOLB   GL342543  35.338  38.895  22.022  0.2826  0.0796 -0.4303
 1773BOLB   GL442544  35.058  38.887  21.903 -0.3300  0.5246  0.1842
 1773BOLB   C1C42545  35.276  38.507  22.166 -0.2897 -0.1209  0.1022
 1773BOLB   C2C42546  35.534  38.147  22.150  0.0720 -0.2174  0.2528
 1773BOLB   C3C42547  35.419  37.744  22.394 -0.1165 -0.2397 -0.0209
 1773BOLB   C4C42548  35.286  37.309  22.279  0.1200 -0.0960 -0.0306
 1773BOLB   C1D42549  34.693  38.722  21.778 -0.0553  0.0904 -0.1007
 1773BOLB   C2D42550  34.514  38.421  21.788  0.0625  0.0052  0.0135
 1773BOLB   C3D42551  34.171  38.125  21.554  0.1160  0.0315 -0.1508
 1773BOLB   C4D42552  33.959  37.874  21.300 -0.0902  0.1540  0.0066
 1774BOLB   NC142553  33.627  32.721  17.160 -0.0766  0.0259  0.2221
 1774BOLB   PO142554  34.013  32.629  17.109  0.0912  0.0118 -0.3104
 1774BOLB   GL142555  34.126  32.843  16.765  0.1345  0.1853 -0.0431
 1774BOLB   GL242556  34.088  33.175  16.639 -0.0071 -0.1375 -0.0489
 1774BOLB   C1A42557  34.488  32.935  16.414  0.1593  0.0131  0.2166
 1774BOLB   C2A42558  34.794  33.226  16.035  0.3884 -0.0968  0.1089
 1774BOLB   C3A42559  34.990  33.240  15.654 -0.0432  0.0737  0.0326
 1774BOLB   C4A42560  35.388  33.059  15.588 -0.0733  0.2490 -0.0972
 1774BOLB   C1B42561  34.507  33.382  16.534  0.1412  0.1877  0.1358
 1774BOLB   C2B42562  34.833  33.652  16.434  0.1968 -0.0067  0.1272
 1774BOLB   C3B42563  35.212  33.874  16.209  0.2020  0.1869 -0.3809
 1774BOLB   C4B42564  35.592  34.115  16.143  0.0121  0.1528  0.2537
 1774BOLB   NC242565  37.339  32.969  14.325  0.1351 -0.4991  0.0227
 1774BOLB   PO242566  37.161  33.304  14.223 -0.0102 -0.1652  0.1138
 1774BOLB   GL342567  36.818  33.096  14.465  0.1431 -0.0706 -0.1249
 1774BOLB   GL442568  36.639  32.948  14.335  0.0547 -0.1248 -0.0580
 1774BOLB   C1C42569  36.662  32.878  14.839 -0.1154  0.5744  0.0060
 1774BOLB   C2C42570  36.583  32.832  15.369  0.0086 -0.0402 -0.0928
 1774BOLB   C3C42571  36.291  32.864  15.681 -0.4017 -0.0487 -0.0967
 1774BOLB   C4C42572  35.854  32.925  15.662  0.0059 -0.1929  0.2571
 1774BOLB   C1D42573  36.207  32.836  14.541 -0.1902  0.0715 -0.0701
 1774BOLB   C2D42574  35.778  32.866  14.712 -0.0956 -0.0194 -0.3719
 1774BOLB   C3D42575  35.346  32.976  14.502  0.0723  0.0960  0.1838
 1774BOLB   C4D42576  34.991  33.054  14.764  0.1897 -0.3808  0.1591
 1775BOLB   NC142577  22.698  34.994  26.472 -0.1857  0.0276  0.0548
 1775BOLB   PO142578  22.894  34.960  26.878  0.0487 -0.1224 -0.1340
 1775BOLB   GL142579  22.761  35.372   0.064  0.2930 -0.0709 -0.2749
 1775BOLB   GL242580  22.517  35.427  26.700  0.1855  0.1170 -0.1783
 1775BOLB   C1A42581  22.550  35.491   0.386 -0.3093  0.2718 -0.1113
 1775BOLB   C2A42582  22.224  35.729   0.323 -0.0605 -0.0291 -0.0716
 1775BOLB   C3A42583  21.990  36.002  26.907  0.0741  0.1557 -0.0275
 1775BOLB   C4A42584  21.800  36.366  26.873  0.1220 -0.2671 -0.1273
 1775BOLB   C1B42585  22.137  35.581  26.684 -0.2289  0.0150 -0.1756
 1775BOLB   C2B42586  21.638  35.666  26.587  0.2986  0.0039  0.3064
 1775BOLB   C3B42587  21.489  35.930   0.028 -0.0054 -0.1231  0.2228
 1775BOLB   C4B42588  21.439  36.109   0.372 -0.1471 -0.0535  0.1827
 1775BOLB   NC242589  19.602  37.679   0.418 -0.0131  0.1157  0.4005
 1775BOLB   PO242590  19.514  37.249   0.370 -0.0118  0.2020 -0.1738
 1775BOLB   GL342591  19.766  36.996   0.192 -0.2363  0.2851  0.0482
 1775BOLB   GL442592  19.844  37.047  26.751 -0.3612  0.0760 -0.1982
 1775BOLB   C1C42593  20.269  37.024   0.117  0.1518 -0.1458 -0.2341
 1775BOLB   C2C42594  20.746  36.935   0.053 -0.1267 -0.0229 -0.2725
 1775BOLB   C3C42595  21.105  36.849  26.796  0.0440 -0.0285  0.2964
 1775BOLB   C4C42596  21.429  36.660  26.728 -0.2215  0.0724 -0.3150
 1775BOLB   C1D42597  20.150  36.918  26.472  0.1083 -0.2787 -0.2100
 1775BOLB   C2D42598  20.484  36.642  26.652 -0.0601  0.1037  0.1695
 1775BOLB   C3D42599  20.420  36.228  26.771  0.1432 -0.0070 -0.0920
 1775BOLB   C4D42600  20.323  35.798  26.683 -0.0582 -0.2865  0.1975
 1776BOLB   NC142601  31.435  32.631   1.929  0.3415  0.1637  0.0716
 1776BOLB   PO142602  31.684  32.323   2.051 -0.0467  0.1342  0.0930
 1776BOLB   GL142603  31.709  32.531   2.500 -0.0940 -0.0561 -0.0277
 1776BOLB   GL242604  31.907  32.440   2.530  0.0502 -0.0950  0.4551
 1776BOLB   C1A42605  31.580  32.306   2.834  0.2532  0.0987 -0.1358
 1776BOLB   C2A42606  31.457  32.143   3.295  0.1943 -0.2779  0.0964
 1776BOLB   C3A42607  31.216  32.081   3.583 -0.2478 -0.1615 -0.3393
 1776BOLB   C4A42608  31.349  32.011   4.029 -0.1593 -0.1544 -0.0132
 1776BOLB   C1B42609  32.053  32.421   2.918  0.0481  0.0383 -0.1177
 1776BOLB   C2B42610  31.822  32.489   3.225  0.2216 -0.1317 -0.1372
 1776BOLB   C3B42611  31.710  32.710   3.634  0.2143  0.0715 -0.1801
 1776BOLB   C4B42612  31.743  32.892   3.968 -0.0468 -0.2189  0.1392
 1776BOLB   NC242613  30.518  32.157   6.825 -0.0216 -0.2935  0.1049
 1776BOLB   PO242614  30.894  31.911   6.582  0.0227 -0.2459 -0.0757
 1776BOLB   GL342615  30.858  31.856   6.177 -0.0916 -0.3739  0.1202
 1776BOLB   GL442616  30.973  32.112   6.019  0.1336  0.3332  0.0296
 1776BOLB   C1C42617  30.902  31.659   5.800  0.0247 -0.0679  0.0588
 1776BOLB   C2C42618  31.195  31.756   5.348 -0.3403 -0.2572  0.2340
 1776BOLB   C3C42619  31.138  31.774   4.858 -0.2301  0.0782  0.2444
 1776BOLB   C4C42620  31.416  31.892   4.427 -0.0900 -0.1080 -0.1821
 1776BOLB   C1D42621  30.808  32.127   5.613  0.1443 -0.4471  0.1451
 1776BOLB   C2D42622  30.929  32.146   5.090 -0.3945  0.0863 -0.1283
 1776BOLB   C3D42623  31.136  32.246   4.690 -0.0139  0.0743  0.0450
 1776BOLB   C4D42624  30.937  31.986   4.381  0.4220 -0.1603 -0.2581
 1777BOLB   NC142625  25.922  30.372  13.597  0.1762  0.1234 -0.1463
 1777BOLB   PO142626  25.685  30.181  13.583 -0.4109 -0.2656  0.0380
 1777BOLB   GL142627  25.574  29.877  13.166 -0.0758 -0.2596 -0.0834
 1777BOLB   GL242628  25.472  29.520  13.164 -0.1435 -0.0338 -0.0000
 1777BOLB   C1A42629  25.389  29.949  12.726 -0.1268 -0.1085  0.3949
 1777BOLB   C2A42630  25.181  30.276  12.479  0.1112  0.0399  0.3682
 1777BOLB   C3A42631  24.883  30.541  12.235  0.1129  0.2303  0.0346
 1777BOLB   C4A42632  24.797  30.617  11.748 -0.0682  0.3482  0.1919
 1777BOLB   C1B42633  25.445  29.429  12.672  0.0117 -0.0410 -0.1467
 1777BOLB   C2B42634  25.473  29.511  12.314 -0.0371 -0.1701 -0.0395
 1777BOLB   C3B42635  25.454  29.346  11.925  0.4085  0.2436 -0.1004
 1777BOLB   C4B42636  25.281  28.988  11.837 -0.0338 -0.2082 -0.2118
 1777BOLB   NC242637  24.381  29.920   9.490 -0.0601  0.1814 -0.4982
 1777BOLB   PO242638  24.082  30.194   9.554  0.1465 -0.1597  0.1074
 1777BOLB   GL342639  24.254  30.099   9.954 -0.0164  0.2503 -0.0348
 1777BOLB   GL442640  24.587  29.972  10.042  0.1037  0.1233 -0.2918
 1777BOLB   C1C42641  24.204  30.178  10.402 -0.2658 -0.0356 -0.0543
 1777BOLB   C2C42642  24.365  30.541  10.619 -0.0832 -0.1367  0.2295
 1777BOLB   C3C42643  24.551  30.610  10.994  0.1587  0.1758 -0.0298
 1777BOLB   C4C42644  24.609  30.655  11.288 -0.0141 -0.3283 -0.3917
 1777BOLB   C1D42645  24.487  29.733  10.418  0.1656 -0.2285  0.3985
 1777BOLB   C2D42646  24.371  29.341  10.549 -0.1793  0.1041 -0.3186
 1777BOLB   C3D42647  24.302  29.135  10.962  0.0891 -0.1634  0.0450
 1777BOLB   C4D42648  24.222  28.881  11.307 -0.0441 -0.3179 -0.0940
 1778BOLB   NC142649  25.321  35.603  16.494  0.1102 -0.2750  0.0050
 1778BOLB   PO142650  25.282  35.226  16.207  0.1739 -0.1054  0.1369
 1778BOLB   GL142651  25.082  35.324  15.798 -0.0506 -0.0295 -0.0018
 1778BOLB   GL242652  24.808  35.506  15.652  0.0644 -0.1390  0.2090
 1778BOLB   C1A42653  25.056  35.251  15.302 -0.1024 -0.1683  0.2953
 1778BOLB   C2A42654  25.042  35.388  14.925  0.0925  0.0976 -0.0045
 1778BOLB   C3A42655  25.161  35.781  14.668  0.0373  0.3150 -0.0451
 1778BOLB   C4A42656  24.941  36.086  14.522 -0.3321 -0.0279  0.0109
 1778BOLB   C1B42657  24.766  35.716  15.244 -0.4422 -0.0119 -0.1273
 1778BOLB   C2B42658  24.676  36.077  15.080 -0.1963  0.1602  0.0692
 1778BOLB   C3B42659  24.443  36.333  14.664 -0.2503  0.2285 -0.3319
 1778BOLB   C4B42660  24.145  36.455  14.342  0.2019  0.1397  0.0504
 1778BOLB   NC242661  23.172  37.173  13.042  0.0665 -0.0480 -0.2050
 1778BOLB   PO242662  23.520  37.033  12.798 -0.1224  0.1894 -0.0059
 1778BOLB   GL342663  23.808  36.711  12.928 -0.1703  0.0894  0.0453
 1778BOLB   GL442664  23.816  36.904  13.223  0.0235 -0.2268  0.1814
 1778BOLB   C1C42665  24.175  36.578  13.225 -0.1253  0.1884  0.0110
 1778BOLB   C2C42666  24.267  36.495  13.633  0.2699 -0.1283  0.1574
 1778BOLB   C3C42667  24.436  36.329  13.987 -0.1706 -0.0124  0.0856
 1778BOLB   C4C42668  24.762  36.339  14.221  0.2984  0.1721  0.0062
 1778BOLB   C1D42669  23.702  36.498  13.451 -0.0649  0.1848  0.3202
 1778BOLB   C2D42670  23.790  36.249  13.837 -0.2021  0.1263 -0.2813
 1778BOLB   C3D42671  23.782  36.076  14.326  0.0225 -0.2657  0.0663
 1778BOLB   C4D42672  23.699  36.098  14.765  0.1360 -0.2127 -0.1530
 1779BOLB   NC142673  33.678  25.174  18.677 -0.2233  0.2434  0.2454
 1779BOLB   PO142674  33.355  24.854  18.580  0.2179  0.0437  0.1167
 1779BOLB   GL142675  33.616  24.665  18.391  0.3249 -0.0228 -0.0730
 1779BOLB   GL242676  33.603  24.552  18.015  0.3597  0.2285 -0.0714
 1779BOLB   C1A42677  33.967  24.323  18.344  0.1563  0.0115  0.2289
 1779BOLB   C2A42678  34.071  24.001  18.646 -0.1737  0.3627 -0.0672
 1779BOLB   C3A42679  34.187  23.587  18.487  0.0669 -0.1323 -0.0011
 1779BOLB   C4A42680  34.332  23.314  18.414  0.0903  0.1672  0.4483
 1779BOLB   C1B42681  33.903  24.329  17.838  0.0579 -0.1106  0.4696
 1779BOLB   C2B42682  34.090  24.124  17.423  0.2859 -0.3062 -0.3204
 1779BOLB   C3B42683  34.120  24.248  16.953 -0.0188  0.2111 -0.2142
 1779BOLB   C4B42684  34.529  24.186  16.737  0.1218 -0.0497 -0.1856
 1779BOLB   NC242685  35.849  21.514  16.400  0.0977  0.0669  0.0227
 1779BOLB   PO242686  35.736  21.528  16.898 -0.3315 -0.0484 -0.0980
 1779BOLB   GL342687  35.446  21.673  17.220  0.0195 -0.0851 -0.1838
 1779BOLB   GL442688  35.265  21.427  17.314  0.1349  0.0012 -0.2207
 1779BOLB   C1C42689  35.124  21.997  17.227  0.0468 -0.1681  0.0805
 1779BOLB   C2C42690  35.116  22.321  17.649 -0.1513  0.0161 -0.0651
 1779BOLB   C3C42691  34.896  22.654  17.850 -0.0824 -0.1040  0.0326
 1779BOLB   C4C42692  34.546  22.920  18.188  0.0172  0.2621 -0.0458
 1779BOLB   C1D42693  34.978  21.535  17.070  0.1369 -0.5077  0.1786
 1779BOLB   C2D42694  34.688  21.778  16.906  0.3065  0.0711  0.0585
 1779BOLB   C3D42695  34.299  21.889  16.704  0.1467 -0.1608 -0.1169
 1779BOLB   C4D42696  34.126  21.759  16.398  0.1224 -0.1167 -0.1271
 1780BOLB   NC142697  31.064  30.433   2.314 -0.0567 -0.0298 -0.0821
 1780BOLB   PO142698  31.394  30.443   2.593 -0.0242 -0.0846 -0.0202
 1780BOLB   GL142699  31.424  30.422   2.984 -0.0354 -0.4154  0.2880
 1780BOLB   GL242700  31.804  30.419   3.107 -0.2178  0.3247  0.0577
 1780BOLB   C1A42701  31.365  30.304   3.438 -0.2916  0.1090 -0.0801
 1780BOLB   C2A42702  31.197  30.262   3.816 -0.3011  0.1853 -0.0186
 1780BOLB   C3A42703  31.269  30.084   4.204 -0.0242  0.0346  0.1168
 1780BOLB   C4A42704  31.528  30.021   4.519 -0.1034 -0.1679 -0.0347
 1780BOLB   C1B42705  32.260  30.430   3.350  0.2659 -0.3896  0.1154
 1780BOLB   C2B42706  32.756  30.325   3.452  0.1231 -0.2371 -0.4020
 1780BOLB   C3B42707  33.146  30.227   3.505 -0.0519  0.2238 -0.1144
 1780BOLB   C4B42708  33.572  30.100   3.498  0.1086 -0.1936  0.0195
 1780BOLB   NC242709  32.487  28.803   6.059  0.0868  0.0890 -0.0796
 1780BOLB   PO242710  32.481  29.170   6.321  0.1654  0.0712  0.2176
 1780BOLB   GL342711  32.448  29.423   5.923 -0.0770 -0.3601  0.0015
 1780BOLB   GL442712  32.472  29.148   5.740  0.1619  0.4095  0.1727
 1780BOLB   C1C42713  32.223  29.624   5.601 -0.0094 -0.3301  0.0292
 1780BOLB   C2C42714  32.138  29.740   5.264 -0.4175  0.1193 -0.0280
 1780BOLB   C3C42715  32.040  29.699   4.889  0.0315  0.0520 -0.0969
 1780BOLB   C4C42716  31.793  30.011   4.700 -0.2411  0.1785 -0.0831
 1780BOLB   C1D42717  32.053  29.172   5.523  0.0325 -0.0363 -0.1472
 1780BOLB   C2D42718  31.746  29.464   5.252 -0.2155 -0.4483  0.2081
 1780BOLB   C3D42719  31.638  29.396   4.834  0.1820  0.0673 -0.2848
 1780BOLB   C4D42720  31.454  29.137   4.529  0.1065  0.1534  0.2733
 1781BOLB   NC142721  35.541  27.675  21.558  0.3644 -0.2221 -0.5341
 1781BOLB   PO142722  35.445  27.830  21.128  0.3117 -0.1888 -0.1026
 1781BOLB   GL142723  35.751  27.563  20.909 -0.0014 -0.0509  0.1074
 1781BOLB   GL242724  35.822  27.542  20.649  0.0647  0.1095  0.0437
 1781BOLB   C1A42725  36.134  27.348  21.142 -0.1706  0.1161 -0.1478
 1781BOLB   C2A42726  36.535  27.267  21.130 -0.0786 -0.4105 -0.0614
 1781BOLB   C3A42727  36.855  26.978  20.946  0.2016  0.0095 -0.2229
 1781BOLB   C4A42728  37.095  26.803  20.557  0.0711  0.0960  0.1030
 1781BOLB   C1B42729  36.282  27.592  20.630  0.4204  0.3839  0.1088
 1781BOLB   C2B42730  36.635  27.546  20.788 -0.0536 -0.0972 -0.1481
 1781BOLB   C3B42731  37.160  27.460  20.827  0.1319  0.0822 -0.2708
 1781BOLB   C4B42732  37.370  27.091  20.970 -0.1358  0.0346 -0.0649
 1781BOLB   NC242733  39.428  25.293  20.420 -0.0773 -0.0331 -0.0834
 1781BOLB   PO242734  39.012  25.413  20.361  0.1839 -0.2469  0.1092
 1781BOLB   GL342735  38.701  25.482  20.164  0.1104  0.1938  0.0670
 1781BOLB   GL442736  38.517  25.389  19.951  0.0431  0.1013  0.0603
 1781BOLB   C1C42737  38.431  25.829  20.128  0.0457 -0.2339 -0.0413
 1781BOLB   C2C42738  38.076  26.029  20.184  0.2842 -0.0731 -0.0302
 1781BOLB   C3C42739  37.857  26.283  20.452  0.0048 -0.0431 -0.3902
 1781BOLB   C4C42740  37.554  26.657  20.449  0.2445 -0.0145 -0.0845
 1781BOLB   C1D42741  38.058  25.493  20.088  0.1028 -0.0018 -0.2486
 1781BOLB   C2D42742  37.652  25.857  20.119 -0.1676 -0.2384 -0.3104
 1781BOLB   C3D42743  37.145  25.803  20.083 -0.2096 -0.0119 -0.4966
 1781BOLB   C4D42744  36.984  25.798  20.568  0.0386  0.0880 -0.1328
 1782BOLB   NC142745  34.464  28.088  24.927 -0.2062 -0.2120  0.2766
 1782BOLB   PO142746  34.653  27.733  24.766 -0.5147  0.2769  0.0659
 1782BOLB   GL142747  35.055  27.622  25.002 -0.0266 -0.1358  0.0542
 1782BOLB   GL242748  34.985  27.568  25.328 -0.2465 -0.2775  0.0865
 1782BOLB   C1A42749  35.457  27.329  25.132  0.1574 -0.0591  0.0091
 1782BOLB   C2A42750  35.796  27.288  25.336 -0.1538 -0.0396 -0.0456
 1782BOLB   C3A42751  36.133  26.994  25.391 -0.1349 -0.1336  0.1180
 1782BOLB   C4A42752  36.647  27.168  25.369  0.2489 -0.0327  0.2302
 1782BOLB   C1B42753  35.348  27.346  25.620 -0.0039  0.0896  0.2931
 1782BOLB   C2B42754  35.734  27.353  25.847 -0.1723 -0.2803 -0.1070
 1782BOLB   C3B42755  36.025  27.095  26.022  0.0560  0.0763 -0.0054
 1782BOLB   C4B42756  36.287  26.747  25.837 -0.0734 -0.3595 -0.1180
 1782BOLB   NC242757  38.423  27.122  26.633  0.2502  0.1709 -0.2680
 1782BOLB   PO242758  38.799  27.223  26.362 -0.1887 -0.0701  0.3621
 1782BOLB   GL342759  38.504  27.436  26.170  0.0438 -0.0096 -0.2873
 1782BOLB   GL442760  38.244  27.490  26.337  0.0371  0.1683 -0.1240
 1782BOLB   C1C42761  38.329  27.397  25.760 -0.1798  0.0730  0.0976
 1782BOLB   C2C42762  37.918  27.425  25.781  0.2448  0.0235 -0.1335
 1782BOLB   C3C42763  37.467  27.341  25.567 -0.0516 -0.1412  0.2828
 1782BOLB   C4C42764  37.134  27.226  25.608  0.0355 -0.0163  0.0044
 1782BOLB   C1D42765  37.821  27.492  26.333 -0.3316  0.0795 -0.0541
 1782BOLB   C2D42766  37.431  27.569  26.001  0.3154 -0.1248  0.0563
 1782BOLB   C3D42767  37.147  27.680  25.863  0.1582 -0.2618 -0.1540
 1782BOLB   C4D42768  36.775  27.526  25.738  0.0629  0.2828  0.1513
 1783BOLB   NC142769  15.219  26.835   3.150  0.1026  0.0394 -0.3503
 1783BOLB   PO142770  15.350  26.506   3.365  0.1093  0.1174 -0.0449
 1783BOLB   GL142771  15.698  26.637   3.224  0.3656  0.1405 -0.0083
 1783BOLB   GL242772  15.664  26.733   2.991  0.3160  0.0205 -0.0411
 1783BOLB   C1A42773  16.054  26.403   2.982  0.0911 -0.1617 -0.0878
 1783BOLB   C2A42774  16.514  26.343   3.158  0.0122  0.0291  0.2217
 1783BOLB   C3A42775  16.884  26.426   2.921  0.1499 -0.0161 -0.3403
 1783BOLB   C4A42776  16.968  26.206   2.609 -0.5193  0.1614  0.0613
 1783BOLB   C1B42777  15.905  26.970   2.747 -0.2580  0.0096  0.3241
 1783BOLB   C2B42778  16.257  26.810   2.542  0.4238 -0.1888 -0.0656
 1783BOLB   C3B42779  16.483  27.062   2.188 -0.1249  0.0148 -0.0441
 1783BOLB   C4B42780  16.604  27.366   2.149 -0.3560  0.0770 -0.0249
 1783BOLB   NC242781  14.671  25.860   2.718 -0.0637  0.3961 -0.3623
 1783BOLB   PO242782  14.616  26.004   2.330 -0.3401 -0.0324 -0.0158
 1783BOLB   GL342783  14.924  26.087   2.040 -0.4705  0.0563  0.0846
 1783BOLB   GL442784  14.952  26.247   1.820  0.0582  0.1761 -0.2784
 1783BOLB   C1C42785  15.411  25.931   1.974 -0.1211 -0.1472  0.3014
 1783BOLB   C2C42786  15.842  25.965   2.011 -0.0802  0.0746 -0.1030
 1783BOLB   C3C42787  16.336  26.052   1.970  0.0687 -0.2037  0.1113
 1783BOLB   C4C42788  16.675  26.068   2.288  0.2894 -0.0715  0.1032
 1783BOLB   C1D42789  15.295  26.102   1.544  0.3499  0.0072 -0.1721
 1783BOLB   C2D42790  15.611  26.090   1.537  0.0209  0.1760  0.3391
 1783BOLB   C3D42791  16.053  25.797   1.507  0.0838  0.3481  0.0184
 1783BOLB   C4D42792  16.260  25.662   1.115  0.1193  0.0771 -0.1168
 1784BOLB   NC142793  36.937  37.080  24.763 -0.2054 -0.0032 -0.0302
 1784BOLB   PO142794  37.045  37.267  24.362  0.0616  0.0854  0.0851
 1784BOLB   GL142795  36.906  36.783  24.328  0.2872 -0.0213  0.0083
 1784BOLB   GL242796  36.824  36.463  24.568 -0.2885 -0.0651 -0.0483
 1784BOLB   C1A42797  36.654  36.719  24.060  0.1347  0.1033 -0.1254
 1784BOLB   C2A42798  36.269  36.635  23.881  0.0705 -0.0083  0.3454
 1784BOLB   C3A42799  35.967  36.656  24.134 -0.2347  0.0120 -0.0626
 1784BOLB   C4A42800  35.527  36.517  24.118 -0.2808 -0.0729 -0.1489
 1784BOLB   C1B42801  36.557  36.287  24.255 -0.3829  0.1021 -0.0137
 1784BOLB   C2B42802  36.176  36.122  24.084 -0.2429 -0.1239 -0.0723
 1784BOLB   C3B42803  35.877  35.849  24.017  0.4527  0.1806 -0.2799
 1784BOLB   C4B42804  35.532  35.603  23.890 -0.0619  0.1394  0.3291
 1784BOLB   NC242805  36.270  38.369  24.788 -0.1063  0.0361  0.0678
 1784BOLB   PO242806  35.920  38.622  24.589 -0.0820 -0.0928  0.2244
 1784BOLB   GL342807  35.800  38.372  24.257  0.0013  0.2308 -0.1213
 1784BOLB   GL442808  35.676  38.608  24.131 -0.0342 -0.1883 -0.2589
 1784BOLB   C1C42809  35.640  37.885  24.206  0.1454  0.0655  0.0332
 1784BOLB   C2C42810  35.363  37.585  24.120 -0.0262 -0.0076  0.0804
 1784BOLB   C3C42811  35.268  37.133  24.068  0.3309  0.0191 -0.0711
 1784BOLB   C4C42812  35.189  36.682  24.025  0.1620  0.0007  0.1676
 1784BOLB   C1D42813  35.311  38.339  24.120 -0.1124  0.0952 -0.0571
 1784BOLB   C2D42814  34.916  38.319  24.364  0.1100  0.2745  0.1568
 1784BOLB   C3D42815  34.621  38.338  24.720 -0.1731 -0.2067  0.2170
 1784BOLB   C4D42816  34.465  38.108  25.144  0.1650  0.1189  0.2165
 1785BOLB   NC142817  24.369  33.594   2.076  0.0183  0.1364  0.1598
 1785BOLB   PO142818  24.116  33.217   2.065 -0.1885  0.2506 -0.0851
 1785BOLB   GL142819  23.866  33.533   2.150 -0.0860  0.3819  0.0041
 1785BOLB   GL242820  23.464  33.364   2.165  0.2341 -0.0716 -0.2215
 1785BOLB   C1A42821  23.500  33.855   2.111 -0.3333 -0.1553 -0.0050
 1785BOLB   C2A42822  23.175  33.803   2.489  0.0131  0.6071  0.2041
 1785BOLB   C3A42823  22.897  33.778   2.952  0.0258 -0.0251  0.0424
 1785BOLB   C4A42824  22.914  33.911   3.344  0.5032  0.1807  0.2331
 1785BOLB   C1B42825  23.459  33.300   2.622 -0.0542  0.3426 -0.0457
 1785BOLB   C2B42826  23.172  33.413   2.883  0.1625 -0.0063  0.1109
 1785BOLB   C3B42827  23.146  33.438   3.353 -0.1104  0.1492  0.5014
 1785BOLB   C4B42828  22.793  33.304   3.595  0.0277 -0.1091 -0.0470
 1785BOLB   NC242829  22.156  33.726   5.363  0.0769 -0.0466 -0.1528
 1785BOLB   PO242830  22.254  33.377   5.599  0.4138  0.1316 -0.2344
 1785BOLB   GL342831  22.597  33.523   5.391 -0.2071 -0.3316 -0.1203
 1785BOLB   GL442832  22.848  33.870   5.163 -0.0523  0.2128  0.1353
 1785BOLB   C1C42833  22.810  33.311   4.924 -0.1765  0.1027 -0.1671
 1785BOLB   C2C42834  22.616  33.430   4.473 -0.1563 -0.3396  0.0517
 1785BOLB   C3C42835  22.465  33.538   3.979  0.1612  0.1203  0.3214
 1785BOLB   C4C42836  22.586  33.774   3.647  0.0398  0.2318 -0.2196
 1785BOLB   C1D42837  23.307  33.730   5.142 -0.0319  0.1279  0.0613
 1785BOLB   C2D42838  23.454  33.364   4.941  0.0086  0.0422 -0.0245
 1785BOLB   C3D42839  23.659  33.006   5.088 -0.0320 -0.0893  0.0668
 1785BOLB   C4D42840  23.752  33.030   5.549 -0.2615 -0.3927 -0.4315
 1786BOLB   NC142841  35.626  31.914  19.737  0.0845  0.0569 -0.0886
 1786BOLB   PO142842  35.579  32.039  20.189  0.0365 -0.1629  0.1859
 1786BOLB   GL142843  36.008  32.213  19.967  0.0194 -0.1478  0.0900
 1786BOLB   GL242844  36.098  31.933  19.884 -0.1902 -0.2205 -0.0998
 1786BOLB   C1A42845  36.297  32.440  19.939  0.0134 -0.0283 -0.0215
 1786BOLB   C2A42846  36.587  32.646  19.665 -0.2366  0.0872 -0.0017
 1786BOLB   C3A42847  36.876  32.460  19.581  0.1356  0.1536 -0.2917
 1786BOLB   C4A42848  37.205  32.251  19.446  0.4590 -0.0151  0.0126
 1786BOLB   C1B42849  36.556  32.048  19.714 -0.0382  0.4515 -0.1057
 1786BOLB   C2B42850  36.976  31.960  19.851  0.2689  0.4961 -0.2051
 1786BOLB   C3B42851  37.370  32.223  19.936  0.0448  0.0685  0.1166
 1786BOLB   C4B42852  37.574  32.521  19.823  0.0340  0.2133 -0.1148
 1786BOLB   NC242853  39.147  31.943  17.788  0.0394  0.1588  0.1155
 1786BOLB   PO242854  39.011  32.439  17.662 -0.0734  0.1524  0.1914
 1786BOLB   GL342855  38.841  32.271  18.054  0.0815 -0.2489  0.0814
 1786BOLB   GL442856  38.707  31.983  18.051  0.3524  0.2000 -0.0136
 1786BOLB   C1C42857  38.604  32.405  18.345 -0.0375 -0.4660  0.2821
 1786BOLB   C2C42858  38.221  32.449  18.638  0.1711 -0.1765 -0.2600
 1786BOLB   C3C42859  37.936  32.232  18.875 -0.2579  0.0252 -0.1778
 1786BOLB   C4C42860  37.549  32.184  19.180 -0.4909  0.3275  0.0166
 1786BOLB   C1D42861  38.243  32.294  18.028  0.2036 -0.0715  0.1001
 1786BOLB   C2D42862  37.856  32.256  18.015  0.0297  0.0106 -0.0171
 1786BOLB   C3D42863  37.523  32.135  18.034  0.1233 -0.2517 -0.2187
 1786BOLB   C4D42864  37.345  31.723  18.048  0.2114  0.0610  0.1398
 1787BOLB   NC142865  29.114  22.294  18.743  0.2891 -0.0312  0.0845
 1787BOLB   PO142866  29.434  22.044  18.885 -0.0051  0.2006 -0.3284
 1787BOLB   GL142867  29.475  21.661  18.764  0.4245 -0.0089 -0.0943
 1787BOLB   GL242868  29.758  21.823  18.579  0.1667 -0.0054 -0.3628
 1787BOLB   C1A42869  29.593  21.324  18.683 -0.1570 -0.2335  0.0302
 1787BOLB   C2A42870  29.816  21.110  18.405 -0.1148  0.3981 -0.2198
 1787BOLB   C3A42871  30.246  20.927  18.407 -0.0184 -0.2914  0.1869
 1787BOLB   C4A42872  30.533  20.534  18.385  0.0620  0.0592 -0.2051
 1787BOLB   C1B42873  30.002  21.622  18.323  0.1716  0.2678  0.0622
 1787BOLB   C2B42874  30.193  21.286  18.063  0.5453  0.1058 -0.4263
 1787BOLB   C3B42875  30.435  20.811  17.913  0.3183 -0.4678 -0.0997
 1787BOLB   C4B42876  30.362  20.559  17.941  0.0842  0.0474 -0.2250
 1787BOLB   NC242877  30.748  18.241  17.384  0.1363 -0.0676 -0.2865
 1787BOLB   PO242878  30.792  18.688  17.489 -0.1251 -0.1648  0.1987
 1787BOLB   GL342879  30.517  19.014  17.508 -0.0413 -0.0821 -0.1160
 1787BOLB   GL442880  30.697  19.103  17.819  0.1169  0.0123 -0.0438
 1787BOLB   C1C42881  30.506  19.534  17.574 -0.0801 -0.0259  0.0999
 1787BOLB   C2C42882  30.718  19.719  17.955 -0.0744 -0.0015 -0.0061
 1787BOLB   C3C42883  30.680  19.853  18.359 -0.2622  0.1443  0.0691
 1787BOLB   C4C42884  30.620  20.101  18.519 -0.0371 -0.0018 -0.1059
 1787BOLB   C1D42885  31.012  19.367  17.682 -0.0445 -0.0172  0.0449
 1787BOLB   C2D42886  31.227  19.632  17.944  0.0723  0.1403 -0.1259
 1787BOLB   C3D42887  31.161  20.139  18.033 -0.3555 -0.2984 -0.4091
 1787BOLB   C4D42888  31.041  20.459  18.305  0.0927  0.0681  0.3156
 1788BOLB   NC142889  30.191  26.821   1.294  0.1593  0.0435 -0.1284
 1788BOLB   PO142890  30.313  26.624   1.718  0.0132  0.2275  0.2048
 1788BOLB   GL142891  30.375  26.456   2.108  0.1884  0.1129  0.1000
 1788BOLB   GL242892  30.685  26.488   2.189  0.0874 -0.1126 -0.0655
 1788BOLB   C1A42893  30.359  26.185   2.456  0.0472  0.0357  0.2733
 1788BOLB   C2A42894  30.526  25.719   2.631  0.1611 -0.0807  0.3733
 1788BOLB   C3A42895  30.623  25.500   2.892  0.1649 -0.0175 -0.0379
 1788BOLB   C4A42896  30.721  25.280   3.120  0.2071  0.1290 -0.2359
 1788BOLB   C1B42897  30.866  26.280   2.634 -0.2643 -0.0065  0.0953
 1788BOLB   C2B42898  30.886  26.000   2.971 -0.0721  0.1621 -0.3315
 1788BOLB   C3B42899  30.730  25.766   3.305 -0.0620  0.2049  0.4811
 1788BOLB   C4B42900  30.753  25.495   3.639  0.1616 -0.0622  0.0061
 1788BOLB   NC242901  32.162  25.042   5.500  0.0396 -0.1333  0.1811
 1788BOLB   PO242902  31.703  25.029   5.301  0.2611  0.1291  0.2540
 1788BOLB   GL342903  31.558  25.075   4.920  0.1168  0.2188 -0.1473
 1788BOLB   GL442904  31.440  25.413   4.992 -0.0484 -0.0455  0.0661
 1788BOLB   C1C42905  31.695  24.994   4.538  0.0717 -0.3369 -0.0595
 1788BOLB   C2C42906  31.319  25.016   4.216 -0.0409  0.1726 -0.1712
 1788BOLB   C3C42907  31.187  25.141   3.751 -0.1934  0.0123  0.1680
 1788BOLB   C4C42908  30.832  24.977   3.408 -0.1848  0.0474  0.3034
 1788BOLB   C1D42909  31.427  25.444   4.567 -0.3049 -0.1464  0.2539
 1788BOLB   C2D42910  31.041  25.355   4.439 -0.0221 -0.0914  0.1634
 1788BOLB   C3D42911  30.793  25.264   4.125  0.0017 -0.0229 -0.1499
 1788BOLB   C4D42912  30.545  25.083   3.793  0.1011 -0.1371 -0.0043
 1789BOLB   NC142913  30.720  34.829  16.329  0.2963 -0.2071  0.3232
 1789BOLB   PO142914  31.086  35.074  16.412  0.4291  0.2086 -0.0456
 1789BOLB   GL142915  31.337  35.321  16.032  0.4244  0.0426  0.4573
 1789BOLB   GL242916  31.507  35.029  15.838 -0.1341 -0.2342  0.0785
 1789BOLB   C1A42917  31.476  35.749  16.022  0.0397  0.1740 -0.0065
 1789BOLB   C2A42918  31.357  36.079  15.749 -0.1751  0.1541  0.0944
 1789BOLB   C3A42919  31.625  36.396  15.548 -0.0374 -0.0027  0.0058
 1789BOLB   C4A42920  31.826  36.721  15.379 -0.0713 -0.0083  0.1328
 1789BOLB   C1B42921  31.474  35.308  15.497  0.0276 -0.3690 -0.3251
 1789BOLB   C2B42922  31.471  35.744  15.431  0.0828  0.3117 -0.2238
 1789BOLB   C3B42923  31.490  36.133  15.156  0.2748 -0.0136  0.1205
 1789BOLB   C4B42924  31.833  36.337  14.995 -0.3401  0.2158 -0.2357
 1789BOLB   NC242925  32.119  38.782  13.730  0.0290 -0.1183  0.2551
 1789BOLB   PO242926  32.337  38.407  13.668 -0.4239  0.1991  0.1227
 1789BOLB   GL342927  32.447  38.164  14.067  0.0159 -0.1839 -0.2422
 1789BOLB   GL442928  32.201  38.209  14.447 -0.3565 -0.2133 -0.1185
 1789BOLB   C1C42929  32.515  37.846  14.340 -0.3359  0.1190 -0.3739
 1789BOLB   C2C42930  32.573  37.660  14.704  0.1439 -0.2449  0.1783
 1789BOLB   C3C42931  32.258  37.323  14.810  0.0960 -0.1592 -0.0233
 1789BOLB   C4C42932  32.030  37.037  15.009  0.2561 -0.0651  0.1997
 1789BOLB   C1D42933  32.074  37.722  14.506  0.0174 -0.1778 -0.1938
 1789BOLB   C2D42934  31.973  37.399  14.450 -0.0472  0.1375  0.4955
 1789BOLB   C3D42935  32.176  36.960  14.518 -0.1447 -0.0221 -0.0947
 1789BOLB   C4D42936  32.340  36.695  14.802 -0.1238  0.1673  0.0753
 1790BOLB   NC142937  30.412  32.640  14.541 -0.4114  0.0668  0.0386
 1790BOLB   PO142938  30.429  32.245  14.317 -0.1413 -0.5591  0.1598
 1790BOLB   GL142939  30.726  32.571  14.068 -0.2130  0.3876 -0.1366
 1790BOLB   GL242940  30.483  32.742  13.865  0.1206 -0.0387 -0.0456
 1790BOLB   C1A42941  30.988  32.872  13.779  0.1775  0.3411 -0.2578
 1790BOLB   C2A42942  31.310  32.792  13.444  0.0973 -0.0466  0.0881
 1790BOLB   C3A42943  31.651  32.813  13.144 -0.1109 -0.3850 -0.0894
 1790BOLB   C4A42944  31.549  32.943  12.714 -0.2516 -0.1238  0.2504
 1790BOLB   C1B42945  30.480  33.192  13.527 -0.1495  0.0107 -0.2693
 1790BOLB   C2B42946  30.528  33.440  13.110 -0.0581 -0.1106  0.0105
 1790BOLB   C3B42947  30.476  33.808  13.056 -0.2083 -0.1075  0.2182
 1790BOLB   C4B42948  30.349  34.160  13.368 -0.1111  0.2234  0.1358
 1790BOLB   NC242949  31.200  34.013  10.454  0.1305  0.1360  0.0461
 1790BOLB   PO242950  31.415  34.301  10.583 -0.1959 -0.0131 -0.2159
 1790BOLB   GL342951  31.204  34.088  11.047  0.1603  0.1722  0.0002
 1790BOLB   GL442952  30.879  34.181  11.014  0.1692  0.0314 -0.1884
 1790BOLB   C1C42953  31.252  33.909  11.491  0.0517 -0.1046 -0.1273
 1790BOLB   C2C42954  31.544  33.530  11.587  0.1755  0.1606  0.2586
 1790BOLB   C3C42955  31.571  33.149  11.822  0.0865  0.0175 -0.2175
 1790BOLB   C4C42956  31.637  33.025  12.287  0.1322  0.0905  0.0522
 1790BOLB   C1D42957  30.856  34.202  11.546 -0.1654  0.0791  0.1501
 1790BOLB   C2D42958  30.989  34.041  11.923  0.2869 -0.0243  0.3294
 1790BOLB   C3D42959  31.010  33.910  12.277 -0.0884 -0.1879 -0.1299
 1790BOLB   C4D42960  31.012  33.817  12.753 -0.1364  0.0665  0.2541
 1791BOLB   NC142961  24.302  15.480  24.896 -0.2420 -0.1590 -0.0477
 1791BOLB   PO142962  24.742  15.384  25.049  0.1415 -0.3722  0.1675
 1791BOLB   GL142963  24.839  15.823  25.258  0.2432 -0.2191 -0.0567
 1791BOLB   GL242964  25.078  15.994  25.054 -0.2235  0.1564  0.4844
 1791BOLB   C1A42965  24.915  16.209  25.471 -0.0648 -0.2974  0.2599
 1791BOLB   C2A42966  25.035  16.637  25.518 -0.1503  0.0560  0.2438
 1791BOLB   C3A42967  25.170  16.929  25.732  0.0463 -0.1894 -0.1926
 1791BOLB   C4A42968  25.472  17.262  25.902  0.0040 -0.1020 -0.3250
 1791BOLB   C1B42969  25.106  16.476  25.045  0.1596 -0.0247 -0.1473
 1791BOLB   C2B42970  24.679  16.694  25.090  0.0112 -0.0120  0.2972
 1791BOLB   C3B42971  24.186  16.842  25.104 -0.0446  0.0166 -0.0050
 1791BOLB   C4B42972  24.083  17.251  24.974 -0.1167 -0.2174  0.1584
 1791BOLB   NC242973  27.809  16.661  26.554 -0.2358  0.3158 -0.3676
 1791BOLB   PO242974  27.529  16.729  26.284 -0.0259  0.0988  0.1033
 1791BOLB   GL342975  27.285  17.075  26.021 -0.1287 -0.0739  0.2310
 1791BOLB   GL442976  27.310  17.325  25.756 -0.1187 -0.2351  0.0233
 1791BOLB   C1C42977  26.817  17.056  25.902 -0.1549  0.1145  0.4763
 1791BOLB   C2C42978  26.481  17.256  26.005  0.1444 -0.1399  0.0079
 1791BOLB   C3C42979  26.144  17.601  25.991  0.1943  0.0097  0.2798
 1791BOLB   C4C42980  25.703  17.657  26.007 -0.1709 -0.1554  0.0370
 1791BOLB   C1D42981  27.051  17.133  25.413 -0.1021 -0.1317 -0.5603
 1791BOLB   C2D42982  26.912  17.174  25.027  0.0862 -0.2504  0.0579
 1791BOLB   C3D42983  27.084  17.597  24.873 -0.5900 -0.0579  0.0014
 1791BOLB   C4D42984  27.547  17.726  24.739 -0.0705 -0.3158 -0.0158
 1792BOLB   NC142985  35.483  33.023  20.350  0.0481 -0.1309 -0.0460
 1792BOLB   PO142986  35.491  32.868  20.804 -0.1126 -0.0422  0.2368
 1792BOLB   GL142987  35.939  32.894  20.666 -0.0847  0.3088  0.1197
 1792BOLB   GL242988  36.024  33.084  20.406  0.1138  0.1049  0.1677
 1792BOLB   C1A42989  36.225  32.689  20.967  0.1335  0.2667 -0.0150
 1792BOLB   C2A42990  36.600  32.972  21.155 -0.0214  0.1116 -0.0064
 1792BOLB   C3A42991  36.735  33.023  21.637 -0.1943 -0.1049  0.1229
 1792BOLB   C4A42992  37.013  33.340  21.791  0.3301 -0.0294  0.2289
 1792BOLB   C1B42993  36.345  32.870  20.359  0.2422 -0.1987  0.1145
 1792BOLB   C2B42994  36.694  32.831  20.146  0.4891  0.0263 -0.5283
 1792BOLB   C3B42995  37.083  32.866  19.973  0.1146  0.1900  0.1666
 1792BOLB   C4B42996  37.120  32.906  19.491  0.1163 -0.0660  0.0347
 1792BOLB   NC242997  39.847  34.663  21.712  0.3168  0.0279 -0.1524
 1792BOLB   PO242998  39.437  34.406  21.739 -0.1499  0.0122  0.1362
 1792BOLB   GL342999  38.966  34.361  21.887  0.2809 -0.1729  0.1952
 1792BOLB   GL443000  38.936  33.952  21.820  0.1322 -0.0428 -0.0682
 1792BOLB   C1C43001  38.662  34.265  22.175 -0.0895  0.0175  0.1389
 1792BOLB   C2C43002  38.329  34.013  22.124  0.2318 -0.1039 -0.2367
 1792BOLB   C3C43003  37.823  34.017  22.036 -0.2461  0.3283 -0.2272
 1792BOLB   C4C43004  37.472  33.674  21.806 -0.0459  0.1400  0.0672
 1792BOLB   C1D43005  38.561  34.167  21.608  0.1339  0.2627 -0.1008
 1792BOLB   C2D43006  38.147  34.149  21.610 -0.1078 -0.0200  0.3994
 1792BOLB   C3D43007  37.811  34.333  21.646  0.1764  0.0715 -0.2111
 1792BOLB   C4D43008  37.610  34.491  21.966 -0.1513 -0.0218  0.0716
 1793BOLB   NC143009  34.321  26.222  25.072 -0.0709  0.1122  0.0213
 1793BOLB   PO143010  34.303  26.538  25.422  0.0642 -0.1816 -0.3236
 1793BOLB   GL143011  34.526  26.760  25.643 -0.0470 -0.1141  0.1515
 1793BOLB   GL243012  34.540  27.060  25.587  0.0119  0.1578  0.0489
 1793BOLB   C1A43013  34.963  26.775  25.907 -0.2223 -0.4120  0.1478
 1793BOLB   C2A43014  35.399  26.729  26.012  0.0757  0.0574 -0.0657
 1793BOLB   C3A43015  35.581  26.281  26.003  0.1422 -0.4907 -0.2808
 1793BOLB   C4A43016  35.809  26.092  26.318  0.0433  0.2841 -0.0082
 1793BOLB   C1B43017  34.837  27.282  25.715  0.2915  0.1574 -0.1289
 1793BOLB   C2B43018  35.167  27.306  26.117  0.3750 -0.2034 -0.2694
 1793BOLB   C3B43019  35.339  27.122  26.400  0.2273  0.4244 -0.0518
 1793BOLB   C4B43020  35.751  27.072  26.454 -0.0230  0.1180  0.3062
 1793BOLB   NC243021  36.917  26.086   1.314  0.1188 -0.3126  0.0781
 1793BOLB   PO243022  37.221  26.546   1.208 -0.1192 -0.0931 -0.1647
 1793BOLB   GL343023  36.876  26.456   0.943  0.0365  0.0932  0.0095
 1793BOLB   GL443024  36.563  26.232   0.997  0.1383  0.2659 -0.1459
 1793BOLB   C1C43025  36.661  26.686   0.594 -0.0316  0.1324  0.0825
 1793BOLB   C2C43026  36.349  26.679   0.313  0.3307 -0.0727 -0.1070
 1793BOLB   C3C43027  36.215  26.465   0.040 -0.0240  0.1693  0.4608
 1793BOLB   C4C43028  35.989  26.332  26.688  0.1282 -0.1477  0.1043
 1793BOLB   C1D43029  36.339  26.019   0.498 -0.2238  0.0932  0.0985
 1793BOLB   C2D43030  36.045  25.907   0.134 -0.0293 -0.1999 -0.2140
 1793BOLB   C3D43031  36.160  25.848  26.599 -0.3630 -0.0965  0.1895
 1793BOLB   C4D43032  36.423  25.494  26.550  0.1276 -0.2176  0.3895
 1794BOLB   NC143033  35.922  30.963  20.850 -0.5163 -0.1569  0.1238
 1794BOLB   PO143034  35.869  31.006  21.285  0.2605  0.3707  0.0734
 1794BOLB   GL143035  36.321  31.126  21.168 -0.1226  0.2267 -0.0193
 1794BOLB   GL243036  36.405  31.070  20.859 -0.0702 -0.3787 -0.0445
 1794BOLB   C1A43037  36.757  31.171  21.196 -0.1827  0.0817 -0.0877
 1794BOLB   C2A43038  37.061  31.256  21.295 -0.0773 -0.1803  0.2174
 1794BOLB   C3A43039  37.351  31.500  21.237  0.0981  0.0967 -0.1540
 1794BOLB   C4A43040  37.746  31.656  21.180 -0.0120 -0.1327  0.1433
 1794BOLB   C1B43041  36.878  30.886  20.797  0.1594  0.1000  0.1181
 1794BOLB   C2B43042  37.247  31.009  20.804  0.1970 -0.0240  0.2543
 1794BOLB   C3B43043  37.636  30.715  20.813 -0.2570  0.0758 -0.1206
 1794BOLB   C4B43044  37.980  30.685  21.006 -0.1557  0.0153 -0.0951
 1794BOLB   NC243045  39.827  30.081  20.776 -0.0860 -0.2783  0.1250
 1794BOLB   PO243046  39.970  30.509  20.875 -0.0204  0.1632 -0.0036
 1794BOLB   GL343047  39.564  30.717  20.848 -0.0035 -0.0963 -0.1261
 1794BOLB   GL443048  39.502  30.452  20.913  0.1825  0.0840 -0.1126
 1794BOLB   C1C43049  39.131  30.817  20.800  0.0109  0.0674  0.4681
 1794BOLB   C2C43050  38.971  31.222  20.809  0.1241  0.0821 -0.0942
 1794BOLB   C3C43051  38.568  31.430  20.867  0.0060 -0.2193 -0.2523
 1794BOLB   C4C43052  38.148  31.724  20.892 -0.2591  0.1382  0.3519
 1794BOLB   C1D43053  39.126  30.231  20.838  0.1046  0.0719 -0.2429
 1794BOLB   C2D43054  39.150  29.991  21.160 -0.0055  0.1021  0.0353
 1794BOLB   C3D43055  38.790  30.032  21.380  0.0824 -0.2006  0.1709
 1794BOLB   C4D43056  38.611  30.112  21.862 -0.1370  0.3469 -0.0664
 1795BOLB   NC143057  29.428  37.824  24.820  0.0390 -0.0876  0.0390
 1795BOLB   PO143058  29.105  37.798  24.689  0.1813 -0.2181 -0.0266
 1795BOLB   GL143059  29.076  38.203  24.854 -0.0296  0.0709 -0.2401
 1795BOLB   GL243060  29.009  38.474  24.687 -0.0974  0.1484  0.2437
 1795BOLB   C1A43061  29.184  38.388  25.283 -0.0087  0.0777 -0.1738
 1795BOLB   C2A43062  29.049  38.625  25.643 -0.1418  0.3308  0.0826
 1795BOLB   C3A43063  28.838  38.880  25.985  0.3169 -0.0701 -0.1148
 1795BOLB   C4A43064  28.457  39.028  26.078  0.2175 -0.1963  0.1774
 1795BOLB   C1B43065  28.987  38.819  24.980  0.1144 -0.2321 -0.0435
 1795BOLB   C2B43066  28.933  38.992  25.390  0.1374  0.1327  0.1107
 1795BOLB   C3B43067  28.819  39.268  25.613  0.1362 -0.2379  0.1065
 1795BOLB   C4B43068  28.761  39.713  25.724 -0.0532  0.1473  0.3339
 1795BOLB   NC243069  27.188  41.606  26.109 -0.1207 -0.1402  0.2664
 1795BOLB   PO243070  27.080  41.270  26.490 -0.2162 -0.3176 -0.1555
 1795BOLB   GL343071  27.180  41.008  26.182  0.0622  0.2943  0.0599
 1795BOLB   GL443072  27.317  41.101  25.888 -0.1790 -0.3266 -0.5290
 1795BOLB   C1C43073  27.425  40.572  26.017  0.3073 -0.0797  0.0984
 1795BOLB   C2C43074  27.618  40.081  26.002 -0.0901 -0.0440  0.3452
 1795BOLB   C3C43075  27.911  39.795  26.242 -0.3177  0.3238  0.0516
 1795BOLB   C4C43076  28.143  39.379  26.165 -0.2974 -0.0660  0.1897
 1795BOLB   C1D43077  27.265  40.795  25.574 -0.0440  0.0343  0.2607
 1795BOLB   C2D43078  27.513  40.351  25.490 -0.2020 -0.1372 -0.1376
 1795BOLB   C3D43079  27.860  40.114  25.375 -0.5845  0.0871  0.1641
 1795BOLB   C4D43080  27.954  39.718  25.409  0.2363  0.0776 -0.1553
 1796BOLB   NC143081  23.459  34.413   0.705 -0.0932  0.2045 -0.2320
 1796BOLB   PO143082  23.771  34.669   0.566 -0.1864 -0.3047  0.3698
 1796BOLB   GL143083  23.534  34.863   0.858 -0.1210 -0.2426 -0.1449
 1796BOLB   GL243084  23.695  34.783   1.116 -0.2670  0.0211  0.1235
 1796BOLB   C1A43085  23.139  34.841   1.186  0.1630 -0.0096  0.1363
 1796BOLB   C2A43086  23.029  34.853   1.593  0.0046 -0.0945 -0.0313
 1796BOLB   C3A43087  22.867  35.146   1.886 -0.0226  0.0349 -0.2158
 1796BOLB   C4A43088  22.450  35.314   1.802  0.1740 -0.1503 -0.1313
 1796BOLB   C1B43089  23.572  34.990   1.395 -0.3172  0.1583 -0.2796
 1796BOLB   C2B43090  23.317  35.287   1.700  0.1568 -0.0876  0.0839
 1796BOLB   C3B43091  23.058  35.646   1.691  0.1728  0.1512  0.2338
 1796BOLB   C4B43092  22.611  35.839   1.650  0.1993  0.2664 -0.0520
 1796BOLB   NC243093  21.184  37.420   2.204 -0.0670  0.3044 -0.0350
 1796BOLB   PO243094  21.382  37.471   2.520 -0.1886  0.3603  0.2185
 1796BOLB   GL343095  21.525  37.070   2.191 -0.0809 -0.6449  0.0617
 1796BOLB   GL443096  21.294  36.743   2.203  0.0078 -0.3331 -0.0603
 1796BOLB   C1C43097  21.580  36.801   1.803 -0.5199  0.2485  0.0827
 1796BOLB   C2C43098  21.713  36.353   1.890 -0.1926 -0.2275 -0.0990
 1796BOLB   C3C43099  21.953  35.989   1.978 -0.1396  0.1749 -0.0908
 1796BOLB   C4C43100  22.125  35.653   1.820  0.2776  0.0064 -0.0538
 1796BOLB   C1D43101  21.281  36.392   2.074 -0.1457 -0.2389 -0.0746
 1796BOLB   C2D43102  21.347  35.977   1.959  0.1578  0.0793 -0.2472
 1796BOLB   C3D43103  21.357  35.543   1.856  0.0500 -0.0425 -0.0015
 1796BOLB   C4D43104  21.098  35.266   1.733 -0.0575 -0.0031  0.0769
 1797BOLB   NC143105  27.394  37.969  23.731 -0.0193  0.0264 -0.0879
 1797BOLB   PO143106  27.179  37.807  23.450 -0.2043  0.4985  0.1491
 1797BOLB   GL143107  26.951  38.236  23.551  0.0874 -0.0702  0.1583
 1797BOLB   GL243108  27.126  38.443  23.648 -0.1908 -0.3084  0.4911
 1797BOLB   C1A43109  26.698  38.623  23.673  0.1024 -0.0879 -0.0894
 1797BOLB   C2A43110  26.495  38.904  23.973  0.0738  0.0060  0.1738
 1797BOLB   C3A43111  26.314  39.286  24.150 -0.5282  0.0907 -0.2068
 1797BOLB   C4A43112  26.397  39.643  24.163  0.3120 -0.1164 -0.1838
 1797BOLB   C1B43113  27.094  38.852  23.684 -0.1060  0.3421  0.2981
 1797BOLB   C2B43114  26.937  39.198  23.708  0.0870 -0.0811  0.0706
 1797BOLB   C3B43115  26.753  39.376  23.944 -0.1557  0.1294 -0.0353
 1797BOLB   C4B43116  26.933  39.714  24.074 -0.2183 -0.2211  0.1442
 1797BOLB   NC243117  25.207  41.199  25.002 -0.2336  0.1020  0.1861
 1797BOLB   PO243118  25.392  41.479  24.746  0.2118  0.0089  0.2006
 1797BOLB   GL343119  25.574  41.132  24.483  0.3024 -0.0951  0.2210
 1797BOLB   GL443120  25.772  41.027  24.832 -0.1115 -0.2057 -0.1868
 1797BOLB   C1C43121  25.543  40.892  24.194 -0.0036 -0.1808  0.1018
 1797BOLB   C2C43122  25.939  40.635  23.958 -0.1070  0.3498  0.0915
 1797BOLB   C3C43123  26.355  40.469  23.968 -0.0360  0.1366  0.0173
 1797BOLB   C4C43124  26.391  39.994  23.948 -0.2652  0.1845 -0.0983
 1797BOLB   C1D43125  25.990  40.756  24.511 -0.0979  0.1598  0.0347
 1797BOLB   C2D43126  26.364  40.896  24.193  0.1026 -0.4749 -0.1358
 1797BOLB   C3D43127  26.727  40.700  24.059 -0.1608 -0.4886 -0.0794
 1797BOLB   C4D43128  27.011  40.872  23.861 -0.2033  0.0585 -0.3183
 1798BOLB   NC143129  35.030  28.212  20.187  0.0158  0.0426  0.1350
 1798BOLB   PO143130  35.422  27.960  20.100  0.2611  0.2138 -0.1288
 1798BOLB   GL143131  35.771  27.790  20.190 -0.2006  0.0989  0.0290
 1798BOLB   GL243132  35.786  27.550  19.949 -0.0254  0.2270  0.1253
 1798BOLB   C1A43133  36.208  27.710  20.170 -0.0474  0.1883  0.2130
 1798BOLB   C2A43134  36.560  27.411  20.297  0.0985  0.0126 -0.1675
 1798BOLB   C3A43135  36.817  27.033  20.170 -0.2178  0.1488 -0.2156
 1798BOLB   C4A43136  37.115  26.737  20.030  0.1556  0.2045  0.2664
 1798BOLB   C1B43137  36.162  27.354  19.822 -0.1418 -0.2332 -0.1914
 1798BOLB   C2B43138  36.562  27.210  19.682 -0.0088 -0.3509 -0.1510
 1798BOLB   C3B43139  36.966  27.200  19.575  0.1345 -0.1628  0.2523
 1798BOLB   C4B43140  37.177  27.178  19.257 -0.0767  0.0257 -0.3456
 1798BOLB   NC243141  38.824  25.085  19.647 -0.0040 -0.3386  0.2862
 1798BOLB   PO243142  38.982  25.469  19.529  0.1831  0.0934  0.0454
 1798BOLB   GL343143  38.600  25.666  19.553  0.1552 -0.0591  0.0987
 1798BOLB   GL443144  38.572  25.915  19.637  0.0181 -0.1520  0.2638
 1798BOLB   C1C43145  38.132  25.635  19.605 -0.0014  0.0739 -0.2823
 1798BOLB   C2C43146  37.652  25.835  19.593  0.1239 -0.1370  0.1188
 1798BOLB   C3C43147  37.250  26.113  19.705  0.0061 -0.1715  0.1905
 1798BOLB   C4C43148  37.269  26.518  19.980  0.0544  0.1833  0.1660
 1798BOLB   C1D43149  38.537  26.285  19.853  0.1424 -0.1849  0.0105
 1798BOLB   C2D43150  38.282  26.532  20.004  0.1779  0.2547  0.1001
 1798BOLB   C3D43151  38.057  26.667  20.208 -0.2265  0.0882  0.2437
 1798BOLB   C4D43152  37.693  26.812  19.979 -0.1663 -0.0528  0.0191
 1799BOLB   NC143153  27.085  21.230  21.647  0.2143  0.1831  0.3041
 1799BOLB   PO143154  27.139  20.807  21.680 -0.1093 -0.1036 -0.1545
 1799BOLB   GL143155  27.282  20.404  21.664  0.1269 -0.1654 -0.2638
 1799BOLB   GL243156  27.462  20.371  21.388 -0.1501  0.1818 -0.0739
 1799BOLB   C1A43157  27.172  19.993  21.696 -0.0895  0.2856  0.2622
 1799BOLB   C2A43158  27.508  19.685  21.851  0.2767  0.0602  0.2243
 1799BOLB   C3A43159  27.324  19.242  21.881  0.3277 -0.1058  0.3677
 1799BOLB   C4A43160  27.471  18.917  21.950  0.0690  0.1299 -0.3457
 1799BOLB   C1B43161  27.576  19.994  21.328  0.0755 -0.1202  0.0753
 1799BOLB   C2B43162  27.910  19.801  21.111 -0.1654 -0.4746  0.4306
 1799BOLB   C3B43163  28.161  19.419  21.355 -0.0437 -0.0951  0.0855
 1799BOLB   C4B43164  28.395  19.006  21.356 -0.0425 -0.1021 -0.1902
 1799BOLB   NC243165  30.039  17.421  21.572 -0.1620  0.3211  0.0636
 1799BOLB   PO243166  29.612  17.520  21.836 -0.1659 -0.2032  0.4846
 1799BOLB   GL343167  29.244  17.757  22.022 -0.0993 -0.0113  0.2443
 1799BOLB   GL443168  29.491  18.072  22.046 -0.1557 -0.0124  0.0330
 1799BOLB   C1C43169  28.788  17.870  22.130 -0.0455  0.0976  0.1805
 1799BOLB   C2C43170  28.410  18.065  22.171  0.0207  0.0175 -0.1380
 1799BOLB   C3C43171  28.223  18.489  22.231 -0.0695 -0.0761  0.2053
 1799BOLB   C4C43172  27.909  18.772  22.218 -0.0049 -0.1617 -0.0001
 1799BOLB   C1D43173  29.184  18.286  22.251 -0.0004 -0.0797 -0.4421
 1799BOLB   C2D43174  28.739  18.311  22.426 -0.2125 -0.0828  0.1724
 1799BOLB   C3D43175  28.475  18.710  22.610  0.1853  0.3126  0.4978
 1799BOLB   C4D43176  28.251  19.075  22.468 -0.2962 -0.0416  0.2373
 1800BOLB   NC143177  26.973  35.775  16.433  0.1425  0.0004 -0.1530
 1800BOLB   PO143178  26.690  35.588  16.316 -0.2342 -0.1862  0.2221
 1800BOLB   GL143179  26.550  35.907  15.931 -0.0348  0.0853 -0.2309
 1800BOLB   GL243180  26.570  36.203  15.841  0.1612  0.2354  0.1437
 1800BOLB   C1A43181  26.221  35.975  15.611  0.1219 -0.0430 -0.1590
 1800BOLB   C2A43182  26.095  36.267  15.291  0.0002 -0.0421 -0.2419
 1800BOLB   C3A43183  25.770  36.351  14.936 -0.0597 -0.0895  0.2130
 1800BOLB   C4A43184  25.725  36.522  14.561  0.0789 -0.1081 -0.3283
 1800BOLB   C1B43185  26.564  36.395  15.525 -0.1000 -0.2288  0.2145
 1800BOLB   C2B43186  26.431  36.635  15.201  0.0168 -0.2380 -0.1468
 1800BOLB   C3B43187  26.275  37.012  15.000  0.3250  0.0057  0.2317
 1800BOLB   C4B43188  26.387  37.310  14.683  0.0783 -0.0525 -0.2031
 1800BOLB   NC243189  25.855  38.329  13.209 -0.2422 -0.0681  0.2063
 1800BOLB   PO243190  26.046  37.972  12.955 -0.0422  0.0133  0.0978
 1800BOLB   GL343191  25.696  37.889  13.173  0.2715 -0.0611 -0.3229
 1800BOLB   GL443192  25.541  37.625  13.032  0.0785 -0.2599  0.0823
 1800BOLB   C1C43193  25.471  37.723  13.564 -0.3195 -0.3081 -0.1484
 1800BOLB   C2C43194  25.548  37.480  13.870  0.3444 -0.0293 -0.0548
 1800BOLB   C3C43195  25.401  37.137  14.134  0.4563 -0.0290  0.1025
 1800BOLB   C4C43196  25.513  36.768  14.321 -0.1425 -0.1080 -0.1759
 1800BOLB   C1D43197  25.756  37.359  13.250  0.3463 -0.1727 -0.2306
 1800BOLB   C2D43198  25.863  37.058  13.550 -0.0576  0.1751 -0.1158
 1800BOLB   C3D43199  25.906  37.136  13.963  0.0452 -0.0415 -0.0123
 1800BOLB   C4D43200  26.354  37.255  14.089 -0.0171  0.1406  0.0015
 1801BOLB   NC143201  22.409  32.731  16.767 -0.0172 -0.2095  0.2853
 1801BOLB   PO143202  22.261  33.117  16.617  0.0258 -0.0465 -0.1644
 1801BOLB   GL143203  21.942  33.326  16.541  0.1109 -0.1343  0.0849
 1801BOLB   GL243204  21.904  33.642  16.361 -0.2609  0.6247 -0.0953
 1801BOLB   C1A43205  21.705  33.234  16.213  0.0533 -0.2937  0.1625
 1801BOLB   C2A43206  21.348  33.168  15.879 -0.3195 -0.1416  0.1221
 1801BOLB   C3A43207  20.991  33.294  15.638  0.0681 -0.0711 -0.2195
 1801BOLB   C4A43208  21.033  33.461  15.279  0.3252  0.2952 -0.2254
 1801BOLB   C1B43209  21.528  33.714  16.045  0.0324 -0.0867  0.0426
 1801BOLB   C2B43210  21.233  33.808  15.724 -0.0261  0.2376 -0.1893
 1801BOLB   C3B43211  20.920  33.974  15.587  0.1212  0.0187  0.3450
 1801BOLB   C4B43212  20.843  34.218  15.218 -0.0745  0.2720  0.1172
 1801BOLB   NC243213  18.979  33.491  13.153  0.0174 -0.2427  0.5477
 1801BOLB   PO243214  19.188  33.720  13.461  0.0404  0.1333  0.0229
 1801BOLB   GL343215  19.552  33.664  13.783  0.1682  0.1068 -0.0899
 1801BOLB   GL443216  19.729  33.409  13.743  0.2106 -0.4772  0.0935
 1801BOLB   C1C43217  19.942  33.706  14.087 -0.0922 -0.2209 -0.0716
 1801BOLB   C2C43218  20.088  33.489  14.489 -0.1126  0.1581 -0.0899
 1801BOLB   C3C43219  20.232  33.431  14.920  0.0730  0.0354 -0.3011
 1801BOLB   C4C43220  20.661  33.482  15.010  0.0753 -0.3509  0.2211
 1801BOLB   C1D43221  19.911  33.194  14.042  0.0839 -0.1946  0.0087
 1801BOLB   C2D43222  20.082  32.891  14.259  0.1569 -0.1700 -0.0672
 1801BOLB   C3D43223  20.452  32.675  14.424  0.4214  0.1184  0.1221
 1801BOLB   C4D43224  20.925  32.865  14.556 -0.0222  0.1596  0.3049
 1802BOLB   NC143225  24.480  26.512  15.122 -0.0637  0.0170 -0.0184
 1802BOLB   PO143226  24.235  26.144  15.245 -0.2385 -0.1317 -0.1505
 1802BOLB   GL143227  23.898  25.851  14.958  0.0357  0.2258  0.0299
 1802BOLB   GL243228  23.596  25.690  15.065  0.3012 -0.1596  0.2087
 1802BOLB   C1A43229  23.984  25.546  14.779 -0.0274  0.0019 -0.0179
 1802BOLB   C2A43230  23.951  25.372  14.459 -0.2541 -0.2384 -0.0548
 1802BOLB   C3A43231  23.862  25.262  13.978 -0.0677  0.1566 -0.0710
 1802BOLB   C4A43232  23.718  24.971  13.667 -0.2082 -0.3154  0.0151
 1802BOLB   C1B43233  23.477  25.533  14.599 -0.4906 -0.0288  0.0488
 1802BOLB   C2B43234  23.493  25.077  14.428 -0.3391 -0.0790 -0.0941
 1802BOLB   C3B43235  23.859  24.819  14.274  0.3490 -0.3099  0.1391
 1802BOLB   C4B43236  23.909  24.650  14.031 -0.0005  0.1614 -0.1074
 1802BOLB   NC243237  22.941  24.763  11.535 -0.0335 -0.0640 -0.0463
 1802BOLB   PO243238  23.138  24.314  11.537  0.0635 -0.0257 -0.3054
 1802BOLB   GL343239  23.110  24.402  11.997 -0.2767 -0.0073  0.2207
 1802BOLB   GL443240  22.917  24.279  12.181  0.2921 -0.2717  0.0093
 1802BOLB   C1C43241  23.068  24.707  12.329 -0.0557 -0.0664 -0.4983
 1802BOLB   C2C43242  23.327  24.768  12.600 -0.0311  0.0081  0.0049
 1802BOLB   C3C43243  23.660  24.967  12.888 -0.1267 -0.3919 -0.0213
 1802BOLB   C4C43244  23.584  25.068  13.234  0.0699 -0.3251 -0.1687
 1802BOLB   C1D43245  22.868  24.339  12.610  0.0728 -0.1890 -0.2895
 1802BOLB   C2D43246  22.859  24.667  12.840 -0.1337  0.0624  0.0437
 1802BOLB   C3D43247  22.626  24.989  13.162  0.3887  0.0479  0.0245
 1802BOLB   C4D43248  22.635  25.352  13.058 -0.0943  0.3015 -0.0510
 1803BOLB   NC143249  20.751  31.740  26.075  0.2024 -0.2285 -0.2886
 1803BOLB   PO143250  20.913  31.999  26.397 -0.0800  0.0626  0.0747
 1803BOLB   GL143251  20.597  31.940  26.690 -0.0957  0.1702  0.0417
 1803BOLB   GL243252  20.436  31.792  26.531  0.0507 -0.0304 -0.1997
 1803BOLB   C1A43253  20.273  31.829   0.082 -0.0295  0.3348 -0.0034
 1803BOLB   C2A43254  19.927  31.905   0.378 -0.0388  0.0357  0.2153
 1803BOLB   C3A43255  19.870  31.785   0.819 -0.1400 -0.2192  0.0598
 1803BOLB   C4A43256  19.632  31.399   0.985  0.1382 -0.3128 -0.4582
 1803BOLB   C1B43257  20.054  32.035  26.616  0.0127  0.0214  0.0231
 1803BOLB   C2B43258  19.723  32.208  26.619  0.0058 -0.0116 -0.0935
 1803BOLB   C3B43259  19.308  32.296  26.728  0.1965  0.2787  0.1132
 1803BOLB   C4B43260  19.091  32.492  26.392 -0.0605 -0.0667  0.2554
 1803BOLB   NC243261  17.817  31.989   3.038  0.1108 -0.0522  0.0751
 1803BOLB   PO243262  18.075  32.116   2.671 -0.1986  0.1044 -0.1531
 1803BOLB   GL343263  18.121  31.982   2.323 -0.2643 -0.5249  0.2008
 1803BOLB   GL443264  17.822  31.813   2.224 -0.0305 -0.2019  0.3343
 1803BOLB   C1C43265  18.418  31.562   2.278  0.1406  0.2217  0.1255
 1803BOLB   C2C43266  18.719  31.428   2.017 -0.0417  0.1674  0.2500
 1803BOLB   C3C43267  19.068  31.265   1.789 -0.0514  0.0567  0.2116
 1803BOLB   C4C43268  19.283  31.317   1.310 -0.1333 -0.0704 -0.3809
 1803BOLB   C1D43269  18.051  31.765   1.826  0.1020 -0.0289  0.0993
 1803BOLB   C2D43270  18.431  31.566   1.643  0.0557 -0.0091 -0.4340
 1803BOLB   C3D43271  18.841  31.507   1.363  0.0011 -0.1458  0.3072
 1803BOLB   C4D43272  19.068  31.757   1.052 -0.0535  0.0879 -0.0695
 1804BOLB   NC143273  33.620  34.438  17.529  0.1068 -0.1148  0.0269
 1804BOLB   PO143274  33.536  34.476  17.155  0.0113  0.1570 -0.3801
 1804BOLB   GL143275  33.657  34.860  16.977 -0.1460  0.5980  0.2492
 1804BOLB   GL243276  33.408  35.072  17.100  0.0972 -0.4313 -0.1159
 1804BOLB   C1A43277  33.742  35.280  16.708  0.0411  0.0957 -0.3057
 1804BOLB   C2A43278  33.774  35.324  16.192  0.1049 -0.1196  0.2115
 1804BOLB   C3A43279  33.802  35.335  15.827 -0.3246 -0.4112 -0.1930
 1804BOLB   C4A43280  33.928  35.212  15.474  0.3278 -0.1255  0.1008
 1804BOLB   C1B43281  33.583  35.480  17.135  0.3823  0.0391  0.1629
 1804BOLB   C2B43282  33.703  35.774  16.840  0.1161  0.0673 -0.0116
 1804BOLB   C3B43283  33.948  35.680  16.483 -0.0952 -0.2020  0.0031
 1804BOLB   C4B43284  34.221  35.722  16.171  0.0517 -0.0769 -0.0840
 1804BOLB   NC243285  34.925  36.483  13.758  0.1928  0.0768  0.2140
 1804BOLB   PO243286  35.079  35.981  13.733  0.1770  0.0447 -0.1552
 1804BOLB   GL343287  35.165  35.705  14.028 -0.2292  0.2256  0.3446
 1804BOLB   GL443288  35.439  35.453  14.042 -0.1464 -0.0493  0.1967
 1804BOLB   C1C43289  34.942  35.504  14.361 -0.0167 -0.0882 -0.0247
 1804BOLB   C2C43290  34.759  35.300  14.692  0.0274  0.0581 -0.1930
 1804BOLB   C3C43291  34.484  35.267  14.896  0.5253 -0.2120 -0.2060
 1804BOLB   C4C43292  34.118  35.382  15.158  0.1933 -0.3731 -0.0614
 1804BOLB   C1D43293  35.388  35.277  14.411 -0.0675 -0.1392  0.2785
 1804BOLB   C2D43294  35.520  35.102  14.767  0.0292  0.2870 -0.1385
 1804BOLB   C3D43295  35.401  34.945  15.152  0.0542 -0.2295  0.2278
 1804BOLB   C4D43296  35.617  34.815  15.473 -0.3298 -0.1219  0.2824
 1805BOLB   NC143297  13.596  26.161  19.784  0.1212 -0.3818 -0.1815
 1805BOLB   PO143298  13.808  25.814  19.895  0.0195 -0.0322  0.1166
 1805BOLB   GL143299  14.148  26.038  19.947 -0.0544 -0.0359 -0.3803
 1805BOLB   GL243300  14.180  26.209  20.213  0.0118 -0.0699 -0.0183
 1805BOLB   C1A43301  14.618  26.183  19.950 -0.3133 -0.1206  0.0762
 1805BOLB   C2A43302  15.025  26.453  19.952  0.3912 -0.0791  0.2403
 1805BOLB   C3A43303  15.445  26.755  19.891 -0.2705  0.2146  0.0191
 1805BOLB   C4A43304  15.937  26.816  19.867  0.2702 -0.0643  0.5202
 1805BOLB   C1B43305  14.401  26.606  20.070 -0.0366  0.0000  0.1748
 1805BOLB   C2B43306  14.669  26.770  19.704 -0.1540  0.1038  0.2474
 1805BOLB   C3B43307  15.043  27.034  19.763  0.4190 -0.1590 -0.0443
 1805BOLB   C4B43308  15.348  27.281  19.866  0.0259  0.7659 -0.1015
 1805BOLB   NC243309  14.179  26.509  18.802 -0.2536  0.2013  0.0455
 1805BOLB   PO243310  14.146  26.331  19.057  0.4009 -0.0527 -0.4309
 1805BOLB   GL343311  14.575  26.208  19.183  0.0144 -0.2094 -0.1512
 1805BOLB   GL443312  14.630  26.465  19.295  0.0515 -0.0455 -0.0577
 1805BOLB   C1C43313  14.926  26.064  19.510  0.1900  0.1727  0.1444
 1805BOLB   C2C43314  15.374  26.003  19.577 -0.3178  0.1283  0.1021
 1805BOLB   C3C43315  15.701  26.184  19.531  0.1437  0.0338  0.0385
 1805BOLB   C4C43316  15.990  26.571  19.606  0.1636  0.1326 -0.1292
 1805BOLB   C1D43317  15.035  26.576  19.415 -0.0234  0.1246 -0.1753
 1805BOLB   C2D43318  15.533  26.684  19.427  0.3640  0.3770  0.4306
 1805BOLB   C3D43319  15.711  27.063  19.454 -0.1009  0.1166  0.1504
 1805BOLB   C4D43320  16.104  27.315  19.381 -0.0388  0.6027 -0.2215
 1806BOLB   NC143321  31.109  22.286  20.232 -0.0071  0.1099  0.1319
 1806BOLB   PO143322  31.458  22.180  20.535 -0.0359  0.0006 -0.1062
 1806BOLB   GL143323  31.365  21.837  20.625  0.1240 -0.3763 -0.1302
 1806BOLB   GL243324  31.234  21.763  20.257  0.1493 -0.7224 -0.4502
 1806BOLB   C1A43325  31.435  21.389  20.761  0.2890  0.1386 -0.2282
 1806BOLB   C2A43326  31.803  21.081  20.684 -0.3042  0.0006 -0.3320
 1806BOLB   C3A43327  31.855  20.728  20.369 -0.2584 -0.0544  0.0416
 1806BOLB   C4A43328  32.319  20.502  20.184  0.1191  0.1341  0.3261
 1806BOLB   C1B43329  31.442  21.528  20.044  0.2130 -0.0461 -0.3417
 1806BOLB   C2B43330  31.586  21.300  19.854  0.0205  0.1598  0.2382
 1806BOLB   C3B43331  31.588  20.907  19.713  0.0312 -0.2717  0.0652
 1806BOLB   C4B43332  31.790  20.539  19.935 -0.0192 -0.0708  0.1419
 1806BOLB   NC243333  34.532  19.304  19.555 -0.0506  0.1230 -0.0629
 1806BOLB   PO243334  34.226  19.359  19.901 -0.3003 -0.0029 -0.0856
 1806BOLB   GL343335  33.821  19.554  20.104  0.3498  0.1700 -0.2139
 1806BOLB   GL443336  33.525  19.287  20.094  0.0126 -0.0442 -0.0772
 1806BOLB   C1C43337  33.488  19.741  20.344  0.0044  0.0476 -0.1581
 1806BOLB   C2C43338  33.188  19.945  20.505  0.1704 -0.1021  0.3101
 1806BOLB   C3C43339  32.886  19.995  20.262  0.0859  0.1373  0.0789
 1806BOLB   C4C43340  32.544  20.142  20.380 -0.0209  0.1352 -0.0133
 1806BOLB   C1D43341  33.344  19.684  19.845 -0.3065  0.1552 -0.0703
 1806BOLB   C2D43342  33.100  20.082  19.656  0.0847 -0.3053  0.1433
 1806BOLB   C3D43343  32.806  20.388  19.901  0.0721  0.0083 -0.0727
 1806BOLB   C4D43344  32.632  20.771  19.938  0.2016  0.0607 -0.0288
 1807BOLB   NC143345  30.104  25.498  15.498  0.1134  0.1533  0.0804
 1807BOLB   PO143346  30.377  25.172  15.419  0.1804  0.1111  0.0265
 1807BOLB   GL143347  30.542  25.002  15.091  0.0530 -0.0034  0.2598
 1807BOLB   GL243348  30.535  24.702  15.073 -0.1915  0.0821 -0.0306
 1807BOLB   C1A43349  30.844  24.980  14.796 -0.1437  0.2231  0.2396
 1807BOLB   C2A43350  31.008  25.006  14.414 -0.1065 -0.1281 -0.0065
 1807BOLB   C3A43351  31.308  24.750  14.279 -0.1649  0.1060  0.2145
 1807BOLB   C4A43352  31.801  24.781  14.091 -0.5047  0.1042 -0.0300
 1807BOLB   C1B43353  30.528  24.628  14.682 -0.3614  0.3545  0.0900
 1807BOLB   C2B43354  30.899  24.499  14.506  0.0951  0.1277  0.1619
 1807BOLB   C3B43355  31.158  24.269  14.245  0.0899  0.3100 -0.2001
 1807BOLB   C4B43356  31.584  24.289  14.350  0.0322  0.2008 -0.1482
 1807BOLB   NC243357  32.630  24.067  11.583  0.0571  0.0176  0.2511
 1807BOLB   PO243358  32.321  24.143  11.812 -0.1842 -0.0756 -0.0311
 1807BOLB   GL343359  31.931  24.124  12.161 -0.0464  0.1102 -0.0618
 1807BOLB   GL443360  31.566  24.005  12.159 -0.1985 -0.1782  0.0802
 1807BOLB   C1C43361  31.995  24.435  12.575 -0.2175  0.0178  0.0471
 1807BOLB   C2C43362  32.008  24.735  12.927 -0.0304 -0.1145 -0.2213
 1807BOLB   C3C43363  32.102  24.791  13.319  0.4330 -0.1317 -0.0102
 1807BOLB   C4C43364  31.994  24.665  13.710  0.0336 -0.1268  0.0252
 1807BOLB   C1D43365  31.517  24.191  12.508  0.1329 -0.1232 -0.1320
 1807BOLB   C2D43366  31.590  24.374  12.880  0.0347 -0.2079 -0.1892
 1807BOLB   C3D43367  31.609  24.779  13.217 -0.2348 -0.3071 -0.1918
 1807BOLB   C4D43368  31.552  24.867  13.608  0.0336 -0.0513 -0.1988
 1808BOLB   NC143369  25.010  27.891  13.852  0.0832 -0.3428  0.0948
 1808BOLB   PO143370  25.204  28.379  13.906 -0.0606  0.4582  0.1527
 1808BOLB   GL143371  24.897  28.280  13.532 -0.1674 -0.0299  0.0538
 1808BOLB   GL243372  24.687  28.507  13.357 -0.2695 -0.1378 -0.1410
 1808BOLB   C1A43373  24.632  28.052  13.198 -0.0152  0.0676 -0.0752
 1808BOLB   C2A43374  24.253  27.865  12.930  0.4378 -0.0061 -0.1568
 1808BOLB   C3A43375  24.166  27.563  12.542  0.1073  0.0328  0.0337
 1808BOLB   C4A43376  23.858  27.627  12.295  0.0083  0.0283  0.0994
 1808BOLB   C1B43377  24.554  28.466  12.911 -0.2371 -0.0469  0.2353
 1808BOLB   C2B43378  24.698  28.502  12.445 -0.0441  0.1797  0.0923
 1808BOLB   C3B43379  25.029  28.216  12.227  0.0359 -0.2186 -0.2854
 1808BOLB   C4B43380  25.196  27.925  11.909  0.3991  0.0514  0.2975
 1808BOLB   NC243381  22.006  27.398  10.742 -0.2251 -0.0038 -0.1281
 1808BOLB   PO243382  22.460  27.332  10.562  0.1003  0.0182  0.0508
 1808BOLB   GL343383  22.707  27.367  10.958 -0.2026  0.0406 -0.1131
 1808BOLB   GL443384  22.436  27.526  11.228 -0.4389 -0.1048  0.2834
 1808BOLB   C1C43385  22.798  27.239  11.408  0.0703 -0.0155 -0.1105
 1808BOLB   C2C43386  22.916  27.387  11.747  0.2087  0.2587 -0.0180
 1808BOLB   C3C43387  23.146  27.620  12.064 -0.0142 -0.1184  0.3870
 1808BOLB   C4C43388  23.392  27.691  12.373  0.0128 -0.1099  0.1817
 1808BOLB   C1D43389  22.313  27.355  11.535  0.1985 -0.2373  0.2692
 1808BOLB   C2D43390  22.403  27.064  11.881  0.0311  0.1893 -0.4089
 1808BOLB   C3D43391  22.685  26.662  11.729  0.0454 -0.0849 -0.0224
 1808BOLB   C4D43392  22.974  26.383  11.642 -0.4516  0.0759  0.1222
 1809DPPC   NC343393  19.931  27.379   7.623 -0.1026 -0.0113 -0.0666
 1809DPPC   PO443394  20.363  27.563   7.513 -0.2420 -0.0984 -0.0341
 1809DPPC   GL143395  20.142  27.627   7.194 -0.1898  0.0072 -0.1853
 1809DPPC   GL243396  19.879  27.679   7.216 -0.0031 -0.1983 -0.0378
 1809DPPC   C1A43397  20.310  27.838   6.811 -0.0290  0.0327 -0.2258
 1809DPPC   C2A43398  20.626  27.616   6.489 -0.0633 -0.0568  0.0301
 1809DPPC   C3A43399  20.989  27.315   6.606  0.2566 -0.0217 -0.2879
 1809DPPC   C4A43400  21.087  27.023   6.546 -0.2108 -0.0268  0.0254
 1809DPPC   C1B43401  19.838  27.677   6.760  0.3116 -0.0936  0.1408
 1809DPPC   C2B43402  19.559  27.645   6.466  0.1393 -0.0194 -0.0555
 1809DPPC   C3B43403  19.580  28.050   6.242 -0.0338 -0.3414 -0.0544
 1809DPPC   C4B43404  19.749  28.375   6.240 -0.4968 -0.0789 -0.1444
 1810DPPC   NC343405  36.443  27.932   3.182  0.0143  0.0192 -0.0878
 1810DPPC   PO443406  36.258  28.274   3.344  0.0390  0.1183  0.1400
 1810DPPC   GL143407  35.851  28.269   3.196 -0.0219  0.1877  0.1279
 1810DPPC   GL243408  35.885  27.939   3.058  0.2170  0.2347 -0.1035
 1810DPPC   C1A43409  35.511  28.348   2.952  0.2703 -0.4093 -0.3116
 1810DPPC   C2A43410  35.182  28.611   2.734  0.0015 -0.2294 -0.2775
 1810DPPC   C3A43411  35.239  28.913   2.408 -0.1615 -0.2093 -0.1256
 1810DPPC   C4A43412  35.182  29.057   2.026 -0.2969  0.1033  0.0341
 1810DPPC   C1B43413  35.838  28.103   2.585  0.1029  0.0795 -0.0681
 1810DPPC   C2B43414  35.806  28.106   2.183 -0.0466 -0.0210 -0.1309
 1810DPPC   C3B43415  35.548  28.178   1.764  0.0670  0.0973 -0.1460
 1810DPPC   C4B43416  35.532  28.043   1.376  0.4247  0.1747 -0.0837
 1811DPPC   NC343417  27.093  16.142  26.266 -0.3536  0.0658 -0.0808
 1811DPPC   PO443418  26.797  16.113  26.657  0.1710  0.0932  0.0920
 1811DPPC   GL143419  26.476  16.409  26.522 -0.2048 -0.1604 -0.2160
 1811DPPC   GL243420  26.120  16.333  26.412 -0.0557 -0.0341  0.2901
 1811DPPC   C1A43421  26.300  16.843  26.516  0.0403 -0.1302  0.1054
 1811DPPC   C2A43422  26.259  17.215  26.509  0.1979  0.0730  0.0213
 1811DPPC   C3A43423  26.321  17.594  26.453  0.2254 -0.3752 -0.4568
 1811DPPC   C4A43424  26.476  17.840  26.799  0.3005 -0.5289  0.4961
 1811DPPC   C1B43425  25.778  16.583  26.087 -0.1099 -0.1642 -0.5139
 1811DPPC   C2B43426  25.659  16.740  25.761 -0.1072  0.1149 -0.3052
 1811DPPC   C3B43427  25.692  17.023  25.521 -0.2288  0.1753 -0.1469
 1811DPPC   C4B43428  25.964  17.454  25.353 -0.0269  0.2755  0.0439
 1812DPPC   NC343429  29.029  35.643   5.291  0.1918 -0.1593  0.0749
 1812DPPC   PO443430  28.921  35.237   5.499  0.1035 -0.0407  0.1009
 1812DPPC   GL143431  28.960  35.005   5.162 -0.2440 -0.0156 -0.2176
 1812DPPC   GL243432  29.107  35.230   4.928  0.1916 -0.1774 -0.1625
 1812DPPC   C1A43433  28.969  34.835   4.677  0.1300  0.1260  0.0082
 1812DPPC   C2A43434  29.134  34.590   4.378  0.1765 -0.3009 -0.0361
 1812DPPC   C3A43435  28.840  34.289   4.070 -0.0132  0.1784 -0.2372
 1812DPPC   C4A43436  28.726  33.918   4.051 -0.1333  0.2219 -0.1151
 1812DPPC   C1B43437  29.170  35.343   4.563 -0.1412  0.1877 -0.0601
 1812DPPC   C2B43438  29.298  35.046   4.241 -0.2247  0.1919 -0.2276
 1812DPPC   C3B43439  29.239  34.804   3.932  0.0202 -0.1433  0.1670
 1812DPPC   C4B43440  29.327  35.125   3.592  0.1608 -0.3508  0.0636
 1813DPPC   NC343441  30.009  40.970   0.428  0.0619  0.1096  0.2053
 1813DPPC   PO443442  30.364  40.865   0.182  0.1080  0.1889  0.0236
 1813DPPC   GL143443  30.631  40.435   0.195  0.1414 -0.1225 -0.3152
 1813DPPC   GL243444  30.576  40.280  26.841  0.0156  0.2118  0.2175
 1813DPPC   C1A43445  30.983  40.134  26.915 -0.0710  0.2418 -0.3550
 1813DPPC   C2A43446  31.215  39.622   0.006  0.2428 -0.0073 -0.0064
 1813DPPC   C3A43447  31.154  39.136   0.144  0.1275  0.1435  0.0712
 1813DPPC   C4A43448  31.155  38.756   0.175  0.2946 -0.0729  0.0172
 1813DPPC   C1B43449  30.712  40.103  26.508  0.1400 -0.0586 -0.1236
 1813DPPC   C2B43450  30.704  39.746  26.293 -0.2943  0.1172 -0.3160
 1813DPPC   C3B43451  30.656  39.382  26.039  0.1883 -0.0882 -0.1941
 1813DPPC   C4B43452  30.693  39.321  25.654 -0.1256 -0.1588  0.0657
 1814DPPC   NC343453  20.989  20.475  20.098  0.0660  0.2259  0.1618
 1814DPPC   PO443454  21.200  20.152  19.862  0.4027  0.2082 -0.2547
 1814DPPC   GL143455  20.951  19.799  19.844 -0.1078  0.1213  0.2246
 1814DPPC   GL243456  20.963  19.518  20.105  0.0097  0.4418  0.2051
 1814DPPC   C1A43457  20.731  19.497  19.636 -0.1215 -0.0312 -0.2929
 1814DPPC   C2A43458  20.641  19.042  19.823 -0.0019 -0.0197 -0.1125
 1814DPPC   C3A43459  20.644  18.655  19.747 -0.1875 -0.0769  0.0305
 1814DPPC   C4A43460  20.420  18.342  19.675 -0.0336 -0.0176  0.0283
 1814DPPC   C1B43461  20.977  18.968  20.263  0.0714  0.3586 -0.0957
 1814DPPC   C2B43462  21.066  18.551  20.573 -0.1429 -0.0702  0.2300
 1814DPPC   C3B43463  21.482  18.494  20.963 -0.0093  0.2499 -0.1202
 1814DPPC   C4B43464  21.706  18.530  21.336  0.1012  0.1227  0.0571
 1815DPPC   NC343465  24.067  19.149  21.722 -0.1901 -0.2505 -0.2369
 1815DPPC   PO443466  24.332  18.881  21.878 -0.1488 -0.0627  0.1009
 1815DPPC   GL143467  24.646  18.708  21.674 -0.2135  0.2654 -0.1609
 1815DPPC   GL243468  24.693  18.505  21.331  0.2918  0.0768 -0.2939
 1815DPPC   C1A43469  25.016  18.743  21.132  0.0080 -0.1176  0.0941
 1815DPPC   C2A43470  25.339  18.783  21.219  0.0613  0.0421 -0.1114
 1815DPPC   C3A43471  25.484  18.382  21.406  0.1239 -0.0815 -0.2846
 1815DPPC   C4A43472  25.505  18.000  21.657  0.2487 -0.1048  0.3694
 1815DPPC   C1B43473  24.886  18.245  21.067 -0.0338 -0.2395 -0.2892
 1815DPPC   C2B43474  25.325  17.988  21.071 -0.0296  0.1668 -0.2524
 1815DPPC   C3B43475  25.672  17.777  21.047  0.0486  0.1406 -0.0048
 1815DPPC   C4B43476  26.066  17.509  21.017  0.2106 -0.0572 -0.2176
 1816DPPC   NC343477  16.496  27.434  20.864  0.0434 -0.0553 -0.0771
 1816DPPC   PO443478  16.736  27.332  20.505  0.1859  0.3300 -0.1869
 1816DPPC   GL143479  16.554  27.712  20.436  0.2203 -0.1472 -0.2385
 1816DPPC   GL243480  16.264  27.733  20.538  0.2546  0.1029  0.1527
 1816DPPC   C1A43481  16.437  28.049  20.146  0.3476  0.5491  0.5446
 1816DPPC   C2A43482  16.286  28.463  20.101 -0.3784  0.3694 -0.0052
 1816DPPC   C3A43483  16.114  28.743  19.945  0.0598 -0.4437  0.1304
 1816DPPC   C4A43484  16.120  29.193  19.792  0.0403 -0.3674 -0.0583
 1816DPPC   C1B43485  15.954  28.019  20.312  0.4220  0.1800  0.1214
 1816DPPC   C2B43486  15.537  28.052  20.293  0.0537  0.0823  0.0902
 1816DPPC   C3B43487  15.087  27.914  20.071  0.3285 -0.3616  0.0026
 1816DPPC   C4B43488  14.776  28.128  20.211  0.1103  0.1579 -0.2451
 1817DPPC   NC343489  24.589  24.341   3.019  0.0491  0.1068  0.3169
 1817DPPC   PO443490  24.473  24.808   2.910  0.1452  0.2413 -0.2218
 1817DPPC   GL143491  24.645  25.093   2.694 -0.0998 -0.0348 -0.2162
 1817DPPC   GL243492  24.953  25.150   2.767  0.0048  0.0023  0.1587
 1817DPPC   C1A43493  24.682  25.307   2.292 -0.0503 -0.2149  0.0735
 1817DPPC   C2A43494  24.760  25.534   1.957 -0.2046  0.1618 -0.1879
 1817DPPC   C3A43495  24.932  25.543   1.533 -0.0699  0.0070 -0.4006
 1817DPPC   C4A43496  25.123  25.795   1.311  0.0859  0.0100 -0.0818
 1817DPPC   C1B43497  25.260  25.396   2.768  0.0807  0.2630 -0.1085
 1817DPPC   C2B43498  25.526  25.413   2.490  0.0671  0.4608  0.0291
 1817DPPC   C3B43499  25.544  25.694   2.263 -0.3210 -0.3136  0.2832
 1817DPPC   C4B43500  25.705  25.869   1.949 -0.1030  0.1570  0.0114
 1818DPPC   NC343501  22.889  20.957  23.809 -0.2806 -0.1250  0.1262
 1818DPPC   PO443502  23.323  21.034  23.866  0.1126 -0.0515  0.0773
 1818DPPC   GL143503  23.616  21.219  23.714  0.2046  0.0653 -0.1388
 1818DPPC   GL243504  23.491  21.439  23.391  0.1774 -0.4694  0.2336
 1818DPPC   C1A43505  24.062  21.322  23.745 -0.1652 -0.0062 -0.2413
 1818DPPC   C2A43506  24.193  21.794  23.839  0.1964 -0.1624  0.5259
 1818DPPC   C3A43507  24.448  22.262  23.881  0.1811  0.0810 -0.1142
 1818DPPC   C4A43508  24.474  22.649  24.079 -0.1582 -0.0005 -0.0886
 1818DPPC   C1B43509  23.665  21.592  22.990  0.1454 -0.1421  0.0486
 1818DPPC   C2B43510  24.032  21.834  22.858  0.1303  0.0498 -0.1502
 1818DPPC   C3B43511  24.139  22.204  23.009  0.2439 -0.3116  0.2154
 1818DPPC   C4B43512  23.969  22.607  23.098  0.1275 -0.1697  0.0515
 1819DPPC   NC343513  36.100  28.050  13.213 -0.1042  0.1417 -0.0953
 1819DPPC   PO443514  36.363  27.925  13.539 -0.3126  0.3082  0.0443
 1819DPPC   GL143515  36.185  27.947  13.913  0.1026 -0.1948  0.1577
 1819DPPC   GL243516  36.218  28.242  14.123 -0.4886  0.1411  0.1265
 1819DPPC   C1A43517  35.829  27.880  14.265 -0.0431  0.1173  0.1788
 1819DPPC   C2A43518  35.826  27.732  14.659 -0.1715 -0.0890 -0.0185
 1819DPPC   C3A43519  35.919  27.337  14.947 -0.2139 -0.5063 -0.3333
 1819DPPC   C4A43520  36.339  27.239  14.901  0.2610  0.3972 -0.0757
 1819DPPC   C1B43521  35.970  28.608  14.181  0.2258 -0.0642  0.0373
 1819DPPC   C2B43522  35.502  28.709  14.267 -0.0063  0.1163 -0.1282
 1819DPPC   C3B43523  35.138  28.705  14.541  0.0983 -0.0942  0.0514
 1819DPPC   C4B43524  34.754  28.785  14.673  0.1009  0.1517  0.1646
 1820DPPC   NC343525  27.042  34.382  10.297  0.0337 -0.0950 -0.0045
 1820DPPC   PO443526  27.251  34.678  10.277 -0.0870 -0.4055 -0.1741
 1820DPPC   GL143527  27.296  34.429  10.705  0.0904 -0.1647 -0.0992
 1820DPPC   GL243528  27.292  34.640  11.000  0.2559 -0.0982  0.3029
 1820DPPC   C1A43529  27.644  34.218  10.950  0.0431  0.4760  0.2097
 1820DPPC   C2A43530  27.926  34.322  11.166  0.2952  0.0402  0.1571
 1820DPPC   C3A43531  28.381  34.402  11.444 -0.1052  0.0276  0.0216
 1820DPPC   C4A43532  28.289  34.356  11.861  0.0240  0.0495 -0.1207
 1820DPPC   C1B43533  27.519  34.622  11.342 -0.0351 -0.2430 -0.0531
 1820DPPC   C2B43534  27.442  34.497  11.708 -0.0439  0.2514 -0.1148
 1820DPPC   C3B43535  27.323  34.566  12.139 -0.1020 -0.3599 -0.1314
 1820DPPC   C4B43536  27.498  34.670  12.508 -0.0404 -0.2109  0.0340
 1821DPPC   NC343537  30.579  23.709   5.734 -0.2200 -0.0409  0.1076
 1821DPPC   PO443538  30.977  23.687   5.557 -0.3171  0.2134 -0.0073
 1821DPPC   GL143539  30.640  23.740   5.256  0.1786 -0.4364  0.1468
 1821DPPC   GL243540  30.276  23.658   5.295  0.0985 -0.0402  0.1246
 1821DPPC   C1A43541  30.373  23.900   4.783  0.0469 -0.1864 -0.0052
 1821DPPC   C2A43542  30.114  24.137   4.573  0.1126 -0.5035  0.2117
 1821DPPC   C3A43543  30.096  24.483   4.308 -0.1121 -0.0457  0.1991
 1821DPPC   C4A43544  30.429  24.656   4.022 -0.0127  0.0504  0.0373
 1821DPPC   C1B43545  30.175  23.995   5.237 -0.1941  0.0848  0.0772
 1821DPPC   C2B43546  30.065  24.490   5.191  0.1766  0.0252  0.1661
 1821DPPC   C3B43547  29.742  24.906   5.111  0.3205  0.0574  0.0344
 1821DPPC   C4B43548  29.400  25.026   4.891  0.1306 -0.3035  0.1210
 1822DPPC   NC343549  24.851  18.735   5.465  0.3207  0.0200  0.0986
 1822DPPC   PO443550  24.667  18.946   5.073  0.2650 -0.2466  0.0625
 1822DPPC   GL143551  24.850  19.385   4.949  0.1739  0.0970  0.3813
 1822DPPC   GL243552  24.855  19.768   5.024  0.3433 -0.0931  0.0450
 1822DPPC   C1A43553  25.255  19.582   4.801  0.2232  0.0726  0.2208
 1822DPPC   C2A43554  25.473  19.941   4.599  0.3181  0.0290 -0.1141
 1822DPPC   C3A43555  25.257  20.240   4.366  0.3613  0.0366 -0.1675
 1822DPPC   C4A43556  25.138  20.729   4.236  0.5033  0.2215  0.1640
 1822DPPC   C1B43557  24.856  19.850   4.549 -0.2409  0.1596 -0.0932
 1822DPPC   C2B43558  24.980  19.912   4.037 -0.2197 -0.3495 -0.1028
 1822DPPC   C3B43559  24.970  20.142   3.554 -0.0667 -0.2324 -0.2395
 1822DPPC   C4B43560  25.069  20.487   3.257  0.1741  0.4304 -0.1321
 1823DPPC   NC343561  28.186  17.521  20.169  0.2169 -0.1934 -0.1155
 1823DPPC   PO443562  27.826  17.267  20.264  0.0393 -0.0474 -0.2609
 1823DPPC   GL143563  27.639  17.680  20.256  0.2354 -0.0194  0.2073
 1823DPPC   GL243564  27.866  17.882  20.382 -0.2664  0.0636  0.0913
 1823DPPC   C1A43565  27.394  18.079  20.271 -0.0187  0.0315 -0.0287
 1823DPPC   C2A43566  26.994  18.230  20.198  0.3165 -0.0225 -0.2249
 1823DPPC   C3A43567  26.586  18.437  20.193  0.2225 -0.2031  0.3059
 1823DPPC   C4A43568  26.632  18.949  20.112  0.4281  0.2441 -0.2233
 1823DPPC   C1B43569  27.818  18.333  20.532 -0.1430 -0.3036 -0.1442
 1823DPPC   C2B43570  28.068  18.624  20.678 -0.0081 -0.1505  0.1035
 1823DPPC   C3B43571  28.028  19.048  20.954  0.1196 -0.0975  0.2127
 1823DPPC   C4B43572  27.674  19.371  21.101  0.3141 -0.0514 -0.0170
 1824DPPC   NC343573  25.076  26.234  24.665  0.0722 -0.1602 -0.0167
 1824DPPC   PO443574  25.317  26.011  24.954 -0.0223 -0.0472  0.1274
 1824DPPC   GL143575  24.827  25.926  24.913 -0.0139  0.1955  0.1349
 1824DPPC   GL243576  24.579  25.904  24.621  0.0484 -0.0158 -0.0563
 1824DPPC   C1A43577  24.462  25.748  25.037 -0.1718 -0.0807 -0.2764
 1824DPPC   C2A43578  24.097  25.465  25.154 -0.2085  0.0272 -0.0212
 1824DPPC   C3A43579  23.865  25.155  25.299 -0.1379  0.0065 -0.2594
 1824DPPC   C4A43580  23.556  25.147  25.649  0.1469 -0.3862 -0.2412
 1824DPPC   C1B43581  24.317  25.671  24.551 -0.1187 -0.2141 -0.2867
 1824DPPC   C2B43582  24.044  25.321  24.694  0.0915 -0.3767  0.2840
 1824DPPC   C3B43583  23.605  25.298  24.894 -0.1338  0.1609 -0.0558
 1824DPPC   C4B43584  23.170  25.182  24.820  0.0532 -0.0276  0.2339
 1825DPPC   NC343585  15.626  32.701  26.046  0.1012 -0.1085 -0.0016
 1825DPPC   PO443586  16.032  32.720  26.256 -0.1831 -0.2374 -0.2360
 1825DPPC   GL143587  16.402  32.454  26.071 -0.1029 -0.2910 -0.1619
 1825DPPC   GL243588  16.753  32.500  26.081 -0.0213  0.1775  0.1682
 1825DPPC   C1A43589  16.512  31.893  26.168  0.1801 -0.0209  0.1401
 1825DPPC   C2A43590  16.789  31.625  26.499  0.0774 -0.2660  0.2472
 1825DPPC   C3A43591  17.268  31.484  26.455  0.0550 -0.1006 -0.0427
 1825DPPC   C4A43592  17.375  31.019  26.614  0.1050  0.1703 -0.2582
 1825DPPC   C1B43593  16.965  32.145  26.020  0.1175 -0.0741  0.0456
 1825DPPC   C2B43594  17.313  31.869  26.178 -0.2818 -0.1701  0.0370
 1825DPPC   C3B43595  17.499  31.632  25.958 -0.3921 -0.0217 -0.2509
 1825DPPC   C4B43596  17.665  31.265  26.130 -0.0843  0.1963  0.0839
 1826DPPC   NC343597  18.069  21.930   2.663  0.1000  0.1586  0.2524
 1826DPPC   PO443598  18.063  21.828   3.060 -0.1438  0.0896 -0.1046
 1826DPPC   GL143599  18.406  21.910   3.129 -0.3740 -0.1054 -0.0628
 1826DPPC   GL243600  18.487  21.712   2.803  0.1829 -0.3462 -0.0975
 1826DPPC   C1A43601  18.687  22.236   3.023 -0.0961  0.2197  0.1619
 1826DPPC   C2A43602  18.923  22.496   3.036  0.0298 -0.0016 -0.0896
 1826DPPC   C3A43603  19.009  22.815   2.872 -0.1896  0.1044  0.0759
 1826DPPC   C4A43604  19.305  22.884   2.664 -0.0561  0.0877 -0.1088
 1826DPPC   C1B43605  18.725  22.016   2.546  0.3264 -0.0292 -0.0154
 1826DPPC   C2B43606  19.021  22.356   2.510  0.1160  0.0270  0.0660
 1826DPPC   C3B43607  19.272  22.467   2.213  0.1199  0.0611 -0.1300
 1826DPPC   C4B43608  19.285  22.492   1.746  0.1296 -0.0926  0.2102
 1827DPPC   NC343609  28.409  25.917   0.398  0.3448 -0.0131  0.0392
 1827DPPC   PO443610  28.615  25.663   0.701  0.3901 -0.1679 -0.0164
 1827DPPC   GL143611  28.555  25.284   1.020 -0.0937 -0.0589 -0.1664
 1827DPPC   GL243612  28.516  24.939   0.973  0.2293  0.1477 -0.1343
 1827DPPC   C1A43613  28.336  25.290   1.398 -0.2321 -0.0580  0.3308
 1827DPPC   C2A43614  28.400  25.199   1.720  0.2467 -0.2954 -0.0710
 1827DPPC   C3A43615  28.125  25.022   2.121  0.0881  0.0801 -0.0271
 1827DPPC   C4A43616  27.849  25.296   2.383 -0.2309 -0.1019 -0.1213
 1827DPPC   C1B43617  28.211  24.821   0.652 -0.0642 -0.0343  0.2756
 1827DPPC   C2B43618  27.878  24.863   0.337 -0.3339  0.0451 -0.1965
 1827DPPC   C3B43619  27.530  24.671   0.475  0.1790  0.4801 -0.0241
 1827DPPC   C4B43620  27.119  24.772   0.645  0.2933 -0.1156  0.0022
 1828DPPC   NC343621  38.261  33.698  16.313 -0.2688 -0.2609 -0.1544
 1828DPPC   PO443622  38.043  33.810  16.018 -0.3095  0.3340  0.0389
 1828DPPC   GL143623  37.802  33.471  16.286  0.2272  0.2176 -0.0524
 1828DPPC   GL243624  37.607  33.369  16.016 -0.0842 -0.2079 -0.0414
 1828DPPC   C1A43625  37.648  33.232  16.597 -0.0088  0.1298 -0.1638
 1828DPPC   C2A43626  37.321  33.208  16.851  0.2747 -0.4213  0.2796
 1828DPPC   C3A43627  37.007  32.815  17.081 -0.2036  0.0365  0.1272
 1828DPPC   C4A43628  36.630  32.735  17.290 -0.0381  0.0245 -0.0491
 1828DPPC   C1B43629  37.273  33.187  16.027  0.0777 -0.4425  0.1941
 1828DPPC   C2B43630  37.077  33.087  16.451 -0.1941  0.0071 -0.1441
 1828DPPC   C3B43631  36.726  32.958  16.687  0.0872  0.0916 -0.1542
 1828DPPC   C4B43632  36.216  32.890  16.703  0.2892 -0.1628 -0.0508
 1829DPPC   NC343633  40.165  30.074  22.132  0.1432  0.2549 -0.1236
 1829DPPC   PO443634  40.305  30.467  21.908 -0.0379 -0.0480  0.3477
 1829DPPC   GL143635  39.845  30.378  21.846 -0.0645 -0.2060 -0.1102
 1829DPPC   GL243636  39.803  30.782  21.947 -0.0771 -0.1005 -0.1461
 1829DPPC   C1A43637  39.393  30.262  21.678  0.0340 -0.0197 -0.0614
 1829DPPC   C2A43638  39.162  30.449  21.361  0.4498 -0.0483  0.3946
 1829DPPC   C3A43639  38.819  30.629  21.059  0.1240  0.1228  0.1096
 1829DPPC   C4A43640  38.595  30.932  21.001  0.1412  0.1464 -0.2845
 1829DPPC   C1B43641  39.436  30.565  22.141 -0.2204 -0.0137  0.1239
 1829DPPC   C2B43642  39.009  30.507  21.891  0.1654 -0.0860 -0.0059
 1829DPPC   C3B43643  38.730  30.636  21.645 -0.1209 -0.0659 -0.0081
 1829DPPC   C4B43644  38.262  30.731  21.624 -0.1743 -0.3060 -0.0280
 1830DPPC   NC343645  20.199  31.580  21.017  0.0399  0.1079 -0.3139
 1830DPPC   PO443646  19.956  31.987  21.025 -0.1871  0.1199 -0.3923
 1830DPPC   GL143647  19.582  32.165  20.906  0.0547 -0.1380  0.1386
 1830DPPC   GL243648  19.693  32.442  21.169 -0.2278 -0.3724  0.0839
 1830DPPC   C1A43649  19.123  32.165  20.865  0.2294  0.1313 -0.0297
 1830DPPC   C2A43650  18.753  32.326  20.745 -0.0015  0.0561  0.0502
 1830DPPC   C3A43651  18.400  32.544  20.716 -0.0147  0.2461  0.1636
 1830DPPC   C4A43652  17.968  32.469  20.754  0.0026 -0.1222  0.0531
 1830DPPC   C1B43653  19.300  32.538  21.193 -0.0514 -0.0948 -0.0849
 1830DPPC   C2B43654  18.931  32.655  21.038 -0.1921 -0.0235 -0.2163
 1830DPPC   C3B43655  18.543  32.908  20.985 -0.0010 -0.0777 -0.0028
 1830DPPC   C4B43656  18.144  32.712  21.138 -0.1803  0.1498 -0.0744
 1831DPPC   NC343657  18.852  28.361   6.886  0.1084  0.0990 -0.1045
 1831DPPC   PO443658  18.592  28.192   6.530 -0.3697  0.2162 -0.2631
 1831DPPC   GL143659  18.858  28.159   6.206  0.0531  0.1773 -0.3344
 1831DPPC   GL243660  19.014  27.925   6.312  0.2181  0.1095 -0.1747
 1831DPPC   C1A43661  19.172  28.050   5.811 -0.1028 -0.1940 -0.2594
 1831DPPC   C2A43662  19.416  28.179   5.392 -0.3123  0.2142 -0.3985
 1831DPPC   C3A43663  19.348  28.445   5.025  0.0403  0.0303 -0.3185
 1831DPPC   C4A43664  19.255  28.896   5.000  0.0098 -0.0334 -0.0908
 1831DPPC   C1B43665  19.233  27.616   6.121  0.0567  0.2141  0.2233
 1831DPPC   C2B43666  19.494  27.634   5.785  0.1713 -0.3466  0.0963
 1831DPPC   C3B43667  19.696  27.654   5.489 -0.0377 -0.0314 -0.1880
 1831DPPC   C4B43668  19.820  27.868   5.186 -0.1468 -0.0057  0.1227
 1832DPPC   NC343669  28.732  28.216  13.850 -0.2332 -0.2387 -0.2012
 1832DPPC   PO443670  28.555  27.812  14.025 -0.0452 -0.0069 -0.1392
 1832DPPC   GL143671  28.706  27.749  13.678  0.0554  0.0502 -0.0475
 1832DPPC   GL243672  28.450  27.901  13.531  0.2968  0.1587 -0.4004
 1832DPPC   C1A43673  29.047  27.806  13.420 -0.0730 -0.1880  0.0646
 1832DPPC   C2A43674  29.052  27.597  12.991 -0.5639 -0.1284 -0.2248
 1832DPPC   C3A43675  29.109  27.410  12.613  0.0347 -0.0760  0.1175
 1832DPPC   C4A43676  29.181  27.148  12.335  0.1055  0.2430 -0.3393
 1832DPPC   C1B43677  28.533  27.781  13.178 -0.3160  0.2325 -0.0061
 1832DPPC   C2B43678  28.547  27.682  12.702  0.0275 -0.0898 -0.1659
 1832DPPC   C3B43679  28.670  27.545  12.282  0.2649  0.0429  0.1533
 1832DPPC   C4B43680  28.807  27.285  11.969 -0.0080 -0.1273 -0.0218
 1833DPPC   NC343681  30.449  34.893  11.179  0.1881  0.2494 -0.1319
 1833DPPC   PO443682  30.727  34.653  11.095 -0.0465 -0.1347  0.0696
 1833DPPC   GL143683  30.796  34.689  11.502 -0.1703  0.1678 -0.3797
 1833DPPC   GL243684  30.469  34.797  11.751  0.0902  0.1840 -0.1990
 1833DPPC   C1A43685  30.842  34.538  11.946 -0.4009 -0.0869  0.2891
 1833DPPC   C2A43686  30.876  34.471  12.358  0.0382 -0.0581  0.0293
 1833DPPC   C3A43687  30.930  34.634  12.775  0.0609 -0.1170  0.3857
 1833DPPC   C4A43688  31.211  34.859  13.115  0.0448  0.1392 -0.1869
 1833DPPC   C1B43689  30.278  34.688  12.186 -0.0984  0.2713 -0.0115
 1833DPPC   C2B43690  30.173  34.381  12.406  0.0689  0.1841 -0.3988
 1833DPPC   C3B43691  29.808  34.339  12.573 -0.3769  0.1728  0.1195
 1833DPPC   C4B43692  29.495  34.397  12.912 -0.2681 -0.0368 -0.0348
 1834DPPC   NC343693  24.944  28.492   0.025 -0.3892 -0.0285 -0.1885
 1834DPPC   PO443694  24.744  28.381  26.534  0.2363  0.0672  0.0744
 1834DPPC   GL143695  24.471  28.094  26.474  0.2029 -0.1322 -0.1430
 1834DPPC   GL243696  24.171  28.220  26.284 -0.3200  0.0235  0.0593
 1834DPPC   C1A43697  24.123  27.793  26.485 -0.0256 -0.2470 -0.1387
 1834DPPC   C2A43698  23.869  27.471  26.421 -0.3427  0.0539 -0.0474
 1834DPPC   C3A43699  23.735  27.153  26.710  0.1897  0.0586  0.1080
 1834DPPC   C4A43700  23.630  26.773  26.632 -0.1082 -0.2129  0.1097
 1834DPPC   C1B43701  23.964  28.257  26.628  0.1390 -0.1333 -0.1610
 1834DPPC   C2B43702  23.742  27.970  26.835  0.0524 -0.2211  0.5041
 1834DPPC   C3B43703  23.519  27.646  26.795  0.1654  0.0560  0.1104
 1834DPPC   C4B43704  23.177  27.403  26.749  0.1712  0.0881 -0.1423
 1835DPPC   NC343705  22.563  26.316  19.148 -0.1241 -0.1901 -0.1617
 1835DPPC   PO443706  22.635  25.801  19.032  0.2864  0.2209  0.3395
 1835DPPC   GL143707  22.487  25.640  19.298 -0.1125 -0.0259  0.2579
 1835DPPC   GL243708  22.374  25.923  19.421  0.0667  0.0476 -0.0976
 1835DPPC   C1A43709  22.192  25.541  19.646  0.0523  0.0129  0.1723
 1835DPPC   C2A43710  21.889  25.381  19.988 -0.2361 -0.0292  0.3020
 1835DPPC   C3A43711  21.479  25.448  20.287 -0.0309 -0.0307  0.1507
 1835DPPC   C4A43712  21.123  25.746  20.275  0.1378 -0.0769  0.1635
 1835DPPC   C1B43713  21.999  25.755  19.166 -0.0080 -0.0171  0.2282
 1835DPPC   C2B43714  21.662  25.414  18.947 -0.0465 -0.1678  0.0561
 1835DPPC   C3B43715  21.422  25.102  19.174 -0.0862  0.0137 -0.1138
 1835DPPC   C4B43716  21.273  24.819  19.514 -0.1387 -0.1263  0.1645
 1836DPPC   NC343717  17.267  36.433  24.583  0.0567  0.1855 -0.0997
 1836DPPC   PO443718  17.234  36.358  24.128 -0.1954  0.2774 -0.1528
 1836DPPC   GL143719  17.723  36.226  24.407  0.1668  0.0739  0.1512
 1836DPPC   GL243720  17.688  35.955  24.584 -0.1274 -0.2039 -0.0896
 1836DPPC   C1A43721  18.093  36.230  24.608 -0.2914  0.1112 -0.0015
 1836DPPC   C2A43722  18.526  35.948  24.723 -0.0853  0.3120  0.0179
 1836DPPC   C3A43723  18.866  35.693  24.705  0.0519 -0.1419  0.1599
 1836DPPC   C4A43724  19.311  35.683  24.900 -0.0772 -0.0482  0.1266
 1836DPPC   C1B43725  18.026  35.762  24.461 -0.0952  0.0687  0.0275
 1836DPPC   C2B43726  18.361  35.613  24.187 -0.1187  0.1811 -0.0785
 1836DPPC   C3B43727  18.657  35.655  23.881  0.1529 -0.0236  0.1233
 1836DPPC   C4B43728  18.669  35.762  23.461  0.2071 -0.0288 -0.2196
 1837DPPC   NC343729  37.005  37.727  24.073 -0.1667  0.0379  0.2311
 1837DPPC   PO443730  36.850  37.679  23.676 -0.3294  0.2646  0.1579
 1837DPPC   GL143731  36.353  37.616  23.679  0.1338 -0.0768  0.0812
 1837DPPC   GL243732  36.111  37.746  23.901 -0.1603 -0.2653  0.2168
 1837DPPC   C1A43733  36.112  37.660  23.396  0.0836  0.0129 -0.1625
 1837DPPC   C2A43734  35.724  37.682  23.112 -0.0576  0.4046  0.0540
 1837DPPC   C3A43735  35.363  37.563  22.936  0.0575  0.0196  0.0082
 1837DPPC   C4A43736  35.081  37.786  22.748  0.2228 -0.1494 -0.3830
 1837DPPC   C1B43737  35.767  37.526  23.775  0.0323  0.1388  0.0170
 1837DPPC   C2B43738  35.403  37.526  23.486  0.0769 -0.1385  0.5941
 1837DPPC   C3B43739  35.012  37.231  23.559  0.2756 -0.3114 -0.0412
 1837DPPC   C4B43740  34.719  36.872  23.889  0.4759  0.1393  0.0949
 1838DPPC   NC343741  35.713  19.974  21.219  0.0105 -0.0278 -0.0328
 1838DPPC   PO443742  35.282  19.979  21.345  0.4832  0.0185  0.0240
 1838DPPC   GL143743  34.877  20.236  21.461 -0.3563 -0.3017 -0.4121
 1838DPPC   GL243744  34.619  20.262  21.681 -0.1752 -0.3648  0.0311
 1838DPPC   C1A43745  34.672  20.660  21.384 -0.0267  0.0843  0.0509
 1838DPPC   C2A43746  34.580  20.989  21.383  0.1186 -0.1392  0.1414
 1838DPPC   C3A43747  34.481  21.497  21.300 -0.0375 -0.1849 -0.1493
 1838DPPC   C4A43748  34.558  21.777  21.000  0.0757 -0.0704  0.0052
 1838DPPC   C1B43749  34.455  20.669  21.862 -0.1434 -0.0247  0.0903
 1838DPPC   C2B43750  34.060  20.829  22.095 -0.3115  0.0553  0.2826
 1838DPPC   C3B43751  33.806  20.880  22.291  0.5926 -0.0427  0.2835
 1838DPPC   C4B43752  33.385  21.044  22.340  0.1304 -0.0166 -0.3284
 1839DPPC   NC343753  20.794  16.242  24.130 -0.2675 -0.2811  0.2105
 1839DPPC   PO443754  21.134  16.303  24.254 -0.1452  0.0525 -0.1858
 1839DPPC   GL143755  21.429  16.639  24.317  0.0414  0.1160  0.2367
 1839DPPC   GL243756  21.818  16.698  24.377  0.1732 -0.1405  0.0240
 1839DPPC   C1A43757  21.514  16.870  23.963  0.0827  0.1022  0.1250
 1839DPPC   C2A43758  21.885  16.972  23.704  0.1786  0.0191 -0.0889
 1839DPPC   C3A43759  22.283  17.062  23.518  0.1282  0.1336 -0.1655
 1839DPPC   C4A43760  22.400  16.851  23.157 -0.0261 -0.1096 -0.2414
 1839DPPC   C1B43761  21.644  17.148  24.312  0.0337  0.0693 -0.1671
 1839DPPC   C2B43762  21.586  17.460  24.010  0.0954  0.1353  0.0326
 1839DPPC   C3B43763  21.905  17.764  24.117 -0.1998 -0.4028 -0.0841
 1839DPPC   C4B43764  22.167  17.929  24.364 -0.1714 -0.2232 -0.1415
 1840DPPC   NC343765  15.956  24.161   2.408  0.1293  0.0024 -0.1725
 1840DPPC   PO443766  15.642  24.322   2.125 -0.0802 -0.3611  0.0511
 1840DPPC   GL143767  16.150  24.263   1.947 -0.2024  0.1765  0.1900
 1840DPPC   GL243768  16.385  24.145   2.197  0.2211  0.2728  0.1270
 1840DPPC   C1A43769  16.392  24.580   1.880  0.1886  0.0234  0.3184
 1840DPPC   C2A43770  16.637  24.975   1.681  0.1621  0.2397  0.3161
 1840DPPC   C3A43771  16.855  24.895   1.267 -0.4149 -0.1397  0.2093
 1840DPPC   C4A43772  16.979  25.181   1.054 -0.3342  0.2114 -0.0099
 1840DPPC   C1B43773  16.620  24.073   1.817 -0.1214 -0.0926  0.3633
 1840DPPC   C2B43774  17.125  23.965   1.643 -0.1965 -0.0469  0.2568
 1840DPPC   C3B43775  17.303  23.930   1.291  0.0344 -0.1047 -0.0215
 1840DPPC   C4B43776  17.463  23.703   1.039 -0.4741  0.1054  0.0630
 1841DPPC   NC343777  15.218  27.869   3.805  0.0964 -0.0514  0.4389
 1841DPPC   PO443778  15.535  27.968   3.790 -0.3255  0.0012 -0.0631
 1841DPPC   GL143779  15.964  28.133   3.814 -0.1112  0.2109  0.2884
 1841DPPC   GL243780  16.061  27.863   3.921 -0.1546  0.3256 -0.4735
 1841DPPC   C1A43781  16.365  28.279   3.580  0.0083  0.2988 -0.0667
 1841DPPC   C2A43782  16.645  28.032   3.418  0.0666  0.2400  0.1290
 1841DPPC   C3A43783  16.962  27.883   3.126 -0.3774  0.1342 -0.1451
 1841DPPC   C4A43784  17.034  28.034   2.667  0.5210  0.2921 -0.1360
 1841DPPC   C1B43785  16.460  27.749   3.882 -0.1144 -0.1034  0.4625
 1841DPPC   C2B43786  16.810  27.601   3.570 -0.0181 -0.1129  0.1699
 1841DPPC   C3B43787  17.133  27.398   3.425  0.3696  0.1857  0.0982
 1841DPPC   C4B43788  17.429  27.454   3.167 -0.0899 -0.2148 -0.0245
 1842DPPC   NC343789  15.339  20.839  26.717  0.0678  0.1191 -0.2422
 1842DPPC   PO443790  15.753  21.125  26.575 -0.3432 -0.1075 -0.1067
 1842DPPC   GL143791  16.203  21.203  26.460 -0.1401 -0.0791  0.1023
 1842DPPC   GL243792  16.260  21.513  26.541 -0.0291  0.1190 -0.0849
 1842DPPC   C1A43793  16.655  21.343  26.297 -0.1755 -0.1122  0.3489
 1842DPPC   C2A43794  16.922  21.444  25.927  0.2075 -0.1119 -0.5892
 1842DPPC   C3A43795  17.315  21.628  25.829 -0.3233 -0.0029 -0.0726
 1842DPPC   C4A43796  17.831  21.881  25.761  0.0187  0.3620  0.0507
 1842DPPC   C1B43797  16.457  21.799  26.184  0.0769 -0.0014 -0.0555
 1842DPPC   C2B43798  16.752  21.942  25.930 -0.1042  0.1838 -0.0510
 1842DPPC   C3B43799  17.116  22.151  25.667 -0.2347  0.0202 -0.3509
 1842DPPC   C4B43800  17.544  22.427  25.814 -0.0759 -0.1519 -0.2184
 1843DPPC   NC343801  26.148  36.898  11.774  0.2568 -0.0617 -0.3172
 1843DPPC   PO443802  26.442  37.031  11.962  0.0068 -0.1310  0.1537
 1843DPPC   GL143803  26.466  36.585  12.158 -0.1093  0.2372 -0.3121
 1843DPPC   GL243804  26.721  36.754  12.409 -0.1392  0.0381 -0.0049
 1843DPPC   C1A43805  26.293  36.163  12.251 -0.0285 -0.1201 -0.2422
 1843DPPC   C2A43806  26.131  35.886  12.016 -0.2302  0.2871  0.4100
 1843DPPC   C3A43807  26.109  35.392  12.082  0.1224 -0.1978 -0.3361
 1843DPPC   C4A43808  25.900  34.980  12.006  0.1839 -0.1353 -0.0329
 1843DPPC   C1B43809  26.265  36.580  12.582  0.2179 -0.2069 -0.3684
 1843DPPC   C2B43810  25.907  36.456  12.687 -0.0092 -0.1011 -0.2787
 1843DPPC   C3B43811  25.628  36.266  12.975 -0.0346 -0.0649  0.4747
 1843DPPC   C4B43812  25.648  36.120  13.419  0.1247 -0.0550 -0.0190
 1844DPPC   NC343813  20.893  28.348   7.998  0.1237 -0.0888 -0.1136
 1844DPPC   PO443814  20.793  27.920   7.760  0.0914  0.0408  0.1635
 1844DPPC   GL143815  20.729  28.294   7.489 -0.2223  0.0292 -0.3481
 1844DPPC   GL243816  20.517  28.468   7.316 -0.1197 -0.1008 -0.0312
 1844DPPC   C1A43817  21.060  28.248   7.258  0.0469 -0.2532  0.2279
 1844DPPC   C2A43818  21.435  28.006   7.185 -0.0776 -0.0509  0.1168
 1844DPPC   C3A43819  21.809  27.977   6.978 -0.2033 -0.0498  0.1316
 1844DPPC   C4A43820  22.037  27.852   6.551  0.0720  0.1249  0.0034
 1844DPPC   C1B43821  20.884  28.677   7.157  0.0028 -0.0832 -0.4285
 1844DPPC   C2B43822  21.054  28.895   6.791 -0.0915  0.2721 -0.1947
 1844DPPC   C3B43823  21.350  29.214   6.552  0.1889  0.3665 -0.1883
 1844DPPC   C4B43824  21.815  29.323   6.690  0.1867  0.2700 -0.0580
 1845DPPC   NC343825  25.519  20.766   7.415 -0.2107  0.2725  0.0451
 1845DPPC   PO443826  25.815  20.639   7.122 -0.1624 -0.1680  0.0299
 1845DPPC   GL143827  25.854  20.770   6.699  0.2630 -0.0896 -0.0361
 1845DPPC   GL243828  25.960  20.501   6.438  0.0906  0.0952  0.0399
 1845DPPC   C1A43829  25.496  20.938   6.412  0.0574 -0.1201  0.4312
 1845DPPC   C2A43830  25.319  21.216   6.129 -0.0064 -0.1195 -0.3484
 1845DPPC   C3A43831  25.287  21.580   6.227  0.1181  0.0298 -0.0199
 1845DPPC   C4A43832  25.516  22.025   6.148  0.2777 -0.1359  0.1002
 1845DPPC   C1B43833  26.085  20.975   6.229  0.3781 -0.0788  0.1169
 1845DPPC   C2B43834  26.413  21.139   5.912 -0.2144 -0.2884 -0.3805
 1845DPPC   C3B43835  26.929  21.167   5.774 -0.0260 -0.2811 -0.0328
 1845DPPC   C4B43836  27.261  21.459   5.713  0.1257 -0.0490 -0.0069
 1846DPPC   NC343837  24.724  26.290  23.458 -0.1880  0.0884  0.1683
 1846DPPC   PO443838  24.714  25.999  23.766  0.2011  0.2178 -0.0793
 1846DPPC   GL143839  24.385  25.730  23.773 -0.0771  0.0328 -0.2277
 1846DPPC   GL243840  24.092  25.729  23.508 -0.0286  0.3125  0.2485
 1846DPPC   C1A43841  24.089  25.357  23.864  0.1525  0.4256  0.2877
 1846DPPC   C2A43842  23.715  25.264  23.959 -0.3913  0.0424 -0.0207
 1846DPPC   C3A43843  23.310  25.471  24.004 -0.3856 -0.0464 -0.0475
 1846DPPC   C4A43844  22.977  25.788  24.064 -0.2077  0.1881 -0.1097
 1846DPPC   C1B43845  23.765  25.661  23.666  0.0459  0.1319  0.1465
 1846DPPC   C2B43846  23.337  25.752  23.611  0.0174 -0.0115 -0.0042
 1846DPPC   C3B43847  22.900  25.414  23.651 -0.1458 -0.0196 -0.0873
 1846DPPC   C4B43848  22.656  25.031  23.504 -0.1527  0.1714 -0.1639
 1847DPPC   NC343849  24.346  27.179  24.659  0.1355 -0.0650 -0.4278
 1847DPPC   PO443850  24.217  27.228  24.255  0.0453  0.0324  0.0254
 1847DPPC   GL143851  23.792  26.986  24.368  0.1173  0.0579 -0.2022
 1847DPPC   GL243852  23.554  26.803  24.159  0.2563  0.0155 -0.1132
 1847DPPC   C1A43853  23.533  26.989  24.668 -0.2803 -0.2714 -0.0064
 1847DPPC   C2A43854  23.123  26.854  24.822 -0.2011 -0.0919 -0.0601
 1847DPPC   C3A43855  22.698  27.006  24.870  0.2805 -0.2143 -0.0442
 1847DPPC   C4A43856  22.478  27.430  24.788 -0.1500 -0.0850  0.1064
 1847DPPC   C1B43857  23.422  26.564  24.488 -0.0722 -0.0035 -0.2527
 1847DPPC   C2B43858  23.121  26.200  24.476 -0.2904  0.3779  0.1348
 1847DPPC   C3B43859  22.908  26.109  24.783  0.2156 -0.1316  0.2234
 1847DPPC   C4B43860  22.732  26.552  25.030 -0.1871  0.1876 -0.1547
 1848DPPC   NC343861  23.063  40.539  25.329  0.0260  0.1816 -0.2365
 1848DPPC   PO443862  23.326  40.390  25.714 -0.3015 -0.1742  0.0971
 1848DPPC   GL143863  23.503  40.071  25.587  0.2928 -0.1627 -0.3495
 1848DPPC   GL243864  23.608  40.217  25.229  0.0973  0.0044 -0.0913
 1848DPPC   C1A43865  23.265  39.819  25.408  0.1259  0.1127  0.4093
 1848DPPC   C2A43866  23.422  39.491  25.120 -0.0321  0.3951  0.0640
 1848DPPC   C3A43867  23.417  39.414  24.781 -0.2764 -0.3013  0.0149
 1848DPPC   C4A43868  23.630  39.144  24.483  0.1355 -0.1874  0.2759
 1848DPPC   C1B43869  23.842  39.771  25.349 -0.1070 -0.1559 -0.0690
 1848DPPC   C2B43870  23.902  39.360  25.300 -0.2216 -0.0328  0.1997
 1848DPPC   C3B43871  23.908  39.148  24.904 -0.0714 -0.1077  0.2599
 1848DPPC   C4B43872  24.007  38.745  24.774 -0.0111 -0.0574 -0.0235
 1849DPPC   NC343873  27.582  18.967   5.630  0.4463  0.1058  0.1998
 1849DPPC   PO443874  27.709  19.243   5.551  0.2701  0.2839 -0.0498
 1849DPPC   GL143875  27.503  19.276   5.248 -0.0071 -0.1358  0.0796
 1849DPPC   GL243876  27.435  19.593   5.114 -0.2123 -0.1366  0.2177
 1849DPPC   C1A43877  27.249  19.201   4.861  0.0866 -0.2615  0.3977
 1849DPPC   C2A43878  27.063  19.390   4.444 -0.0639 -0.1666 -0.1928
 1849DPPC   C3A43879  26.588  19.321   4.269  0.1484  0.2472 -0.0540
 1849DPPC   C4A43880  26.360  19.485   4.026  0.0784 -0.3007  0.2019
 1849DPPC   C1B43881  27.054  19.751   5.211  0.0516  0.0984  0.0397
 1849DPPC   C2B43882  26.652  19.942   5.184 -0.3152  0.0126  0.0572
 1849DPPC   C3B43883  26.493  19.923   4.780  0.4773  0.0343 -0.3457
 1849DPPC   C4B43884  26.648  19.816   4.299 -0.0212  0.0816 -0.1121
 1850DPPC   NC343885  26.046  15.938  22.412  0.1529  0.1156  0.0748
 1850DPPC   PO443886  26.264  16.082  22.157 -0.0742 -0.0189  0.0234
 1850DPPC   GL143887  25.992  16.279  21.997  0.1041 -0.0182 -0.2169
 1850DPPC   GL243888  26.057  16.506  21.833 -0.3128  0.0588  0.0741
 1850DPPC   C1A43889  25.628  16.551  21.730 -0.3854 -0.2308  0.2808
 1850DPPC   C2A43890  25.684  16.864  21.533 -0.1087 -0.0781 -0.3067
 1850DPPC   C3A43891  25.408  17.146  21.274 -0.2363 -0.1845 -0.0190
 1850DPPC   C4A43892  25.335  17.577  21.341  0.1192  0.0354 -0.1854
 1850DPPC   C1B43893  26.088  16.845  22.081  0.4832  0.1187 -0.0415
 1850DPPC   C2B43894  26.438  16.977  22.471 -0.0054 -0.2384 -0.1908
 1850DPPC   C3B43895  26.770  17.286  22.679  0.1707  0.3117 -0.4175
 1850DPPC   C4B43896  27.181  17.451  22.686  0.1176 -0.3403  0.2321
 1851DPPC   NC343897  31.816  36.856   4.155  0.1304  0.1914 -0.5873
 1851DPPC   PO443898  32.025  36.414   4.203  0.1251 -0.0081  0.0395
 1851DPPC   GL143899  31.717  36.390   3.907 -0.0562  0.0950  0.0331
 1851DPPC   GL243900  31.538  36.244   3.911  0.4146  0.1433 -0.3692
 1851DPPC   C1A43901  31.734  36.442   3.458  0.0189  0.1500  0.2254
 1851DPPC   C2A43902  31.494  36.245   3.156  0.3093  0.3995  0.1190
 1851DPPC   C3A43903  31.551  35.906   2.910 -0.1426 -0.2908 -0.2879
 1851DPPC   C4A43904  31.314  35.586   2.659 -0.1798  0.1941 -0.0117
 1851DPPC   C1B43905  31.558  35.953   3.664  0.1633 -0.1528  0.3199
 1851DPPC   C2B43906  31.459  35.735   3.341 -0.0073 -0.0590  0.2479
 1851DPPC   C3B43907  31.416  35.395   3.168 -0.1446  0.2475  0.3981
 1851DPPC   C4B43908  31.596  35.066   3.404  0.1506 -0.4299  0.3189
 1852DPPC   NC343909  33.519  19.005  22.672 -0.1293  0.1758 -0.0228
 1852DPPC   PO443910  33.902  19.216  22.824 -0.2589  0.1654 -0.3270
 1852DPPC   GL143911  33.962  19.705  22.814 -0.0866 -0.1325  0.3090
 1852DPPC   GL243912  34.321  19.699  22.796 -0.1452  0.1153  0.1563
 1852DPPC   C1A43913  33.793  20.140  22.944  0.0835  0.0538  0.1655
 1852DPPC   C2A43914  33.463  20.413  23.078 -0.0546 -0.0895 -0.1450
 1852DPPC   C3A43915  33.279  20.786  22.917  0.2050  0.3078  0.1326
 1852DPPC   C4A43916  33.403  21.134  22.827  0.0742  0.6428 -0.0150
 1852DPPC   C1B43917  34.345  19.918  22.464 -0.0002 -0.1287 -0.0283
 1852DPPC   C2B43918  34.121  20.281  22.593  0.1742 -0.0710 -0.0391
 1852DPPC   C3B43919  34.246  20.713  22.577 -0.0531 -0.2719  0.0084
 1852DPPC   C4B43920  34.322  21.058  22.901 -0.4475  0.1401 -0.4303
 1853DPPC   NC343921  20.861  18.133  16.763  0.2518 -0.0851 -0.0097
 1853DPPC   PO443922  21.267  18.044  17.129 -0.1096 -0.0023 -0.1040
 1853DPPC   GL143923  21.098  18.405  17.206 -0.1991  0.1869  0.2963
 1853DPPC   GL243924  20.744  18.613  17.142 -0.3449 -0.0805  0.2630
 1853DPPC   C1A43925  21.130  18.681  17.564 -0.1775 -0.0421  0.3174
 1853DPPC   C2A43926  21.510  19.028  17.699 -0.0173  0.0421 -0.2115
 1853DPPC   C3A43927  21.576  19.220  18.157  0.0611  0.1399  0.1975
 1853DPPC   C4A43928  21.780  19.169  18.372  0.1420  0.1503 -0.0870
 1853DPPC   C1B43929  20.621  18.778  17.423  0.2916 -0.0901  0.1084
 1853DPPC   C2B43930  20.508  19.125  17.652 -0.1561 -0.0124 -0.1282
 1853DPPC   C3B43931  20.181  19.275  17.635 -0.2730 -0.0059  0.3485
 1853DPPC   C4B43932  19.847  19.489  17.554  0.4940 -0.1840  0.4801
 1854DPPC   NC343933  22.030  19.401   4.906  0.2429 -0.0276 -0.1447
 1854DPPC   PO443934  21.661  19.596   4.774  0.2428 -0.2404 -0.3553
 1854DPPC   GL143935  21.958  20.037   4.863  0.0507 -0.1814 -0.1499
 1854DPPC   GL243936  22.048  19.904   4.586  0.0816 -0.2307 -0.1319
 1854DPPC   C1A43937  21.932  20.436   4.627  0.0781 -0.1534  0.2171
 1854DPPC   C2A43938  21.612  20.580   4.333 -0.0825 -0.2666  0.1141
 1854DPPC   C3A43939  21.363  20.696   4.033 -0.1239  0.1339  0.1059
 1854DPPC   C4A43940  20.981  20.708   3.867  0.0596  0.0924 -0.0291
 1854DPPC   C1B43941  22.035  20.200   4.215  0.1392  0.1118 -0.1147
 1854DPPC   C2B43942  21.814  20.428   3.939  0.2384 -0.4392 -0.0550
 1854DPPC   C3B43943  21.940  20.720   3.643  0.0174 -0.3730  0.1626
 1854DPPC   C4B43944  21.984  21.154   3.598 -0.0209 -0.2503 -0.0091
 1855DPPC   NC343945  20.905  22.792  13.769  0.0101 -0.0304  0.3892
 1855DPPC   PO443946  21.128  23.205  13.712  0.3017 -0.4219 -0.0916
 1855DPPC   GL143947  21.168  23.353  14.122  0.4061 -0.0958  0.2625
 1855DPPC   GL243948  21.160  23.670  14.052 -0.2463  0.1255  0.2286
 1855DPPC   C1A43949  21.372  23.381  14.484  0.0167  0.1618  0.1111
 1855DPPC   C2A43950  21.540  23.610  14.901 -0.1980  0.0693  0.1381
 1855DPPC   C3A43951  21.271  23.949  15.106 -0.0287  0.1981  0.0355
 1855DPPC   C4A43952  20.888  24.261  14.958 -0.0411  0.1494 -0.0811
 1855DPPC   C1B43953  21.081  23.960  14.438 -0.2209 -0.1188  0.2672
 1855DPPC   C2B43954  21.381  24.225  14.684 -0.0034 -0.0553  0.2125
 1855DPPC   C3B43955  21.759  24.142  15.017 -0.0532 -0.0872  0.1509
 1855DPPC   C4B43956  22.039  23.787  15.163  0.0811  0.1373  0.1226
 1856DPPC   NC343957  37.102  29.479   2.857 -0.0534  0.1425  0.1049
 1856DPPC   PO443958  37.069  29.338   2.431 -0.2170  0.4862 -0.0663
 1856DPPC   GL143959  36.643  29.471   2.586  0.1327  0.1341 -0.0544
 1856DPPC   GL243960  36.569  29.718   2.851 -0.0489 -0.2548 -0.2066
 1856DPPC   C1A43961  36.413  29.803   2.304  0.3424  0.1597 -0.2205
 1856DPPC   C2A43962  36.025  29.934   2.096  0.1600 -0.1486  0.2305
 1856DPPC   C3A43963  35.791  29.943   1.848  0.0281 -0.0849 -0.0291
 1856DPPC   C4A43964  35.477  29.910   1.462 -0.0627  0.1664 -0.0800
 1856DPPC   C1B43965  36.107  29.557   2.814 -0.1292 -0.4472 -0.1876
 1856DPPC   C2B43966  35.674  29.551   2.797  0.0845  0.0581  0.0351
 1856DPPC   C3B43967  35.245  29.500   2.784  0.1464  0.0696 -0.1734
 1856DPPC   C4B43968  34.956  29.274   2.593  0.1255 -0.2393 -0.1519
 1857DPPC   NC343969  22.028  29.553   8.212 -0.0272  0.0922 -0.2812
 1857DPPC   PO443970  21.860  29.277   7.869 -0.0877 -0.1660  0.1114
 1857DPPC   GL143971  21.780  29.519   7.453 -0.0363  0.3492  0.1643
 1857DPPC   GL243972  21.608  29.330   7.156 -0.2453  0.1587  0.0860
 1857DPPC   C1A43973  21.936  29.758   6.943  0.0585  0.0830  0.0065
 1857DPPC   C2A43974  22.093  29.803   6.500  0.0354 -0.0654  0.2351
 1857DPPC   C3A43975  22.299  29.906   6.154 -0.1193 -0.0992  0.0188
 1857DPPC   C4A43976  22.754  29.887   6.071 -0.0923 -0.1852 -0.1138
 1857DPPC   C1B43977  21.430  29.656   6.829  0.0579  0.1298  0.1063
 1857DPPC   C2B43978  21.603  30.089   6.880  0.0474  0.3135 -0.1877
 1857DPPC   C3B43979  21.825  30.189   6.606 -0.1397 -0.0698  0.0219
 1857DPPC   C4B43980  21.823  30.042   6.135 -0.2107 -0.3353  0.1062
 1858DPPC   NC343981  13.843  24.174  20.142 -0.0318  0.0258  0.0752
 1858DPPC   PO443982  13.780  23.956  20.566  0.0939 -0.3155  0.0667
 1858DPPC   GL143983  14.143  24.167  20.545 -0.3994  0.0548 -0.2923
 1858DPPC   GL243984  14.518  23.919  20.595  0.0710  0.1009  0.2392
 1858DPPC   C1A43985  14.517  24.452  20.497 -0.2488 -0.0197  0.1964
 1858DPPC   C2A43986  14.700  24.925  20.577 -0.4178  0.1070 -0.0164
 1858DPPC   C3A43987  14.822  25.351  20.704 -0.0748  0.0476  0.0356
 1858DPPC   C4A43988  15.042  25.655  20.744  0.1139  0.0429  0.0277
 1858DPPC   C1B43989  14.788  23.693  20.379 -0.1600  0.1909 -0.4659
 1858DPPC   C2B43990  14.994  23.380  20.451 -0.0807 -0.2360 -0.3580
 1858DPPC   C3B43991  15.307  23.056  20.479 -0.2006  0.0858 -0.0460
 1858DPPC   C4B43992  15.286  22.659  20.081  0.5127 -0.1265 -0.0356
 1859DPPC   NC343993  36.448  38.367  17.696  0.0073  0.1216 -0.0489
 1859DPPC   PO443994  36.001  38.334  17.465 -0.3145 -0.0744 -0.0122
 1859DPPC   GL143995  35.675  38.183  17.747  0.2883  0.0523  0.0440
 1859DPPC   GL243996  35.888  38.058  17.994  0.1645  0.4763  0.0063
 1859DPPC   C1A43997  35.210  38.133  17.775  0.0420  0.3883  0.1467
 1859DPPC   C2A43998  34.890  37.913  17.768 -0.1539  0.2491 -0.1046
 1859DPPC   C3A43999  34.626  37.476  17.926  0.1140 -0.1464 -0.0113
 1859DPPC   C4A44000  34.471  37.136  18.067  0.3197  0.1861  0.0919
 1859DPPC   C1B44001  35.508  37.730  17.921 -0.2021 -0.0313 -0.0391
 1859DPPC   C2B44002  35.176  37.483  18.148 -0.0051  0.0383 -0.0442
 1859DPPC   C3B44003  34.847  37.275  18.387 -0.5001  0.0564 -0.1810
 1859DPPC   C4B44004  34.605  37.044  18.573 -0.0924 -0.2819  0.1826
 1860DPPC   NC344005  26.214  38.529   4.052 -0.1825  0.0077 -0.0272
 1860DPPC   PO444006  26.677  38.488   3.976  0.1183  0.1313  0.2827
 1860DPPC   GL144007  26.619  38.271   3.511  0.2133 -0.3083  0.0282
 1860DPPC   GL244008  26.585  38.519   3.134 -0.2298 -0.3004 -0.2788
 1860DPPC   C1A44009  26.776  38.024   3.334 -0.2937  0.3044 -0.0114
 1860DPPC   C2A44010  26.650  37.587   3.362  0.0156 -0.0596  0.2186
 1860DPPC   C3A44011  26.530  37.150   3.322 -0.0616  0.1133 -0.0397
 1860DPPC   C4A44012  26.756  36.850   3.645  0.1144  0.1485 -0.1418
 1860DPPC   C1B44013  26.433  38.342   2.790 -0.1603 -0.0585 -0.1102
 1860DPPC   C2B44014  26.382  38.007   2.515  0.2629  0.0808 -0.3170
 1860DPPC   C3B44015  26.145  37.668   2.383  0.1850  0.3365 -0.0155
 1860DPPC   C4B44016  26.123  37.195   2.347  0.1141  0.0910 -0.4049
 1861DPPC   NC344017  22.658  30.055   0.019  0.1980  0.1338 -0.0488
 1861DPPC   PO444018  22.154  30.250   0.132 -0.1203  0.3568  0.1479
 1861DPPC   GL144019  21.855  30.152  26.817  0.1619 -0.3960 -0.2463
 1861DPPC   GL244020  21.636  30.329  26.913  0.1718  0.2886 -0.0258
 1861DPPC   C1A44021  21.699  29.775  26.804 -0.3123  0.1152 -0.0383
 1861DPPC   C2A44022  21.648  29.333  26.897  0.2902  0.1534  0.1519
 1861DPPC   C3A44023  21.755  28.829  26.780  0.0244  0.1989 -0.1377
 1861DPPC   C4A44024  21.764  28.475  26.871  0.1728  0.2629  0.3376
 1861DPPC   C1B44025  21.220  30.339   0.163 -0.2781  0.3160 -0.1390
 1861DPPC   C2B44026  20.822  30.054   0.026 -0.0805 -0.0299  0.1321
 1861DPPC   C3B44027  20.848  29.784  26.470  0.0476  0.0055 -0.0281
 1861DPPC   C4B44028  21.031  29.812  26.165 -0.1038 -0.2357 -0.3010
 1862DPPC   NC344029  14.937  31.289  25.296  0.1566 -0.1993  0.1398
 1862DPPC   PO444030  15.332  31.513  25.150  0.0333 -0.0448  0.0027
 1862DPPC   GL144031  15.643  31.298  25.365 -0.0437  0.3184  0.1540
 1862DPPC   GL244032  15.675  31.413  25.698  0.0476  0.0226  0.2024
 1862DPPC   C1A44033  16.018  31.116  25.388  0.0949  0.0962 -0.2529
 1862DPPC   C2A44034  16.298  31.111  25.708 -0.1388 -0.0211  0.0914
 1862DPPC   C3A44035  16.765  30.954  25.738 -0.0641 -0.1746  0.3763
 1862DPPC   C4A44036  17.033  30.671  25.913  0.0898  0.2471  0.0182
 1862DPPC   C1B44037  15.892  31.344  26.106  0.0267  0.1469  0.2036
 1862DPPC   C2B44038  15.997  31.010  26.359  0.3380  0.0627  0.5095
 1862DPPC   C3B44039  15.784  30.686  26.300 -0.0042 -0.2964  0.1678
 1862DPPC   C4B44040  15.744  30.451  26.006  0.2099 -0.0261  0.0417
 1863DPPC   NC344041  28.685  24.189  26.410  0.0517  0.2160 -0.0897
 1863DPPC   PO444042  28.708  24.552  26.671  0.1388 -0.0804 -0.3590
 1863DPPC   GL144043  28.307  24.212  26.840  0.1189  0.0204  0.0206
 1863DPPC   GL244044  28.157  24.135  26.603 -0.1931 -0.0325 -0.1948
 1863DPPC   C1A44045  28.327  23.826   0.309  0.2321  0.1577 -0.0458
 1863DPPC   C2A44046  28.632  23.403   0.396 -0.2886  0.0792  0.1218
 1863DPPC   C3A44047  28.636  23.087   0.730  0.1236  0.0651  0.0459
 1863DPPC   C4A44048  28.853  22.751   0.505 -0.0491 -0.0225  0.0109
 1863DPPC   C1B44049  27.979  23.750  26.851 -0.3108  0.1482 -0.3204
 1863DPPC   C2B44050  27.777  23.352   0.060 -0.0305  0.3549  0.1068
 1863DPPC   C3B44051  27.885  22.909  26.906 -0.1065  0.1611  0.0283
 1863DPPC   C4B44052  28.332  22.785  26.782  0.3113  0.1029  0.0963
 1864DPPC   NC344053  13.661  24.705  26.210  0.2134  0.1363  0.2028
 1864DPPC   PO444054  13.550  24.526  25.710 -0.1472  0.1301 -0.0833
 1864DPPC   GL144055  13.796  24.618  25.293  0.0589 -0.1354  0.1738
 1864DPPC   GL244056  13.759  24.897  24.999 -0.0225 -0.2503  0.1168
 1864DPPC   C1A44057  14.217  24.797  25.249  0.1406  0.0449  0.0336
 1864DPPC   C2A44058  14.566  24.841  24.956 -0.3155  0.2035 -0.0836
 1864DPPC   C3A44059  14.924  25.184  24.829  0.2524 -0.1367  0.1357
 1864DPPC   C4A44060  15.337  24.976  24.841  0.1492 -0.0816  0.0977
 1864DPPC   C1B44061  14.089  25.077  24.797 -0.1698  0.2245  0.2505
 1864DPPC   C2B44062  14.438  25.306  24.632 -0.2683  0.0136  0.0200
 1864DPPC   C3B44063  14.580  25.582  24.929  0.1124 -0.1233 -0.0417
 1864DPPC   C4B44064  14.947  25.566  25.182 -0.1117 -0.0761 -0.0157
 1865DPPC   NC344065  22.499  16.103  26.477 -0.0062  0.0233  0.2075
 1865DPPC   PO444066  22.706  16.307  26.164  0.0236  0.1498  0.0341
 1865DPPC   GL144067  22.755  16.728  26.413 -0.2833 -0.0212  0.1081
 1865DPPC   GL244068  22.517  16.857  26.665 -0.1436 -0.3975  0.0963
 1865DPPC   C1A44069  23.085  17.021  26.413 -0.2290  0.0169  0.0325
 1865DPPC   C2A44070  23.230  17.367  26.265 -0.0330  0.1946  0.1743
 1865DPPC   C3A44071  23.253  17.493  25.873 -0.5569 -0.2535 -0.2580
 1865DPPC   C4A44072  23.300  17.563  25.462  0.4185  0.1144 -0.1593
 1865DPPC   C1B44073  22.652  17.272  26.501  0.0185 -0.1806 -0.0203
 1865DPPC   C2B44074  22.961  17.544  26.803  0.1354 -0.0083  0.2111
 1865DPPC   C3B44075  23.153  17.619   0.250  0.0484 -0.2561  0.0247
 1865DPPC   C4B44076  23.264  17.921   0.549 -0.0666 -0.1556 -0.3024
 1866DPPC   NC344077  17.825  31.245   4.546 -0.3552 -0.3681 -0.1854
 1866DPPC   PO444078  17.646  30.836   4.523  0.2394 -0.1644 -0.0146
 1866DPPC   GL144079  17.809  30.661   4.210  0.1446  0.1774 -0.1040
 1866DPPC   GL244080  17.837  30.328   4.159 -0.1176 -0.2023 -0.0194
 1866DPPC   C1A44081  18.285  30.325   4.201  0.0834  0.4348 -0.2120
 1866DPPC   C2A44082  18.349  30.005   3.953  0.0961  0.1749  0.4343
 1866DPPC   C3A44083  18.627  29.705   3.714 -0.2699 -0.0430  0.1637
 1866DPPC   C4A44084  18.908  29.658   3.404 -0.0424  0.2721  0.3583
 1866DPPC   C1B44085  17.595  30.228   3.743 -0.1145 -0.0055  0.3450
 1866DPPC   C2B44086  17.811  30.249   3.283  0.1202  0.1249 -0.2289
 1866DPPC   C3B44087  18.166  30.210   2.917  0.2685 -0.0542  0.0638
 1866DPPC   C4B44088  18.282  30.180   2.417 -0.1798 -0.2664  0.1071
 1867DPPC   NC344089  18.851  21.278   3.582 -0.0375 -0.0385  0.2286
 1867DPPC   PO444090  19.075  21.690   3.685 -0.0363  0.1448 -0.0326
 1867DPPC   GL144091  19.251  22.025   3.747 -0.1736  0.2411  0.0575
 1867DPPC   GL244092  19.237  22.157   4.052 -0.0912  0.1067 -0.0073
 1867DPPC   C1A44093  19.514  22.266   3.527 -0.4085 -0.3589 -0.0056
 1867DPPC   C2A44094  19.697  22.236   3.243  0.0280 -0.0815 -0.1130
 1867DPPC   C3A44095  19.945  22.128   3.009  0.0432  0.2396 -0.0763
 1867DPPC   C4A44096  20.398  22.029   2.917  0.0416  0.1186  0.3626
 1867DPPC   C1B44097  19.230  22.663   3.906  0.0089  0.2809  0.0230
 1867DPPC   C2B44098  19.083  23.006   3.553 -0.0465  0.3760 -0.3424
 1867DPPC   C3B44099  18.889  23.137   3.211  0.2394 -0.0357 -0.0935
 1867DPPC   C4B44100  19.109  23.337   2.837 -0.2010 -0.3653 -0.4608
 1868DPPC   NC344101  21.277  21.165   5.869  0.1644  0.0475 -0.1273
 1868DPPC   PO444102  21.716  21.368   5.957 -0.2356  0.0470 -0.3058
 1868DPPC   GL144103  21.856  21.785   5.786  0.1610  0.0928 -0.2233
 1868DPPC   GL244104  21.563  21.986   5.581  0.1494  0.1524  0.1113
 1868DPPC   C1A44105  22.305  21.798   5.435  0.2300 -0.4507 -0.3321
 1868DPPC   C2A44106  22.695  21.916   5.245 -0.1207  0.2230 -0.0354
 1868DPPC   C3A44107  23.086  21.826   5.305 -0.1041  0.0349  0.0449
 1868DPPC   C4A44108  23.440  22.173   5.060  0.1372  0.1262 -0.1601
 1868DPPC   C1B44109  21.753  22.170   5.302  0.1414  0.1121 -0.0685
 1868DPPC   C2B44110  21.963  22.413   5.180 -0.1941  0.0277 -0.0691
 1868DPPC   C3B44111  22.063  22.743   4.867 -0.1307 -0.1886  0.2827
 1868DPPC   C4B44112  22.245  23.206   4.902 -0.1141  0.1286  0.0947
 1869DPPC   NC344113  28.625  17.894   2.911  0.1472 -0.1560 -0.3154
 1869DPPC   PO444114  28.684  18.276   3.108 -0.0098  0.1047  0.0618
 1869DPPC   GL144115  28.630  18.757   2.882  0.3880  0.1686 -0.0947
 1869DPPC   GL244116  28.347  18.944   2.669 -0.0030 -0.0920 -0.5178
 1869DPPC   C1A44117  28.762  19.240   2.859  0.0094 -0.1995  0.0976
 1869DPPC   C2A44118  28.518  19.492   2.590  0.1604 -0.1018  0.0235
 1869DPPC   C3A44119  28.439  19.424   2.074 -0.2306 -0.1177  0.0352
 1869DPPC   C4A44120  28.354  19.694   1.790  0.2170 -0.0056 -0.0663
 1869DPPC   C1B44121  28.714  19.083   2.368 -0.2277 -0.3592 -0.1514
 1869DPPC   C2B44122  29.035  19.226   2.264 -0.0291  0.2564  0.1733
 1869DPPC   C3B44123  29.275  19.665   2.285  0.1049 -0.0257  0.3440
 1869DPPC   C4B44124  29.479  19.956   2.404  0.1533 -0.5032  0.0528
 1870DPPC   NC344125  20.398  31.570  11.648 -0.3757 -0.1159 -0.0100
 1870DPPC   PO444126  20.760  31.672  11.335 -0.2695 -0.1709  0.0498
 1870DPPC   GL144127  20.879  31.499  11.780  0.0003  0.0983 -0.1101
 1870DPPC   GL244128  20.702  31.654  12.037 -0.2135  0.0750 -0.4689
 1870DPPC   C1A44129  21.129  31.580  12.200  0.0531 -0.1543 -0.1266
 1870DPPC   C2A44130  21.436  31.356  12.409  0.3087  0.1574 -0.1952
 1870DPPC   C3A44131  21.800  31.214  12.638 -0.2155 -0.0978 -0.2464
 1870DPPC   C4A44132  22.181  31.139  12.478 -0.2547  0.1140 -0.3593
 1870DPPC   C1B44133  20.640  31.461  12.384  0.0055 -0.0972  0.0604
 1870DPPC   C2B44134  20.869  31.322  12.654  0.0506 -0.2961 -0.0247
 1870DPPC   C3B44135  21.090  31.023  12.865  0.1872 -0.0411  0.2692
 1870DPPC   C4B44136  21.251  30.674  13.059  0.2101 -0.2061 -0.0554
 1871DPPC   NC344137  19.133  34.392   2.697 -0.0750 -0.0042 -0.2381
 1871DPPC   PO444138  19.546  34.379   2.826  0.0275 -0.0489 -0.0261
 1871DPPC   GL144139  19.981  34.270   3.020 -0.3348 -0.0870 -0.0920
 1871DPPC   GL244140  20.145  34.379   3.251 -0.0460 -0.1125  0.1302
 1871DPPC   C1A44141  20.402  34.136   2.845 -0.1819  0.0029  0.1817
 1871DPPC   C2A44142  20.673  33.876   2.759 -0.0394 -0.2088  0.0487
 1871DPPC   C3A44143  20.841  33.516   2.562 -0.1116 -0.1694 -0.2383
 1871DPPC   C4A44144  20.796  33.329   2.111 -0.3085  0.0426 -0.1076
 1871DPPC   C1B44145  20.427  34.223   3.458 -0.1925 -0.1227  0.1834
 1871DPPC   C2B44146  20.621  33.873   3.293 -0.1086  0.0961 -0.1588
 1871DPPC   C3B44147  20.620  33.476   3.141  0.0146  0.0136  0.1462
 1871DPPC   C4B44148  20.371  33.428   2.838  0.1433 -0.0057 -0.3752
 1872DPPC   NC344149  26.974  15.957   0.634  0.3910 -0.2263  0.0421
 1872DPPC   PO444150  26.545  16.124   0.545  0.0593 -0.2846 -0.2748
 1872DPPC   GL144151  26.497  16.583   0.387 -0.0032 -0.2125  0.1777
 1872DPPC   GL244152  26.507  16.578   0.073 -0.4792 -0.0359  0.1113
 1872DPPC   C1A44153  26.749  16.969   0.583  0.1708  0.1034 -0.2942
 1872DPPC   C2A44154  26.674  17.381   0.583 -0.0151  0.1044 -0.3072
 1872DPPC   C3A44155  26.827  17.725   0.379 -0.0362  0.4296 -0.1191
 1872DPPC   C4A44156  27.123  17.880   0.106  0.1347 -0.0361 -0.1371
 1872DPPC   C1B44157  26.135  16.822   0.101 -0.1801 -0.2689 -0.1675
 1872DPPC   C2B44158  25.819  17.178   0.342 -0.1601 -0.2528  0.1906
 1872DPPC   C3B44159  25.855  17.562   0.442 -0.1985  0.0018 -0.2472
 1872DPPC   C4B44160  25.833  17.858   0.868 -0.1638  0.1755  0.0117
 1873DPPC   NC344161  29.814  40.057  15.572  0.1492  0.0250 -0.1201
 1873DPPC   PO444162  29.712  40.218  15.955  0.0489 -0.0111  0.0380
 1873DPPC   GL144163  29.775  39.841  16.149  0.1163  0.1002  0.0526
 1873DPPC   GL244164  29.937  39.640  15.974 -0.0508 -0.1981  0.0969
 1873DPPC   C1A44165  29.712  39.644  16.474  0.2688 -0.3137 -0.0384
 1873DPPC   C2A44166  29.475  39.755  16.758 -0.0570  0.1714  0.0751
 1873DPPC   C3A44167  29.207  39.486  16.823 -0.0148 -0.1017 -0.0307
 1873DPPC   C4A44168  29.042  39.288  17.137  0.1064  0.2973 -0.0100
 1873DPPC   C1B44169  29.681  39.238  16.048  0.0646  0.1735  0.1380
 1873DPPC   C2B44170  29.612  38.864  16.341 -0.0994  0.2400 -0.0175
 1873DPPC   C3B44171  29.400  38.486  16.566  0.2105  0.0512 -0.1572
 1873DPPC   C4B44172  29.203  38.204  16.771  0.0504  0.3024 -0.1727
 1874DPPC   NC344173  24.199  30.855   6.581 -0.0103  0.1709 -0.0552
 1874DPPC   PO444174  23.847  31.102   6.727  0.2149 -0.2417  0.1105
 1874DPPC   GL144175  23.716  30.707   6.458 -0.0609 -0.1730 -0.1423
 1874DPPC   GL244176  23.437  30.529   6.486  0.0911 -0.1177 -0.4141
 1874DPPC   C1A44177  23.823  30.560   6.065  0.0823  0.2793 -0.0112
 1874DPPC   C2A44178  23.579  30.576   5.589  0.0979  0.0184 -0.1783
 1874DPPC   C3A44179  23.566  30.599   5.195  0.1787  0.1711 -0.1744
 1874DPPC   C4A44180  23.375  30.416   4.781 -0.0813  0.0601  0.1768
 1874DPPC   C1B44181  23.440  30.281   6.131 -0.2047  0.0759 -0.3182
 1874DPPC   C2B44182  23.325  30.197   5.800  0.0442 -0.1874 -0.1831
 1874DPPC   C3B44183  22.957  29.915   5.553 -0.2369 -0.0391  0.2548
 1874DPPC   C4B44184  22.734  29.724   5.178  0.1225 -0.0219 -0.0202
 1875DPPC   NC344185  23.032  20.759  14.082  0.2463  0.1336  0.0793
 1875DPPC   PO444186  22.890  21.109  14.227 -0.3773 -0.0319  0.1575
 1875DPPC   GL144187  23.293  21.215  14.461  0.2569 -0.0706 -0.0229
 1875DPPC   GL244188  23.484  21.134  14.306  0.0214 -0.1039 -0.0511
 1875DPPC   C1A44189  23.556  21.370  14.882 -0.0364  0.2522 -0.0312
 1875DPPC   C2A44190  23.857  21.379  14.960 -0.0749  0.0115 -0.2174
 1875DPPC   C3A44191  24.087  21.216  15.276 -0.2252  0.2544  0.0580
 1875DPPC   C4A44192  24.492  21.043  15.604 -0.0590  0.2981 -0.0027
 1875DPPC   C1B44193  23.876  21.211  14.451  0.1183  0.0646  0.0136
 1875DPPC   C2B44194  24.186  21.539  14.599 -0.0436 -0.0112 -0.1184
 1875DPPC   C3B44195  24.347  21.895  14.829 -0.3626 -0.1987 -0.1410
 1875DPPC   C4B44196  24.603  22.016  15.148  0.1523 -0.1593  0.2059
 1876DPPC   NC344197  15.916  32.312   0.251  0.0878 -0.0199 -0.2344
 1876DPPC   PO444198  16.099  32.312   0.738  0.0420  0.2143 -0.1691
 1876DPPC   GL144199  16.233  31.940   0.388 -0.1465 -0.0599  0.1018
 1876DPPC   GL244200  16.579  32.016   0.439 -0.0968 -0.0493 -0.0600
 1876DPPC   C1A44201  16.085  31.568   0.245 -0.2289  0.0916 -0.0024
 1876DPPC   C2A44202  15.881  31.155   0.385  0.3605 -0.2399 -0.0653
 1876DPPC   C3A44203  16.147  30.851   0.361 -0.1353 -0.0381  0.0476
 1876DPPC   C4A44204  16.434  30.546   0.594 -0.1056 -0.1007 -0.2704
 1876DPPC   C1B44205  17.039  31.969   0.190  0.0357  0.0176  0.2296
 1876DPPC   C2B44206  17.445  31.880   0.167 -0.5864 -0.2380 -0.1600
 1876DPPC   C3B44207  17.803  31.809   0.437  0.1838 -0.0805  0.2114
 1876DPPC   C4B44208  18.030  32.008   0.719  0.0892 -0.0082 -0.0163
 1877DPPC   NC344209  17.847  32.622  13.770 -0.1343  0.1691  0.1736
 1877DPPC   PO444210  18.279  32.614  13.868  0.1205  0.0934  0.2219
 1877DPPC   GL144211  18.544  32.616  14.252  0.0599 -0.3617 -0.1023
 1877DPPC   GL244212  18.385  32.738  14.550 -0.3673 -0.0884 -0.0604
 1877DPPC   C1A44213  18.879  32.635  14.606 -0.0209 -0.1920  0.3193
 1877DPPC   C2A44214  19.201  32.856  14.918  0.1443 -0.2526  0.1552
 1877DPPC   C3A44215  19.207  33.275  15.123 -0.4195 -0.1413 -0.0086
 1877DPPC   C4A44216  19.472  33.579  15.406  0.0266  0.2680  0.1684
 1877DPPC   C1B44217  18.503  32.474  14.813  0.1185 -0.0302 -0.0042
 1877DPPC   C2B44218  18.902  32.345  15.023 -0.1853 -0.0349 -0.2816
 1877DPPC   C3B44219  19.213  32.425  15.295 -0.0692  0.0487 -0.0325
 1877DPPC   C4B44220  19.611  32.634  15.181 -0.0557  0.1468  0.1607
 1878DPPC   NC344221  27.411  23.154   7.584  0.0883  0.1637 -0.1478
 1878DPPC   PO444222  27.214  22.734   7.719 -0.1113 -0.3325  0.1925
 1878DPPC   GL144223  27.045  22.560   7.389  0.3150  0.0517 -0.0318
 1878DPPC   GL244224  26.773  22.456   7.504 -0.0930  0.1021 -0.1339
 1878DPPC   C1A44225  27.033  22.628   6.909 -0.1923 -0.2004 -0.0243
 1878DPPC   C2A44226  26.877  22.860   6.496 -0.0346  0.3100  0.1766
 1878DPPC   C3A44227  26.623  22.965   6.113  0.1068  0.2925  0.3812
 1878DPPC   C4A44228  26.502  23.276   5.796  0.1661  0.2133 -0.0137
 1878DPPC   C1B44229  26.550  22.824   7.364  0.4009 -0.3298  0.1309
 1878DPPC   C2B44230  26.576  22.943   6.902  0.0472 -0.0419  0.0987
 1878DPPC   C3B44231  26.669  23.278   6.649 -0.0007  0.1560  0.0100
 1878DPPC   C4B44232  26.500  23.539   6.328 -0.0892 -0.0467 -0.0367
 1879DPPC   NC344233  20.454  15.671  23.429  0.1443  0.0376 -0.3203
 1879DPPC   PO444234  20.607  15.906  23.757  0.0678  0.0610  0.1848
 1879DPPC   GL144235  20.808  16.362  23.605  0.0667 -0.0981  0.3334
 1879DPPC   GL244236  21.064  16.298  23.654  0.1510 -0.1837  0.0224
 1879DPPC   C1A44237  20.823  16.412  23.114  0.1535  0.0104  0.2710
 1879DPPC   C2A44238  20.848  16.717  22.755 -0.3973  0.1624 -0.0796
 1879DPPC   C3A44239  20.908  17.175  22.819 -0.1614 -0.0849  0.1243
 1879DPPC   C4A44240  21.076  17.463  23.168 -0.0525 -0.0491 -0.0253
 1879DPPC   C1B44241  21.282  16.594  23.328  0.2569 -0.1996  0.1556
 1879DPPC   C2B44242  21.386  16.885  23.078  0.2082 -0.2563 -0.0875
 1879DPPC   C3B44243  21.499  17.330  22.923  0.2688  0.0774 -0.0750
 1879DPPC   C4B44244  21.786  17.687  22.735 -0.5112  0.2502 -0.1909
 1880DPPC   NC344245  22.562  18.721  16.588  0.1227  0.0041  0.1938
 1880DPPC   PO444246  22.140  18.809  16.412 -0.1488 -0.0728  0.1842
 1880DPPC   GL144247  22.107  19.193  16.687  0.1512 -0.4565  0.1166
 1880DPPC   GL244248  21.837  19.328  16.825  0.0246 -0.1069 -0.1633
 1880DPPC   C1A44249  22.274  19.282  17.000  0.1893  0.1619  0.1621
 1880DPPC   C2A44250  22.549  19.245  17.426  0.1298 -0.3510 -0.2355
 1880DPPC   C3A44251  22.895  18.963  17.564  0.0666  0.2179  0.2102
 1880DPPC   C4A44252  23.216  18.640  17.874  0.2336  0.2107  0.0922
 1880DPPC   C1B44253  21.753  19.763  16.888  0.1304 -0.0492 -0.1407
 1880DPPC   C2B44254  21.512  20.052  16.799  0.0682  0.0826 -0.0908
 1880DPPC   C3B44255  21.498  20.431  16.932 -0.0138 -0.0480  0.1198
 1880DPPC   C4B44256  21.201  20.785  17.142  0.1188  0.0284 -0.0494
 1881DPPC   NC344257  24.991  32.530   7.015 -0.2764 -0.0568  0.0796
 1881DPPC   PO444258  25.193  32.259   6.732 -0.1565 -0.2450 -0.3925
 1881DPPC   GL144259  25.421  31.933   6.438  0.0074 -0.0946 -0.1991
 1881DPPC   GL244260  25.561  31.750   6.542  0.1124 -0.3842 -0.0200
 1881DPPC   C1A44261  25.469  31.620   6.092 -0.0231 -0.0940 -0.0298
 1881DPPC   C2A44262  25.645  31.724   5.684  0.1083 -0.0795 -0.1585
 1881DPPC   C3A44263  25.642  31.670   5.237 -0.3616 -0.1722 -0.1348
 1881DPPC   C4A44264  25.601  31.510   4.854  0.1030  0.3506 -0.0475
 1881DPPC   C1B44265  25.901  31.751   6.276  0.1482 -0.1978 -0.0372
 1881DPPC   C2B44266  26.208  31.664   5.980 -0.0389 -0.0666 -0.0620
 1881DPPC   C3B44267  26.454  31.856   5.560 -0.0885 -0.3992 -0.1230
 1881DPPC   C4B44268  26.682  32.176   5.408  0.1182 -0.0169  0.1713
 1882DPPC   NC344269  38.622  26.448  17.354 -0.3176  0.1731  0.0737
 1882DPPC   PO444270  38.864  26.761  17.136 -0.0709  0.4966 -0.0687
 1882DPPC   GL144271  38.593  26.980  17.484  0.1786 -0.0081  0.0253
 1882DPPC   GL244272  38.438  26.793  17.634  0.0395 -0.3509  0.2973
 1882DPPC   C1A44273  38.260  27.351  17.515  0.2452  0.2962  0.0430
 1882DPPC   C2A44274  37.990  27.560  17.662 -0.1220  0.1462  0.0101
 1882DPPC   C3A44275  37.804  27.389  17.953  0.0629 -0.1323 -0.1389
 1882DPPC   C4A44276  37.459  27.233  18.241  0.0446  0.0605 -0.1593
 1882DPPC   C1B44277  38.058  26.992  17.835 -0.0554  0.0129 -0.1491
 1882DPPC   C2B44278  37.618  26.902  17.861  0.0514 -0.2937  0.0793
 1882DPPC   C3B44279  37.210  26.826  17.811  0.1338 -0.3015  0.4230
 1882DPPC   C4B44280  36.834  26.814  18.037  0.0097  0.0089  0.0506
 1883DPPC   NC344281  40.289  28.853  23.567 -0.0264  0.1810  0.2195
 1883DPPC   PO444282  39.878  28.861  23.288 -0.0657 -0.2862 -0.1826
 1883DPPC   GL144283  39.579  29.163  23.488 -0.3481 -0.0377  0.3027
 1883DPPC   GL244284  39.520  29.157  23.770 -0.0649 -0.0330  0.2255
 1883DPPC   C1A44285  39.297  29.509  23.549  0.1847  0.4173 -0.0158
 1883DPPC   C2A44286  38.914  29.719  23.710  0.0981 -0.4113  0.0238
 1883DPPC   C3A44287  38.456  29.877  23.606 -0.0325 -0.1021  0.0499
 1883DPPC   C4A44288  38.164  29.796  23.349  0.0661 -0.1735 -0.0195
 1883DPPC   C1B44289  39.047  28.981  23.549  0.1362 -0.1380 -0.0912
 1883DPPC   C2B44290  38.919  29.059  23.133 -0.0426 -0.2001  0.0482
 1883DPPC   C3B44291  38.627  29.131  22.834 -0.1670  0.1557 -0.0788
 1883DPPC   C4B44292  38.314  29.406  22.996  0.1554 -0.4168 -0.1317
 1884DPPC   NC344293  16.249  25.009  16.294  0.1230 -0.0001  0.3649
 1884DPPC   PO444294  16.289  24.623  16.471 -0.0427 -0.1384 -0.4732
 1884DPPC   GL144295  16.538  24.167  16.703 -0.2186  0.1620  0.1209
 1884DPPC   GL244296  16.577  24.252  17.052 -0.1337  0.0079 -0.1337
 1884DPPC   C1A44297  16.674  23.743  16.884  0.0309  0.0822 -0.1027
 1884DPPC   C2A44298  16.787  23.487  17.250  0.0781  0.4647 -0.1009
 1884DPPC   C3A44299  16.695  22.985  17.326  0.4992  0.1966  0.4290
 1884DPPC   C4A44300  16.697  22.644  17.063 -0.0945  0.2384  0.2214
 1884DPPC   C1B44301  16.538  24.545  17.334 -0.0358 -0.1645  0.4158
 1884DPPC   C2B44302  16.159  24.692  17.583 -0.3141  0.1816  0.1068
 1884DPPC   C3B44303  15.863  24.768  17.810 -0.1334  0.0111  0.0675
 1884DPPC   C4B44304  15.435  24.792  18.127 -0.1451 -0.0263 -0.1530
 1885DPPC   NC344305  16.902  29.891   4.592 -0.0162  0.2972 -0.0393
 1885DPPC   PO444306  16.509  30.095   4.242  0.4221  0.1291  0.2078
 1885DPPC   GL144307  16.713  30.051   3.812  0.0662 -0.3064 -0.0879
 1885DPPC   GL244308  16.463  30.152   3.551  0.0415  0.0131  0.0935
 1885DPPC   C1A44309  17.168  29.881   3.807  0.0619 -0.0143  0.1465
 1885DPPC   C2A44310  17.565  29.657   3.750  0.3668  0.2526  0.0981
 1885DPPC   C3A44311  17.833  29.435   3.631  0.1016  0.4047 -0.0900
 1885DPPC   C4A44312  17.847  29.124   3.349  0.1491  0.1376  0.0443
 1885DPPC   C1B44313  16.617  29.936   3.245 -0.2391  0.0931  0.4166
 1885DPPC   C2B44314  16.963  29.624   3.227  0.1697  0.1187  0.1141
 1885DPPC   C3B44315  16.999  29.238   2.965  0.1272  0.1430 -0.1895
 1885DPPC   C4B44316  17.265  29.002   2.669  0.3286  0.0185  0.2886
 1886DPPC   NC344317  25.572  21.745  19.413 -0.2162 -0.0847 -0.1764
 1886DPPC   PO444318  25.315  22.056  19.578  0.1230 -0.0395  0.2298
 1886DPPC   GL144319  24.772  22.052  19.469  0.0163 -0.1165 -0.1842
 1886DPPC   GL244320  24.665  21.744  19.470  0.0220 -0.2434  0.0250
 1886DPPC   C1A44321  24.345  22.186  19.632 -0.0428  0.0582 -0.2215
 1886DPPC   C2A44322  23.879  22.232  19.864 -0.1404 -0.2778 -0.0542
 1886DPPC   C3A44323  23.611  21.938  20.048  0.0427  0.1981  0.0547
 1886DPPC   C4A44324  23.120  22.129  20.140 -0.2836 -0.0137  0.2777
 1886DPPC   C1B44325  24.367  21.699  19.572  0.0149 -0.1240  0.3073
 1886DPPC   C2B44326  23.954  21.761  19.588 -0.2126 -0.1340 -0.1903
 1886DPPC   C3B44327  23.587  21.576  19.623 -0.1006 -0.2245 -0.1706
 1886DPPC   C4B44328  23.236  21.351  19.673  0.0118  0.3278  0.2486
 1887DPPC   NC344329  21.501  27.943  20.486  0.0766  0.0386 -0.0364
 1887DPPC   PO444330  21.728  27.747  20.088 -0.3192  0.2440  0.0786
 1887DPPC   GL144331  21.333  27.513  20.282  0.0160  0.0836 -0.0267
 1887DPPC   GL244332  21.191  27.208  20.283 -0.0188 -0.0740 -0.0336
 1887DPPC   C1A44333  20.861  27.580  20.365  0.2906 -0.1504  0.2679
 1887DPPC   C2A44334  20.512  27.698  20.433 -0.3025  0.2187  0.3036
 1887DPPC   C3A44335  20.217  27.657  20.239 -0.0739 -0.0683 -0.0374
 1887DPPC   C4A44336  20.076  27.230  20.091 -0.2830  0.1754  0.2019
 1887DPPC   C1B44337  21.075  26.755  20.463  0.1319 -0.0602 -0.0888
 1887DPPC   C2B44338  20.735  26.561  20.580  0.0064 -0.3648 -0.0175
 1887DPPC   C3B44339  20.346  26.867  20.482  0.1194 -0.0946  0.2494
 1887DPPC   C4B44340  20.004  27.075  20.570 -0.2435  0.2355  0.2462
 1888DPPC   NC344341  25.340  16.211   2.783  0.0319  0.0208  0.0220
 1888DPPC   PO444342  25.037  16.628   2.799 -0.2824 -0.0240 -0.4594
 1888DPPC   GL144343  24.971  16.927   2.468 -0.1897  0.2776  0.2005
 1888DPPC   GL244344  24.864  17.293   2.472  0.1713  0.2928 -0.0720
 1888DPPC   C1A44345  25.032  17.112   2.066 -0.2654  0.1813  0.0651
 1888DPPC   C2A44346  25.044  17.300   1.607  0.0022 -0.1132  0.0669
 1888DPPC   C3A44347  25.411  17.429   1.340 -0.1455 -0.3127 -0.1515
 1888DPPC   C4A44348  25.837  17.366   1.285 -0.0315  0.1119  0.1844
 1888DPPC   C1B44349  25.337  17.282   2.531 -0.3064  0.0224 -0.3642
 1888DPPC   C2B44350  25.627  17.546   2.510 -0.1399 -0.0647 -0.3265
 1888DPPC   C3B44351  25.587  17.917   2.375  0.0762 -0.1010 -0.0180
 1888DPPC   C4B44352  25.535  18.323   2.264 -0.1363 -0.0083  0.1309
 1889DPPC   NC344353  39.773  34.373  20.187 -0.1215  0.0266  0.1876
 1889DPPC   PO444354  39.279  34.427  20.379  0.1672  0.0682  0.0000
 1889DPPC   GL144355  38.845  34.267  20.490 -0.1168 -0.0646 -0.1910
 1889DPPC   GL244356  38.744  33.971  20.622 -0.5334 -0.1794 -0.1781
 1889DPPC   C1A44357  38.493  34.477  20.657  0.1292 -0.1240 -0.2230
 1889DPPC   C2A44358  38.228  34.745  20.836  0.0499 -0.1732 -0.0492
 1889DPPC   C3A44359  37.837  35.048  20.582  0.0631 -0.0996 -0.1528
 1889DPPC   C4A44360  37.712  35.323  20.740 -0.0050 -0.0577  0.1814
 1889DPPC   C1B44361  38.265  33.958  20.751 -0.2231  0.1336  0.1328
 1889DPPC   C2B44362  37.914  33.707  20.888  0.1484 -0.0821 -0.2894
 1889DPPC   C3B44363  37.617  33.389  21.164 -0.0842 -0.1220  0.2779
 1889DPPC   C4B44364  37.662  33.177  21.631  0.1492 -0.1050  0.0624
 1890DPPC   NC344365  16.706  30.988   3.518  0.1807 -0.0708 -0.1134
 1890DPPC   PO444366  16.715  30.813   3.888 -0.0167 -0.1070 -0.3439
 1890DPPC   GL144367  16.990  30.447   3.572 -0.2581  0.0551 -0.0562
 1890DPPC   GL244368  16.835  30.383   3.308  0.0394  0.0661  0.4457
 1890DPPC   C1A44369  17.313  30.293   3.328  0.4202  0.0913  0.2028
 1890DPPC   C2A44370  17.384  29.897   3.340  0.1177  0.1768  0.1997
 1890DPPC   C3A44371  17.829  29.707   3.194 -0.0978  0.0040  0.3720
 1890DPPC   C4A44372  18.196  29.445   3.016  0.2074 -0.2529  0.2199
 1890DPPC   C1B44373  17.113  30.616   2.948 -0.0748  0.1927 -0.1554
 1890DPPC   C2B44374  17.525  30.614   2.750 -0.1773  0.1853 -0.0120
 1890DPPC   C3B44375  17.933  30.537   2.613  0.4261 -0.0705  0.0509
 1890DPPC   C4B44376  18.456  30.600   2.597  0.3907 -0.0714 -0.0556
 1891DPPC   NC344377  14.257  28.211  19.399 -0.4055  0.3270 -0.3188
 1891DPPC   PO444378  14.261  27.791  19.619 -0.1736  0.0633 -0.2035
 1891DPPC   GL144379  14.549  27.500  19.847 -0.3771 -0.0981 -0.2832
 1891DPPC   GL244380  14.759  27.640  19.869 -0.2724  0.2470  0.0207
 1891DPPC   C1A44381  14.697  27.191  20.123  0.1682 -0.2226 -0.4488
 1891DPPC   C2A44382  14.788  26.769  20.320  0.1760 -0.1789  0.1413
 1891DPPC   C3A44383  14.643  26.424  20.509 -0.2238  0.0731 -0.0877
 1891DPPC   C4A44384  14.718  26.103  20.902  0.0056  0.2418  0.0545
 1891DPPC   C1B44385  14.721  27.635  20.370  0.0067  0.2245 -0.1688
 1891DPPC   C2B44386  14.710  27.593  20.883  0.0050  0.3695  0.4226
 1891DPPC   C3B44387  14.792  27.502  21.402  0.1420 -0.1587 -0.1305
 1891DPPC   C4B44388  15.078  27.894  21.540  0.0065 -0.1475  0.0398
 1892DPPC   NC344389  27.562  37.902  22.086  0.4008 -0.3251  0.0638
 1892DPPC   PO444390  27.718  38.202  21.921  0.1025 -0.0917  0.0443
 1892DPPC   GL144391  27.672  38.576  21.902 -0.1876  0.0171 -0.1917
 1892DPPC   GL244392  27.617  38.650  21.609  0.1561 -0.1400 -0.1190
 1892DPPC   C1A44393  27.949  38.902  21.901  0.1775 -0.1710 -0.0986
 1892DPPC   C2A44394  27.913  39.390  21.785 -0.0190  0.1279  0.2082
 1892DPPC   C3A44395  27.637  39.647  21.956  0.1480 -0.0922  0.0882
 1892DPPC   C4A44396  27.237  39.839  21.861 -0.0221 -0.0392  0.2430
 1892DPPC   C1B44397  27.504  38.851  21.317  0.0931 -0.0791  0.0062
 1892DPPC   C2B44398  27.667  39.253  21.132  0.2065  0.0823  0.4690
 1892DPPC   C3B44399  27.729  39.494  20.772 -0.1846  0.2624 -0.1147
 1892DPPC   C4B44400  27.595  39.844  20.537  0.3602  0.4209 -0.0429
 1893DPPC   NC344401  24.394  27.918  24.986  0.2977 -0.2346  0.1223
 1893DPPC   PO444402  24.128  27.529  25.076  0.1533  0.0476 -0.0363
 1893DPPC   GL144403  24.040  27.080  25.088  0.4582 -0.1613 -0.0974
 1893DPPC   GL244404  24.130  26.745  24.791 -0.1844 -0.0834 -0.0181
 1893DPPC   C1A44405  23.867  26.720  25.405 -0.3398  0.1536  0.2223
 1893DPPC   C2A44406  23.690  26.527  25.741  0.1230  0.0049 -0.1496
 1893DPPC   C3A44407  23.224  26.508  25.731  0.0346 -0.1119 -0.4323
 1893DPPC   C4A44408  22.760  26.454  25.639 -0.2315  0.0861 -0.2661
 1893DPPC   C1B44409  23.790  26.580  24.825  0.1521 -0.1053 -0.1011
 1893DPPC   C2B44410  23.501  26.169  24.878 -0.2162 -0.1691  0.0083
 1893DPPC   C3B44411  23.292  25.768  24.970 -0.2703 -0.0889  0.4212
 1893DPPC   C4B44412  22.900  25.630  25.119 -0.0154 -0.2808  0.2256
 1894DPPC   NC344413  24.831  24.429  21.870  0.0587  0.1539  0.0021
 1894DPPC   PO444414  24.915  24.239  22.161 -0.1731  0.4246  0.2210
 1894DPPC   GL144415  24.667  23.928  22.155 -0.2098 -0.2138  0.1892
 1894DPPC   GL244416  24.572  23.866  21.850 -0.2779 -0.1071 -0.2030
 1894DPPC   C1A44417  24.305  23.933  22.295 -0.0652  0.0773 -0.2689
 1894DPPC   C2A44418  23.930  23.943  22.160  0.2174 -0.0407 -0.0670
 1894DPPC   C3A44419  23.689  23.735  21.906  0.0153  0.0490  0.1162
 1894DPPC   C4A44420  23.431  23.523  21.612  0.2139 -0.2468  0.3958
 1894DPPC   C1B44421  24.812  23.469  21.985  0.2229  0.2468 -0.0775
 1894DPPC   C2B44422  24.705  23.176  22.269  0.1122  0.3023  0.3513
 1894DPPC   C3B44423  24.585  22.689  22.219  0.0573 -0.0319 -0.2527
 1894DPPC   C4B44424  24.518  22.459  22.542 -0.0330 -0.1623  0.0952
 1895DPPC   NC344425  28.531  20.230   5.515 -0.0725 -0.3245  0.3555
 1895DPPC   PO444426  28.546  20.477   5.892  0.3214  0.1872  0.2106
 1895DPPC   GL144427  28.374  20.697   5.501  0.1244 -0.0374 -0.3092
 1895DPPC   GL244428  28.596  21.028   5.197 -0.2380 -0.0011  0.0315
 1895DPPC   C1A44429  28.136  20.658   5.126  0.2058  0.0898  0.4500
 1895DPPC   C2A44430  28.008  20.897   4.849 -0.0933  0.2460  0.3216
 1895DPPC   C3A44431  27.719  21.146   4.916  0.0470  0.0615  0.1335
 1895DPPC   C4A44432  27.340  21.181   4.823  0.0333  0.1245  0.1020
 1895DPPC   C1B44433  28.257  21.365   5.146  0.0586 -0.1228  0.0426
 1895DPPC   C2B44434  27.919  21.575   5.070  0.1712 -0.4036 -0.2554
 1895DPPC   C3B44435  27.616  21.662   4.804 -0.0459  0.1792 -0.0141
 1895DPPC   C4B44436  27.340  21.914   4.563 -0.0728 -0.2767  0.2836
 1896DPPC   NC344437  13.828  26.819   0.897  0.1442  0.0113  0.1271
 1896DPPC   PO444438  13.840  27.154   0.637  0.0000  0.2246  0.1152
 1896DPPC   GL144439  14.152  27.187   0.343 -0.1763  0.1991  0.1656
 1896DPPC   GL244440  14.377  27.452   0.348  0.0965 -0.0635  0.2001
 1896DPPC   C1A44441  14.582  27.007   0.145 -0.3267 -0.2409  0.1300
 1896DPPC   C2A44442  15.016  26.978   0.029 -0.2736  0.1656 -0.4571
 1896DPPC   C3A44443  15.370  26.677  26.844 -0.2506 -0.2893  0.1004
 1896DPPC   C4A44444  15.798  26.436   0.009  0.3563  0.1056 -0.0012
 1896DPPC   C1B44445  14.821  27.417   0.267 -0.4069  0.2230  0.0260
 1896DPPC   C2B44446  15.174  27.383   0.154  0.3102 -0.0623 -0.1705
 1896DPPC   C3B44447  15.536  27.231   0.028 -0.0795  0.0955 -0.0902
 1896DPPC   C4B44448  15.824  26.907  26.745  0.0222 -0.2412  0.0204
 1897DPPC   NC344449  17.281  19.528  17.416 -0.2349  0.0177  0.4293
 1897DPPC   PO444450  17.117  19.569  17.830 -0.2697  0.0029 -0.1646
 1897DPPC   GL144451  17.602  19.717  17.853 -0.1617 -0.2288 -0.1953
 1897DPPC   GL244452  17.843  19.444  17.736  0.2937  0.1805 -0.1281
 1897DPPC   C1A44453  17.795  20.086  17.698  0.0211 -0.1252  0.1801
 1897DPPC   C2A44454  17.820  20.537  17.571 -0.0583  0.0222 -0.4706
 1897DPPC   C3A44455  18.106  20.879  17.394  0.2208 -0.0072  0.1148
 1897DPPC   C4A44456  18.428  21.156  17.580  0.1711 -0.2577 -0.0968
 1897DPPC   C1B44457  18.140  19.514  18.074 -0.0688 -0.1748 -0.2303
 1897DPPC   C2B44458  18.009  19.634  18.593  0.2324 -0.0146  0.1663
 1897DPPC   C3B44459  18.139  19.604  19.001  0.1707 -0.0144  0.3328
 1897DPPC   C4B44460  17.918  19.830  19.426 -0.1490 -0.1334 -0.1131
 1898DPPC   NC344461  27.854  42.054  23.273  0.0114  0.0700 -0.0293
 1898DPPC   PO444462  27.810  42.145  23.642 -0.1669  0.2064 -0.0154
 1898DPPC   GL144463  27.785  41.760  23.734 -0.3687 -0.2242 -0.1757
 1898DPPC   GL244464  27.856  41.516  23.420  0.2054  0.0963 -0.1664
 1898DPPC   C1A44465  27.943  41.542  23.987  0.1738 -0.0576 -0.0662
 1898DPPC   C2A44466  28.018  41.124  23.951  0.1708 -0.0199  0.2296
 1898DPPC   C3A44467  28.135  40.933  24.401 -0.0851 -0.3925 -0.1179
 1898DPPC   C4A44468  28.409  40.690  24.697  0.0933  0.0315  0.3314
 1898DPPC   C1B44469  28.028  41.089  23.451 -0.0642 -0.1103 -0.0579
 1898DPPC   C2B44470  28.068  40.667  23.295  0.0476 -0.0051  0.1694
 1898DPPC   C3B44471  28.176  40.358  23.538 -0.0872  0.3108  0.2057
 1898DPPC   C4B44472  28.317  39.888  23.603 -0.4432 -0.2116 -0.2321
 1899DPPC   NC344473  21.711  39.760  21.525 -0.5064  0.3711  0.1310
 1899DPPC   PO444474  21.532  39.762  21.864 -0.1045 -0.2022 -0.2827
 1899DPPC   GL144475  21.546  39.366  21.781 -0.0765 -0.4283  0.2669
 1899DPPC   GL244476  21.961  39.319  21.818  0.1885  0.1846  0.2683
 1899DPPC   C1A44477  21.659  38.997  21.634 -0.0426  0.1986  0.1658
 1899DPPC   C2A44478  21.555  38.735  21.857 -0.1666 -0.2339  0.1754
 1899DPPC   C3A44479  21.553  38.535  22.277  0.3479 -0.0630  0.1934
 1899DPPC   C4A44480  21.710  38.318  22.684 -0.2827  0.1143  0.1406
 1899DPPC   C1B44481  22.469  39.470  21.764  0.0351  0.0982 -0.1083
 1899DPPC   C2B44482  22.872  39.303  21.595  0.1519  0.3257 -0.1323
 1899DPPC   C3B44483  22.742  39.093  21.144 -0.0516  0.1413 -0.1041
 1899DPPC   C4B44484  22.324  39.038  20.985 -0.0133 -0.0204 -0.2105
 1900DPPC   NC344485  24.445  26.223  24.100  0.0765  0.1830  0.3015
 1900DPPC   PO444486  24.676  26.418  24.455 -0.2088 -0.3301 -0.2350
 1900DPPC   GL144487  24.268  26.289  24.553 -0.2107  0.1404  0.0647
 1900DPPC   GL244488  23.927  26.386  24.338 -0.0784 -0.0039 -0.0555
 1900DPPC   C1A44489  24.016  26.004  24.706  0.0013  0.2792  0.1695
 1900DPPC   C2A44490  23.797  25.747  24.849  0.2059 -0.1325 -0.2725
 1900DPPC   C3A44491  23.613  25.605  25.291 -0.1017 -0.0442  0.3240
 1900DPPC   C4A44492  23.388  25.622  25.590  0.1790 -0.1818  0.2066
 1900DPPC   C1B44493  23.593  26.117  24.325 -0.0310 -0.1463  0.1007
 1900DPPC   C2B44494  23.434  25.698  24.471 -0.0892  0.0188  0.0570
 1900DPPC   C3B44495  23.039  25.646  24.563  0.4718  0.1441  0.0715
 1900DPPC   C4B44496  22.600  25.479  24.660  0.0293 -0.2468  0.0797
 1901DPPC   NC344497  18.134  24.074  14.816 -0.0088  0.2128 -0.0286
 1901DPPC   PO444498  17.845  24.371  15.149 -0.0046 -0.2520 -0.3939
 1901DPPC   GL144499  18.085  24.453  15.551 -0.0293 -0.2025  0.2990
 1901DPPC   GL244500  18.193  24.838  15.600 -0.0597 -0.2421 -0.1508
 1901DPPC   C1A44501  18.462  24.289  15.842 -0.0074  0.0556  0.0026
 1901DPPC   C2A44502  18.767  24.318  16.236  0.2295 -0.0108 -0.1400
 1901DPPC   C3A44503  18.975  24.471  16.512 -0.0091  0.0230 -0.0136
 1901DPPC   C4A44504  19.367  24.263  16.431 -0.0220 -0.0361  0.0774
 1901DPPC   C1B44505  18.434  24.771  15.979 -0.2760  0.0101  0.1189
 1901DPPC   C2B44506  18.605  24.829  16.363  0.0373  0.0611 -0.0540
 1901DPPC   C3B44507  18.931  24.958  16.716  0.0245 -0.1731  0.0556
 1901DPPC   C4B44508  19.422  24.965  16.749  0.0324 -0.1159  0.0340
 1902DPPC   NC344509  25.029  15.401   0.366 -0.1224 -0.0162  0.2319
 1902DPPC   PO444510  24.620  15.682   0.336 -0.0764 -0.3737  0.0168
 1902DPPC   GL144511  24.631  16.171   0.145  0.1231  0.1398 -0.0505
 1902DPPC   GL244512  24.590  16.451   0.259  0.3332  0.1470  0.4640
 1902DPPC   C1A44513  24.941  16.418  26.790  0.0718  0.0065 -0.2189
 1902DPPC   C2A44514  24.756  16.740  26.498  0.2765  0.0703  0.4362
 1902DPPC   C3A44515  24.809  16.682  26.107 -0.0643  0.2238  0.0057
 1902DPPC   C4A44516  24.617  16.370  25.820 -0.0801 -0.1355  0.1828
 1902DPPC   C1B44517  24.748  16.860   0.178 -0.1472  0.0236 -0.0316
 1902DPPC   C2B44518  24.639  17.290   0.166  0.0107 -0.3764 -0.2476
 1902DPPC   C3B44519  24.529  17.744   0.234  0.2501 -0.0941 -0.0672
 1902DPPC   C4B44520  24.554  18.085   0.537 -0.0207  0.1518  0.4799
 1903DPPC   NC344521  15.816  20.046  17.926 -0.0897 -0.0042 -0.0103
 1903DPPC   PO444522  16.179  20.096  18.187  0.2499 -0.0006  0.2178
 1903DPPC   GL144523  16.579  20.229  18.392  0.0290  0.0470  0.0292
 1903DPPC   GL244524  16.810  19.988  18.573  0.0385 -0.1458  0.0499
 1903DPPC   C1A44525  16.971  20.641  18.499 -0.0903  0.0199 -0.0040
 1903DPPC   C2A44526  17.251  20.796  18.380 -0.0540 -0.0412  0.1602
 1903DPPC   C3A44527  17.657  20.857  18.468  0.1282  0.3643 -0.2104
 1903DPPC   C4A44528  17.768  21.367  18.594  0.3209 -0.0168  0.0606
 1903DPPC   C1B44529  16.650  20.399  18.896  0.1068  0.0663 -0.1511
 1903DPPC   C2B44530  16.592  20.535  19.336 -0.1977 -0.2060 -0.0265
 1903DPPC   C3B44531  16.453  20.803  19.613  0.0978  0.0486  0.1369
 1903DPPC   C4B44532  16.613  20.977  20.050 -0.4029 -0.0803  0.0003
 1904DPPC   NC344533  17.912  28.741   6.886  0.1612 -0.2369 -0.1950
 1904DPPC   PO444534  18.010  28.392   6.474  0.1057  0.0760  0.1966
 1904DPPC   GL144535  18.257  28.237   6.153 -0.1899  0.2414 -0.0777
 1904DPPC   GL244536  18.309  27.987   6.088  0.3628  0.0496  0.0062
 1904DPPC   C1A44537  18.253  28.327   5.757 -0.0967  0.0744  0.0493
 1904DPPC   C2A44538  18.499  28.430   5.366 -0.3030  0.0886 -0.1421
 1904DPPC   C3A44539  18.743  28.554   4.918 -0.2576  0.1443  0.3815
 1904DPPC   C4A44540  18.772  28.462   4.535  0.1245  0.2756 -0.3594
 1904DPPC   C1B44541  18.517  27.644   6.144  0.1571 -0.2033  0.0085
 1904DPPC   C2B44542  18.794  27.237   6.022 -0.2177  0.0599 -0.0635
 1904DPPC   C3B44543  19.001  26.736   5.759  0.1683  0.0879 -0.0176
 1904DPPC   C4B44544  19.348  26.456   5.624 -0.1629  0.1220 -0.2775
 1905DPPC   NC344545  19.358  20.691   3.970  0.1858 -0.1711 -0.1846
 1905DPPC   PO444546  19.355  21.185   3.778 -0.1972  0.2220  0.3069
 1905DPPC   GL144547  19.690  21.445   3.637 -0.2233  0.0084 -0.1822
 1905DPPC   GL244548  19.560  21.724   3.486  0.0334  0.0438 -0.2599
 1905DPPC   C1A44549  20.053  21.727   3.477  0.2376 -0.0093  0.2883
 1905DPPC   C2A44550  20.075  22.154   3.505  0.0126  0.2162  0.1975
 1905DPPC   C3A44551  20.383  22.465   3.591 -0.0477  0.0492  0.1436
 1905DPPC   C4A44552  20.800  22.498   3.744 -0.1018 -0.0592  0.0241
 1905DPPC   C1B44553  19.567  21.728   2.993  0.1752  0.0948 -0.2623
 1905DPPC   C2B44554  19.952  21.640   2.861  0.0831 -0.1430  0.2497
 1905DPPC   C3B44555  20.176  21.775   2.537  0.3436  0.3453 -0.0970
 1905DPPC   C4B44556  20.626  21.773   2.384  0.2205 -0.1249  0.3325
 1906DPPC   NC344557  16.977  25.431  15.402  0.1954 -0.0250  0.0022
 1906DPPC   PO444558  17.374  25.513  15.497  0.2418  0.0944 -0.1554
 1906DPPC   GL144559  17.546  25.417  15.934 -0.0289 -0.1142  0.2358
 1906DPPC   GL244560  17.834  25.548  16.006 -0.0289 -0.0396 -0.0680
 1906DPPC   C1A44561  17.649  25.271  16.347 -0.0939 -0.0651  0.0118
 1906DPPC   C2A44562  17.949  25.278  16.698  0.1754 -0.2141 -0.1311
 1906DPPC   C3A44563  18.157  25.538  17.101 -0.3993  0.1148  0.1549
 1906DPPC   C4A44564  18.355  25.764  17.399  0.1085  0.0868  0.3330
 1906DPPC   C1B44565  18.304  25.299  16.188  0.2715  0.0591  0.3109
 1906DPPC   C2B44566  18.458  25.336  16.555  0.0756 -0.3024  0.0088
 1906DPPC   C3B44567  18.427  25.786  16.734 -0.1854  0.1578 -0.0408
 1906DPPC   C4B44568  18.608  26.111  17.119  0.0798  0.0819  0.1911
 1907DPPC   NC344569  30.075  18.547  26.335 -0.3240 -0.2277 -0.1949
 1907DPPC   PO444570  29.758  18.234  26.174 -0.0064  0.3319 -0.3133
 1907DPPC   GL144571  29.716  18.467  26.000  0.1200 -0.0108  0.0762
 1907DPPC   GL244572  29.891  18.529  25.697 -0.0881 -0.0370  0.2100
 1907DPPC   C1A44573  29.403  18.637  25.605  0.1856 -0.0872 -0.0481
 1907DPPC   C2A44574  29.111  18.803  25.471  0.1210  0.5148  0.0018
 1907DPPC   C3A44575  28.921  19.043  25.201  0.0732 -0.0717 -0.0251
 1907DPPC   C4A44576  28.719  19.423  25.067 -0.0252 -0.2530  0.2536
 1907DPPC   C1B44577  29.820  18.924  25.442  0.0061  0.0040 -0.0320
 1907DPPC   C2B44578  29.606  19.218  25.338  0.4939  0.0845 -0.0537
 1907DPPC   C3B44579  29.244  19.376  25.126  0.0322 -0.1324  0.1603
 1907DPPC   C4B44580  29.049  19.858  25.118  0.1223 -0.3793 -0.2824
 1908DPPC   NC344581  19.651  38.860  23.895 -0.2716 -0.2770  0.1119
 1908DPPC   PO444582  19.717  38.410  23.905  0.0283  0.1049 -0.0324
 1908DPPC   GL144583  20.117  38.334  23.656 -0.1079 -0.1732 -0.3306
 1908DPPC   GL244584  20.320  38.472  23.946 -0.3418  0.1692  0.0719
 1908DPPC   C1A44585  20.350  37.990  23.692 -0.0170 -0.0591 -0.0742
 1908DPPC   C2A44586  20.748  37.724  23.725  0.1526  0.0998 -0.0241
 1908DPPC   C3A44587  21.045  37.583  23.908 -0.1753 -0.0539 -0.1167
 1908DPPC   C4A44588  21.404  37.633  24.026 -0.2465 -0.1264 -0.3848
 1908DPPC   C1B44589  20.711  38.143  24.058 -0.1464 -0.1250 -0.4306
 1908DPPC   C2B44590  21.140  38.143  24.155 -0.0133 -0.0472 -0.1406
 1908DPPC   C3B44591  21.556  38.156  23.935 -0.0067  0.3436  0.0994
 1908DPPC   C4B44592  21.803  38.452  23.976  0.1233 -0.2052 -0.0066
 1909DPPC   NC344593  19.871  39.141  21.101 -0.1727  0.1474  0.2130
 1909DPPC   PO444594  19.413  39.040  21.012 -0.2607  0.1836 -0.1721
 1909DPPC   GL144595  19.601  38.689  21.178  0.2295  0.2218  0.0385
 1909DPPC   GL244596  19.471  38.378  21.326 -0.0472  0.0118 -0.0445
 1909DPPC   C1A44597  20.006  38.415  21.110 -0.0207 -0.0623  0.1108
 1909DPPC   C2A44598  20.336  38.270  21.235 -0.0472  0.0139  0.0361
 1909DPPC   C3A44599  20.687  38.098  21.310 -0.0325 -0.1092  0.2752
 1909DPPC   C4A44600  20.999  37.790  21.107  0.2107 -0.0544  0.3335
 1909DPPC   C1B44601  19.442  37.905  21.212  0.0597  0.0322  0.0235
 1909DPPC   C2B44602  19.792  37.631  21.146 -0.1670  0.1347  0.1044
 1909DPPC   C3B44603  20.200  37.508  21.136 -0.4301  0.2619  0.0153
 1909DPPC   C4B44604  20.567  37.622  21.400  0.2389 -0.4830 -0.1255
 1910DPPC   NC344605  24.836  28.932   0.794  0.0907  0.3225 -0.0390
 1910DPPC   PO444606  24.994  28.645   0.471 -0.2380 -0.0265 -0.2218
 1910DPPC   GL144607  24.805  28.376   0.715 -0.1744 -0.1515 -0.1619
 1910DPPC   GL244608  24.689  28.523   0.976  0.0562 -0.0747  0.0472
 1910DPPC   C1A44609  24.884  28.042   0.897 -0.0997  0.2808  0.0049
 1910DPPC   C2A44610  24.879  27.804   1.170  0.0429  0.2292 -0.2436
 1910DPPC   C3A44611  24.606  27.381   1.248 -0.0093  0.0407 -0.1824
 1910DPPC   C4A44612  24.591  26.959   1.084  0.0738 -0.2955 -0.3541
 1910DPPC   C1B44613  24.453  28.082   1.135 -0.2364 -0.0066  0.1057
 1910DPPC   C2B44614  24.246  27.730   1.239  0.2057 -0.0931  0.1319
 1910DPPC   C3B44615  24.141  27.304   1.070  0.2294  0.2125 -0.1856
 1910DPPC   C4B44616  23.937  26.870   1.016 -0.1141 -0.2921  0.2070
 1911DPPC   NC344617  25.249  17.886   4.623  0.2215  0.3265  0.1868
 1911DPPC   PO444618  25.590  17.991   4.656 -0.0398  0.1275 -0.1448
 1911DPPC   GL144619  25.624  18.358   4.446 -0.0225  0.1251 -0.1090
 1911DPPC   GL244620  25.869  18.588   4.468  0.1257  0.1101  0.1490
 1911DPPC   C1A44621  25.454  18.808   4.282 -0.2101 -0.1338 -0.2932
 1911DPPC   C2A44622  25.547  19.235   4.471  0.1476 -0.2009 -0.2825
 1911DPPC   C3A44623  25.902  19.625   4.449 -0.3774 -0.1189  0.3731
 1911DPPC   C4A44624  26.223  19.673   4.479  0.2486  0.1047  0.4524
 1911DPPC   C1B44625  25.896  18.540   4.043 -0.0363  0.1548 -0.3208
 1911DPPC   C2B44626  25.965  18.927   3.700  0.1277 -0.1649 -0.0924
 1911DPPC   C3B44627  26.068  19.306   3.640  0.2018 -0.3199  0.1713
 1911DPPC   C4B44628  26.471  19.529   3.569  0.2960  0.2564  0.0546
 1912DPPC   NC344629  30.476  42.221  22.406  0.0540  0.0423 -0.3398
 1912DPPC   PO444630  30.188  41.906  22.296  0.0049  0.1502  0.0692
 1912DPPC   GL144631  30.003  41.685  22.688  0.4614  0.0974  0.2996
 1912DPPC   GL244632  29.766  41.797  22.807  0.0383  0.2251  0.0759
 1912DPPC   C1A44633  30.143  41.554  23.071 -0.0467  0.1667  0.1940
 1912DPPC   C2A44634  30.055  41.086  23.246 -0.3604 -0.1786  0.3108
 1912DPPC   C3A44635  29.921  40.787  23.268 -0.3653  0.4273 -0.2023
 1912DPPC   C4A44636  29.854  40.367  23.286 -0.0402  0.4461  0.1045
 1912DPPC   C1B44637  29.585  41.463  22.992  0.0536  0.0831 -0.0160
 1912DPPC   C2B44638  29.461  41.050  23.134  0.0988 -0.1722 -0.0902
 1912DPPC   C3B44639  29.490  40.634  23.073 -0.0977 -0.1252 -0.0198
 1912DPPC   C4B44640  29.384  40.259  22.823 -0.2564  0.1455 -0.0772
 1913DPPC   NC344641  18.809  38.016  19.164 -0.0621  0.2999  0.2946
 1913DPPC   PO444642  18.675  37.726  19.010 -0.3661 -0.2964 -0.0642
 1913DPPC   GL144643  19.084  37.513  19.024 -0.1666 -0.1148  0.0560
 1913DPPC   GL244644  19.284  37.751  19.122 -0.3577  0.0313  0.0517
 1913DPPC   C1A44645  19.346  37.318  18.883  0.1515  0.3223 -0.0949
 1913DPPC   C2A44646  19.769  37.078  18.754  0.1443 -0.3632 -0.2060
 1913DPPC   C3A44647  20.139  36.795  18.729  0.2192  0.3084  0.0471
 1913DPPC   C4A44648  20.372  36.466  18.671  0.1498  0.3930 -0.1551
 1913DPPC   C1B44649  19.672  37.553  19.222  0.0703 -0.4213 -0.1245
 1913DPPC   C2B44650  19.990  37.336  19.199  0.0978 -0.0132 -0.0232
 1913DPPC   C3B44651  20.283  37.201  18.909 -0.1625 -0.0132  0.0983
 1913DPPC   C4B44652  20.662  36.889  18.695 -0.1146 -0.0029  0.0195
 1914DPPC   NC344653  26.648  38.795  13.274  0.0518 -0.0089  0.4211
 1914DPPC   PO444654  26.372  38.358  13.196 -0.0627 -0.0001  0.2896
 1914DPPC   GL144655  26.237  37.992  13.517 -0.2423 -0.1901  0.1751
 1914DPPC   GL244656  25.965  37.756  13.595 -0.1102 -0.1255 -0.0224
 1914DPPC   C1A44657  26.480  37.743  13.927  0.2771  0.2094  0.3306
 1914DPPC   C2A44658  26.373  37.766  14.319 -0.0404  0.2925  0.2307
 1914DPPC   C3A44659  26.429  37.831  14.755 -0.0049  0.3431 -0.1596
 1914DPPC   C4A44660  26.652  37.598  15.010 -0.0006 -0.4275  0.0847
 1914DPPC   C1B44661  26.199  37.483  13.600  0.1407  0.2136 -0.0186
 1914DPPC   C2B44662  26.317  37.315  13.251  0.0170 -0.0705 -0.3087
 1914DPPC   C3B44663  26.628  37.103  13.061 -0.1030  0.4048  0.1964
 1914DPPC   C4B44664  27.075  37.058  13.018 -0.1003  0.0370  0.3028
 1915DPPC   NC344665  37.955  37.202  18.369  0.1510  0.2007  0.2843
 1915DPPC   PO444666  37.654  36.827  18.293 -0.1058  0.2738 -0.1507
 1915DPPC   GL144667  37.434  36.467  18.224  0.1456 -0.0501  0.2531
 1915DPPC   GL244668  37.062  36.526  18.229  0.0017 -0.1259 -0.0041
 1915DPPC   C1A44669  37.617  36.053  18.235  0.1823 -0.1236 -0.1886
 1915DPPC   C2A44670  37.653  35.672  18.029  0.0918  0.2107 -0.2728
 1915DPPC   C3A44671  37.390  35.211  18.010  0.0490 -0.2672  0.1917
 1915DPPC   C4A44672  37.310  34.797  18.226  0.0686  0.4350 -0.1722
 1915DPPC   C1B44673  37.185  36.158  18.444  0.1339  0.0741 -0.1504
 1915DPPC   C2B44674  37.239  35.757  18.309  0.0316  0.1707 -0.2348
 1915DPPC   C3B44675  37.027  35.411  18.259  0.1085 -0.0444 -0.1201
 1915DPPC   C4B44676  36.791  35.118  18.319  0.0314 -0.1153 -0.1054
 1916DPPC   NC344677  35.372  38.306  26.759 -0.0524 -0.4611  0.1586
 1916DPPC   PO444678  35.478  38.415  26.261 -0.1304 -0.1767  0.2882
 1916DPPC   GL144679  35.127  38.182  26.277  0.2460 -0.2180  0.0805
 1916DPPC   GL244680  34.959  37.926  26.489 -0.0290  0.0718 -0.0521
 1916DPPC   C1A44681  34.981  37.885  25.942  0.2005  0.0208 -0.1059
 1916DPPC   C2A44682  34.713  37.550  25.773 -0.2233  0.1980 -0.0069
 1916DPPC   C3A44683  34.439  37.194  25.646  0.1188  0.0910  0.2504
 1916DPPC   C4A44684  34.216  36.866  25.495  0.0431 -0.2235 -0.0306
 1916DPPC   C1B44685  34.846  37.530  26.346  0.1684  0.2669 -0.0965
 1916DPPC   C2B44686  34.624  37.366  26.260 -0.0677  0.3216 -0.5304
 1916DPPC   C3B44687  34.325  37.049  26.155  0.0329  0.1649  0.2529
 1916DPPC   C4B44688  33.807  37.078  26.298 -0.1766  0.1396 -0.0630
 1917DPPC   NC344689  15.496  29.307  17.703 -0.1508  0.0846 -0.0796
 1917DPPC   PO444690  15.738  29.472  17.984  0.0543  0.0012 -0.1223
 1917DPPC   GL144691  15.991  29.210  18.255  0.0663 -0.2364 -0.2770
 1917DPPC   GL244692  16.251  29.391  18.491  0.0693  0.1520  0.3717
 1917DPPC   C1A44693  16.218  28.829  18.478 -0.0129 -0.3947  0.1511
 1917DPPC   C2A44694  16.607  28.801  18.530  0.0895  0.0273  0.3294
 1917DPPC   C3A44695  16.932  28.800  18.213 -0.2538  0.3130  0.2158
 1917DPPC   C4A44696  17.095  28.546  17.773  0.0539 -0.1000  0.0440
 1917DPPC   C1B44697  16.710  29.382  18.455  0.2032  0.0118 -0.5006
 1917DPPC   C2B44698  17.051  29.409  18.785 -0.0608  0.0302  0.1747
 1917DPPC   C3B44699  17.418  29.227  18.929  0.0997 -0.2131  0.0409
 1917DPPC   C4B44700  17.568  28.782  19.006  0.0049 -0.2324 -0.2594
 1918DPPC   NC344701  13.304  24.862  20.434  0.0560 -0.0057  0.2052
 1918DPPC   PO444702  13.454  24.420  20.343 -0.2705 -0.2356 -0.0764
 1918DPPC   GL144703  13.631  24.645  20.707 -0.0031  0.3406 -0.1229
 1918DPPC   GL244704  13.942  24.419  20.907  0.1986  0.0690 -0.1538
 1918DPPC   C1A44705  13.822  25.013  20.933  0.2640 -0.1901 -0.3614
 1918DPPC   C2A44706  13.922  25.518  20.969  0.2657  0.1054  0.1105
 1918DPPC   C3A44707  14.282  25.783  21.000 -0.1531  0.0280  0.3116
 1918DPPC   C4A44708  14.503  25.699  20.553  0.2285 -0.2586 -0.2089
 1918DPPC   C1B44709  14.342  24.253  20.961 -0.0459 -0.1318 -0.1233
 1918DPPC   C2B44710  14.748  24.487  20.933 -0.2711 -0.2243  0.0217
 1918DPPC   C3B44711  14.965  24.880  21.003 -0.0060  0.1457 -0.1356
 1918DPPC   C4B44712  15.140  25.293  21.093  0.1613  0.0061  0.0836
 1919DPPC   NC344713  19.458  21.694   4.028 -0.0867  0.1791  0.1408
 1919DPPC   PO444714  19.575  21.931   4.392  0.0373 -0.0630  0.1903
 1919DPPC   GL144715  19.988  22.175   4.367 -0.3467 -0.0299 -0.0269
 1919DPPC   GL244716  19.984  22.475   4.545 -0.0192 -0.0212 -0.1062
 1919DPPC   C1A44717  20.320  22.458   4.151  0.2727  0.0711 -0.0193
 1919DPPC   C2A44718  20.733  22.706   4.200 -0.1380  0.1273 -0.1388
 1919DPPC   C3A44719  20.691  23.004   4.541 -0.1259 -0.0489 -0.1948
 1919DPPC   C4A44720  20.573  23.129   4.936  0.2871 -0.0894  0.2178
 1919DPPC   C1B44721  19.970  22.875   4.763 -0.0817 -0.2013 -0.0555
 1919DPPC   C2B44722  20.066  23.281   4.833  0.0413  0.1383 -0.4094
 1919DPPC   C3B44723  20.428  23.528   4.609 -0.0549 -0.0434 -0.2749
 1919DPPC   C4B44724  20.559  24.015   4.673  0.2210 -0.1145  0.2969
 1920DPPC   NC344725  20.064  32.364  12.318  0.1326  0.0918 -0.0410
 1920DPPC   PO444726  20.116  32.820  12.225  0.0742  0.2861  0.1392
 1920DPPC   GL144727  20.546  32.646  12.513  0.0802  0.1884  0.1138
 1920DPPC   GL244728  20.640  32.369  12.356  0.0197 -0.1586 -0.1295
 1920DPPC   C1A44729  20.728  32.640  12.852  0.1260  0.1292  0.0754
 1920DPPC   C2A44730  20.960  32.890  13.213  0.0274  0.0641 -0.0601
 1920DPPC   C3A44731  20.991  33.160  13.576  0.1447 -0.1411 -0.3384
 1920DPPC   C4A44732  20.969  33.513  13.922  0.1183 -0.2359 -0.0514
 1920DPPC   C1B44733  20.924  32.118  12.226 -0.2528 -0.0969 -0.2179
 1920DPPC   C2B44734  21.338  32.117  12.166  0.0992  0.2038 -0.0664
 1920DPPC   C3B44735  21.668  31.810  12.164  0.0337  0.1496 -0.0739
 1920DPPC   C4B44736  21.947  31.426  12.201 -0.2326  0.1209  0.0769
 1921DPPC   NC344737  16.761  24.218   4.148 -0.0506 -0.0115 -0.0119
 1921DPPC   PO444738  17.075  24.439   4.246 -0.1097  0.1738  0.1147
 1921DPPC   GL144739  17.543  24.523   4.207 -0.3573  0.1233  0.2910
 1921DPPC   GL244740  17.683  24.398   4.546  0.2734  0.0510  0.0054
 1921DPPC   C1A44741  17.815  24.723   3.836  0.3650 -0.1327 -0.1127
 1921DPPC   C2A44742  17.748  25.090   3.691  0.2398 -0.0211 -0.0853
 1921DPPC   C3A44743  17.773  25.453   3.598 -0.0037  0.0057  0.0802
 1921DPPC   C4A44744  17.516  25.817   3.498  0.0282 -0.0976 -0.1364
 1921DPPC   C1B44745  18.012  24.524   4.290  0.1148 -0.0908  0.2487
 1921DPPC   C2B44746  18.297  24.807   4.303  0.0608  0.0694  0.4259
 1921DPPC   C3B44747  18.659  25.053   4.136  0.1294  0.2808  0.0563
 1921DPPC   C4B44748  19.100  25.177   4.244 -0.2716  0.0250 -0.1201
 1922DPPC   NC344749  27.132  36.143  11.686  0.2049  0.1678 -0.1713
 1922DPPC   PO444750  27.451  36.224  11.357 -0.0522  0.2500 -0.0116
 1922DPPC   GL144751  27.486  35.850  11.521 -0.1851  0.1011 -0.3015
 1922DPPC   GL244752  27.604  35.887  11.881 -0.0516  0.0230  0.1540
 1922DPPC   C1A44753  27.422  35.425  11.736 -0.0987 -0.2271  0.1722
 1922DPPC   C2A44754  27.667  35.035  11.694  0.0948 -0.1439 -0.3413
 1922DPPC   C3A44755  27.728  34.788  12.056 -0.0205 -0.1403 -0.0729
 1922DPPC   C4A44756  27.766  34.389  12.090  0.1126  0.2923 -0.2537
 1922DPPC   C1B44757  27.540  35.725  12.252  0.1357 -0.1137  0.0907
 1922DPPC   C2B44758  27.349  35.542  12.675 -0.0953  0.2191  0.0767
 1922DPPC   C3B44759  27.072  35.479  13.021 -0.0023 -0.2396  0.2090
 1922DPPC   C4B44760  26.571  35.364  13.082  0.2192 -0.1045  0.1012
 1923DPPC   NC344761  25.380  28.149  26.654  0.0887  0.0470  0.1793
 1923DPPC   PO444762  25.361  27.701  26.580 -0.2475 -0.1678  0.1963
 1923DPPC   GL144763  25.065  27.477  26.609  0.0629  0.0716 -0.1643
 1923DPPC   GL244764  24.940  27.267  26.401  0.2203  0.1039 -0.0137
 1923DPPC   C1A44765  24.727  27.211  26.911  0.1364 -0.2875  0.2848
 1923DPPC   C2A44766  24.713  26.830  26.904  0.0843  0.3976 -0.2653
 1923DPPC   C3A44767  24.725  26.477   0.048  0.1446  0.0101  0.1273
 1923DPPC   C4A44768  25.052  26.132   0.007 -0.0227  0.1907  0.1711
 1923DPPC   C1B44769  24.550  27.049  26.493  0.0611 -0.0807 -0.2897
 1923DPPC   C2B44770  24.175  26.899  26.525  0.1089 -0.1250 -0.0851
 1923DPPC   C3B44771  24.218  26.557  26.773  0.1739  0.1420  0.0893
 1923DPPC   C4B44772  24.035  26.289   0.184  0.0288  0.0959  0.0302
 1924DPPC   NC344773  15.870  32.285  26.171  0.1088  0.1722  0.2485
 1924DPPC   PO444774  15.655  32.282  25.762 -0.1617 -0.1848 -0.0509
 1924DPPC   GL144775  15.987  32.053  25.734  0.1190  0.1087 -0.3449
 1924DPPC   GL244776  16.309  32.290  25.517  0.1092  0.1106  0.0746
 1924DPPC   C1A44777  16.174  31.614  25.829  0.0477  0.0608  0.0215
 1924DPPC   C2A44778  16.438  31.405  26.157 -0.1082  0.0817  0.2375
 1924DPPC   C3A44779  16.902  31.389  26.064 -0.0147  0.0831 -0.0422
 1924DPPC   C4A44780  17.154  31.050  26.143 -0.2387 -0.0723 -0.1899
 1924DPPC   C1B44781  16.631  32.092  25.655  0.0261  0.1201 -0.0608
 1924DPPC   C2B44782  16.970  31.877  25.577 -0.1292  0.1372 -0.1519
 1924DPPC   C3B44783  17.316  31.654  25.410 -0.0042  0.2400  0.0514
 1924DPPC   C4B44784  17.683  31.566  25.269  0.2276 -0.2416  0.2411
 1925DPPC   NC344785  16.728  19.902  25.702  0.0325 -0.0855 -0.1231
 1925DPPC   PO444786  16.999  19.595  25.508  0.0691  0.0794  0.6103
 1925DPPC   GL144787  17.460  19.737  25.445  0.0054 -0.2338  0.0168
 1925DPPC   GL244788  17.733  19.567  25.298 -0.0199  0.0948 -0.0921
 1925DPPC   C1A44789  17.673  20.061  25.240 -0.1110 -0.3477  0.0057
 1925DPPC   C2A44790  17.871  20.340  24.965 -0.1224  0.1722  0.2053
 1925DPPC   C3A44791  18.003  20.614  24.640  0.2126 -0.1576  0.0570
 1925DPPC   C4A44792  18.205  20.955  24.490  0.0312  0.3226 -0.1655
 1925DPPC   C1B44793  17.972  19.434  25.040  0.0115 -0.1199 -0.4937
 1925DPPC   C2B44794  18.193  19.228  24.550 -0.0289 -0.1135 -0.4824
 1925DPPC   C3B44795  18.516  19.076  24.264  0.1109  0.1785 -0.1665
 1925DPPC   C4B44796  18.875  18.811  24.099  0.0337 -0.0420  0.3131
 1926DPPC   NC344797  16.931  26.950  14.958 -0.2003 -0.0740  0.1329
 1926DPPC   PO444798  17.032  26.873  15.447  0.0488 -0.2558  0.1223
 1926DPPC   GL144799  17.406  26.938  15.773 -0.1680  0.2069  0.1324
 1926DPPC   GL244800  17.510  26.771  16.103 -0.0444  0.4255  0.1388
 1926DPPC   C1A44801  17.636  27.263  16.009  0.0014 -0.1625 -0.1121
 1926DPPC   C2A44802  17.893  27.559  16.094  0.0922 -0.4328 -0.1888
 1926DPPC   C3A44803  17.969  27.705  16.508 -0.2162 -0.0888  0.0549
 1926DPPC   C4A44804  18.226  27.983  16.597  0.1186  0.2141 -0.0293
 1926DPPC   C1B44805  17.500  26.717  16.610 -0.2938 -0.1232 -0.1007
 1926DPPC   C2B44806  17.732  26.608  17.004  0.1609 -0.1973  0.1154
 1926DPPC   C3B44807  17.829  26.294  17.172 -0.1760 -0.1377  0.0871
 1926DPPC   C4B44808  18.036  26.148  17.550  0.1417 -0.0016 -0.2468
 1927DPPC   NC344809  29.739  27.903   7.079  0.2074  0.4428 -0.1642
 1927DPPC   PO444810  29.971  27.850   6.718 -0.0899 -0.2026  0.2093
 1927DPPC   GL144811  29.821  27.723   6.283 -0.0489  0.0444 -0.0810
 1927DPPC   GL244812  29.661  27.417   6.111  0.2168  0.2384  0.0455
 1927DPPC   C1A44813  29.917  27.842   5.901  0.0791  0.0892 -0.3592
 1927DPPC   C2A44814  29.860  27.708   5.368  0.5614 -0.1245 -0.1760
 1927DPPC   C3A44815  29.962  27.558   4.925  0.2856 -0.1561 -0.0483
 1927DPPC   C4A44816  29.849  27.602   4.426 -0.0316  0.1787  0.3268
 1927DPPC   C1B44817  30.033  27.363   5.885 -0.1849 -0.1486  0.0611
 1927DPPC   C2B44818  30.414  27.482   5.530 -0.1396 -0.1882 -0.0797
 1927DPPC   C3B44819  30.278  27.876   5.201 -0.2690  0.0430 -0.0396
 1927DPPC   C4B44820  29.957  28.263   5.192 -0.0497 -0.1561 -0.4143
 1928DPPC   NC344821  39.027  30.157   0.520 -0.2219 -0.3487 -0.0765
 1928DPPC   PO444822  38.827  30.647   0.571  0.0544  0.1610  0.1983
 1928DPPC   GL144823  38.490  30.870   0.410 -0.2604  0.2073 -0.2585
 1928DPPC   GL244824  38.361  30.622   0.445  0.1398 -0.0959 -0.3624
 1928DPPC   C1A44825  38.268  31.066   0.077  0.2671  0.0398  0.0447
 1928DPPC   C2A44826  38.003  31.123  26.613  0.0938  0.1656 -0.1014
 1928DPPC   C3A44827  37.658  31.213  26.277 -0.0919  0.0082  0.1775
 1928DPPC   C4A44828  37.381  31.524  26.172 -0.3606 -0.0876 -0.2913
 1928DPPC   C1B44829  38.246  30.429   0.099 -0.1031 -0.0325 -0.3078
 1928DPPC   C2B44830  38.115  30.651  26.699 -0.1011 -0.0081 -0.0164
 1928DPPC   C3B44831  38.103  30.764  26.292 -0.3255 -0.2764  0.0257
 1928DPPC   C4B44832  38.255  30.510  25.917 -0.0786 -0.1827  0.3353
 1929DPPC   NC344833  22.832  15.991  19.546  0.0409 -0.2013 -0.3464
 1929DPPC   PO444834  22.796  16.357  19.558 -0.0636 -0.1905  0.0707
 1929DPPC   GL144835  22.768  16.615  19.969 -0.2214  0.0225 -0.1362
 1929DPPC   GL244836  23.035  16.472  20.171  0.1120  0.0416  0.1969
 1929DPPC   C1A44837  22.662  17.024  20.281  0.0134  0.1192  0.0934
 1929DPPC   C2A44838  22.264  17.359  20.378 -0.2760  0.2135 -0.0131
 1929DPPC   C3A44839  22.037  17.573  20.099  0.3891  0.0201 -0.2159
 1929DPPC   C4A44840  21.654  17.963  19.847 -0.2058  0.0996 -0.0540
 1929DPPC   C1B44841  22.940  16.651  20.481 -0.1976  0.0452 -0.0384
 1929DPPC   C2B44842  22.720  16.555  20.815  0.0291  0.1726 -0.1754
 1929DPPC   C3B44843  22.413  16.722  21.222 -0.0473  0.0560 -0.1089
 1929DPPC   C4B44844  21.991  16.675  21.305  0.0736 -0.1593 -0.1120
 1930DPPC   NC344845  19.328  38.348  24.589  0.0943 -0.0741 -0.0227
 1930DPPC   PO444846  19.644  38.216  24.362 -0.2410  0.1133  0.1810
 1930DPPC   GL144847  19.960  38.015  24.154 -0.2695  0.2692 -0.1174
 1930DPPC   GL244848  19.840  37.916  23.858  0.0984 -0.1271 -0.4250
 1930DPPC   C1A44849  20.328  37.731  24.202  0.1417 -0.1939 -0.5694
 1930DPPC   C2A44850  20.609  37.509  24.325  0.0306 -0.1786 -0.1381
 1930DPPC   C3A44851  21.016  37.277  24.479  0.1180  0.1828 -0.1571
 1930DPPC   C4A44852  21.481  37.187  24.398  0.1994 -0.0463  0.2128
 1930DPPC   C1B44853  20.038  37.595  23.870  0.2604 -0.0968 -0.0371
 1930DPPC   C2B44854  20.347  37.301  23.988 -0.3404 -0.0246  0.2148
 1930DPPC   C3B44855  20.750  37.105  24.072 -0.1244  0.2389  0.3068
 1930DPPC   C4B44856  21.197  37.106  23.883  0.0685  0.3670 -0.0735
 1931DPPC   NC344857  21.095  18.197   2.565 -0.1658  0.0627 -0.3035
 1931DPPC   PO444858  20.954  18.269   2.084  0.1267 -0.1766  0.3609
 1931DPPC   GL144859  21.312  18.482   1.831  0.2606  0.2929 -0.0788
 1931DPPC   GL244860  21.240  18.765   1.579 -0.0207 -0.4459  0.0669
 1931DPPC   C1A44861  21.696  18.679   1.785  0.0775  0.2216  0.2517
 1931DPPC   C2A44862  22.109  19.013   1.897 -0.0589  0.1004  0.1242
 1931DPPC   C3A44863  22.035  19.352   1.700 -0.1038 -0.0752  0.2227
 1931DPPC   C4A44864  21.814  19.641   1.364  0.0067  0.1428 -0.1300
 1931DPPC   C1B44865  21.039  19.104   1.865 -0.1534  0.1898  0.2953
 1931DPPC   C2B44866  21.233  19.409   2.240  0.0173 -0.1958  0.0223
 1931DPPC   C3B44867  21.237  19.660   2.589 -0.2846 -0.2632 -0.3855
 1931DPPC   C4B44868  21.018  19.860   2.798 -0.2017 -0.4110  0.2707
 1932DPPC   NC344869  32.676  32.434  10.228  0.0052 -0.2602  0.1020
 1932DPPC   PO444870  32.720  32.364  10.568  0.3167 -0.0803  0.1548
 1932DPPC   GL144871  32.595  32.215  11.091 -0.1893  0.0040 -0.0278
 1932DPPC   GL244872  32.470  32.568  11.154  0.1325 -0.0620  0.1062
 1932DPPC   C1A44873  32.726  32.181  11.506 -0.1821  0.3656 -0.0054
 1932DPPC   C2A44874  32.817  31.866  11.865 -0.1343  0.1854 -0.0990
 1932DPPC   C3A44875  32.665  31.763  12.165 -0.1496 -0.1038  0.0378
 1932DPPC   C4A44876  32.675  31.439  12.441  0.3362  0.0308 -0.0709
 1932DPPC   C1B44877  32.244  32.295  11.361  0.3826  0.0295  0.0933
 1932DPPC   C2B44878  32.194  32.124  11.818  0.0686 -0.1104 -0.0344
 1932DPPC   C3B44879  31.950  32.018  12.251 -0.1925  0.2160  0.0405
 1932DPPC   C4B44880  31.581  32.018  12.535 -0.0399 -0.3684 -0.3053
 1933DPPC   NC344881  33.851  39.265  26.903 -0.2011  0.1677  0.2192
 1933DPPC   PO444882  34.336  39.145  26.873  0.3077 -0.0964 -0.0219
 1933DPPC   GL144883  34.081  38.759   0.004  0.1112  0.4175  0.1733
 1933DPPC   GL244884  33.735  38.767  26.844  0.0794  0.0334  0.1855
 1933DPPC   C1A44885  33.985  38.353   0.180  0.2217 -0.0331  0.1986
 1933DPPC   C2A44886  34.174  37.934   0.363  0.4514 -0.0169  0.2910
 1933DPPC   C3A44887  34.101  37.520   0.164  0.0293 -0.1648 -0.2094
 1933DPPC   C4A44888  33.826  37.390  26.820  0.0603  0.3411 -0.0302
 1933DPPC   C1B44889  33.512  38.419  26.654 -0.3112 -0.2992 -0.1104
 1933DPPC   C2B44890  33.175  38.420  26.277  0.2832 -0.0888 -0.1841
 1933DPPC   C3B44891  33.019  38.108  25.961 -0.3240  0.1576 -0.1141
 1933DPPC   C4B44892  33.046  37.741  25.654 -0.1358  0.0790  0.1798
 1934DPPC   NC344893  21.136  29.517  21.720  0.0212 -0.6793 -0.0893
 1934DPPC   PO444894  20.973  29.313  22.068  0.3465  0.3592  0.3645
 1934DPPC   GL144895  20.834  28.886  22.041  0.1646  0.0318 -0.0595
 1934DPPC   GL244896  20.538  28.856  21.877 -0.0590 -0.1590  0.2271
 1934DPPC   C1A44897  20.613  28.463  22.242 -0.2013 -0.1135 -0.0617
 1934DPPC   C2A44898  20.320  28.204  22.087  0.0950  0.1326  0.1114
 1934DPPC   C3A44899  19.995  28.039  21.921  0.1814  0.1389 -0.0026
 1934DPPC   C4A44900  19.728  27.766  22.019 -0.1646 -0.6769  0.0360
 1934DPPC   C1B44901  20.104  29.079  21.741  0.0877  0.1570  0.1704
 1934DPPC   C2B44902  19.753  29.084  22.017 -0.0699  0.1222 -0.3396
 1934DPPC   C3B44903  19.601  28.930  22.390 -0.0039 -0.1233 -0.1883
 1934DPPC   C4B44904  19.238  29.017  22.613 -0.1483  0.1779 -0.0104
 1935DPPC   NC344905  13.148  27.072  26.181 -0.1575  0.2574 -0.3056
 1935DPPC   PO444906  13.287  27.468  26.292  0.0499 -0.2077  0.0821
 1935DPPC   GL144907  13.537  27.323  25.973 -0.1828 -0.1265 -0.1475
 1935DPPC   GL244908  13.406  27.358  25.655  0.0454 -0.0799  0.3252
 1935DPPC   C1A44909  13.776  27.024  25.845 -0.1474  0.0195 -0.0672
 1935DPPC   C2A44910  14.199  26.885  25.871 -0.1528  0.1497 -0.2745
 1935DPPC   C3A44911  14.478  26.447  26.003  0.1607  0.0016 -0.1452
 1935DPPC   C4A44912  14.602  26.135  25.898 -0.0785 -0.1544 -0.0409
 1935DPPC   C1B44913  13.520  27.564  25.265 -0.0422 -0.1716 -0.0334
 1935DPPC   C2B44914  13.623  27.884  24.944  0.4587  0.1201  0.2013
 1935DPPC   C3B44915  13.865  27.781  24.529  0.1095  0.0599  0.1534
 1935DPPC   C4B44916  13.645  28.032  24.248  0.0111 -0.2041  0.0669
 1936DPPC   NC344917  33.190  41.356  24.116  0.0095 -0.0227  0.0257
 1936DPPC   PO444918  33.126  40.971  24.512 -0.1053  0.0664  0.3341
 1936DPPC   GL144919  32.691  40.786  24.382  0.0051 -0.2532 -0.2398
 1936DPPC   GL244920  32.594  40.541  24.415  0.1012  0.0440 -0.3441
 1936DPPC   C1A44921  32.317  40.925  24.193  0.0558  0.1954  0.0454
 1936DPPC   C2A44922  31.854  40.819  24.112 -0.0323 -0.0907  0.4098
 1936DPPC   C3A44923  31.423  40.686  24.115  0.0508  0.1269  0.1761
 1936DPPC   C4A44924  31.079  40.434  23.933 -0.1850  0.0730 -0.0538
 1936DPPC   C1B44925  32.112  40.463  24.450  0.1438  0.2060  0.1071
 1936DPPC   C2B44926  31.710  40.381  24.398  0.0647  0.1167  0.3338
 1936DPPC   C3B44927  31.375  40.188  24.275 -0.2050  0.0759 -0.1329
 1936DPPC   C4B44928  31.308  39.985  23.875 -0.0704  0.1957 -0.2094
 1937DPPC   NC344929  28.051  27.665   9.685 -0.1713  0.2477  0.0182
 1937DPPC   PO444930  27.614  27.399   9.798 -0.0029  0.0854  0.0183
 1937DPPC   GL144931  27.687  27.449  10.238  0.0887  0.2485 -0.0779
 1937DPPC   GL244932  28.045  27.538  10.191  0.1133  0.2131  0.0355
 1937DPPC   C1A44933  27.673  27.507  10.706 -0.0484  0.0565  0.0016
 1937DPPC   C2A44934  27.842  27.564  11.011 -0.1576 -0.1399 -0.2008
 1937DPPC   C3A44935  27.866  27.812  11.398  0.1899  0.2729 -0.0624
 1937DPPC   C4A44936  28.031  27.956  11.757  0.1607  0.0037 -0.4019
 1937DPPC   C1B44937  28.197  27.696  10.635  0.0997  0.1246  0.3088
 1937DPPC   C2B44938  28.298  27.889  10.997 -0.3062 -0.0401 -0.1643
 1937DPPC   C3B44939  28.324  27.665  11.388  0.2423  0.1987  0.5552
 1937DPPC   C4B44940  28.515  27.707  11.753  0.1833 -0.2324 -0.0865
 1938DPPC   NC344941  29.279  26.047   7.370  0.1451  0.0858  0.3725
 1938DPPC   PO444942  28.920  26.175   7.148 -0.0540 -0.2098 -0.0768
 1938DPPC   GL144943  28.471  25.995   6.995  0.2384  0.0981 -0.1668
 1938DPPC   GL244944  28.284  25.925   7.265  0.0575 -0.1873  0.2333
 1938DPPC   C1A44945  28.147  25.869   6.607 -0.0935  0.0790  0.1038
 1938DPPC   C2A44946  27.794  25.932   6.650 -0.1419  0.2399  0.0066
 1938DPPC   C3A44947  27.438  26.148   6.652  0.2591 -0.1844  0.0274
 1938DPPC   C4A44948  27.522  26.559   6.849 -0.3148  0.2678  0.1089
 1938DPPC   C1B44949  27.991  26.231   7.062  0.1378  0.0732 -0.1740
 1938DPPC   C2B44950  27.982  26.374   6.657  0.6051 -0.2574  0.0013
 1938DPPC   C3B44951  27.851  26.327   6.278 -0.2126 -0.2129 -0.0978
 1938DPPC   C4B44952  27.882  26.423   5.871  0.1847  0.1902 -0.2629
 1939DPPC   NC344953  18.550  17.713  18.318  0.0987  0.0970  0.1900
 1939DPPC   PO444954  18.720  17.509  18.650  0.0473  0.0765 -0.1456
 1939DPPC   GL144955  19.067  17.671  18.851 -0.0926  0.0058 -0.0733
 1939DPPC   GL244956  19.313  17.407  18.976  0.1684  0.2318  0.1647
 1939DPPC   C1A44957  19.306  18.003  19.181  0.0151  0.4664  0.1301
 1939DPPC   C2A44958  19.559  18.298  19.330 -0.1956 -0.2437  0.0347
 1939DPPC   C3A44959  19.641  18.308  19.780  0.0843  0.1195 -0.0255
 1939DPPC   C4A44960  19.518  18.156  20.144  0.0095  0.5863  0.2204
 1939DPPC   C1B44961  19.702  17.585  19.195  0.1126 -0.0185 -0.0755
 1939DPPC   C2B44962  20.068  17.668  19.212  0.0236 -0.0222  0.0797
 1939DPPC   C3B44963  20.378  17.924  19.047  0.0198 -0.1305  0.0488
 1939DPPC   C4B44964  20.536  18.356  19.200 -0.0132 -0.2227 -0.0202
 1940DPPC   NC344965  15.229  20.825  19.472  0.2243 -0.5449  0.2166
 1940DPPC   PO444966  15.170  20.874  19.895  0.0019  0.1458 -0.3053
 1940DPPC   GL144967  15.618  21.063  19.688  0.0851  0.1922 -0.1368
 1940DPPC   GL244968  15.591  21.206  19.350  0.0524  0.2621 -0.0186
 1940DPPC   C1A44969  16.067  21.155  19.560 -0.1906  0.2570 -0.0280
 1940DPPC   C2A44970  16.271  21.420  19.177  0.0369 -0.1106 -0.1146
 1940DPPC   C3A44971  16.519  21.588  19.258 -0.1899  0.1468 -0.1113
 1940DPPC   C4A44972  16.995  21.608  19.344  0.0989  0.0860  0.0831
 1940DPPC   C1B44973  15.779  21.615  19.280  0.0703 -0.0883 -0.0175
 1940DPPC   C2B44974  16.017  21.844  19.277 -0.0618 -0.0915 -0.1688
 1940DPPC   C3B44975  16.399  22.041  19.470  0.2569  0.1431  0.1105
 1940DPPC   C4B44976  16.776  22.199  19.233 -0.1015 -0.1515  0.0197
 1941DPPC   NC344977  35.471  37.428   0.779  0.1217  0.0197 -0.1389
 1941DPPC   PO444978  35.180  37.854   0.812  0.0209 -0.0964  0.1621
 1941DPPC   GL144979  34.961  37.504   0.666  0.1117  0.0273  0.0157
 1941DPPC   GL244980  34.691  37.658   0.653  0.2905 -0.0623 -0.4110
 1941DPPC   C1A44981  34.868  37.273   0.327 -0.0694  0.0196 -0.0154
 1941DPPC   C2A44982  34.515  37.099   0.202 -0.1818 -0.0831  0.1718
 1941DPPC   C3A44983  34.074  37.029   0.155 -0.2685  0.4519  0.1204
 1941DPPC   C4A44984  33.745  36.872   0.008 -0.2738 -0.1299 -0.0497
 1941DPPC   C1B44985  34.357  37.394   0.710 -0.0398 -0.3009  0.0554
 1941DPPC   C2B44986  34.253  37.031   0.640  0.0665  0.0402 -0.3513
 1941DPPC   C3B44987  34.169  36.634   0.587  0.2861  0.0334  0.0962
 1941DPPC   C4B44988  33.715  36.610   0.460  0.0998  0.1202  0.0531
 1942DPPC   NC344989  27.945  16.426   0.975  0.0649  0.2298  0.0319
 1942DPPC   PO444990  28.048  16.793   0.991  0.0168 -0.0473 -0.0747
 1942DPPC   GL144991  27.833  17.073   0.804 -0.1238  0.2127  0.2151
 1942DPPC   GL244992  27.606  16.777   0.741 -0.1511 -0.0949 -0.0307
 1942DPPC   C1A44993  27.583  17.302   0.527  0.1944  0.2599 -0.1908
 1942DPPC   C2A44994  27.473  17.724   0.459  0.2377 -0.0559  0.0732
 1942DPPC   C3A44995  27.171  18.062   0.621 -0.0076  0.4168  0.0199
 1942DPPC   C4A44996  27.030  18.552   0.550  0.0470  0.0431 -0.6104
 1942DPPC   C1B44997  27.287  17.059   0.947  0.0491  0.3882  0.0865
 1942DPPC   C2B44998  26.807  17.198   1.064  0.0648  0.0101 -0.0408
 1942DPPC   C3B44999  26.466  17.196   1.118 -0.1202  0.0147  0.0087
 1942DPPC   C4B45000  25.962  16.933   1.114  0.0648 -0.6037 -0.4512
 1943DPPC   NC345001  20.815  31.507   5.725  0.0466  0.0547 -0.1655
 1943DPPC   PO445002  20.389  31.367   5.810 -0.0463 -0.2462 -0.2657
 1943DPPC   GL145003  20.595  31.152   5.530  0.1173  0.1171 -0.1739
 1943DPPC   GL245004  20.725  30.824   5.619  0.1460 -0.1899 -0.2742
 1943DPPC   C1A45005  20.912  31.072   5.210  0.2208 -0.4170 -0.4313
 1943DPPC   C2A45006  21.219  30.880   4.933 -0.0767 -0.0111  0.3293
 1943DPPC   C3A45007  21.609  30.707   5.005 -0.1169  0.2485 -0.3366
 1943DPPC   C4A45008  21.774  30.537   5.347  0.0907 -0.1505 -0.1310
 1943DPPC   C1B45009  20.729  30.593   5.309  0.0876 -0.2573 -0.1809
 1943DPPC   C2B45010  20.684  30.302   4.934  0.1596 -0.1047  0.0210
 1943DPPC   C3B45011  20.456  29.931   4.915  0.0604  0.2042  0.3903
 1943DPPC   C4B45012  20.517  29.683   4.551 -0.1743  0.2687 -0.2107
 1944DPPC   NC345013  13.398  26.010  20.905 -0.0020 -0.3731  0.0151
 1944DPPC   PO445014  13.274  26.369  20.575 -0.1124 -0.0658 -0.0582
 1944DPPC   GL145015  13.665  26.520  20.835 -0.1740 -0.3255 -0.1736
 1944DPPC   GL245016  13.941  26.476  20.541  0.6178 -0.3077  0.0602
 1944DPPC   C1A45017  13.723  26.449  21.221  0.0109  0.1978  0.1335
 1944DPPC   C2A45018  13.987  26.517  21.664 -0.0062 -0.0909 -0.1024
 1944DPPC   C3A45019  14.154  26.289  22.049  0.0730 -0.1580  0.1000
 1944DPPC   C4A45020  14.407  26.337  22.346 -0.2007  0.1363  0.0555
 1944DPPC   C1B45021  14.146  26.431  20.915 -0.3698  0.1347 -0.0466
 1944DPPC   C2B45022  14.381  26.706  21.299 -0.2484 -0.2240  0.0150
 1944DPPC   C3B45023  14.433  26.707  21.760 -0.0858  0.0951 -0.2440
 1944DPPC   C4B45024  14.243  26.788  22.117  0.3157  0.3317  0.1848
 1945DPPC   NC345025  36.325  30.901  12.887  0.1609 -0.2780  0.0341
 1945DPPC   PO445026  36.259  30.586  13.041 -0.4131 -0.2842 -0.1219
 1945DPPC   GL145027  35.999  30.600  13.253 -0.1833 -0.0880 -0.0438
 1945DPPC   GL245028  36.028  30.938  13.365  0.0479 -0.0077 -0.0749
 1945DPPC   C1A45029  35.842  30.429  13.671 -0.2937  0.0630 -0.0685
 1945DPPC   C2A45030  35.577  30.106  13.968  0.0724 -0.1485 -0.0075
 1945DPPC   C3A45031  35.514  29.727  14.221  0.0491 -0.2900  0.0393
 1945DPPC   C4A45032  35.244  29.691  14.579 -0.3518  0.4395 -0.2988
 1945DPPC   C1B45033  35.719  31.333  13.378  0.0487  0.1758 -0.1146
 1945DPPC   C2B45034  35.599  31.694  13.819  0.1554  0.1588  0.0433
 1945DPPC   C3B45035  35.766  31.542  14.134  0.0237  0.1211 -0.3421
 1945DPPC   C4B45036  35.760  31.579  14.601 -0.0538 -0.2039 -0.2145
 1946DPPC   NC345037  34.861  19.681  21.469 -0.1595  0.0002 -0.0901
 1946DPPC   PO445038  34.459  19.562  21.541 -0.0927  0.2119  0.2177
 1946DPPC   GL145039  34.032  19.796  21.511  0.0518  0.0393 -0.0596
 1946DPPC   GL245040  34.133  20.013  21.749  0.2102  0.1705 -0.2523
 1946DPPC   C1A45041  33.775  20.123  21.438  0.1854  0.2574  0.0370
 1946DPPC   C2A45042  33.364  20.137  21.370  0.2992  0.0219 -0.0464
 1946DPPC   C3A45043  33.193  20.402  21.109 -0.1537  0.0356 -0.0409
 1946DPPC   C4A45044  32.822  20.656  21.051  0.3032 -0.3045  0.2390
 1946DPPC   C1B45045  34.030  20.488  21.722  0.0870 -0.1077  0.1109
 1946DPPC   C2B45046  33.696  20.718  21.702  0.1249 -0.0894 -0.0406
 1946DPPC   C3B45047  33.389  20.648  21.478  0.1602  0.1034 -0.1662
 1946DPPC   C4B45048  32.854  20.727  21.569 -0.2693 -0.2016 -0.1369
 1947DPPC   NC345049  18.610  19.300  26.393 -0.0957 -0.0136  0.1628
 1947DPPC   PO445050  18.382  19.240  26.691 -0.0981 -0.0949  0.1340
 1947DPPC   GL145051  18.606  19.726  26.709  0.0219  0.2456 -0.0375
 1947DPPC   GL245052  18.232  19.768  26.593  0.4343  0.1369 -0.2403
 1947DPPC   C1A45053  18.841  20.143  26.685  0.0748 -0.1688 -0.1931
 1947DPPC   C2A45054  18.660  20.450  26.811  0.2320 -0.0925  0.0229
 1947DPPC   C3A45055  18.778  20.886  26.671 -0.0709  0.3475  0.2763
 1947DPPC   C4A45056  19.118  21.152  26.449 -0.0912 -0.0210 -0.0263
 1947DPPC   C1B45057  18.295  19.932  26.158 -0.3074  0.4007 -0.0783
 1947DPPC   C2B45058  18.467  20.126  25.756 -0.0776 -0.1052  0.1169
 1947DPPC   C3B45059  18.556  20.539  25.771 -0.1244  0.3872  0.1324
 1947DPPC   C4B45060  18.878  20.867  25.660 -0.0109 -0.2965 -0.1758
 1948DPPC   NC345061  30.409  37.520  12.386  0.1129  0.4571  0.1065
 1948DPPC   PO445062  29.903  37.489  12.300  0.0792  0.4944 -0.3244
 1948DPPC   GL145063  29.906  37.538  12.802  0.2393  0.0896 -0.2631
 1948DPPC   GL245064  29.596  37.457  12.874 -0.3052 -0.2329 -0.0312
 1948DPPC   C1A45065  29.896  37.502  13.275 -0.5122 -0.0424  0.1675
 1948DPPC   C2A45066  29.519  37.253  13.416  0.3322 -0.1355  0.1450
 1948DPPC   C3A45067  29.242  37.159  13.705 -0.1993  0.3715 -0.1486
 1948DPPC   C4A45068  28.756  37.225  13.926 -0.1365 -0.1022  0.0337
 1948DPPC   C1B45069  29.629  37.844  13.045 -0.1139 -0.0633 -0.4254
 1948DPPC   C2B45070  29.349  38.154  13.258  0.0080  0.0267 -0.0981
 1948DPPC   C3B45071  28.890  38.118  13.494 -0.0258  0.3604 -0.4640
 1948DPPC   C4B45072  28.488  37.952  13.484 -0.2901  0.1525 -0.5307
 1949DPPC   NC345073  24.101  42.102  20.897 -0.1104  0.0142 -0.1609
 1949DPPC   PO445074  23.938  41.758  21.103  0.3311  0.2889  0.0313
 1949DPPC   GL145075  24.143  41.451  20.990  0.1558 -0.3121 -0.1632
 1949DPPC   GL245076  24.282  41.472  20.812  0.4392  0.0039  0.0640
 1949DPPC   C1A45077  24.142  40.955  21.036  0.1238 -0.0727  0.2307
 1949DPPC   C2A45078  24.051  40.476  20.918 -0.1690  0.1198 -0.2251
 1949DPPC   C3A45079  23.783  40.291  21.255 -0.2811 -0.0138  0.0770
 1949DPPC   C4A45080  23.501  39.824  21.305  0.0036 -0.5332 -0.0938
 1949DPPC   C1B45081  24.504  41.093  20.574 -0.0168 -0.0581 -0.1853
 1949DPPC   C2B45082  24.440  40.771  20.306 -0.3756 -0.1384 -0.2105
 1949DPPC   C3B45083  24.316  40.559  19.905  0.3585  0.1552  0.1671
 1949DPPC   C4B45084  24.220  40.693  19.561 -0.1624  0.1760 -0.0506
 1950DPPC   NC345085  31.480  24.931  10.354  0.0413 -0.1149  0.0100
 1950DPPC   PO445086  31.179  25.156  10.730  0.1367  0.0932  0.0474
 1950DPPC   GL145087  30.926  25.348  11.081  0.4528  0.2216 -0.0665
 1950DPPC   GL245088  31.069  25.546  11.273  0.1288  0.0625  0.1908
 1950DPPC   C1A45089  30.533  25.563  11.299 -0.0641  0.2373 -0.2034
 1950DPPC   C2A45090  30.164  25.544  11.533 -0.0939  0.1358 -0.1719
 1950DPPC   C3A45091  30.368  25.422  11.993  0.1695 -0.0012 -0.0813
 1950DPPC   C4A45092  30.425  25.769  12.243  0.2218  0.0219 -0.0788
 1950DPPC   C1B45093  30.894  25.973  11.332  0.3746  0.2118 -0.0064
 1950DPPC   C2B45094  30.822  26.344  11.418 -0.0622 -0.2135 -0.0650
 1950DPPC   C3B45095  30.744  26.753  11.574 -0.1068 -0.0236  0.1675
 1950DPPC   C4B45096  30.488  27.011  11.423  0.0925  0.1709  0.1272
 1951DPPC   NC345097  32.499  38.833   1.244  0.1976 -0.2315  0.2603
 1951DPPC   PO445098  32.101  38.675   1.433  0.1932 -0.0540 -0.2703
 1951DPPC   GL145099  32.099  38.274   1.315 -0.1964  0.3151  0.0603
 1951DPPC   GL245100  32.311  38.118   1.502  0.0266 -0.1447 -0.1036
 1951DPPC   C1A45101  32.137  38.073   0.969  0.2230 -0.0976  0.3037
 1951DPPC   C2A45102  32.071  37.751   0.634  0.1884  0.0987  0.2078
 1951DPPC   C3A45103  32.089  37.292   0.765 -0.0108  0.2464 -0.1569
 1951DPPC   C4A45104  32.186  36.974   0.940 -0.0294 -0.3015  0.1726
 1951DPPC   C1B45105  32.204  37.670   1.171 -0.3599  0.2381  0.1449
 1951DPPC   C2B45106  31.853  37.456   1.371 -0.2676 -0.1088 -0.1218
 1951DPPC   C3B45107  31.465  37.171   1.487 -0.2941 -0.0142  0.1889
 1951DPPC   C4B45108  31.251  36.778   1.224 -0.0590 -0.2381 -0.1444
 1952DPPC   NC345109  16.777  21.137   0.799 -0.3694  0.0505 -0.1125
 1952DPPC   PO445110  17.189  20.993   0.733  0.0777 -0.0375  0.0080
 1952DPPC   GL145111  17.200  21.453   0.754  0.1817 -0.1838 -0.1491
 1952DPPC   GL245112  16.920  21.616   0.583  0.3313  0.0987  0.0428
 1952DPPC   C1A45113  17.519  21.756   0.864  0.0497 -0.2691  0.2985
 1952DPPC   C2A45114  17.708  22.098   0.726 -0.1672 -0.1954 -0.1711
 1952DPPC   C3A45115  18.088  22.368   0.789 -0.3390  0.1069 -0.3624
 1952DPPC   C4A45116  18.332  22.537   0.978 -0.3490 -0.2134 -0.2675
 1952DPPC   C1B45117  16.976  21.721   0.187  0.0907 -0.0564  0.0245
 1952DPPC   C2B45118  17.044  22.155  26.891 -0.1409 -0.0146 -0.1499
 1952DPPC   C3B45119  17.025  22.600  26.839 -0.1808 -0.0718  0.0066
 1952DPPC   C4B45120  16.971  23.066  26.599 -0.1399  0.1608  0.0813
 1953DPPC   NC345121  38.305  30.995   2.084 -0.2078 -0.1843  0.1352
 1953DPPC   PO445122  37.958  31.327   2.046  0.2515  0.1601  0.0025
 1953DPPC   GL145123  37.665  31.252   1.687  0.0826 -0.1640 -0.3613
 1953DPPC   GL245124  37.910  31.375   1.357  0.0953  0.0646 -0.2977
 1953DPPC   C1A45125  37.499  31.034   1.322 -0.0137  0.0627 -0.1016
 1953DPPC   C2A45126  37.230  30.924   1.050 -0.1242  0.0621 -0.0763
 1953DPPC   C3A45127  37.086  31.002   0.614  0.0276 -0.1175 -0.1428
 1953DPPC   C4A45128  37.061  30.911   0.128 -0.2017  0.1041  0.1611
 1953DPPC   C1B45129  37.584  31.641   1.319  0.1366 -0.0083 -0.0020
 1953DPPC   C2B45130  37.073  31.526   1.223  0.1501 -0.2628 -0.2773
 1953DPPC   C3B45131  36.781  31.310   0.946  0.1039 -0.3065 -0.2080
 1953DPPC   C4B45132  36.512  31.075   0.677  0.2594  0.2824  0.4070
 1954DPPC   NC345133  33.063  40.462  24.281  0.3627 -0.1659 -0.0870
 1954DPPC   PO445134  33.417  40.140  24.493 -0.1539 -0.0865  0.2761
 1954DPPC   GL145135  33.220  39.851  24.290  0.2412  0.1714 -0.0721
 1954DPPC   GL245136  33.089  40.006  24.038 -0.1026  0.0291 -0.0386
 1954DPPC   C1A45137  33.171  39.503  24.010  0.0627  0.1611  0.0548
 1954DPPC   C2A45138  33.276  39.029  23.966  0.0607 -0.5002  0.0189
 1954DPPC   C3A45139  33.243  38.622  23.851  0.0293 -0.0075 -0.0142
 1954DPPC   C4A45140  33.320  38.275  23.962 -0.0272  0.1315  0.2940
 1954DPPC   C1B45141  32.715  39.856  24.224  0.0142  0.1661 -0.2544
 1954DPPC   C2B45142  32.640  39.756  24.703  0.3388 -0.2650  0.2150
 1954DPPC   C3B45143  32.637  39.370  24.876 -0.1322 -0.1750 -0.1375
 1954DPPC   C4B45144  32.957  39.381  25.154 -0.2364  0.0320 -0.1438
 1955DPPC   NC345145  30.936  25.458   5.873  0.0399 -0.1950 -0.0908
 1955DPPC   PO445146  30.728  25.783   6.257 -0.1095  0.1484  0.1112
 1955DPPC   GL145147  30.706  25.873   5.811 -0.1547  0.1350  0.0955
 1955DPPC   GL245148  30.624  26.221   5.808 -0.3669 -0.0551 -0.2329
 1955DPPC   C1A45149  30.686  25.994   5.361 -0.3357  0.0566 -0.2366
 1955DPPC   C2A45150  30.696  26.128   4.960  0.2760  0.4278  0.1165
 1955DPPC   C3A45151  31.045  26.044   4.698 -0.2777 -0.0893  0.0267
 1955DPPC   C4A45152  31.511  25.880   4.730 -0.0274  0.6127 -0.1231
 1955DPPC   C1B45153  30.325  26.385   5.454  0.2925 -0.2792  0.1096
 1955DPPC   C2B45154  30.131  26.675   5.212  0.1249  0.1900  0.1011
 1955DPPC   C3B45155  29.707  26.655   5.028 -0.0898  0.0816 -0.2629
 1955DPPC   C4B45156  29.443  26.411   4.764 -0.2368 -0.0311  0.4163
 1956DPPC   NC345157  14.522  22.636  25.550  0.1538  0.1882 -0.4532
 1956DPPC   PO445158  14.955  22.510  25.584  0.0186 -0.1470  0.3035
 1956DPPC   GL145159  14.937  22.956  25.499  0.0458  0.1900 -0.2320
 1956DPPC   GL245160  15.163  22.935  25.724 -0.1183 -0.1283 -0.0165
 1956DPPC   C1A45161  15.168  23.406  25.405  0.0082 -0.2694  0.0035
 1956DPPC   C2A45162  15.690  23.405  25.175  0.1757 -0.0848  0.0767
 1956DPPC   C3A45163  15.818  23.228  24.720  0.0263 -0.1346  0.0901
 1956DPPC   C4A45164  16.040  22.897  24.646 -0.0576 -0.0849  0.1731
 1956DPPC   C1B45165  15.475  22.998  25.358 -0.2791 -0.3733  0.1143
 1956DPPC   C2B45166  15.516  22.862  24.900 -0.3814  0.0517  0.0336
 1956DPPC   C3B45167  15.616  22.578  24.697 -0.2831  0.1645 -0.1489
 1956DPPC   C4B45168  16.058  22.378  24.527  0.0580  0.0952  0.0776
 1957DPPC   NC345169  34.743  27.930   4.838 -0.1343 -0.3719 -0.0726
 1957DPPC   PO445170  34.864  27.664   4.491  0.1754 -0.0435 -0.2651
 1957DPPC   GL145171  34.895  27.590   3.981  0.1522  0.1534 -0.1934
 1957DPPC   GL245172  34.847  27.325   3.770 -0.1125 -0.2661  0.0628
 1957DPPC   C1A45173  34.875  27.837   3.572  0.3522 -0.1151 -0.2062
 1957DPPC   C2A45174  34.883  28.097   3.269 -0.0536  0.2865 -0.2585
 1957DPPC   C3A45175  35.041  28.140   2.826 -0.0710 -0.0504  0.1831
 1957DPPC   C4A45176  35.350  28.111   2.484  0.1823 -0.3837 -0.0239
 1957DPPC   C1B45177  34.433  27.440   3.672 -0.1721 -0.0853 -0.1162
 1957DPPC   C2B45178  34.236  27.014   3.739  0.0527 -0.1794  0.0325
 1957DPPC   C3B45179  34.378  26.598   3.775 -0.0291  0.0221 -0.2038
 1957DPPC   C4B45180  34.507  26.300   3.458 -0.1763 -0.2561  0.3935
 1958DPPC   NC345181  14.968  21.045  23.346 -0.3599 -0.0268  0.2215
 1958DPPC   PO445182  15.202  21.249  23.642 -0.0280 -0.1708  0.1154
 1958DPPC   GL145183  15.532  21.310  23.375  0.0810  0.0110  0.0225
 1958DPPC   GL245184  15.599  21.608  23.442  0.1116  0.0195  0.4422
 1958DPPC   C1A45185  15.726  21.233  22.939 -0.3668  0.2955  0.1194
 1958DPPC   C2A45186  15.757  21.536  22.615  0.3024  0.2595 -0.0586
 1958DPPC   C3A45187  15.924  21.915  22.663  0.1525 -0.2448  0.3287
 1958DPPC   C4A45188  16.153  22.207  22.692  0.0718  0.0732  0.0176
 1958DPPC   C1B45189  15.929  21.634  23.086  0.1643 -0.1509 -0.1158
 1958DPPC   C2B45190  16.345  21.807  22.926 -0.0757 -0.2280  0.1635
 1958DPPC   C3B45191  16.671  21.910  22.597  0.0378 -0.0319 -0.3726
 1958DPPC   C4B45192  16.894  22.036  22.262 -0.2696 -0.2905 -0.2737
 1959DPPC   NC345193  34.760  31.559  26.220  0.1512  0.0116 -0.2504
 1959DPPC   PO445194  34.538  31.244  26.418 -0.2147 -0.1558 -0.0339
 1959DPPC   GL145195  34.816  31.111  26.720 -0.3785  0.1341  0.0180
 1959DPPC   GL245196  34.659  31.178   0.049  0.0201 -0.0468 -0.0176
 1959DPPC   C1A45197  35.215  31.213  26.799  0.0590 -0.0897 -0.3252
 1959DPPC   C2A45198  35.508  30.989   0.199  0.0195 -0.3447 -0.0576
 1959DPPC   C3A45199  36.015  31.033   0.315  0.2302 -0.1481 -0.3649
 1959DPPC   C4A45200  36.392  31.250   0.174  0.2008 -0.3131 -0.4633
 1959DPPC   C1B45201  34.950  31.458   0.221  0.2088  0.0075 -0.1375
 1959DPPC   C2B45202  35.373  31.616   0.311 -0.1685 -0.0654 -0.0993
 1959DPPC   C3B45203  35.829  31.570   0.360  0.2177 -0.1397 -0.1255
 1959DPPC   C4B45204  36.222  31.423   0.597 -0.1242 -0.2241  0.1425
 1960DPPC   NC345205  22.872  26.817  19.914 -0.1544  0.1704 -0.0948
 1960DPPC   PO445206  22.753  26.429  19.762  0.0133 -0.0476  0.1193
 1960DPPC   GL145207  22.472  26.112  19.862  0.0676  0.0520 -0.1287
 1960DPPC   GL245208  22.600  25.739  19.925 -0.0972 -0.2968 -0.3914
 1960DPPC   C1A45209  22.161  26.278  19.926 -0.0422 -0.0015  0.2636
 1960DPPC   C2A45210  21.774  26.365  19.796  0.1076  0.0660 -0.1801
 1960DPPC   C3A45211  21.430  26.186  19.765  0.0429  0.3325  0.1346
 1960DPPC   C4A45212  21.131  25.807  19.736  0.2064  0.1096  0.1257
 1960DPPC   C1B45213  22.381  25.471  20.211 -0.1092 -0.1640 -0.0156
 1960DPPC   C2B45214  22.228  25.027  20.315  0.2564 -0.0993 -0.1607
 1960DPPC   C3B45215  21.943  24.738  20.546  0.2108  0.2214 -0.0999
 1960DPPC   C4B45216  21.648  24.718  20.829 -0.2842 -0.2369  0.0444
 1961DPPC   NC345217  16.367  33.862  19.364 -0.1298  0.1464 -0.4635
 1961DPPC   PO445218  16.343  33.922  19.810  0.0701  0.2080 -0.0688
 1961DPPC   GL145219  16.733  34.006  19.754 -0.0669 -0.7142 -0.0099
 1961DPPC   GL245220  16.878  33.698  19.607 -0.0064  0.2243  0.2250
 1961DPPC   C1A45221  17.256  33.921  19.798 -0.1757 -0.0308  0.3551
 1961DPPC   C2A45222  17.626  33.764  19.979 -0.3219  0.1840 -0.4455
 1961DPPC   C3A45223  17.937  33.513  20.033  0.2554 -0.1935 -0.0820
 1961DPPC   C4A45224  18.251  33.204  20.096  0.2289  0.0643 -0.0771
 1961DPPC   C1B45225  17.153  33.440  19.684 -0.3952 -0.1226 -0.1973
 1961DPPC   C2B45226  17.495  33.241  19.904  0.3391  0.0291 -0.1307
 1961DPPC   C3B45227  17.777  32.882  19.854 -0.3106  0.0278  0.0337
 1961DPPC   C4B45228  18.060  32.799  19.489 -0.0772  0.0618 -0.2294
 1962DPPC   NC345229  27.163  34.608   6.147  0.1763 -0.1132  0.1027
 1962DPPC   PO445230  27.531  34.771   6.082 -0.2387  0.2638  0.1728
 1962DPPC   GL145231  27.453  34.533   5.707  0.2112 -0.0074 -0.2271
 1962DPPC   GL245232  27.616  34.686   5.567 -0.0674 -0.0307  0.3296
 1962DPPC   C1A45233  27.379  34.145   5.639  0.3129  0.1012  0.2828
 1962DPPC   C2A45234  27.393  33.843   5.328 -0.1270 -0.2218  0.1210
 1962DPPC   C3A45235  27.220  33.820   4.873 -0.0580 -0.2056 -0.0212
 1962DPPC   C4A45236  27.241  33.634   4.552 -0.2008 -0.1587 -0.2780
 1962DPPC   C1B45237  27.313  34.689   5.213  0.1838 -0.1791  0.3617
 1962DPPC   C2B45238  26.919  34.765   5.143  0.0926  0.3825 -0.0208
 1962DPPC   C3B45239  26.675  34.881   4.804 -0.0372  0.0404  0.1377
 1962DPPC   C4B45240  26.358  35.164   4.679  0.0596 -0.3101 -0.2123
 1963DPPC   NC345241  12.741  27.056  23.600 -0.1653 -0.2590 -0.1801
 1963DPPC   PO445242  12.940  26.668  23.262 -0.2820  0.1783  0.2538
 1963DPPC   GL145243  13.337  26.435  23.321  0.2334 -0.1971 -0.0126
 1963DPPC   GL245244  13.472  26.218  23.254  0.1303  0.3411  0.1714
 1963DPPC   C1A45245  13.647  26.418  23.698  0.1604 -0.0416 -0.2161
 1963DPPC   C2A45246  13.978  26.503  23.739 -0.2545  0.1245 -0.1621
 1963DPPC   C3A45247  14.040  26.831  24.014  0.2791 -0.0174  0.1876
 1963DPPC   C4A45248  13.818  27.075  24.335  0.4186 -0.2907  0.0132
 1963DPPC   C1B45249  13.958  26.265  23.326  0.2158  0.1248  0.0125
 1963DPPC   C2B45250  14.435  26.122  23.274  0.2789 -0.1249 -0.2795
 1963DPPC   C3B45251  14.878  26.014  23.559 -0.0147  0.1749 -0.0454
 1963DPPC   C4B45252  15.233  25.988  23.738 -0.0259  0.1722  0.0943
 1964DPPC   NC345253  22.316  25.484  18.222  0.1196 -0.0329 -0.1408
 1964DPPC   PO445254  22.138  25.654  17.947 -0.3410 -0.2883  0.0071
 1964DPPC   GL145255  21.948  25.355  17.915 -0.0780 -0.0863 -0.2457
 1964DPPC   GL245256  21.713  25.421  17.627 -0.0117 -0.5012  0.1502
 1964DPPC   C1A45257  21.612  25.025  18.068 -0.3927 -0.0405 -0.2896
 1964DPPC   C2A45258  21.351  24.756  18.233 -0.1297 -0.2100  0.1292
 1964DPPC   C3A45259  21.360  24.294  18.199 -0.2781  0.0942  0.2334
 1964DPPC   C4A45260  21.572  24.015  18.256  0.0991 -0.1180  0.1833
 1964DPPC   C1B45261  21.435  25.217  17.511  0.0670  0.0995  0.2093
 1964DPPC   C2B45262  20.976  25.122  17.386  0.2156 -0.0603 -0.0565
 1964DPPC   C3B45263  20.606  24.821  17.558 -0.0479  0.0637 -0.2472
 1964DPPC   C4B45264  20.299  24.382  17.622  0.0793 -0.0053  0.2110
 1965DPPC   NC345265  13.687  30.251  23.111 -0.1734  0.1318 -0.0378
 1965DPPC   PO445266  13.895  30.180  22.688 -0.0130  0.3090 -0.0001
 1965DPPC   GL145267  14.259  29.977  22.383  0.2617  0.0534 -0.1700
 1965DPPC   GL245268  14.490  30.032  22.539 -0.3269  0.3182  0.0661
 1965DPPC   C1A45269  14.584  29.809  22.078 -0.2320  0.1218  0.3504
 1965DPPC   C2A45270  14.801  29.510  21.932 -0.2047  0.3794 -0.1235
 1965DPPC   C3A45271  15.177  29.452  21.815  0.0229 -0.0482  0.1414
 1965DPPC   C4A45272  15.292  29.513  21.380  0.0239  0.0890  0.1143
 1965DPPC   C1B45273  14.848  29.744  22.475  0.1916 -0.1399  0.0961
 1965DPPC   C2B45274  15.214  29.655  22.446 -0.0665  0.0990 -0.2002
 1965DPPC   C3B45275  15.527  29.437  22.109  0.0904 -0.2592  0.1135
 1965DPPC   C4B45276  15.650  29.338  21.682  0.0153  0.0582 -0.1841
 1966DPPC   NC345277  28.723  41.754  26.441 -0.1708 -0.1346 -0.0776
 1966DPPC   PO445278  28.863  41.318  26.503 -0.0466  0.2931  0.3258
 1966DPPC   GL145279  29.044  40.921  26.395  0.0539  0.0828 -0.1444
 1966DPPC   GL245280  29.087  40.692  26.651 -0.0282 -0.0339 -0.2864
 1966DPPC   C1A45281  29.319  40.627  26.059  0.0525 -0.1086 -0.0520
 1966DPPC   C2A45282  29.795  40.507  26.258 -0.0350 -0.3327 -0.1224
 1966DPPC   C3A45283  29.790  40.129  26.538 -0.1087 -0.2519 -0.0148
 1966DPPC   C4A45284  29.535  39.936  26.693 -0.1291  0.2721  0.2001
 1966DPPC   C1B45285  29.207  40.258  26.417 -0.1201  0.0153 -0.2268
 1966DPPC   C2B45286  29.416  39.901  26.230 -0.2476  0.0579  0.1877
 1966DPPC   C3B45287  29.683  39.699  26.068  0.2751  0.0985 -0.3345
 1966DPPC   C4B45288  29.678  39.454  25.865  0.0781 -0.0181 -0.1204
 1967DPPC   NC345289  37.904  28.813  15.116  0.2229  0.3597  0.0432
 1967DPPC   PO445290  37.713  28.613  14.822 -0.1942  0.1594 -0.0415
 1967DPPC   GL145291  37.351  28.489  15.060  0.1644 -0.4494  0.1802
 1967DPPC   GL245292  37.403  28.825  15.289 -0.0883  0.0970  0.3389
 1967DPPC   C1A45293  36.983  28.421  15.103  0.0548  0.2222 -0.1169
 1967DPPC   C2A45294  36.663  28.130  15.478  0.2210  0.2930 -0.2187
 1967DPPC   C3A45295  36.503  28.211  15.911 -0.1385 -0.1243  0.3176
 1967DPPC   C4A45296  36.355  28.045  16.237  0.1242  0.3052  0.0311
 1967DPPC   C1B45297  37.154  29.207  15.255 -0.0501  0.4046  0.0034
 1967DPPC   C2B45298  36.799  29.323  15.435  0.0951 -0.2818 -0.0750
 1967DPPC   C3B45299  36.699  29.249  15.893  0.0175 -0.1768  0.0154
 1967DPPC   C4B45300  36.773  29.431  16.256  0.2470 -0.0554  0.2627
 1968DPPC   NC345301  36.848  32.627   2.851  0.0799 -0.2202 -0.3138
 1968DPPC   PO445302  36.589  32.638   3.100  0.0058 -0.2978 -0.0520
 1968DPPC   GL145303  36.188  32.702   2.901 -0.0150 -0.1455 -0.0747
 1968DPPC   GL245304  36.109  32.998   2.951 -0.3525  0.1590  0.2471
 1968DPPC   C1A45305  35.821  32.616   2.631 -0.1494 -0.1195  0.1005
 1968DPPC   C2A45306  35.452  32.577   2.871  0.0025 -0.1176  0.2526
 1968DPPC   C3A45307  35.176  32.829   3.070  0.0132 -0.1924 -0.0404
 1968DPPC   C4A45308  34.954  33.032   3.460  0.3382 -0.1214 -0.1700
 1968DPPC   C1B45309  35.664  33.101   2.884  0.1014 -0.1761  0.0893
 1968DPPC   C2B45310  35.245  33.090   2.671 -0.0392  0.0560  0.2159
 1968DPPC   C3B45311  34.834  33.128   2.460 -0.1509 -0.1209  0.0314
 1968DPPC   C4B45312  34.517  32.936   2.247  0.2032 -0.0191 -0.0775
 1969DPPC   NC345313  23.861  40.057  15.851 -0.4069 -0.0040 -0.0342
 1969DPPC   PO445314  23.387  40.110  15.978  0.0203 -0.0678  0.1461
 1969DPPC   GL145315  23.541  39.691  16.143  0.2641  0.1106 -0.2639
 1969DPPC   GL245316  23.318  39.448  16.031  0.0603 -0.0660  0.0629
 1969DPPC   C1A45317  23.814  39.388  16.489  0.3494  0.0943  0.0291
 1969DPPC   C2A45318  23.994  39.221  16.921  0.0229 -0.3203  0.0521
 1969DPPC   C3A45319  24.193  39.345  17.319  0.1496 -0.2919  0.0960
 1969DPPC   C4A45320  24.556  39.222  17.552 -0.0086 -0.0260  0.0110
 1969DPPC   C1B45321  23.759  39.364  15.828 -0.0879  0.0858  0.0169
 1969DPPC   C2B45322  24.090  39.211  16.104  0.3646  0.1144 -0.6380
 1969DPPC   C3B45323  24.387  38.935  16.020  0.2456 -0.1180 -0.0585
 1969DPPC   C4B45324  24.309  38.501  15.864 -0.1540 -0.0603 -0.1048
 1970DPPC   NC345325  30.549  22.099   4.396  0.0465 -0.4196  0.4068
 1970DPPC   PO445326  30.396  21.801   4.216  0.0390  0.0383 -0.0250
 1970DPPC   GL145327  30.034  21.995   4.101  0.1208  0.0083  0.2253
 1970DPPC   GL245328  30.077  22.061   3.802 -0.3435  0.2394 -0.0482
 1970DPPC   C1A45329  29.606  22.229   3.985 -0.0412  0.3637  0.0210
 1970DPPC   C2A45330  29.368  22.495   4.047  0.0455  0.1085  0.1683
 1970DPPC   C3A45331  29.016  22.671   4.366  0.3558 -0.1682 -0.2651
 1970DPPC   C4A45332  28.990  22.989   4.584  0.1675 -0.3700  0.1961
 1970DPPC   C1B45333  29.846  22.236   3.510 -0.1916  0.1155 -0.0470
 1970DPPC   C2B45334  29.470  22.508   3.457  0.1615 -0.1940 -0.3059
 1970DPPC   C3B45335  29.162  22.756   3.647 -0.1477 -0.1117 -0.1019
 1970DPPC   C4B45336  28.761  22.794   3.566  0.1053  0.0604 -0.3724
 1971DPPC   NC345337  35.015  39.526  24.796  0.0239  0.0869  0.2751
 1971DPPC   PO445338  34.754  39.475  24.413  0.1614 -0.1261 -0.0850
 1971DPPC   GL145339  34.740  39.192  24.202  0.2159 -0.1382 -0.1680
 1971DPPC   GL245340  34.749  39.219  23.869  0.2381 -0.1379 -0.0737
 1971DPPC   C1A45341  34.418  38.873  23.989 -0.6070  0.0020  0.0114
 1971DPPC   C2A45342  34.194  38.514  23.850 -0.1678  0.1586 -0.0225
 1971DPPC   C3A45343  34.272  38.182  23.595 -0.1989 -0.4462 -0.3006
 1971DPPC   C4A45344  34.227  37.786  23.745  0.0747 -0.1310  0.0758
 1971DPPC   C1B45345  34.882  38.844  23.668  0.1183 -0.2684 -0.0512
 1971DPPC   C2B45346  34.594  38.663  23.415 -0.2625 -0.2435  0.1934
 1971DPPC   C3B45347  34.386  38.345  23.148 -0.0040 -0.2284 -0.1228
 1971DPPC   C4B45348  34.258  38.110  22.777 -0.1621 -0.0974  0.2577
 1972DPPC   NC345349  15.646  19.332  20.394 -0.1096 -0.1149 -0.2913
 1972DPPC   PO445350  15.901  19.506  20.722 -0.2289  0.1802 -0.2012
 1972DPPC   GL145351  16.309  19.637  20.815  0.0216  0.0939  0.2503
 1972DPPC   GL245352  16.402  19.769  20.516  0.2269  0.3160 -0.1368
 1972DPPC   C1A45353  16.691  19.414  21.155 -0.0864 -0.2080  0.1633
 1972DPPC   C2A45354  17.144  19.312  21.382  0.0554  0.1089 -0.1434
 1972DPPC   C3A45355  17.630  19.386  21.424  0.1857 -0.0159  0.0880
 1972DPPC   C4A45356  17.725  19.412  21.846  0.1416  0.2816 -0.2056
 1972DPPC   C1B45357  16.648  20.093  20.818  0.0283 -0.0397 -0.1415
 1972DPPC   C2B45358  16.807  20.481  20.777  0.1141 -0.1617  0.3052
 1972DPPC   C3B45359  17.001  20.795  20.725  0.4047  0.0777  0.1228
 1972DPPC   C4B45360  16.874  21.100  20.533  0.1257  0.1436 -0.1143
 1973DPPC   NC345361  40.057  31.702  17.823 -0.1541 -0.0093  0.0437
 1973DPPC   PO445362  39.626  31.801  17.972 -0.1794  0.1502  0.0340
 1973DPPC   GL145363  39.210  31.576  18.196  0.1989 -0.0771  0.2432
 1973DPPC   GL245364  39.043  31.849  18.476  0.0153  0.0627  0.2282
 1973DPPC   C1A45365  38.819  31.264  18.259  0.2299 -0.3688  0.0662
 1973DPPC   C2A45366  38.475  31.478  18.223 -0.0891 -0.0442 -0.0512
 1973DPPC   C3A45367  38.310  31.685  17.914  0.0790 -0.0337  0.0125
 1973DPPC   C4A45368  38.273  31.989  17.653  0.1610  0.2710  0.1618
 1973DPPC   C1B45369  38.618  31.957  18.526  0.0134 -0.0773  0.0404
 1973DPPC   C2B45370  38.283  32.008  18.412  0.0723 -0.1617 -0.1737
 1973DPPC   C3B45371  37.940  31.851  18.294 -0.1825  0.1973  0.0533
 1973DPPC   C4B45372  37.820  31.793  17.751  0.1118  0.1632 -0.1916
 1974DPPC   NC345373  29.096  40.703   0.470 -0.0251 -0.3229  0.1385
 1974DPPC   PO445374  29.300  40.536   0.917  0.1618  0.2027  0.1436
 1974DPPC   GL145375  29.315  40.290   0.563  0.0255 -0.0941 -0.0277
 1974DPPC   GL245376  29.515  40.052   0.388  0.1413  0.0662 -0.0206
 1974DPPC   C1A45377  29.014  39.873   0.367 -0.0688  0.1357  0.1975
 1974DPPC   C2A45378  28.864  39.579   0.196  0.0568  0.3361  0.1125
 1974DPPC   C3A45379  28.828  39.285  26.684  0.0529  0.2177  0.3584
 1974DPPC   C4A45380  29.096  38.985  26.515  0.0423  0.2898 -0.0756
 1974DPPC   C1B45381  29.484  39.700   0.175  0.1471 -0.2051 -0.0712
 1974DPPC   C2B45382  29.497  39.307  26.884  0.0369 -0.1740 -0.1486
 1974DPPC   C3B45383  29.815  39.066  26.714 -0.0427 -0.2584  0.1152
 1974DPPC   C4B45384  30.147  38.768  26.465 -0.1643  0.3252 -0.1113
 1975DPPC   NC345385  20.730  29.188  22.516  0.2509 -0.0792  0.0854
 1975DPPC   PO445386  20.270  29.476  22.554  0.0610 -0.2220  0.0178
 1975DPPC   GL145387  20.067  29.213  22.584  0.1142  0.0166  0.0525
 1975DPPC   GL245388  19.673  29.319  22.662 -0.2629 -0.2898  0.0874
 1975DPPC   C1A45389  20.169  28.902  22.255 -0.0013  0.1104 -0.0621
 1975DPPC   C2A45390  19.978  28.529  22.007 -0.0655 -0.0479  0.0996
 1975DPPC   C3A45391  19.783  28.309  21.495 -0.2044 -0.0657  0.0287
 1975DPPC   C4A45392  19.806  28.335  21.035 -0.0315  0.2061 -0.1134
 1975DPPC   C1B45393  19.718  29.625  22.975 -0.0446 -0.0560 -0.0128
 1975DPPC   C2B45394  19.680  29.486  23.396  0.0817 -0.1737  0.2484
 1975DPPC   C3B45395  19.330  29.301  23.587 -0.3123 -0.3578 -0.0672
 1975DPPC   C4B45396  18.990  29.134  23.838 -0.2521 -0.1955 -0.1489
 1976DPPC   NC345397  23.790  17.053   3.120  0.0024  0.3460 -0.2631
 1976DPPC   PO445398  23.465  17.251   3.262  0.0773 -0.0934 -0.1702
 1976DPPC   GL145399  23.500  17.603   3.019 -0.3311  0.2863  0.0593
 1976DPPC   GL245400  23.864  17.521   2.986 -0.1194 -0.2225  0.1944
 1976DPPC   C1A45401  23.715  18.087   3.062 -0.0184 -0.1515  0.4690
 1976DPPC   C2A45402  23.633  18.466   2.855 -0.1055  0.1207 -0.1597
 1976DPPC   C3A45403  23.374  18.663   2.606 -0.0749 -0.3208  0.1297
 1976DPPC   C4A45404  23.009  18.699   2.589 -0.1538 -0.0265 -0.0315
 1976DPPC   C1B45405  24.206  17.958   2.982  0.2246 -0.1243  0.0706
 1976DPPC   C2B45406  24.130  18.389   3.026  0.1354 -0.3329  0.2240
 1976DPPC   C3B45407  24.177  18.800   2.812  0.1761 -0.1418  0.2341
 1976DPPC   C4B45408  24.270  18.969   2.355  0.0933  0.0066  0.0551
 1977DPPC   NC345409  27.136  24.274  10.951  0.3831  0.0126 -0.0631
 1977DPPC   PO445410  26.792  24.427  11.231  0.3673  0.2339 -0.0938
 1977DPPC   GL145411  26.985  24.435  11.596  0.2927  0.0508 -0.3550
 1977DPPC   GL245412  27.267  24.619  11.478 -0.2483 -0.1987  0.1056
 1977DPPC   C1A45413  27.042  24.729  11.910 -0.0082  0.2119 -0.0895
 1977DPPC   C2A45414  27.150  25.107  12.093  0.0497  0.0709 -0.3982
 1977DPPC   C3A45415  27.277  25.324  12.624  0.1369  0.0927  0.1217
 1977DPPC   C4A45416  27.208  25.681  12.871 -0.0964  0.0539 -0.1508
 1977DPPC   C1B45417  27.212  24.995  11.471  0.2000 -0.0258 -0.0102
 1977DPPC   C2B45418  27.218  25.381  11.393 -0.1551 -0.0465 -0.2049
 1977DPPC   C3B45419  27.316  25.849  11.640  0.0968  0.0702  0.0219
 1977DPPC   C4B45420  27.632  25.877  11.940  0.1615 -0.4873  0.2175
 1978DPPC   NC345421  27.314  18.175  18.004  0.2719 -0.0191  0.1263
 1978DPPC   PO445422  27.035  18.087  17.589 -0.2722  0.0661 -0.0061
 1978DPPC   GL145423  26.793  18.488  17.646  0.0344  0.0934  0.2225
 1978DPPC   GL245424  26.445  18.495  17.376  0.2228  0.2712 -0.0896
 1978DPPC   C1A45425  26.924  18.945  17.789  0.0746  0.0708 -0.1285
 1978DPPC   C2A45426  26.841  19.432  17.743 -0.1671  0.0274 -0.0278
 1978DPPC   C3A45427  27.178  19.611  17.804 -0.0259  0.4327 -0.0043
 1978DPPC   C4A45428  27.284  19.493  18.217  0.0478 -0.1306  0.2380
 1978DPPC   C1B45429  26.515  18.967  17.513 -0.1400 -0.1024 -0.0573
 1978DPPC   C2B45430  26.427  19.284  17.892 -0.0233  0.1110 -0.0290
 1978DPPC   C3B45431  26.198  19.488  18.171 -0.2891  0.1094  0.0475
 1978DPPC   C4B45432  25.789  19.814  18.279  0.0686  0.2943  0.2654
 1979DPPC   NC345433  22.289  17.629   1.775 -0.3919 -0.1116 -0.2464
 1979DPPC   PO445434  22.199  17.562   1.395 -0.2810  0.0309  0.2318
 1979DPPC   GL145435  22.234  17.767   1.052  0.1978  0.1832 -0.1607
 1979DPPC   GL245436  22.031  17.893   0.984  0.0874 -0.1173 -0.1497
 1979DPPC   C1A45437  22.592  17.940   0.869  0.4132  0.0011 -0.1805
 1979DPPC   C2A45438  22.795  18.225   1.042 -0.0480 -0.3146 -0.2861
 1979DPPC   C3A45439  22.953  18.624   1.363  0.0799  0.2394 -0.1638
 1979DPPC   C4A45440  23.096  19.002   1.572 -0.1215  0.3555  0.0204
 1979DPPC   C1B45441  22.033  18.352   1.043 -0.0895 -0.2972 -0.3006
 1979DPPC   C2B45442  21.757  18.607   1.297 -0.5242 -0.3310  0.0716
 1979DPPC   C3B45443  21.736  19.064   1.405 -0.2991  0.1997 -0.3987
 1979DPPC   C4B45444  21.440  19.254   1.530 -0.1823  0.1310 -0.1205
 1980DPPC   NC345445  20.498  18.074   0.521  0.1906  0.3932  0.1904
 1980DPPC   PO445446  20.611  18.067   0.136  0.1882  0.1569 -0.0305
 1980DPPC   GL145447  20.516  18.283  26.718 -0.2072 -0.1427 -0.0273
 1980DPPC   GL245448  20.225  18.358  26.551  0.1643  0.1057 -0.1379
 1980DPPC   C1A45449  20.550  18.709  26.634 -0.0472 -0.1074 -0.3398
 1980DPPC   C2A45450  20.602  18.777  26.182 -0.0591 -0.1187 -0.2257
 1980DPPC   C3A45451  20.862  18.730  25.752 -0.0593  0.0796 -0.1310
 1980DPPC   C4A45452  20.890  18.425  25.421 -0.0716  0.1475  0.1153
 1980DPPC   C1B45453  20.080  18.816  26.594  0.2741 -0.0559  0.2757
 1980DPPC   C2B45454  19.974  19.184  26.790 -0.4967  0.3419  0.1474
 1980DPPC   C3B45455  20.123  19.479   0.164  0.0137  0.3801 -0.0217
 1980DPPC   C4B45456  20.023  19.850   0.503  0.0148 -0.0624  0.0403
 1981DPPC   NC345457  33.758  35.631  12.381 -0.3161 -0.0331 -0.0513
 1981DPPC   PO445458  33.404  35.811  12.282  0.3787 -0.0728 -0.0605
 1981DPPC   GL145459  33.180  35.846  12.734 -0.1286 -0.2067  0.0999
 1981DPPC   GL245460  33.172  35.567  12.734  0.0225  0.1688  0.2167
 1981DPPC   C1A45461  32.848  35.858  13.009  0.0105  0.1708  0.1151
 1981DPPC   C2A45462  32.740  35.604  13.286 -0.2571 -0.0988  0.2008
 1981DPPC   C3A45463  32.592  35.353  13.529  0.1228  0.1112  0.0856
 1981DPPC   C4A45464  32.380  35.137  14.009 -0.0642 -0.0796 -0.0460
 1981DPPC   C1B45465  32.946  35.319  12.927  0.3385 -0.1437  0.2622
 1981DPPC   C2B45466  33.066  35.009  13.333  0.1970 -0.1916  0.0802
 1981DPPC   C3B45467  33.252  34.962  13.776  0.2614 -0.3232 -0.0777
 1981DPPC   C4B45468  33.609  34.983  14.001  0.0823 -0.2055  0.0380
 1982DPPC   NC345469  29.795  36.704   4.482  0.1144  0.0470  0.1206
 1982DPPC   PO445470  29.435  36.984   4.433  0.2154  0.0308  0.2970
 1982DPPC   GL145471  29.288  37.140   4.017  0.1801  0.3238 -0.3485
 1982DPPC   GL245472  28.995  36.840   3.950 -0.0743 -0.1188 -0.2599
 1982DPPC   C1A45473  29.443  37.119   3.623 -0.1281  0.0647  0.1705
 1982DPPC   C2A45474  29.374  36.779   3.326 -0.3509  0.0537  0.2361
 1982DPPC   C3A45475  29.537  36.704   2.888 -0.2042  0.1646 -0.0454
 1982DPPC   C4A45476  29.536  36.434   2.545 -0.0080 -0.0527  0.1299
 1982DPPC   C1B45477  28.821  36.762   3.627 -0.4645  0.2965 -0.1257
 1982DPPC   C2B45478  28.741  36.395   3.297 -0.2226  0.0219  0.2269
 1982DPPC   C3B45479  28.485  36.239   3.119 -0.1125  0.1662  0.0800
 1982DPPC   C4B45480  28.263  36.356   2.740  0.0040 -0.1464  0.0077
 1983DPPC   NC345481  28.071  24.636  25.536 -0.0169  0.0040  0.5035
 1983DPPC   PO445482  27.869  24.924  25.667  0.2096 -0.1258  0.0592
 1983DPPC   GL145483  27.756  24.757  26.057 -0.1087 -0.1137  0.1781
 1983DPPC   GL245484  27.750  24.466  25.983  0.0482 -0.0781 -0.0325
 1983DPPC   C1A45485  27.816  24.504  26.507 -0.0430  0.2184  0.1027
 1983DPPC   C2A45486  27.757  24.485   0.006 -0.3014  0.4387  0.2913
 1983DPPC   C3A45487  27.963  24.348   0.421  0.0353  0.2144 -0.2107
 1983DPPC   C4A45488  28.388  24.302   0.380  0.0672 -0.0372  0.0980
 1983DPPC   C1B45489  27.399  24.330  26.251 -0.4087 -0.1098 -0.0333
 1983DPPC   C2B45490  27.097  24.055  26.308  0.1653  0.0172  0.0196
 1983DPPC   C3B45491  26.583  24.124  26.228 -0.0603 -0.1871 -0.0312
 1983DPPC   C4B45492  26.239  23.987  26.386  0.1299 -0.0174 -0.1028
 1984DPPC   NC345493  28.992  31.922   6.983 -0.0718 -0.1027 -0.0497
 1984DPPC   PO445494  28.802  32.081   6.654  0.1677  0.0401 -0.1430
 1984DPPC   GL145495  28.518  32.083   6.371 -0.0407 -0.3931 -0.2014
 1984DPPC   GL245496  28.357  32.449   6.444  0.3049 -0.0380  0.0671
 1984DPPC   C1A45497  28.273  31.807   6.138  0.0068  0.0964 -0.2665
 1984DPPC   C2A45498  28.025  31.639   5.754  0.2854  0.1818 -0.0719
 1984DPPC   C3A45499  27.739  31.765   5.565 -0.1775  0.0434 -0.1360
 1984DPPC   C4A45500  27.429  31.836   5.353  0.0400  0.1782 -0.1429
 1984DPPC   C1B45501  28.611  32.626   6.169  0.1972 -0.1136  0.1412
 1984DPPC   C2B45502  28.804  32.807   5.714  0.0110  0.0553  0.0900
 1984DPPC   C3B45503  29.209  32.776   5.562  0.1033 -0.2801 -0.0636
 1984DPPC   C4B45504  29.434  32.651   5.157  0.1932  0.0028  0.2113
 1985DPPC   NC345505  20.088  28.106  18.522 -0.2297  0.0361 -0.0035
 1985DPPC   PO445506  19.950  28.324  18.840 -0.0093  0.1159 -0.0246
 1985DPPC   GL145507  19.592  28.229  18.729 -0.0380 -0.0144  0.4510
 1985DPPC   GL245508  19.597  28.198  18.407  0.0401  0.0153 -0.0622
 1985DPPC   C1A45509  19.200  28.477  18.610 -0.2994  0.2740  0.2054
 1985DPPC   C2A45510  18.825  28.624  18.706 -0.3440  0.1865  0.0908
 1985DPPC   C3A45511  18.494  28.936  18.622 -0.0262  0.0138 -0.1872
 1985DPPC   C4A45512  18.353  29.331  18.621 -0.2569  0.1138  0.0814
 1985DPPC   C1B45513  19.253  27.948  18.501 -0.3105  0.0134 -0.1133
 1985DPPC   C2B45514  18.800  28.102  18.336 -0.0202 -0.0090 -0.0924
 1985DPPC   C3B45515  18.503  27.980  18.343  0.1285 -0.0523  0.3477
 1985DPPC   C4B45516  18.051  27.993  18.176 -0.2254  0.1039  0.1270
 1986DPPC   NC345517  21.804  30.090  10.414 -0.0300  0.0197 -0.1777
 1986DPPC   PO445518  22.183  30.307  10.283  0.1763 -0.1183  0.1333
 1986DPPC   GL145519  22.242  30.424  10.769 -0.1472  0.2465  0.0227
 1986DPPC   GL245520  21.938  30.257  10.902  0.0498 -0.2267  0.0978
 1986DPPC   C1A45521  22.531  30.668  11.123 -0.1320 -0.0776 -0.0941
 1986DPPC   C2A45522  22.654  30.949  11.409  0.2089  0.0866  0.0423
 1986DPPC   C3A45523  22.804  31.071  11.841  0.0712  0.0735 -0.2759
 1986DPPC   C4A45524  23.056  31.197  12.152  0.0935  0.0913 -0.4540
 1986DPPC   C1B45525  22.286  30.025  11.021  0.1231  0.1018  0.2577
 1986DPPC   C2B45526  22.602  30.040  11.296 -0.2460 -0.0455  0.1677
 1986DPPC   C3B45527  22.962  30.187  11.467  0.2408  0.2879  0.2050
 1986DPPC   C4B45528  23.352  30.248  11.644  0.1230  0.1133 -0.2024
 1987DPPC   NC345529  23.624  29.668  25.849 -0.0871 -0.1709  0.1415
 1987DPPC   PO445530  23.446  29.539  26.255 -0.3335 -0.1744 -0.0154
 1987DPPC   GL145531  22.991  29.541  26.352 -0.0915 -0.3427 -0.0205
 1987DPPC   GL245532  22.670  29.662  26.122 -0.0213  0.1272 -0.5266
 1987DPPC   C1A45533  22.631  29.284  26.482  0.1945 -0.3043  0.3052
 1987DPPC   C2A45534  22.519  29.276   0.010  0.1312 -0.1796 -0.0545
 1987DPPC   C3A45535  22.242  29.577   0.239 -0.2194 -0.0122  0.0349
 1987DPPC   C4A45536  21.858  29.651   0.307  0.2660 -0.2433 -0.0339
 1987DPPC   C1B45537  22.221  29.468  26.138 -0.0593 -0.4278 -0.1970
 1987DPPC   C2B45538  21.909  29.107  26.158 -0.0537 -0.1682 -0.2839
 1987DPPC   C3B45539  21.570  28.775  26.295 -0.0742 -0.1662 -0.2251
 1987DPPC   C4B45540  21.098  28.506  26.079 -0.1323 -0.0273 -0.0551
 1988DPPC   NC345541  34.499  29.240  11.100 -0.3860 -0.3371  0.2183
 1988DPPC   PO445542  34.634  29.517  11.481  0.0015  0.3434 -0.0460
 1988DPPC   GL145543  34.241  29.562  11.802 -0.1563 -0.1995 -0.0675
 1988DPPC   GL245544  34.056  29.799  11.686  0.1520 -0.2037  0.0849
 1988DPPC   C1A45545  34.053  29.585  12.180 -0.0018 -0.2157 -0.2153
 1988DPPC   C2A45546  33.723  29.307  12.512 -0.0525 -0.0546  0.3831
 1988DPPC   C3A45547  33.410  28.932  12.568  0.0498  0.1117 -0.2219
 1988DPPC   C4A45548  33.037  28.890  12.826 -0.4815 -0.1388  0.1762
 1988DPPC   C1B45549  33.679  29.933  12.011  0.0424 -0.1321 -0.2201
 1988DPPC   C2B45550  33.565  29.923  12.462 -0.1006  0.1304 -0.1267
 1988DPPC   C3B45551  33.370  29.643  12.809  0.0184 -0.0509 -0.2197
 1988DPPC   C4B45552  33.346  29.190  13.024 -0.1976 -0.1486  0.0014
 1989DPPC   NC345553  39.307  26.269  18.916  0.2545 -0.0315 -0.0396
 1989DPPC   PO445554  39.168  26.438  19.288  0.3443 -0.1798 -0.1170
 1989DPPC   GL145555  38.924  26.544  19.669  0.0902  0.0962  0.2340
 1989DPPC   GL245556  38.645  26.667  19.633  0.0486 -0.0106 -0.0808
 1989DPPC   C1A45557  38.763  26.714  20.110  0.2288 -0.2209 -0.2068
 1989DPPC   C2A45558  38.897  27.120  20.369  0.1245  0.1769 -0.0755
 1989DPPC   C3A45559  39.051  27.509  20.299 -0.2585 -0.0978  0.1841
 1989DPPC   C4A45560  39.314  27.815  20.571 -0.1715 -0.2176  0.0644
 1989DPPC   C1B45561  38.507  26.823  19.262  0.1438  0.2457  0.3272
 1989DPPC   C2B45562  38.019  26.997  19.163  0.0072 -0.1689 -0.1076
 1989DPPC   C3B45563  37.665  27.132  19.318 -0.1992 -0.0526 -0.1064
 1989DPPC   C4B45564  37.327  26.794  19.579 -0.3146 -0.1118 -0.0517
 1990DPPC   NC345565  34.809  19.784  18.828 -0.1022  0.0064 -0.2075
 1990DPPC   PO445566  34.904  20.161  19.108 -0.1528  0.1687  0.3049
 1990DPPC   GL145567  34.518  20.367  19.131 -0.2816 -0.0138  0.1562
 1990DPPC   GL245568  34.263  20.229  19.128 -0.4910 -0.1630 -0.0473
 1990DPPC   C1A45569  34.248  20.770  19.357  0.1372 -0.2484  0.0521
 1990DPPC   C2A45570  33.992  20.872  19.738 -0.1224 -0.1466 -0.1832
 1990DPPC   C3A45571  33.691  20.888  19.991  0.3316 -0.0795  0.1376
 1990DPPC   C4A45572  33.369  20.844  20.219  0.0681  0.0154 -0.0369
 1990DPPC   C1B45573  33.836  20.387  19.146 -0.1865 -0.2134  0.0458
 1990DPPC   C2B45574  33.724  20.823  19.292 -0.2299 -0.2344 -0.3472
 1990DPPC   C3B45575  33.714  21.162  19.503 -0.0700 -0.0806 -0.3192
 1990DPPC   C4B45576  33.865  21.409  19.788  0.0832  0.1211 -0.0829
 1991DPPC   NC345577  28.549  41.985  21.373  0.2417 -0.1605  0.2582
 1991DPPC   PO445578  28.576  41.945  20.826  0.0181  0.0531  0.1996
 1991DPPC   GL145579  28.452  41.628  20.993 -0.0194  0.1701 -0.1214
 1991DPPC   GL245580  28.311  41.594  21.239 -0.2184 -0.1746  0.0621
 1991DPPC   C1A45581  28.557  41.198  21.006  0.1124  0.0041  0.1770
 1991DPPC   C2A45582  28.823  41.040  20.742 -0.0655  0.1418 -0.2861
 1991DPPC   C3A45583  28.861  40.714  20.437 -0.0118  0.0083 -0.0368
 1991DPPC   C4A45584  29.197  40.293  20.495 -0.0847 -0.0225 -0.4274
 1991DPPC   C1B45585  28.177  41.272  21.509 -0.4203  0.2670  0.1374
 1991DPPC   C2B45586  28.450  40.946  21.447  0.1056 -0.2754  0.4613
 1991DPPC   C3B45587  28.610  40.579  21.330 -0.0059 -0.0775 -0.1501
 1991DPPC   C4B45588  28.444  40.165  21.246 -0.0563  0.0110  0.2001
 1992DPPC   NC345589  20.449  19.555  15.895  0.1577 -0.0054 -0.2792
 1992DPPC   PO445590  20.916  19.687  15.820  0.1038 -0.0228 -0.3136
 1992DPPC   GL145591  20.702  19.880  16.194 -0.1006  0.0001 -0.5192
 1992DPPC   GL245592  20.371  20.055  16.162  0.3775 -0.1693  0.0353
 1992DPPC   C1A45593  20.681  20.264  16.500  0.1143 -0.0227  0.2810
 1992DPPC   C2A45594  20.401  20.574  16.635 -0.2329 -0.2190 -0.2007
 1992DPPC   C3A45595  20.021  20.773  16.641 -0.1423 -0.2732 -0.1210
 1992DPPC   C4A45596  19.556  20.784  16.713 -0.1199 -0.0814 -0.0742
 1992DPPC   C1B45597  20.228  20.122  16.518  0.2014  0.2792 -0.2568
 1992DPPC   C2B45598  19.890  20.286  16.711  0.0084 -0.0770 -0.1810
 1992DPPC   C3B45599  19.840  20.592  17.069  0.1069 -0.0203  0.1488
 1992DPPC   C4B45600  19.796  21.015  17.143  0.1844  0.0115  0.1057
 1993DPPC   NC345601  14.992  22.688  18.525  0.1690  0.0018  0.0578
 1993DPPC   PO445602  14.774  22.551  18.886  0.1503 -0.1056 -0.2873
 1993DPPC   GL145603  14.935  22.929  18.957  0.4932  0.0079 -0.0482
 1993DPPC   GL245604  14.712  23.268  19.051 -0.0233  0.1202  0.2180
 1993DPPC   C1A45605  15.228  23.148  18.974  0.2394  0.2611 -0.2150
 1993DPPC   C2A45606  15.431  23.334  18.676  0.5112 -0.0243  0.1391
 1993DPPC   C3A45607  15.777  23.193  18.383 -0.0819  0.1134  0.1809
 1993DPPC   C4A45608  15.917  22.865  18.198  0.1383 -0.0765 -0.0140
 1993DPPC   C1B45609  14.727  23.119  19.508 -0.2455  0.1682  0.0469
 1993DPPC   C2B45610  14.800  22.831  19.832  0.0780  0.0303 -0.2370
 1993DPPC   C3B45611  14.871  22.925  20.318 -0.2658  0.0274  0.0957
 1993DPPC   C4B45612  14.942  22.978  20.827  0.2028 -0.0782  0.0840
 1994DPPC   NC345613  25.816  26.009  24.724  0.1572  0.0879 -0.0163
 1994DPPC   PO445614  25.846  25.813  25.112  0.2555 -0.1224 -0.1670
 1994DPPC   GL145615  25.587  25.663  25.471  0.0614 -0.1712 -0.0062
 1994DPPC   GL245616  25.346  25.753  25.362 -0.0493  0.0785  0.1208
 1994DPPC   C1A45617  25.323  25.485  25.732 -0.0102 -0.1469 -0.1463
 1994DPPC   C2A45618  25.323  25.310  26.189 -0.2678  0.1576 -0.3296
 1994DPPC   C3A45619  25.492  25.250  26.570 -0.2800  0.3018 -0.1174
 1994DPPC   C4A45620  25.598  24.799  26.778 -0.2402 -0.2096  0.1636
 1994DPPC   C1B45621  24.888  25.699  25.401 -0.0438 -0.0168  0.2163
 1994DPPC   C2B45622  24.498  25.567  25.562 -0.0774 -0.1570 -0.1187
 1994DPPC   C3B45623  24.397  25.385  25.972 -0.1969  0.1426  0.1484
 1994DPPC   C4B45624  24.275  25.023  26.205  0.2195 -0.2467 -0.0725
 1995DPPC   NC345625  19.419  22.449   5.748 -0.0200  0.0940  0.2190
 1995DPPC   PO445626  19.776  22.295   5.411 -0.0987  0.1267 -0.2059
 1995DPPC   GL145627  20.106  22.687   5.359 -0.3343 -0.1556  0.0919
 1995DPPC   GL245628  20.379  22.554   5.458  0.3310 -0.3396  0.1296
 1995DPPC   C1A45629  20.209  23.072   5.485 -0.1550  0.0334  0.0620
 1995DPPC   C2A45630  20.498  23.335   5.634  0.1470 -0.2160 -0.0357
 1995DPPC   C3A45631  20.496  23.751   5.768  0.3065 -0.4284  0.0629
 1995DPPC   C4A45632  20.176  23.952   6.080  0.0359 -0.4763 -0.1954
 1995DPPC   C1B45633  20.864  22.676   5.401  0.0999 -0.1119  0.1467
 1995DPPC   C2B45634  21.196  22.864   5.555 -0.1708  0.0314 -0.0000
 1995DPPC   C3B45635  21.645  23.123   5.723  0.2164 -0.1975 -0.0895
 1995DPPC   C4B45636  21.846  23.535   5.656 -0.0571 -0.0265 -0.0326
 1996DPPC   NC345637  18.987  34.456   1.651  0.2356  0.1542 -0.0104
 1996DPPC   PO445638  18.522  34.488   1.621 -0.1380  0.0164  0.0249
 1996DPPC   GL145639  18.587  34.350   1.134  0.2197 -0.1860  0.0183
 1996DPPC   GL245640  18.792  34.108   1.106 -0.1033 -0.0235  0.4133
 1996DPPC   C1A45641  18.575  34.124   0.661  0.2042  0.1343  0.3668
 1996DPPC   C2A45642  18.342  33.886   0.434  0.0733 -0.0620  0.1062
 1996DPPC   C3A45643  18.472  33.708   0.097  0.1288 -0.0634  0.0499
 1996DPPC   C4A45644  18.564  33.583  26.584  0.2401 -0.1749 -0.0985
 1996DPPC   C1B45645  19.063  33.845   0.979 -0.0995 -0.3461  0.0103
 1996DPPC   C2B45646  19.203  33.520   0.583  0.2605 -0.0955  0.0325
 1996DPPC   C3B45647  19.274  33.289   0.251  0.4004  0.3872  0.1326
 1996DPPC   C4B45648  19.012  33.208  26.730  0.1526 -0.0163 -0.0666
 1997DPPC   NC345649  13.799  29.702  21.062 -0.1000  0.1662  0.2374
 1997DPPC   PO445650  14.102  29.631  20.684 -0.1090  0.4005 -0.2254
 1997DPPC   GL145651  14.176  29.322  20.930  0.1826 -0.2097  0.2533
 1997DPPC   GL245652  14.358  29.595  21.150  0.0922 -0.0861  0.0120
 1997DPPC   C1A45653  14.268  29.044  21.282  0.1340 -0.1674 -0.0062
 1997DPPC   C2A45654  14.278  28.700  21.622 -0.1276  0.1760  0.2697
 1997DPPC   C3A45655  14.015  28.785  22.051 -0.0510  0.1957  0.0619
 1997DPPC   C4A45656  13.692  29.058  22.308  0.0765  0.0912  0.2019
 1997DPPC   C1B45657  14.784  29.739  21.345 -0.0897 -0.1653 -0.0345
 1997DPPC   C2B45658  14.932  29.932  21.685 -0.3980  0.2094  0.0219
 1997DPPC   C3B45659  15.195  30.002  22.014 -0.0623  0.1789 -0.0422
 1997DPPC   C4B45660  15.222  30.481  21.910 -0.1456 -0.0401  0.0373
 1998DPPC   NC345661  13.718  26.742   1.694 -0.0704 -0.3487  0.2797
 1998DPPC   PO445662  13.961  26.527   1.308  0.0346  0.0191  0.0182
 1998DPPC   GL145663  14.280  26.718   1.099 -0.1559  0.2462  0.1980
 1998DPPC   GL245664  14.651  26.609   1.096 -0.0876 -0.0120 -0.1126
 1998DPPC   C1A45665  14.574  27.162   1.240 -0.0244 -0.0949 -0.0024
 1998DPPC   C2A45666  14.697  27.348   1.654  0.0756  0.1561  0.0646
 1998DPPC   C3A45667  14.934  27.626   2.031  0.1356 -0.1551  0.0496
 1998DPPC   C4A45668  15.346  27.620   2.366 -0.0717 -0.2579 -0.2007
 1998DPPC   C1B45669  14.978  26.802   1.106  0.0372  0.1377  0.0994
 1998DPPC   C2B45670  15.147  27.093   1.497 -0.2687 -0.3763 -0.0109
 1998DPPC   C3B45671  15.320  27.429   1.669 -0.1878  0.3476 -0.0020
 1998DPPC   C4B45672  15.602  27.631   1.877 -0.0429  0.2809 -0.3550
 1999DPPC   NC345673  25.792  25.030  22.891 -0.2748  0.1228  0.1737
 1999DPPC   PO445674  25.658  24.803  23.176 -0.3306 -0.0900 -0.1927
 1999DPPC   GL145675  25.464  24.480  23.448  0.3363 -0.0410  0.0214
 1999DPPC   GL245676  25.274  24.544  23.712  0.0154  0.0081 -0.0451
 1999DPPC   C1A45677  25.174  24.163  23.444  0.0230 -0.0229 -0.2910
 1999DPPC   C2A45678  24.824  24.063  23.351 -0.5741  0.2916  0.3404
 1999DPPC   C3A45679  24.545  23.842  23.365  0.0571 -0.2334  0.4270
 1999DPPC   C4A45680  24.148  23.843  23.269 -0.2075 -0.0125 -0.0011
 1999DPPC   C1B45681  24.984  24.306  23.962  0.2629 -0.3430  0.2247
 1999DPPC   C2B45682  24.660  24.199  24.166  0.0534 -0.2134 -0.1314
 1999DPPC   C3B45683  24.381  23.940  24.332  0.0342  0.1647 -0.0816
 1999DPPC   C4B45684  24.229  23.532  24.257 -0.1955  0.0950 -0.0585
 2000DPPC   NC345685  37.475  32.370  13.834 -0.3023  0.4937  0.0341
 2000DPPC   PO445686  37.075  32.174  13.830 -0.1814 -0.1025 -0.0643
 2000DPPC   GL145687  36.697  31.935  13.871  0.1192 -0.3969  0.1450
 2000DPPC   GL245688  36.612  31.915  14.287 -0.0491 -0.1415  0.1553
 2000DPPC   C1A45689  36.248  31.886  13.966 -0.1694 -0.0798  0.0210
 2000DPPC   C2A45690  35.964  31.943  14.332  0.0829  0.0428  0.2758
 2000DPPC   C3A45691  35.789  32.142  14.640 -0.3145 -0.2571 -0.0068
 2000DPPC   C4A45692  35.819  32.367  14.947  0.0996 -0.0142 -0.0174
 2000DPPC   C1B45693  36.593  31.929  14.743  0.0258  0.2210 -0.0828
 2000DPPC   C2B45694  36.810  32.333  14.911  0.0640  0.0636 -0.1386
 2000DPPC   C3B45695  37.102  32.663  15.167  0.0179 -0.2881  0.1087
 2000DPPC   C4B45696  37.013  33.096  15.057  0.0338  0.2156 -0.1343
 2001DPPC   NC345697  33.734  28.475  11.383  0.1750 -0.3744 -0.2119
 2001DPPC   PO445698  33.859  28.921  11.212 -0.6032  0.2024  0.2133
 2001DPPC   GL145699  33.701  28.972  11.639 -0.1793 -0.3156 -0.3115
 2001DPPC   GL245700  33.473  29.178  11.661  0.1353  0.0786  0.0610
 2001DPPC   C1A45701  33.879  29.019  12.039 -0.0419  0.1890  0.3030
 2001DPPC   C2A45702  33.934  28.801  12.387 -0.2646 -0.0565 -0.2612
 2001DPPC   C3A45703  33.714  28.518  12.631 -0.0787 -0.2642  0.0922
 2001DPPC   C4A45704  33.381  28.519  12.877 -0.0008 -0.0453 -0.1592
 2001DPPC   C1B45705  33.572  29.412  12.031 -0.0675 -0.1431  0.1574
 2001DPPC   C2B45706  33.259  29.441  12.280  0.0169 -0.0825 -0.1495
 2001DPPC   C3B45707  32.984  29.235  12.413 -0.0344 -0.0634 -0.0369
 2001DPPC   C4B45708  32.860  28.909  12.269  0.0266  0.0642  0.1561
 2002DPPC   NC345709  35.047  39.610  23.627  0.1359  0.0319 -0.0267
 2002DPPC   PO445710  34.952  39.565  23.294 -0.3237 -0.0376 -0.1354
 2002DPPC   GL145711  34.740  39.159  23.274 -0.3929  0.1955  0.2737
 2002DPPC   GL245712  34.479  39.317  23.373 -0.2447  0.0350  0.0748
 2002DPPC   C1A45713  34.470  38.981  23.024 -0.1709  0.3324  0.0394
 2002DPPC   C2A45714  34.178  38.746  22.804 -0.0560 -0.0239  0.0491
 2002DPPC   C3A45715  33.954  38.420  22.965  0.1380  0.2860 -0.2465
 2002DPPC   C4A45716  33.757  38.123  23.141  0.0545 -0.1131  0.0493
 2002DPPC   C1B45717  34.208  39.040  23.553 -0.2466 -0.2471  0.1464
 2002DPPC   C2B45718  34.064  38.726  23.389 -0.1753  0.0427  0.2673
 2002DPPC   C3B45719  33.723  38.417  23.557  0.0211 -0.1417 -0.0627
 2002DPPC   C4B45720  33.657  38.037  23.743 -0.1142 -0.0516  0.0849
 2003DPPC   NC345721  28.402  19.394  14.473  0.0126 -0.2257  0.2695
 2003DPPC   PO445722  28.495  19.763  14.176 -0.0967  0.1842 -0.1139
 2003DPPC   GL145723  28.593  19.866  14.660 -0.1270 -0.0028 -0.3483
 2003DPPC   GL245724  28.581  19.615  14.947  0.0121 -0.1348 -0.0429
 2003DPPC   C1A45725  28.505  20.165  14.986 -0.2373  0.0286 -0.1296
 2003DPPC   C2A45726  28.189  20.553  15.105 -0.2707 -0.3034 -0.3732
 2003DPPC   C3A45727  28.228  21.057  15.240 -0.0020 -0.2502 -0.3484
 2003DPPC   C4A45728  28.196  21.514  15.493 -0.0980 -0.0570  0.0344
 2003DPPC   C1B45729  28.521  19.812  15.330  0.0445  0.0750  0.0424
 2003DPPC   C2B45730  28.456  20.235  15.497 -0.0741 -0.2862 -0.0024
 2003DPPC   C3B45731  28.161  20.556  15.649 -0.1753  0.0305  0.1885
 2003DPPC   C4B45732  27.959  20.525  16.066  0.1908  0.1558  0.3259
 2004DPPC   NC345733  14.973  30.524   1.704 -0.0223  0.3005 -0.0865
 2004DPPC   PO445734  15.209  30.326   2.063 -0.4111 -0.0548  0.0983
 2004DPPC   GL145735  15.622  30.178   1.936  0.0940 -0.1101 -0.2218
 2004DPPC   GL245736  15.897  30.350   2.047  0.0688  0.0366 -0.1369
 2004DPPC   C1A45737  15.856  29.792   1.924 -0.0703  0.1704 -0.1544
 2004DPPC   C2A45738  16.280  29.643   1.745  0.1173 -0.0661  0.0017
 2004DPPC   C3A45739  16.557  29.608   1.483  0.4111 -0.1212 -0.0703
 2004DPPC   C4A45740  16.672  29.802   1.127  0.3379  0.1413  0.2441
 2004DPPC   C1B45741  16.074  30.142   1.723 -0.3133 -0.0305  0.0050
 2004DPPC   C2B45742  16.202  29.931   1.289 -0.2787  0.0948 -0.1781
 2004DPPC   C3B45743  16.169  29.458   1.139  0.0393 -0.0283 -0.2179
 2004DPPC   C4B45744  15.811  29.263   1.189  0.0465 -0.1021  0.2798
 2005DPPC   NC345745  26.996  31.430   6.812 -0.0274  0.0034  0.3549
 2005DPPC   PO445746  27.334  31.672   6.819 -0.1219  0.0516 -0.2862
 2005DPPC   GL145747  27.273  31.582   6.419  0.1457  0.1867  0.2665
 2005DPPC   GL245748  27.162  31.225   6.362  0.1618  0.0106 -0.3061
 2005DPPC   C1A45749  27.203  31.638   5.852  0.3686  0.1150  0.1610
 2005DPPC   C2A45750  26.941  31.745   5.538  0.0736  0.2463  0.0536
 2005DPPC   C3A45751  26.591  31.383   5.350  0.2728 -0.2745 -0.2018
 2005DPPC   C4A45752  26.570  31.162   4.998 -0.3192 -0.0352  0.3151
 2005DPPC   C1B45753  27.507  31.042   6.354  0.1944  0.1582  0.2518
 2005DPPC   C2B45754  27.938  31.340   6.300  0.1485 -0.1853  0.1838
 2005DPPC   C3B45755  28.250  31.158   5.981 -0.5267  0.2578  0.1459
 2005DPPC   C4B45756  28.713  31.056   5.954 -0.1339 -0.1312  0.2038
 2006DPPC   NC345757  29.416  21.455   6.603 -0.2016  0.1814 -0.1054
 2006DPPC   PO445758  28.963  21.423   6.429 -0.1775 -0.0171  0.0622
 2006DPPC   GL145759  28.935  21.825   6.279  0.3048  0.1003  0.1003
 2006DPPC   GL245760  28.782  22.131   6.479  0.1079  0.1000  0.2998
 2006DPPC   C1A45761  28.835  22.034   5.804  0.0115  0.0764  0.2655
 2006DPPC   C2A45762  29.027  22.419   5.543 -0.1237 -0.3609 -0.0799
 2006DPPC   C3A45763  28.970  22.803   5.405 -0.1841  0.0089  0.1367
 2006DPPC   C4A45764  29.074  23.201   5.146  0.1887  0.2647  0.1964
 2006DPPC   C1B45765  28.573  22.458   6.268 -0.2184 -0.1445 -0.2064
 2006DPPC   C2B45766  28.273  22.659   6.010 -0.0300  0.3805  0.2146
 2006DPPC   C3B45767  28.261  22.946   5.742 -0.0422 -0.0239  0.1215
 2006DPPC   C4B45768  28.324  23.333   5.459  0.1428  0.1880 -0.1478
 2007DPPC   NC345769  17.818  23.706   5.335  0.1523  0.0731  0.0319
 2007DPPC   PO445770  17.923  23.308   5.170 -0.2088  0.2330  0.2903
 2007DPPC   GL145771  18.274  23.412   4.950 -0.1475 -0.2874  0.0002
 2007DPPC   GL245772  18.580  23.539   5.073  0.1554  0.2463  0.0036
 2007DPPC   C1A45773  18.526  23.322   4.633  0.1319  0.0310  0.1404
 2007DPPC   C2A45774  18.947  23.361   4.421  0.1172 -0.0594  0.0478
 2007DPPC   C3A45775  19.389  23.426   4.481 -0.0400 -0.5325  0.0124
 2007DPPC   C4A45776  19.633  23.495   4.866 -0.1910  0.0685  0.0440
 2007DPPC   C1B45777  19.120  23.744   4.928  0.2281  0.1073  0.2047
 2007DPPC   C2B45778  19.439  23.980   4.664 -0.0731 -0.0128 -0.1691
 2007DPPC   C3B45779  19.745  24.069   4.492 -0.0185 -0.2307  0.0917
 2007DPPC   C4B45780  20.229  24.240   4.432 -0.2749  0.3968 -0.0279
 2008DPPC   NC345781  39.422  33.458  17.875  0.0349  0.1607  0.1448
 2008DPPC   PO445782  39.048  33.586  17.697  0.1068  0.0595 -0.0579
 2008DPPC   GL145783  38.614  33.378  17.746  0.1559  0.3304 -0.1598
 2008DPPC   GL245784  38.510  33.128  17.504 -0.0711  0.1157 -0.0563
 2008DPPC   C1A45785  38.277  33.610  17.776 -0.2134 -0.1508 -0.0113
 2008DPPC   C2A45786  37.930  33.296  17.792 -0.1308 -0.0685  0.2502
 2008DPPC   C3A45787  37.532  33.311  17.984  0.3915  0.3118 -0.2320
 2008DPPC   C4A45788  37.037  33.553  18.134 -0.2120 -0.3717 -0.2827
 2008DPPC   C1B45789  38.113  32.972  17.430  0.1095  0.0392  0.0106
 2008DPPC   C2B45790  37.769  32.798  17.262  0.3233 -0.1230  0.0447
 2008DPPC   C3B45791  37.387  32.566  17.249 -0.1615  0.0161  0.3534
 2008DPPC   C4B45792  36.960  32.315  17.094  0.3471 -0.1530 -0.1900
 2009DPPC   NC345793  25.621  23.797   9.086  0.1098 -0.1967  0.3302
 2009DPPC   PO445794  25.533  23.693   8.656  0.2114 -0.1422 -0.0064
 2009DPPC   GL145795  25.527  23.757   8.224  0.0451 -0.2442  0.1273
 2009DPPC   GL245796  25.417  23.553   8.022  0.0196  0.0936  0.0547
 2009DPPC   C1A45797  25.518  24.020   7.903  0.0644 -0.4486  0.0878
 2009DPPC   C2A45798  25.813  24.265   7.664 -0.1655  0.2037 -0.1550
 2009DPPC   C3A45799  26.122  24.199   7.365 -0.1727  0.1490  0.2406
 2009DPPC   C4A45800  26.509  23.916   7.349  0.1440  0.0953 -0.2717
 2009DPPC   C1B45801  25.090  23.800   7.870 -0.3333  0.1718 -0.2946
 2009DPPC   C2B45802  25.054  24.083   7.589  0.0711 -0.1182  0.2294
 2009DPPC   C3B45803  24.929  24.228   7.121 -0.2501 -0.0588  0.0026
 2009DPPC   C4B45804  24.662  24.400   6.755  0.0755  0.0585  0.1377
 2010DPPC   NC345805  19.316  37.693  17.243 -0.2238 -0.1405 -0.0726
 2010DPPC   PO445806  19.348  37.254  17.117  0.3472  0.3286 -0.3946
 2010DPPC   GL145807  19.607  36.916  16.981 -0.0817  0.1176  0.1728
 2010DPPC   GL245808  19.884  37.079  17.009  0.1475  0.0660  0.0535
 2010DPPC   C1A45809  19.629  36.488  16.645 -0.0291 -0.2855 -0.0541
 2010DPPC   C2A45810  19.890  36.215  16.362 -0.1190  0.1033  0.0036
 2010DPPC   C3A45811  19.961  35.743  16.341  0.0635  0.2607 -0.4658
 2010DPPC   C4A45812  19.977  35.408  15.992  0.0995  0.3279 -0.1043
 2010DPPC   C1B45813  20.295  36.976  17.096  0.1905 -0.1192 -0.0149
 2010DPPC   C2B45814  20.588  36.859  17.417  0.2003 -0.1863 -0.6447
 2010DPPC   C3B45815  20.491  36.930  17.812 -0.0049  0.0919 -0.2473
 2010DPPC   C4B45816  20.118  36.740  18.144 -0.0136 -0.1313 -0.1961
 2011DPPC   NC345817  17.708  20.806  15.738 -0.0546 -0.3199 -0.0329
 2011DPPC   PO445818  17.860  20.957  16.110  0.0219  0.0697  0.1804
 2011DPPC   GL145819  18.256  21.165  16.253  0.1064 -0.3506  0.0396
 2011DPPC   GL245820  18.043  21.352  16.454 -0.3805 -0.2948  0.3064
 2011DPPC   C1A45821  18.654  21.367  16.362  0.0603 -0.1405 -0.3195
 2011DPPC   C2A45822  19.099  21.590  16.245  0.0345  0.1690 -0.3938
 2011DPPC   C3A45823  19.412  21.465  16.400  0.0389 -0.1663  0.1069
 2011DPPC   C4A45824  19.683  21.223  16.769  0.0836  0.0037  0.1010
 2011DPPC   C1B45825  18.211  21.152  16.739 -0.2433  0.2079 -0.1556
 2011DPPC   C2B45826  18.487  21.080  17.073 -0.0794  0.0926  0.3581
 2011DPPC   C3B45827  18.856  20.844  17.164  0.1547  0.1905 -0.3738
 2011DPPC   C4B45828  19.249  20.887  17.079 -0.5702 -0.0317  0.3030
 2012DPPC   NC345829  14.850  23.711  17.480 -0.2043 -0.0038  0.4373
 2012DPPC   PO445830  14.971  23.373  17.706 -0.4411 -0.0632  0.0122
 2012DPPC   GL145831  15.091  23.743  17.915 -0.1334 -0.0164  0.2526
 2012DPPC   GL245832  14.979  23.593  18.196  0.1249  0.1568  0.0038
 2012DPPC   C1A45833  15.438  24.020  18.011 -0.1929 -0.0920 -0.2345
 2012DPPC   C2A45834  15.676  24.229  18.342  0.1468 -0.2650 -0.3480
 2012DPPC   C3A45835  16.129  24.053  18.427  0.0783  0.1052  0.2827
 2012DPPC   C4A45836  16.519  23.919  18.143  0.3382 -0.1438  0.0349
 2012DPPC   C1B45837  15.337  23.388  18.229 -0.2167 -0.0517 -0.4449
 2012DPPC   C2B45838  15.575  23.527  18.081 -0.0458 -0.2251  0.1545
 2012DPPC   C3B45839  15.942  23.353  17.960  0.0288  0.0242  0.5115
 2012DPPC   C4B45840  16.255  23.575  17.882  0.0759 -0.0021 -0.3407
 2013DPPC   NC345841  18.685  26.703  14.111 -0.4330 -0.0214 -0.1876
 2013DPPC   PO445842  18.370  26.344  14.232  0.0022 -0.0191  0.0069
 2013DPPC   GL145843  18.754  26.475  14.572 -0.1070  0.1340 -0.0108
 2013DPPC   GL245844  18.928  26.243  14.757 -0.1144  0.0770  0.2787
 2013DPPC   C1A45845  19.225  26.686  14.556 -0.2105 -0.1096 -0.0465
 2013DPPC   C2A45846  19.183  27.125  14.743 -0.0039 -0.0750 -0.1037
 2013DPPC   C3A45847  19.348  27.000  15.216  0.0334  0.1259  0.2539
 2013DPPC   C4A45848  19.197  26.808  15.560  0.0504 -0.0452 -0.0672
 2013DPPC   C1B45849  18.670  26.284  15.074 -0.2096  0.3678 -0.1617
 2013DPPC   C2B45850  18.593  26.577  15.312 -0.4659 -0.1541 -0.1428
 2013DPPC   C3B45851  18.435  26.833  15.588 -0.0741 -0.2208  0.0118
 2013DPPC   C4B45852  18.225  27.222  15.750 -0.2178  0.0032  0.0401
 2014DPPC   NC345853  14.315  25.044   0.293  0.1821 -0.0751 -0.1443
 2014DPPC   PO445854  14.053  25.297   0.212  0.1545 -0.0000 -0.0076
 2014DPPC   GL145855  14.351  25.406  26.882  0.1070 -0.2482 -0.1433
 2014DPPC   GL245856  14.378  25.708   0.007 -0.1884  0.2686  0.0610
 2014DPPC   C1A45857  14.688  25.506  26.633  0.0932 -0.1537 -0.3213
 2014DPPC   C2A45858  15.077  25.629  26.497 -0.1231  0.4439  0.0427
 2014DPPC   C3A45859  15.526  25.544  26.604  0.0667 -0.1125 -0.0178
 2014DPPC   C4A45860  15.875  25.677  26.744  0.1102  0.1010 -0.1031
 2014DPPC   C1B45861  14.740  25.997   0.011  0.0739  0.1235 -0.1032
 2014DPPC   C2B45862  15.129  26.011  26.803  0.1833 -0.0297 -0.1668
 2014DPPC   C3B45863  15.545  26.004   0.077 -0.2166 -0.1336 -0.1074
 2014DPPC   C4B45864  15.891  25.951   0.343 -0.4407  0.1474 -0.0701
 2015DPPC   NC345865  17.865  31.844   3.526 -0.1967 -0.0005 -0.2263
 2015DPPC   PO445866  18.232  31.906   3.261  0.0145 -0.0607 -0.2284
 2015DPPC   GL145867  18.301  31.721   2.825  0.3507 -0.2741  0.3806
 2015DPPC   GL245868  18.528  31.939   2.578  0.1565 -0.3172 -0.0214
 2015DPPC   C1A45869  18.115  31.364   2.644 -0.1905 -0.1992 -0.1145
 2015DPPC   C2A45870  18.369  31.072   2.443 -0.0444 -0.0640 -0.0034
 2015DPPC   C3A45871  18.772  30.852   2.275 -0.2734 -0.3940 -0.2790
 2015DPPC   C4A45872  19.056  30.719   2.060 -0.2118  0.1947 -0.0459
 2015DPPC   C1B45873  18.913  31.773   2.390 -0.0476 -0.0691  0.1855
 2015DPPC   C2B45874  19.218  31.505   2.252  0.0225  0.0445  0.1942
 2015DPPC   C3B45875  19.432  31.118   2.143  0.2982  0.0044  0.2220
 2015DPPC   C4B45876  19.622  30.668   2.047  0.1574 -0.1949  0.0234
 2016DPPC   NC345877  27.559  18.527   4.702 -0.0660  0.0635  0.0485
 2016DPPC   PO445878  27.628  18.730   5.143 -0.0173 -0.4579  0.1824
 2016DPPC   GL145879  27.685  19.048   4.773  0.1610 -0.3829 -0.1272
 2016DPPC   GL245880  27.894  19.146   4.889 -0.3219  0.2703 -0.1945
 2016DPPC   C1A45881  27.600  19.293   4.513  0.0841 -0.0128 -0.2116
 2016DPPC   C2A45882  27.480  19.509   4.170 -0.0346  0.0989  0.2212
 2016DPPC   C3A45883  27.500  19.505   3.768  0.2745  0.1223 -0.1017
 2016DPPC   C4A45884  27.562  19.504   3.232  0.1111  0.1137 -0.2303
 2016DPPC   C1B45885  27.854  19.608   4.859 -0.3493 -0.1704  0.2789
 2016DPPC   C2B45886  28.064  20.028   4.705  0.0765 -0.1290  0.0361
 2016DPPC   C3B45887  27.823  20.307   4.906 -0.0812 -0.0549  0.4620
 2016DPPC   C4B45888  27.543  20.641   5.016 -0.4725 -0.3986 -0.0943
 2017DPPC   NC345889  25.035  30.593   7.032 -0.0730  0.0109  0.2801
 2017DPPC   PO445890  24.850  30.321   7.274 -0.0657  0.1099  0.2067
 2017DPPC   GL145891  24.949  29.998   6.950 -0.0528 -0.0434 -0.2189
 2017DPPC   GL245892  25.090  30.142   6.711 -0.5918 -0.0340 -0.0107
 2017DPPC   C1A45893  24.878  29.645   6.661  0.1611 -0.2205 -0.0785
 2017DPPC   C2A45894  24.921  29.409   6.263  0.0536  0.0435 -0.0987
 2017DPPC   C3A45895  25.040  29.109   5.833  0.0573 -0.0550  0.1122
 2017DPPC   C4A45896  24.791  28.763   5.576  0.1917  0.0704 -0.0075
 2017DPPC   C1B45897  24.995  30.059   6.391 -0.5915 -0.0138 -0.4087
 2017DPPC   C2B45898  24.648  29.876   6.196  0.2531 -0.2488  0.0386
 2017DPPC   C3B45899  24.580  29.438   5.930  0.1034  0.2549 -0.1482
 2017DPPC   C4B45900  24.430  29.024   5.853 -0.0905 -0.0760 -0.0228
 2018DPPC   NC345901  33.879  20.293   0.411  0.0294  0.0996  0.2299
 2018DPPC   PO445902  34.028  20.618   0.570 -0.1074  0.0800  0.0510
 2018DPPC   GL145903  33.660  20.844   0.447  0.1829 -0.0276  0.1349
 2018DPPC   GL245904  33.462  20.953   0.588  0.4042  0.0380 -0.0559
 2018DPPC   C1A45905  33.350  21.162   0.135 -0.2514  0.1099  0.2664
 2018DPPC   C2A45906  33.160  21.020  26.700  0.3456  0.3283 -0.0896
 2018DPPC   C3A45907  33.238  21.091  26.266  0.1496  0.1856 -0.0694
 2018DPPC   C4A45908  33.191  21.129  25.847 -0.3451 -0.0234 -0.2041
 2018DPPC   C1B45909  33.141  21.391   0.674 -0.2033 -0.1105 -0.2296
 2018DPPC   C2B45910  32.837  21.664   0.641 -0.1996 -0.2012  0.2037
 2018DPPC   C3B45911  32.415  21.747   0.548  0.2288 -0.0426 -0.1520
 2018DPPC   C4B45912  31.992  21.687   0.516 -0.2288 -0.4414  0.0788
 2019DPPC   NC345913  31.351  18.819  17.660  0.2043 -0.2285 -0.0154
 2019DPPC   PO445914  31.452  18.700  17.284  0.3706 -0.0319  0.1546
 2019DPPC   GL145915  31.517  19.181  17.386 -0.2443 -0.1571 -0.0991
 2019DPPC   GL245916  31.526  19.264  17.650  0.4160  0.0126  0.1501
 2019DPPC   C1A45917  31.775  19.633  17.486 -0.0646 -0.1530 -0.3061
 2019DPPC   C2A45918  31.949  20.100  17.254  0.0893 -0.0442  0.1303
 2019DPPC   C3A45919  32.050  20.529  17.201 -0.3962 -0.2805 -0.1044
 2019DPPC   C4A45920  32.112  20.938  16.990 -0.2091 -0.3397  0.5420
 2019DPPC   C1B45921  31.281  19.191  18.155 -0.1827  0.1620 -0.2588
 2019DPPC   C2B45922  31.231  19.444  18.483  0.0339  0.0897  0.1808
 2019DPPC   C3B45923  31.180  19.937  18.513  0.2414  0.5422 -0.1560
 2019DPPC   C4B45924  30.991  20.093  18.792  0.2670 -0.0710 -0.3955
 2020DPPC   NC345925  30.451  36.802  11.859 -0.1967 -0.2282  0.1267
 2020DPPC   PO445926  30.571  37.032  12.316  0.0115  0.3938  0.1628
 2020DPPC   GL145927  30.243  36.684  12.427 -0.2819 -0.1362  0.3123
 2020DPPC   GL245928  30.171  36.676  12.846  0.0903  0.2182  0.0110
 2020DPPC   C1A45929  30.060  36.319  12.340 -0.1193 -0.1504 -0.4143
 2020DPPC   C2A45930  29.777  36.115  12.557 -0.1337  0.0697 -0.5183
 2020DPPC   C3A45931  29.640  35.718  12.810  0.3540 -0.0068 -0.2040
 2020DPPC   C4A45932  29.336  35.487  13.124  0.2132  0.0287 -0.2038
 2020DPPC   C1B45933  30.086  36.174  12.938  0.0154 -0.2748  0.0851
 2020DPPC   C2B45934  30.103  35.726  13.006  0.1916  0.1250  0.1133
 2020DPPC   C3B45935  29.804  35.669  13.315 -0.1142  0.2484  0.0533
 2020DPPC   C4B45936  29.881  35.667  13.729  0.0639 -0.2495 -0.0017
 2021DPPC   NC345937  38.727  24.612  23.768 -0.1744 -0.2327  0.0642
 2021DPPC   PO445938  38.718  24.737  23.337 -0.1013  0.1619  0.1659
 2021DPPC   GL145939  38.353  24.866  23.311  0.0964 -0.2845  0.1182
 2021DPPC   GL245940  38.306  25.190  23.492 -0.2481 -0.3246 -0.2384
 2021DPPC   C1A45941  37.848  25.019  23.502 -0.0891  0.1272  0.4743
 2021DPPC   C2A45942  37.673  25.340  23.621 -0.1166 -0.0477  0.1049
 2021DPPC   C3A45943  37.189  25.544  23.368 -0.1081 -0.1385  0.3446
 2021DPPC   C4A45944  36.747  25.747  23.328  0.4022  0.1645  0.1184
 2021DPPC   C1B45945  38.100  25.337  23.119  0.2635  0.3718  0.1501
 2021DPPC   C2B45946  37.739  25.565  23.090  0.0473  0.0119 -0.1260
 2021DPPC   C3B45947  37.319  25.567  22.832 -0.0363  0.0460  0.2791
 2021DPPC   C4B45948  37.048  25.187  22.859 -0.3215 -0.1713  0.3023
 2022DPPC   NC345949  14.913  31.895  24.507 -0.2406  0.0339 -0.1189
 2022DPPC   PO445950  15.103  31.489  24.303  0.1112 -0.2593  0.0760
 2022DPPC   GL145951  15.416  31.219  24.287  0.0384 -0.1008  0.1052
 2022DPPC   GL245952  15.711  31.214  24.385 -0.1180  0.0058 -0.0639
 2022DPPC   C1A45953  15.432  30.744  24.324  0.1731  0.0413 -0.0991
 2022DPPC   C2A45954  15.416  30.303  24.289 -0.2842 -0.0531 -0.0615
 2022DPPC   C3A45955  15.233  29.949  24.355 -0.2408  0.1425 -0.2987
 2022DPPC   C4A45956  15.387  29.550  24.494 -0.0860 -0.1510  0.0617
 2022DPPC   C1B45957  16.167  31.299  24.321  0.1939  0.1263  0.1167
 2022DPPC   C2B45958  16.519  31.073  23.995  0.1739  0.1873  0.2383
 2022DPPC   C3B45959  16.622  31.295  23.627 -0.0728  0.4750  0.1865
 2022DPPC   C4B45960  16.861  31.639  23.393  0.0817  0.1410  0.0798
 2023DPPC   NC345961  13.679  30.277  21.010 -0.0005  0.0243  0.2903
 2023DPPC   PO445962  13.915  30.455  21.388 -0.1820 -0.0818  0.2040
 2023DPPC   GL145963  14.198  30.470  21.766 -0.0868 -0.0851 -0.1234
 2023DPPC   GL245964  14.420  30.225  21.801 -0.1016 -0.0227 -0.1453
 2023DPPC   C1A45965  14.510  30.691  22.001  0.1139 -0.0274  0.1763
 2023DPPC   C2A45966  14.873  30.778  22.202  0.0028 -0.1414  0.0560
 2023DPPC   C3A45967  15.257  30.868  22.460  0.1822  0.0040  0.1542
 2023DPPC   C4A45968  15.594  30.970  22.795  0.0821 -0.1958 -0.0562
 2023DPPC   C1B45969  14.763  30.268  22.204  0.2093 -0.0846  0.1380
 2023DPPC   C2B45970  15.205  30.345  22.360 -0.1448 -0.1935 -0.3433
 2023DPPC   C3B45971  15.583  30.521  22.389 -0.1209  0.1450 -0.1288
 2023DPPC   C4B45972  15.977  30.710  22.512 -0.3121 -0.2688  0.2916
 2024DPPC   NC345973  23.920  22.643   8.083 -0.1439  0.0224  0.2136
 2024DPPC   PO445974  23.587  22.968   8.000 -0.2391 -0.1082  0.1647
 2024DPPC   GL145975  23.504  22.944   7.539 -0.0699  0.1346  0.0681
 2024DPPC   GL245976  23.695  23.132   7.330  0.1248  0.0422  0.0162
 2024DPPC   C1A45977  23.482  22.675   7.195  0.0988 -0.4456 -0.0352
 2024DPPC   C2A45978  23.521  22.767   6.815  0.0862 -0.0832  0.3559
 2024DPPC   C3A45979  23.437  22.543   6.400 -0.1488  0.0649 -0.0138
 2024DPPC   C4A45980  23.476  22.487   5.950 -0.2535  0.2902 -0.2877
 2024DPPC   C1B45981  23.641  23.379   7.021 -0.2115 -0.0951  0.0977
 2024DPPC   C2B45982  23.809  23.187   6.744  0.2159 -0.1987  0.2531
 2024DPPC   C3B45983  23.819  22.911   6.417 -0.0477  0.0592  0.3256
 2024DPPC   C4B45984  23.905  22.801   6.045  0.1499 -0.0401  0.0005
 2025DPPC   NC345985  28.316  40.879   1.011  0.0773  0.1859  0.0952
 2025DPPC   PO445986  28.175  40.503   0.763 -0.2376 -0.0592 -0.2337
 2025DPPC   GL145987  28.220  40.132   0.509  0.0863 -0.0230  0.0883
 2025DPPC   GL245988  28.367  39.826   0.554  0.0827 -0.1012  0.1228
 2025DPPC   C1A45989  28.561  40.028   0.126 -0.0981  0.1415 -0.2803
 2025DPPC   C2A45990  28.664  40.176  26.610  0.1346 -0.1975  0.0333
 2025DPPC   C3A45991  28.795  40.464  26.243  0.1900  0.0968  0.1013
 2025DPPC   C4A45992  28.789  40.838  25.977  0.1314 -0.2418 -0.1291
 2025DPPC   C1B45993  28.292  39.590   0.129 -0.0479 -0.4163 -0.0994
 2025DPPC   C2B45994  28.413  39.206   0.165  0.3273  0.3141 -0.3865
 2025DPPC   C3B45995  28.821  38.948   0.244  0.2458 -0.3594 -0.0315
 2025DPPC   C4B45996  29.115  39.039   0.325 -0.2472  0.1363  0.3573
 2026DPPC   NC345997  28.001  33.994  14.571 -0.0915  0.0821  0.1631
 2026DPPC   PO445998  27.803  34.314  14.842  0.3184 -0.1341  0.1172
 2026DPPC   GL145999  27.683  34.514  14.464  0.0482 -0.1201  0.3072
 2026DPPC   GL246000  27.341  34.698  14.471 -0.2438 -0.3637  0.1390
 2026DPPC   C1A46001  27.457  34.471  14.041  0.1942 -0.0026 -0.2061
 2026DPPC   C2A46002  27.457  34.620  13.675  0.0958  0.0785  0.0910
 2026DPPC   C3A46003  27.442  34.853  13.358  0.1526 -0.0573  0.0057
 2026DPPC   C4A46004  27.862  35.076  13.189 -0.2032  0.2491 -0.1477
 2026DPPC   C1B46005  27.448  35.013  14.112  0.3441  0.0278 -0.0178
 2026DPPC   C2B46006  27.468  35.247  13.721 -0.1919 -0.1136 -0.0525
 2026DPPC   C3B46007  27.752  35.532  13.533 -0.1737 -0.1158  0.0248
 2026DPPC   C4B46008  27.829  35.975  13.450 -0.1464  0.0771  0.1501
 2027DPPC   NC346009  37.392  23.205  26.251  0.0176  0.3562  0.0063
 2027DPPC   PO446010  37.116  23.426  26.631  0.1928 -0.0012  0.2184
 2027DPPC   GL146011  36.755  23.549  26.451 -0.1882  0.0267  0.1382
 2027DPPC   GL246012  36.512  23.397  26.625  0.3324 -0.1914  0.0913
 2027DPPC   C1A46013  36.334  23.779  26.268 -0.0355 -0.5038  0.0272
 2027DPPC   C2A46014  35.910  23.823  26.324 -0.1911 -0.2971  0.4846
 2027DPPC   C3A46015  35.533  23.781  26.626 -0.0211 -0.2434 -0.3065
 2027DPPC   C4A46016  35.028  23.713  26.789  0.1793  0.3788 -0.3380
 2027DPPC   C1B46017  36.089  23.372  26.473  0.1803  0.0816 -0.0110
 2027DPPC   C2B46018  35.682  23.373  26.296 -0.2904  0.0114 -0.0425
 2027DPPC   C3B46019  35.417  23.716  26.123 -0.3680  0.2344  0.2316
 2027DPPC   C4B46020  35.282  23.718  25.681  0.3818 -0.0298 -0.2262
 2028DPPC   NC346021  32.145  24.780  26.263  0.0717 -0.1763 -0.1378
 2028DPPC   PO446022  32.089  24.381  26.233  0.0330  0.1670 -0.0886
 2028DPPC   GL146023  32.222  24.080  26.520 -0.3923 -0.0554 -0.2418
 2028DPPC   GL246024  32.026  24.101  26.763  0.0239 -0.0182 -0.0322
 2028DPPC   C1A46025  32.468  23.815  26.881  0.0037 -0.1731  0.1514
 2028DPPC   C2A46026  32.335  23.375   0.095  0.2212 -0.3618  0.0933
 2028DPPC   C3A46027  32.502  22.906  26.906 -0.2579 -0.2350 -0.0270
 2028DPPC   C4A46028  32.711  22.466   0.134 -0.0117  0.2377 -0.6329
 2028DPPC   C1B46029  31.975  23.917   0.062 -0.4647 -0.0301  0.1754
 2028DPPC   C2B46030  31.995  23.598   0.355 -0.1495 -0.1233 -0.0724
 2028DPPC   C3B46031  32.348  23.319   0.644 -0.2377 -0.0515  0.0884
 2028DPPC   C4B46032  32.803  23.385   0.792 -0.2087  0.1097  0.0866
 2029DPPC   NC346033  39.821  26.500  24.700  0.0843  0.0385 -0.0264
 2029DPPC   PO446034  39.705  26.900  24.426 -0.1247  0.1535  0.1446
 2029DPPC   GL146035  39.301  27.134  24.338  0.6495  0.1461 -0.2125
 2029DPPC   GL246036  39.270  26.937  24.071 -0.4294  0.4874 -0.0489
 2029DPPC   C1A46037  38.788  27.181  24.335 -0.1809 -0.1568  0.1502
 2029DPPC   C2A46038  38.296  27.184  24.383 -0.1098 -0.0075 -0.2238
 2029DPPC   C3A46039  37.933  27.308  24.274  0.4098 -0.3622 -0.0332
 2029DPPC   C4A46040  37.452  27.337  24.219  0.0769 -0.3494 -0.0973
 2029DPPC   C1B46041  38.964  26.739  23.978  0.3623 -0.2182  0.4769
 2029DPPC   C2B46042  38.651  26.561  23.834  0.0243 -0.0828 -0.0001
 2029DPPC   C3B46043  38.244  26.358  23.714 -0.1216 -0.0574 -0.2601
 2029DPPC   C4B46044  37.879  26.178  23.685 -0.2268  0.1854  0.1386
 2030DPPC   NC346045  35.939  20.606  17.606  0.1497  0.2164 -0.1664
 2030DPPC   PO446046  35.809  21.004  17.808 -0.0598  0.0995 -0.1948
 2030DPPC   GL146047  35.356  21.256  17.996  0.0528 -0.0097 -0.1065
 2030DPPC   GL246048  35.147  21.214  17.846  0.1566  0.1036  0.0124
 2030DPPC   C1A46049  35.047  21.573  18.198 -0.2229 -0.1664 -0.0572
 2030DPPC   C2A46050  34.909  21.959  17.915  0.3288  0.1412  0.1544
 2030DPPC   C3A46051  34.634  22.223  17.748  0.0817  0.0410 -0.0146
 2030DPPC   C4A46052  34.286  22.365  17.503  0.2129 -0.1225  0.4638
 2030DPPC   C1B46053  34.721  21.291  17.943 -0.0537 -0.0009  0.1579
 2030DPPC   C2B46054  34.387  21.550  18.166  0.3620 -0.2760 -0.0524
 2030DPPC   C3B46055  33.936  21.632  18.517 -0.0205  0.5854 -0.0252
 2030DPPC   C4B46056  33.585  21.747  18.748 -0.0232 -0.3428 -0.2136
 2031DPPC   NC346057  32.750  22.481  13.077 -0.1062 -0.3103 -0.1555
 2031DPPC   PO446058  32.359  22.503  13.151  0.0877 -0.0933  0.1588
 2031DPPC   GL146059  32.355  22.456  13.457 -0.0697 -0.2030 -0.3432
 2031DPPC   GL246060  32.003  22.443  13.520 -0.1039 -0.0117  0.2964
 2031DPPC   C1A46061  32.260  22.739  13.914 -0.1945 -0.0324 -0.1709
 2031DPPC   C2A46062  32.440  22.998  14.296 -0.2001  0.0997  0.4509
 2031DPPC   C3A46063  32.538  23.058  14.660 -0.0894  0.1391  0.2749
 2031DPPC   C4A46064  32.927  22.982  14.755  0.0644  0.1694 -0.0732
 2031DPPC   C1B46065  31.695  22.188  13.718  0.1917 -0.1505  0.5192
 2031DPPC   C2B46066  31.371  22.060  14.070 -0.0949  0.2145  0.0689
 2031DPPC   C3B46067  31.435  22.299  14.349  0.0063  0.4687 -0.0725
 2031DPPC   C4B46068  31.427  22.706  14.401  0.0964  0.0839  0.3213
 2032DPPC   NC346069  22.955  16.554  18.432 -0.0421 -0.1030  0.4770
 2032DPPC   PO446070  23.287  16.563  18.668  0.0676  0.0186 -0.0245
 2032DPPC   GL146071  23.414  16.990  18.663  0.1702 -0.1382 -0.1538
 2032DPPC   GL246072  23.299  17.134  18.554 -0.2326  0.1064  0.2477
 2032DPPC   C1A46073  23.473  17.356  18.979 -0.0565  0.0761 -0.0400
 2032DPPC   C2A46074  23.236  17.735  19.090 -0.1766  0.0190 -0.0330
 2032DPPC   C3A46075  23.146  17.921  19.477 -0.0818 -0.4062  0.1323
 2032DPPC   C4A46076  23.060  18.218  19.768 -0.0064  0.0191 -0.0150
 2032DPPC   C1B46077  23.006  17.290  18.793  0.1820  0.1439  0.2881
 2032DPPC   C2B46078  22.835  17.524  19.227  0.1227 -0.0928  0.0728
 2032DPPC   C3B46079  22.768  17.469  19.638 -0.1403  0.3083  0.4715
 2032DPPC   C4B46080  22.526  17.409  19.961  0.0203  0.2160  0.0682
 2033DPPC   NC346081  14.132  23.745  20.215  0.0934  0.1641  0.2137
 2033DPPC   PO446082  14.088  23.521  19.737 -0.1439 -0.1042  0.0221
 2033DPPC   GL146083  14.434  23.626  19.496  0.0115  0.1288  0.1124
 2033DPPC   GL246084  14.623  23.811  19.695 -0.1093 -0.1437 -0.1238
 2033DPPC   C1A46085  14.946  23.548  19.426  0.1581  0.0513  0.0835
 2033DPPC   C2A46086  15.384  23.782  19.562 -0.0111 -0.1873  0.1614
 2033DPPC   C3A46087  15.810  23.914  19.463  0.2074 -0.1384 -0.1790
 2033DPPC   C4A46088  15.893  24.204  19.288  0.1060  0.0392  0.1224
 2033DPPC   C1B46089  14.988  23.794  19.896  0.0438 -0.0141 -0.0215
 2033DPPC   C2B46090  15.262  23.696  20.219  0.2718 -0.2056  0.0895
 2033DPPC   C3B46091  15.580  23.409  20.306  0.2700  0.0707 -0.0639
 2033DPPC   C4B46092  15.774  23.504  20.720 -0.0104  0.2401 -0.1533
 2034DPPC   NC346093  16.687  25.732   4.952  0.1088  0.2336  0.0069
 2034DPPC   PO446094  16.789  25.284   4.864 -0.1409 -0.1387  0.1286
 2034DPPC   GL146095  17.124  25.405   4.629  0.2479  0.0166 -0.0443
 2034DPPC   GL246096  17.072  25.476   4.281 -0.3044  0.1914  0.2446
 2034DPPC   C1A46097  17.323  25.766   4.760  0.2285  0.1826 -0.1012
 2034DPPC   C2A46098  17.551  26.125   4.796 -0.1897 -0.0801  0.3666
 2034DPPC   C3A46099  17.825  26.393   4.684  0.0060  0.0677 -0.1326
 2034DPPC   C4A46100  17.944  26.633   4.365  0.2777  0.4116 -0.4205
 2034DPPC   C1B46101  17.558  25.439   4.397 -0.0789  0.1663 -0.3338
 2034DPPC   C2B46102  17.847  25.736   4.648 -0.1198  0.1587 -0.2145
 2034DPPC   C3B46103  18.200  26.017   4.717  0.0801  0.1684  0.1522
 2034DPPC   C4B46104  18.637  26.214   4.671  0.0120  0.0326 -0.0985
 2035DPPC   NC346105  26.239  26.296  25.866  0.0471 -0.3284 -0.0926
 2035DPPC   PO446106  25.892  26.428  25.812  0.2791 -0.2621  0.3145
 2035DPPC   GL146107  25.790  26.247  26.232 -0.1350  0.2604  0.0243
 2035DPPC   GL246108  25.461  26.235  26.102 -0.0376 -0.0219 -0.3139
 2035DPPC   C1A46109  25.594  26.292  26.602  0.1604 -0.1478  0.0751
 2035DPPC   C2A46110  25.709  26.102   0.124 -0.0178 -0.0016 -0.2142
 2035DPPC   C3A46111  25.676  25.880   0.533 -0.2218 -0.5427  0.1253
 2035DPPC   C4A46112  25.578  26.037   1.029  0.4349 -0.2787  0.0636
 2035DPPC   C1B46113  25.200  25.996  26.364  0.0139 -0.1873 -0.0989
 2035DPPC   C2B46114  25.043  25.565  26.546  0.4375  0.0911 -0.0079
 2035DPPC   C3B46115  24.907  25.634   0.025  0.1172  0.1283 -0.1451
 2035DPPC   C4B46116  24.692  25.981   0.305 -0.0390 -0.1511  0.2349
 2036DPPC   NC346117  29.718  39.358  14.133 -0.0678  0.1303 -0.1710
 2036DPPC   PO446118  29.395  39.176  14.252  0.4010 -0.1484  0.0033
 2036DPPC   GL146119  29.091  38.798  14.283 -0.0359  0.1798 -0.1256
 2036DPPC   GL246120  29.053  38.584  14.049 -0.1173 -0.1787 -0.0128
 2036DPPC   C1A46121  28.978  38.616  14.649 -0.0902  0.1636  0.0345
 2036DPPC   C2A46122  28.733  38.505  15.086 -0.0227 -0.2459  0.0749
 2036DPPC   C3A46123  28.803  38.574  15.610 -0.1944 -0.1631  0.1071
 2036DPPC   C4A46124  29.083  38.589  15.940 -0.0508 -0.3600  0.0066
 2036DPPC   C1B46125  29.260  38.206  13.893  0.0185  0.0293  0.4276
 2036DPPC   C2B46126  29.583  37.986  14.017  0.1113  0.6191  0.3613
 2036DPPC   C3B46127  29.571  37.675  14.239 -0.0541  0.1194 -0.3725
 2036DPPC   C4B46128  29.821  37.440  14.586 -0.0518  0.1362  0.0858
 2037DPPC   NC346129  25.662  18.670  15.710 -0.0946  0.0106  0.1943
 2037DPPC   PO446130  25.637  19.077  15.630 -0.0099  0.2903  0.1414
 2037DPPC   GL146131  25.573  19.435  15.805 -0.2103  0.0847  0.1182
 2037DPPC   GL246132  25.408  19.635  15.506  0.0413 -0.0659 -0.3818
 2037DPPC   C1A46133  25.552  19.753  16.165 -0.1074 -0.0739 -0.3336
 2037DPPC   C2A46134  25.846  19.899  16.489 -0.1341  0.2366 -0.4265
 2037DPPC   C3A46135  26.006  20.167  16.830 -0.3896  0.1538 -0.0195
 2037DPPC   C4A46136  26.175  20.446  17.115  0.0983 -0.1779 -0.2787
 2037DPPC   C1B46137  25.173  19.812  15.829 -0.1146 -0.3875 -0.1842
 2037DPPC   C2B46138  25.260  20.384  15.909 -0.3238  0.6708  0.2390
 2037DPPC   C3B46139  25.396  20.762  16.065  0.3360  0.1557  0.1262
 2037DPPC   C4B46140  25.687  21.126  15.981  0.1483 -0.0853  0.0972
 2038DPPC   NC346141  23.373  32.731   6.476  0.0804 -0.3059  0.1026
 2038DPPC   PO446142  23.054  32.971   6.200 -0.0239  0.0361 -0.1292
 2038DPPC   GL146143  23.021  32.691   5.924 -0.3607 -0.1038  0.2614
 2038DPPC   GL246144  23.355  32.664   5.752  0.0351  0.3657 -0.4429
 2038DPPC   C1A46145  22.880  32.593   5.423  0.0916  0.1138 -0.0271
 2038DPPC   C2A46146  22.705  32.262   5.105 -0.1978  0.3563 -0.2559
 2038DPPC   C3A46147  22.552  32.009   4.737  0.0543 -0.2052  0.2583
 2038DPPC   C4A46148  22.309  31.671   4.670  0.1796 -0.2110  0.1957
 2038DPPC   C1B46149  23.341  32.740   5.352  0.1276 -0.1993  0.0073
 2038DPPC   C2B46150  23.283  32.503   4.996  0.0047  0.1362 -0.1738
 2038DPPC   C3B46151  23.082  32.301   4.684  0.1989  0.4247  0.1372
 2038DPPC   C4B46152  22.725  32.332   4.415  0.2737 -0.1317 -0.1924
 2039DPPC   NC346153  26.752  22.928  22.440  0.0644  0.4648  0.1841
 2039DPPC   PO446154  26.576  22.868  22.163  0.3181  0.0872  0.0879
 2039DPPC   GL146155  26.202  22.648  22.418 -0.2354  0.1255  0.0300
 2039DPPC   GL246156  25.959  22.521  22.220  0.1218 -0.1717  0.1915
 2039DPPC   C1A46157  26.252  22.544  22.827 -0.4393 -0.0491  0.3792
 2039DPPC   C2A46158  26.461  22.205  22.880 -0.1824 -0.0355 -0.1327
 2039DPPC   C3A46159  26.457  21.740  22.981  0.0867 -0.3024 -0.2345
 2039DPPC   C4A46160  26.220  21.406  23.073  0.0711  0.0389 -0.0443
 2039DPPC   C1B46161  25.547  22.245  22.251  0.3120 -0.4779 -0.1362
 2039DPPC   C2B46162  25.163  22.210  22.605  0.1117 -0.1624  0.1242
 2039DPPC   C3B46163  25.229  22.104  23.124 -0.0449 -0.0242 -0.0821
 2039DPPC   C4B46164  25.245  22.108  23.534 -0.2098 -0.2190  0.0115
 2040DPPC   NC346165  29.468  39.102  13.159  0.4873 -0.0502  0.0472
 2040DPPC   PO446166  29.597  39.148  13.675  0.1405 -0.3689  0.0504
 2040DPPC   GL146167  29.627  38.860  13.977  0.1005  0.0528 -0.0426
 2040DPPC   GL246168  29.671  38.591  13.834  0.1076  0.0235 -0.0850
 2040DPPC   C1A46169  29.483  38.439  14.264  0.1112  0.0310 -0.0670
 2040DPPC   C2A46170  29.175  38.246  14.382  0.1711 -0.1776 -0.0301
 2040DPPC   C3A46171  29.051  37.889  14.586 -0.2003  0.2595 -0.1497
 2040DPPC   C4A46172  28.728  37.710  14.882 -0.0040  0.0174 -0.1512
 2040DPPC   C1B46173  29.992  38.238  13.953 -0.0963  0.0106 -0.1074
 2040DPPC   C2B46174  30.147  37.833  14.170  0.0327  0.0061  0.0912
 2040DPPC   C3B46175  30.218  37.356  14.259  0.0704  0.1711 -0.3348
 2040DPPC   C4B46176  30.056  36.950  14.246 -0.1266 -0.0044 -0.1336
 2041DPPC   NC346177  25.801  41.758  20.503  0.1231  0.1975 -0.0109
 2041DPPC   PO446178  25.418  41.773  20.266 -0.1654  0.0367 -0.1888
 2041DPPC   GL146179  25.541  41.352  20.278  0.1255  0.0369 -0.0659
 2041DPPC   GL246180  25.911  41.289  20.390 -0.2343  0.1026  0.2747
 2041DPPC   C1A46181  25.544  40.909  20.344 -0.0779  0.1304 -0.1397
 2041DPPC   C2A46182  25.747  40.531  20.486 -0.1254  0.2074 -0.2787
 2041DPPC   C3A46183  26.020  40.521  20.836  0.1183  0.0972 -0.2134
 2041DPPC   C4A46184  26.056  40.780  21.150  0.0454 -0.2590  0.0976
 2041DPPC   C1B46185  26.084  40.864  20.428 -0.1978 -0.4441 -0.4828
 2041DPPC   C2B46186  26.255  40.554  20.228  0.2033 -0.0155  0.2184
 2041DPPC   C3B46187  26.332  40.218  19.993  0.2611  0.1292  0.2276
 2041DPPC   C4B46188  26.119  39.838  19.830 -0.0317  0.0728  0.0497
 2042DPPC   NC346189  33.769  18.912  19.283  0.0918  0.0256 -0.0211
 2042DPPC   PO446190  33.627  19.289  19.105  0.0855 -0.0069 -0.0945
 2042DPPC   GL146191  33.326  19.603  18.932 -0.0295 -0.2440 -0.0776
 2042DPPC   GL246192  32.952  19.593  18.897  0.2137 -0.1171 -0.3907
 2042DPPC   C1A46193  33.465  20.002  18.888  0.2419  0.2221  0.0409
 2042DPPC   C2A46194  33.270  20.412  18.958  0.2059  0.2285 -0.3092
 2042DPPC   C3A46195  33.233  20.687  19.253 -0.3610  0.1122 -0.0246
 2042DPPC   C4A46196  33.118  20.973  19.628 -0.0495  0.3510  0.0573
 2042DPPC   C1B46197  32.960  20.025  19.059 -0.0173  0.2793  0.0728
 2042DPPC   C2B46198  32.739  20.307  19.298 -0.1556  0.0610 -0.0833
 2042DPPC   C3B46199  32.435  20.538  19.568  0.0690  0.3081  0.1086
 2042DPPC   C4B46200  32.115  20.785  19.640  0.2536  0.2646  0.1812
 2043DPPC   NC346201  21.304  32.125  10.101 -0.3929  0.0545 -0.4115
 2043DPPC   PO446202  21.671  31.919  10.476  0.0710 -0.2774 -0.1041
 2043DPPC   GL146203  21.869  31.520  10.733 -0.1055  0.0480 -0.0213
 2043DPPC   GL246204  21.841  31.247  10.606 -0.0326 -0.4151 -0.1519
 2043DPPC   C1A46205  22.221  31.434  10.996  0.1393 -0.0927 -0.3859
 2043DPPC   C2A46206  22.628  31.287  11.021 -0.0934  0.2923 -0.1815
 2043DPPC   C3A46207  22.904  30.911  10.897  0.1509 -0.2851 -0.0046
 2043DPPC   C4A46208  23.256  30.858  10.980  0.0623 -0.2224 -0.0228
 2043DPPC   C1B46209  22.123  30.940  10.859 -0.2190 -0.0137 -0.0197
 2043DPPC   C2B46210  22.142  31.007  11.247  0.2993  0.2358 -0.3488
 2043DPPC   C3B46211  22.138  30.740  11.580 -0.0480 -0.2799 -0.1351
 2043DPPC   C4B46212  22.081  30.456  11.913 -0.1299  0.0200  0.3222
 2044DPPC   NC346213  28.665  29.113   7.602 -0.1613  0.1105 -0.1557
 2044DPPC   PO446214  28.930  29.231   7.227  0.4804  0.1280  0.1270
 2044DPPC   GL146215  28.789  29.283   6.744  0.0135 -0.1243  0.1344
 2044DPPC   GL246216  28.792  28.949   6.683 -0.1167  0.1184  0.0056
 2044DPPC   C1A46217  29.021  29.189   6.309 -0.5184  0.3110 -0.2075
 2044DPPC   C2A46218  29.349  29.113   5.939 -0.0062 -0.0787 -0.1195
 2044DPPC   C3A46219  29.318  29.304   5.628 -0.0083 -0.0276  0.2587
 2044DPPC   C4A46220  29.214  29.406   5.173 -0.1465  0.1484 -0.0688
 2044DPPC   C1B46221  28.788  28.802   6.221  0.2447 -0.0951  0.3387
 2044DPPC   C2B46222  28.877  29.024   5.849  0.0819 -0.0678  0.1258
 2044DPPC   C3B46223  28.823  29.214   5.438  0.0541  0.1698  0.0441
 2044DPPC   C4B46224  28.721  29.271   5.046 -0.1212  0.0385 -0.4430
 2045DPPC   NC346225  14.156  24.017  26.784 -0.0463  0.0606  0.0508
 2045DPPC   PO446226  14.542  24.301  26.830  0.0372 -0.0779 -0.0711
 2045DPPC   GL146227  14.755  24.690  26.889  0.3707 -0.0895 -0.2951
 2045DPPC   GL246228  14.765  24.801   0.274  0.1409  0.0785  0.0765
 2045DPPC   C1A46229  14.682  24.967  26.464 -0.2623 -0.0873 -0.3481
 2045DPPC   C2A46230  14.511  25.169  26.115 -0.1169  0.1638  0.1142
 2045DPPC   C3A46231  14.669  25.167  25.768  0.4364  0.1271  0.0389
 2045DPPC   C4A46232  14.483  25.276  25.343 -0.1027  0.0782 -0.1413
 2045DPPC   C1B46233  14.932  25.145   0.070  0.5734 -0.3602  0.0467
 2045DPPC   C2B46234  15.145  25.144  26.657  0.1892 -0.1485  0.3936
 2045DPPC   C3B46235  15.141  24.676  26.378 -0.1621  0.0814 -0.0513
 2045DPPC   C4B46236  15.403  24.469  26.131  0.2748  0.2714 -0.1349
 2046DPPC   NC346237  16.419  31.299  17.553 -0.0877  0.0056  0.0635
 2046DPPC   PO446238  16.442  30.908  17.411  0.0898 -0.2477 -0.2089
 2046DPPC   GL146239  16.789  30.825  17.615  0.2810  0.2055 -0.2643
 2046DPPC   GL246240  16.649  30.661  17.920  0.0355 -0.1653 -0.0232
 2046DPPC   C1A46241  17.075  30.523  17.538  0.0866  0.1374  0.0114
 2046DPPC   C2A46242  17.338  30.350  17.150 -0.1920  0.0525 -0.1692
 2046DPPC   C3A46243  17.515  30.716  16.917 -0.1270  0.0509 -0.1543
 2046DPPC   C4A46244  17.584  31.221  16.807  0.0204  0.1753  0.1367
 2046DPPC   C1B46245  16.712  31.055  18.154 -0.0807 -0.1664 -0.2251
 2046DPPC   C2B46246  17.122  31.416  18.306  0.0300 -0.1554 -0.3416
 2046DPPC   C3B46247  17.295  31.736  18.496 -0.1604  0.0117 -0.3277
 2046DPPC   C4B46248  17.570  31.883  18.701  0.1168  0.1136  0.3551
 2047DPPC   NC346249  20.869  38.561   1.545  0.1394  0.1565 -0.2218
 2047DPPC   PO446250  21.291  38.590   1.351  0.2843  0.0525  0.2006
 2047DPPC   GL146251  21.559  38.285   1.162  0.2701 -0.0567  0.3800
 2047DPPC   GL246252  21.687  38.074   1.511  0.1293 -0.0945 -0.3006
 2047DPPC   C1A46253  21.865  37.919   1.117  0.1174  0.4524  0.1143
 2047DPPC   C2A46254  22.230  37.768   1.185  0.0957 -0.0525 -0.1163
 2047DPPC   C3A46255  22.638  37.600   1.126  0.1908  0.1878  0.0114
 2047DPPC   C4A46256  22.638  37.319   0.711 -0.0756  0.3834 -0.0445
 2047DPPC   C1B46257  21.565  37.689   1.411 -0.3228 -0.1834  0.0580
 2047DPPC   C2B46258  21.682  37.173   1.342  0.0032 -0.2704 -0.0110
 2047DPPC   C3B46259  21.680  36.700   1.269  0.1520 -0.0757  0.0415
 2047DPPC   C4B46260  21.674  36.327   1.125  0.3117 -0.3153  0.3677
 2048DPPC   NC346261  26.404  42.196  19.105 -0.6012  0.0449  0.1533
 2048DPPC   PO446262  26.334  41.928  18.716  0.3539  0.1024 -0.3249
 2048DPPC   GL146263  26.395  41.399  18.610 -0.1022  0.1112  0.1475
 2048DPPC   GL246264  26.596  41.412  18.381  0.3021  0.0264  0.4754
 2048DPPC   C1A46265  26.272  41.118  18.888  0.1145 -0.0810 -0.0712
 2048DPPC   C2A46266  26.096  40.692  19.026 -0.0107  0.0566 -0.5001
 2048DPPC   C3A46267  26.001  40.362  19.132 -0.3384  0.0276  0.1103
 2048DPPC   C4A46268  25.797  40.004  18.971 -0.1795 -0.1973 -0.2030
 2048DPPC   C1B46269  26.751  41.098  18.715  0.1525  0.0218  0.5360
 2048DPPC   C2B46270  27.113  40.795  18.957  0.1528 -0.1670 -0.1204
 2048DPPC   C3B46271  27.088  40.361  19.048 -0.3004  0.2216 -0.1810
 2048DPPC   C4B46272  27.259  40.044  19.440 -0.3518  0.3764 -0.2336
 2049DPPC   NC346273  38.092  24.913  18.000  0.3300 -0.2417  0.1013
 2049DPPC   PO446274  37.979  24.618  17.662 -0.2642  0.1039 -0.3079
 2049DPPC   GL146275  37.470  24.503  17.679  0.0933 -0.0031 -0.0665
 2049DPPC   GL246276  37.525  24.842  17.807  0.1015  0.0927 -0.0501
 2049DPPC   C1A46277  37.089  24.359  17.841 -0.0417  0.0473 -0.1083
 2049DPPC   C2A46278  36.791  24.474  18.172 -0.1320  0.0331 -0.2654
 2049DPPC   C3A46279  36.526  24.649  18.377  0.0105  0.3235 -0.0487
 2049DPPC   C4A46280  36.336  24.916  18.631  0.1993 -0.2159  0.3348
 2049DPPC   C1B46281  37.113  24.885  17.994 -0.1050 -0.0475 -0.2460
 2049DPPC   C2B46282  36.647  24.820  17.844  0.1350  0.0863  0.1773
 2049DPPC   C3B46283  36.161  24.950  17.669  0.2672  0.0235  0.0279
 2049DPPC   C4B46284  35.742  24.920  17.940 -0.0890 -0.0607  0.3663
 2050DPPC   NC346285  20.149  20.605  14.865  0.2227 -0.1203 -0.2184
 2050DPPC   PO446286  19.869  20.894  14.767  0.2214 -0.0610  0.1477
 2050DPPC   GL146287  20.027  21.137  15.078 -0.0457 -0.1413 -0.0375
 2050DPPC   GL246288  20.298  20.958  15.163  0.1695  0.1670 -0.1455
 2050DPPC   C1A46289  19.840  21.150  15.434 -0.1048  0.1078  0.3828
 2050DPPC   C2A46290  19.788  21.074  15.835 -0.2481  0.2087  0.0152
 2050DPPC   C3A46291  19.470  21.226  15.969  0.2100 -0.1265  0.0198
 2050DPPC   C4A46292  18.983  21.227  15.852  0.6555  0.2480  0.0583
 2050DPPC   C1B46293  20.292  21.370  15.418  0.1406 -0.2041 -0.0879
 2050DPPC   C2B46294  20.224  21.274  15.889 -0.0222  0.5298  0.1751
 2050DPPC   C3B46295  20.407  20.976  16.325 -0.5069  0.0593  0.3812
 2050DPPC   C4B46296  20.322  20.575  16.161  0.1279 -0.3835  0.3601
 2051DPPC   NC346297  23.393  36.549  22.167 -0.0728  0.0913  0.2948
 2051DPPC   PO446298  23.520  36.994  22.146 -0.0140  0.1462 -0.0271
 2051DPPC   GL146299  23.329  37.192  21.970 -0.0407 -0.1195 -0.1587
 2051DPPC   GL246300  23.261  37.250  21.633 -0.1048 -0.0830  0.0796
 2051DPPC   C1A46301  22.914  37.370  22.024 -0.2644 -0.5126  0.2389
 2051DPPC   C2A46302  22.716  37.653  22.209  0.2906 -0.0030 -0.0363
 2051DPPC   C3A46303  22.512  38.055  22.198 -0.0831  0.2035 -0.0819
 2051DPPC   C4A46304  22.548  38.410  22.003  0.2321 -0.2925 -0.1564
 2051DPPC   C1B46305  23.001  37.555  21.427  0.3337 -0.0422 -0.2727
 2051DPPC   C2B46306  22.568  37.611  21.173 -0.0852 -0.3416 -0.2044
 2051DPPC   C3B46307  22.379  38.041  21.192 -0.0129  0.0905 -0.3113
 2051DPPC   C4B46308  22.238  38.510  20.970 -0.0602  0.1295  0.0566
 2052DPPC   NC346309  18.201  30.467  13.530 -0.2852  0.0438 -0.0322
 2052DPPC   PO446310  18.430  30.298  13.317  0.0126  0.0127  0.1160
 2052DPPC   GL146311  18.802  30.138  13.403 -0.0240 -0.0280 -0.0753
 2052DPPC   GL246312  18.864  30.487  13.458 -0.1311 -0.2770 -0.0712
 2052DPPC   C1A46313  19.193  30.009  13.903 -0.0282 -0.1861  0.0501
 2052DPPC   C2A46314  19.365  29.904  14.323 -0.0961 -0.2179 -0.1743
 2052DPPC   C3A46315  19.389  29.918  14.806 -0.4628 -0.1826  0.1767
 2052DPPC   C4A46316  19.258  29.915  15.217  0.1069  0.0866 -0.2977
 2052DPPC   C1B46317  19.252  30.742  13.653 -0.1830  0.2571  0.0331
 2052DPPC   C2B46318  19.694  30.807  13.746  0.3557  0.3823 -0.2136
 2052DPPC   C3B46319  20.122  30.666  13.963  0.0394  0.0277 -0.0590
 2052DPPC   C4B46320  20.420  30.734  14.297 -0.2910  0.1395  0.2449
 2053DPPC   NC346321  17.351  27.494   6.061  0.2637  0.2618 -0.0479
 2053DPPC   PO446322  17.109  27.538   5.666  0.0441 -0.1589  0.0891
 2053DPPC   GL146323  17.155  27.547   5.341 -0.0436  0.1601  0.1083
 2053DPPC   GL246324  17.280  27.282   5.259 -0.1367 -0.0750  0.1855
 2053DPPC   C1A46325  17.331  27.564   4.909 -0.0852 -0.1456 -0.1085
 2053DPPC   C2A46326  17.685  27.674   4.526 -0.2774 -0.2848 -0.4864
 2053DPPC   C3A46327  17.985  27.794   4.447  0.1678  0.0774  0.2492
 2053DPPC   C4A46328  18.472  27.683   4.742 -0.2993 -0.0936  0.2695
 2053DPPC   C1B46329  17.681  27.164   5.212 -0.1774 -0.0982 -0.1271
 2053DPPC   C2B46330  17.933  26.812   4.947 -0.1523  0.2206 -0.1330
 2053DPPC   C3B46331  18.319  26.815   4.681  0.2626  0.0572  0.0595
 2053DPPC   C4B46332  18.723  26.655   4.817 -0.0514  0.1498  0.1753
 2054DPPC   NC346333  24.147  39.094   2.547  0.0700 -0.1679 -0.1045
 2054DPPC   PO446334  24.365  39.567   2.481 -0.1205 -0.2280 -0.1231
 2054DPPC   GL146335  24.384  39.317   2.039 -0.0619  0.0677 -0.2540
 2054DPPC   GL246336  24.184  39.005   1.983 -0.1779 -0.0201 -0.1435
 2054DPPC   C1A46337  24.452  39.335   1.610 -0.0405  0.2155  0.1486
 2054DPPC   C2A46338  24.806  39.035   1.471  0.3899 -0.2985  0.3559
 2054DPPC   C3A46339  25.019  38.848   1.180  0.1817 -0.2156 -0.1488
 2054DPPC   C4A46340  25.129  38.764   0.762 -0.0998  0.0969 -0.0662
 2054DPPC   C1B46341  24.626  38.829   1.916 -0.5093 -0.0738  0.1541
 2054DPPC   C2B46342  24.861  38.532   2.171  0.0264 -0.2438  0.0558
 2054DPPC   C3B46343  24.702  38.221   2.278  0.0748  0.1136  0.5001
 2054DPPC   C4B46344  25.015  37.976   2.545 -0.2233  0.1316 -0.1333
 2055DPPC   NC346345  30.497  26.299   6.294  0.0761  0.0533  0.0402
 2055DPPC   PO446346  30.049  26.269   6.489  0.0796 -0.0881  0.1355
 2055DPPC   GL146347  29.672  26.132   6.391  0.0470  0.0572  0.1000
 2055DPPC   GL246348  29.606  26.175   5.989  0.3618  0.2223 -0.0540
 2055DPPC   C1A46349  29.183  26.173   6.300 -0.4709  0.0228 -0.3405
 2055DPPC   C2A46350  28.839  26.029   6.020 -0.1168  0.1433  0.2111
 2055DPPC   C3A46351  28.663  25.750   5.685  0.0240  0.0826 -0.0020
 2055DPPC   C4A46352  28.478  25.682   5.328  0.1451 -0.0149  0.2076
 2055DPPC   C1B46353  29.598  26.057   5.586  0.0674 -0.1658  0.0838
 2055DPPC   C2B46354  29.415  26.070   5.141 -0.2561  0.0581  0.1305
 2055DPPC   C3B46355  29.260  25.914   4.651 -0.0812 -0.0545 -0.0515
 2055DPPC   C4B46356  29.006  26.177   4.321 -0.4260 -0.2545 -0.0724
 2056DPPC   NC346357  23.095  20.371   6.039  0.0117 -0.2428  0.0425
 2056DPPC   PO446358  23.170  20.125   5.664 -0.0209  0.0347  0.4687
 2056DPPC   GL146359  23.252  20.075   5.142  0.1707  0.0523 -0.1107
 2056DPPC   GL246360  23.163  19.877   5.042 -0.0714  0.5410 -0.1859
 2056DPPC   C1A46361  23.030  20.224   4.653  0.1146  0.1801  0.0280
 2056DPPC   C2A46362  22.881  20.545   4.411  0.0079 -0.2013  0.2794
 2056DPPC   C3A46363  22.767  20.617   4.069 -0.1468  0.0158 -0.2131
 2056DPPC   C4A46364  22.573  20.886   3.799 -0.1593  0.2059 -0.1479
 2056DPPC   C1B46365  23.443  19.869   4.673 -0.0056  0.0458  0.2529
 2056DPPC   C2B46366  23.690  19.699   4.274  0.1542  0.1994 -0.1862
 2056DPPC   C3B46367  23.676  20.020   3.983  0.0995  0.0533  0.1746
 2056DPPC   C4B46368  23.769  20.492   3.912  0.2592 -0.0440  0.3165
 2057DPPC   NC346369  28.585  42.135  25.077 -0.3626  0.1108  0.0864
 2057DPPC   PO446370  28.898  41.779  25.088  0.0827  0.2172  0.2851
 2057DPPC   GL146371  28.914  41.405  24.953  0.2349  0.1748  0.3007
 2057DPPC   GL246372  29.230  41.386  24.676 -0.2685 -0.1100  0.2830
 2057DPPC   C1A46373  28.705  41.209  24.590 -0.0994 -0.2174  0.0314
 2057DPPC   C2A46374  28.530  41.171  24.145  0.1068 -0.2999  0.1043
 2057DPPC   C3A46375  28.397  40.721  24.009  0.0186 -0.3258 -0.1626
 2057DPPC   C4A46376  28.412  40.274  23.949  0.2165 -0.1478  0.3441
 2057DPPC   C1B46377  29.189  40.970  24.610  0.0546  0.1345 -0.1921
 2057DPPC   C2B46378  28.888  40.748  24.843  0.0391 -0.1840 -0.0426
 2057DPPC   C3B46379  28.836  40.353  24.858 -0.0709 -0.1160 -0.2039
 2057DPPC   C4B46380  28.581  40.018  24.830  0.1002 -0.2278 -0.1259
 2058DPPC   NC346381  19.984  31.221   6.081 -0.0998  0.1003 -0.1085
 2058DPPC   PO446382  20.229  30.904   6.242 -0.1260  0.0056  0.2827
 2058DPPC   GL146383  20.065  30.754   5.890  0.0431  0.2731 -0.0779
 2058DPPC   GL246384  20.233  30.812   5.693 -0.1792  0.0142 -0.1154
 2058DPPC   C1A46385  20.022  30.337   5.739  0.2190 -0.0310 -0.0273
 2058DPPC   C2A46386  19.752  30.241   5.298  0.1051  0.3046  0.1082
 2058DPPC   C3A46387  19.394  30.028   4.973  0.2136 -0.1008 -0.2072
 2058DPPC   C4A46388  18.908  29.933   4.894 -0.0335  0.1704  0.1452
 2058DPPC   C1B46389  20.109  30.734   5.362  0.0620 -0.0239  0.1524
 2058DPPC   C2B46390  20.199  30.474   5.158 -0.0359  0.0281  0.1682
 2058DPPC   C3B46391  20.033  30.248   4.829  0.2060 -0.4510  0.0448
 2058DPPC   C4B46392  20.214  30.066   4.419  0.3262 -0.1152 -0.4322
 2059DPPC   NC346393  24.357  37.863   3.794 -0.2600  0.0822 -0.0403
 2059DPPC   PO446394  24.668  38.043   3.515 -0.2706  0.2500  0.1749
 2059DPPC   GL146395  24.775  37.716   3.349  0.1399  0.0693  0.0199
 2059DPPC   GL246396  24.880  37.813   3.066  0.2245  0.2335 -0.2622
 2059DPPC   C1A46397  24.873  37.326   3.159  0.2227 -0.1725  0.0460
 2059DPPC   C2A46398  24.978  37.106   2.895  0.0294  0.0162 -0.3540
 2059DPPC   C3A46399  25.274  37.031   2.507 -0.3116  0.3441  0.2476
 2059DPPC   C4A46400  25.684  37.058   2.239  0.2763 -0.4033 -0.0008
 2059DPPC   C1B46401  24.597  37.723   2.691  0.1015  0.1744  0.0758
 2059DPPC   C2B46402  24.297  37.819   2.328 -0.2132 -0.2798  0.1696
 2059DPPC   C3B46403  24.463  37.892   1.970  0.1460 -0.2134  0.0326
 2059DPPC   C4B46404  24.566  37.498   1.748 -0.3167 -0.1256 -0.0137
 2060DPPC   NC346405  15.338  24.624   2.346 -0.0645  0.0730 -0.0531
 2060DPPC   PO446406  15.493  24.960   2.238  0.0786 -0.0905 -0.2910
 2060DPPC   GL146407  15.772  24.971   1.966  0.2431 -0.0729  0.2421
 2060DPPC   GL246408  15.987  24.735   2.108  0.0045  0.3284  0.0066
 2060DPPC   C1A46409  16.158  25.046   1.766 -0.1563 -0.2434 -0.0547
 2060DPPC   C2A46410  16.280  25.371   1.584 -0.5080  0.1975  0.2355
 2060DPPC   C3A46411  16.568  25.542   1.792 -0.3104 -0.1417  0.2188
 2060DPPC   C4A46412  16.791  25.547   2.115  0.3680 -0.0680  0.1003
 2060DPPC   C1B46413  16.154  25.083   2.345  0.1463  0.2729 -0.1363
 2060DPPC   C2B46414  16.458  25.203   2.130  0.0431 -0.2657  0.1627
 2060DPPC   C3B46415  16.864  25.022   2.144 -0.0576 -0.2206 -0.0906
 2060DPPC   C4B46416  17.096  24.777   2.083 -0.2046  0.0526 -0.0685
 2061DPPC   NC346417  16.978  22.876  16.311  0.0190 -0.1405  0.0480
 2061DPPC   PO446418  17.146  23.223  16.285 -0.1320 -0.1719  0.4322
 2061DPPC   GL146419  17.497  23.104  16.614 -0.1701  0.3122  0.0535
 2061DPPC   GL246420  17.471  22.796  16.468  0.1402 -0.1968  0.1707
 2061DPPC   C1A46421  17.744  23.298  16.778  0.1680  0.2461 -0.2460
 2061DPPC   C2A46422  17.873  23.308  17.225  0.2639 -0.0576  0.1867
 2061DPPC   C3A46423  17.664  22.874  17.388 -0.0327  0.2121 -0.1308
 2061DPPC   C4A46424  17.408  22.578  17.641  0.1167  0.3932  0.2312
 2061DPPC   C1B46425  17.726  22.523  16.144 -0.0023 -0.0005  0.0143
 2061DPPC   C2B46426  18.170  22.509  15.924  0.1451  0.0574  0.1498
 2061DPPC   C3B46427  18.451  22.804  15.809  0.0573  0.0438  0.0577
 2061DPPC   C4B46428  18.805  23.089  15.992  0.0410  0.2721 -0.3045
 2062DPPC   NC346429  25.276  16.245  19.729 -0.2114 -0.0546  0.2842
 2062DPPC   PO446430  25.644  16.379  20.065  0.1025  0.2264  0.3433
 2062DPPC   GL146431  25.634  16.742  20.397 -0.1091 -0.1056  0.2360
 2062DPPC   GL246432  25.599  17.001  20.288  0.0984 -0.1969 -0.2161
 2062DPPC   C1A46433  25.414  16.769  20.820  0.1497  0.3095 -0.0311
 2062DPPC   C2A46434  25.273  16.715  21.200 -0.1480  0.3399  0.0676
 2062DPPC   C3A46435  25.015  16.408  21.379 -0.1484 -0.1132 -0.1974
 2062DPPC   C4A46436  24.603  16.066  21.308  0.0162 -0.1064  0.1593
 2062DPPC   C1B46437  25.310  17.212  20.388 -0.0089  0.3066  0.2694
 2062DPPC   C2B46438  25.035  17.541  20.251 -0.1220  0.2007 -0.2365
 2062DPPC   C3B46439  24.669  17.898  20.160  0.0226  0.0641  0.0797
 2062DPPC   C4B46440  24.618  18.321  20.076  0.0491  0.1245  0.1043
 2063DPPC   NC346441  22.552  24.523   8.104 -0.0262 -0.0394  0.2615
 2063DPPC   PO446442  22.977  24.319   8.083  0.1972 -0.3338  0.2899
 2063DPPC   GL146443  23.278  24.638   7.771 -0.0460 -0.0359 -0.1714
 2063DPPC   GL246444  23.609  24.502   7.871  0.0505 -0.0355 -0.3055
 2063DPPC   C1A46445  23.526  24.881   7.435  0.4111 -0.2176  0.1115
 2063DPPC   C2A46446  23.379  25.012   6.972 -0.5815 -0.1434  0.2130
 2063DPPC   C3A46447  23.084  25.171   6.608  0.0909 -0.0190  0.1886
 2063DPPC   C4A46448  22.768  25.445   6.572  0.1541 -0.1051 -0.1753
 2063DPPC   C1B46449  23.875  24.812   7.867 -0.1720  0.1794 -0.1304
 2063DPPC   C2B46450  24.260  24.918   7.880  0.1173 -0.0784 -0.0423
 2063DPPC   C3B46451  24.617  25.087   8.046  0.3217  0.4047  0.1652
 2063DPPC   C4B46452  25.031  24.898   7.997  0.2834 -0.1870 -0.2736
 2064DPPC   NC346453  30.439  25.323   9.860 -0.1731 -0.1535  0.0727
 2064DPPC   PO446454  30.391  25.667  10.159 -0.0137 -0.0003 -0.0975
 2064DPPC   GL146455  30.128  25.790  10.461 -0.2213  0.1990 -0.0247
 2064DPPC   GL246456  29.884  25.515  10.517 -0.1738 -0.0752  0.1064
 2064DPPC   C1A46457  30.180  26.017  10.781  0.0382 -0.3586 -0.1988
 2064DPPC   C2A46458  30.476  26.068  11.096  0.0894  0.1721 -0.1101
 2064DPPC   C3A46459  30.412  26.034  11.511 -0.0162  0.1857 -0.1085
 2064DPPC   C4A46460  30.627  25.818  11.765 -0.1092 -0.2806 -0.0166
 2064DPPC   C1B46461  30.031  25.550  10.955 -0.2912  0.1006  0.1236
 2064DPPC   C2B46462  29.781  25.767  11.222  0.1376 -0.2948 -0.1429
 2064DPPC   C3B46463  29.854  25.902  11.571  0.1683  0.0804  0.3937
 2064DPPC   C4B46464  30.072  25.984  11.874  0.1847  0.0544  0.1071
 2065DPPC   NC346465  22.794  28.551  10.141  0.4860  0.1641 -0.0009
 2065DPPC   PO446466  23.261  28.481  10.015  0.3241  0.2802  0.1504
 2065DPPC   GL146467  23.131  28.672  10.441 -0.2270 -0.1096 -0.0808
 2065DPPC   GL246468  23.388  28.770  10.573  0.0779 -0.1701  0.0767
 2065DPPC   C1A46469  23.074  28.694  10.893 -0.3014 -0.0671 -0.3652
 2065DPPC   C2A46470  22.758  28.642  11.245  0.2641  0.0862  0.3729
 2065DPPC   C3A46471  22.519  28.488  11.661 -0.1401  0.3184 -0.1553
 2065DPPC   C4A46472  22.139  28.320  11.554  0.1035 -0.2153 -0.0004
 2065DPPC   C1B46473  23.407  29.199  10.831  0.0860 -0.0696 -0.2947
 2065DPPC   C2B46474  23.502  29.472  11.201  0.1875 -0.0471 -0.0943
 2065DPPC   C3B46475  23.507  29.765  11.568  0.1284 -0.0319 -0.1000
 2065DPPC   C4B46476  23.508  29.818  11.969 -0.1287 -0.1631 -0.1655
 2066DPPC   NC346477  27.014  36.503   5.444  0.0706  0.0583 -0.1877
 2066DPPC   PO446478  27.111  36.079   5.196  0.1114  0.2222 -0.3413
 2066DPPC   GL146479  27.085  35.673   4.965 -0.0371 -0.2665 -0.3588
 2066DPPC   GL246480  27.313  35.559   4.901 -0.1036 -0.3411  0.0248
 2066DPPC   C1A46481  27.122  35.664   4.488 -0.2252  0.1156 -0.1016
 2066DPPC   C2A46482  27.203  35.725   4.056 -0.0805  0.1363 -0.0562
 2066DPPC   C3A46483  27.489  35.724   3.659 -0.2248  0.0279 -0.1252
 2066DPPC   C4A46484  27.664  35.474   3.416  0.0966  0.1232 -0.1644
 2066DPPC   C1B46485  27.570  35.509   4.516 -0.0359 -0.2889  0.1272
 2066DPPC   C2B46486  27.648  35.436   4.093 -0.1209  0.3272  0.1443
 2066DPPC   C3B46487  27.987  35.644   3.827 -0.1648  0.2104 -0.1614
 2066DPPC   C4B46488  28.394  35.733   3.820 -0.1422 -0.1602  0.3600
 2067DPPC   NC346489  22.032  39.291  26.344  0.1651  0.0896 -0.4003
 2067DPPC   PO446490  22.108  39.175  26.801 -0.1021  0.0695  0.0309
 2067DPPC   GL146491  22.298  38.814  26.599 -0.0340  0.1401  0.0426
 2067DPPC   GL246492  22.174  38.829  26.331 -0.0614 -0.0143 -0.1498
 2067DPPC   C1A46493  22.567  38.528  26.528  0.4558 -0.0727  0.0420
 2067DPPC   C2A46494  22.864  38.257  26.702  0.1467  0.1299 -0.0714
 2067DPPC   C3A46495  23.157  37.966  26.616  0.1808 -0.2131  0.1961
 2067DPPC   C4A46496  23.561  37.868  26.809 -0.1276 -0.1762  0.4193
 2067DPPC   C1B46497  22.368  38.579  26.024 -0.0058 -0.3588 -0.2615
 2067DPPC   C2B46498  22.616  38.186  25.780 -0.0690  0.0027 -0.1234
 2067DPPC   C3B46499  22.983  38.244  25.593  0.1480  0.3647 -0.1265
 2067DPPC   C4B46500  23.365  38.161  25.510  0.1480 -0.0047  0.1951
 2068DPPC   NC346501  28.445  20.815  13.220 -0.0907  0.0007  0.1929
 2068DPPC   PO446502  27.962  20.822  13.179  0.0681 -0.0800  0.0562
 2068DPPC   GL146503  28.026  21.001  13.591  0.1246 -0.0266  0.1645
 2068DPPC   GL246504  28.346  20.982  13.647  0.0262 -0.1450  0.0845
 2068DPPC   C1A46505  27.824  21.105  13.871 -0.1384  0.1941 -0.0214
 2068DPPC   C2A46506  27.917  21.427  14.114 -0.4114 -0.0054 -0.1691
 2068DPPC   C3A46507  28.034  21.729  14.267 -0.0990  0.0348 -0.0203
 2068DPPC   C4A46508  27.877  21.627  14.604 -0.2567  0.3170  0.0982
 2068DPPC   C1B46509  28.254  21.432  13.720  0.1182 -0.0253  0.0858
 2068DPPC   C2B46510  28.061  21.841  13.744  0.0132  0.2717 -0.2467
 2068DPPC   C3B46511  28.018  22.309  13.568 -0.2902  0.0611 -0.2694
 2068DPPC   C4B46512  27.776  22.584  13.402  0.0620 -0.2054  0.0957
 2069DPPC   NC346513  24.610  23.763  11.528  0.1933  0.1999  0.0672
 2069DPPC   PO446514  24.342  23.870  11.836 -0.0775  0.2031 -0.1349
 2069DPPC   GL146515  24.377  24.278  11.834  0.1516 -0.1269  0.5349
 2069DPPC   GL246516  24.687  24.364  11.849  0.0857  0.0215 -0.1448
 2069DPPC   C1A46517  24.347  24.801  11.912  0.0818  0.1060  0.3283
 2069DPPC   C2A46518  24.387  25.072  12.146 -0.0947  0.0327 -0.2277
 2069DPPC   C3A46519  24.740  25.421  12.340  0.0655 -0.1498 -0.0036
 2069DPPC   C4A46520  24.932  25.860  12.414 -0.1791 -0.0079 -0.1836
 2069DPPC   C1B46521  24.820  24.843  11.889 -0.2490 -0.2676  0.3362
 2069DPPC   C2B46522  24.655  25.251  11.771 -0.1161 -0.1000  0.1145
 2069DPPC   C3B46523  24.730  25.701  11.875  0.2011  0.2093 -0.2190
 2069DPPC   C4B46524  24.667  26.134  12.037  0.1640  0.2823  0.1264
 2070DPPC   NC346525  23.498  16.905   2.256  0.0559 -0.0830 -0.0685
 2070DPPC   PO446526  23.081  17.177   2.333 -0.0236 -0.0647 -0.2414
 2070DPPC   GL146527  23.317  17.312   2.034 -0.2475  0.1838 -0.1837
 2070DPPC   GL246528  23.451  17.229   1.783  0.1541 -0.0719 -0.0745
 2070DPPC   C1A46529  23.286  17.762   1.884  0.3481 -0.0310 -0.3037
 2070DPPC   C2A46530  23.340  18.093   1.877  0.1644  0.0629  0.0266
 2070DPPC   C3A46531  23.464  18.292   2.233  0.0005 -0.0708 -0.2148
 2070DPPC   C4A46532  23.322  18.158   2.655  0.1152  0.0974  0.0802
 2070DPPC   C1B46533  23.652  17.612   1.626 -0.5663  0.0229 -0.3948
 2070DPPC   C2B46534  23.972  17.755   1.416  0.1802  0.0900 -0.0255
 2070DPPC   C3B46535  24.405  17.923   1.431  0.0707  0.1001  0.0132
 2070DPPC   C4B46536  24.843  18.271   1.533  0.2897  0.0436  0.0458
 2071DPPC   NC346537  37.232  37.106  26.344 -0.1168  0.2602 -0.3484
 2071DPPC   PO446538  36.882  37.099  26.137  0.4075  0.0678 -0.2538
 2071DPPC   GL146539  36.461  37.050  26.027  0.2620 -0.1300  0.1958
 2071DPPC   GL246540  36.178  36.925  26.200 -0.0731  0.1613 -0.2830
 2071DPPC   C1A46541  36.226  36.588  25.785 -0.0004  0.1162  0.2261
 2071DPPC   C2A46542  36.198  36.143  25.649  0.4056  0.1084  0.0993
 2071DPPC   C3A46543  36.055  35.884  25.526  0.2396  0.1510  0.0369
 2071DPPC   C4A46544  35.939  35.457  25.634  0.1258  0.3011  0.3713
 2071DPPC   C1B46545  35.854  36.705  26.410  0.0994  0.0988  0.1262
 2071DPPC   C2B46546  35.520  36.373  26.436  0.3329 -0.0901 -0.1445
 2071DPPC   C3B46547  35.037  36.398  26.272  0.2362 -0.1456 -0.2495
 2071DPPC   C4B46548  34.980  36.496  25.890 -0.1989  0.1637  0.3393
 2072DPPC   NC346549  33.100  28.774   5.918  0.5285  0.2569  0.0850
 2072DPPC   PO446550  32.907  29.176   5.988 -0.0994  0.3329  0.2037
 2072DPPC   GL146551  32.937  29.161   5.535  0.0763 -0.2604  0.1929
 2072DPPC   GL246552  33.292  29.153   5.476 -0.0190 -0.2968  0.0855
 2072DPPC   C1A46553  32.858  28.899   5.197  0.1050 -0.0032 -0.0924
 2072DPPC   C2A46554  33.016  28.730   4.810  0.2242 -0.0573  0.1702
 2072DPPC   C3A46555  32.777  28.616   4.492 -0.4275  0.0319 -0.3787
 2072DPPC   C4A46556  32.801  28.272   4.211  0.1557 -0.3224 -0.1228
 2072DPPC   C1B46557  33.357  28.976   5.150 -0.0551  0.0159  0.0320
 2072DPPC   C2B46558  33.475  28.684   5.019  0.0968 -0.0910  0.0764
 2072DPPC   C3B46559  33.872  28.472   4.957  0.0070 -0.0380  0.2535
 2072DPPC   C4B46560  34.246  28.484   4.699 -0.0360 -0.0720  0.2245
 2073DPPC   NC346561  39.440  27.861  24.925  0.1602 -0.3233  0.1313
 2073DPPC   PO446562  39.446  27.582  24.584 -0.2399  0.0434 -0.0045
 2073DPPC   GL146563  39.027  27.640  24.414  0.0630  0.2979  0.0408
 2073DPPC   GL246564  39.172  27.850  24.199 -0.6112 -0.0635  0.2936
 2073DPPC   C1A46565  38.575  27.656  24.481 -0.0672  0.2356  0.0323
 2073DPPC   C2A46566  38.172  27.688  24.521  0.0389  0.0153 -0.2459
 2073DPPC   C3A46567  37.744  27.753  24.350 -0.3796  0.0781  0.0382
 2073DPPC   C4A46568  37.426  27.878  24.332 -0.3008 -0.3771  0.3352
 2073DPPC   C1B46569  38.807  27.669  24.001  0.2723 -0.1055  0.1455
 2073DPPC   C2B46570  38.442  27.541  23.913 -0.1454  0.2920  0.0411
 2073DPPC   C3B46571  37.988  27.570  23.848  0.1188  0.0244 -0.4208
 2073DPPC   C4B46572  37.576  27.651  23.852 -0.1859 -0.3487  0.0291
 2074DPPC   NC346573  27.590  17.301  20.713 -0.1036  0.1019  0.0279
 2074DPPC   PO446574  27.176  17.310  20.425 -0.1353  0.0303  0.1229
 2074DPPC   GL146575  27.149  17.671  20.459 -0.1505 -0.2456 -0.2488
 2074DPPC   GL246576  27.419  17.767  20.696 -0.3599  0.0982 -0.0854
 2074DPPC   C1A46577  26.990  18.031  20.722 -0.2683 -0.0669 -0.1206
 2074DPPC   C2A46578  26.955  18.323  21.013  0.7066  0.1786 -0.1315
 2074DPPC   C3A46579  27.107  18.631  21.012  0.1024 -0.3146  0.2633
 2074DPPC   C4A46580  27.508  18.838  20.872 -0.3397  0.0338  0.1459
 2074DPPC   C1B46581  27.762  17.853  20.936  0.0321 -0.1214  0.1471
 2074DPPC   C2B46582  27.873  18.149  21.230 -0.0929 -0.1770  0.0840
 2074DPPC   C3B46583  27.904  18.587  21.230  0.0983  0.1811 -0.0301
 2074DPPC   C4B46584  27.888  19.006  21.449 -0.2893  0.2767 -0.0331
 2075DPPC   NC346585  27.209  22.025  22.264  0.1637 -0.0195  0.0793
 2075DPPC   PO446586  26.902  21.690  22.277  0.1514 -0.0350  0.0219
 2075DPPC   GL146587  26.729  21.465  22.633 -0.3322 -0.0244  0.1139
 2075DPPC   GL246588  26.730  21.212  22.470  0.1522 -0.5699 -0.1101
 2075DPPC   C1A46589  26.740  21.293  22.988 -0.0037  0.2411 -0.2490
 2075DPPC   C2A46590  26.810  20.898  23.207  0.3822 -0.1628  0.3205
 2075DPPC   C3A46591  26.731  20.525  23.022 -0.1490  0.1752 -0.2290
 2075DPPC   C4A46592  26.988  20.279  22.717  0.1523 -0.0025  0.0656
 2075DPPC   C1B46593  27.030  20.862  22.697 -0.0086  0.0641  0.0838
 2075DPPC   C2B46594  27.229  20.619  22.894  0.0953 -0.2779 -0.0272
 2075DPPC   C3B46595  27.371  20.378  23.051 -0.1588 -0.0094  0.0349
 2075DPPC   C4B46596  27.614  19.975  23.306 -0.0011  0.0359  0.2374
 2076DPPC   NC346597  38.688  24.289  20.674  0.0131  0.0273 -0.1516
 2076DPPC   PO446598  38.827  24.711  20.856  0.1200  0.3049  0.1459
 2076DPPC   GL146599  38.394  24.711  20.906  0.3498 -0.1931  0.0486
 2076DPPC   GL246600  38.264  24.567  21.192 -0.0399  0.1194 -0.3839
 2076DPPC   C1A46601  37.902  24.848  20.881  0.0440 -0.0098 -0.2587
 2076DPPC   C2A46602  37.380  24.951  21.071  0.0892  0.0860  0.1780
 2076DPPC   C3A46603  36.949  24.901  21.348 -0.3521 -0.1867 -0.0135
 2076DPPC   C4A46604  36.680  25.140  21.595 -0.1429  0.0098  0.0283
 2076DPPC   C1B46605  38.010  24.815  21.428  0.0634 -0.1353  0.0343
 2076DPPC   C2B46606  37.578  24.868  21.682  0.2302 -0.0356  0.2563
 2076DPPC   C3B46607  37.198  24.942  21.880 -0.5446 -0.2224  0.4389
 2076DPPC   C4B46608  36.919  25.173  22.056 -0.2791 -0.0824 -0.1538
 2077DPPC   NC346609  35.180  35.016  13.043 -0.3648  0.0039  0.2784
 2077DPPC   PO446610  35.121  34.548  12.915 -0.2714  0.0912  0.0646
 2077DPPC   GL146611  35.222  34.525  13.352  0.4088  0.1801 -0.3319
 2077DPPC   GL246612  35.118  34.225  13.555 -0.0763  0.0551 -0.3055
 2077DPPC   C1A46613  34.917  34.675  13.586  0.1154 -0.0685 -0.2429
 2077DPPC   C2A46614  34.564  34.883  13.838 -0.2466 -0.0007  0.0190
 2077DPPC   C3A46615  34.201  34.901  13.967 -0.2080 -0.1653  0.0458
 2077DPPC   C4A46616  33.954  35.167  14.306  0.1224  0.3209  0.0817
 2077DPPC   C1B46617  34.904  34.009  13.876  0.1704  0.1634 -0.3042
 2077DPPC   C2B46618  34.665  34.011  14.273  0.0727 -0.0998 -0.3029
 2077DPPC   C3B46619  34.692  33.821  14.757  0.1457  0.1054 -0.0192
 2077DPPC   C4B46620  34.338  33.732  15.054  0.1078  0.4351  0.1050
 2078DPPC   NC346621  19.513  16.910  17.879 -0.1780 -0.1289  0.1097
 2078DPPC   PO446622  19.337  17.291  18.038  0.2571  0.0844 -0.0190
 2078DPPC   GL146623  19.232  17.559  18.355  0.2329  0.1534 -0.0546
 2078DPPC   GL246624  19.128  17.876  18.382 -0.0930 -0.1457 -0.2652
 2078DPPC   C1A46625  19.519  17.756  18.707  0.1557  0.0130 -0.1506
 2078DPPC   C2A46626  19.779  18.000  18.946  0.0200 -0.1571 -0.0663
 2078DPPC   C3A46627  20.054  18.369  18.961 -0.0061 -0.0797 -0.2813
 2078DPPC   C4A46628  20.247  18.679  18.849 -0.1259  0.1215  0.1234
 2078DPPC   C1B46629  19.144  18.189  18.667  0.1990  0.1743 -0.0799
 2078DPPC   C2B46630  19.514  18.392  18.840 -0.2589  0.3346  0.0463
 2078DPPC   C3B46631  19.810  18.774  18.691 -0.0098  0.2311 -0.1361
 2078DPPC   C4B46632  19.831  18.994  18.338 -0.4051 -0.0953  0.4627
 2079DPPC   NC346633  14.212  24.880  19.249  0.1947  0.1266  0.0386
 2079DPPC   PO446634  14.314  24.675  18.944 -0.1293  0.1303  0.2490
 2079DPPC   GL146635  14.762  24.945  18.968  0.1643 -0.2165  0.2268
 2079DPPC   GL246636  14.891  24.641  18.964 -0.1662 -0.0337  0.2205
 2079DPPC   C1A46637  15.017  25.338  18.871 -0.0019  0.1611 -0.1172
 2079DPPC   C2A46638  15.216  25.733  18.700  0.0858 -0.0276 -0.0345
 2079DPPC   C3A46639  15.574  26.019  18.558  0.1679 -0.1643 -0.2522
 2079DPPC   C4A46640  15.727  26.135  18.256 -0.0042  0.0402  0.0612
 2079DPPC   C1B46641  15.156  24.302  18.970 -0.1913  0.2193  0.2066
 2079DPPC   C2B46642  15.610  24.170  18.882  0.1860 -0.4060  0.2620
 2079DPPC   C3B46643  16.086  23.943  18.923  0.1691 -0.0355 -0.0193
 2079DPPC   C4B46644  16.216  23.438  18.894  0.0895  0.0474  0.2633
 2080DPPC   NC346645  15.718  19.636  22.602  0.1132 -0.0120  0.2582
 2080DPPC   PO446646  15.871  19.825  22.904  0.0186  0.2340 -0.0547
 2080DPPC   GL146647  16.245  19.930  22.674  0.0789  0.1978  0.2131
 2080DPPC   GL246648  16.618  19.959  22.909  0.2090 -0.0453  0.0166
 2080DPPC   C1A46649  16.497  20.142  22.449  0.0124 -0.3070 -0.0028
 2080DPPC   C2A46650  16.760  20.203  22.188  0.0096 -0.0472  0.2212
 2080DPPC   C3A46651  16.945  20.156  21.859 -0.0241 -0.0201 -0.2912
 2080DPPC   C4A46652  17.078  20.378  21.572  0.1010  0.0406 -0.2411
 2080DPPC   C1B46653  16.995  20.194  22.717 -0.0227  0.0594 -0.0267
 2080DPPC   C2B46654  17.460  20.249  22.780  0.0451 -0.0943 -0.3232
 2080DPPC   C3B46655  17.738  20.491  22.648  0.0598  0.2942 -0.0619
 2080DPPC   C4B46656  17.959  20.745  22.461  0.0402  0.2891  0.0368
 2081DPPC   NC346657  26.737  21.356  21.931 -0.0715  0.1982 -0.2034
 2081DPPC   PO446658  26.652  21.869  21.833 -0.1959 -0.1232 -0.1012
 2081DPPC   GL146659  26.411  21.871  22.167 -0.2899 -0.0491  0.2043
 2081DPPC   GL246660  26.412  21.524  22.236 -0.3168 -0.0056  0.3246
 2081DPPC   C1A46661  26.155  21.870  22.467 -0.1241  0.0781  0.2099
 2081DPPC   C2A46662  25.910  21.523  22.734 -0.2252 -0.0704 -0.1484
 2081DPPC   C3A46663  25.668  21.213  22.444  0.0315 -0.1948  0.0710
 2081DPPC   C4A46664  25.260  21.338  22.221  0.1742 -0.0669 -0.1570
 2081DPPC   C1B46665  26.020  21.475  22.182 -0.0113  0.0508  0.0628
 2081DPPC   C2B46666  25.685  21.769  22.242  0.0311  0.1231  0.2122
 2081DPPC   C3B46667  25.235  21.819  22.194 -0.2102  0.1866  0.0425
 2081DPPC   C4B46668  24.883  21.748  22.492  0.0824 -0.2923 -0.0485
 2082DPPC   NC346669  18.332  17.710  23.036  0.0961 -0.3329  0.0569
 2082DPPC   PO446670  18.654  17.537  22.844  0.0384  0.0453  0.1042
 2082DPPC   GL146671  18.724  17.918  22.724  0.0483 -0.2881  0.1806
 2082DPPC   GL246672  19.066  17.781  22.767  0.2028  0.4116  0.3197
 2082DPPC   C1A46673  19.005  18.392  22.566 -0.0477  0.1170 -0.0238
 2082DPPC   C2A46674  18.997  18.728  22.939 -0.0128  0.1637  0.1752
 2082DPPC   C3A46675  18.710  19.096  23.069  0.1252 -0.0775  0.1026
 2082DPPC   C4A46676  18.516  19.392  22.932 -0.2299 -0.0309  0.0278
 2082DPPC   C1B46677  19.424  17.885  22.880 -0.1911 -0.1647 -0.1082
 2082DPPC   C2B46678  19.638  18.029  23.194 -0.5023 -0.2315  0.0245
 2082DPPC   C3B46679  19.518  18.195  23.590  0.3636 -0.0175 -0.0232
 2082DPPC   C4B46680  19.253  18.125  23.883  0.0140 -0.1866  0.1036
 2083DPPC   NC346681  22.711  19.591  15.712  0.1833  0.0843  0.0218
 2083DPPC   PO446682  22.885  19.414  16.048 -0.0382 -0.3500  0.3180
 2083DPPC   GL146683  23.149  19.562  16.395  0.1131  0.0337 -0.1816
 2083DPPC   GL246684  23.148  19.824  16.433 -0.0167  0.1468 -0.1419
 2083DPPC   C1A46685  23.361  19.536  16.832 -0.0283 -0.1366  0.0672
 2083DPPC   C2A46686  23.355  19.927  17.154 -0.3680  0.1057 -0.0312
 2083DPPC   C3A46687  23.129  20.258  17.365  0.0075  0.3409  0.0889
 2083DPPC   C4A46688  23.101  20.782  17.374  0.1493  0.1753  0.1933
 2083DPPC   C1B46689  23.073  20.131  16.724  0.0762 -0.0701 -0.0949
 2083DPPC   C2B46690  23.009  20.488  16.977  0.0704 -0.1513  0.1557
 2083DPPC   C3B46691  23.296  20.868  16.898 -0.0828  0.1606 -0.0801
 2083DPPC   C4B46692  23.281  21.293  17.077 -0.0657  0.1244  0.1636
 2084DPPC   NC346693  31.396  20.252   2.216 -0.1294 -0.0606 -0.3360
 2084DPPC   PO446694  31.916  20.176   2.219 -0.1660  0.1209 -0.1375
 2084DPPC   GL146695  31.789  20.606   2.155 -0.0951  0.2084  0.1023
 2084DPPC   GL246696  31.885  20.617   1.844 -0.0355 -0.0246  0.4441
 2084DPPC   C1A46697  31.458  20.836   1.945  0.1392 -0.0138 -0.2412
 2084DPPC   C2A46698  31.401  21.237   1.670 -0.0455  0.0037  0.0557
 2084DPPC   C3A46699  31.781  21.567   1.494  0.2445 -0.1221  0.1043
 2084DPPC   C4A46700  31.673  21.652   1.014 -0.4079  0.1885  0.0543
 2084DPPC   C1B46701  31.827  20.727   1.458 -0.0492  0.2318  0.0888
 2084DPPC   C2B46702  31.766  21.125   1.243  0.5013  0.1269 -0.0448
 2084DPPC   C3B46703  31.603  21.175   0.923 -0.3130  0.0578  0.0455
 2084DPPC   C4B46704  31.422  21.101   0.467  0.0424  0.0873 -0.2287
 2085DPPC   NC346705  13.202  26.630  24.849  0.2679  0.0685 -0.0923
 2085DPPC   PO446706  13.168  26.643  25.379  0.0024  0.2320  0.0367
 2085DPPC   GL146707  13.449  26.846  25.224  0.0043 -0.2359 -0.3194
 2085DPPC   GL246708  13.448  27.151  24.996  0.3287 -0.3104  0.2721
 2085DPPC   C1A46709  13.826  27.018  25.358  0.1664 -0.0469  0.1875
 2085DPPC   C2A46710  13.972  27.370  25.528 -0.1328  0.2938  0.1082
 2085DPPC   C3A46711  14.003  27.525  26.016  0.1244  0.0030  0.0871
 2085DPPC   C4A46712  14.056  27.623  26.486  0.0566  0.2080  0.1405
 2085DPPC   C1B46713  13.750  27.281  24.841 -0.0994  0.3203 -0.4721
 2085DPPC   C2B46714  14.204  27.282  24.563  0.4128 -0.3688  0.0997
 2085DPPC   C3B46715  14.393  27.200  24.190 -0.2280 -0.1543  0.1052
 2085DPPC   C4B46716  14.607  27.424  23.911  0.1718  0.0705 -0.0150
 2086DPPC   NC346717  35.288  37.324  15.099  0.0061 -0.1140 -0.4266
 2086DPPC   PO446718  35.143  37.207  14.740  0.4100 -0.0738  0.1962
 2086DPPC   GL146719  34.897  36.956  14.962 -0.1625 -0.1003 -0.0563
 2086DPPC   GL246720  35.175  36.663  14.923 -0.1041 -0.1793  0.0275
 2086DPPC   C1A46721  34.531  36.678  14.980  0.1436 -0.1869  0.2677
 2086DPPC   C2A46722  34.270  36.441  14.779  0.2191 -0.2786 -0.0488
 2086DPPC   C3A46723  34.263  35.957  14.626 -0.1136 -0.0382  0.0749
 2086DPPC   C4A46724  34.244  35.551  14.552 -0.0344 -0.2264 -0.1468
 2086DPPC   C1B46725  34.868  36.487  15.253 -0.2301 -0.0786  0.3120
 2086DPPC   C2B46726  34.885  36.251  15.484  0.1516  0.0186 -0.0759
 2086DPPC   C3B46727  34.787  35.806  15.524  0.3142 -0.3308  0.1279
 2086DPPC   C4B46728  34.760  35.410  15.562  0.0443 -0.3674  0.1428
 2087DPPC   NC346729  17.185  30.894   4.216  0.0992  0.0265  0.0627
 2087DPPC   PO446730  17.591  31.140   4.082  0.0833 -0.1118 -0.2601
 2087DPPC   GL146731  17.626  30.887   3.808 -0.0343  0.0878  0.1701
 2087DPPC   GL246732  17.312  30.676   3.828  0.0496 -0.1053  0.0252
 2087DPPC   C1A46733  17.893  30.781   3.544 -0.1572 -0.3736 -0.2599
 2087DPPC   C2A46734  18.264  30.648   3.188  0.0478  0.0507  0.3049
 2087DPPC   C3A46735  18.609  30.908   2.937  0.0320 -0.0245 -0.3316
 2087DPPC   C4A46736  18.878  30.825   2.872 -0.2717  0.0657  0.0081
 2087DPPC   C1B46737  17.322  30.773   3.388  0.0247  0.2243 -0.1532
 2087DPPC   C2B46738  17.590  30.945   3.065  0.0573 -0.2281 -0.1334
 2087DPPC   C3B46739  18.102  31.075   3.053 -0.0133  0.4485 -0.0301
 2087DPPC   C4B46740  18.441  31.326   3.207  0.2711 -0.0639  0.1022
 2088DPPC   NC346741  26.213  35.209   0.903 -0.1229  0.0623  0.3181
 2088DPPC   PO446742  25.872  35.501   0.904 -0.1790 -0.1372  0.3923
 2088DPPC   GL146743  25.677  35.698   1.293  0.3340 -0.4323  0.1385
 2088DPPC   GL246744  25.413  35.876   1.304 -0.3892  0.0157  0.2620
 2088DPPC   C1A46745  25.689  35.866   1.733 -0.0535  0.0162 -0.1567
 2088DPPC   C2A46746  25.882  36.182   1.838  0.6145 -0.1359  0.0657
 2088DPPC   C3A46747  26.137  36.187   2.191 -0.3329 -0.1818  0.0388
 2088DPPC   C4A46748  26.014  36.102   2.587 -0.1910  0.0055 -0.1827
 2088DPPC   C1B46749  25.404  36.280   1.355  0.2706  0.2275 -0.1435
 2088DPPC   C2B46750  25.584  36.550   1.575  0.2104  0.1813  0.0451
 2088DPPC   C3B46751  25.524  36.937   1.753 -0.4184 -0.3288 -0.0219
 2088DPPC   C4B46752  25.142  37.174   1.932  0.0847 -0.2081 -0.0169
 2089DPPC   NC346753  38.179  35.759  26.219  0.2976  0.0668 -0.2130
 2089DPPC   PO446754  37.687  35.649  26.191 -0.0062  0.1322 -0.4019
 2089DPPC   GL146755  37.244  35.553  26.049  0.0581 -0.0434  0.1197
 2089DPPC   GL246756  37.174  35.814  25.866  0.0715  0.2228 -0.0909
 2089DPPC   C1A46757  36.820  35.506  26.011  0.0361  0.4026 -0.1919
 2089DPPC   C2A46758  36.585  35.200  26.123 -0.3232 -0.2738  0.1109
 2089DPPC   C3A46759  36.298  34.853  25.927 -0.0605 -0.0169 -0.1810
 2089DPPC   C4A46760  36.229  34.661  25.623 -0.4359 -0.0253 -0.2123
 2089DPPC   C1B46761  37.008  35.510  25.582  0.0087 -0.0262 -0.2714
 2089DPPC   C2B46762  36.812  35.282  25.265  0.2727  0.2264  0.1262
 2089DPPC   C3B46763  36.513  35.156  25.002 -0.0534  0.0231  0.0248
 2089DPPC   C4B46764  36.331  35.402  24.736 -0.0007 -0.3585  0.0246
 2090DPPC   NC346765  29.501  30.878   7.512  0.2691 -0.1430 -0.0275
 2090DPPC   PO446766  29.489  30.826   7.052  0.0829  0.3602 -0.0914
 2090DPPC   GL146767  29.481  30.947   6.627 -0.0181  0.0655 -0.0218
 2090DPPC   GL246768  29.830  31.075   6.747 -0.1352 -0.0046 -0.1039
 2090DPPC   C1A46769  29.602  31.138   6.208  0.0844  0.0688 -0.2533
 2090DPPC   C2A46770  29.670  31.364   5.882 -0.1897 -0.1319 -0.0553
 2090DPPC   C3A46771  29.415  31.439   5.467 -0.1999  0.0092  0.0793
 2090DPPC   C4A46772  29.212  31.537   5.107 -0.0497 -0.2369  0.0257
 2090DPPC   C1B46773  30.096  31.087   6.487 -0.1810  0.1414 -0.1248
 2090DPPC   C2B46774  30.176  31.136   6.109  0.1388  0.1117 -0.0305
 2090DPPC   C3B46775  30.115  31.302   5.633  0.1662 -0.1739  0.0638
 2090DPPC   C4B46776  30.131  31.316   5.195 -0.1632 -0.0817  0.1979
 2091DPPC   NC346777  24.490  17.361  17.553 -0.1981 -0.1003  0.0095
 2091DPPC   PO446778  24.286  17.618  17.320  0.3573 -0.1801  0.1536
 2091DPPC   GL146779  24.483  17.963  17.454  0.2008 -0.1037 -0.1612
 2091DPPC   GL246780  24.587  18.231  17.290  0.1676 -0.0884 -0.1958
 2091DPPC   C1A46781  24.701  18.117  17.801 -0.1443  0.0291 -0.2892
 2091DPPC   C2A46782  24.440  18.375  18.136  0.0046 -0.0808 -0.1610
 2091DPPC   C3A46783  24.292  18.739  18.272  0.0434 -0.0338 -0.1400
 2091DPPC   C4A46784  24.006  18.798  18.657  0.1217 -0.0424 -0.2835
 2091DPPC   C1B46785  24.602  18.634  17.633  0.3832 -0.0018 -0.4242
 2091DPPC   C2B46786  24.646  19.049  17.724  0.2867  0.0485 -0.0284
 2091DPPC   C3B46787  24.736  19.318  17.964 -0.0079  0.1980  0.0507
 2091DPPC   C4B46788  24.875  19.317  18.313  0.0572 -0.0164 -0.1045
 2092DPPC   NC346789  39.260  26.135  20.805  0.0357  0.0352  0.2165
 2092DPPC   PO446790  39.476  26.435  21.029  0.1107 -0.1318  0.1186
 2092DPPC   GL146791  39.047  26.556  20.997  0.1810 -0.1293  0.1173
 2092DPPC   GL246792  39.015  26.280  21.178 -0.2374  0.0848  0.1303
 2092DPPC   C1A46793  38.778  26.550  20.681  0.0774 -0.1377  0.2027
 2092DPPC   C2A46794  38.412  26.852  20.508  0.0607  0.1235  0.0209
 2092DPPC   C3A46795  38.451  27.260  20.537 -0.0824 -0.1500  0.1079
 2092DPPC   C4A46796  38.497  27.493  20.203  0.1430 -0.1562  0.0690
 2092DPPC   C1B46797  38.656  26.065  20.982 -0.2828 -0.2007  0.1569
 2092DPPC   C2B46798  38.332  25.725  20.992  0.1214 -0.2988 -0.1870
 2092DPPC   C3B46799  37.905  25.776  21.125 -0.0463 -0.0977 -0.1892
 2092DPPC   C4B46800  37.529  25.748  21.456 -0.1489 -0.0099  0.0778
 2093DPPC   NC346801  36.817  22.456  25.900  0.2190  0.1058  0.2303
 2093DPPC   PO446802  37.165  22.868  25.968  0.3211  0.0816  0.2526
 2093DPPC   GL146803  36.866  22.855  25.545  0.2965 -0.0240  0.1300
 2093DPPC   GL246804  36.660  22.881  25.700 -0.0519 -0.1489 -0.2212
 2093DPPC   C1A46805  36.690  23.076  25.211 -0.2529 -0.1757  0.0113
 2093DPPC   C2A46806  36.384  23.388  24.855 -0.2447  0.1067  0.0995
 2093DPPC   C3A46807  36.173  23.681  24.759  0.0123  0.1512  0.3938
 2093DPPC   C4A46808  35.937  24.102  24.464 -0.0987  0.1848 -0.0503
 2093DPPC   C1B46809  36.330  23.003  25.722  0.2571  0.1247  0.1176
 2093DPPC   C2B46810  36.086  23.142  25.293 -0.2946  0.1229 -0.1375
 2093DPPC   C3B46811  35.835  23.298  24.994 -0.2108 -0.0967 -0.0821
 2093DPPC   C4B46812  35.855  23.373  24.590  0.3476  0.0619 -0.0998
 2094DPPC   NC346813  16.269  35.051  24.746  0.1317  0.0157  0.2566
 2094DPPC   PO446814  16.766  34.988  24.600  0.0407 -0.3206 -0.0428
 2094DPPC   GL146815  17.243  34.942  24.435  0.0050 -0.0580  0.0893
 2094DPPC   GL246816  17.430  35.081  24.678 -0.3237 -0.1364 -0.0013
 2094DPPC   C1A46817  17.695  34.768  24.351 -0.3423  0.4668 -0.3322
 2094DPPC   C2A46818  18.016  34.702  23.894 -0.1526 -0.1715 -0.1666
 2094DPPC   C3A46819  18.060  34.867  23.490  0.0289  0.1232 -0.1601
 2094DPPC   C4A46820  18.016  35.156  23.054  0.3469  0.1400  0.3953
 2094DPPC   C1B46821  17.859  34.771  24.840  0.1286  0.2733 -0.2515
 2094DPPC   C2B46822  18.250  34.979  24.874  0.1720  0.1715 -0.1229
 2094DPPC   C3B46823  18.580  35.271  24.532  0.1553  0.2454 -0.3103
 2094DPPC   C4B46824  18.877  35.415  24.282 -0.1176 -0.1634  0.1071
 2095DPPC   NC346825  21.224  27.836  18.461  0.2958 -0.0700 -0.2429
 2095DPPC   PO446826  20.957  27.500  18.827  0.0612 -0.2268  0.0162
 2095DPPC   GL146827  20.627  27.384  19.097 -0.2220  0.0239  0.0957
 2095DPPC   GL246828  20.401  27.506  19.294  0.0655 -0.1101  0.1013
 2095DPPC   C1A46829  20.313  27.044  19.077  0.0161 -0.0833  0.0990
 2095DPPC   C2A46830  20.043  26.732  19.151 -0.1759 -0.0193 -0.0126
 2095DPPC   C3A46831  20.154  26.333  19.223 -0.0219 -0.1873 -0.2642
 2095DPPC   C4A46832  20.333  26.036  19.505 -0.1067 -0.1868  0.0011
 2095DPPC   C1B46833  20.113  27.185  19.561 -0.2708 -0.0742 -0.3304
 2095DPPC   C2B46834  19.648  27.177  19.781  0.0765  0.1477  0.2729
 2095DPPC   C3B46835  19.283  27.410  19.573 -0.1743 -0.1709  0.2374
 2095DPPC   C4B46836  19.053  27.714  19.274 -0.0174 -0.4401 -0.1650
 2096DPPC   NC346837  26.770  16.307   2.097 -0.0409  0.0312  0.1246
 2096DPPC   PO446838  26.751  16.793   2.046 -0.2607 -0.2066 -0.2113
 2096DPPC   GL146839  26.582  17.177   1.980 -0.0274  0.0954 -0.2056
 2096DPPC   GL246840  26.545  17.353   2.218  0.2248  0.1409 -0.0531
 2096DPPC   C1A46841  26.743  17.415   1.748 -0.2306 -0.0306  0.3777
 2096DPPC   C2A46842  26.727  17.800   1.564 -0.0395  0.0184 -0.0084
 2096DPPC   C3A46843  26.577  18.260   1.700 -0.1389 -0.0864  0.0005
 2096DPPC   C4A46844  26.407  18.469   1.986  0.1200  0.0699 -0.0102
 2096DPPC   C1B46845  26.103  17.466   2.176  0.2035  0.2869 -0.1701
 2096DPPC   C2B46846  25.913  17.712   2.058 -0.0818 -0.1761  0.0591
 2096DPPC   C3B46847  25.947  18.117   2.136 -0.2223  0.0511 -0.0907
 2096DPPC   C4B46848  25.960  18.521   2.075  0.2604 -0.2680  0.1822
 2097DPPC   NC346849  33.376  33.754  11.229 -0.0724  0.0078 -0.1711
 2097DPPC   PO446850  33.538  34.181  11.424 -0.2497 -0.1796  0.4746
 2097DPPC   GL146851  33.373  33.831  11.680  0.1079  0.0618  0.1901
 2097DPPC   GL246852  33.680  33.798  11.905  0.0249 -0.0039 -0.2295
 2097DPPC   C1A46853  33.143  33.959  11.976 -0.2183  0.1274 -0.0286
 2097DPPC   C2A46854  33.061  33.829  12.419 -0.0182  0.1077  0.2708
 2097DPPC   C3A46855  32.922  33.573  12.680 -0.0041 -0.3426 -0.1445
 2097DPPC   C4A46856  32.754  33.380  12.993 -0.0788  0.2303 -0.1386
 2097DPPC   C1B46857  33.534  33.635  12.319 -0.1477  0.1431 -0.2366
 2097DPPC   C2B46858  33.372  33.289  12.585  0.2791 -0.1051 -0.1104
 2097DPPC   C3B46859  33.409  33.094  13.031  0.1711  0.0277  0.0364
 2097DPPC   C4B46860  33.349  33.092  13.495  0.0999 -0.3171  0.0214
 2098DPPC   NC346861  22.285  26.021  11.304  0.0897 -0.2020  0.1758
 2098DPPC   PO446862  21.958  26.236  11.566  0.0734 -0.1322 -0.1822
 2098DPPC   GL146863  22.333  26.357  11.759 -0.2815  0.0245 -0.1024
 2098DPPC   GL246864  22.529  26.154  11.730 -0.2951  0.0640  0.2663
 2098DPPC   C1A46865  22.383  26.578  12.168 -0.0423 -0.1284 -0.1699
 2098DPPC   C2A46866  22.623  26.795  12.487  0.1126 -0.0185  0.0096
 2098DPPC   C3A46867  22.794  26.586  12.827 -0.0285 -0.2156 -0.0513
 2098DPPC   C4A46868  22.625  26.327  13.109  0.0715  0.2765 -0.0175
 2098DPPC   C1B46869  22.824  26.160  12.133  0.0795 -0.2126 -0.0393
 2098DPPC   C2B46870  22.928  26.463  12.235 -0.0737 -0.1873 -0.1138
 2098DPPC   C3B46871  22.906  27.009  12.049  0.0208 -0.2814 -0.1005
 2098DPPC   C4B46872  22.660  27.440  12.135  0.2377 -0.1019  0.3825
 2099DPPC   NC346873  36.813  37.449  16.491 -0.0402  0.1222 -0.3092
 2099DPPC   PO446874  36.423  37.128  16.400 -0.0565 -0.1553 -0.1324
 2099DPPC   GL146875  35.980  37.062  16.328  0.2366  0.3529  0.2596
 2099DPPC   GL246876  35.680  37.224  16.575 -0.2327 -0.1520  0.0768
 2099DPPC   C1A46877  35.470  36.997  16.196 -0.2550  0.3640 -0.2313
 2099DPPC   C2A46878  35.180  36.652  16.243  0.0981  0.1777  0.3069
 2099DPPC   C3A46879  34.900  36.382  16.435  0.2143 -0.0736  0.1176
 2099DPPC   C4A46880  34.503  36.112  16.535 -0.2458  0.0037  0.1690
 2099DPPC   C1B46881  35.564  36.929  16.707 -0.2406  0.2764 -0.1195
 2099DPPC   C2B46882  35.215  36.765  17.005  0.1183 -0.0604  0.0759
 2099DPPC   C3B46883  35.283  36.360  17.211 -0.1953 -0.0223 -0.1870
 2099DPPC   C4B46884  35.137  35.935  17.349 -0.2326 -0.3803  0.1524
 2100DPPC   NC346885  30.657  19.617   2.667 -0.0734 -0.0054 -0.2084
 2100DPPC   PO446886  30.378  19.483   2.363  0.0322  0.0799 -0.2907
 2100DPPC   GL146887  30.032  19.799   2.423 -0.1548  0.0165  0.2294
 2100DPPC   GL246888  29.795  19.719   2.114 -0.1093  0.1751  0.2970
 2100DPPC   C1A46889  29.905  20.230   2.521 -0.0882  0.1932  0.2655
 2100DPPC   C2A46890  29.732  20.297   2.866 -0.1405  0.1830 -0.1170
 2100DPPC   C3A46891  29.319  20.292   2.840 -0.2303 -0.1947 -0.0527
 2100DPPC   C4A46892  29.066  20.032   3.027  0.0612  0.1917 -0.1282
 2100DPPC   C1B46893  29.371  19.869   1.795  0.3130 -0.0704 -0.1029
 2100DPPC   C2B46894  29.023  19.899   1.498  0.0216 -0.1218 -0.1550
 2100DPPC   C3B46895  28.574  19.993   1.463  0.0318  0.0661  0.0500
 2100DPPC   C4B46896  28.217  19.949   1.341  0.1900  0.0852  0.1102
 2101DPPC   NC346897  29.565  19.354   3.263 -0.3075 -0.0726 -0.1509
 2101DPPC   PO446898  29.801  19.738   3.343  0.0574  0.0111  0.1748
 2101DPPC   GL146899  30.016  20.231   3.358  0.0199 -0.1191 -0.3550
 2101DPPC   GL246900  30.264  20.370   3.176  0.1265 -0.0233  0.1197
 2101DPPC   C1A46901  29.804  20.609   3.580  0.0978  0.0724  0.0297
 2101DPPC   C2A46902  29.756  20.881   3.889 -0.1390  0.4825  0.1340
 2101DPPC   C3A46903  29.891  21.276   3.969  0.1485 -0.2948  0.2779
 2101DPPC   C4A46904  29.823  21.638   3.803 -0.0896  0.1786  0.2818
 2101DPPC   C1B46905  29.971  20.691   2.898  0.5392 -0.0389  0.0590
 2101DPPC   C2B46906  29.836  21.117   2.791  0.1979 -0.2063  0.0230
 2101DPPC   C3B46907  30.020  21.583   2.798 -0.2078 -0.2748  0.2883
 2101DPPC   C4B46908  30.489  21.601   2.932  0.3407  0.0502  0.6549
 2102DPPC   NC346909  28.589  19.394   4.237 -0.2206 -0.1916 -0.0469
 2102DPPC   PO446910  28.845  19.511   4.635  0.3053 -0.2328  0.0017
 2102DPPC   GL146911  28.735  19.882   4.323  0.0549 -0.0602  0.2504
 2102DPPC   GL246912  28.777  19.842   3.899 -0.0299 -0.1645  0.0251
 2102DPPC   C1A46913  28.393  20.129   4.185 -0.0575 -0.1452  0.1052
 2102DPPC   C2A46914  28.015  20.283   4.115 -0.4162 -0.0928 -0.2323
 2102DPPC   C3A46915  27.715  20.338   4.414  0.0011 -0.1059  0.0779
 2102DPPC   C4A46916  27.343  20.278   4.638  0.0348  0.0485 -0.1644
 2102DPPC   C1B46917  28.913  20.032   3.503  0.0091 -0.0736 -0.0856
 2102DPPC   C2B46918  29.022  20.462   3.300 -0.0275 -0.2208  0.0130
 2102DPPC   C3B46919  29.078  20.748   3.494  0.0039  0.0579  0.1697
 2102DPPC   C4B46920  29.076  20.816   3.941  0.1245 -0.1544 -0.0455
 2103DPPC   NC346921  25.209  16.634   1.737 -0.1326 -0.4992  0.0749
 2103DPPC   PO446922  25.601  16.427   1.688 -0.1083 -0.1685 -0.0917
 2103DPPC   GL146923  25.729  16.870   1.577  0.0033  0.1563  0.2448
 2103DPPC   GL246924  25.476  17.026   1.624  0.0967  0.0048  0.0460
 2103DPPC   C1A46925  25.998  17.136   1.846 -0.5828  0.0197  0.1595
 2103DPPC   C2A46926  26.214  17.506   1.645  0.0576  0.1520 -0.2161
 2103DPPC   C3A46927  26.271  17.808   1.308 -0.0936  0.0966 -0.1696
 2103DPPC   C4A46928  26.492  18.026   1.159  0.3838 -0.1460 -0.4495
 2103DPPC   C1B46929  25.496  17.446   1.853  0.1016  0.0813  0.2860
 2103DPPC   C2B46930  25.208  17.613   2.179 -0.0381 -0.1764  0.0588
 2103DPPC   C3B46931  25.042  18.001   2.206 -0.1383  0.0900 -0.0399
 2103DPPC   C4B46932  25.122  18.458   2.049  0.0682 -0.1614 -0.0398
 2104DPPC   NC346933  25.359  25.657  24.075 -0.2121 -0.1491 -0.3208
 2104DPPC   PO446934  25.368  25.298  23.974  0.0458  0.0690  0.2238
 2104DPPC   GL146935  25.075  25.053  24.085  0.0342  0.1778 -0.0487
 2104DPPC   GL246936  25.119  24.752  24.116  0.1971  0.0652 -0.3402
 2104DPPC   C1A46937  24.623  24.723  24.154  0.1512 -0.1714  0.0506
 2104DPPC   C2A46938  24.180  24.371  24.181 -0.1766 -0.0395 -0.1644
 2104DPPC   C3A46939  23.803  24.216  24.145 -0.0944 -0.0297  0.1794
 2104DPPC   C4A46940  23.525  23.930  23.813  0.2931  0.0260  0.0656
 2104DPPC   C1B46941  24.942  24.483  24.457 -0.0899 -0.3373  0.3675
 2104DPPC   C2B46942  24.697  24.199  24.734 -0.0801 -0.1725 -0.2789
 2104DPPC   C3B46943  24.365  23.894  24.889 -0.0589  0.3692 -0.0686
 2104DPPC   C4B46944  24.083  23.497  24.717  0.4659  0.1083 -0.0503
 2105DPPC   NC346945  29.796  24.449  10.661  0.2506 -0.1824  0.1050
 2105DPPC   PO446946  29.328  24.382  10.867 -0.1930  0.0310 -0.0861
 2105DPPC   GL146947  29.225  24.331  11.317 -0.0895 -0.0629 -0.0053
 2105DPPC   GL246948  29.372  24.351  11.506 -0.1496 -0.0455 -0.3332
 2105DPPC   C1A46949  28.985  24.621  11.647 -0.2683  0.2511 -0.3025
 2105DPPC   C2A46950  29.061  24.802  12.087  0.2183  0.1307 -0.4321
 2105DPPC   C3A46951  29.154  25.111  12.431  0.2503 -0.2948 -0.2844
 2105DPPC   C4A46952  29.080  25.166  12.857  0.2891 -0.0111 -0.0403
 2105DPPC   C1B46953  29.795  24.257  11.790  0.2720 -0.2649 -0.0284
 2105DPPC   C2B46954  30.053  24.454  12.140 -0.0400  0.2121 -0.3962
 2105DPPC   C3B46955  29.912  24.702  12.533  0.0137  0.1667 -0.0568
 2105DPPC   C4B46956  30.130  24.929  12.806  0.1486  0.1222 -0.0450
 2106DPPC   NC346957  26.313  17.253  19.658  0.0174  0.4237  0.2368
 2106DPPC   PO446958  26.056  17.316  19.243  0.1356  0.1594  0.3028
 2106DPPC   GL146959  25.988  17.718  19.461 -0.4634 -0.2988 -0.0053
 2106DPPC   GL246960  26.158  17.736  19.701  0.0885 -0.2623  0.1438
 2106DPPC   C1A46961  26.032  18.200  19.581 -0.0820 -0.3717 -0.0784
 2106DPPC   C2A46962  25.884  18.628  19.448 -0.3376 -0.1995  0.0166
 2106DPPC   C3A46963  25.710  18.922  19.797 -0.1303  0.0537  0.1367
 2106DPPC   C4A46964  25.734  18.891  20.199 -0.1052 -0.0814 -0.0493
 2106DPPC   C1B46965  26.491  18.102  19.810 -0.4055  0.2750 -0.2320
 2106DPPC   C2B46966  26.797  18.388  19.740  0.1283 -0.1998  0.2260
 2106DPPC   C3B46967  27.054  18.620  19.976 -0.2536 -0.2029  0.2796
 2106DPPC   C4B46968  27.363  18.798  20.189  0.1589 -0.2909  0.2048
 2107DPPC   NC346969  17.850  35.520   0.076 -0.1759 -0.0320 -0.5009
 2107DPPC   PO446970  17.597  35.454  26.713 -0.0333  0.0995  0.0938
 2107DPPC   GL146971  17.987  35.255  26.548 -0.0828  0.1120 -0.2130
 2107DPPC   GL246972  18.033  35.069  26.304 -0.2768  0.1522  0.2064
 2107DPPC   C1A46973  18.456  35.127  26.579 -0.1437 -0.2431 -0.4529
 2107DPPC   C2A46974  18.773  34.875  26.442 -0.1068  0.0359 -0.2718
 2107DPPC   C3A46975  19.168  34.683  26.235  0.1285  0.1536 -0.0621
 2107DPPC   C4A46976  19.447  34.407  26.327  0.0016 -0.1727 -0.1143
 2107DPPC   C1B46977  18.359  34.757  26.218 -0.1520  0.1274  0.0199
 2107DPPC   C2B46978  18.539  34.392  26.175 -0.0798  0.1001  0.2056
 2107DPPC   C3B46979  18.977  34.307  25.890 -0.0091  0.0054  0.1135
 2107DPPC   C4B46980  19.391  34.110  25.727 -0.0237  0.1804 -0.1673
 2108DPPC   NC346981  22.725  29.817  14.982 -0.1165  0.1847 -0.0562
 2108DPPC   PO446982  22.649  30.147  15.237  0.2263 -0.2213 -0.2655
 2108DPPC   GL146983  22.225  29.986  15.071 -0.0027  0.0522 -0.3046
 2108DPPC   GL246984  22.182  30.268  14.951 -0.1329  0.0930 -0.0680
 2108DPPC   C1A46985  21.851  29.867  14.784  0.1235  0.1038 -0.2394
 2108DPPC   C2A46986  21.436  29.850  14.487  0.0641 -0.2260  0.0374
 2108DPPC   C3A46987  21.189  29.953  14.204  0.3782  0.3342 -0.2255
 2108DPPC   C4A46988  20.960  30.183  13.861  0.0858 -0.1630  0.0915
 2108DPPC   C1B46989  21.843  30.347  14.883  0.2513  0.0547  0.2253
 2108DPPC   C2B46990  21.554  30.359  14.464  0.1052 -0.3602 -0.1494
 2108DPPC   C3B46991  21.056  30.360  14.378 -0.0788  0.0100  0.3373
 2108DPPC   C4B46992  20.712  30.439  14.517 -0.0301  0.3014  0.0281
 2109DPPC   NC346993  15.231  23.040   0.851  0.3475 -0.2957  0.3396
 2109DPPC   PO446994  15.202  23.104   0.363  0.4449 -0.1605 -0.4474
 2109DPPC   GL146995  15.424  23.358   0.272 -0.0189 -0.1005 -0.2078
 2109DPPC   GL246996  15.589  23.585   0.617 -0.0066 -0.3717  0.0667
 2109DPPC   C1A46997  15.495  23.672   0.001 -0.1699 -0.0780 -0.0864
 2109DPPC   C2A46998  15.560  23.729  26.602 -0.2333 -0.0593 -0.1344
 2109DPPC   C3A46999  15.873  23.662  26.255  0.0358  0.0373 -0.0119
 2109DPPC   C4A47000  16.339  23.746  26.234 -0.2514  0.1420  0.2374
 2109DPPC   C1B47001  15.958  23.758   0.386 -0.0302  0.2653 -0.0978
 2109DPPC   C2B47002  16.326  23.778   0.199 -0.1973  0.1626  0.1496
 2109DPPC   C3B47003  16.554  23.460  26.851 -0.1754 -0.1300 -0.1142
 2109DPPC   C4B47004  16.276  23.256  26.563  0.2625 -0.1213  0.1442
 2110DPPC   NC347005  18.113  18.462  17.762 -0.1376 -0.1189  0.0510
 2110DPPC   PO447006  18.252  18.899  17.878  0.1965  0.1745  0.2602
 2110DPPC   GL147007  18.141  19.050  18.238 -0.1435 -0.0861 -0.0619
 2110DPPC   GL247008  18.488  19.046  18.315  0.2407 -0.2119  0.1262
 2110DPPC   C1A47009  17.880  19.150  18.548  0.0777  0.0672  0.2978
 2110DPPC   C2A47010  17.922  19.190  18.949  0.0770 -0.0322 -0.0128
 2110DPPC   C3A47011  17.896  19.336  19.472  0.3398  0.0172  0.2093
 2110DPPC   C4A47012  17.752  19.527  19.767 -0.2148 -0.2895  0.0992
 2110DPPC   C1B47013  18.877  18.859  18.517 -0.1032  0.1214  0.0779
 2110DPPC   C2B47014  19.214  18.834  18.810  0.2715  0.2455  0.4026
 2110DPPC   C3B47015  19.558  18.785  19.159  0.0151  0.2101  0.0176
 2110DPPC   C4B47016  19.966  18.982  19.169  0.0222  0.2153 -0.0430
 2111DPPC   NC347017  39.158  33.939  19.117  0.3855 -0.0663  0.1687
 2111DPPC   PO447018  39.010  34.323  18.902  0.1745 -0.2705 -0.1118
 2111DPPC   GL147019  38.615  34.093  18.955 -0.2808 -0.0616 -0.0112
 2111DPPC   GL247020  38.281  34.291  18.814 -0.1326  0.0678  0.0233
 2111DPPC   C1A47021  38.384  33.674  19.009 -0.3947  0.4187  0.0969
 2111DPPC   C2A47022  38.245  33.341  19.148  0.0770 -0.1643  0.1158
 2111DPPC   C3A47023  37.935  33.062  19.243  0.5926 -0.1248 -0.0846
 2111DPPC   C4A47024  37.536  33.058  19.027  0.1313  0.0244  0.1628
 2111DPPC   C1B47025  38.057  33.965  18.649 -0.0268 -0.0004  0.1040
 2111DPPC   C2B47026  37.675  33.691  18.430  0.2001  0.0017  0.0726
 2111DPPC   C3B47027  37.396  33.344  18.512  0.2754 -0.1337  0.0503
 2111DPPC   C4B47028  37.217  32.944  18.585 -0.0383 -0.0236 -0.1273
 2112DPPC   NC347029  19.933  20.262   4.122  0.0196 -0.2445  0.2134
 2112DPPC   PO447030  20.308  20.222   4.287  0.0112  0.0931  0.2077
 2112DPPC   GL147031  20.350  20.259   3.812  0.0628 -0.0480  0.1047
 2112DPPC   GL247032  20.685  20.290   3.759  0.3898  0.1136 -0.3974
 2112DPPC   C1A47033  20.411  20.356   3.370 -0.2025  0.1605 -0.0100
 2112DPPC   C2A47034  20.644  20.287   2.906  0.1627 -0.0302 -0.0228
 2112DPPC   C3A47035  20.947  20.435   2.664 -0.0894 -0.0442  0.3486
 2112DPPC   C4A47036  21.195  20.626   2.320 -0.0590 -0.1400  0.3059
 2112DPPC   C1B47037  20.871  20.469   3.446 -0.2107 -0.0685 -0.1123
 2112DPPC   C2B47038  20.923  20.866   3.237 -0.2099  0.3071  0.0745
 2112DPPC   C3B47039  20.599  21.174   3.148  0.0471  0.3247 -0.0747
 2112DPPC   C4B47040  20.415  21.557   3.120 -0.2168  0.2180 -0.1040
 2113DPPC   NC347041  22.064  15.509  23.508 -0.3834 -0.0588 -0.1723
 2113DPPC   PO447042  22.035  15.863  23.777 -0.0664 -0.0850 -0.1395
 2113DPPC   GL147043  22.191  16.276  23.705 -0.0768 -0.0338 -0.0724
 2113DPPC   GL247044  22.043  16.530  23.808 -0.2430  0.1602 -0.2303
 2113DPPC   C1A47045  22.573  16.638  23.652 -0.0155 -0.0239 -0.1043
 2113DPPC   C2A47046  22.691  17.017  23.805  0.0262  0.0961  0.2469
 2113DPPC   C3A47047  22.597  17.486  23.619  0.0459 -0.2196  0.0136
 2113DPPC   C4A47048  22.467  18.013  23.608 -0.3024 -0.2370  0.2580
 2113DPPC   C1B47049  22.203  16.873  24.091 -0.2043 -0.2363 -0.0984
 2113DPPC   C2B47050  22.089  17.302  24.049  0.1666 -0.1408 -0.2498
 2113DPPC   C3B47051  22.013  17.509  23.642  0.0277  0.0639 -0.1527
 2113DPPC   C4B47052  21.825  17.693  23.222  0.1849 -0.0593 -0.0652
 2114DPPC   NC347053  17.323  35.647  20.413  0.0396 -0.0061  0.1407
 2114DPPC   PO447054  17.182  35.877  20.742 -0.0254 -0.0881 -0.0636
 2114DPPC   GL147055  17.633  35.840  20.964  0.1172 -0.3726 -0.0282
 2114DPPC   GL247056  17.787  35.646  20.685  0.2081 -0.2981  0.1926
 2114DPPC   C1A47057  17.882  35.627  21.299 -0.4008 -0.3723  0.0319
 2114DPPC   C2A47058  18.197  35.401  21.379 -0.0812 -0.1066  0.0843
 2114DPPC   C3A47059  18.680  35.311  21.359  0.0127 -0.0548 -0.4460
 2114DPPC   C4A47060  19.048  35.482  21.554  0.1939  0.4232 -0.1892
 2114DPPC   C1B47061  17.746  35.230  20.879 -0.0302  0.0708 -0.3121
 2114DPPC   C2B47062  17.732  34.787  20.860  0.2023  0.0933  0.0633
 2114DPPC   C3B47063  17.389  34.279  20.682 -0.0238  0.0254 -0.2337
 2114DPPC   C4B47064  17.234  33.867  20.740 -0.0957  0.0234  0.1298
 2115DPPC   NC347065  17.375  33.460  16.847  0.4097  0.1449 -0.1458
 2115DPPC   PO447066  17.065  33.233  16.802 -0.1417  0.0401  0.0495
 2115DPPC   GL147067  17.306  32.941  16.979  0.0907 -0.1468 -0.2643
 2115DPPC   GL247068  17.457  33.141  17.290  0.0953  0.3439 -0.1750
 2115DPPC   C1A47069  17.607  32.660  16.842 -0.1602  0.0430  0.1308
 2115DPPC   C2A47070  17.939  32.280  16.942 -0.2514  0.2583  0.1652
 2115DPPC   C3A47071  18.194  31.959  17.042 -0.1394 -0.1518 -0.0458
 2115DPPC   C4A47072  18.618  31.918  17.212  0.0246 -0.0589 -0.0614
 2115DPPC   C1B47073  17.760  32.961  17.566  0.1349  0.1205 -0.1279
 2115DPPC   C2B47074  18.139  32.774  17.815 -0.1376  0.2408  0.0788
 2115DPPC   C3B47075  18.345  32.699  18.079  0.3627 -0.1134  0.2468
 2115DPPC   C4B47076  18.600  32.529  18.435  0.2198 -0.0367 -0.1461
 2116DPPC   NC347077  32.641  23.475  21.431 -0.1468  0.3643  0.0704
 2116DPPC   PO447078  32.998  23.578  21.751 -0.1966  0.4055 -0.1328
 2116DPPC   GL147079  33.248  23.226  21.919  0.0498 -0.0332 -0.1372
 2116DPPC   GL247080  33.155  22.917  21.767  0.0647 -0.3207  0.3643
 2116DPPC   C1A47081  33.595  22.992  22.161 -0.1026 -0.1740 -0.2303
 2116DPPC   C2A47082  33.925  22.788  22.097  0.1153 -0.1284 -0.0931
 2116DPPC   C3A47083  33.978  22.506  22.530  0.0388 -0.3181  0.2178
 2116DPPC   C4A47084  34.342  22.226  22.618 -0.1866 -0.0299 -0.0116
 2116DPPC   C1B47085  33.422  22.519  21.833 -0.1617  0.2249 -0.1526
 2116DPPC   C2B47086  33.414  22.106  21.654 -0.0999 -0.0317  0.3735
 2116DPPC   C3B47087  33.593  21.773  21.400 -0.3327  0.0545  0.0648
 2116DPPC   C4B47088  33.964  21.528  21.366 -0.0309  0.0235 -0.0037
 2117DPPC   NC347089  15.099  30.274  18.603  0.2032  0.1522 -0.0509
 2117DPPC   PO447090  15.477  30.306  18.890 -0.0063 -0.0516  0.1848
 2117DPPC   GL147091  15.710  30.202  19.232 -0.0365  0.1340  0.0507
 2117DPPC   GL247092  15.800  30.539  19.253 -0.2013 -0.0391 -0.3888
 2117DPPC   C1A47093  16.031  29.881  19.314  0.0700 -0.2157  0.1751
 2117DPPC   C2A47094  15.923  29.489  19.437  0.1435 -0.1119  0.1390
 2117DPPC   C3A47095  15.988  29.003  19.343  0.0004 -0.4616  0.1093
 2117DPPC   C4A47096  15.706  28.669  19.167  0.2775  0.2374  0.0755
 2117DPPC   C1B47097  16.179  30.335  19.356  0.0008  0.0375 -0.0855
 2117DPPC   C2B47098  16.550  30.193  19.444 -0.2944 -0.4949  0.2367
 2117DPPC   C3B47099  16.959  30.262  19.362 -0.0612 -0.1520 -0.0614
 2117DPPC   C4B47100  17.293  30.240  19.132 -0.1717  0.0379  0.1701
 2118DPPC   NC347101  38.767  33.560  25.215  0.0499 -0.2351 -0.1605
 2118DPPC   PO447102  38.665  33.105  25.210  0.1349 -0.0530  0.0170
 2118DPPC   GL147103  38.349  32.809  25.298  0.1956  0.0692 -0.0014
 2118DPPC   GL247104  38.563  32.652  25.416  0.0095  0.3650 -0.2487
 2118DPPC   C1A47105  38.023  32.712  25.508 -0.0835 -0.2444 -0.0351
 2118DPPC   C2A47106  37.738  32.732  25.821  0.1721 -0.0970  0.2524
 2118DPPC   C3A47107  37.383  32.465  26.011 -0.0007  0.0445 -0.2438
 2118DPPC   C4A47108  37.149  32.317  25.809  0.0756 -0.2074 -0.3117
 2118DPPC   C1B47109  38.273  32.269  25.277  0.1116 -0.4288 -0.1464
 2118DPPC   C2B47110  38.159  31.987  25.043 -0.1340  0.0769 -0.0613
 2118DPPC   C3B47111  37.994  31.576  24.960 -0.0519  0.4112 -0.1861
 2118DPPC   C4B47112  37.885  31.156  24.713  0.1617  0.1401 -0.0205
 2119DPPC   NC347113  18.072  33.542  14.315 -0.1362 -0.0043 -0.0718
 2119DPPC   PO447114  17.900  33.172  14.561 -0.1775 -0.2306 -0.1184
 2119DPPC   GL147115  17.942  32.884  14.815  0.2595  0.0288 -0.1921
 2119DPPC   GL247116  17.914  33.030  15.139 -0.2800  0.1168 -0.1665
 2119DPPC   C1A47117  18.029  32.565  15.156 -0.1031 -0.0070  0.2986
 2119DPPC   C2A47118  18.435  32.365  15.320 -0.1498  0.1797 -0.3437
 2119DPPC   C3A47119  18.739  32.356  15.660 -0.0893  0.0861  0.4643
 2119DPPC   C4A47120  18.838  32.301  16.105 -0.0228  0.2838  0.0325
 2119DPPC   C1B47121  18.379  32.878  15.130 -0.1837 -0.4108 -0.2187
 2119DPPC   C2B47122  18.728  32.988  14.936 -0.0510  0.1059 -0.2114
 2119DPPC   C3B47123  18.969  33.253  14.669  0.0010 -0.0847  0.1508
 2119DPPC   C4B47124  19.130  33.633  14.703 -0.1723 -0.3319  0.6764
 2120DPPC   NC347125  14.633  30.872  20.362  0.0364 -0.4623  0.2211
 2120DPPC   PO447126  14.809  31.236  20.189 -0.0686 -0.0640  0.0063
 2120DPPC   GL147127  15.239  31.102  20.280  0.1157 -0.1135  0.0638
 2120DPPC   GL247128  15.509  31.210  20.062  0.0505  0.1115 -0.2066
 2120DPPC   C1A47129  15.525  30.743  20.423 -0.3424  0.0907 -0.1784
 2120DPPC   C2A47130  15.873  30.786  20.670 -0.0843 -0.0461  0.0338
 2120DPPC   C3A47131  16.102  30.653  21.051  0.1398  0.2717  0.2456
 2120DPPC   C4A47132  16.390  30.364  21.319  0.0166  0.4313  0.3594
 2120DPPC   C1B47133  15.955  31.007  20.070 -0.0398  0.0940 -0.2507
 2120DPPC   C2B47134  16.261  30.820  20.365  0.2085 -0.2195  0.0553
 2120DPPC   C3B47135  16.621  30.681  20.672  0.2546  0.1085  0.1205
 2120DPPC   C4B47136  17.106  30.644  20.703 -0.2210 -0.2305  0.2062
 2121DPPC   NC347137  30.321  39.852   2.317  0.1105 -0.1974 -0.3933
 2121DPPC   PO447138  30.041  39.377   2.152 -0.0577 -0.2282  0.4673
 2121DPPC   GL147139  29.822  39.048   1.913 -0.4083  0.0688  0.0951
 2121DPPC   GL247140  29.587  39.128   1.743  0.0052  0.0283 -0.0078
 2121DPPC   C1A47141  29.863  38.719   1.553  0.2240 -0.2156 -0.0255
 2121DPPC   C2A47142  29.915  38.351   1.219 -0.0274 -0.1831 -0.1151
 2121DPPC   C3A47143  30.231  38.071   1.381  0.0166 -0.0987  0.0408
 2121DPPC   C4A47144  30.570  37.859   1.614 -0.4364 -0.0127 -0.0604
 2121DPPC   C1B47145  29.306  38.836   1.796 -0.3832 -0.2851 -0.2688
 2121DPPC   C2B47146  29.053  38.558   1.735  0.3593 -0.1350  0.1033
 2121DPPC   C3B47147  28.806  38.389   1.546  0.0099 -0.3427  0.3037
 2121DPPC   C4B47148  28.844  37.973   1.138 -0.1058  0.0934 -0.0245
 2122DPPC   NC347149  29.199  22.333   6.276 -0.4711 -0.2458 -0.1786
 2122DPPC   PO447150  29.678  22.258   6.316  0.0887 -0.0541  0.2543
 2122DPPC   GL147151  29.572  22.365   5.944  0.0086  0.1239  0.0122
 2122DPPC   GL247152  29.294  22.651   5.946  0.0295  0.1020  0.1384
 2122DPPC   C1A47153  29.720  22.395   5.473 -0.2517  0.0491 -0.2419
 2122DPPC   C2A47154  29.494  22.517   5.166  0.0149 -0.0525 -0.1838
 2122DPPC   C3A47155  29.358  22.709   4.832  0.2324  0.0814 -0.0346
 2122DPPC   C4A47156  29.494  22.651   4.462  0.0258 -0.0204 -0.0097
 2122DPPC   C1B47157  29.446  22.908   5.579 -0.0025  0.3778 -0.0218
 2122DPPC   C2B47158  29.536  23.087   5.089 -0.0977 -0.1713 -0.4769
 2122DPPC   C3B47159  29.600  23.102   4.629 -0.0833  0.0321  0.0796
 2122DPPC   C4B47160  29.931  22.898   4.328  0.3273  0.0039  0.1677
 2123DPPC   NC347161  24.950  33.478  10.261  0.0113 -0.2681  0.2025
 2123DPPC   PO447162  24.643  33.246  10.344 -0.0105  0.3864 -0.3485
 2123DPPC   GL147163  24.729  33.154  10.724  0.1517 -0.0479 -0.0886
 2123DPPC   GL247164  24.384  33.156  10.748 -0.3478 -0.0323  0.0601
 2123DPPC   C1A47165  24.984  33.034  10.939 -0.2397  0.2924  0.0085
 2123DPPC   C2A47166  25.320  33.180  11.080 -0.4236  0.0340 -0.1112
 2123DPPC   C3A47167  25.576  33.442  11.114  0.1690  0.1495  0.0505
 2123DPPC   C4A47168  25.894  33.121  11.294  0.1577 -0.1514 -0.2204
 2123DPPC   C1B47169  24.376  33.016  11.172  0.1214  0.3635  0.0576
 2123DPPC   C2B47170  24.619  32.803  11.569  0.1857  0.1627 -0.0121
 2123DPPC   C3B47171  24.984  32.739  11.670  0.0278 -0.1547 -0.1172
 2123DPPC   C4B47172  25.284  32.798  11.938  0.1592 -0.2703  0.2349
 2124DPPC   NC347173  18.010  19.553  16.712 -0.0572  0.2158  0.0587
 2124DPPC   PO447174  17.946  19.580  17.182 -0.0945  0.0867  0.1870
 2124DPPC   GL147175  18.110  19.826  17.422 -0.0313 -0.1677 -0.1113
 2124DPPC   GL247176  18.226  19.840  17.731  0.0683 -0.3058  0.1638
 2124DPPC   C1A47177  18.232  20.309  17.343 -0.2224 -0.1754  0.1448
 2124DPPC   C2A47178  18.440  20.639  16.932  0.2044  0.2691 -0.1772
 2124DPPC   C3A47179  18.644  20.878  16.626 -0.4062  0.2914 -0.4404
 2124DPPC   C4A47180  18.644  20.912  16.140 -0.0326 -0.1022 -0.0963
 2124DPPC   C1B47181  18.554  20.039  17.540 -0.2103  0.1437 -0.3436
 2124DPPC   C2B47182  18.737  20.340  17.213  0.0673  0.2867 -0.0055
 2124DPPC   C3B47183  19.006  20.451  16.869  0.0710 -0.1084  0.0591
 2124DPPC   C4B47184  18.809  20.413  16.483 -0.2005  0.2299  0.3674
 2125DPPC   NC347185  26.729  28.660   9.183 -0.2219  0.1923  0.1692
 2125DPPC   PO447186  26.756  29.077   9.113  0.0551 -0.2173  0.1162
 2125DPPC   GL147187  26.688  29.133   9.644 -0.2419  0.1875  0.2720
 2125DPPC   GL247188  26.447  28.954   9.909  0.2137 -0.1770 -0.3542
 2125DPPC   C1A47189  26.772  29.337  10.051  0.2135  0.0529 -0.0353
 2125DPPC   C2A47190  26.531  29.255  10.455  0.1873  0.5230 -0.3622
 2125DPPC   C3A47191  26.498  29.280  10.972 -0.2486  0.0183  0.1187
 2125DPPC   C4A47192  26.613  29.326  11.412 -0.0129 -0.0554 -0.0887
 2125DPPC   C1B47193  26.008  28.975  10.147 -0.0730  0.2973 -0.0627
 2125DPPC   C2B47194  26.051  29.120  10.560  0.0070 -0.2512 -0.1187
 2125DPPC   C3B47195  25.934  29.296  10.917  0.2899  0.0564 -0.1894
 2125DPPC   C4B47196  26.181  29.502  11.219 -0.0946  0.2143 -0.0514
 2126DPPC   NC347197  24.974  29.116  26.658  0.1343 -0.1556 -0.0880
 2126DPPC   PO447198  24.674  28.833  26.717 -0.2868  0.0214  0.1677
 2126DPPC   GL147199  24.400  28.411  26.875  0.0410 -0.0431  0.2608
 2126DPPC   GL247200  24.536  28.318   0.289  0.0113 -0.0785 -0.1279
 2126DPPC   C1A47201  24.094  28.147   0.197  0.0733  0.0193  0.1250
 2126DPPC   C2A47202  24.066  27.785   0.326 -0.1135  0.1940  0.0064
 2126DPPC   C3A47203  23.828  27.427   0.323 -0.2330  0.1002 -0.5484
 2126DPPC   C4A47204  23.674  27.116   0.555  0.3063 -0.0444 -0.0191
 2126DPPC   C1B47205  24.430  28.054   0.649 -0.0857 -0.2990  0.1142
 2126DPPC   C2B47206  24.459  27.693   0.789  0.1692 -0.0315 -0.2528
 2126DPPC   C3B47207  24.869  27.413   0.796 -0.2312  0.1002  0.2991
 2126DPPC   C4B47208  25.064  27.087   0.870  0.2493 -0.1521 -0.0566
 2127DPPC   NC347209  22.749  27.478  21.526 -0.1328  0.0872  0.0745
 2127DPPC   PO447210  22.730  27.336  21.961  0.1564  0.0384  0.0250
 2127DPPC   GL147211  22.605  26.866  22.266  0.3283  0.1072 -0.1100
 2127DPPC   GL247212  22.318  26.867  22.313 -0.2958 -0.5398  0.0368
 2127DPPC   C1A47213  22.708  26.486  22.337 -0.0486  0.0909  0.0469
 2127DPPC   C2A47214  22.658  26.088  22.175  0.0899 -0.1118  0.1573
 2127DPPC   C3A47215  22.509  25.763  21.897 -0.2006 -0.2471 -0.1590
 2127DPPC   C4A47216  22.194  25.513  21.815  0.2754 -0.0589 -0.0345
 2127DPPC   C1B47217  21.962  26.719  22.451  0.0092 -0.1431 -0.1824
 2127DPPC   C2B47218  21.645  26.506  22.703  0.2195  0.2288 -0.2859
 2127DPPC   C3B47219  21.473  26.057  22.782 -0.2579  0.0893 -0.0294
 2127DPPC   C4B47220  21.212  25.808  22.581  0.2617 -0.1419  0.1110
 2128DPPC   NC347221  23.958  26.810  10.589  0.1626  0.0137 -0.4724
 2128DPPC   PO447222  24.224  27.183  10.444  0.2775  0.0615  0.1240
 2128DPPC   GL147223  24.116  27.404  10.813 -0.2834  0.4254  0.0535
 2128DPPC   GL247224  24.057  27.731  10.631  0.0453 -0.0927  0.0774
 2128DPPC   C1A47225  24.156  27.284  11.169 -0.0727  0.0420  0.0755
 2128DPPC   C2A47226  24.200  27.032  11.439  0.3745 -0.1917 -0.3109
 2128DPPC   C3A47227  24.213  26.557  11.379  0.2614 -0.0045 -0.2232
 2128DPPC   C4A47228  24.230  26.250  11.232 -0.2207 -0.2828  0.0550
 2128DPPC   C1B47229  24.237  27.788  11.129  0.3249 -0.2884  0.1957
 2128DPPC   C2B47230  24.251  27.895  11.597 -0.1341  0.1458  0.1218
 2128DPPC   C3B47231  24.004  28.113  11.780  0.2074 -0.1591  0.2422
 2128DPPC   C4B47232  23.894  28.593  11.662 -0.2449 -0.1226 -0.1845
 2129DPPC   NC347233  26.942  24.653  24.398  0.0049  0.1613 -0.1585
 2129DPPC   PO447234  26.826  24.730  24.781  0.0124 -0.0361 -0.0119
 2129DPPC   GL147235  26.378  24.592  24.954 -0.3554 -0.2671  0.0567
 2129DPPC   GL247236  26.083  24.758  24.820  0.0501  0.3566 -0.0503
 2129DPPC   C1A47237  26.247  24.254  25.094  0.0751 -0.1076  0.0149
 2129DPPC   C2A47238  25.884  23.857  25.059 -0.1212 -0.2973 -0.4327
 2129DPPC   C3A47239  25.562  23.472  25.003 -0.0823  0.2986  0.1626
 2129DPPC   C4A47240  25.700  23.025  24.919 -0.1818  0.2062 -0.1844
 2129DPPC   C1B47241  25.702  24.678  25.140  0.0946 -0.0823 -0.4309
 2129DPPC   C2B47242  25.515  24.173  25.225  0.0285  0.0057  0.4356
 2129DPPC   C3B47243  25.414  23.756  25.400 -0.1656 -0.0016  0.0380
 2129DPPC   C4B47244  25.145  23.418  25.263 -0.1824  0.5007  0.2119
 2130DPPC   NC347245  23.045  27.999  23.086  0.2579  0.3519  0.1802
 2130DPPC   PO447246  23.105  27.708  22.790  0.0407 -0.1255  0.2637
 2130DPPC   GL147247  22.831  27.580  22.975  0.1037 -0.0216  0.0644
 2130DPPC   GL247248  22.886  27.133  22.996 -0.0743 -0.1313 -0.1990
 2130DPPC   C1A47249  22.418  27.277  23.025 -0.1223  0.3865 -0.1870
 2130DPPC   C2A47250  22.197  26.859  23.080  0.0531 -0.1537 -0.2724
 2130DPPC   C3A47251  21.940  26.524  23.079  0.0800 -0.0349  0.1161
 2130DPPC   C4A47252  21.885  26.103  23.233 -0.0191 -0.2736 -0.0151
 2130DPPC   C1B47253  22.571  26.861  22.783  0.2199 -0.1342 -0.1098
 2130DPPC   C2B47254  22.433  26.539  22.739  0.2953  0.1050  0.2052
 2130DPPC   C3B47255  22.067  26.246  22.645  0.0956  0.0015 -0.0312
 2130DPPC   C4B47256  21.697  26.152  22.207 -0.0012  0.1581  0.0039
 2131DPPC   NC347257  35.130  33.927  12.709 -0.0719  0.2138  0.2654
 2131DPPC   PO447258  35.403  33.625  12.604 -0.2131  0.2365 -0.3046
 2131DPPC   GL147259  34.930  33.374  12.787 -0.0216 -0.0661 -0.2322
 2131DPPC   GL247260  34.776  33.161  12.594  0.3919 -0.2158  0.0736
 2131DPPC   C1A47261  34.557  33.160  13.058 -0.0880 -0.1112  0.2095
 2131DPPC   C2A47262  34.452  33.060  13.506 -0.0462 -0.2090  0.0683
 2131DPPC   C3A47263  34.450  32.794  13.719  0.3818  0.3053 -0.5037
 2131DPPC   C4A47264  34.631  32.527  14.003 -0.1226  0.0189 -0.1993
 2131DPPC   C1B47265  34.401  32.939  12.629 -0.0343  0.0039  0.0568
 2131DPPC   C2B47266  34.122  32.526  12.643 -0.0375  0.0827 -0.1666
 2131DPPC   C3B47267  33.656  32.241  12.602  0.0062 -0.1126  0.0592
 2131DPPC   C4B47268  33.441  31.929  12.620  0.0759 -0.2309  0.0819
 2132DPPC   NC347269  28.269  39.093   3.754 -0.1597  0.0385 -0.1618
 2132DPPC   PO447270  28.151  39.234   3.352 -0.0828  0.0524 -0.5490
 2132DPPC   GL147271  28.136  38.966   2.956  0.1003 -0.1626  0.1216
 2132DPPC   GL247272  27.858  38.917   2.845 -0.0704  0.0445 -0.1926
 2132DPPC   C1A47273  28.259  38.697   2.566  0.3848 -0.2840 -0.0407
 2132DPPC   C2A47274  28.199  38.309   2.330 -0.2692  0.2316  0.2355
 2132DPPC   C3A47275  28.158  38.173   1.920 -0.0090 -0.0071 -0.0391
 2132DPPC   C4A47276  28.474  38.054   1.681  0.0917 -0.0176  0.1623
 2132DPPC   C1B47277  27.800  38.527   2.570 -0.0187  0.2680 -0.0588
 2132DPPC   C2B47278  27.746  38.189   2.262 -0.2047  0.0573 -0.1452
 2132DPPC   C3B47279  27.737  37.878   1.885  0.1111  0.0633 -0.0492
 2132DPPC   C4B47280  27.612  37.625   1.611  0.0438  0.2294  0.0968
 2133DPPC   NC347281  36.196  20.995  23.230 -0.3026 -0.0196  0.0229
 2133DPPC   PO447282  36.470  21.278  23.146  0.0847 -0.1610  0.3447
 2133DPPC   GL147283  36.250  21.417  22.875  0.0872 -0.1551  0.3142
 2133DPPC   GL247284  35.911  21.383  23.055 -0.0621 -0.0454 -0.1186
 2133DPPC   C1A47285  36.003  21.478  22.466  0.0180 -0.2274 -0.1192
 2133DPPC   C2A47286  36.130  21.564  22.125  0.0984  0.1280  0.0752
 2133DPPC   C3A47287  35.853  21.542  21.672  0.0819  0.1198 -0.2397
 2133DPPC   C4A47288  35.560  21.777  21.326  0.1542  0.0773 -0.0952
 2133DPPC   C1B47289  35.764  21.799  23.171 -0.1742  0.2367 -0.0414
 2133DPPC   C2B47290  36.007  22.065  23.493  0.0021  0.4045 -0.0176
 2133DPPC   C3B47291  36.077  22.183  23.876  0.2132 -0.4342  0.0524
 2133DPPC   C4B47292  35.845  22.605  23.966 -0.3930 -0.3092  0.1968
 2134DPPC   NC347293  38.246  27.458  16.167 -0.0650 -0.2839 -0.0675
 2134DPPC   PO447294  38.200  27.051  15.992  0.0276 -0.0933 -0.2128
 2134DPPC   GL147295  37.856  27.072  16.248  0.1468  0.0262 -0.1303
 2134DPPC   GL247296  37.682  26.797  16.331  0.0833 -0.1246  0.1150
 2134DPPC   C1A47297  37.475  27.349  16.382 -0.0698  0.0135  0.1092
 2134DPPC   C2A47298  37.301  27.733  16.573  0.1852  0.2341 -0.2778
 2134DPPC   C3A47299  37.047  27.983  16.869  0.0298  0.2488  0.1586
 2134DPPC   C4A47300  36.734  28.088  17.120 -0.0484  0.0664 -0.1322
 2134DPPC   C1B47301  37.541  26.885  16.695  0.3710  0.0818 -0.2619
 2134DPPC   C2B47302  37.422  27.163  16.964 -0.0601 -0.0454  0.2385
 2134DPPC   C3B47303  37.243  27.556  17.041  0.0731 -0.3164  0.0174
 2134DPPC   C4B47304  37.044  27.832  17.374 -0.0571  0.1423  0.2049
 2135DPPC   NC347305  25.413  25.045  23.562  0.0873 -0.0195 -0.0918
 2135DPPC   PO447306  24.924  24.967  23.639  0.1560 -0.2162  0.4691
 2135DPPC   GL147307  24.486  25.069  23.835  0.2560  0.2277 -0.2726
 2135DPPC   GL247308  24.560  25.271  24.052  0.2663  0.1724  0.2496
 2135DPPC   C1A47309  24.213  24.730  23.879  0.0682  0.3444  0.0191
 2135DPPC   C2A47310  24.068  24.377  23.714 -0.2098 -0.0475  0.1750
 2135DPPC   C3A47311  23.608  24.281  23.440 -0.3100  0.0642  0.1151
 2135DPPC   C4A47312  23.676  24.081  23.059 -0.2856  0.2551  0.2488
 2135DPPC   C1B47313  24.192  25.082  24.252  0.0494  0.2187 -0.0065
 2135DPPC   C2B47314  23.907  24.774  24.396 -0.0641  0.1702 -0.4230
 2135DPPC   C3B47315  23.605  24.504  24.532  0.2762 -0.0175 -0.0402
 2135DPPC   C4B47316  23.446  24.159  24.513 -0.2860  0.0249 -0.1476
 2136DPPC   NC347317  36.704  21.080  21.793  0.1044 -0.1999  0.1657
 2136DPPC   PO447318  37.064  21.372  21.772  0.0628  0.1616  0.2426
 2136DPPC   GL147319  36.688  21.597  21.998  0.2468  0.1201 -0.2125
 2136DPPC   GL247320  36.503  21.830  21.788 -0.0467 -0.2142  0.1663
 2136DPPC   C1A47321  36.598  21.807  22.395 -0.1809 -0.0530 -0.1727
 2136DPPC   C2A47322  36.393  22.201  22.523  0.1524  0.2212 -0.0853
 2136DPPC   C3A47323  36.072  22.487  22.565 -0.1620  0.1487  0.3013
 2136DPPC   C4A47324  35.623  22.467  22.622  0.3110  0.1652 -0.0303
 2136DPPC   C1B47325  36.225  22.049  21.992  0.2993 -0.1109 -0.1559
 2136DPPC   C2B47326  36.047  22.461  22.103 -0.1248  0.0856 -0.1010
 2136DPPC   C3B47327  35.643  22.604  22.085  0.0615  0.4801  0.1050
 2136DPPC   C4B47328  35.344  22.560  21.804  0.1640  0.0589  0.0651
 2137DPPC   NC347329  30.590  24.784   0.575  0.0964  0.1541  0.0026
 2137DPPC   PO447330  30.840  25.108   0.753 -0.0922 -0.2071  0.4039
 2137DPPC   GL147331  30.977  24.898   0.890  0.2040 -0.0306  0.2406
 2137DPPC   GL247332  31.337  24.901   0.933  0.3760 -0.0497  0.2353
 2137DPPC   C1A47333  31.013  24.539   1.213  0.2007  0.0534  0.3876
 2137DPPC   C2A47334  31.236  24.261   1.418 -0.0018 -0.2415  0.2611
 2137DPPC   C3A47335  31.428  24.314   1.828  0.4971 -0.0038  0.0709
 2137DPPC   C4A47336  31.813  24.285   1.974 -0.0228 -0.0308  0.2921
 2137DPPC   C1B47337  31.565  24.585   1.177  0.3033 -0.1225  0.1113
 2137DPPC   C2B47338  31.893  24.451   1.514  0.2041 -0.1179 -0.0456
 2137DPPC   C3B47339  32.311  24.228   1.772  0.0943 -0.1993  0.1369
 2137DPPC   C4B47340  32.495  23.898   1.789 -0.0798  0.2289 -0.1978
 2138DPPC   NC347341  17.734  19.491  26.718 -0.2377  0.2261 -0.1647
 2138DPPC   PO447342  17.575  19.483  26.296  0.1710 -0.0048  0.1821
 2138DPPC   GL147343  17.825  19.804  25.948 -0.2312 -0.2174  0.1906
 2138DPPC   GL247344  18.079  19.716  25.656  0.4361  0.1150  0.1595
 2138DPPC   C1A47345  17.893  20.170  25.707 -0.0260 -0.1058 -0.1160
 2138DPPC   C2A47346  18.088  20.466  25.492  0.1444  0.1616 -0.0718
 2138DPPC   C3A47347  18.375  20.758  25.381 -0.0315 -0.4889  0.2652
 2138DPPC   C4A47348  18.512  20.552  25.022 -0.1670  0.0887 -0.0465
 2138DPPC   C1B47349  18.129  19.924  25.314 -0.0850 -0.1430  0.0623
 2138DPPC   C2B47350  18.424  20.149  25.231 -0.0682 -0.1471  0.0293
 2138DPPC   C3B47351  18.840  20.299  25.265 -0.1638 -0.6073 -0.1258
 2138DPPC   C4B47352  19.179  20.556  25.468  0.1158 -0.2910 -0.2443
 2139DPPC   NC347353  36.274  22.483  26.780 -0.1885 -0.4358  0.0557
 2139DPPC   PO447354  36.212  22.329  26.403 -0.0860 -0.0431 -0.2195
 2139DPPC   GL147355  35.874  22.363  26.125 -0.1439  0.1357  0.3037
 2139DPPC   GL247356  35.589  22.147  26.145 -0.1624  0.1827  0.2368
 2139DPPC   C1A47357  35.558  22.612  26.123 -0.0883 -0.2427 -0.0210
 2139DPPC   C2A47358  35.336  22.989  26.080  0.0005 -0.1771  0.2565
 2139DPPC   C3A47359  35.125  23.288  26.234 -0.1484 -0.3328 -0.0368
 2139DPPC   C4A47360  34.962  23.569  26.128  0.2671  0.2971 -0.0352
 2139DPPC   C1B47361  35.510  22.263  25.780 -0.3854  0.2028 -0.0285
 2139DPPC   C2B47362  35.165  22.523  25.632 -0.0586 -0.2397 -0.1381
 2139DPPC   C3B47363  34.963  22.801  25.817  0.0306 -0.4077  0.1125
 2139DPPC   C4B47364  34.881  22.802  26.268 -0.1237 -0.1208 -0.2790
 2140DPPC   NC347365  26.937  32.454   6.849  0.1150 -0.1029  0.1046
 2140DPPC   PO447366  26.654  32.621   6.617  0.1430 -0.2426 -0.0500
 2140DPPC   GL147367  26.725  32.830   6.338  0.1785  0.1061 -0.1335
 2140DPPC   GL247368  26.522  32.881   6.085  0.4995  0.1118 -0.0101
 2140DPPC   C1A47369  26.914  32.607   5.913  0.2630  0.1629  0.1795
 2140DPPC   C2A47370  26.933  32.813   5.427  0.2010 -0.4141  0.0616
 2140DPPC   C3A47371  26.935  33.027   5.056  0.1176 -0.1281 -0.0667
 2140DPPC   C4A47372  27.271  33.072   4.725 -0.0486 -0.2180 -0.2501
 2140DPPC   C1B47373  26.474  32.799   5.589  0.0685 -0.1314 -0.0607
 2140DPPC   C2B47374  26.479  32.694   5.208  0.2845 -0.0943  0.1328
 2140DPPC   C3B47375  26.446  32.719   4.816  0.2887 -0.0242 -0.1197
 2140DPPC   C4B47376  26.576  32.492   4.529 -0.1525  0.1962  0.0461
 2141DPPC   NC347377  27.700  42.445  22.197  0.0118 -0.0524 -0.2522
 2141DPPC   PO447378  27.807  42.061  21.921 -0.1399  0.0105 -0.2063
 2141DPPC   GL147379  27.518  41.569  21.853 -0.0833 -0.0205 -0.1849
 2141DPPC   GL247380  27.763  41.529  21.692  0.0610  0.3399  0.0585
 2141DPPC   C1A47381  27.309  41.185  21.625  0.0494 -0.3099  0.0130
 2141DPPC   C2A47382  27.447  40.762  21.557 -0.1126 -0.0441  0.0072
 2141DPPC   C3A47383  27.574  40.406  21.224  0.0341 -0.1799 -0.2644
 2141DPPC   C4A47384  27.346  40.016  20.952  0.1210 -0.1552 -0.1532
 2141DPPC   C1B47385  27.816  41.110  21.821  0.1332 -0.1974 -0.1442
 2141DPPC   C2B47386  28.000  40.698  21.570 -0.1108 -0.0208  0.1244
 2141DPPC   C3B47387  28.235  40.428  21.618  0.1616 -0.1528  0.1017
 2141DPPC   C4B47388  28.452  40.069  21.791  0.1299  0.1409  0.0623
 2142DPPC   NC347389  27.534  26.664  26.132  0.0274  0.0085  0.2054
 2142DPPC   PO447390  27.433  26.198  26.253 -0.0681  0.0079  0.1309
 2142DPPC   GL147391  27.249  25.988  26.517  0.1759 -0.2309 -0.1909
 2142DPPC   GL247392  27.210  25.641  26.338 -0.1456 -0.1747 -0.2054
 2142DPPC   C1A47393  26.971  25.635  26.734 -0.0519 -0.1288  0.1895
 2142DPPC   C2A47394  26.874  25.394   0.232 -0.0106 -0.2068  0.0550
 2142DPPC   C3A47395  26.704  25.020   0.430 -0.0309 -0.0936 -0.0898
 2142DPPC   C4A47396  26.593  24.733   0.670  0.1436  0.0166  0.3990
 2142DPPC   C1B47397  27.036  25.313  26.225 -0.1650  0.1058  0.1600
 2142DPPC   C2B47398  26.838  24.882  26.297 -0.2280 -0.1203  0.0006
 2142DPPC   C3B47399  26.882  24.523  26.107 -0.2956  0.1968 -0.1245
 2142DPPC   C4B47400  26.959  24.373  25.747 -0.1397  0.0075 -0.1374
 2143DPPC   NC347401  20.021  24.998  12.763 -0.0124 -0.0595 -0.2991
 2143DPPC   PO447402  20.285  25.123  13.093 -0.1472 -0.2901 -0.0227
 2143DPPC   GL147403  20.366  25.484  13.474  0.2076 -0.0479 -0.2081
 2143DPPC   GL247404  20.464  25.206  13.657 -0.3001 -0.2000  0.0765
 2143DPPC   C1A47405  20.569  25.844  13.717 -0.1424 -0.2665  0.0851
 2143DPPC   C2A47406  20.891  26.054  14.085  0.0615 -0.0156  0.0814
 2143DPPC   C3A47407  21.314  25.996  14.149 -0.4217 -0.0644 -0.1769
 2143DPPC   C4A47408  21.586  25.927  14.520 -0.1991  0.3180 -0.1449
 2143DPPC   C1B47409  20.686  25.372  13.938  0.0615  0.0638 -0.1116
 2143DPPC   C2B47410  20.994  25.631  13.922  0.1070 -0.2788 -0.0305
 2143DPPC   C3B47411  21.468  25.513  13.877 -0.3564  0.1153 -0.0794
 2143DPPC   C4B47412  21.742  25.669  14.086  0.0965  0.3052  0.1894
 2144DPPC   NC347413  17.797  35.723  26.338  0.0052 -0.1507  0.2187
 2144DPPC   PO447414  17.775  35.531  26.053  0.1382  0.4073  0.2404
 2144DPPC   GL147415  17.898  35.321  25.770  0.2500 -0.1858 -0.0947
 2144DPPC   GL247416  17.993  34.935  25.817  0.0347 -0.0719  0.0662
 2144DPPC   C1A47417  18.289  35.390  25.691 -0.1210 -0.0306 -0.1219
 2144DPPC   C2A47418  18.587  35.144  25.976 -0.0476  0.0639 -0.0864
 2144DPPC   C3A47419  18.885  34.803  25.852 -0.1886 -0.0658  0.1087
 2144DPPC   C4A47420  19.375  34.626  25.770  0.0425 -0.1548  0.0748
 2144DPPC   C1B47421  18.421  34.728  25.770 -0.0189  0.0079 -0.0823
 2144DPPC   C2B47422  18.718  34.499  25.515 -0.1137  0.2282 -0.1749
 2144DPPC   C3B47423  19.007  34.327  25.187 -0.1034 -0.0338  0.1179
 2144DPPC   C4B47424  19.243  34.066  25.270 -0.2575  0.1067  0.3792
 2145DPPC   NC347425  16.813  21.948  16.142 -0.0986  0.1791  0.4038
 2145DPPC   PO447426  16.862  22.403  15.995  0.3320  0.0429  0.1944
 2145DPPC   GL147427  17.123  22.348  16.337  0.1107  0.2789 -0.1507
 2145DPPC   GL247428  17.084  22.612  16.711  0.0550 -0.0217  0.2442
 2145DPPC   C1A47429  17.437  22.213  16.592  0.1412 -0.0829  0.0766
 2145DPPC   C2A47430  17.919  22.244  16.619 -0.2864  0.0661  0.0292
 2145DPPC   C3A47431  18.256  21.882  16.722 -0.1381 -0.1835 -0.2737
 2145DPPC   C4A47432  18.546  21.608  16.911 -0.0147  0.2254  0.0375
 2145DPPC   C1B47433  17.214  22.682  17.145  0.3735 -0.1620  0.1060
 2145DPPC   C2B47434  17.163  23.013  17.568 -0.1461  0.1933  0.0325
 2145DPPC   C3B47435  17.234  23.130  17.914 -0.0722 -0.1586 -0.1164
 2145DPPC   C4B47436  17.450  23.447  18.138  0.0967  0.2098  0.0535
 2146DPPC   NC347437  24.948  39.427  13.655 -0.1316 -0.0577  0.0543
 2146DPPC   PO447438  25.188  39.590  14.015 -0.0942  0.2724  0.0460
 2146DPPC   GL147439  25.203  39.198  14.200  0.0836  0.1013  0.0961
 2146DPPC   GL247440  25.028  39.097  14.407  0.2353  0.0612  0.0312
 2146DPPC   C1A47441  25.349  38.753  14.482 -0.3607 -0.1922 -0.0358
 2146DPPC   C2A47442  25.242  38.405  14.816  0.1952  0.2476 -0.4511
 2146DPPC   C3A47443  25.067  38.094  15.010 -0.2704  0.0369 -0.1464
 2146DPPC   C4A47444  25.037  37.942  15.410 -0.2001 -0.3133 -0.3905
 2146DPPC   C1B47445  24.895  38.966  14.832  0.3259  0.1583  0.0692
 2146DPPC   C2B47446  24.984  38.709  15.238 -0.1006 -0.0639 -0.2826
 2146DPPC   C3B47447  25.308  38.362  15.420 -0.0140 -0.0316  0.0861
 2146DPPC   C4B47448  25.347  38.114  15.852 -0.0820  0.3649  0.3379
 2147DPPC   NC347449  15.299  20.546  22.098 -0.0239 -0.0562 -0.1413
 2147DPPC   PO447450  15.280  20.564  21.649  0.0641  0.1587 -0.2438
 2147DPPC   GL147451  15.697  20.583  21.468 -0.1949 -0.2832 -0.1621
 2147DPPC   GL247452  15.963  20.311  21.524 -0.0688 -0.4916  0.2247
 2147DPPC   C1A47453  15.942  20.745  21.093 -0.0061  0.0861 -0.1788
 2147DPPC   C2A47454  16.424  20.785  21.012  0.0606 -0.2347 -0.0399
 2147DPPC   C3A47455  16.659  21.229  20.954  0.0752 -0.0099  0.1639
 2147DPPC   C4A47456  16.850  21.547  21.112  0.1475 -0.1438 -0.1638
 2147DPPC   C1B47457  16.323  20.540  21.476 -0.1126  0.0190  0.1865
 2147DPPC   C2B47458  16.783  20.678  21.323  0.2647 -0.2262  0.0687
 2147DPPC   C3B47459  17.154  20.710  21.214  0.1632 -0.2656  0.0396
 2147DPPC   C4B47460  17.464  20.884  20.951  0.2216  0.2065 -0.0343
 2148DPPC   NC347461  22.820  29.477  24.967 -0.0964 -0.0731 -0.0233
 2148DPPC   PO447462  22.470  29.181  25.120  0.2690 -0.0644 -0.0730
 2148DPPC   GL147463  22.647  28.881  25.536 -0.0296  0.0710 -0.0244
 2148DPPC   GL247464  22.558  28.617  25.324  0.0284 -0.0428  0.0966
 2148DPPC   C1A47465  22.639  28.562  25.819  0.1045  0.2618  0.1126
 2148DPPC   C2A47466  22.513  28.362  26.289  0.0604 -0.0904 -0.3000
 2148DPPC   C3A47467  22.331  27.964  26.386  0.3161  0.0090  0.1278
 2148DPPC   C4A47468  21.970  27.667  26.314 -0.3070 -0.0483 -0.0841
 2148DPPC   C1B47469  22.450  28.203  25.275 -0.2150  0.2405 -0.1474
 2148DPPC   C2B47470  22.644  27.752  25.308  0.2088  0.1048 -0.1219
 2148DPPC   C3B47471  22.481  27.303  25.281  0.3047  0.0879  0.2247
 2148DPPC   C4B47472  22.399  26.839  25.338 -0.1714  0.1391 -0.1964
 2149DPPC   NC347473  27.288  42.241  20.920  0.0010 -0.1591 -0.0775
 2149DPPC   PO447474  26.781  42.145  20.887 -0.0453  0.1283  0.1446
 2149DPPC   GL147475  26.900  41.675  20.878 -0.1948 -0.2058 -0.0029
 2149DPPC   GL247476  27.198  41.609  20.651  0.0241 -0.1808  0.1602
 2149DPPC   C1A47477  26.909  41.203  20.798 -0.1859  0.1544  0.1757
 2149DPPC   C2A47478  26.940  40.708  20.910  0.2829  0.1561  0.0360
 2149DPPC   C3A47479  26.875  40.229  20.886  0.1153 -0.0594  0.1163
 2149DPPC   C4A47480  26.935  39.854  20.818 -0.1342  0.1500  0.0372
 2149DPPC   C1B47481  27.402  41.297  20.669 -0.1009 -0.0197 -0.1606
 2149DPPC   C2B47482  27.585  41.009  20.320  0.1730 -0.0576 -0.2028
 2149DPPC   C3B47483  27.968  40.953  20.082 -0.0631 -0.2648  0.0715
 2149DPPC   C4B47484  28.340  41.038  19.802  0.1810  0.1989 -0.0684
 2150DPPC   NC347485  29.014  23.936   7.325 -0.0128  0.0102  0.2921
 2150DPPC   PO447486  28.808  24.050   7.031 -0.1592  0.0974  0.0057
 2150DPPC   GL147487  28.551  24.043   6.809 -0.3909  0.1489 -0.2527
 2150DPPC   GL247488  28.553  24.159   6.525  0.3043 -0.2999  0.1035
 2150DPPC   C1A47489  28.089  24.009   6.751 -0.2077 -0.0449  0.1514
 2150DPPC   C2A47490  27.637  24.189   6.536 -0.0674 -0.0023  0.2456
 2150DPPC   C3A47491  27.495  24.308   6.220 -0.4237 -0.0873 -0.2949
 2150DPPC   C4A47492  27.358  24.682   5.932  0.2442 -0.1148 -0.0010
 2150DPPC   C1B47493  28.611  24.510   6.457  0.2955 -0.1104 -0.0928
 2150DPPC   C2B47494  28.196  24.461   6.300 -0.0209  0.1095  0.2816
 2150DPPC   C3B47495  27.892  24.639   6.430  0.0001  0.0257 -0.0519
 2150DPPC   C4B47496  27.458  24.750   6.522 -0.1849  0.2103 -0.3826
 2151DPPC   NC347497  13.541  28.429   1.806  0.4251  0.0331 -0.1465
 2151DPPC   PO447498  14.011  28.271   1.923  0.3084 -0.0247 -0.1825
 2151DPPC   GL147499  14.373  28.226   1.965  0.0084 -0.0211 -0.1919
 2151DPPC   GL247500  14.526  28.523   1.775 -0.1407  0.0734  0.1053
 2151DPPC   C1A47501  14.738  28.062   1.690  0.2837  0.1280  0.2146
 2151DPPC   C2A47502  15.002  27.833   1.604  0.4838 -0.2526  0.0008
 2151DPPC   C3A47503  15.405  27.920   1.475  0.0679 -0.0107  0.0263
 2151DPPC   C4A47504  15.644  27.643   1.311 -0.0857  0.0249  0.4663
 2151DPPC   C1B47505  14.820  28.896   1.751  0.0286 -0.0645 -0.2900
 2151DPPC   C2B47506  15.122  29.182   1.518 -0.1124  0.3594 -0.0141
 2151DPPC   C3B47507  15.382  29.484   1.456  0.0649 -0.4633  0.0588
 2151DPPC   C4B47508  15.671  29.797   1.424  0.1940  0.1070 -0.2470
 2152DPPC   NC347509  37.419  24.497   0.814  0.0162  0.1969  0.1896
 2152DPPC   PO447510  36.965  24.490   0.737  0.3828 -0.1085 -0.2248
 2152DPPC   GL147511  36.789  24.529   0.370  0.1120 -0.1306 -0.1678
 2152DPPC   GL247512  36.590  24.760   0.413  0.1384  0.5456  0.1907
 2152DPPC   C1A47513  36.830  24.836   0.009 -0.3973 -0.2862 -0.0112
 2152DPPC   C2A47514  36.879  25.217  26.595  0.2196  0.2184  0.1821
 2152DPPC   C3A47515  37.288  25.410  26.435  0.0643  0.0761  0.3500
 2152DPPC   C4A47516  37.725  25.570  26.558  0.0554  0.4126 -0.1296
 2152DPPC   C1B47517  36.187  24.941   0.438  0.0422  0.1090 -0.5643
 2152DPPC   C2B47518  35.819  25.055   0.392  0.0586  0.0294  0.1822
 2152DPPC   C3B47519  35.468  24.797   0.211 -0.0288 -0.1942  0.0785
 2152DPPC   C4B47520  35.370  24.661  26.751 -0.0849 -0.0275 -0.2420
 2153DPPC   NC347521  28.146  26.996   1.780  0.1512  0.0572 -0.0597
 2153DPPC   PO447522  28.409  26.895   2.233 -0.1293  0.3169  0.0833
 2153DPPC   GL147523  28.531  26.410   2.294 -0.2130  0.0661  0.2584
 2153DPPC   GL247524  28.664  26.368   2.565  0.1084 -0.1863 -0.0399
 2153DPPC   C1A47525  28.470  26.010   2.300 -0.0769  0.0224  0.0530
 2153DPPC   C2A47526  28.796  25.724   2.517 -0.0400  0.0286  0.1946
 2153DPPC   C3A47527  28.900  25.336   2.734  0.0446  0.0943 -0.1135
 2153DPPC   C4A47528  28.931  25.103   3.142  0.1747 -0.1416  0.0657
 2153DPPC   C1B47529  28.208  26.378   2.795  0.0668 -0.0791 -0.3933
 2153DPPC   C2B47530  27.961  26.271   2.398 -0.1550  0.4974 -0.1715
 2153DPPC   C3B47531  28.019  25.918   2.097 -0.1809 -0.1486  0.0447
 2153DPPC   C4B47532  28.043  25.526   1.924 -0.1011  0.2050 -0.2922
 2154DPPC   NC347533  14.620  27.599  18.428  0.0040 -0.2290 -0.1044
 2154DPPC   PO447534  14.919  27.793  18.248  0.0791 -0.2156  0.1128
 2154DPPC   GL147535  15.076  27.614  18.672 -0.0137  0.1539 -0.0147
 2154DPPC   GL247536  14.850  27.556  18.924  0.1140 -0.0998 -0.3758
 2154DPPC   C1A47537  15.380  27.681  18.908 -0.0038  0.3070  0.3598
 2154DPPC   C2A47538  15.728  27.830  18.720 -0.0239  0.0992  0.3838
 2154DPPC   C3A47539  16.151  27.829  19.005  0.1221 -0.2706  0.1380
 2154DPPC   C4A47540  16.467  27.789  19.203 -0.0531 -0.0226  0.0181
 2154DPPC   C1B47541  15.110  27.743  19.351  0.0441  0.2027 -0.0452
 2154DPPC   C2B47542  14.974  28.092  19.577 -0.3093 -0.0516 -0.0103
 2154DPPC   C3B47543  15.125  28.403  19.872 -0.1351  0.0904 -0.0185
 2154DPPC   C4B47544  15.324  28.588  20.148  0.0679  0.2081 -0.1038
 2155DPPC   NC347545  37.498  23.432  18.367  0.2226  0.2569 -0.5481
 2155DPPC   PO447546  37.230  23.260  18.024  0.2893  0.0030  0.0407
 2155DPPC   GL147547  36.997  23.594  17.690 -0.2157 -0.2528  0.1290
 2155DPPC   GL247548  36.706  23.420  17.821 -0.0543  0.0334 -0.1836
 2155DPPC   C1A47549  36.631  23.952  17.821 -0.1411  0.2099  0.0794
 2155DPPC   C2A47550  36.373  24.328  17.917 -0.3862  0.1581  0.0600
 2155DPPC   C3A47551  36.155  24.637  18.068  0.4217 -0.0651  0.0346
 2155DPPC   C4A47552  36.149  25.041  18.225  0.2878 -0.1506  0.0534
 2155DPPC   C1B47553  36.326  23.279  17.895 -0.0465  0.0292 -0.0246
 2155DPPC   C2B47554  35.847  23.403  18.115 -0.3977  0.0595 -0.0581
 2155DPPC   C3B47555  35.632  23.234  18.468 -0.1291 -0.0216 -0.1333
 2155DPPC   C4B47556  35.368  23.259  18.737  0.3010 -0.0082  0.2510
 2156DPPC   NC347557  25.650  26.144   9.670  0.1410 -0.3726 -0.1560
 2156DPPC   PO447558  25.907  26.433   9.869 -0.1208  0.1758  0.1801
 2156DPPC   GL147559  25.879  26.404  10.277 -0.2740  0.0403  0.1783
 2156DPPC   GL247560  25.870  26.187  10.535 -0.3789  0.0178  0.0276
 2156DPPC   C1A47561  25.751  26.779  10.663 -0.2519 -0.4468  0.0404
 2156DPPC   C2A47562  25.825  26.969  11.082  0.4184  0.0489 -0.0374
 2156DPPC   C3A47563  25.726  27.400  11.267  0.0106 -0.1116  0.0246
 2156DPPC   C4A47564  25.517  27.442  11.651 -0.2184 -0.0509  0.0524
 2156DPPC   C1B47565  26.050  26.425  10.905  0.0946  0.2279  0.5211
 2156DPPC   C2B47566  26.210  26.640  11.221 -0.2721  0.0324  0.1928
 2156DPPC   C3B47567  26.538  26.896  11.432 -0.0390 -0.2077 -0.1907
 2156DPPC   C4B47568  26.322  26.984  11.818  0.2820  0.1817  0.1738
 2157DPPC   NC347569  20.242  19.038  16.480  0.2911  0.3763 -0.0058
 2157DPPC   PO447570  19.850  19.081  16.400 -0.1196  0.1766  0.3639
 2157DPPC   GL147571  19.869  19.311  16.758  0.3255  0.0281 -0.1618
 2157DPPC   GL247572  20.055  19.593  16.797  0.3400 -0.1719 -0.2517
 2157DPPC   C1A47573  19.640  19.292  17.161  0.1129 -0.0343  0.1488
 2157DPPC   C2A47574  19.658  18.967  17.551  0.0644 -0.1809 -0.0328
 2157DPPC   C3A47575  19.910  18.933  17.841 -0.0065 -0.2576  0.0595
 2157DPPC   C4A47576  20.286  18.754  17.888 -0.0646 -0.1484 -0.0222
 2157DPPC   C1B47577  20.262  19.735  17.236  0.0748  0.0591 -0.0354
 2157DPPC   C2B47578  20.625  19.886  17.351 -0.2995  0.0392  0.1882
 2157DPPC   C3B47579  21.067  19.771  17.392  0.0606 -0.3484  0.1634
 2157DPPC   C4B47580  21.338  20.013  17.293 -0.0124  0.1021 -0.1089
 2158DPPC   NC347581  17.295  21.151  15.983  0.1904  0.3598 -0.2202
 2158DPPC   PO447582  17.680  21.492  16.083 -0.0204  0.1949  0.1157
 2158DPPC   GL147583  17.847  21.867  16.352  0.0438 -0.1648  0.1696
 2158DPPC   GL247584  17.603  21.734  16.535 -0.0225  0.0484  0.0412
 2158DPPC   C1A47585  18.194  22.160  16.272 -0.2657  0.3918  0.2127
 2158DPPC   C2A47586  18.617  22.403  16.287 -0.0287 -0.1112 -0.0167
 2158DPPC   C3A47587  18.918  22.607  15.982 -0.5711  0.1020  0.0522
 2158DPPC   C4A47588  19.429  22.470  15.960 -0.0615 -0.2950  0.0591
 2158DPPC   C1B47589  17.751  21.902  16.967 -0.1043  0.2670 -0.2079
 2158DPPC   C2B47590  18.108  22.176  17.176  0.0563  0.2421 -0.1330
 2158DPPC   C3B47591  18.431  22.432  17.220 -0.0626  0.1273 -0.1318
 2158DPPC   C4B47592  18.645  22.759  17.184  0.0957 -0.0795  0.1345
 2159DPPC   NC347593  22.622  28.526  24.020 -0.3343  0.0841  0.1391
 2159DPPC   PO447594  22.809  28.602  24.404 -0.0622  0.0534  0.0068
 2159DPPC   GL147595  22.690  28.197  24.482  0.0034 -0.2375  0.1516
 2159DPPC   GL247596  22.644  27.964  24.248  0.0340  0.1088  0.0465
 2159DPPC   C1A47597  22.612  27.942  24.851  0.4783 -0.1640  0.0925
 2159DPPC   C2A47598  22.258  27.795  25.058  0.1355 -0.0469 -0.0082
 2159DPPC   C3A47599  21.815  27.666  25.025  0.1299  0.2015  0.0357
 2159DPPC   C4A47600  21.628  27.341  25.137 -0.0429  0.1986 -0.0474
 2159DPPC   C1B47601  22.343  27.807  24.424  0.1715  0.0625  0.0234
 2159DPPC   C2B47602  22.029  27.477  24.510  0.0800 -0.0007  0.2360
 2159DPPC   C3B47603  21.744  27.268  24.686 -0.0075 -0.0413  0.0607
 2159DPPC   C4B47604  21.688  26.864  24.547  0.0825 -0.0196  0.1640
 2160DPPC   NC347605  15.827  31.939  19.401  0.1533  0.0237 -0.5257
 2160DPPC   PO447606  15.860  32.371  19.327 -0.2278 -0.2353  0.2117
 2160DPPC   GL147607  16.246  32.119  19.248  0.0190 -0.1680 -0.2389
 2160DPPC   GL247608  16.316  31.815  19.357 -0.0659  0.0730  0.1498
 2160DPPC   C1A47609  16.670  32.019  19.052 -0.1162  0.0332 -0.4208
 2160DPPC   C2A47610  17.041  32.210  18.966 -0.0641  0.0586  0.1879
 2160DPPC   C3A47611  17.500  32.249  19.004  0.2309  0.0570  0.0579
 2160DPPC   C4A47612  17.806  32.355  19.246 -0.1368 -0.0177 -0.2429
 2160DPPC   C1B47613  16.587  31.976  19.738  0.0583  0.1132  0.2212
 2160DPPC   C2B47614  16.719  32.307  20.053 -0.1891 -0.2976 -0.2010
 2160DPPC   C3B47615  16.989  32.600  19.811  0.0571 -0.3250 -0.0783
 2160DPPC   C4B47616  17.245  32.946  19.657 -0.3036 -0.2240 -0.1565
 2161DPPC   NC347617  22.229  30.358  26.523  0.0360  0.0793  0.5304
 2161DPPC   PO447618  21.894  30.687  26.524  0.1670 -0.3428  0.0334
 2161DPPC   GL147619  21.808  30.309  26.232 -0.0314 -0.0731 -0.2389
 2161DPPC   GL247620  21.518  30.388  26.268  0.1487 -0.2062  0.1234
 2161DPPC   C1A47621  21.588  30.071  25.937  0.3063 -0.2873  0.0461
 2161DPPC   C2A47622  21.548  29.637  25.949  0.3080 -0.0735 -0.1293
 2161DPPC   C3A47623  21.446  29.323  25.977  0.2039 -0.2649  0.1496
 2161DPPC   C4A47624  21.253  29.002  25.878  0.2408 -0.0367 -0.0783
 2161DPPC   C1B47625  21.390  29.930  26.429 -0.0491 -0.3353 -0.0098
 2161DPPC   C2B47626  21.298  29.971  26.804 -0.1537 -0.0989 -0.2931
 2161DPPC   C3B47627  21.375  29.795   0.309  0.5709 -0.0155 -0.0298
 2161DPPC   C4B47628  21.545  29.715   0.743 -0.0240  0.0557 -0.2561
 2162DPPC   NC347629  20.492  39.648  20.831 -0.0583  0.0736  0.0315
 2162DPPC   PO447630  20.471  39.317  21.071  0.1157  0.2860  0.0081
 2162DPPC   GL147631  20.576  38.949  21.001  0.1631 -0.0833  0.1540
 2162DPPC   GL247632  20.325  38.785  21.352  0.0947  0.2677  0.1510
 2162DPPC   C1A47633  20.847  38.563  20.904  0.1073  0.3017  0.1048
 2162DPPC   C2A47634  20.962  38.201  20.765 -0.3643 -0.4646  0.1677
 2162DPPC   C3A47635  21.104  37.696  20.645  0.0097 -0.0471 -0.1187
 2162DPPC   C4A47636  21.231  37.300  20.392 -0.0927 -0.1956 -0.0529
 2162DPPC   C1B47637  20.693  38.602  21.365  0.1907 -0.0179 -0.0143
 2162DPPC   C2B47638  20.942  38.816  21.752  0.1066 -0.2481 -0.3261
 2162DPPC   C3B47639  21.100  38.734  22.034 -0.0710  0.1293 -0.1840
 2162DPPC   C4B47640  21.053  38.366  22.410  0.2466  0.0630  0.1720
 2163DPPC   NC347641  37.870  27.579   2.091  0.1104 -0.2730 -0.2234
 2163DPPC   PO447642  37.560  27.730   1.720  0.0417  0.0456 -0.0563
 2163DPPC   GL147643  37.302  27.964   1.491  0.0984  0.0899 -0.0891
 2163DPPC   GL247644  37.033  28.189   1.548  0.0027 -0.0091  0.1045
 2163DPPC   C1A47645  37.065  27.890   1.072 -0.0321  0.1802 -0.3622
 2163DPPC   C2A47646  37.077  28.168   0.633  0.1835  0.1781 -0.0543
 2163DPPC   C3A47647  36.861  28.303   0.268  0.0482  0.2237  0.1418
 2163DPPC   C4A47648  36.488  28.097   0.110  0.0441 -0.3103 -0.1110
 2163DPPC   C1B47649  36.712  27.945   1.413 -0.0088 -0.0555  0.0127
 2163DPPC   C2B47650  36.443  27.832   1.054 -0.1514  0.0932  0.2570
 2163DPPC   C3B47651  36.293  28.081   0.694 -0.1254 -0.2553 -0.0666
 2163DPPC   C4B47652  36.083  28.056   0.361 -0.0687 -0.3984  0.1372
 2164DPPC   NC347653  14.988  30.007   2.341 -0.2879  0.2809  0.0996
 2164DPPC   PO447654  14.900  29.564   2.161 -0.1585 -0.1987 -0.0095
 2164DPPC   GL147655  15.304  29.657   2.042  0.1109 -0.1285  0.0310
 2164DPPC   GL247656  15.435  29.798   2.268 -0.2186 -0.0197  0.3743
 2164DPPC   C1A47657  15.559  29.400   2.002  0.1954  0.1972  0.0369
 2164DPPC   C2A47658  15.877  29.260   1.675 -0.0089 -0.0173  0.2165
 2164DPPC   C3A47659  15.953  28.705   1.598 -0.0146 -0.0110  0.0222
 2164DPPC   C4A47660  15.652  28.444   1.546  0.2023  0.3512 -0.1669
 2164DPPC   C1B47661  15.811  29.722   2.395 -0.0457  0.0142 -0.0606
 2164DPPC   C2B47662  16.279  29.596   2.256  0.1629 -0.0989  0.1106
 2164DPPC   C3B47663  16.248  29.190   2.029 -0.2066  0.1407  0.1248
 2164DPPC   C4B47664  16.287  28.762   2.059  0.2235  0.1739  0.1429
 2165DPPC   NC347665  31.043  18.982  16.240  0.0074 -0.2657 -0.0374
 2165DPPC   PO447666  30.578  18.980  16.379  0.0236  0.2147  0.2212
 2165DPPC   GL147667  30.537  19.419  16.430 -0.0038  0.2723  0.0651
 2165DPPC   GL247668  30.570  19.638  16.140 -0.3786  0.1111 -0.0624
 2165DPPC   C1A47669  30.294  19.701  16.639 -0.2149 -0.1372  0.5169
 2165DPPC   C2A47670  30.190  20.058  16.647  0.0948 -0.1120 -0.1848
 2165DPPC   C3A47671  29.972  20.394  16.918 -0.2346  0.0011 -0.0335
 2165DPPC   C4A47672  29.728  20.588  17.159  0.0874 -0.0345 -0.1909
 2165DPPC   C1B47673  30.801  19.925  16.358  0.0107  0.1834 -0.0800
 2165DPPC   C2B47674  30.763  20.179  16.742  0.1083  0.0318 -0.1195
 2165DPPC   C3B47675  30.490  20.384  16.938 -0.2131 -0.1044  0.1596
 2165DPPC   C4B47676  30.239  20.766  17.056  0.1037  0.1423 -0.0223
 2166DPPC   NC347677  18.456  18.157  24.300 -0.0844 -0.2511 -0.2369
 2166DPPC   PO447678  18.357  18.315  24.724 -0.2981  0.1498  0.0552
 2166DPPC   GL147679  18.822  18.467  24.508 -0.3734  0.2855 -0.0000
 2166DPPC   GL247680  18.680  18.691  24.658 -0.0177 -0.1841  0.1345
 2166DPPC   C1A47681  19.172  18.466  24.240 -0.1528  0.1853  0.2631
 2166DPPC   C2A47682  19.623  18.466  24.059  0.2563 -0.0633 -0.3083
 2166DPPC   C3A47683  19.915  18.393  23.784 -0.0754  0.0936  0.0548
 2166DPPC   C4A47684  20.044  18.144  23.507  0.0326  0.2369 -0.0199
 2166DPPC   C1B47685  19.102  18.889  24.541  0.2117  0.3110 -0.0580
 2166DPPC   C2B47686  19.336  18.935  24.219  0.3762  0.2984 -0.0471
 2166DPPC   C3B47687  19.724  19.230  24.137  0.1650  0.3780 -0.1848
 2166DPPC   C4B47688  19.916  19.502  23.828  0.2247  0.1229 -0.0491
 2167DPPC   NC347689  13.413  24.269  19.878 -0.2770  0.1856  0.1216
 2167DPPC   PO447690  13.512  24.767  19.952  0.0494  0.4411 -0.0688
 2167DPPC   GL147691  13.913  24.764  20.090  0.2214  0.2571  0.2001
 2167DPPC   GL247692  14.134  25.000  19.955  0.0601  0.1416 -0.1344
 2167DPPC   C1A47693  14.068  24.731  20.488  0.1111  0.0249  0.2298
 2167DPPC   C2A47694  14.304  24.787  20.814  0.0276  0.1167 -0.2569
 2167DPPC   C3A47695  14.450  24.747  21.308 -0.4322  0.0032 -0.0327
 2167DPPC   C4A47696  14.888  24.655  21.422  0.0163 -0.0481 -0.1836
 2167DPPC   C1B47697  14.368  25.186  20.270 -0.0559 -0.2140  0.1131
 2167DPPC   C2B47698  14.293  25.253  20.722 -0.1261  0.0212 -0.4140
 2167DPPC   C3B47699  14.511  25.148  21.081 -0.1630 -0.2387 -0.1403
 2167DPPC   C4B47700  14.779  25.107  21.506 -0.1755 -0.0978 -0.1845
 2168DPPC   NC347701  30.193  35.217   5.808  0.2198  0.2238 -0.0773
 2168DPPC   PO447702  30.345  34.815   5.687  0.6087  0.1727  0.0735
 2168DPPC   GL147703  30.322  34.856   5.263 -0.1583  0.0174  0.0120
 2168DPPC   GL247704  30.670  34.943   5.243  0.2040 -0.1372  0.5042
 2168DPPC   C1A47705  30.397  34.945   4.829  0.1351  0.1325 -0.1006
 2168DPPC   C2A47706  30.340  35.262   4.436  0.1981 -0.1413  0.1317
 2168DPPC   C3A47707  30.292  35.465   4.056  0.0237  0.0832  0.1656
 2168DPPC   C4A47708  30.382  35.807   3.721  0.2039  0.0490  0.1481
 2168DPPC   C1B47709  30.655  34.432   5.143  0.0664 -0.2568  0.1519
 2168DPPC   C2B47710  30.254  34.219   5.029 -0.0523  0.0751  0.6594
 2168DPPC   C3B47711  29.897  34.003   4.780 -0.0704 -0.1169 -0.4998
 2168DPPC   C4B47712  29.739  33.586   4.648 -0.1525  0.1028  0.0869
 2169DPPC   NC347713  26.553  41.870  22.012  0.0645 -0.1290  0.0336
 2169DPPC   PO447714  26.598  41.937  21.630 -0.1481 -0.0551 -0.0906
 2169DPPC   GL147715  26.534  41.530  21.591  0.0322  0.1641  0.2159
 2169DPPC   GL247716  26.596  41.400  21.780 -0.0855  0.1700 -0.2667
 2169DPPC   C1A47717  26.713  41.351  21.297  0.0731  0.0873 -0.1013
 2169DPPC   C2A47718  26.906  41.061  21.348  0.2250 -0.1864  0.1185
 2169DPPC   C3A47719  27.346  40.989  21.134  0.0189  0.0163 -0.0264
 2169DPPC   C4A47720  27.681  40.854  20.907 -0.2496 -0.3656 -0.0830
 2169DPPC   C1B47721  26.387  41.078  21.981  0.2943  0.3130  0.1364
 2169DPPC   C2B47722  26.649  40.819  22.171  0.1172  0.1652  0.0817
 2169DPPC   C3B47723  26.584  40.427  22.360 -0.1990  0.1232 -0.2823
 2169DPPC   C4B47724  26.630  40.080  21.999  0.0127 -0.0869  0.2723
 2170DPPC   NC347725  32.452  19.895  16.010 -0.3430  0.0711  0.0915
 2170DPPC   PO447726  32.330  19.745  16.377  0.2052 -0.1856 -0.0204
 2170DPPC   GL147727  32.195  20.165  16.288 -0.0580 -0.0569  0.1212
 2170DPPC   GL247728  32.515  20.355  16.237 -0.0945  0.1415  0.3226
 2170DPPC   C1A47729  32.115  20.484  16.555 -0.2910  0.0817 -0.2102
 2170DPPC   C2A47730  31.779  20.675  16.793 -0.1327 -0.2458 -0.1013
 2170DPPC   C3A47731  31.659  21.074  16.740 -0.1756  0.2510 -0.0488
 2170DPPC   C4A47732  31.459  21.452  16.799  0.0432 -0.0994  0.3463
 2170DPPC   C1B47733  32.884  20.583  16.219 -0.2848 -0.3465 -0.1807
 2170DPPC   C2B47734  32.648  20.946  16.043 -0.0504 -0.2982  0.0932
 2170DPPC   C3B47735  32.657  21.344  16.292  0.2261  0.1153  0.3020
 2170DPPC   C4B47736  32.587  21.660  16.598  0.0071 -0.1565 -0.3343
 2171DPPC   NC347737  21.376  33.597   5.468  0.1792 -0.1637  0.3319
 2171DPPC   PO447738  21.750  33.405   5.414  0.3251 -0.2155  0.3462
 2171DPPC   GL147739  21.871  33.239   5.076  0.3105  0.2555 -0.0231
 2171DPPC   GL247740  22.178  33.252   5.124  0.0305  0.0571 -0.2918
 2171DPPC   C1A47741  22.126  33.165   4.614  0.0569 -0.0460  0.2127
 2171DPPC   C2A47742  22.315  33.077   4.197 -0.1397 -0.2050  0.3845
 2171DPPC   C3A47743  22.785  33.032   4.107 -0.1509 -0.2578  0.3759
 2171DPPC   C4A47744  22.759  32.632   4.020 -0.2054 -0.0051  0.0939
 2171DPPC   C1B47745  22.185  32.782   5.016 -0.0370 -0.0805 -0.0404
 2171DPPC   C2B47746  22.299  32.404   4.811 -0.1632 -0.0296 -0.2853
 2171DPPC   C3B47747  21.940  32.069   4.730 -0.1005  0.3088 -0.1483
 2171DPPC   C4B47748  21.822  32.012   4.332 -0.2741  0.0344 -0.0171
 2172DPPC   NC347749  22.725  37.597   3.437  0.1694 -0.2374 -0.0586
 2172DPPC   PO447750  22.417  37.682   3.153 -0.1358  0.2077 -0.0471
 2172DPPC   GL147751  22.582  37.545   2.767  0.1122 -0.0169 -0.0707
 2172DPPC   GL247752  22.713  37.806   2.527 -0.2052 -0.0667 -0.0397
 2172DPPC   C1A47753  22.553  37.250   2.443 -0.3742 -0.3285 -0.0088
 2172DPPC   C2A47754  22.603  36.930   2.166  0.0578 -0.0403  0.1766
 2172DPPC   C3A47755  22.503  36.925   1.794  0.2891  0.1425 -0.3760
 2172DPPC   C4A47756  22.625  36.757   1.372 -0.1642 -0.0667  0.3136
 2172DPPC   C1B47757  22.999  37.575   2.250  0.2662 -0.0006 -0.0058
 2172DPPC   C2B47758  23.078  37.231   2.101 -0.4445 -0.1354  0.0568
 2172DPPC   C3B47759  23.022  36.831   1.931  0.5425 -0.2647  0.0624
 2172DPPC   C4B47760  23.042  36.453   1.696 -0.1189 -0.0250 -0.0917
 2173DPPC   NC347761  18.377  19.362  17.475  0.0320  0.0945 -0.0494
 2173DPPC   PO447762  18.759  19.218  17.191 -0.1863 -0.1935  0.3491
 2173DPPC   GL147763  18.974  19.017  17.517 -0.3006 -0.5182  0.2983
 2173DPPC   GL247764  18.761  18.999  17.889 -0.1958 -0.1116 -0.0731
 2173DPPC   C1A47765  19.305  19.259  17.689  0.0822 -0.1246 -0.0612
 2173DPPC   C2A47766  19.315  19.648  17.536 -0.0967 -0.0177  0.0276
 2173DPPC   C3A47767  19.602  20.010  17.423  0.1229  0.0882  0.2528
 2173DPPC   C4A47768  19.856  20.045  17.191 -0.0160  0.0813  0.3353
 2173DPPC   C1B47769  18.850  19.434  17.983 -0.2620 -0.1871  0.3395
 2173DPPC   C2B47770  18.694  19.887  18.054  0.1988 -0.0884 -0.1178
 2173DPPC   C3B47771  18.751  20.323  17.916  0.0408 -0.0293 -0.0423
 2173DPPC   C4B47772  18.558  20.688  17.615  0.0578  0.1223 -0.2499
 2174DPPC   NC347773  13.800  25.407  18.246  0.2022 -0.1890 -0.6089
 2174DPPC   PO447774  14.189  25.497  18.304  0.3141  0.0042  0.0061
 2174DPPC   GL147775  14.460  25.619  18.583 -0.2667 -0.0441 -0.1765
 2174DPPC   GL247776  14.631  25.892  18.428  0.0902 -0.0050  0.1449
 2174DPPC   C1A47777  14.712  25.803  18.949  0.1248  0.3005  0.0041
 2174DPPC   C2A47778  14.929  25.591  19.345 -0.3138  0.0683  0.3480
 2174DPPC   C3A47779  14.947  25.127  19.400 -0.1324  0.1028  0.3198
 2174DPPC   C4A47780  15.087  24.633  19.378  0.2862 -0.1543 -0.1478
 2174DPPC   C1B47781  15.016  26.111  18.458  0.2534 -0.0254  0.3888
 2174DPPC   C2B47782  15.252  26.499  18.400  0.1539  0.0122 -0.1475
 2174DPPC   C3B47783  15.263  26.895  18.500 -0.0529  0.0809 -0.3099
 2174DPPC   C4B47784  15.273  27.196  18.857 -0.0030  0.1261  0.0195
 2175DPPC   NC347785  27.175  16.621  21.534 -0.1047  0.0814 -0.0115
 2175DPPC   PO447786  27.421  16.536  21.827  0.0080 -0.0950  0.3000
 2175DPPC   GL147787  27.146  16.979  21.941 -0.0209  0.0956 -0.0917
 2175DPPC   GL247788  26.744  16.985  22.026 -0.1756 -0.0382 -0.0975
 2175DPPC   C1A47789  27.042  17.336  22.208 -0.0982 -0.2222 -0.0933
 2175DPPC   C2A47790  26.844  17.702  22.175  0.0159 -0.2793  0.4700
 2175DPPC   C3A47791  26.938  18.069  22.095 -0.3270 -0.0279  0.0196
 2175DPPC   C4A47792  27.175  18.476  21.963  0.1527  0.2465 -0.0260
 2175DPPC   C1B47793  26.409  17.208  21.951  0.1902  0.0108 -0.1559
 2175DPPC   C2B47794  26.061  17.254  21.850 -0.3577  0.1771  0.0249
 2175DPPC   C3B47795  25.834  17.500  21.486  0.0523 -0.1139 -0.2415
 2175DPPC   C4B47796  26.009  17.948  21.417 -0.1529 -0.0638  0.2291
 2176DPPC   NC347797  14.636  31.207  23.044  0.2500 -0.0309  0.1380
 2176DPPC   PO447798  14.625  30.812  22.830 -0.4732  0.1046 -0.1573
 2176DPPC   GL147799  15.038  30.668  22.891 -0.1687  0.1886  0.0558
 2176DPPC   GL247800  15.284  30.910  23.138  0.1684 -0.1855  0.1644
 2176DPPC   C1A47801  15.380  30.497  22.934  0.0395 -0.2003 -0.1643
 2176DPPC   C2A47802  15.790  30.448  22.929  0.1097  0.0696 -0.4019
 2176DPPC   C3A47803  15.924  30.213  22.562 -0.1957 -0.2830  0.0427
 2176DPPC   C4A47804  15.658  30.121  22.153  0.0157  0.0443 -0.0700
 2176DPPC   C1B47805  15.519  30.631  23.400 -0.2903  0.3307  0.0267
 2176DPPC   C2B47806  15.527  30.153  23.348  0.0692 -0.0764  0.3208
 2176DPPC   C3B47807  15.514  29.675  23.273 -0.0009  0.0808 -0.4184
 2176DPPC   C4B47808  15.518  29.237  23.513 -0.3365 -0.0831  0.0050
 2177DPPC   NC347809  15.784  31.547   1.987  0.2324 -0.0791 -0.3098
 2177DPPC   PO447810  15.860  31.490   1.480  0.0467 -0.0074  0.4493
 2177DPPC   GL147811  15.790  31.353   1.100  0.0203  0.3369 -0.0756
 2177DPPC   GL247812  15.646  31.681   0.907 -0.0188  0.3487  0.0633
 2177DPPC   C1A47813  15.734  30.927   0.814  0.2603 -0.1859  0.0890
 2177DPPC   C2A47814  15.657  30.535   0.730 -0.2573 -0.0281 -0.0020
 2177DPPC   C3A47815  15.559  30.125   0.853  0.1041 -0.3078 -0.0919
 2177DPPC   C4A47816  15.777  29.781   0.876  0.1158  0.0183 -0.2780
 2177DPPC   C1B47817  15.958  31.537   0.684 -0.5225  0.0480 -0.2003
 2177DPPC   C2B47818  16.206  31.200   0.816 -0.3099  0.2257  0.0466
 2177DPPC   C3B47819  16.561  30.878   0.990  0.3406 -0.0029  0.1071
 2177DPPC   C4B47820  17.049  30.736   0.990  0.1622  0.0439  0.2317
 2178DPPC   NC347821  39.703  30.138  17.850  0.0070 -0.1905 -0.3048
 2178DPPC   PO447822  39.651  29.971  18.283  0.0507 -0.2426  0.0869
 2178DPPC   GL147823  39.318  29.853  18.440 -0.2425  0.0668  0.2186
 2178DPPC   GL247824  39.328  29.636  18.708 -0.2592  0.1875 -0.1368
 2178DPPC   C1A47825  38.959  29.888  18.377 -0.1384  0.3298  0.1442
 2178DPPC   C2A47826  38.539  29.804  18.135  0.2424 -0.3999 -0.2644
 2178DPPC   C3A47827  38.184  29.713  18.012 -0.2950  0.2755  0.0281
 2178DPPC   C4A47828  37.723  29.905  17.972 -0.0209 -0.1507  0.3914
 2178DPPC   C1B47829  39.194  29.645  19.070 -0.1954  0.0258  0.1632
 2178DPPC   C2B47830  39.023  29.336  19.248 -0.0360  0.0395  0.0218
 2178DPPC   C3B47831  38.647  29.196  19.200  0.3450  0.2433  0.1455
 2178DPPC   C4B47832  38.510  29.059  18.770 -0.3332 -0.1168 -0.0048
 2179DPPC   NC347833  35.331  22.998  13.736  0.1896 -0.3109 -0.0128
 2179DPPC   PO447834  35.013  23.191  13.502  0.2647 -0.1579  0.1855
 2179DPPC   GL147835  34.704  23.208  13.887  0.1523  0.2164  0.2353
 2179DPPC   GL247836  34.546  22.950  13.893 -0.0066  0.0189  0.0449
 2179DPPC   C1A47837  34.421  23.611  14.040  0.0200 -0.2900 -0.1503
 2179DPPC   C2A47838  34.222  23.572  14.379  0.1277 -0.1866  0.2993
 2179DPPC   C3A47839  34.040  23.595  14.733  0.1774 -0.1830 -0.1760
 2179DPPC   C4A47840  33.769  23.444  15.015 -0.0537  0.3620  0.0421
 2179DPPC   C1B47841  34.223  23.112  14.142 -0.3442 -0.2520 -0.0690
 2179DPPC   C2B47842  34.118  23.122  14.559 -0.1763  0.0284 -0.4265
 2179DPPC   C3B47843  34.354  23.310  14.923  0.2334 -0.1339  0.0442
 2179DPPC   C4B47844  34.615  23.690  14.851 -0.4204  0.0848  0.2746
 2180DPPC   NC347845  13.593  30.196  24.941  0.0284 -0.1713  0.1414
 2180DPPC   PO447846  13.586  30.108  24.574  0.1653 -0.0049 -0.0314
 2180DPPC   GL147847  13.993  29.938  24.549  0.2700  0.1370  0.2430
 2180DPPC   GL247848  14.105  30.064  24.269 -0.2927  0.2194 -0.0795
 2180DPPC   C1A47849  14.315  29.748  24.786  0.2627 -0.0939 -0.1676
 2180DPPC   C2A47850  14.488  29.815  25.291  0.0056  0.0908 -0.0374
 2180DPPC   C3A47851  14.368  29.748  25.664 -0.2913 -0.0762  0.0358
 2180DPPC   C4A47852  14.364  29.346  25.899  0.2216  0.1231  0.0548
 2180DPPC   C1B47853  14.525  29.929  24.276  0.1507 -0.0822 -0.0225
 2180DPPC   C2B47854  14.798  29.916  24.601 -0.1953 -0.1859 -0.3670
 2180DPPC   C3B47855  15.111  29.752  24.824  0.2706  0.0031  0.2383
 2180DPPC   C4B47856  15.289  29.698  25.250  0.0040 -0.2836 -0.0224
 2181DPPC   NC347857  26.015  18.356   5.191  0.1721 -0.2979 -0.1578
 2181DPPC   PO447858  26.474  18.282   5.008 -0.1024 -0.0293 -0.0050
 2181DPPC   GL147859  26.404  18.578   4.778 -0.0537  0.0755  0.0857
 2181DPPC   GL247860  26.275  18.798   5.022 -0.1340  0.0327  0.0154
 2181DPPC   C1A47861  26.302  18.800   4.330 -0.1708  0.1808 -0.3472
 2181DPPC   C2A47862  26.410  18.996   3.917  0.1524 -0.1452  0.1628
 2181DPPC   C3A47863  26.701  19.012   3.669  0.0624  0.2735 -0.2254
 2181DPPC   C4A47864  26.882  18.621   3.583  0.1685 -0.0630 -0.3462
 2181DPPC   C1B47865  26.343  19.256   4.864  0.0281 -0.1981  0.0660
 2181DPPC   C2B47866  26.738  19.512   4.825 -0.3881  0.0814 -0.1029
 2181DPPC   C3B47867  27.092  19.849   4.659  0.1911 -0.0365  0.1744
 2181DPPC   C4B47868  27.490  19.784   4.652  0.0823  0.1557  0.3089
 2182DPPC   NC347869  31.807  39.995  15.772 -0.1219  0.1020  0.0984
 2182DPPC   PO447870  32.156  39.904  15.813 -0.0132 -0.1199 -0.2056
 2182DPPC   GL147871  32.064  39.754  16.153 -0.1296  0.2144  0.0376
 2182DPPC   GL247872  32.262  39.516  16.117 -0.2363  0.0706  0.1718
 2182DPPC   C1A47873  31.748  39.512  16.304 -0.3266  0.1411 -0.1159
 2182DPPC   C2A47874  31.485  39.145  16.083  0.1112  0.0889 -0.0653
 2182DPPC   C3A47875  31.184  39.067  15.859 -0.1073  0.2041  0.1416
 2182DPPC   C4A47876  30.971  38.738  15.717 -0.1207 -0.1958 -0.2699
 2182DPPC   C1B47877  32.182  39.344  16.613 -0.2748  0.2947  0.0203
 2182DPPC   C2B47878  32.167  39.213  17.038 -0.1920  0.1899  0.1233
 2182DPPC   C3B47879  31.796  39.207  17.234 -0.1392 -0.0224  0.0211
 2182DPPC   C4B47880  31.461  39.108  17.430  0.0177  0.0893  0.0700
 2183DPPC   NC347881  18.182  37.148  19.600  0.1845 -0.1987 -0.0350
 2183DPPC   PO447882  18.382  37.037  20.005  0.0831 -0.0126  0.0501
 2183DPPC   GL147883  18.453  36.717  19.885  0.1554 -0.0688 -0.1098
 2183DPPC   GL247884  18.386  36.636  19.567  0.3999  0.0673  0.2799
 2183DPPC   C1A47885  18.750  36.419  19.954  0.1125  0.2047  0.2743
 2183DPPC   C2A47886  18.962  36.182  19.719 -0.0886 -0.1418 -0.0232
 2183DPPC   C3A47887  19.347  36.024  19.860 -0.1520 -0.2741  0.0302
 2183DPPC   C4A47888  19.755  36.104  20.082 -0.0367 -0.0802  0.1574
 2183DPPC   C1B47889  18.828  36.692  19.518 -0.2278 -0.1245 -0.5362
 2183DPPC   C2B47890  19.257  36.426  19.255  0.1548  0.0400  0.0652
 2183DPPC   C3B47891  19.580  36.086  19.393  0.1545 -0.1732  0.0463
 2183DPPC   C4B47892  19.824  35.803  19.171 -0.2067  0.0227 -0.2108
 2184DPPC   NC347893  14.293  28.622  18.941  0.0663  0.0283 -0.0042
 2184DPPC   PO447894  14.606  28.817  19.260  0.2258 -0.3101 -0.0532
 2184DPPC   GL147895  14.987  28.891  19.482 -0.1152  0.0463 -0.3010
 2184DPPC   GL247896  15.170  28.658  19.313  0.3056 -0.1305  0.1145
 2184DPPC   C1A47897  15.086  29.035  19.974 -0.0129  0.0114 -0.2648
 2184DPPC   C2A47898  15.397  29.079  20.306  0.1387 -0.1350  0.0917
 2184DPPC   C3A47899  15.693  29.007  20.699 -0.0321 -0.1818  0.2888
 2184DPPC   C4A47900  15.849  28.641  20.952 -0.0251 -0.0174  0.0282
 2184DPPC   C1B47901  15.472  28.235  19.467  0.3125 -0.0532  0.2554
 2184DPPC   C2B47902  15.445  27.977  19.744 -0.1989  0.0796  0.0701
 2184DPPC   C3B47903  15.614  27.680  20.047  0.1993  0.0955 -0.1662
 2184DPPC   C4B47904  15.932  27.412  19.854 -0.0194 -0.1337 -0.2197
 2185DPPC   NC347905  28.710  23.734  25.584  0.0084 -0.1261 -0.0676
 2185DPPC   PO447906  28.544  23.732  25.916 -0.2694 -0.2384 -0.2884
 2185DPPC   GL147907  28.450  23.535  26.226 -0.0715 -0.0501  0.0200
 2185DPPC   GL247908  28.445  23.754  26.553  0.1267  0.0036 -0.5727
 2185DPPC   C1A47909  28.514  23.070  26.331 -0.0171 -0.0272  0.1679
 2185DPPC   C2A47910  28.654  22.667  26.391 -0.0829 -0.1613 -0.0717
 2185DPPC   C3A47911  28.746  22.239  26.477 -0.1416 -0.1613 -0.1461
 2185DPPC   C4A47912  28.549  21.918  26.624  0.0087  0.1363  0.3633
 2185DPPC   C1B47913  28.473  23.408  26.777 -0.2072  0.1059  0.0097
 2185DPPC   C2B47914  28.748  22.905  26.882 -0.1130 -0.5082 -0.1740
 2185DPPC   C3B47915  28.648  22.380   0.008  0.1263  0.0597 -0.1084
 2185DPPC   C4B47916  28.843  22.029   0.186  0.3451  0.0054 -0.0196
 2186DPPC   NC347917  23.106  26.137  20.838 -0.1240  0.2451  0.1064
 2186DPPC   PO447918  23.339  25.992  21.022 -0.2129  0.5927 -0.1553
 2186DPPC   GL147919  23.103  25.663  21.239  0.1381  0.0630 -0.2307
 2186DPPC   GL247920  22.988  25.644  20.976  0.0947 -0.2159  0.1783
 2186DPPC   C1A47921  22.685  25.573  21.367 -0.2165 -0.3796  0.0196
 2186DPPC   C2A47922  22.301  25.477  21.309 -0.1242  0.2265  0.0239
 2186DPPC   C3A47923  21.895  25.518  21.408 -0.0806  0.0197 -0.0101
 2186DPPC   C4A47924  21.591  25.840  21.316 -0.1709  0.2171  0.0668
 2186DPPC   C1B47925  22.876  25.131  21.074 -0.0265 -0.2008 -0.2756
 2186DPPC   C2B47926  22.533  24.966  21.171  0.4491 -0.1998 -0.0708
 2186DPPC   C3B47927  22.150  24.988  21.365  0.0555 -0.2749 -0.0690
 2186DPPC   C4B47928  22.024  24.705  21.716  0.3000  0.0107 -0.1952
 2187DPPC   NC347929  14.128  27.559  20.067  0.2853  0.2400 -0.2429
 2187DPPC   PO447930  13.907  27.559  20.486 -0.1350 -0.1682 -0.0428
 2187DPPC   GL147931  13.940  27.083  20.619 -0.1885  0.0376 -0.0267
 2187DPPC   GL247932  14.180  26.942  20.429 -0.0952  0.1491  0.0092
 2187DPPC   C1A47933  14.003  26.926  21.013  0.1625 -0.1781  0.1560
 2187DPPC   C2A47934  13.917  26.967  21.379  0.0576  0.0599 -0.2261
 2187DPPC   C3A47935  13.966  27.086  21.851 -0.1291 -0.1237  0.1296
 2187DPPC   C4A47936  14.323  27.378  22.123 -0.0605 -0.1642 -0.0536
 2187DPPC   C1B47937  14.513  27.205  20.618  0.0990  0.2385  0.0753
 2187DPPC   C2B47938  14.919  27.149  20.620 -0.0222  0.0284  0.1170
 2187DPPC   C3B47939  15.236  26.991  20.406 -0.0507  0.0828 -0.0620
 2187DPPC   C4B47940  15.606  27.129  20.381 -0.0209 -0.2602 -0.1751
 2188DPPC   NC347941  13.446  28.739  21.304 -0.0180  0.2173 -0.0568
 2188DPPC   PO447942  13.082  28.696  21.748 -0.1722 -0.1552 -0.0327
 2188DPPC   GL147943  13.487  28.657  21.886 -0.1979  0.1137  0.0052
 2188DPPC   GL247944  13.581  28.462  21.726  0.0979 -0.1109  0.0271
 2188DPPC   C1A47945  13.649  28.531  22.282 -0.1603 -0.2630  0.0042
 2188DPPC   C2A47946  13.971  28.435  22.535  0.4303  0.2909 -0.0291
 2188DPPC   C3A47947  13.989  28.169  22.898 -0.2427  0.3454  0.1167
 2188DPPC   C4A47948  14.329  27.895  23.029  0.1485  0.1304 -0.1344
 2188DPPC   C1B47949  13.996  28.285  21.914 -0.0469 -0.3296  0.0477
 2188DPPC   C2B47950  14.318  28.213  21.679  0.2586  0.0846 -0.0520
 2188DPPC   C3B47951  14.666  28.212  21.357  0.1320 -0.1513  0.1469
 2188DPPC   C4B47952  14.960  27.917  21.080 -0.5624  0.3243  0.1697
 2189DPPC   NC347953  28.093  22.821  11.877 -0.1327  0.0973  0.0524
 2189DPPC   PO447954  28.366  22.996  11.531  0.3537 -0.0221 -0.1001
 2189DPPC   GL147955  28.228  23.311  11.731  0.1063 -0.1365  0.0045
 2189DPPC   GL247956  28.371  23.603  11.585  0.2891  0.2378 -0.2756
 2189DPPC   C1A47957  28.069  23.743  11.924  0.0588  0.1133 -0.0340
 2189DPPC   C2A47958  28.105  24.122  12.024  0.0668 -0.1713  0.1697
 2189DPPC   C3A47959  28.473  24.374  11.699  0.1276 -0.1785 -0.2168
 2189DPPC   C4A47960  28.711  24.427  11.331  0.0004 -0.2448 -0.0511
 2189DPPC   C1B47961  28.296  23.948  11.402  0.0247 -0.1816 -0.2380
 2189DPPC   C2B47962  28.007  24.177  11.458  0.3063 -0.3074 -0.2813
 2189DPPC   C3B47963  28.156  24.688  11.362  0.1275 -0.2389 -0.2487
 2189DPPC   C4B47964  28.615  24.962  11.265  0.1824  0.2432 -0.0255
 2190DPPC   NC347965  38.978  35.518  20.963 -0.0988  0.1533  0.1821
 2190DPPC   PO447966  39.015  35.047  21.005 -0.3080 -0.0829 -0.1000
 2190DPPC   GL147967  38.681  34.746  21.103  0.2155 -0.2210 -0.1402
 2190DPPC   GL247968  38.584  34.702  21.618  0.0642 -0.0031 -0.1833
 2190DPPC   C1A47969  38.486  34.327  21.176 -0.0276  0.0948  0.5022
 2190DPPC   C2A47970  38.089  34.286  21.131  0.1879 -0.1295  0.2006
 2190DPPC   C3A47971  37.781  34.446  20.946  0.1884  0.1215 -0.1743
 2190DPPC   C4A47972  37.593  34.617  20.664  0.3353 -0.0369 -0.0023
 2190DPPC   C1B47973  38.532  35.095  21.844  0.0988 -0.1871 -0.1149
 2190DPPC   C2B47974  38.289  35.533  21.680 -0.0884 -0.2678 -0.1380
 2190DPPC   C3B47975  37.945  35.816  21.453 -0.1147 -0.5177 -0.1013
 2190DPPC   C4B47976  37.532  35.670  21.228  0.0161  0.1564 -0.0250
 2191DPPC   NC347977  28.463  25.293  10.438 -0.2725 -0.0266 -0.2269
 2191DPPC   PO447978  28.043  25.202  10.222  0.1590  0.1596 -0.1615
 2191DPPC   GL147979  27.933  25.287  10.748  0.0738  0.0629  0.0825
 2191DPPC   GL247980  28.251  25.425  10.845  0.2973 -0.3098  0.0544
 2191DPPC   C1A47981  27.768  25.437  11.111 -0.1599 -0.0064  0.1200
 2191DPPC   C2A47982  27.774  25.577  11.556  0.0427 -0.1442  0.1765
 2191DPPC   C3A47983  27.556  25.396  11.898 -0.1423 -0.0468  0.1408
 2191DPPC   C4A47984  27.673  25.058  12.199 -0.0555 -0.1310  0.0391
 2191DPPC   C1B47985  28.181  25.213  11.251 -0.1084  0.1654 -0.1211
 2191DPPC   C2B47986  28.439  25.215  11.622 -0.1469  0.0090 -0.2580
 2191DPPC   C3B47987  28.585  25.403  12.084 -0.1429 -0.0016  0.1061
 2191DPPC   C4B47988  28.922  25.542  12.412 -0.1133  0.1089  0.0503
 2192DPPC   NC347989  15.280  22.544  25.982 -0.0629 -0.2081  0.2929
 2192DPPC   PO447990  15.535  22.133  26.187  0.3080  0.0870 -0.1694
 2192DPPC   GL147991  15.818  22.457  26.112  0.1348 -0.0188 -0.0706
 2192DPPC   GL247992  15.661  22.424  25.706 -0.0780 -0.1169  0.0419
 2192DPPC   C1A47993  16.241  22.262  26.046  0.0272  0.2290  0.2219
 2192DPPC   C2A47994  16.623  22.431  25.916 -0.2316  0.0292  0.1517
 2192DPPC   C3A47995  16.911  22.683  25.946 -0.0132 -0.1399 -0.0438
 2192DPPC   C4A47996  16.976  23.075  26.098 -0.0723 -0.0735  0.1835
 2192DPPC   C1B47997  16.065  22.408  25.566 -0.0974  0.5681  0.0565
 2192DPPC   C2B47998  16.279  22.652  25.314 -0.2951  0.1302 -0.2413
 2192DPPC   C3B47999  16.728  22.798  25.304 -0.0410  0.1079  0.0284
 2192DPPC   C4B48000  17.163  22.678  25.461  0.0602  0.2976 -0.3265
 2193DPPC   NC348001  37.797  30.874  14.270  0.4569 -0.0512 -0.1186
 2193DPPC   PO448002  37.805  30.409  14.294 -0.3087  0.0176  0.1461
 2193DPPC   GL148003  37.372  30.460  14.461 -0.0165  0.0831  0.1126
 2193DPPC   GL248004  37.272  30.822  14.487  0.2335  0.1033  0.2301
 2193DPPC   C1A48005  37.155  30.413  14.858  0.1092  0.2552 -0.1207
 2193DPPC   C2A48006  37.144  30.055  15.167  0.2167 -0.0215  0.0247
 2193DPPC   C3A48007  37.237  29.740  15.277  0.0249  0.1813  0.4908
 2193DPPC   C4A48008  37.226  29.462  15.677  0.0825  0.1823  0.0298
 2193DPPC   C1B48009  36.926  30.919  14.638 -0.0733  0.0580  0.1578
 2193DPPC   C2B48010  36.724  30.989  15.050  0.1234  0.1728 -0.1519
 2193DPPC   C3B48011  36.564  31.171  15.503 -0.2225 -0.0554 -0.1913
 2193DPPC   C4B48012  36.207  31.184  15.743  0.2857  0.0841 -0.2464
 2194DPPC   NC348013  17.524  34.835  25.839  0.1013  0.0945  0.1598
 2194DPPC   PO448014  17.368  34.452  26.010 -0.0243 -0.1613 -0.2100
 2194DPPC   GL148015  17.818  34.396  25.830  0.1560  0.3300  0.2653
 2194DPPC   GL248016  18.135  34.236  25.980 -0.0513  0.3181  0.3153
 2194DPPC   C1A48017  18.049  34.215  25.496 -0.0401 -0.0268  0.2776
 2194DPPC   C2A48018  18.225  34.222  25.124 -0.1189 -0.1871  0.1356
 2194DPPC   C3A48019  18.509  34.352  24.744  0.1231 -0.1536 -0.2069
 2194DPPC   C4A48020  18.762  34.454  24.440  0.1442 -0.0835 -0.0685
 2194DPPC   C1B48021  18.393  34.034  25.763 -0.0042 -0.0570 -0.1368
 2194DPPC   C2B48022  18.767  33.970  25.514  0.0431  0.0540 -0.0386
 2194DPPC   C3B48023  18.961  33.665  25.240 -0.0540 -0.0350  0.3273
 2194DPPC   C4B48024  19.182  33.397  24.935 -0.0577  0.0804 -0.1080
 2195DPPC   NC348025  30.181  25.819   6.350 -0.3110 -0.3266  0.1511
 2195DPPC   PO448026  30.334  25.586   5.978  0.3388 -0.0079 -0.1718
 2195DPPC   GL148027  30.255  25.937   5.661 -0.3382  0.2649  0.4396
 2195DPPC   GL248028  30.112  26.182   5.938  0.1903  0.0869 -0.1007
 2195DPPC   C1A48029  29.978  26.069   5.324  0.3287  0.2626  0.0551
 2195DPPC   C2A48030  30.168  26.193   4.951  0.1518  0.3499 -0.1028
 2195DPPC   C3A48031  30.343  26.124   4.535  0.1005  0.1165  0.0299
 2195DPPC   C4A48032  30.466  26.369   4.290 -0.0032  0.1954 -0.1728
 2195DPPC   C1B48033  29.928  26.441   5.699 -0.2232 -0.1171  0.1958
 2195DPPC   C2B48034  29.742  26.802   5.511 -0.2989 -0.1790 -0.0911
 2195DPPC   C3B48035  29.474  27.093   5.649  0.1297  0.0302  0.0479
 2195DPPC   C4B48036  29.114  27.267   5.460  0.2961  0.0382 -0.1186
 2196DPPC   NC348037  14.176  22.360  23.120 -0.0190 -0.1313 -0.0981
 2196DPPC   PO448038  14.540  22.367  22.920 -0.1712 -0.0802  0.0114
 2196DPPC   GL148039  14.821  22.644  22.819 -0.0870 -0.0488 -0.0635
 2196DPPC   GL248040  14.996  22.633  23.082  0.1982 -0.0563  0.1427
 2196DPPC   C1A48041  15.131  22.987  22.719 -0.1535 -0.1678 -0.0638
 2196DPPC   C2A48042  15.117  23.398  22.475  0.0848 -0.1459  0.1898
 2196DPPC   C3A48043  14.934  23.565  22.085  0.0559 -0.0484 -0.0162
 2196DPPC   C4A48044  14.644  23.699  21.751 -0.0306  0.0052  0.0401
 2196DPPC   C1B48045  15.194  22.984  23.212  0.0874 -0.1920  0.0471
 2196DPPC   C2B48046  15.515  23.115  23.433 -0.0626 -0.3097  0.0564
 2196DPPC   C3B48047  15.605  23.235  23.830 -0.1069  0.1152 -0.1783
 2196DPPC   C4B48048  15.535  23.277  24.253 -0.0215  0.0177  0.2273
 2197DPPC   NC348049  34.199  40.237  20.037  0.0386 -0.0369 -0.2503
 2197DPPC   PO448050  34.257  40.355  20.529  0.2349 -0.0885 -0.2737
 2197DPPC   GL148051  34.033  39.946  20.436 -0.4194  0.0790 -0.1624
 2197DPPC   GL248052  34.134  39.699  20.210 -0.2272 -0.0535 -0.1219
 2197DPPC   C1A48053  33.671  39.630  20.401  0.1020  0.0334  0.1360
 2197DPPC   C2A48054  33.483  39.310  20.372  0.1789  0.0491 -0.0220
 2197DPPC   C3A48055  33.520  38.955  20.182  0.2221 -0.0022 -0.1928
 2197DPPC   C4A48056  33.406  38.765  19.835  0.1459 -0.3810 -0.0607
 2197DPPC   C1B48057  34.041  39.334  20.459  0.0397 -0.0764  0.3407
 2197DPPC   C2B48058  34.346  39.055  20.637  0.0411  0.0716 -0.1174
 2197DPPC   C3B48059  34.600  38.668  20.460  0.1944  0.1535  0.3711
 2197DPPC   C4B48060  34.593  38.369  20.198  0.0474  0.2764  0.0935
 2198DPPC   NC348061  13.689  26.022   1.090 -0.0594  0.0845  0.0596
 2198DPPC   PO448062  13.645  26.345   0.764  0.2177  0.0309 -0.0604
 2198DPPC   GL148063  14.062  26.317   0.860 -0.4522 -0.0323 -0.1862
 2198DPPC   GL248064  14.305  26.066   0.963  0.2938 -0.1028  0.0957
 2198DPPC   C1A48065  14.479  26.457   0.688  0.0620 -0.1455 -0.0225
 2198DPPC   C2A48066  14.951  26.428   0.639 -0.2070 -0.0231 -0.2339
 2198DPPC   C3A48067  15.330  26.475   0.383 -0.0541  0.0501  0.0179
 2198DPPC   C4A48068  15.577  26.195   0.584 -0.1883 -0.2319 -0.0361
 2198DPPC   C1B48069  14.761  26.136   1.074 -0.0014  0.1025 -0.0345
 2198DPPC   C2B48070  15.017  26.410   1.373  0.3224  0.2292 -0.0516
 2198DPPC   C3B48071  15.500  26.635   1.448  0.4840  0.2974  0.1793
 2198DPPC   C4B48072  15.599  26.977   1.720  0.1367  0.1801  0.1966
 2199DPPC   NC348073  22.819  31.072  26.867 -0.0980  0.0038  0.2105
 2199DPPC   PO448074  22.599  30.537   0.162  0.0495 -0.2380  0.1741
 2199DPPC   GL148075  22.486  30.158   0.459 -0.1225 -0.0630  0.2260
 2199DPPC   GL248076  22.076  30.114   0.594 -0.1538  0.2684  0.3627
 2199DPPC   C1A48077  22.461  29.795   0.693  0.2616 -0.0531  0.0217
 2199DPPC   C2A48078  22.459  29.456   1.033  0.0080 -0.5951  0.3747
 2199DPPC   C3A48079  22.727  29.331   1.459  0.3685 -0.0029 -0.1603
 2199DPPC   C4A48080  22.490  29.395   1.909 -0.2550 -0.0608  0.1016
 2199DPPC   C1B48081  21.648  30.198   0.472  0.1846 -0.2532  0.0969
 2199DPPC   C2B48082  21.239  30.375   0.631  0.1361 -0.0990  0.0164
 2199DPPC   C3B48083  21.010  30.690   0.862  0.4342 -0.0321 -0.0461
 2199DPPC   C4B48084  20.699  30.769   1.227  0.2035 -0.2044 -0.0216
 2200DPPC   NC348085  25.662  16.881  19.211 -0.2374 -0.1590  0.1725
 2200DPPC   PO448086  25.321  16.608  19.418 -0.3183  0.0439 -0.1798
 2200DPPC   GL148087  25.112  16.936  19.606 -0.1396  0.2687 -0.0323
 2200DPPC   GL248088  24.808  17.111  19.391 -0.2187 -0.1473  0.1377
 2200DPPC   C1A48089  25.124  17.339  19.794  0.1113  0.0500  0.2759
 2200DPPC   C2A48090  25.361  17.685  19.759  0.0672  0.0119  0.2773
 2200DPPC   C3A48091  25.613  17.928  20.010  0.1643  0.0423  0.2172
 2200DPPC   C4A48092  25.729  18.399  19.923  0.1007 -0.0878 -0.0046
 2200DPPC   C1B48093  24.525  17.312  19.749 -0.2631 -0.1121  0.1833
 2200DPPC   C2B48094  24.267  17.427  20.071 -0.5026  0.1360 -0.0118
 2200DPPC   C3B48095  24.284  17.690  20.458 -0.0342  0.0044 -0.1632
 2200DPPC   C4B48096  24.229  18.065  20.631  0.1646 -0.0398  0.1485
 2201DPPC   NC348097  34.625  19.807  23.565  0.0233  0.3168  0.1049
 2201DPPC   PO448098  34.670  19.914  23.119 -0.2384 -0.0790 -0.2190
 2201DPPC   GL148099  34.530  20.313  23.096 -0.4227  0.2146 -0.1288
 2201DPPC   GL248100  34.750  20.594  23.074  0.0207  0.1300  0.4070
 2201DPPC   C1A48101  34.188  20.605  23.169  0.0374 -0.0540  0.1176
 2201DPPC   C2A48102  33.813  20.693  22.822 -0.1607  0.0392 -0.3818
 2201DPPC   C3A48103  33.509  20.524  22.449  0.1548 -0.1857  0.2193
 2201DPPC   C4A48104  33.435  20.524  22.047 -0.1182 -0.0839 -0.1569
 2201DPPC   C1B48105  34.612  20.771  23.391  0.0319  0.0222 -0.0086
 2201DPPC   C2B48106  34.635  20.770  23.829 -0.1466  0.1842 -0.0414
 2201DPPC   C3B48107  34.433  21.054  24.047  0.5339  0.0927 -0.0703
 2201DPPC   C4B48108  34.360  21.444  24.187 -0.2946  0.3801  0.1074
 2202DPPC   NC348109  39.499  26.921  21.127  0.0164 -0.0804  0.2694
 2202DPPC   PO448110  39.488  26.879  20.698 -0.1016  0.0838  0.0743
 2202DPPC   GL148111  39.153  27.024  20.752 -0.2289  0.2165 -0.2568
 2202DPPC   GL248112  39.240  27.297  20.821 -0.2209  0.0819 -0.2391
 2202DPPC   C1A48113  38.726  27.059  20.981 -0.2802  0.0447  0.0430
 2202DPPC   C2A48114  38.430  27.272  21.056  0.0486 -0.0362  0.2266
 2202DPPC   C3A48115  38.076  27.284  20.907 -0.3133  0.0936  0.0525
 2202DPPC   C4A48116  37.698  27.559  20.844 -0.2015 -0.0360  0.0968
 2202DPPC   C1B48117  38.846  27.536  20.754  0.1156 -0.1313 -0.2843
 2202DPPC   C2B48118  38.445  27.767  20.567  0.0645  0.0689 -0.2196
 2202DPPC   C3B48119  38.015  27.629  20.514 -0.0957 -0.0288  0.1101
 2202DPPC   C4B48120  37.740  27.617  20.100 -0.0001 -0.0970  0.1274
 2203DPPC   NC348121  28.781  36.065  10.704 -0.0319  0.1252  0.0503
 2203DPPC   PO448122  28.379  36.082  10.894 -0.0103 -0.0024 -0.1914
 2203DPPC   GL148123  28.666  35.850  11.338  0.0721  0.3238 -0.1268
 2203DPPC   GL248124  28.345  35.875  11.496  0.0667  0.0954  0.1852
 2203DPPC   C1A48125  28.782  35.652  11.789 -0.1069 -0.1428 -0.3668
 2203DPPC   C2A48126  28.987  35.576  12.235  0.1599  0.1985 -0.4087
 2203DPPC   C3A48127  28.777  35.541  12.555  0.1520  0.1013 -0.0030
 2203DPPC   C4A48128  28.642  35.501  13.054 -0.1255 -0.2190 -0.4043
 2203DPPC   C1B48129  28.338  35.748  11.896  0.3090 -0.1451 -0.0046
 2203DPPC   C2B48130  28.432  35.694  12.242  0.1689 -0.1044 -0.0028
 2203DPPC   C3B48131  28.350  35.799  12.686  0.3437  0.0180  0.2437
 2203DPPC   C4B48132  28.006  35.951  12.948  0.2609  0.0055 -0.0513
 2204DPPC   NC348133  23.456  15.513  25.067  0.1751  0.2000  0.1205
 2204DPPC   PO448134  23.827  15.724  24.837 -0.1575  0.1456 -0.0175
 2204DPPC   GL148135  24.166  15.994  24.779  0.2014  0.0054  0.1306
 2204DPPC   GL248136  24.133  16.197  25.009  0.0221 -0.0440  0.1554
 2204DPPC   C1A48137  24.386  16.396  24.566  0.2602 -0.3021 -0.1534
 2204DPPC   C2A48138  24.091  16.368  24.259  0.1391  0.3450 -0.1593
 2204DPPC   C3A48139  23.807  16.224  23.943 -0.0327  0.2180 -0.0782
 2204DPPC   C4A48140  23.523  16.393  23.746 -0.0520  0.1018 -0.2241
 2204DPPC   C1B48141  23.887  16.469  24.753  0.2393 -0.2750  0.0844
 2204DPPC   C2B48142  23.795  16.875  24.694 -0.1290 -0.2253 -0.1666
 2204DPPC   C3B48143  23.659  17.309  24.479 -0.1802  0.2758  0.0514
 2204DPPC   C4B48144  23.719  17.704  24.367 -0.2715 -0.1478 -0.2304
 2205DPPC   NC348145  25.119  16.777  18.432 -0.2521  0.0635  0.0855
 2205DPPC   PO448146  25.055  17.016  18.218 -0.1343  0.0351 -0.0235
 2205DPPC   GL148147  25.007  17.534  18.406 -0.1697 -0.0559  0.2725
 2205DPPC   GL248148  25.141  17.709  18.200 -0.2272 -0.0191  0.2359
 2205DPPC   C1A48149  25.043  17.843  18.727 -0.0359 -0.0447 -0.1121
 2205DPPC   C2A48150  25.173  18.116  19.021  0.0750 -0.1230  0.2360
 2205DPPC   C3A48151  25.461  18.456  19.034  0.2399 -0.1248  0.1782
 2205DPPC   C4A48152  25.808  18.749  18.944  0.0448 -0.2683 -0.2589
 2205DPPC   C1B48153  24.956  18.021  18.284  0.2915 -0.3849  0.3485
 2205DPPC   C2B48154  24.776  18.233  18.550  0.1614 -0.1676 -0.1189
 2205DPPC   C3B48155  24.897  18.538  18.888  0.0448  0.0662 -0.0349
 2205DPPC   C4B48156  24.892  18.964  19.226  0.2385 -0.0598  0.0156
 2206DPPC   NC348157  17.265  18.153  22.557 -0.1716  0.0805  0.0687
 2206DPPC   PO448158  17.006  18.409  22.342 -0.2943 -0.1261 -0.0097
 2206DPPC   GL148159  17.275  18.728  22.298  0.2106  0.1783  0.3347
 2206DPPC   GL248160  17.576  18.424  22.292 -0.0771  0.1811 -0.1193
 2206DPPC   C1A48161  17.475  19.154  22.222  0.0834  0.3048  0.3253
 2206DPPC   C2A48162  17.431  19.518  22.383  0.1582 -0.1087  0.3954
 2206DPPC   C3A48163  17.636  19.914  22.360 -0.0623 -0.4325  0.0266
 2206DPPC   C4A48164  17.780  20.332  22.203 -0.3071  0.0790 -0.0101
 2206DPPC   C1B48165  18.022  18.439  22.264 -0.0169 -0.0209  0.3171
 2206DPPC   C2B48166  18.206  18.362  21.862  0.0024  0.0115  0.0663
 2206DPPC   C3B48167  18.570  18.251  21.670  0.0649 -0.0072  0.1342
 2206DPPC   C4B48168  18.776  18.311  21.277  0.0474 -0.1596 -0.1107
 2207DPPC   NC348169  24.383  28.899   0.133  0.1633  0.1186  0.0865
 2207DPPC   PO448170  24.470  28.704   0.552 -0.1886  0.0700  0.0072
 2207DPPC   GL148171  24.063  28.489   0.534  0.2119  0.2761  0.1375
 2207DPPC   GL248172  23.888  28.648   0.211  0.1103  0.2032  0.3471
 2207DPPC   C1A48173  23.702  28.134   0.461 -0.1740 -0.0159 -0.0065
 2207DPPC   C2A48174  23.506  27.802   0.478 -0.0307 -0.2426  0.0677
 2207DPPC   C3A48175  23.269  27.440   0.342 -0.0700  0.0012 -0.0452
 2207DPPC   C4A48176  23.420  27.085   0.120 -0.1044 -0.1979  0.0977
 2207DPPC   C1B48177  23.556  28.437   0.081  0.0737  0.0819  0.0167
 2207DPPC   C2B48178  23.285  28.130   0.165  0.3677  0.1462  0.2085
 2207DPPC   C3B48179  23.021  27.818   0.012 -0.1149  0.1441  0.0508
 2207DPPC   C4B48180  22.812  27.767  26.613  0.3294 -0.0695  0.1702
 2208DPPC   NC348181  20.440  35.919  13.235  0.2643  0.1123 -0.0632
 2208DPPC   PO448182  20.852  35.632  13.121 -0.0952  0.0040 -0.0533
 2208DPPC   GL148183  21.186  35.405  13.294  0.1340 -0.2002 -0.0873
 2208DPPC   GL248184  21.239  35.024  13.231  0.0619  0.3191  0.1111
 2208DPPC   C1A48185  21.605  35.194  13.515  0.1981 -0.0315 -0.0269
 2208DPPC   C2A48186  21.728  34.958  13.764 -0.2908 -0.2812  0.0192
 2208DPPC   C3A48187  21.924  34.814  14.039  0.2427 -0.0029 -0.1896
 2208DPPC   C4A48188  22.015  34.540  14.224  0.0771 -0.0089  0.2238
 2208DPPC   C1B48189  21.082  34.987  13.651  0.4785 -0.1206  0.1779
 2208DPPC   C2B48190  21.341  34.811  13.937 -0.0548 -0.1452 -0.1133
 2208DPPC   C3B48191  21.398  34.421  14.009 -0.0120  0.2202  0.3058
 2208DPPC   C4B48192  21.543  34.095  13.919 -0.2672  0.0089  0.2926
 2209DPPC   NC348193  35.974  25.004   2.279  0.4814  0.3882 -0.2931
 2209DPPC   PO448194  36.084  24.885   1.825  0.0688 -0.3175  0.0637
 2209DPPC   GL148195  35.804  25.314   1.787  0.1157 -0.1944  0.0759
 2209DPPC   GL248196  35.832  25.428   2.060  0.1742 -0.0975  0.2448
 2209DPPC   C1A48197  35.448  25.368   1.504 -0.1518 -0.2228  0.0125
 2209DPPC   C2A48198  34.989  25.332   1.531  0.1385 -0.1615  0.1805
 2209DPPC   C3A48199  34.831  25.365   1.094  0.0110  0.0902 -0.1466
 2209DPPC   C4A48200  34.750  25.407   0.702  0.1106 -0.0309  0.1263
 2209DPPC   C1B48201  35.928  25.820   1.805 -0.1541  0.1372  0.1068
 2209DPPC   C2B48202  35.891  26.304   1.776 -0.1626  0.0468 -0.0622
 2209DPPC   C3B48203  35.511  26.547   1.706 -0.0196  0.0891  0.0374
 2209DPPC   C4B48204  35.376  26.704   1.253  0.4147  0.0067 -0.2222
 2210DPPC   NC348205  24.287  25.072  21.268  0.0601 -0.1300  0.0356
 2210DPPC   PO448206  24.106  24.689  21.001  0.1507  0.2185  0.1153
 2210DPPC   GL148207  24.011  24.278  21.133  0.4977 -0.1446 -0.0855
 2210DPPC   GL248208  24.075  24.104  21.329 -0.3148 -0.1789  0.1150
 2210DPPC   C1A48209  23.539  24.062  20.958 -0.2046  0.3032 -0.3328
 2210DPPC   C2A48210  23.194  23.824  21.098  0.1551  0.3772 -0.0153
 2210DPPC   C3A48211  23.007  23.538  21.294  0.2173 -0.2637  0.3785
 2210DPPC   C4A48212  22.914  23.190  21.553 -0.0416  0.0565  0.1144
 2210DPPC   C1B48213  23.696  23.962  21.454 -0.0192 -0.4808 -0.1537
 2210DPPC   C2B48214  23.316  24.027  21.637 -0.0384 -0.2500  0.2599
 2210DPPC   C3B48215  22.839  24.210  21.811  0.0467  0.0041  0.2625
 2210DPPC   C4B48216  22.512  24.595  21.797  0.0206  0.2700 -0.0985
 2211DPPC   NC348217  16.395  33.933  23.711 -0.0592  0.1783  0.0659
 2211DPPC   PO448218  16.635  34.224  23.673 -0.1933 -0.0006  0.2293
 2211DPPC   GL148219  17.080  34.320  23.794 -0.1651  0.0332 -0.0988
 2211DPPC   GL248220  17.231  34.513  24.127  0.1934 -0.2192 -0.1173
 2211DPPC   C1A48221  17.519  34.225  23.722 -0.1645  0.1196 -0.2042
 2211DPPC   C2A48222  17.736  33.854  23.645  0.1265  0.1294 -0.0579
 2211DPPC   C3A48223  17.616  33.443  23.907  0.2348 -0.0856  0.1497
 2211DPPC   C4A48224  17.502  33.157  24.213 -0.0041  0.2476  0.0495
 2211DPPC   C1B48225  17.412  34.808  23.874  0.2337  0.2860 -0.0890
 2211DPPC   C2B48226  17.608  34.650  23.521 -0.1177 -0.1827 -0.0768
 2211DPPC   C3B48227  17.874  34.288  23.414 -0.0801  0.0180 -0.1005
 2211DPPC   C4B48228  18.069  34.365  23.046 -0.1249  0.1532 -0.1811
 2212DPPC   NC348229  21.655  17.962   2.723 -0.0040 -0.4745  0.2145
 2212DPPC   PO448230  22.023  18.071   2.668 -0.0555 -0.2885  0.0321
 2212DPPC   GL148231  22.270  18.339   2.385 -0.0493  0.0704 -0.1130
 2212DPPC   GL248232  22.274  18.205   2.019 -0.3438 -0.3166 -0.1615
 2212DPPC   C1A48233  22.509  18.665   2.156  0.1530  0.0563  0.0092
 2212DPPC   C2A48234  22.661  18.887   1.807 -0.1007 -0.0494  0.1129
 2212DPPC   C3A48235  22.339  18.992   1.457 -0.1583 -0.0376 -0.0950
 2212DPPC   C4A48236  22.128  19.243   1.105  0.2838  0.0992  0.1599
 2212DPPC   C1B48237  22.230  18.539   1.705  0.4268  0.3346 -0.0808
 2212DPPC   C2B48238  22.483  18.539   1.344  0.0895  0.2947  0.2812
 2212DPPC   C3B48239  22.339  18.765   1.004  0.0261 -0.0300  0.2121
 2212DPPC   C4B48240  22.019  18.833   0.806  0.0119 -0.0412  0.2349
 2213DPPC   NC348241  21.967  22.021  23.776 -0.1630  0.0411  0.2488
 2213DPPC   PO448242  21.754  22.373  23.907  0.3468 -0.2088 -0.0478
 2213DPPC   GL148243  22.178  22.502  23.748  0.2051  0.1903  0.1251
 2213DPPC   GL248244  22.503  22.477  23.833 -0.0489  0.1180 -0.1439
 2213DPPC   C1A48245  22.466  22.605  23.395 -0.1890  0.4434 -0.0942
 2213DPPC   C2A48246  22.660  23.005  23.268  0.0457 -0.0078 -0.0197
 2213DPPC   C3A48247  23.040  23.311  23.086  0.0309 -0.2101 -0.2766
 2213DPPC   C4A48248  23.343  23.683  23.082 -0.1912  0.0161  0.1886
 2213DPPC   C1B48249  22.793  22.709  23.889 -0.1632  0.0485 -0.1089
 2213DPPC   C2B48250  23.013  23.095  23.592 -0.2517 -0.0725  0.2738
 2213DPPC   C3B48251  23.355  23.335  23.490  0.5481  0.2254  0.1417
 2213DPPC   C4B48252  23.721  23.610  23.401 -0.1761  0.2060 -0.0944
 2214DPPC   NC348253  23.020  19.505  21.382 -0.2931  0.2106  0.0405
 2214DPPC   PO448254  22.649  19.313  21.298 -0.0374 -0.0369  0.3130
 2214DPPC   GL148255  22.674  18.902  21.369  0.0667  0.1139  0.0015
 2214DPPC   GL248256  22.806  18.725  21.239 -0.0026  0.2261  0.0733
 2214DPPC   C1A48257  22.547  18.451  21.535 -0.0607 -0.1721  0.3384
 2214DPPC   C2A48258  22.839  18.007  21.588  0.2031 -0.1011  0.0002
 2214DPPC   C3A48259  23.188  17.822  21.544  0.0265  0.0872 -0.1715
 2214DPPC   C4A48260  23.651  18.017  21.523 -0.0638  0.3368  0.2094
 2214DPPC   C1B48261  22.826  18.308  21.117  0.2149 -0.6452  0.3168
 2214DPPC   C2B48262  22.476  17.975  21.141 -0.1203  0.1236 -0.1038
 2214DPPC   C3B48263  22.119  17.788  21.002 -0.1446  0.0413 -0.3675
 2214DPPC   C4B48264  21.935  17.509  20.727 -0.2675 -0.0784 -0.1862
 2215DPPC   NC348265  21.886  20.351  23.934  0.1168 -0.0508  0.0056
 2215DPPC   PO448266  21.443  20.348  24.015 -0.1693  0.0526 -0.0643
 2215DPPC   GL148267  21.459  20.006  24.332 -0.0290  0.0924  0.1009
 2215DPPC   GL248268  21.216  20.024  24.410 -0.2665  0.1602 -0.0465
 2215DPPC   C1A48269  21.548  19.616  24.293  0.1349  0.2409  0.2845
 2215DPPC   C2A48270  21.422  19.264  24.538 -0.2986  0.2556  0.5694
 2215DPPC   C3A48271  21.303  18.863  24.743 -0.0216 -0.1224 -0.1196
 2215DPPC   C4A48272  20.938  18.620  24.912 -0.2326 -0.3134 -0.3213
 2215DPPC   C1B48273  20.734  19.959  24.523 -0.3240 -0.1660 -0.0002
 2215DPPC   C2B48274  20.436  19.663  24.759  0.1281 -0.3169 -0.1869
 2215DPPC   C3B48275  20.194  19.329  24.928  0.2566  0.2088 -0.0889
 2215DPPC   C4B48276  20.181  19.125  25.252 -0.1222  0.3271  0.0654
 2216DPPC   NC348277  19.088  27.383  26.810  0.1517 -0.0947  0.0557
 2216DPPC   PO448278  18.901  27.339  26.377  0.1798 -0.1818 -0.1243
 2216DPPC   GL148279  19.313  27.536  26.372  0.1402  0.2862 -0.1988
 2216DPPC   GL248280  19.412  27.806  26.665  0.0815  0.0329 -0.1319
 2216DPPC   C1A48281  19.581  27.595  26.192  0.1102 -0.2048 -0.1579
 2216DPPC   C2A48282  19.888  27.833  26.166 -0.0514  0.0475  0.0592
 2216DPPC   C3A48283  20.326  27.825  26.167 -0.1896 -0.1215  0.0297
 2216DPPC   C4A48284  20.661  27.996  26.350 -0.0183  0.5945  0.1556
 2216DPPC   C1B48285  19.716  28.086  26.660  0.1984 -0.0128 -0.3552
 2216DPPC   C2B48286  20.147  28.014  26.661  0.2861  0.0405 -0.1129
 2216DPPC   C3B48287  20.423  28.350  26.612  0.2764  0.4529 -0.2575
 2216DPPC   C4B48288  20.792  28.550  26.459 -0.2947  0.0558 -0.1081
 2217DPPC   NC348289  22.268  21.026  23.161  0.1978  0.0867 -0.2309
 2217DPPC   PO448290  22.286  21.374  23.199 -0.0945 -0.1787 -0.2587
 2217DPPC   GL148291  22.602  21.708  23.090  0.1495 -0.1897 -0.0000
 2217DPPC   GL248292  22.605  21.953  22.835 -0.2525 -0.3431  0.1199
 2217DPPC   C1A48293  22.827  21.813  23.366 -0.3278  0.2149  0.2041
 2217DPPC   C2A48294  22.842  22.182  23.653  0.2821  0.0895  0.0515
 2217DPPC   C3A48295  22.978  22.566  23.447 -0.3369 -0.0649 -0.1415
 2217DPPC   C4A48296  23.305  22.928  23.278  0.0027  0.0142  0.2280
 2217DPPC   C1B48297  22.931  22.221  22.577 -0.0092 -0.1768  0.0150
 2217DPPC   C2B48298  23.174  22.566  22.433 -0.3021  0.0024  0.1676
 2217DPPC   C3B48299  23.411  22.966  22.364 -0.1808  0.1320 -0.2275
 2217DPPC   C4B48300  23.682  23.300  22.106 -0.1195 -0.0051 -0.1413
 2218DPPC   NC348301  25.946  20.580  25.621  0.0154 -0.3125  0.2835
 2218DPPC   PO448302  26.036  20.548  25.182  0.0545  0.0602 -0.0184
 2218DPPC   GL148303  26.438  20.603  24.954  0.1366  0.0984 -0.0029
 2218DPPC   GL248304  26.341  20.461  24.660 -0.3861  0.3178  0.1911
 2218DPPC   C1A48305  26.741  20.851  24.978 -0.0964 -0.0096 -0.2258
 2218DPPC   C2A48306  27.144  21.086  24.916  0.1226  0.2486 -0.0420
 2218DPPC   C3A48307  27.570  21.199  24.770  0.0794  0.0289 -0.1017
 2218DPPC   C4A48308  27.787  20.877  25.061 -0.0298  0.2697  0.0604
 2218DPPC   C1B48309  26.581  20.837  24.420  0.4396 -0.2163  0.2368
 2218DPPC   C2B48310  26.929  21.010  24.474  0.3465 -0.1477  0.1692
 2218DPPC   C3B48311  27.253  21.231  24.378 -0.1726  0.0247 -0.1090
 2218DPPC   C4B48312  27.476  21.584  24.415 -0.2696  0.0886 -0.0730
 2219DPPC   NC348313  20.283  28.992   1.599  0.0085  0.1334  0.2458
 2219DPPC   PO448314  19.977  28.930   1.907  0.2041 -0.0093  0.0527
 2219DPPC   GL148315  20.123  29.316   2.052  0.0956  0.0338  0.0354
 2219DPPC   GL248316  20.104  29.437   1.741 -0.1495  0.1266  0.2434
 2219DPPC   C1A48317  20.061  29.707   2.440 -0.0154  0.0539 -0.1149
 2219DPPC   C2A48318  19.965  29.839   2.896 -0.2859  0.0657 -0.1076
 2219DPPC   C3A48319  19.649  30.135   3.083 -0.1837  0.0311 -0.0131
 2219DPPC   C4A48320  19.644  30.453   3.183  0.0351 -0.0901 -0.0016
 2219DPPC   C1B48321  20.071  29.910   1.938 -0.5339  0.0942 -0.1506
 2219DPPC   C2B48322  20.399  30.122   2.244 -0.4390  0.0139  0.0339
 2219DPPC   C3B48323  20.542  30.379   2.598  0.4132 -0.0931  0.3201
 2219DPPC   C4B48324  20.208  30.595   2.655  0.1955  0.0778  0.3058
 2220DPPC   NC348325  19.017  22.105  21.042 -0.0666 -0.2821 -0.0396
 2220DPPC   PO448326  19.191  22.073  20.662  0.1700  0.0169  0.2954
 2220DPPC   GL148327  18.797  22.100  20.511 -0.2367  0.1841  0.0995
 2220DPPC   GL248328  18.775  21.937  20.158 -0.5521 -0.0517 -0.3312
 2220DPPC   C1A48329  18.490  21.759  20.713 -0.0834 -0.1447  0.0703
 2220DPPC   C2A48330  18.360  21.377  20.832 -0.3276 -0.1840  0.0821
 2220DPPC   C3A48331  18.592  21.036  21.072  0.5031 -0.2872  0.0072
 2220DPPC   C4A48332  18.925  21.071  21.345  0.1185 -0.1725 -0.2035
 2220DPPC   C1B48333  18.461  21.764  19.913 -0.2049 -0.0190 -0.1243
 2220DPPC   C2B48334  18.098  21.832  19.855 -0.0087  0.3671  0.1338
 2220DPPC   C3B48335  17.695  21.646  20.015  0.0691 -0.1105 -0.0409
 2220DPPC   C4B48336  17.321  21.591  20.153  0.0463  0.0972 -0.0139
 2221DPPC   NC348337  20.045  23.474  25.282 -0.1105 -0.2533  0.0340
 2221DPPC   PO448338  19.545  23.356  25.059  0.1912  0.1362 -0.2567
 2221DPPC   GL148339  19.222  23.290  25.255 -0.3015 -0.0849 -0.1471
 2221DPPC   GL248340  19.215  23.474  25.422 -0.0182  0.1579  0.0593
 2221DPPC   C1A48341  18.861  23.020  25.343  0.0102 -0.2577  0.1307
 2221DPPC   C2A48342  18.521  22.865  25.542 -0.1659 -0.2731 -0.1398
 2221DPPC   C3A48343  18.417  22.487  25.584  0.2976  0.0989  0.1123
 2221DPPC   C4A48344  18.607  22.268  25.257 -0.3303  0.3740  0.1941
 2221DPPC   C1B48345  19.194  23.259  25.857  0.0469 -0.3111 -0.2723
 2221DPPC   C2B48346  18.897  22.947  25.946  0.0445  0.2038 -0.1567
 2221DPPC   C3B48347  18.689  22.623  26.045  0.0512  0.3619  0.1321
 2221DPPC   C4B48348  18.324  22.343  26.083  0.2584 -0.2467 -0.3195
 2222DPPC   NC348349  20.726  28.784   3.308  0.1359  0.0122  0.2752
 2222DPPC   PO448350  20.842  28.655   3.752 -0.0930  0.2479  0.2042
 2222DPPC   GL148351  20.477  28.669   3.942  0.1765 -0.2901 -0.1809
 2222DPPC   GL248352  20.102  28.530   3.979  0.0207 -0.1923  0.2169
 2222DPPC   C1A48353  20.313  28.985   4.117 -0.1749  0.0663  0.1705
 2222DPPC   C2A48354  20.307  29.240   4.494  0.1871 -0.2333 -0.3551
 2222DPPC   C3A48355  20.231  29.437   4.901  0.0111  0.1651 -0.0749
 2222DPPC   C4A48356  20.277  29.302   5.423  0.0558  0.2223 -0.0424
 2222DPPC   C1B48357  19.929  28.860   3.697 -0.0359  0.4155 -0.2158
 2222DPPC   C2B48358  19.601  29.093   3.583  0.1115  0.0168 -0.2307
 2222DPPC   C3B48359  19.370  29.340   3.336  0.0882  0.1521 -0.1554
 2222DPPC   C4B48360  19.341  29.851   3.491  0.1255  0.0848  0.3281
 2223DPPC   NC348361  22.823  24.699   3.895  0.1462 -0.0578  0.0593
 2223DPPC   PO448362  22.465  24.580   3.595  0.2975 -0.4075 -0.3035
 2223DPPC   GL148363  22.325  24.379   3.964 -0.1128 -0.1267  0.0467
 2223DPPC   GL248364  22.169  24.043   3.828 -0.0254  0.0885  0.0891
 2223DPPC   C1A48365  22.033  24.288   4.187  0.2261 -0.0630 -0.2768
 2223DPPC   C2A48366  21.900  23.956   4.537  0.1178  0.0284  0.0405
 2223DPPC   C3A48367  21.908  23.600   4.859 -0.0025  0.4712 -0.0987
 2223DPPC   C4A48368  22.057  23.557   5.228  0.0588  0.2707  0.1571
 2223DPPC   C1B48369  22.452  23.959   4.143  0.0090 -0.2321 -0.4973
 2223DPPC   C2B48370  22.400  24.016   4.613 -0.0879 -0.0892 -0.0472
 2223DPPC   C3B48371  22.140  24.010   5.006 -0.1771  0.1651  0.2077
 2223DPPC   C4B48372  21.679  23.931   5.156 -0.1006  0.0420 -0.0998
 2224DPPC   NC348373  17.813  27.517  24.317  0.0006 -0.4516  0.1640
 2224DPPC   PO448374  18.277  27.458  24.161  0.0431  0.0994  0.3268
 2224DPPC   GL148375  18.584  27.757  23.972 -0.0635 -0.3283  0.1227
 2224DPPC   GL248376  18.700  28.047  24.081 -0.1759 -0.0134  0.0700
 2224DPPC   C1A48377  18.960  27.982  23.690  0.0908  0.2550  0.1958
 2224DPPC   C2A48378  19.297  28.295  23.563 -0.0932 -0.0077 -0.0124
 2224DPPC   C3A48379  19.388  28.409  23.944  0.1628  0.1408 -0.0011
 2224DPPC   C4A48380  19.068  28.708  24.118 -0.2690 -0.2979 -0.1289
 2224DPPC   C1B48381  18.986  28.254  24.324  0.2200 -0.1329 -0.2373
 2224DPPC   C2B48382  19.255  28.479  24.543 -0.2304 -0.0123  0.1431
 2224DPPC   C3B48383  19.612  28.724  24.330  0.0535  0.3348 -0.1808
 2224DPPC   C4B48384  19.923  29.141  24.247 -0.0498 -0.0602  0.2581
 2225DPPC   NC348385  24.850  19.009  22.117  0.2124 -0.0879 -0.2320
 2225DPPC   PO448386  24.690  19.266  21.774  0.2642  0.2245  0.1327
 2225DPPC   GL148387  24.967  19.148  21.640 -0.3495  0.1893 -0.0196
 2225DPPC   GL248388  25.106  18.859  21.680 -0.2486 -0.1960  0.2262
 2225DPPC   C1A48389  25.206  19.255  21.321  0.2924  0.0206  0.1714
 2225DPPC   C2A48390  25.433  19.349  20.917  0.1385 -0.0555 -0.0497
 2225DPPC   C3A48391  25.277  19.402  20.518  0.1922 -0.1564  0.0972
 2225DPPC   C4A48392  25.463  19.389  20.175 -0.1448  0.0714  0.1213
 2225DPPC   C1B48393  25.560  18.975  21.602 -0.0614  0.0279 -0.3847
 2225DPPC   C2B48394  25.865  19.083  21.498  0.0041  0.1302 -0.0404
 2225DPPC   C3B48395  26.253  19.077  21.400 -0.0273  0.2964  0.1019
 2225DPPC   C4B48396  26.586  18.849  21.187  0.0387  0.3261  0.1833
 2226DPPC   NC348397  18.579  25.238  19.767 -0.0579 -0.1768  0.1561
 2226DPPC   PO448398  18.934  25.108  19.469 -0.0125 -0.0651 -0.0515
 2226DPPC   GL148399  19.080  25.334  19.030 -0.3625 -0.1476  0.2656
 2226DPPC   GL248400  19.109  25.761  18.966 -0.3798 -0.0317 -0.0383
 2226DPPC   C1A48401  19.468  25.160  18.698  0.0115 -0.0293  0.4332
 2226DPPC   C2A48402  19.850  25.226  18.663  0.0498 -0.3958  0.5351
 2226DPPC   C3A48403  20.253  25.288  18.701  0.1000  0.1849  0.3398
 2226DPPC   C4A48404  20.589  25.416  18.985  0.1613  0.1196 -0.3623
 2226DPPC   C1B48405  19.247  25.631  18.592  0.0271 -0.1621  0.2836
 2226DPPC   C2B48406  19.653  25.652  18.335  0.0617 -0.0016  0.1915
 2226DPPC   C3B48407  19.993  25.686  18.518  0.0722 -0.5024  0.3504
 2226DPPC   C4B48408  20.118  25.625  19.052 -0.1309  0.0136  0.2217
 2227DPPC   NC348409  20.064  22.584  17.893  0.0092  0.1284 -0.0374
 2227DPPC   PO448410  20.279  22.916  17.648 -0.1340 -0.1554 -0.0403
 2227DPPC   GL148411  20.534  22.851  17.324 -0.0527  0.1186 -0.0839
 2227DPPC   GL248412  20.358  22.961  17.027 -0.2228 -0.0075 -0.3429
 2227DPPC   C1A48413  21.013  22.897  17.188  0.0422 -0.0450  0.0877
 2227DPPC   C2A48414  21.371  23.242  17.206  0.1673  0.1911  0.0236
 2227DPPC   C3A48415  21.555  23.509  16.951 -0.0561 -0.0064 -0.3244
 2227DPPC   C4A48416  21.889  23.602  16.793  0.0075 -0.1276 -0.0146
 2227DPPC   C1B48417  20.298  22.889  16.637  0.4689 -0.0036 -0.1863
 2227DPPC   C2B48418  20.368  22.831  16.183 -0.1959 -0.1416 -0.3838
 2227DPPC   C3B48419  20.646  23.030  15.877 -0.3493  0.3468  0.1566
 2227DPPC   C4B48420  20.927  23.221  15.639  0.2014  0.0835  0.0429
 2228DPPC   NC348421  16.715  27.598  21.382  0.0453  0.2916 -0.1364
 2228DPPC   PO448422  16.668  27.220  21.340 -0.0041 -0.0014  0.0212
 2228DPPC   GL148423  16.234  27.478  21.357 -0.1499 -0.0392  0.1363
 2228DPPC   GL248424  16.085  27.500  21.763 -0.2520  0.0009 -0.2632
 2228DPPC   C1A48425  15.787  27.423  21.339 -0.1555 -0.0640  0.0416
 2228DPPC   C2A48426  15.330  27.375  21.515 -0.0980 -0.0665  0.0449
 2228DPPC   C3A48427  15.222  27.292  21.843 -0.0349 -0.0656 -0.1352
 2228DPPC   C4A48428  15.201  26.918  22.161 -0.1188 -0.2530  0.0266
 2228DPPC   C1B48429  15.665  27.702  21.803  0.1324 -0.0886  0.3659
 2228DPPC   C2B48430  15.277  27.779  21.990  0.2423 -0.2446  0.1034
 2228DPPC   C3B48431  15.106  27.998  22.329 -0.2836 -0.0047 -0.2617
 2228DPPC   C4B48432  15.005  28.401  22.501 -0.0108  0.0765 -0.2909
 2229DPPC   NC348433  17.524  25.730  24.424 -0.0800  0.3205 -0.0597
 2229DPPC   PO448434  17.531  25.884  23.962 -0.3417 -0.1519  0.3356
 2229DPPC   GL148435  17.098  25.930  24.023 -0.0213  0.3053  0.2567
 2229DPPC   GL248436  17.026  25.739  24.291 -0.0332  0.3581 -0.1701
 2229DPPC   C1A48437  16.622  25.835  24.010  0.1077 -0.0788 -0.0013
 2229DPPC   C2A48438  16.246  25.687  23.769  0.0295  0.0565 -0.1799
 2229DPPC   C3A48439  15.862  25.707  23.766  0.0820 -0.0597  0.1525
 2229DPPC   C4A48440  15.542  25.568  23.749 -0.0593 -0.0275 -0.2361
 2229DPPC   C1B48441  16.746  25.478  24.448  0.2078 -0.0164  0.0910
 2229DPPC   C2B48442  16.467  25.303  24.510 -0.0157  0.0906  0.0794
 2229DPPC   C3B48443  16.239  25.165  24.890 -0.1297 -0.0357  0.2345
 2229DPPC   C4B48444  15.877  24.913  25.020  0.1800 -0.1084 -0.0347
 2230DPPC   NC348445  25.161  27.046   5.096 -0.2461 -0.0197  0.3121
 2230DPPC   PO448446  25.563  26.875   5.230 -0.1468  0.0426  0.2081
 2230DPPC   GL148447  25.456  27.218   5.469 -0.2509 -0.2274  0.1375
 2230DPPC   GL248448  25.329  27.527   5.394 -0.0345 -0.0978  0.0207
 2230DPPC   C1A48449  25.698  27.425   5.765  0.1298 -0.1769 -0.1119
 2230DPPC   C2A48450  26.055  27.541   5.769  0.2626 -0.0822  0.2263
 2230DPPC   C3A48451  26.411  27.763   5.832  0.0695 -0.3022  0.0775
 2230DPPC   C4A48452  26.738  27.621   5.525  0.1625  0.0797  0.1817
 2230DPPC   C1B48453  25.479  27.870   5.671 -0.0094  0.2371 -0.2765
 2230DPPC   C2B48454  25.532  28.251   5.848  0.1646  0.0312 -0.1926
 2230DPPC   C3B48455  25.492  28.344   6.318 -0.5282  0.2570 -0.1995
 2230DPPC   C4B48456  25.678  28.738   6.502  0.1574 -0.0562  0.0595
 2231DPPC   NC348457  20.030  23.139  18.845  0.0389 -0.0619  0.0341
 2231DPPC   PO448458  20.289  23.161  18.480 -0.1047 -0.0574 -0.0251
 2231DPPC   GL148459  20.649  23.286  18.280  0.0018 -0.3052  0.1587
 2231DPPC   GL248460  21.066  23.203  18.340 -0.1879 -0.1733  0.1929
 2231DPPC   C1A48461  20.792  23.542  17.970  0.2026 -0.2981 -0.1076
 2231DPPC   C2A48462  20.796  23.928  17.698  0.2485  0.0759  0.0157
 2231DPPC   C3A48463  20.872  24.204  17.268  0.2250 -0.2365 -0.3355
 2231DPPC   C4A48464  21.146  24.620  17.212 -0.0546 -0.0277 -0.1121
 2231DPPC   C1B48465  21.279  23.281  17.962  0.0539 -0.0200  0.0858
 2231DPPC   C2B48466  21.603  23.564  17.887  0.3649  0.4959 -0.0934
 2231DPPC   C3B48467  22.047  23.806  17.785 -0.3819 -0.3112  0.3208
 2231DPPC   C4B48468  22.397  23.671  17.572 -0.2019 -0.0076  0.0223
 2232DPPC   NC348469  24.823  19.417  23.658 -0.2763 -0.1588  0.1924
 2232DPPC   PO448470  24.923  19.069  24.015 -0.1863 -0.0411  0.4401
 2232DPPC   GL148471  24.876  18.573  24.130 -0.1638 -0.1629 -0.3610
 2232DPPC   GL248472  24.511  18.418  24.068  0.1072 -0.0927  0.1754
 2232DPPC   C1A48473  24.864  18.125  24.246  0.3895  0.0583 -0.1686
 2232DPPC   C2A48474  25.128  17.824  24.521  0.1186 -0.0472  0.4215
 2232DPPC   C3A48475  24.930  17.531  24.798  0.0064  0.3350 -0.3862
 2232DPPC   C4A48476  24.880  17.585  25.162  0.3192 -0.1418  0.3064
 2232DPPC   C1B48477  24.397  18.039  23.979 -0.2189  0.1500 -0.0147
 2232DPPC   C2B48478  24.433  17.571  23.956  0.0217  0.1998  0.1494
 2232DPPC   C3B48479  24.556  17.136  24.042 -0.1341  0.1421 -0.0348
 2232DPPC   C4B48480  24.526  16.681  24.019  0.1449  0.2236 -0.0443
 2233DPPC   NC348481  18.523  25.874   0.608 -0.0791 -0.2458  0.0903
 2233DPPC   PO448482  18.210  25.828   0.380  0.4242 -0.1463  0.2897
 2233DPPC   GL148483  18.135  25.551   0.568  0.1704 -0.0552 -0.0740
 2233DPPC   GL248484  17.940  25.582   0.756  0.0780 -0.1895 -0.1648
 2233DPPC   C1A48485  18.062  25.080   0.528 -0.4301 -0.0650 -0.2179
 2233DPPC   C2A48486  17.785  24.708   0.769 -0.0365 -0.0208  0.4697
 2233DPPC   C3A48487  17.876  24.252   0.887  0.0458 -0.0135  0.0562
 2233DPPC   C4A48488  17.977  23.773   0.943  0.2359  0.2209  0.0628
 2233DPPC   C1B48489  17.612  25.573   0.908 -0.2318  0.1812 -0.0543
 2233DPPC   C2B48490  17.221  25.708   0.804 -0.0509 -0.2001  0.2119
 2233DPPC   C3B48491  16.744  25.769   0.951  0.0768 -0.2311  0.0045
 2233DPPC   C4B48492  16.538  25.904   1.448  0.2083 -0.1312 -0.3495
 2234DPPC   NC348493  17.187  28.902  21.435  0.0240  0.1492  0.0520
 2234DPPC   PO448494  17.012  28.433  21.451  0.0822 -0.1155 -0.3826
 2234DPPC   GL148495  16.787  28.606  21.107 -0.0672 -0.0009  0.1846
 2234DPPC   GL248496  16.745  28.924  21.151  0.2253 -0.0112  0.1526
 2234DPPC   C1A48497  16.836  28.697  20.655 -0.0566  0.0983 -0.1110
 2234DPPC   C2A48498  16.954  29.113  20.366  0.0577 -0.0530  0.0282
 2234DPPC   C3A48499  16.750  29.511  20.305  0.0317 -0.0095 -0.5972
 2234DPPC   C4A48500  17.046  29.775  20.267  0.0019 -0.2863  0.0396
 2234DPPC   C1B48501  16.637  29.234  20.787 -0.1121  0.1040 -0.0279
 2234DPPC   C2B48502  16.316  29.393  20.455  0.1568  0.1776  0.2263
 2234DPPC   C3B48503  16.265  29.624  20.025  0.2204  0.2050 -0.2251
 2234DPPC   C4B48504  16.481  29.592  19.504 -0.1740  0.0429  0.1797
 2235DPPC   NC348505  22.778  26.161   3.247  0.0483 -0.2536  0.0963
 2235DPPC   PO448506  23.008  26.613   3.150  0.3379  0.0625  0.1398
 2235DPPC   GL148507  23.237  26.720   2.814  0.0243 -0.0023 -0.1336
 2235DPPC   GL248508  23.495  26.537   2.861  0.0335 -0.1546  0.0635
 2235DPPC   C1A48509  23.470  26.907   2.467 -0.0708 -0.0304 -0.0524
 2235DPPC   C2A48510  23.758  27.218   2.282  0.1699 -0.0951 -0.0527
 2235DPPC   C3A48511  24.120  27.276   1.934  0.0003  0.0370 -0.2422
 2235DPPC   C4A48512  24.316  27.136   1.556  0.2514 -0.5417 -0.0079
 2235DPPC   C1B48513  23.632  26.384   2.496 -0.2356 -0.2397  0.0262
 2235DPPC   C2B48514  23.868  26.655   2.256 -0.1649  0.2025  0.4037
 2235DPPC   C3B48515  24.219  26.810   1.997  0.3378  0.1276  0.1568
 2235DPPC   C4B48516  24.592  26.808   1.731 -0.1992 -0.0896 -0.0904
 2236DPPC   NC348517  22.569  21.865  24.897 -0.0341 -0.1978  0.0635
 2236DPPC   PO448518  22.690  21.437  24.606  0.1828  0.2779 -0.2110
 2236DPPC   GL148519  22.916  21.822  24.550 -0.5639 -0.0355  0.0743
 2236DPPC   GL248520  22.734  22.175  24.562  0.1518  0.0921 -0.0761
 2236DPPC   C1A48521  23.295  22.128  24.609 -0.1772 -0.2057 -0.1535
 2236DPPC   C2A48522  23.515  22.384  24.352 -0.2741  0.0404 -0.0587
 2236DPPC   C3A48523  23.730  22.657  24.106  0.1483  0.0572  0.1552
 2236DPPC   C4A48524  23.387  22.984  23.896 -0.0711  0.0470  0.4177
 2236DPPC   C1B48525  22.914  22.379  24.215 -0.1939  0.0099 -0.1670
 2236DPPC   C2B48526  23.225  22.506  23.901  0.1649 -0.1054  0.1431
 2236DPPC   C3B48527  23.496  22.604  23.604 -0.2296  0.1152 -0.0107
 2236DPPC   C4B48528  23.752  22.974  23.498 -0.0824  0.2469 -0.0895
 2237DPPC   NC348529  22.975  27.890   3.406  0.0913 -0.2328  0.1850
 2237DPPC   PO448530  22.818  28.258   3.187  0.0294  0.2577 -0.0791
 2237DPPC   GL148531  22.827  28.628   3.056  0.1364  0.2824 -0.3670
 2237DPPC   GL248532  22.909  28.931   3.286 -0.4057  0.2240 -0.3247
 2237DPPC   C1A48533  22.922  28.889   2.704  0.3338 -0.0540 -0.2117
 2237DPPC   C2A48534  22.741  29.263   2.526  0.0741 -0.2941 -0.3421
 2237DPPC   C3A48535  22.524  29.500   2.514 -0.0367 -0.1030 -0.1538
 2237DPPC   C4A48536  22.147  29.607   2.666 -0.3097 -0.2719  0.2034
 2237DPPC   C1B48537  22.949  29.394   3.349 -0.0466 -0.0892  0.3040
 2237DPPC   C2B48538  23.155  29.749   3.520 -0.0186 -0.0107  0.0761
 2237DPPC   C3B48539  23.207  30.160   3.690  0.1039  0.0446 -0.0574
 2237DPPC   C4B48540  23.230  30.361   4.149  0.0858  0.0597  0.3325
 2238DPPC   NC348541  18.182  29.018  25.126  0.2142 -0.0820 -0.0468
 2238DPPC   PO448542  17.978  28.762  24.911 -0.0555  0.2609 -0.1602
 2238DPPC   GL148543  18.263  28.819  24.635 -0.0581 -0.1146  0.1374
 2238DPPC   GL248544  18.387  29.102  24.613  0.0957 -0.3153 -0.0748
 2238DPPC   C1A48545  18.662  28.677  24.560 -0.0667  0.0274 -0.1374
 2238DPPC   C2A48546  18.864  28.580  24.905 -0.1231  0.0254  0.1250
 2238DPPC   C3A48547  18.908  28.374  25.297  0.1862 -0.1919  0.2440
 2238DPPC   C4A48548  19.275  28.394  25.578 -0.2375  0.1002 -0.2695
 2238DPPC   C1B48549  18.582  29.533  24.909 -0.1334 -0.1181 -0.1146
 2238DPPC   C2B48550  18.472  29.936  25.044  0.1777 -0.1062 -0.1359
 2238DPPC   C3B48551  18.299  30.257  25.251  0.2199  0.0303 -0.0765
 2238DPPC   C4B48552  18.246  30.612  25.331 -0.3463  0.0819  0.2077
 2239DPPC   NC348553  25.836  25.894   5.366 -0.0034  0.3163 -0.0920
 2239DPPC   PO448554  26.048  26.122   5.559  0.2199  0.1433 -0.2533
 2239DPPC   GL148555  26.077  25.881   5.918  0.1161 -0.0637 -0.2294
 2239DPPC   GL248556  26.292  25.729   5.867  0.2349  0.2336 -0.0320
 2239DPPC   C1A48557  26.319  25.922   6.338 -0.1516 -0.1356 -0.0058
 2239DPPC   C2A48558  26.230  25.531   6.624 -0.1704 -0.2892 -0.1672
 2239DPPC   C3A48559  26.145  25.156   6.356 -0.2009 -0.0976 -0.1961
 2239DPPC   C4A48560  25.886  24.796   6.419 -0.2030 -0.0368 -0.1464
 2239DPPC   C1B48561  26.471  25.437   6.167 -0.1760  0.4020 -0.0918
 2239DPPC   C2B48562  26.630  25.170   6.494  0.0244 -0.1526 -0.0587
 2239DPPC   C3B48563  26.857  25.283   6.804 -0.2741  0.0404  0.0920
 2239DPPC   C4B48564  27.169  25.466   7.063  0.2818  0.0089 -0.2451
 2240DPPC   NC348565  20.287  21.242  20.255 -0.2554  0.1383  0.0430
 2240DPPC   PO448566  20.362  20.799  20.192 -0.3037 -0.0197  0.1253
 2240DPPC   GL148567  20.070  20.408  20.083  0.0662 -0.1864  0.0178
 2240DPPC   GL248568  19.894  20.353  20.424 -0.1867  0.2139  0.0326
 2240DPPC   C1A48569  19.935  20.099  19.863  0.3060  0.0171  0.0391
 2240DPPC   C2A48570  19.507  19.992  19.641  0.0769  0.1686  0.0611
 2240DPPC   C3A48571  19.100  20.021  19.540  0.1371  0.4494  0.3181
 2240DPPC   C4A48572  18.696  19.808  19.526  0.3292  0.0750 -0.1009
 2240DPPC   C1B48573  19.710  19.906  20.278  0.0588 -0.0830  0.2687
 2240DPPC   C2B48574  19.454  19.683  20.057  0.3066  0.1670 -0.0105
 2240DPPC   C3B48575  18.999  19.729  19.942 -0.3381 -0.1819  0.3067
 2240DPPC   C4B48576  18.670  19.401  20.138  0.1290 -0.0805 -0.0857
 2241DPPC   NC348577  18.440  24.287  20.082 -0.0303  0.0293  0.4742
 2241DPPC   PO448578  18.296  24.005  19.620 -0.1566 -0.3913 -0.1591
 2241DPPC   GL148579  17.810  24.122  19.430 -0.1111  0.0057  0.1773
 2241DPPC   GL248580  17.741  24.445  19.202 -0.0106 -0.0764 -0.0422
 2241DPPC   C1A48581  17.326  24.106  19.342  0.1980  0.0175  0.0890
 2241DPPC   C2A48582  17.172  23.772  19.102  0.4963 -0.1033 -0.1323
 2241DPPC   C3A48583  16.804  23.571  19.052 -0.0561  0.5454 -0.0821
 2241DPPC   C4A48584  16.558  23.267  19.184 -0.0527 -0.0839 -0.0940
 2241DPPC   C1B48585  17.656  24.558  18.749 -0.1822 -0.2169  0.0189
 2241DPPC   C2B48586  17.643  24.736  18.317 -0.0588 -0.1965 -0.0288
 2241DPPC   C3B48587  17.605  24.983  17.920  0.1415  0.1424 -0.0291
 2241DPPC   C4B48588  17.414  25.378  17.819 -0.1295  0.0763  0.0307
 2242DPPC   NC348589  22.231  28.187   4.989 -0.0302  0.0462  0.1105
 2242DPPC   PO448590  22.266  28.467   4.635 -0.0225  0.0829 -0.1171
 2242DPPC   GL148591  22.211  28.864   4.724 -0.1613 -0.1661 -0.2248
 2242DPPC   GL248592  21.953  28.764   4.848  0.0951 -0.3898  0.1307
 2242DPPC   C1A48593  22.325  29.286   4.812 -0.2864  0.0785  0.0136
 2242DPPC   C2A48594  22.605  29.386   4.351 -0.0369  0.0193 -0.1531
 2242DPPC   C3A48595  22.448  29.595   3.994  0.1170 -0.0066 -0.2338
 2242DPPC   C4A48596  22.501  30.080   3.779 -0.1920  0.3002 -0.0773
 2242DPPC   C1B48597  21.972  29.102   5.157  0.1932  0.2881  0.3764
 2242DPPC   C2B48598  21.834  29.383   5.508  0.0747 -0.0384  0.0043
 2242DPPC   C3B48599  22.062  29.566   5.814  0.3577 -0.2160  0.0383
 2242DPPC   C4B48600  22.368  29.807   5.575  0.0137 -0.0026 -0.0433
 2243DPPC   NC348601  25.079  19.183  22.601  0.0123 -0.0624  0.0902
 2243DPPC   PO448602  25.092  19.052  22.979  0.1304 -0.2452  0.0874
 2243DPPC   GL148603  25.433  18.775  22.839 -0.0576  0.2872  0.0898
 2243DPPC   GL248604  25.547  18.954  22.557 -0.0758  0.0438  0.1236
 2243DPPC   C1A48605  25.785  18.627  22.884  0.2607 -0.1926 -0.4234
 2243DPPC   C2A48606  26.210  18.396  22.823 -0.0320 -0.2975 -0.2789
 2243DPPC   C3A48607  26.361  18.050  22.986 -0.0822  0.1460  0.0568
 2243DPPC   C4A48608  26.577  17.779  22.589  0.0759  0.0719  0.3135
 2243DPPC   C1B48609  26.038  18.982  22.436  0.4510 -0.1000  0.2689
 2243DPPC   C2B48610  26.388  19.102  22.271  0.0444 -0.0036  0.2580
 2243DPPC   C3B48611  26.580  19.200  21.804  0.2719  0.3025  0.1897
 2243DPPC   C4B48612  26.773  19.387  21.426  0.1298  0.2511  0.1546
 2244DPPC   NC348613  21.079  26.551   1.568 -0.3006  0.0566  0.1457
 2244DPPC   PO448614  21.312  26.816   1.788 -0.2355 -0.1998 -0.2528
 2244DPPC   GL148615  21.555  27.061   1.522 -0.1686 -0.1032  0.0524
 2244DPPC   GL248616  21.671  27.349   1.474  0.3830  0.0476 -0.0858
 2244DPPC   C1A48617  21.449  27.267   1.015 -0.0351 -0.1743 -0.1479
 2244DPPC   C2A48618  21.462  27.527   0.737  0.3889  0.0158  0.1675
 2244DPPC   C3A48619  21.729  27.791   0.599  0.5021  0.1653  0.2214
 2244DPPC   C4A48620  21.900  28.059   0.276 -0.3274  0.0467  0.1888
 2244DPPC   C1B48621  21.944  27.628   1.265  0.3388 -0.1680 -0.1558
 2244DPPC   C2B48622  22.394  27.797   1.076 -0.2689 -0.2321  0.0006
 2244DPPC   C3B48623  22.674  27.994   0.962 -0.4324 -0.2171 -0.1111
 2244DPPC   C4B48624  22.726  28.384   0.842 -0.0309  0.2028  0.0160
 2245DPPC   NC348625  26.509  21.603   0.095  0.0109  0.1257  0.2794
 2245DPPC   PO448626  26.672  21.348   0.460 -0.0473  0.1870  0.0458
 2245DPPC   GL148627  27.039  21.576   0.337  0.0932  0.0006  0.2261
 2245DPPC   GL248628  27.291  21.756   0.484  0.0626 -0.0272  0.1601
 2245DPPC   C1A48629  27.201  22.003  26.899  0.2051  0.1460 -0.0255
 2245DPPC   C2A48630  27.168  22.353  26.568 -0.2073  0.0021 -0.1322
 2245DPPC   C3A48631  27.074  22.752  26.352  0.2165  0.0159 -0.0933
 2245DPPC   C4A48632  26.791  22.876  26.048  0.0083  0.0677  0.1121
 2245DPPC   C1B48633  27.430  22.112   0.389  0.1053 -0.2008 -0.0090
 2245DPPC   C2B48634  27.628  22.568   0.387  0.1232  0.2659  0.5556
 2245DPPC   C3B48635  28.015  22.705   0.511  0.2678  0.0388 -0.3393
 2245DPPC   C4B48636  28.339  22.677   0.990 -0.1221 -0.2212  0.0157
 2246DPPC   NC348637  21.370  24.438   1.758 -0.0053 -0.0993  0.1425
 2246DPPC   PO448638  21.187  24.679   2.020  0.3493 -0.4555 -0.0955
 2246DPPC   GL148639  20.742  24.677   2.125 -0.0369 -0.1494  0.0469
 2246DPPC   GL248640  20.828  24.472   2.346 -0.1626 -0.0565 -0.2176
 2246DPPC   C1A48641  20.384  24.387   2.091 -0.3034 -0.0891 -0.0386
 2246DPPC   C2A48642  20.004  24.230   2.277 -0.1847 -0.3263  0.1194
 2246DPPC   C3A48643  19.728  24.031   2.524 -0.1099  0.0132  0.3901
 2246DPPC   C4A48644  19.434  23.798   2.743 -0.0842  0.1838  0.1777
 2246DPPC   C1B48645  20.480  24.449   2.638  0.1226 -0.0140  0.0660
 2246DPPC   C2B48646  20.172  24.232   2.894 -0.1906 -0.0941 -0.2778
 2246DPPC   C3B48647  19.961  24.062   3.116 -0.1382 -0.0229  0.2238
 2246DPPC   C4B48648  19.850  24.131   3.490 -0.1983  0.1769  0.0586
 2247DPPC   NC348649  26.358  19.260  24.740  0.1885  0.1469  0.0859
 2247DPPC   PO448650  26.486  19.586  24.649 -0.0294 -0.0506  0.1029
 2247DPPC   GL148651  26.861  19.629  24.683  0.1804  0.1196  0.3896
 2247DPPC   GL248652  27.053  19.604  24.948 -0.1388 -0.3834  0.2588
 2247DPPC   C1A48653  27.234  19.865  24.466  0.2488 -0.0443 -0.1747
 2247DPPC   C2A48654  27.462  20.201  24.277 -0.0688  0.1083  0.1719
 2247DPPC   C3A48655  27.512  20.537  24.031 -0.3635 -0.0464  0.1101
 2247DPPC   C4A48656  27.372  21.001  23.907 -0.4271 -0.0966 -0.1135
 2247DPPC   C1B48657  27.466  19.661  24.865 -0.2560 -0.0443  0.1420
 2247DPPC   C2B48658  27.690  19.458  24.586 -0.0471 -0.0167 -0.0177
 2247DPPC   C3B48659  28.144  19.454  24.395  0.0115  0.1311  0.2138
 2247DPPC   C4B48660  28.469  19.319  24.526 -0.0497 -0.1668 -0.2990
 2248DPPC   NC348661  18.705  25.784   0.034 -0.2862  0.0002  0.2069
 2248DPPC   PO448662  18.876  25.547   0.302  0.3033 -0.0249  0.1995
 2248DPPC   GL148663  18.631  25.376   0.676  0.0528  0.0538 -0.0173
 2248DPPC   GL248664  18.884  25.264   0.930  0.3053  0.1592  0.0117
 2248DPPC   C1A48665  18.386  25.208   1.009 -0.0232 -0.0153  0.1869
 2248DPPC   C2A48666  17.901  25.170   1.092 -0.1128 -0.1870  0.0724
 2248DPPC   C3A48667  17.445  25.229   1.324  0.0770 -0.0213 -0.0398
 2248DPPC   C4A48668  17.115  25.150   1.705 -0.0318 -0.4352  0.0145
 2248DPPC   C1B48669  18.683  25.170   1.396 -0.0115  0.0942 -0.0688
 2248DPPC   C2B48670  18.382  24.953   1.677  0.1073  0.0778 -0.0193
 2248DPPC   C3B48671  18.003  24.798   1.786 -0.4020  0.1654  0.1186
 2248DPPC   C4B48672  17.502  24.779   1.795  0.1159 -0.2136 -0.0254
 2249DPPC   NC348673  17.394  25.081  23.419 -0.1800  0.0009 -0.1258
 2249DPPC   PO448674  17.527  24.673  23.478  0.0587 -0.0554 -0.0022
 2249DPPC   GL148675  17.252  24.281  23.463 -0.3009  0.3539 -0.0675
 2249DPPC   GL248676  17.241  24.352  23.175  0.1440  0.1213 -0.0012
 2249DPPC   C1A48677  16.793  24.239  23.386 -0.2071 -0.2587 -0.1805
 2249DPPC   C2A48678  16.458  24.136  23.441 -0.3071  0.0016 -0.1015
 2249DPPC   C3A48679  16.123  23.765  23.639 -0.1537 -0.2258  0.0240
 2249DPPC   C4A48680  15.858  23.543  23.483  0.0630  0.2064 -0.0462
 2249DPPC   C1B48681  16.797  24.398  22.881 -0.1434 -0.1933 -0.0345
 2249DPPC   C2B48682  16.539  24.750  22.661  0.0962  0.3619 -0.1075
 2249DPPC   C3B48683  16.259  24.627  22.475 -0.1876  0.4398 -0.3984
 2249DPPC   C4B48684  15.788  24.604  22.368  0.2116  0.1639  0.3483
 2250DPPC   NC348685  20.720  24.039   1.043  0.0431  0.1215 -0.2708
 2250DPPC   PO448686  20.427  23.781   0.684 -0.0484  0.1858  0.1377
 2250DPPC   GL148687  20.279  23.512   0.988 -0.2603  0.1033 -0.4445
 2250DPPC   GL248688  20.570  23.205   0.971 -0.3059 -0.1390 -0.1143
 2250DPPC   C1A48689  19.917  23.370   1.231 -0.3481  0.1102  0.0685
 2250DPPC   C2A48690  19.697  23.055   1.480 -0.0875 -0.1141  0.0181
 2250DPPC   C3A48691  19.840  22.722   1.854 -0.0526  0.3328  0.1317
 2250DPPC   C4A48692  20.198  22.680   2.154  0.0650 -0.1416 -0.1933
 2250DPPC   C1B48693  20.364  23.036   1.329  0.0031  0.0693 -0.0059
 2250DPPC   C2B48694  20.236  22.878   1.630 -0.0184  0.1328  0.1271
 2250DPPC   C3B48695  20.359  22.424   1.789  0.0921 -0.0492  0.1063
 2250DPPC   C4B48696  20.171  22.088   2.070 -0.0172 -0.2196 -0.0969
 2251DPPC   NC348697  19.631  22.432  18.119 -0.1593  0.3015  0.2562
 2251DPPC   PO448698  19.358  22.805  18.023  0.2947 -0.0853  0.2910
 2251DPPC   GL148699  19.144  23.180  17.798  0.2578 -0.3639  0.0969
 2251DPPC   GL248700  19.058  23.021  17.546  0.5211 -0.1502  0.3085
 2251DPPC   C1A48701  18.727  23.354  17.522  0.0763 -0.2078 -0.0416
 2251DPPC   C2A48702  18.498  23.491  17.163 -0.3553  0.1563 -0.0894
 2251DPPC   C3A48703  18.322  23.172  16.911 -0.0571 -0.1811  0.0389
 2251DPPC   C4A48704  18.390  22.709  16.797  0.3631 -0.3492  0.3689
 2251DPPC   C1B48705  18.921  22.532  17.541 -0.0415 -0.0955  0.0575
 2251DPPC   C2B48706  19.170  22.115  17.563 -0.3044 -0.2455 -0.0277
 2251DPPC   C3B48707  19.044  21.763  17.662  0.2666 -0.2914  0.2320
 2251DPPC   C4B48708  18.625  21.577  17.793  0.2556 -0.0665  0.0500
 2252DPPC   NC348709  17.632  24.526  24.420 -0.0756 -0.1288 -0.0211
 2252DPPC   PO448710  17.395  24.894  24.345  0.0914 -0.2370 -0.1991
 2252DPPC   GL148711  17.034  24.830  24.407  0.0329 -0.0251  0.4079
 2252DPPC   GL248712  17.172  24.541  24.614 -0.0227  0.1518  0.0593
 2252DPPC   C1A48713  16.666  24.865  24.410  0.0829  0.3327  0.0145
 2252DPPC   C2A48714  16.204  24.793  24.513  0.0223 -0.0475  0.0709
 2252DPPC   C3A48715  15.948  25.042  24.426 -0.1402  0.0367  0.0732
 2252DPPC   C4A48716  15.589  25.260  24.351  0.2364 -0.0953 -0.1515
 2252DPPC   C1B48717  16.822  24.363  24.713  0.0981  0.0674 -0.3675
 2252DPPC   C2B48718  16.632  23.996  25.112  0.2363  0.1614 -0.0909
 2252DPPC   C3B48719  16.827  23.913  25.444  0.0712  0.1970  0.4849
 2252DPPC   C4B48720  16.675  24.096  25.798  0.1644 -0.0601 -0.0139
 2253DPPC   NC348721  17.777  24.827  20.053  0.0790 -0.3163  0.0770
 2253DPPC   PO448722  17.693  25.067  20.362 -0.1830  0.2286 -0.1267
 2253DPPC   GL148723  17.329  24.878  20.156  0.4298 -0.5544 -0.1011
 2253DPPC   GL248724  17.302  24.990  19.769 -0.0357 -0.0053 -0.1757
 2253DPPC   C1A48725  16.908  24.618  19.982 -0.0672  0.2223  0.1044
 2253DPPC   C2A48726  16.646  24.379  20.047 -0.6482  0.2851 -0.0086
 2253DPPC   C3A48727  16.428  23.931  20.122 -0.2648 -0.0389 -0.1217
 2253DPPC   C4A48728  16.079  23.865  20.425  0.0510  0.0898  0.2232
 2253DPPC   C1B48729  17.048  25.116  19.385  0.1016  0.0927  0.0199
 2253DPPC   C2B48730  17.048  25.153  19.034 -0.1221  0.2385 -0.1346
 2253DPPC   C3B48731  17.366  25.044  18.652  0.3208 -0.1498 -0.1545
 2253DPPC   C4B48732  17.311  25.111  18.234  0.0253 -0.0121 -0.1295
 2254DPPC   NC348733  23.920  23.668   3.618 -0.2341  0.0990 -0.1480
 2254DPPC   PO448734  23.550  23.994   3.868  0.0266  0.2971  0.0133
 2254DPPC   GL148735  23.350  23.657   4.128  0.1894  0.1629  0.2312
 2254DPPC   GL248736  23.023  23.722   3.955  0.0761 -0.1102  0.1203
 2254DPPC   C1A48737  23.081  23.280   4.186 -0.1155 -0.1024 -0.1994
 2254DPPC   C2A48738  23.172  23.004   4.525 -0.0666 -0.1169 -0.4878
 2254DPPC   C3A48739  23.182  23.026   4.954  0.1761 -0.2629 -0.1201
 2254DPPC   C4A48740  23.042  23.318   5.298 -0.1669  0.0645 -0.3217
 2254DPPC   C1B48741  22.663  23.506   4.169  0.4219 -0.2327 -0.1395
 2254DPPC   C2B48742  22.467  23.569   4.439 -0.3522 -0.0643 -0.0006
 2254DPPC   C3B48743  22.440  23.632   4.845  0.0977 -0.3287 -0.0095
 2254DPPC   C4B48744  22.579  23.426   5.283  0.0461 -0.1641 -0.0253
 2255DPPC   NC348745  19.042  22.956  18.413  0.0259 -0.1216  0.0430
 2255DPPC   PO448746  19.089  22.945  18.777  0.1401 -0.1537  0.1894
 2255DPPC   GL148747  18.728  22.720  18.804  0.0923  0.2483 -0.1443
 2255DPPC   GL248748  18.602  22.938  18.593  0.2444  0.5073 -0.0494
 2255DPPC   C1A48749  18.411  22.417  18.595 -0.0101  0.3195 -0.0150
 2255DPPC   C2A48750  18.266  22.135  18.343  0.1953 -0.1699  0.0743
 2255DPPC   C3A48751  18.657  21.978  18.241 -0.0407 -0.0909 -0.1409
 2255DPPC   C4A48752  19.034  21.708  18.151 -0.3098  0.4305 -0.1152
 2255DPPC   C1B48753  18.327  22.868  18.260 -0.3779 -0.2170  0.0412
 2255DPPC   C2B48754  18.136  22.497  18.061 -0.0424 -0.3249  0.0034
 2255DPPC   C3B48755  18.013  22.604  17.646 -0.0856 -0.0371 -0.1733
 2255DPPC   C4B48756  18.138  22.872  17.263  0.0256 -0.0666  0.0862
 2256DPPC   NC348757  18.339  23.534  22.680  0.2365  0.1267  0.1087
 2256DPPC   PO448758  18.645  23.220  22.851 -0.2095  0.0264 -0.0482
 2256DPPC   GL148759  18.315  23.013  22.657 -0.3177  0.2050  0.2242
 2256DPPC   GL248760  18.387  22.813  22.457 -0.0778  0.1049  0.0115
 2256DPPC   C1A48761  17.872  22.887  22.773  0.0649 -0.2226  0.1270
 2256DPPC   C2A48762  17.561  22.676  23.123 -0.2366 -0.1014  0.0939
 2256DPPC   C3A48763  17.266  22.483  23.354 -0.1759 -0.0874  0.2395
 2256DPPC   C4A48764  17.090  22.328  23.718  0.1499  0.2075  0.0821
 2256DPPC   C1B48765  17.998  22.537  22.278 -0.4765  0.3364  0.2615
 2256DPPC   C2B48766  18.021  22.176  22.185 -0.3595 -0.3140 -0.1380
 2256DPPC   C3B48767  17.799  21.743  22.190 -0.4207  0.0173  0.0432
 2256DPPC   C4B48768  17.509  21.465  22.421 -0.0234  0.5179 -0.2645
 2257DPPC   NC348769  24.035  21.684   0.049  0.0947 -0.5018  0.2724
 2257DPPC   PO448770  24.083  21.963  26.573  0.0010 -0.2603  0.0365
 2257DPPC   GL148771  24.166  22.455  26.505  0.1393 -0.0781 -0.0693
 2257DPPC   GL248772  24.283  22.673  26.207 -0.0669 -0.3962 -0.3494
 2257DPPC   C1A48773  24.334  22.926  26.624 -0.2569 -0.2082 -0.0735
 2257DPPC   C2A48774  24.514  23.337  26.400 -0.2603 -0.2882 -0.2823
 2257DPPC   C3A48775  24.610  23.732  26.199 -0.1774 -0.2088  0.0852
 2257DPPC   C4A48776  24.607  23.957  25.826  0.0825 -0.1714  0.3686
 2257DPPC   C1B48777  24.555  22.817  26.126 -0.0065 -0.0567  0.1578
 2257DPPC   C2B48778  24.664  23.122  25.905 -0.0731 -0.1891  0.2609
 2257DPPC   C3B48779  24.456  23.439  25.771 -0.0305  0.0273  0.1436
 2257DPPC   C4B48780  24.239  23.665  25.369  0.1093 -0.0630  0.2797
 2258DPPC   NC348781  18.099  23.362  21.363 -0.1879  0.0256 -0.1073
 2258DPPC   PO448782  18.140  23.625  21.076  0.4376 -0.1071 -0.3886
 2258DPPC   GL148783  17.703  23.562  21.038  0.2735  0.0138  0.0356
 2258DPPC   GL248784  17.589  23.369  21.279 -0.3210  0.0668 -0.1167
 2258DPPC   C1A48785  17.225  23.613  21.063 -0.2681  0.0048 -0.2146
 2258DPPC   C2A48786  16.835  23.538  20.811 -0.3270  0.0497 -0.0434
 2258DPPC   C3A48787  16.510  23.225  20.847  0.0399  0.2522 -0.4216
 2258DPPC   C4A48788  16.384  22.801  20.661  0.1115  0.0869  0.4004
 2258DPPC   C1B48789  17.384  22.989  21.198 -0.2298 -0.0379 -0.2430
 2258DPPC   C2B48790  17.372  22.627  20.973 -0.1156  0.0359  0.1528
 2258DPPC   C3B48791  17.085  22.388  21.130  0.1709 -0.0567 -0.0973
 2258DPPC   C4B48792  16.936  22.068  21.179  0.4812 -0.1535 -0.0630
 2259DPPC   NC348793  25.457  19.021  23.235 -0.2881  0.1089 -0.1718
 2259DPPC   PO448794  25.559  18.776  23.452 -0.1539 -0.2217  0.0984
 2259DPPC   GL148795  25.907  18.572  23.365  0.0377  0.0493  0.0115
 2259DPPC   GL248796  25.988  18.557  23.647  0.0669 -0.1438 -0.0357
 2259DPPC   C1A48797  25.982  18.193  23.312  0.0264  0.2056 -0.1745
 2259DPPC   C2A48798  25.664  17.902  23.301 -0.1359 -0.2974  0.0963
 2259DPPC   C3A48799  25.489  17.525  23.406  0.0283 -0.1742 -0.2458
 2259DPPC   C4A48800  25.314  17.060  23.398  0.0849  0.0325 -0.0296
 2259DPPC   C1B48801  26.039  18.099  23.891 -0.0958 -0.0577 -0.2018
 2259DPPC   C2B48802  25.904  17.839  24.184  0.0433 -0.0348  0.0479
 2259DPPC   C3B48803  25.607  17.656  24.366 -0.1299  0.0551 -0.2501
 2259DPPC   C4B48804  25.510  17.317  24.569  0.0349 -0.0777 -0.0125
 2260DPPC   NC348805  20.902  20.821  21.379  0.2476 -0.3184  0.0710
 2260DPPC   PO448806  20.809  20.453  21.669  0.0082 -0.0003 -0.0637
 2260DPPC   GL148807  20.718  20.048  21.835 -0.4604 -0.1153 -0.2735
 2260DPPC   GL248808  21.053  19.943  21.601  0.0385 -0.1032  0.2525
 2260DPPC   C1A48809  20.475  19.742  21.819  0.2858 -0.3601 -0.0347
 2260DPPC   C2A48810  20.400  19.349  21.564  0.1038  0.1115  0.1315
 2260DPPC   C3A48811  20.392  18.958  21.338  0.1423 -0.1424 -0.2263
 2260DPPC   C4A48812  20.593  18.605  21.072  0.0397  0.3483 -0.0372
 2260DPPC   C1B48813  20.934  19.631  21.912 -0.2907  0.2728  0.1681
 2260DPPC   C2B48814  20.826  19.244  21.834  0.2157 -0.0598 -0.0932
 2260DPPC   C3B48815  20.720  18.868  21.621 -0.2426 -0.0427  0.1611
 2260DPPC   C4B48816  20.515  18.496  21.587  0.1404  0.2205  0.0914
 2261DPPC   NC348817  17.338  26.907  23.518 -0.4399 -0.1614  0.2391
 2261DPPC   PO448818  16.899  26.783  23.519  0.0411  0.2546 -0.3520
 2261DPPC   GL148819  16.710  26.594  23.815  0.3344  0.0313  0.2674
 2261DPPC   GL248820  16.700  26.295  23.728  0.0678  0.1502 -0.0722
 2261DPPC   C1A48821  16.417  26.308  24.086 -0.1590 -0.1084  0.1843
 2261DPPC   C2A48822  16.175  25.943  24.203  0.1071 -0.1939  0.1776
 2261DPPC   C3A48823  16.028  25.571  24.219 -0.0029  0.4455 -0.2832
 2261DPPC   C4A48824  16.040  25.251  23.955  0.1246 -0.3371 -0.0003
 2261DPPC   C1B48825  16.404  26.094  23.596  0.3231 -0.3037 -0.3455
 2261DPPC   C2B48826  16.078  26.349  23.755  0.1843  0.0250 -0.0659
 2261DPPC   C3B48827  15.782  26.222  24.040  0.0083 -0.0760 -0.0674
 2261DPPC   C4B48828  15.616  25.903  24.146 -0.0395  0.0556 -0.3095
 2262DPPC   NC348829  24.346  24.432   1.966 -0.3156 -0.2715  0.0234
 2262DPPC   PO448830  24.496  24.657   2.324 -0.4593  0.0584  0.0625
 2262DPPC   GL148831  24.589  24.839   1.895  0.1242 -0.0443  0.0772
 2262DPPC   GL248832  24.660  24.540   1.605  0.0202  0.2099 -0.0737
 2262DPPC   C1A48833  24.814  25.094   1.782 -0.0592 -0.2094  0.0910
 2262DPPC   C2A48834  25.196  25.097   1.559 -0.2035  0.2179 -0.1483
 2262DPPC   C3A48835  25.446  25.415   1.410 -0.1932  0.2753 -0.3614
 2262DPPC   C4A48836  25.592  25.833   1.488  0.1961 -0.0390 -0.3852
 2262DPPC   C1B48837  24.870  24.809   1.377 -0.0006  0.1068  0.3202
 2262DPPC   C2B48838  25.100  24.598   1.072 -0.0359 -0.0329  0.2747
 2262DPPC   C3B48839  25.347  24.470   0.675  0.1133  0.0400 -0.2178
 2262DPPC   C4B48840  25.602  24.272   0.647  0.1308 -0.0841  0.4175
 2263DPPC   NC348841  27.153  21.346   0.815  0.0076 -0.2362  0.0466
 2263DPPC   PO448842  27.214  21.067   1.012 -0.0101  0.0740 -0.2912
 2263DPPC   GL148843  27.655  20.919   1.023 -0.0522  0.0674 -0.2330
 2263DPPC   GL248844  27.858  21.136   1.130  0.0539  0.0401 -0.1235
 2263DPPC   C1A48845  27.892  20.686   0.811 -0.1682  0.2769 -0.1774
 2263DPPC   C2A48846  28.015  20.531   0.431 -0.0264  0.1055 -0.1698
 2263DPPC   C3A48847  28.349  20.569   0.213 -0.2031 -0.0164  0.0298
 2263DPPC   C4A48848  28.651  20.828  26.925 -0.1167  0.3599 -0.1284
 2263DPPC   C1B48849  28.223  20.815   1.220 -0.0130  0.4771 -0.2699
 2263DPPC   C2B48850  28.721  20.841   1.115  0.1935 -0.1446  0.0318
 2263DPPC   C3B48851  29.055  20.753   0.999  0.2742  0.4542 -0.0023
 2263DPPC   C4B48852  29.178  20.436   0.797  0.0828 -0.2715  0.0448
 2264DPPC   NC348853  16.600  28.486  21.678  0.1483 -0.0321 -0.1500
 2264DPPC   PO448854  16.682  28.853  21.670  0.1285 -0.5445 -0.0162
 2264DPPC   GL148855  16.530  29.280  21.717 -0.1395 -0.0667  0.0950
 2264DPPC   GL248856  16.854  29.413  21.640 -0.0647  0.1401 -0.0347
 2264DPPC   C1A48857  16.473  29.733  21.837 -0.1866  0.2106  0.0991
 2264DPPC   C2A48858  16.678  30.155  21.756 -0.1503 -0.1823 -0.2991
 2264DPPC   C3A48859  16.835  30.450  21.527 -0.1238 -0.2230  0.0566
 2264DPPC   C4A48860  16.779  30.756  21.172  0.2331  0.2232 -0.2470
 2264DPPC   C1B48861  17.004  29.672  21.543 -0.1169 -0.2013  0.0565
 2264DPPC   C2B48862  17.129  30.028  21.472 -0.0673  0.3967 -0.0648
 2264DPPC   C3B48863  17.299  30.343  21.611  0.1687  0.2653 -0.0284
 2264DPPC   C4B48864  17.571  30.343  21.884 -0.2863  0.2118 -0.1936
 2265DPPC   NC348865  23.733  21.634  25.365 -0.1660  0.3895 -0.0263
 2265DPPC   PO448866  23.571  21.700  25.737  0.2073 -0.1874 -0.1050
 2265DPPC   GL148867  23.746  22.064  25.632  0.2556  0.0452  0.1955
 2265DPPC   GL248868  23.539  22.155  25.440 -0.0327 -0.0451  0.2200
 2265DPPC   C1A48869  24.166  22.205  25.432  0.2710  0.0516  0.0053
 2265DPPC   C2A48870  24.278  22.496  25.067 -0.0019  0.2968 -0.1802
 2265DPPC   C3A48871  24.213  22.882  24.968 -0.0226  0.2311  0.1903
 2265DPPC   C4A48872  24.438  23.320  24.989 -0.0280  0.1863 -0.0073
 2265DPPC   C1B48873  23.789  22.552  25.327  0.0765  0.1509  0.4146
 2265DPPC   C2B48874  23.467  22.843  25.438 -0.1348  0.0061 -0.0581
 2265DPPC   C3B48875  23.127  23.007  25.312 -0.1311 -0.0173  0.3870
 2265DPPC   C4B48876  22.927  23.371  25.276 -0.4498  0.0327 -0.0401
 2266DPPC   NC348877  17.679  26.464  26.118 -0.1227  0.1164  0.2465
 2266DPPC   PO448878  17.547  26.463  25.630 -0.0135  0.3407  0.0914
 2266DPPC   GL148879  17.422  26.061  25.776 -0.3180  0.1224 -0.2377
 2266DPPC   GL248880  17.432  25.981  26.186  0.0287  0.0172 -0.1356
 2266DPPC   C1A48881  16.913  25.884  25.879  0.0050 -0.0162  0.0563
 2266DPPC   C2A48882  16.619  25.661  26.077  0.2768  0.1833  0.0107
 2266DPPC   C3A48883  16.351  25.473  26.291 -0.0161 -0.0527  0.3367
 2266DPPC   C4A48884  15.980  25.206  26.400 -0.0353  0.0851 -0.0166
 2266DPPC   C1B48885  17.190  25.711  26.343  0.1164 -0.2963  0.0550
 2266DPPC   C2B48886  16.900  25.321  26.500 -0.0138 -0.0157  0.2121
 2266DPPC   C3B48887  16.559  25.030  26.453  0.1062  0.1841  0.3054
 2266DPPC   C4B48888  16.169  24.903  26.736  0.0493  0.0274  0.1857
 2267DPPC   NC348889  17.665  26.017  19.745 -0.1891 -0.0051 -0.0571
 2267DPPC   PO448890  17.513  25.672  19.684  0.3392  0.0851 -0.1147
 2267DPPC   GL148891  17.680  25.917  19.264  0.0268 -0.1628  0.2403
 2267DPPC   GL248892  17.873  25.674  19.201  0.2054 -0.1755  0.0742
 2267DPPC   C1A48893  18.060  26.130  18.980 -0.1978  0.0809 -0.0800
 2267DPPC   C2A48894  18.472  26.154  18.702 -0.1866 -0.2076  0.0187
 2267DPPC   C3A48895  18.949  26.142  18.675  0.2952 -0.3407 -0.3679
 2267DPPC   C4A48896  19.442  26.048  18.657 -0.0880  0.1330  0.0348
 2267DPPC   C1B48897  18.233  25.669  18.837  0.3669  0.1249 -0.2543
 2267DPPC   C2B48898  18.283  25.498  18.422 -0.0455  0.1705  0.0409
 2267DPPC   C3B48899  17.948  25.445  18.045  0.1983  0.0488 -0.1288
 2267DPPC   C4B48900  17.864  25.333  17.651 -0.0287  0.1970  0.0627
 2268DPPC   NC348901  18.536  27.298   1.707  0.0755 -0.2467 -0.2017
 2268DPPC   PO448902  18.950  27.092   1.789  0.0798 -0.1655 -0.2781
 2268DPPC   GL148903  18.587  26.837   1.994 -0.1614 -0.0344 -0.2767
 2268DPPC   GL248904  18.747  26.749   2.289 -0.2307  0.1278 -0.1192
 2268DPPC   C1A48905  18.276  27.051   2.332  0.0100 -0.1542 -0.0877
 2268DPPC   C2A48906  18.087  27.215   2.590 -0.1501  0.1512 -0.1022
 2268DPPC   C3A48907  18.065  27.350   3.006 -0.1123 -0.0767 -0.0660
 2268DPPC   C4A48908  17.887  27.679   3.247 -0.1047  0.2445 -0.0917
 2268DPPC   C1B48909  18.396  26.598   2.416 -0.1883  0.0686  0.1634
 2268DPPC   C2B48910  18.000  26.328   2.484  0.2312 -0.3121 -0.2485
 2268DPPC   C3B48911  17.560  26.307   2.530 -0.0911  0.2341 -0.2166
 2268DPPC   C4B48912  17.203  26.661   2.607 -0.0019  0.1471  0.4196
 2269DPPC   NC348913  26.424  21.154   2.014  0.1064  0.1735 -0.1006
 2269DPPC   PO448914  26.696  20.949   2.348  0.0545  0.0105 -0.0678
 2269DPPC   GL148915  26.752  20.428   2.281  0.1489  0.3918  0.1227
 2269DPPC   GL248916  26.806  20.289   1.904  0.1080 -0.0740  0.1322
 2269DPPC   C1A48917  26.477  20.082   2.199 -0.1378  0.3121 -0.0344
 2269DPPC   C2A48918  26.505  19.667   2.271  0.0534  0.1499 -0.1702
 2269DPPC   C3A48919  26.665  19.354   2.409 -0.0365  0.0115 -0.1307
 2269DPPC   C4A48920  26.711  19.141   2.731  0.4056  0.1702 -0.1876
 2269DPPC   C1B48921  27.084  20.066   2.093 -0.2144  0.1973 -0.3262
 2269DPPC   C2B48922  27.476  20.170   2.223 -0.1118  0.0719  0.2364
 2269DPPC   C3B48923  27.847  19.989   2.366 -0.1219 -0.1356  0.1751
 2269DPPC   C4B48924  28.223  19.835   2.344  0.1265  0.2526  0.2382
 2270DPPC   NC348925  22.664  27.471   4.917 -0.0834  0.4509  0.0584
 2270DPPC   PO448926  22.700  27.952   5.023  0.0344  0.0496  0.0886
 2270DPPC   GL148927  22.689  28.252   5.302 -0.2468 -0.0932 -0.1220
 2270DPPC   GL248928  22.559  28.555   5.153 -0.1745  0.1952 -0.0789
 2270DPPC   C1A48929  22.878  28.546   5.547  0.2915  0.1254  0.1285
 2270DPPC   C2A48930  23.179  28.533   5.982  0.0154  0.1833 -0.0869
 2270DPPC   C3A48931  23.187  28.485   6.496  0.2305 -0.1370  0.0670
 2270DPPC   C4A48932  23.259  28.235   6.808  0.1558  0.0484 -0.1446
 2270DPPC   C1B48933  22.491  28.974   5.195  0.0471  0.0768  0.1697
 2270DPPC   C2B48934  22.388  29.364   5.329  0.1482 -0.4533 -0.0054
 2270DPPC   C3B48935  22.050  29.652   5.102  0.1655  0.0907 -0.0638
 2270DPPC   C4B48936  21.801  30.053   5.025  0.1393  0.3166  0.0199
 2271DPPC   NC348937  18.967  22.245  22.587 -0.0806  0.1381 -0.0818
 2271DPPC   PO448938  19.082  21.949  22.202  0.2082 -0.5584  0.0077
 2271DPPC   GL148939  18.821  21.679  22.394 -0.1640  0.0032  0.4179
 2271DPPC   GL248940  18.936  21.702  22.786 -0.1465  0.1061  0.1767
 2271DPPC   C1A48941  18.699  21.258  22.311  0.0580  0.1341 -0.1194
 2271DPPC   C2A48942  18.556  20.907  22.539  0.2475  0.1856 -0.1273
 2271DPPC   C3A48943  18.231  21.002  22.962  0.0345  0.0839 -0.0564
 2271DPPC   C4A48944  18.074  20.834  23.313  0.1808 -0.3700 -0.0238
 2271DPPC   C1B48945  18.744  21.356  22.837  0.0793  0.0360 -0.1205
 2271DPPC   C2B48946  18.363  21.431  22.681  0.0578 -0.4076 -0.0278
 2271DPPC   C3B48947  17.973  21.266  22.550  0.1991 -0.0163  0.2581
 2271DPPC   C4B48948  17.654  21.028  22.733  0.0569  0.0627 -0.0624
 2272DPPC   NC348949  23.601  20.313  25.670  0.0462 -0.3102 -0.0375
 2272DPPC   PO448950  23.655  19.927  25.492 -0.0128  0.1953  0.0227
 2272DPPC   GL148951  23.437  19.713  25.714 -0.0446 -0.0770 -0.0287
 2272DPPC   GL248952  23.251  19.583  25.469  0.2286 -0.0375 -0.0217
 2272DPPC   C1A48953  23.256  19.304  25.902 -0.1271 -0.1141 -0.0346
 2272DPPC   C2A48954  23.242  18.887  26.185 -0.4222  0.0952  0.0184
 2272DPPC   C3A48955  23.244  18.322  26.236 -0.1062  0.0518 -0.1732
 2272DPPC   C4A48956  23.364  17.897  26.251  0.2923 -0.0237  0.2057
 2272DPPC   C1B48957  23.323  19.064  25.461 -0.1328 -0.1770  0.0389
 2272DPPC   C2B48958  23.570  18.921  25.689  0.2072  0.1506  0.1987
 2272DPPC   C3B48959  23.760  18.691  25.985  0.1659 -0.2817 -0.1611
 2272DPPC   C4B48960  23.742  18.332  26.110  0.3013 -0.2645  0.1915
 2273DPPC   NC348961  24.774  23.326   3.876  0.1473  0.2062  0.0096
 2273DPPC   PO448962  24.998  22.934   3.871 -0.0217 -0.3109 -0.0647
 2273DPPC   GL148963  25.094  22.589   4.197  0.0632  0.2838  0.2323
 2273DPPC   GL248964  24.777  22.573   4.402 -0.0508 -0.2090  0.4164
 2273DPPC   C1A48965  25.149  22.188   4.385  0.0136 -0.0565 -0.2294
 2273DPPC   C2A48966  24.939  22.093   4.832  0.2412 -0.1631  0.0552
 2273DPPC   C3A48967  24.864  21.792   5.047  0.2439 -0.0612  0.1178
 2273DPPC   C4A48968  24.633  21.435   4.997  0.2164 -0.1792 -0.5463
 2273DPPC   C1B48969  24.740  22.586   4.804 -0.0439  0.0524  0.0414
 2273DPPC   C2B48970  24.787  22.364   5.203 -0.0557 -0.1780  0.4389
 2273DPPC   C3B48971  25.046  22.228   5.513  0.2349  0.2877 -0.0138
 2273DPPC   C4B48972  25.367  21.997   5.476 -0.1156  0.0561 -0.2976
 2274DPPC   NC348973  17.534  28.746  26.232  0.0267 -0.2969 -0.0053
 2274DPPC   PO448974  17.493  29.120  26.012 -0.1791 -0.0089  0.3635
 2274DPPC   GL148975  17.141  29.470  26.115  0.1418 -0.2336  0.0305
 2274DPPC   GL248976  17.037  29.507  25.728 -0.1288  0.4747  0.0184
 2274DPPC   C1A48977  16.788  29.707  26.100  0.0949  0.0159  0.4529
 2274DPPC   C2A48978  16.542  30.049  26.457 -0.1668  0.2218 -0.2013
 2274DPPC   C3A48979  16.661  30.480  26.543 -0.1634 -0.0674 -0.2157
 2274DPPC   C4A48980  16.930  30.717  26.422 -0.3986 -0.0885  0.1216
 2274DPPC   C1B48981  17.125  29.984  25.816  0.1771  0.2550  0.0282
 2274DPPC   C2B48982  16.897  30.318  25.591 -0.0956 -0.2765 -0.2203
 2274DPPC   C3B48983  16.537  30.453  25.550  0.1987 -0.1780 -0.4826
 2274DPPC   C4B48984  16.240  30.701  25.413  0.5154 -0.2059  0.1863
 2275DPPC   NC348985  17.001  26.493  22.062  0.3850 -0.0530  0.1448
 2275DPPC   PO448986  16.746  26.843  22.005  0.0186  0.2559 -0.0017
 2275DPPC   GL148987  16.509  26.443  22.003 -0.1013 -0.2276 -0.0550
 2275DPPC   GL248988  16.440  26.355  21.735 -0.1857 -0.1804 -0.0483
 2275DPPC   C1A48989  16.137  26.233  22.107  0.1825  0.1583 -0.3366
 2275DPPC   C2A48990  15.721  26.074  22.101  0.0898  0.2800  0.0027
 2275DPPC   C3A48991  15.369  25.910  22.364 -0.0786  0.2761 -0.3485
 2275DPPC   C4A48992  15.163  25.852  22.743  0.0015 -0.1285  0.1607
 2275DPPC   C1B48993  15.993  26.099  21.628  0.2774 -0.0810 -0.2496
 2275DPPC   C2B48994  15.622  26.128  21.332  0.1013  0.1890  0.0143
 2275DPPC   C3B48995  15.258  26.288  21.002  0.0921 -0.1652  0.0823
 2275DPPC   C4B48996  15.210  26.442  20.501  0.4271 -0.1575  0.2310
 2276DPPC   NC348997  23.129  19.352  23.724  0.1646  0.0618 -0.0003
 2276DPPC   PO448998  23.533  19.253  23.971  0.0038  0.2499  0.0177
 2276DPPC   GL148999  23.141  18.910  24.119  0.0763  0.0709 -0.2699
 2276DPPC   GL249000  23.065  18.744  23.920 -0.0095  0.0555 -0.1160
 2276DPPC   C1A49001  22.644  18.741  24.239 -0.0270 -0.0720  0.1603
 2276DPPC   C2A49002  22.385  18.441  24.540 -0.1568 -0.3358 -0.0181
 2276DPPC   C3A49003  22.341  18.139  24.828  0.0468  0.0025  0.0931
 2276DPPC   C4A49004  22.101  17.828  24.909 -0.0886 -0.0865 -0.2057
 2276DPPC   C1B49005  23.048  18.422  24.308 -0.0708 -0.0479  0.2269
 2276DPPC   C2B49006  22.844  18.136  24.546 -0.1835 -0.1846 -0.0388
 2276DPPC   C3B49007  22.764  17.794  24.931  0.1308 -0.0616 -0.3307
 2276DPPC   C4B49008  22.424  17.926  25.282  0.2266 -0.1302 -0.0116
 2277DPPC   NC349009  20.502  24.876   1.252  0.0234 -0.2099 -0.0840
 2277DPPC   PO449010  20.522  24.445   1.265 -0.0385 -0.3347 -0.1531
 2277DPPC   GL149011  20.449  24.216   1.595  0.3753  0.1138 -0.0969
 2277DPPC   GL249012  20.561  23.831   1.462  0.0026  0.3008 -0.5463
 2277DPPC   C1A49013  20.363  23.889   1.927 -0.1906  0.0156  0.0958
 2277DPPC   C2A49014  20.049  23.707   2.152  0.3685  0.1982 -0.0679
 2277DPPC   C3A49015  19.806  23.532   2.423  0.0250  0.1623  0.3948
 2277DPPC   C4A49016  19.440  23.414   2.431 -0.2558  0.1130 -0.0388
 2277DPPC   C1B49017  20.317  23.492   1.563  0.1719  0.1731  0.0814
 2277DPPC   C2B49018  20.132  23.263   1.897 -0.0822 -0.1571 -0.0616
 2277DPPC   C3B49019  19.885  23.126   2.181 -0.1016 -0.0547  0.1919
 2277DPPC   C4B49020  19.501  22.930   2.228  0.1227  0.1072  0.2027
 2278DPPC   NC349021  17.323  28.244  23.646 -0.0963  0.2241  0.2286
 2278DPPC   PO449022  17.412  28.588  23.384  0.0492 -0.1236 -0.0914
 2278DPPC   GL149023  17.672  28.966  23.145  0.1148  0.1651  0.0724
 2278DPPC   GL249024  18.020  28.958  23.317 -0.1216  0.0322  0.2827
 2278DPPC   C1A49025  17.952  29.146  22.837  0.1409 -0.2663 -0.0534
 2278DPPC   C2A49026  18.289  29.377  22.680 -0.3542  0.1883  0.0900
 2278DPPC   C3A49027  18.635  29.523  22.435  0.1022  0.0137  0.0490
 2278DPPC   C4A49028  18.469  29.866  22.226  0.2199  0.0927  0.0389
 2278DPPC   C1B49029  17.823  29.403  23.287  0.0633  0.1828 -0.0173
 2278DPPC   C2B49030  17.591  29.812  23.180 -0.1332 -0.2116  0.0792
 2278DPPC   C3B49031  17.444  29.951  22.784 -0.1864  0.0414 -0.2497
 2278DPPC   C4B49032  17.495  30.102  22.416  0.2979  0.0891 -0.4036
 2279DPPC   NC349033  19.381  23.816  25.773  0.2212 -0.0093  0.1231
 2279DPPC   PO449034  19.172  24.137  25.537  0.0362 -0.2841  0.0126
 2279DPPC   GL149035  18.927  23.847  25.474 -0.1570 -0.0660  0.2674
 2279DPPC   GL249036  18.678  23.887  25.229  0.1395  0.0572 -0.4064
 2279DPPC   C1A49037  18.717  23.521  25.693 -0.2966  0.3137 -0.1233
 2279DPPC   C2A49038  18.514  23.255  25.919 -0.1603 -0.0716 -0.1360
 2279DPPC   C3A49039  18.303  22.919  26.182  0.2358 -0.1147 -0.0098
 2279DPPC   C4A49040  18.041  22.628  26.453  0.1618  0.1266  0.1165
 2279DPPC   C1B49041  18.297  23.831  25.468 -0.1133 -0.2158 -0.1073
 2279DPPC   C2B49042  18.081  23.499  25.791 -0.0099 -0.1708  0.1759
 2279DPPC   C3B49043  17.892  23.239  26.092  0.1230 -0.0592 -0.2809
 2279DPPC   C4B49044  17.489  23.009  26.278 -0.0106 -0.1285 -0.0486
 2280DPPC   NC349045  20.054  22.499  20.849  0.4494 -0.2126 -0.2105
 2280DPPC   PO449046  20.416  22.823  21.014  0.0736  0.2593  0.2846
 2280DPPC   GL149047  20.688  22.994  20.919  0.1328 -0.1253  0.0176
 2280DPPC   GL249048  20.678  23.068  20.571 -0.2473  0.0479 -0.1625
 2280DPPC   C1A49049  21.030  23.315  21.020 -0.0260 -0.0060 -0.0706
 2280DPPC   C2A49050  21.366  23.625  21.153  0.0931 -0.0850  0.0472
 2280DPPC   C3A49051  21.640  23.802  20.980 -0.2347 -0.1502 -0.1209
 2280DPPC   C4A49052  22.031  23.907  21.236  0.1280  0.3299  0.3496
 2280DPPC   C1B49053  20.914  23.257  20.256 -0.1069  0.0024  0.0381
 2280DPPC   C2B49054  21.308  23.219  19.925 -0.0735  0.0386  0.3282
 2280DPPC   C3B49055  21.651  23.265  20.089 -0.0340  0.1617  0.1004
 2280DPPC   C4B49056  22.051  23.207  20.001  0.1106  0.3518 -0.1662
 2281DPPC   NC349057  20.511  25.418   2.701 -0.2351  0.1665 -0.2902
 2281DPPC   PO449058  20.546  25.736   3.013 -0.2403  0.1960 -0.1688
 2281DPPC   GL149059  20.397  25.568   3.402  0.1586  0.2626 -0.0221
 2281DPPC   GL249060  20.061  25.622   3.357 -0.3622 -0.1698 -0.2481
 2281DPPC   C1A49061  20.214  25.512   3.866 -0.1283 -0.0869  0.2631
 2281DPPC   C2A49062  19.832  25.687   4.134  0.0583 -0.2616 -0.4828
 2281DPPC   C3A49063  20.004  25.662   4.437 -0.0985 -0.1251  0.0001
 2281DPPC   C4A49064  19.852  25.697   4.808 -0.2295 -0.0220 -0.0714
 2281DPPC   C1B49065  19.753  25.679   3.591  0.0336 -0.0618  0.0221
 2281DPPC   C2B49066  19.387  25.500   3.911  0.1080  0.0797  0.0495
 2281DPPC   C3B49067  19.361  25.665   4.332 -0.1043 -0.2073 -0.2527
 2281DPPC   C4B49068  19.394  25.528   4.734  0.1372  0.0619  0.1766
 2282DPPC   NC349069  26.057  24.667   4.964 -0.0595  0.1262 -0.3104
 2282DPPC   PO449070  26.037  25.144   4.970  0.1850 -0.1520 -0.2376
 2282DPPC   GL149071  26.175  24.972   5.403 -0.1219  0.2106 -0.0135
 2282DPPC   GL249072  25.968  24.647   5.474  0.2864 -0.3334 -0.3520
 2282DPPC   C1A49073  26.283  25.080   5.733  0.0254  0.5252 -0.0819
 2282DPPC   C2A49074  26.470  24.854   6.053  0.2212  0.2851  0.1768
 2282DPPC   C3A49075  26.971  24.874   6.162  0.0522 -0.0526 -0.2471
 2282DPPC   C4A49076  27.213  25.160   6.511  0.2115  0.0366 -0.3135
 2282DPPC   C1B49077  26.375  24.547   5.706 -0.0687  0.1209  0.3301
 2282DPPC   C2B49078  26.874  24.609   5.660 -0.0104 -0.0103  0.0393
 2282DPPC   C3B49079  27.211  24.380   5.556  0.1780 -0.0556  0.3022
 2282DPPC   C4B49080  27.620  24.287   5.510  0.2026 -0.0387  0.1485
 2283DPPC   NC349081  19.368  29.673   1.075  0.6462 -0.2772  0.0482
 2283DPPC   PO449082  19.384  29.522   1.506 -0.2594 -0.2281  0.2925
 2283DPPC   GL149083  19.591  29.815   1.727  0.0051  0.1761  0.2597
 2283DPPC   GL249084  19.458  30.057   1.457 -0.1013 -0.1475  0.0829
 2283DPPC   C1A49085  19.650  30.120   2.045 -0.4527 -0.0604 -0.0972
 2283DPPC   C2A49086  20.018  30.448   2.109  0.1746  0.0794 -0.1030
 2283DPPC   C3A49087  20.402  30.670   2.091 -0.2201 -0.1967 -0.2143
 2283DPPC   C4A49088  20.775  30.471   2.184 -0.2630  0.3964 -0.0844
 2283DPPC   C1B49089  19.347  30.419   1.699  0.1040  0.3149 -0.1980
 2283DPPC   C2B49090  19.282  30.848   1.582  0.0971  0.0729  0.2326
 2283DPPC   C3B49091  18.859  31.021   1.315  0.0404 -0.0362 -0.1061
 2283DPPC   C4B49092  18.444  31.117   1.363  0.2840  0.0803 -0.0344
 2284DPPC   NC349093  22.262  24.440   0.720  0.0541 -0.2081  0.1843
 2284DPPC   PO449094  22.362  24.897   0.885  0.2508  0.0346  0.1768
 2284DPPC   GL149095  22.542  25.187   0.745  0.1156 -0.0535  0.5539
 2284DPPC   GL249096  22.809  25.331   0.961 -0.1433 -0.0196  0.1508
 2284DPPC   C1A49097  22.649  25.434   0.408 -0.1927 -0.0484 -0.1660
 2284DPPC   C2A49098  22.827  25.746   0.302  0.1097  0.2625  0.2510
 2284DPPC   C3A49099  23.132  26.036   0.098  0.1264 -0.0235 -0.2889
 2284DPPC   C4A49100  23.452  26.271   0.272 -0.3030 -0.0914  0.3287
 2284DPPC   C1B49101  23.154  25.525   0.753  0.1510 -0.2532  0.0255
 2284DPPC   C2B49102  23.363  25.714   0.463 -0.1560 -0.0738  0.0588
 2284DPPC   C3B49103  23.770  25.967   0.512  0.0015 -0.0449  0.1546
 2284DPPC   C4B49104  23.871  26.499   0.664  0.2678 -0.0736  0.1952
 2285DPPC   NC349105  20.977  27.995   2.524 -0.1866 -0.0195 -0.1014
 2285DPPC   PO449106  21.432  28.028   2.303 -0.0223 -0.0119 -0.0038
 2285DPPC   GL149107  21.576  28.386   2.162 -0.2696 -0.1523  0.0452
 2285DPPC   GL249108  21.435  28.546   1.980 -0.1263  0.3136 -0.0998
 2285DPPC   C1A49109  21.950  28.394   1.972 -0.0056 -0.0846  0.1547
 2285DPPC   C2A49110  22.037  28.584   1.558 -0.1960 -0.2717 -0.0026
 2285DPPC   C3A49111  21.852  28.567   1.130 -0.1577 -0.1870  0.0266
 2285DPPC   C4A49112  21.465  28.622   0.894 -0.3440 -0.1888 -0.0013
 2285DPPC   C1B49113  21.617  28.783   1.768 -0.1120  0.2772  0.1809
 2285DPPC   C2B49114  21.902  29.043   1.377 -0.2872  0.0766 -0.2084
 2285DPPC   C3B49115  22.068  29.165   0.987 -0.2250  0.0320 -0.0496
 2285DPPC   C4B49116  22.070  29.475   0.727 -0.3728 -0.4599  0.1881
 2286DPPC   NC349117  22.321  19.136  22.087  0.3211  0.1089  0.2275
 2286DPPC   PO449118  22.227  19.097  21.680  0.1336 -0.2053 -0.0257
 2286DPPC   GL149119  22.112  18.723  21.410 -0.3139  0.1139  0.0509
 2286DPPC   GL249120  22.281  18.601  21.146 -0.0263 -0.1724 -0.2826
 2286DPPC   C1A49121  22.100  18.318  21.470  0.0878 -0.2517 -0.0879
 2286DPPC   C2A49122  21.775  17.937  21.350 -0.1536  0.1086  0.0409
 2286DPPC   C3A49123  21.419  18.045  21.173 -0.0082  0.0463 -0.1869
 2286DPPC   C4A49124  21.642  17.999  20.851 -0.2956 -0.1379 -0.0530
 2286DPPC   C1B49125  22.014  18.302  20.960  0.3777  0.0380 -0.0616
 2286DPPC   C2B49126  21.953  18.299  20.564  0.1553 -0.0591  0.3718
 2286DPPC   C3B49127  22.184  18.359  20.045 -0.1888  0.3701  0.3815
 2286DPPC   C4B49128  22.636  18.445  19.871  0.1740  0.0407  0.3694
 2287DPPC   NC349129  18.198  26.215  26.574 -0.0632 -0.2014  0.0516
 2287DPPC   PO449130  17.796  26.066  26.490 -0.2755  0.1725  0.1953
 2287DPPC   GL149131  17.479  25.759  26.717  0.0139  0.2513  0.0653
 2287DPPC   GL249132  17.575  25.517  26.605 -0.1254  0.2061 -0.1624
 2287DPPC   C1A49133  17.103  25.780  26.881 -0.2044  0.0638 -0.0185
 2287DPPC   C2A49134  16.917  25.844   0.353 -0.0399 -0.0721  0.0657
 2287DPPC   C3A49135  16.622  26.258   0.486  0.0834  0.1379  0.0352
 2287DPPC   C4A49136  16.209  26.275   0.487 -0.1547 -0.0126 -0.0507
 2287DPPC   C1B49137  17.249  25.277  26.886  0.1937 -0.1011  0.1194
 2287DPPC   C2B49138  16.743  25.396   0.086 -0.2845 -0.1968 -0.0533
 2287DPPC   C3B49139  16.327  25.253   0.291  0.1094  0.0108 -0.1114
 2287DPPC   C4B49140  16.003  25.481   0.248 -0.1721 -0.0667  0.1108
 2288DPPC   NC349141  24.258  25.424   3.341  0.0732  0.4009 -0.1941
 2288DPPC   PO449142  23.874  25.498   3.200  0.2181  0.2645  0.0369
 2288DPPC   GL149143  24.181  25.639   2.878 -0.1613  0.2966  0.0905
 2288DPPC   GL249144  24.063  26.023   2.830 -0.2708 -0.0541  0.1995
 2288DPPC   C1A49145  24.328  25.755   2.419 -0.4051  0.0389  0.0223
 2288DPPC   C2A49146  24.616  25.985   2.094 -0.1866  0.0505  0.3612
 2288DPPC   C3A49147  24.894  25.980   1.785 -0.3194 -0.1791  0.1928
 2288DPPC   C4A49148  25.283  26.070   1.791  0.0737  0.0888  0.1520
 2288DPPC   C1B49149  24.485  26.163   2.737 -0.0844  0.0632 -0.1285
 2288DPPC   C2B49150  25.027  26.269   2.720  0.0716  0.1350  0.0171
 2288DPPC   C3B49151  25.478  26.426   2.725  0.1370 -0.0061  0.0585
 2288DPPC   C4B49152  25.757  26.792   2.627  0.2543 -0.1369 -0.0376
 2289DPPC   NC349153  26.942  22.255   1.265  0.2882  0.1804 -0.1084
 2289DPPC   PO449154  27.026  21.856   1.024  0.1701 -0.1479 -0.2059
 2289DPPC   GL149155  27.414  22.111   1.048  0.0537  0.1131  0.3914
 2289DPPC   GL249156  27.408  22.407   1.084 -0.0570 -0.1611 -0.0400
 2289DPPC   C1A49157  27.762  22.131   0.766 -0.2064 -0.1560 -0.0092
 2289DPPC   C2A49158  28.200  21.994   0.764 -0.0503  0.1295  0.1433
 2289DPPC   C3A49159  28.574  21.784   0.675 -0.2580  0.0946 -0.1207
 2289DPPC   C4A49160  29.000  21.762   0.778 -0.0903  0.0603  0.0236
 2289DPPC   C1B49161  27.837  22.566   1.077  0.0370 -0.0948 -0.0188
 2289DPPC   C2B49162  27.935  23.083   0.967  0.4385  0.0904 -0.3098
 2289DPPC   C3B49163  28.000  23.297   0.569  0.3483  0.2409  0.1631
 2289DPPC   C4B49164  28.259  23.122   0.277 -0.2307 -0.2677  0.2877
 2290DPPC   NC349165  23.093  24.264   0.891  0.0885  0.0069 -0.4093
 2290DPPC   PO449166  22.695  24.177   0.631 -0.1451  0.2052 -0.2675
 2290DPPC   GL149167  23.004  24.349   0.303  0.0037  0.0123 -0.2038
 2290DPPC   GL249168  23.250  24.429   0.448 -0.0881 -0.3416 -0.2131
 2290DPPC   C1A49169  23.153  24.636  26.893 -0.0388 -0.2728 -0.1680
 2290DPPC   C2A49170  23.286  25.081  26.663  0.1064  0.1463 -0.2988
 2290DPPC   C3A49171  23.635  25.396  26.578  0.1865 -0.2216 -0.2511
 2290DPPC   C4A49172  24.018  25.317  26.849 -0.0486 -0.1349  0.1275
 2290DPPC   C1B49173  23.591  24.719   0.328  0.3538  0.0017  0.0206
 2290DPPC   C2B49174  23.546  25.076   0.200 -0.0617  0.1795 -0.0406
 2290DPPC   C3B49175  23.641  25.500   0.158 -0.0690 -0.1959  0.3732
 2290DPPC   C4B49176  23.705  25.828   0.020  0.0634 -0.2440 -0.2450
 2291DPPC   NC349177  26.808  24.305   4.555 -0.0829 -0.2276 -0.0463
 2291DPPC   PO449178  27.155  24.421   4.812  0.1965 -0.2883 -0.2457
 2291DPPC   GL149179  27.514  24.541   4.908  0.5563  0.0794  0.1525
 2291DPPC   GL249180  27.494  24.848   5.107  0.1418 -0.0618 -0.0551
 2291DPPC   C1A49181  27.860  24.473   5.111  0.0876  0.1083 -0.0366
 2291DPPC   C2A49182  28.147  24.251   5.062 -0.0988 -0.1209 -0.1329
 2291DPPC   C3A49183  28.187  23.832   5.003  0.0058 -0.0107  0.1449
 2291DPPC   C4A49184  28.004  23.571   4.836 -0.1543 -0.1382 -0.0400
 2291DPPC   C1B49185  27.849  24.980   5.033 -0.0134 -0.1987 -0.0336
 2291DPPC   C2B49186  28.076  25.274   4.927 -0.2416 -0.1012 -0.2385
 2291DPPC   C3B49187  28.483  25.396   4.856 -0.1811 -0.2010 -0.1472
 2291DPPC   C4B49188  28.884  25.294   4.919  0.4775 -0.2490  0.2310
 2292DPPC   NC349189  22.529  23.997   2.750 -0.3476  0.0919 -0.2182
 2292DPPC   PO449190  22.238  24.045   2.981 -0.2669  0.1364 -0.1097
 2292DPPC   GL149191  22.008  24.041   3.378  0.1223  0.2983 -0.2270
 2292DPPC   GL249192  21.745  24.239   3.180  0.3042 -0.0330  0.0153
 2292DPPC   C1A49193  21.858  23.697   3.660  0.0572 -0.2956 -0.1057
 2292DPPC   C2A49194  22.024  23.575   4.067 -0.3828 -0.0258 -0.0039
 2292DPPC   C3A49195  21.909  23.368   4.429  0.2453  0.0904  0.0473
 2292DPPC   C4A49196  21.729  23.098   4.751  0.1922  0.0022  0.1426
 2292DPPC   C1B49197  21.569  24.098   3.630 -0.5697 -0.4091  0.0878
 2292DPPC   C2B49198  21.647  23.925   4.037  0.3348  0.1027 -0.3121
 2292DPPC   C3B49199  21.430  23.928   4.492 -0.1297  0.0778 -0.1676
 2292DPPC   C4B49200  21.382  23.584   4.797 -0.1860  0.2305  0.1226
 2293DPPC   NC349201  19.181  22.262  20.126  0.1769 -0.0473  0.1764
 2293DPPC   PO449202  18.935  22.394  19.822 -0.0337 -0.1637 -0.2521
 2293DPPC   GL149203  18.512  22.201  19.631  0.2708 -0.3104  0.2532
 2293DPPC   GL249204  18.406  22.507  19.553 -0.0315  0.4033  0.2437
 2293DPPC   C1A49205  18.157  21.985  19.396  0.0016 -0.0182  0.0585
 2293DPPC   C2A49206  18.098  21.734  19.069 -0.0952 -0.0824  0.1974
 2293DPPC   C3A49207  17.905  21.326  19.072  0.0491 -0.1361  0.4014
 2293DPPC   C4A49208  17.655  21.048  19.238 -0.1330  0.2092 -0.1143
 2293DPPC   C1B49209  17.936  22.346  19.682 -0.0598 -0.1317  0.1269
 2293DPPC   C2B49210  17.640  22.094  19.720  0.3329 -0.0180 -0.0766
 2293DPPC   C3B49211  17.670  21.700  19.522  0.2770 -0.4396 -0.0049
 2293DPPC   C4B49212  17.581  21.710  19.053 -0.3280 -0.0246  0.0293
 2294DPPC   NC349213  23.948  19.664  21.095 -0.0478  0.1552  0.3481
 2294DPPC   PO449214  24.172  19.560  21.506 -0.0856 -0.0300  0.1293
 2294DPPC   GL149215  24.465  19.618  21.335  0.1411 -0.2599  0.0130
 2294DPPC   GL249216  24.449  19.688  21.046  0.3167 -0.4533  0.1284
 2294DPPC   C1A49217  24.928  19.708  21.427  0.0986 -0.2569 -0.0368
 2294DPPC   C2A49218  25.223  19.736  21.193 -0.0532  0.0118 -0.2033
 2294DPPC   C3A49219  25.392  19.864  20.856  0.1127 -0.1445 -0.0363
 2294DPPC   C4A49220  25.671  20.181  20.734  0.3466 -0.0960 -0.2069
 2294DPPC   C1B49221  24.870  19.386  20.993 -0.2866 -0.2641 -0.0901
 2294DPPC   C2B49222  24.981  19.083  20.732  0.2921 -0.5281 -0.3382
 2294DPPC   C3B49223  25.429  18.887  20.707 -0.1156 -0.0059 -0.1260
 2294DPPC   C4B49224  25.799  18.932  20.945  0.1038  0.1368 -0.1130
 2295DPPC   NC349225  26.609  21.645   0.868 -0.0483 -0.0818 -0.1864
 2295DPPC   PO449226  26.534  22.093   0.929 -0.1993  0.0455 -0.2218
 2295DPPC   GL149227  26.685  22.325   0.649 -0.0017  0.0987  0.2639
 2295DPPC   GL249228  27.002  22.185   0.647 -0.0984  0.0832 -0.0717
 2295DPPC   C1A49229  26.761  22.689   0.337  0.1882 -0.1805 -0.3134
 2295DPPC   C2A49230  26.858  23.153   0.109  0.0578  0.1801  0.0376
 2295DPPC   C3A49231  27.072  23.549  26.717 -0.2474  0.0913  0.0310
 2295DPPC   C4A49232  27.006  23.937  26.785 -0.2381  0.3988  0.1107
 2295DPPC   C1B49233  27.137  22.589   0.605 -0.0907  0.2020  0.2105
 2295DPPC   C2B49234  27.037  23.028   0.615 -0.0551  0.1991  0.1165
 2295DPPC   C3B49235  27.094  23.361   0.561  0.0958  0.0998  0.1472
 2295DPPC   C4B49236  27.434  23.552   0.405  0.5983 -0.0781 -0.3144
 2296DPPC   NC349237  18.111  25.693  26.379  0.2205  0.2211  0.0279
 2296DPPC   PO449238  18.202  25.764  26.771  0.0828 -0.2364 -0.1981
 2296DPPC   GL149239  17.789  25.636   0.146  0.0230 -0.0799  0.1207
 2296DPPC   GL249240  17.897  25.342   0.146 -0.2287 -0.0772 -0.0544
 2296DPPC   C1A49241  17.418  25.599   0.338  0.4387 -0.2366  0.2818
 2296DPPC   C2A49242  17.130  25.355   0.442 -0.1373 -0.4900 -0.2047
 2296DPPC   C3A49243  16.851  25.019   0.378 -0.0395  0.3132 -0.1440
 2296DPPC   C4A49244  16.818  24.818  26.836 -0.2001 -0.0430  0.1427
 2296DPPC   C1B49245  17.589  25.116   0.389  0.3351  0.0199  0.0216
 2296DPPC   C2B49246  17.441  25.053   0.818 -0.0505 -0.1209 -0.0291
 2296DPPC   C3B49247  17.329  24.723   1.137  0.0163  0.0709  0.1126
 2296DPPC   C4B49248  17.347  24.444   1.441 -0.0912  0.0629 -0.0418
 2297DPPC   NC349249  25.390  21.042  25.982  0.3703  0.3453  0.0071
 2297DPPC   PO449250  25.592  21.051  26.411 -0.1967 -0.2167 -0.0946
 2297DPPC   GL149251  25.759  21.432  26.140 -0.3312 -0.1784 -0.0015
 2297DPPC   GL249252  26.045  21.349  25.814  0.3016  0.1345  0.0932
 2297DPPC   C1A49253  25.731  21.914  26.031 -0.3308  0.1936  0.3032
 2297DPPC   C2A49254  25.825  22.364  26.081 -0.1640  0.1497  0.0134
 2297DPPC   C3A49255  26.156  22.750  26.033 -0.0308  0.0227 -0.0258
 2297DPPC   C4A49256  26.249  23.054  25.752 -0.0706 -0.1010  0.3065
 2297DPPC   C1B49257  26.390  21.541  25.704  0.0378  0.2095 -0.0913
 2297DPPC   C2B49258  26.878  21.425  25.648  0.1573 -0.4163  0.1069
 2297DPPC   C3B49259  27.046  21.091  25.497  0.0418 -0.7441  0.0141
 2297DPPC   C4B49260  27.323  20.766  25.427  0.0899  0.3393  0.2932
 2298DPPC   NC349261  18.075  26.368  20.504 -0.0592 -0.1433  0.0782
 2298DPPC   PO449262  18.106  26.144  20.120  0.1424 -0.4222  0.4004
 2298DPPC   GL149263  18.503  26.184  20.033 -0.2040  0.0452  0.1878
 2298DPPC   GL249264  18.668  26.295  19.708 -0.1823 -0.2407  0.1461
 2298DPPC   C1A49265  18.946  26.095  20.080  0.2278 -0.0225 -0.4975
 2298DPPC   C2A49266  19.339  26.184  19.906 -0.0347 -0.1696 -0.3668
 2298DPPC   C3A49267  19.804  26.196  19.800  0.0423  0.0901  0.2924
 2298DPPC   C4A49268  20.277  26.323  19.933  0.3887  0.0595  0.0224
 2298DPPC   C1B49269  19.021  26.417  19.601 -0.0823  0.2337 -0.2392
 2298DPPC   C2B49270  19.213  26.475  19.268  0.1240 -0.1542 -0.3191
 2298DPPC   C3B49271  19.275  26.532  18.842 -0.0260 -0.3136  0.1767
 2298DPPC   C4B49272  19.202  26.520  18.456  0.1067 -0.1686  0.1955
 2299DPPC   NC349273  21.321  27.346   1.843  0.6194 -0.2742 -0.1124
 2299DPPC   PO449274  21.630  27.193   1.985  0.1113 -0.1714 -0.1339
 2299DPPC   GL149275  22.051  27.333   1.912  0.3461  0.4836 -0.4180
 2299DPPC   GL249276  22.258  27.055   1.955 -0.1588 -0.1695 -0.2687
 2299DPPC   C1A49277  22.220  27.576   1.679  0.0951  0.2526  0.0704
 2299DPPC   C2A49278  22.498  27.789   1.817 -0.0797 -0.1157 -0.1120
 2299DPPC   C3A49279  22.423  28.244   1.815 -0.0689 -0.2056 -0.1094
 2299DPPC   C4A49280  22.365  28.463   2.174  0.2196  0.2044  0.3666
 2299DPPC   C1B49281  22.674  27.265   1.695 -0.1584  0.3940  0.1125
 2299DPPC   C2B49282  22.844  27.611   1.469  0.0496  0.1586  0.0037
 2299DPPC   C3B49283  23.094  27.773   1.114 -0.0161 -0.1349  0.0124
 2299DPPC   C4B49284  23.350  27.908   0.936 -0.0047 -0.2538  0.2323
 2300DPPC   NC349285  26.972  24.840   4.624 -0.2160 -0.0206 -0.4193
 2300DPPC   PO449286  27.438  25.076   4.561 -0.0230 -0.0949 -0.0279
 2300DPPC   GL149287  27.724  25.233   4.490 -0.0676 -0.0754  0.4365
 2300DPPC   GL249288  27.911  25.549   4.536  0.1128  0.1912  0.3749
 2300DPPC   C1A49289  28.073  25.104   4.367 -0.0690 -0.2304  0.2047
 2300DPPC   C2A49290  28.559  25.056   4.484 -0.2740 -0.2052 -0.3068
 2300DPPC   C3A49291  28.980  24.819   4.609 -0.0350 -0.0075 -0.1116
 2300DPPC   C4A49292  28.920  24.707   4.946  0.1656  0.0070  0.3170
 2300DPPC   C1B49293  28.241  25.789   4.597  0.0795  0.1259  0.2683
 2300DPPC   C2B49294  28.331  26.032   4.951  0.0644  0.2085 -0.0020
 2300DPPC   C3B49295  28.667  26.184   5.233 -0.0889 -0.0683 -0.0486
 2300DPPC   C4B49296  29.075  26.377   5.161  0.3844  0.1693  0.1096
 2301DPPC   NC349297  26.303  19.833   0.596 -0.1786  0.0901  0.0673
 2301DPPC   PO449298  26.854  19.861   0.401 -0.0179 -0.0971 -0.0138
 2301DPPC   GL149299  27.210  19.770   0.504  0.3461  0.1649  0.2219
 2301DPPC   GL249300  27.268  19.645   0.206  0.1557 -0.2599  0.1026
 2301DPPC   C1A49301  27.623  19.774   0.625  0.0856  0.1028 -0.0672
 2301DPPC   C2A49302  27.892  19.871   0.487 -0.1972  0.1789  0.1363
 2301DPPC   C3A49303  28.258  19.681   0.301  0.0468  0.2025  0.0639
 2301DPPC   C4A49304  28.406  19.306   0.366 -0.0780  0.1763  0.1199
 2301DPPC   C1B49305  27.709  19.568   0.108  0.2644  0.3674 -0.1229
 2301DPPC   C2B49306  28.042  19.481  26.859  0.1987 -0.0651 -0.0601
 2301DPPC   C3B49307  28.162  19.413  26.385 -0.0322 -0.2106 -0.0150
 2301DPPC   C4B49308  28.371  19.198  26.094  0.0070  0.2763 -0.0574
 2302DPPC   NC349309  17.192  28.236  20.996  0.1331  0.1973 -0.0688
 2302DPPC   PO449310  17.258  28.267  20.550  0.2959  0.2177 -0.2357
 2302DPPC   GL149311  17.319  28.196  20.155 -0.3513 -0.1232  0.1478
 2302DPPC   GL249312  17.165  27.936  20.027 -0.2200 -0.2084 -0.1444
 2302DPPC   C1A49313  17.460  28.344  19.856  0.5024  0.1732  0.4337
 2302DPPC   C2A49314  17.570  28.346  19.516 -0.0010 -0.1025  0.0358
 2302DPPC   C3A49315  17.780  28.248  19.170 -0.0260  0.0883 -0.1563
 2302DPPC   C4A49316  17.606  28.281  18.809 -0.2240  0.2305  0.3007
 2302DPPC   C1B49317  16.735  27.842  19.786 -0.0774  0.2201  0.2620
 2302DPPC   C2B49318  16.463  28.309  19.675 -0.0126  0.3485 -0.3388
 2302DPPC   C3B49319  16.466  28.682  19.602  0.0024  0.0273  0.1978
 2302DPPC   C4B49320  16.457  28.779  19.149  0.0154 -0.1807  0.2225
 2303DPPC   NC349321  22.700  23.174   2.249  0.0404 -0.0913  0.0181
 2303DPPC   PO449322  22.472  23.593   2.547  0.0718  0.1410 -0.1720
 2303DPPC   GL149323  22.320  23.231   2.727  0.0811  0.2165 -0.2427
 2303DPPC   GL249324  22.515  22.889   2.880 -0.0212  0.2713  0.3938
 2303DPPC   C1A49325  22.009  23.065   2.951 -0.0793 -0.2120  0.0783
 2303DPPC   C2A49326  21.763  22.801   3.132  0.1680  0.1006 -0.0211
 2303DPPC   C3A49327  21.544  22.729   3.446  0.1095 -0.2510 -0.0662
 2303DPPC   C4A49328  21.279  22.396   3.597  0.0383 -0.1133  0.4873
 2303DPPC   C1B49329  22.603  22.499   3.245 -0.2389  0.1496  0.0731
 2303DPPC   C2B49330  22.486  22.261   3.598 -0.0013 -0.1074  0.0026
 2303DPPC   C3B49331  22.433  21.923   4.034 -0.0530  0.1909  0.0954
 2303DPPC   C4B49332  22.294  21.691   4.444 -0.2405  0.0155 -0.1735
 2304DPPC   NC349333  23.033  28.527   3.566 -0.0819 -0.1907  0.2022
 2304DPPC   PO449334  23.226  28.262   3.827 -0.0121  0.1216  0.1009
 2304DPPC   GL149335  23.484  28.567   3.903  0.0119 -0.0679 -0.0768
 2304DPPC   GL249336  23.335  28.749   3.938  0.3182  0.0230  0.2160
 2304DPPC   C1A49337  23.748  28.875   3.679  0.1046  0.4580  0.2546
 2304DPPC   C2A49338  23.916  28.878   3.200  0.1587 -0.5163  0.1173
 2304DPPC   C3A49339  23.917  29.140   2.910  0.1363 -0.0303  0.0380
 2304DPPC   C4A49340  23.908  29.419   2.628 -0.0582  0.0052  0.1746
 2304DPPC   C1B49341  23.501  29.132   4.024 -0.3061 -0.1921  0.1495
 2304DPPC   C2B49342  23.495  29.609   4.283  0.1266 -0.2484 -0.2302
 2304DPPC   C3B49343  23.315  29.807   3.964 -0.1151 -0.1926 -0.0102
 2304DPPC   C4B49344  22.886  29.843   4.053  0.2169 -0.0059 -0.1088
 2305DPPC   NC349345  18.515  22.861  21.959  0.1594  0.0455  0.0597
 2305DPPC   PO449346  18.377  23.140  21.708 -0.4255 -0.0480 -0.1164
 2305DPPC   GL149347  17.921  23.052  21.697 -0.1750 -0.1607 -0.1472
 2305DPPC   GL249348  17.915  22.919  21.397 -0.2570  0.2156  0.2655
 2305DPPC   C1A49349  17.523  22.984  21.691 -0.2482 -0.3494  0.1807
 2305DPPC   C2A49350  17.058  22.929  21.773 -0.1095  0.3359 -0.2571
 2305DPPC   C3A49351  16.771  23.114  21.828 -0.1378 -0.4919 -0.4519
 2305DPPC   C4A49352  16.352  23.049  21.720 -0.0360 -0.0301 -0.4960
 2305DPPC   C1B49353  17.563  22.576  21.458  0.0641 -0.1335  0.0571
 2305DPPC   C2B49354  17.158  22.377  21.674  0.0364  0.3815  0.2299
 2305DPPC   C3B49355  17.022  21.914  21.677 -0.3983  0.1200  0.1166
 2305DPPC   C4B49356  16.905  21.502  21.774  0.1504 -0.2572  0.3525
 2306DPPC   NC349357  28.122  22.404   2.504 -0.0486 -0.0580  0.1208
 2306DPPC   PO449358  27.957  22.188   2.758 -0.0459 -0.0461  0.1623
 2306DPPC   GL149359  28.369  22.031   2.937  0.0362 -0.1300  0.0839
 2306DPPC   GL249360  28.384  21.836   3.308 -0.1540  0.1096  0.1020
 2306DPPC   C1A49361  28.705  21.975   2.985  0.3917  0.0863  0.1214
 2306DPPC   C2A49362  28.950  21.698   3.228 -0.3833  0.2156  0.2326
 2306DPPC   C3A49363  29.251  21.555   3.488  0.0681  0.2032  0.0901
 2306DPPC   C4A49364  29.361  21.082   3.656  0.0255  0.2202  0.0270
 2306DPPC   C1B49365  28.666  21.713   3.724  0.0103 -0.0714  0.1374
 2306DPPC   C2B49366  28.963  21.394   3.938 -0.0744 -0.0187 -0.0758
 2306DPPC   C3B49367  29.374  21.330   4.114 -0.2780 -0.1209 -0.0874
 2306DPPC   C4B49368  29.543  21.022   4.394 -0.0719  0.3567  0.0953
 2307DPPC   NC349369  21.932  19.417  21.868  0.0612  0.0666  0.0406
 2307DPPC   PO449370  21.857  19.162  21.375 -0.2539 -0.2844 -0.0102
 2307DPPC   GL149371  21.429  19.016  21.510  0.2631  0.1428 -0.1544
 2307DPPC   GL249372  21.289  19.396  21.642  0.2972 -0.0493  0.3936
 2307DPPC   C1A49373  21.296  18.686  21.563  0.0800 -0.0757 -0.0789
 2307DPPC   C2A49374  21.431  18.319  21.738 -0.2506 -0.1169 -0.2521
 2307DPPC   C3A49375  21.404  17.947  21.936  0.0779  0.1258  0.0912
 2307DPPC   C4A49376  21.562  17.663  22.281  0.0327 -0.1309  0.0531
 2307DPPC   C1B49377  21.247  19.134  21.971  0.1272  0.1968 -0.1009
 2307DPPC   C2B49378  21.413  18.800  22.129  0.1856 -0.0353  0.1846
 2307DPPC   C3B49379  21.575  18.390  22.274  0.2098 -0.0199 -0.3165
 2307DPPC   C4B49380  21.356  18.074  22.422 -0.2181 -0.1358  0.1115
 2308DPPC   NC349381  23.799  27.654   5.466 -0.1295 -0.1391 -0.0360
 2308DPPC   PO449382  23.778  28.066   5.330 -0.1949  0.1171  0.0442
 2308DPPC   GL149383  23.729  28.371   5.509  0.3569 -0.1278 -0.2617
 2308DPPC   GL249384  23.907  28.689   5.335 -0.1458 -0.1963  0.1623
 2308DPPC   C1A49385  23.821  28.809   5.841 -0.0105  0.1015 -0.1232
 2308DPPC   C2A49386  23.978  29.139   5.575 -0.1083  0.2464  0.0205
 2308DPPC   C3A49387  24.225  29.481   5.558  0.3085  0.0476  0.1819
 2308DPPC   C4A49388  24.341  29.880   5.612  0.3450  0.1084 -0.0068
 2308DPPC   C1B49389  24.411  28.986   5.321  0.2350  0.0667  0.3221
 2308DPPC   C2B49390  24.688  29.302   5.499  0.1061 -0.0922  0.4070
 2308DPPC   C3B49391  24.838  29.779   5.558 -0.0623 -0.2222 -0.1763
 2308DPPC   C4B49392  24.695  30.150   5.369  0.0141  0.2334  0.0865
 2309DPPC   NC349393  24.410  20.302  23.883  0.1044 -0.0975 -0.1512
 2309DPPC   PO449394  24.923  20.011  23.924 -0.0698  0.0963  0.0130
 2309DPPC   GL149395  25.016  20.462  23.785 -0.0367 -0.0511 -0.1590
 2309DPPC   GL249396  24.780  20.671  23.783  0.1812  0.2695  0.3446
 2309DPPC   C1A49397  25.270  20.831  23.588 -0.1094  0.1531 -0.0263
 2309DPPC   C2A49398  25.242  21.027  23.186  0.2626  0.0732 -0.1082
 2309DPPC   C3A49399  25.359  20.882  22.805 -0.0416 -0.0841  0.0955
 2309DPPC   C4A49400  25.519  20.676  22.451 -0.0622  0.1167  0.0751
 2309DPPC   C1B49401  24.822  20.774  23.375 -0.1772 -0.2750 -0.1512
 2309DPPC   C2B49402  24.729  21.150  23.091  0.1815 -0.2257 -0.0880
 2309DPPC   C3B49403  24.644  21.460  22.792 -0.1100  0.2027 -0.1823
 2309DPPC   C4B49404  24.478  21.920  22.641  0.1694  0.0418  0.0967
 2310DPPC   NC349405  18.587  23.192  23.774  0.2917 -0.1978  0.1558
 2310DPPC   PO449406  18.862  23.205  23.960  0.0223  0.1512  0.0976
 2310DPPC   GL149407  18.734  22.745  24.062  0.0239 -0.1537  0.1771
 2310DPPC   GL249408  18.449  22.844  24.174 -0.1340  0.1899 -0.3227
 2310DPPC   C1A49409  18.834  22.613  24.432 -0.1505  0.1911 -0.0863
 2310DPPC   C2A49410  18.660  22.475  24.727 -0.1804 -0.2205 -0.0083
 2310DPPC   C3A49411  18.456  22.141  24.787 -0.0729  0.0125  0.1573
 2310DPPC   C4A49412  18.186  21.838  24.764  0.0145 -0.0222 -0.0631
 2310DPPC   C1B49413  18.071  22.746  24.403  0.1921  0.2300  0.2506
 2310DPPC   C2B49414  17.874  22.752  24.723 -0.1704 -0.0769  0.0738
 2310DPPC   C3B49415  17.578  22.472  24.759 -0.1522  0.0296 -0.0134
 2310DPPC   C4B49416  17.590  21.996  24.775  0.0405  0.2806 -0.1344
 2311DPPC   NC349417  18.001  28.487  23.019 -0.1219  0.1116 -0.0187
 2311DPPC   PO449418  17.899  28.490  23.400 -0.2187  0.1422  0.0808
 2311DPPC   GL149419  18.385  28.595  23.339 -0.0128 -0.0889 -0.3325
 2311DPPC   GL249420  18.460  28.590  23.000  0.3554  0.0230  0.0945
 2311DPPC   C1A49421  18.650  28.962  23.445  0.0559  0.1366 -0.1959
 2311DPPC   C2A49422  18.818  29.296  23.266 -0.1226 -0.0807 -0.3370
 2311DPPC   C3A49423  18.739  29.747  23.143 -0.1267  0.1015 -0.0469
 2311DPPC   C4A49424  18.879  29.956  22.754 -0.3676 -0.0123  0.1334
 2311DPPC   C1B49425  18.417  29.025  23.005 -0.2427  0.0574  0.0696
 2311DPPC   C2B49426  18.328  29.444  23.264  0.1756  0.0028 -0.0099
 2311DPPC   C3B49427  18.145  29.858  23.211 -0.3774 -0.2032 -0.2124
 2311DPPC   C4B49428  17.808  30.209  23.298 -0.2144  0.1789 -0.0124
 2312DPPC   NC349429  16.431  28.652  22.187 -0.0083  0.0914  0.4004
 2312DPPC   PO449430  16.647  29.008  22.161 -0.0694  0.2647  0.1341
 2312DPPC   GL149431  16.691  29.367  22.175 -0.1445  0.4467 -0.0314
 2312DPPC   GL249432  16.445  29.448  22.323  0.1036  0.2459 -0.2973
 2312DPPC   C1A49433  17.054  29.620  22.028 -0.0102 -0.0148 -0.3221
 2312DPPC   C2A49434  17.133  30.084  22.011 -0.0369  0.3393  0.1432
 2312DPPC   C3A49435  17.051  30.478  22.007  0.0408 -0.1279 -0.0391
 2312DPPC   C4A49436  16.892  30.720  22.123  0.0024 -0.1573 -0.0874
 2312DPPC   C1B49437  16.533  29.935  22.252  0.4022  0.0831  0.3262
 2312DPPC   C2B49438  16.650  30.355  22.374 -0.1351 -0.0361 -0.0991
 2312DPPC   C3B49439  16.655  30.566  22.803 -0.1162 -0.0249  0.0498
 2312DPPC   C4B49440  16.542  30.784  23.182 -0.0275  0.0698  0.5851
 2313DPPC   NC349441  19.612  29.377   1.977 -0.0159 -0.0513  0.1777
 2313DPPC   PO449442  19.719  29.050   2.298 -0.0010  0.1065 -0.5702
 2313DPPC   GL149443  19.608  29.399   2.494  0.3220  0.2277 -0.2282
 2313DPPC   GL249444  19.731  29.332   2.738  0.0315 -0.4659 -0.1366
 2313DPPC   C1A49445  19.604  29.842   2.434 -0.1390  0.0602 -0.0887
 2313DPPC   C2A49446  19.915  30.193   2.604  0.2031 -0.1530  0.0775
 2313DPPC   C3A49447  19.703  30.584   2.679 -0.0369 -0.3097 -0.0213
 2313DPPC   C4A49448  19.618  30.948   2.843 -0.0480  0.0708  0.0967
 2313DPPC   C1B49449  19.482  29.658   3.006  0.3694  0.0344  0.0015
 2313DPPC   C2B49450  19.247  29.860   3.005 -0.0726  0.1431 -0.1969
 2313DPPC   C3B49451  18.846  30.019   2.886  0.0751 -0.1706  0.2322
 2313DPPC   C4B49452  18.621  30.358   3.086  0.0645  0.2110  0.3135
 2314DPPC   NC349453  22.546  20.237  23.659  0.1690 -0.0010  0.2832
 2314DPPC   PO449454  22.235  19.955  23.774 -0.1142  0.3740  0.0612
 2314DPPC   GL149455  22.113  19.545  23.732 -0.1598  0.1177 -0.2825
 2314DPPC   GL249456  22.288  19.377  24.000 -0.0168 -0.2581 -0.0910
 2314DPPC   C1A49457  21.994  19.084  23.649  0.0929 -0.2313  0.1366
 2314DPPC   C2A49458  21.755  18.790  23.858 -0.0517  0.2752  0.0459
 2314DPPC   C3A49459  21.541  18.346  23.964  0.0431 -0.3904  0.0849
 2314DPPC   C4A49460  21.418  18.014  24.182 -0.0443  0.0378  0.0292
 2314DPPC   C1B49461  22.170  18.860  24.055  0.0466 -0.6134 -0.0530
 2314DPPC   C2B49462  22.188  18.486  24.114 -0.0851  0.1913  0.1374
 2314DPPC   C3B49463  22.019  18.192  23.849 -0.2940 -0.3339  0.1312
 2314DPPC   C4B49464  21.722  17.910  23.641  0.2531  0.0095 -0.0344
 2315DPPC   NC349465  24.319  20.469   0.513 -0.0592  0.0579  0.0013
 2315DPPC   PO449466  24.660  20.422   0.858  0.1845 -0.1757  0.0163
 2315DPPC   GL149467  24.572  20.177   1.225 -0.1384  0.0671 -0.0233
 2315DPPC   GL249468  24.815  20.040   1.353 -0.1570  0.1354  0.0399
 2315DPPC   C1A49469  24.379  20.138   1.662  0.2404  0.5925 -0.0246
 2315DPPC   C2A49470  24.150  19.768   1.836  0.1136 -0.1224 -0.1361
 2315DPPC   C3A49471  23.874  19.511   2.101 -0.1092  0.0090 -0.2916
 2315DPPC   C4A49472  23.899  19.308   2.540  0.1145 -0.1515 -0.1477
 2315DPPC   C1B49473  24.687  19.688   1.656 -0.1476 -0.0140 -0.0544
 2315DPPC   C2B49474  24.609  19.372   1.960  0.1026  0.0994  0.0176
 2315DPPC   C3B49475  24.863  19.100   2.242  0.1331  0.0761  0.0172
 2315DPPC   C4B49476  25.291  19.014   2.359 -0.3249 -0.1130  0.3173
 2316DPPC   NC349477  23.272  19.948  20.710  0.1656  0.2684  0.0680
 2316DPPC   PO449478  23.749  19.904  20.718 -0.1475 -0.0840 -0.2529
 2316DPPC   GL149479  24.135  19.871  20.395  0.1710  0.1351 -0.1349
 2316DPPC   GL249480  24.289  19.557  20.601 -0.2020  0.2149 -0.1256
 2316DPPC   C1A49481  24.562  19.912  20.192 -0.1044 -0.1092 -0.1784
 2316DPPC   C2A49482  24.987  20.113  20.341 -0.0053 -0.0712  0.0639
 2316DPPC   C3A49483  25.323  19.883  20.387  0.1936  0.0939  0.0900
 2316DPPC   C4A49484  25.763  19.600  20.589  0.3919 -0.0711 -0.1459
 2316DPPC   C1B49485  24.301  19.466  20.159 -0.4085 -0.2368  0.1881
 2316DPPC   C2B49486  24.318  19.241  19.790  0.0479 -0.0941 -0.2130
 2316DPPC   C3B49487  24.162  18.897  19.623 -0.1214 -0.3884  0.3954
 2316DPPC   C4B49488  23.908  18.702  19.715 -0.2559 -0.0766  0.2756
 2317DPPC   NC349489  16.933  25.764  21.503  0.1489 -0.0803 -0.0994
 2317DPPC   PO449490  16.847  25.989  21.934 -0.2337  0.1345 -0.0090
 2317DPPC   GL149491  16.472  25.733  22.020 -0.1345 -0.0350 -0.1333
 2317DPPC   GL249492  16.546  25.428  21.971 -0.1726 -0.0366 -0.0254
 2317DPPC   C1A49493  16.039  25.562  21.854 -0.3891 -0.1838 -0.0603
 2317DPPC   C2A49494  15.687  25.185  21.813  0.2148 -0.1380 -0.1168
 2317DPPC   C3A49495  15.438  24.876  22.129  0.1093  0.0307  0.2485
 2317DPPC   C4A49496  15.258  24.509  22.351 -0.1751 -0.3435  0.1524
 2317DPPC   C1B49497  16.238  25.112  21.972 -0.0206 -0.2624  0.1157
 2317DPPC   C2B49498  15.971  24.808  21.903 -0.0248 -0.1383 -0.1374
 2317DPPC   C3B49499  15.642  24.606  21.794 -0.1307  0.3238 -0.1640
 2317DPPC   C4B49500  15.620  24.195  21.985  0.2836 -0.0172 -0.5363
 2318DPPC   NC349501  18.386  26.908  22.827 -0.1965 -0.1703  0.0500
 2318DPPC   PO449502  18.313  27.191  22.469  0.0646 -0.1692  0.1208
 2318DPPC   GL149503  18.546  27.476  22.261  0.1087  0.1561  0.1178
 2318DPPC   GL249504  18.372  27.663  22.012 -0.0947  0.1387  0.0014
 2318DPPC   C1A49505  18.879  27.563  22.076  0.2665 -0.0505  0.1124
 2318DPPC   C2A49506  19.281  27.829  22.169  0.2899  0.0081 -0.1300
 2318DPPC   C3A49507  19.647  27.983  22.461  0.1193 -0.1239 -0.2179
 2318DPPC   C4A49508  20.069  27.848  22.398  0.3506  0.0943  0.2160
 2318DPPC   C1B49509  18.650  27.913  21.725  0.1956 -0.2397 -0.2083
 2318DPPC   C2B49510  18.946  27.775  21.514  0.2736 -0.1037 -0.0637
 2318DPPC   C3B49511  19.372  27.886  21.666  0.0883 -0.2358 -0.1082
 2318DPPC   C4B49512  19.538  28.206  21.880  0.2261 -0.1163  0.0992
 2319DPPC   NC349513  23.639  20.780  23.548 -0.1934  0.0901 -0.4953
 2319DPPC   PO449514  23.944  20.508  23.701 -0.1009 -0.0521 -0.0508
 2319DPPC   GL149515  24.248  20.804  23.787 -0.2203 -0.2029 -0.0759
 2319DPPC   GL249516  24.470  20.923  24.091  0.2477  0.1787 -0.1686
 2319DPPC   C1A49517  24.484  21.144  23.582 -0.1858  0.0633  0.1273
 2319DPPC   C2A49518  24.766  21.535  23.407  0.2503 -0.1357 -0.1201
 2319DPPC   C3A49519  24.789  21.858  23.043  0.1750 -0.1150  0.0398
 2319DPPC   C4A49520  24.737  22.227  22.989 -0.2681  0.0239  0.2529
 2319DPPC   C1B49521  24.917  21.150  23.916  0.0529  0.1986  0.1880
 2319DPPC   C2B49522  25.130  21.315  23.609  0.4690  0.0421  0.2100
 2319DPPC   C3B49523  25.255  21.618  23.283 -0.4717 -0.1522 -0.2903
 2319DPPC   C4B49524  25.639  21.742  23.266  0.4306  0.1439 -0.4602
 2320DPPC   NC349525  19.729  24.040  18.168  0.0030  0.0931  0.2466
 2320DPPC   PO449526  19.363  23.772  17.912 -0.0114 -0.1324  0.0492
 2320DPPC   GL149527  19.211  23.653  17.492 -0.1990  0.1222 -0.0515
 2320DPPC   GL249528  19.006  23.622  17.264 -0.0597 -0.2111 -0.2416
 2320DPPC   C1A49529  19.469  23.832  17.257  0.2932  0.0294 -0.0334
 2320DPPC   C2A49530  19.655  24.135  16.955  0.0384  0.4195  0.3224
 2320DPPC   C3A49531  19.821  24.285  16.674 -0.1446 -0.0677 -0.0641
 2320DPPC   C4A49532  20.233  24.311  16.581 -0.0664  0.0983 -0.0540
 2320DPPC   C1B49533  18.851  23.193  17.048  0.0461  0.0144  0.0064
 2320DPPC   C2B49534  19.130  22.817  16.994  0.0074  0.2021 -0.2035
 2320DPPC   C3B49535  19.312  22.368  17.097  0.0950  0.1715  0.0038
 2320DPPC   C4B49536  19.695  22.102  17.038  0.0916 -0.0689  0.0169
 2321DPPC   NC349537  20.405  20.569  19.713 -0.2873 -0.0153  0.2311
 2321DPPC   PO449538  20.808  20.328  19.622 -0.0608 -0.0392  0.0621
 2321DPPC   GL149539  20.589  20.014  19.443  0.0079 -0.2080 -0.0996
 2321DPPC   GL249540  20.777  19.966  19.300  0.0124 -0.0401 -0.2006
 2321DPPC   C1A49541  20.268  19.785  19.630 -0.0294  0.0233 -0.2012
 2321DPPC   C2A49542  19.940  19.579  19.820  0.2187  0.0502 -0.4683
 2321DPPC   C3A49543  19.575  19.344  19.757 -0.2424  0.2464  0.2704
 2321DPPC   C4A49544  19.510  19.193  19.353 -0.0756  0.1938  0.0415
 2321DPPC   C1B49545  20.612  19.874  18.915 -0.1179 -0.4560 -0.0947
 2321DPPC   C2B49546  20.440  19.475  18.625  0.5334  0.1165 -0.1675
 2321DPPC   C3B49547  20.115  19.219  18.727  0.0284  0.1251  0.2076
 2321DPPC   C4B49548  19.703  19.272  18.909  0.0875  0.1497  0.2154
 2322DPPC   NC349549  23.707  28.239   4.192 -0.0361 -0.3636  0.3358
 2322DPPC   PO449550  24.026  27.853   4.336 -0.3984  0.0669 -0.2367
 2322DPPC   GL149551  24.229  28.313   4.184 -0.2745  0.2301  0.1628
 2322DPPC   GL249552  24.170  28.463   3.991 -0.0343  0.1134  0.3003
 2322DPPC   C1A49553  24.575  28.702   4.237 -0.1893 -0.1253  0.2426
 2322DPPC   C2A49554  24.865  29.017   4.418  0.0186 -0.3597 -0.0345
 2322DPPC   C3A49555  24.819  29.471   4.224 -0.6313  0.2526 -0.2581
 2322DPPC   C4A49556  25.291  29.505   4.112  0.0856  0.1207  0.2992
 2322DPPC   C1B49557  24.132  28.808   4.045 -0.1729 -0.0672  0.1504
 2322DPPC   C2B49558  24.017  29.289   3.896 -0.0160 -0.2153  0.1327
 2322DPPC   C3B49559  23.820  29.689   3.891  0.3743 -0.5179  0.1350
 2322DPPC   C4B49560  23.658  30.128   3.814 -0.3165 -0.3505 -0.3425
 2323DPPC   NC349561  22.202  27.339   4.501 -0.0838 -0.1615 -0.2447
 2323DPPC   PO449562  22.398  27.812   4.632  0.1176  0.1718 -0.2468
 2323DPPC   GL149563  22.162  27.659   4.964 -0.2652 -0.4512 -0.0053
 2323DPPC   GL249564  22.307  27.693   5.238 -0.1817  0.3105 -0.3973
 2323DPPC   C1A49565  21.879  27.264   5.187  0.1419  0.0992  0.1296
 2323DPPC   C2A49566  21.517  27.267   5.475  0.2762 -0.0607  0.4310
 2323DPPC   C3A49567  21.102  27.303   5.466 -0.0980 -0.0233  0.2249
 2323DPPC   C4A49568  20.792  27.597   5.374 -0.1133 -0.0155  0.0125
 2323DPPC   C1B49569  22.023  27.722   5.542 -0.2862 -0.1466  0.1434
 2323DPPC   C2B49570  21.582  27.696   5.655 -0.0496 -0.0937 -0.1190
 2323DPPC   C3B49571  21.025  27.638   5.811  0.0112 -0.1248  0.0506
 2323DPPC   C4B49572  20.590  27.711   5.966 -0.2954 -0.2537  0.0385
 2324DPPC   NC349573  23.808  22.889   0.571  0.0146  0.0529 -0.0555
 2324DPPC   PO449574  24.026  22.732   0.944 -0.1195  0.0296 -0.0522
 2324DPPC   GL149575  24.311  22.946   0.651  0.1177 -0.1416 -0.1031
 2324DPPC   GL249576  24.206  23.263   0.735 -0.0752  0.1690  0.0453
 2324DPPC   C1A49577  24.533  23.076   0.282 -0.1968 -0.0392 -0.0833
 2324DPPC   C2A49578  24.515  23.438   0.048  0.2297  0.0438  0.2422
 2324DPPC   C3A49579  24.369  23.770  26.722  0.0168 -0.0046  0.3355
 2324DPPC   C4A49580  23.956  23.863  26.801 -0.0288 -0.1814 -0.1613
 2324DPPC   C1B49581  24.624  23.519   0.548  0.2475  0.0572  0.1334
 2324DPPC   C2B49582  24.864  23.733   0.185 -0.2244  0.0301 -0.1528
 2324DPPC   C3B49583  24.983  24.079  26.794 -0.0029  0.0499 -0.2856
 2324DPPC   C4B49584  25.271  24.418  26.722 -0.0519 -0.0337 -0.0898
 2325DPPC   NC349585  25.386  23.027   4.202  0.2091 -0.4965  0.2388
 2325DPPC   PO449586  25.689  23.279   4.361  0.0932 -0.1991 -0.1428
 2325DPPC   GL149587  25.474  23.033   4.724 -0.0091  0.1672 -0.2166
 2325DPPC   GL249588  25.198  22.686   4.700 -0.0826 -0.0055 -0.0631
 2325DPPC   C1A49589  25.182  22.902   5.139  0.1183  0.0660  0.4007
 2325DPPC   C2A49590  25.176  22.830   5.557  0.0273  0.3246 -0.1759
 2325DPPC   C3A49591  25.418  22.549   5.845 -0.0928 -0.0037  0.0373
 2325DPPC   C4A49592  25.880  22.409   5.894 -0.1231  0.1879  0.2333
 2325DPPC   C1B49593  25.377  22.484   5.082  0.2837  0.1574 -0.1379
 2325DPPC   C2B49594  25.720  22.445   5.398  0.2532 -0.3186 -0.1921
 2325DPPC   C3B49595  26.101  22.627   5.507  0.0141  0.2198  0.0121
 2325DPPC   C4B49596  26.520  22.562   5.733  0.2833 -0.0455  0.1486
 2326DPPC   NC349597  21.175  20.221  21.978  0.4226 -0.1161 -0.0592
 2326DPPC   PO449598  21.485  19.859  21.949  0.2994 -0.1327  0.1608
 2326DPPC   GL149599  21.294  19.571  22.336 -0.5656  0.1501 -0.1958
 2326DPPC   GL249600  21.457  19.365  22.689 -0.0502 -0.1936 -0.0877
 2326DPPC   C1A49601  21.168  19.081  22.441  0.0940  0.1840 -0.2284
 2326DPPC   C2A49602  21.029  18.657  22.384 -0.0131  0.0282 -0.0188
 2326DPPC   C3A49603  20.921  18.354  21.995 -0.0552 -0.0401 -0.1078
 2326DPPC   C4A49604  20.570  18.083  21.831 -0.2374  0.0920  0.0890
 2326DPPC   C1B49605  21.297  18.966  22.961 -0.1890 -0.1130  0.2916
 2326DPPC   C2B49606  20.986  18.783  23.047  0.1412 -0.2253 -0.1480
 2326DPPC   C3B49607  20.912  18.470  23.238  0.0970 -0.0636 -0.0055
 2326DPPC   C4B49608  20.440  18.251  23.261  0.2410 -0.1314  0.1774
 2327DPPC   NC349609  17.551  28.555   0.166  0.0496  0.0226  0.2095
 2327DPPC   PO449610  17.912  28.319   0.358  0.1643 -0.1830  0.0577
 2327DPPC   GL149611  17.592  28.017   0.682  0.1134 -0.2252 -0.2134
 2327DPPC   GL249612  17.324  28.097   0.477 -0.0767  0.0896  0.0060
 2327DPPC   C1A49613  17.212  27.824   0.879 -0.0761  0.1488 -0.2900
 2327DPPC   C2A49614  17.026  27.568   1.178  0.2105 -0.1456  0.0081
 2327DPPC   C3A49615  16.926  27.117   1.328  0.1873 -0.0908  0.0699
 2327DPPC   C4A49616  16.729  26.956   1.732 -0.2280  0.0717 -0.1618
 2327DPPC   C1B49617  17.203  28.327   0.783 -0.1712  0.2327  0.0116
 2327DPPC   C2B49618  17.224  28.683   1.074  0.1783 -0.4597 -0.1072
 2327DPPC   C3B49619  17.326  28.428   1.482 -0.2851 -0.1088 -0.3412
 2327DPPC   C4B49620  17.150  28.304   1.801 -0.0103  0.1652  0.3786
 2328DPPC   NC349621  21.422  28.306   4.492 -0.1106  0.3377  0.1120
 2328DPPC   PO449622  21.030  28.441   4.497  0.2049  0.0095 -0.3435
 2328DPPC   GL149623  20.941  28.805   4.812  0.0710  0.0883 -0.2158
 2328DPPC   GL249624  21.247  29.032   4.811 -0.2350  0.1040  0.1478
 2328DPPC   C1A49625  20.613  29.123   4.944  0.2743 -0.1785  0.1735
 2328DPPC   C2A49626  20.703  29.560   5.150 -0.2006  0.1325 -0.2025
 2328DPPC   C3A49627  20.923  29.807   5.018  0.0584  0.0014  0.0830
 2328DPPC   C4A49628  21.291  29.824   4.921  0.1865 -0.5816 -0.2850
 2328DPPC   C1B49629  21.498  28.804   5.000  0.0332 -0.2455 -0.0870
 2328DPPC   C2B49630  21.738  28.585   5.258 -0.2076 -0.1430  0.2899
 2328DPPC   C3B49631  21.942  28.603   5.666 -0.3120 -0.1101 -0.2709
 2328DPPC   C4B49632  22.225  28.657   6.110 -0.4674  0.0002 -0.1705
 2329DPPC   NC349633  16.406  28.723  23.603 -0.1260  0.4018 -0.1250
 2329DPPC   PO449634  16.206  29.018  23.617  0.2054 -0.7158 -0.1080
 2329DPPC   GL149635  15.877  29.150  23.819 -0.1419  0.0147 -0.1586
 2329DPPC   GL249636  15.756  28.797  23.841  0.1147 -0.1167 -0.6247
 2329DPPC   C1A49637  15.796  29.616  24.074  0.3614  0.4422  0.1792
 2329DPPC   C2A49638  15.883  29.749  24.536  0.2858 -0.1941  0.1030
 2329DPPC   C3A49639  15.533  30.084  24.771 -0.2559  0.1605 -0.1461
 2329DPPC   C4A49640  15.179  30.177  25.148  0.3291  0.2281  0.2211
 2329DPPC   C1B49641  15.438  28.682  24.069  0.0365  0.0639  0.0144
 2329DPPC   C2B49642  15.335  28.610  24.466  0.0195  0.0690  0.2885
 2329DPPC   C3B49643  15.087  28.302  24.715  0.0976  0.2036 -0.0944
 2329DPPC   C4B49644  14.661  28.077  24.896 -0.2325 -0.1883 -0.3781
 2330DPPC   NC349645  20.177  26.112   2.116  0.1881 -0.2302 -0.2921
 2330DPPC   PO449646  20.205  25.680   2.419  0.1312  0.1009 -0.0822
 2330DPPC   GL149647  20.061  25.372   2.440  0.3624 -0.1739 -0.0414
 2330DPPC   GL249648  20.064  25.200   2.696  0.1189 -0.1202  0.1909
 2330DPPC   C1A49649  19.651  25.083   2.370  0.1207 -0.0345  0.1244
 2330DPPC   C2A49650  19.328  24.853   2.607  0.0328 -0.0688 -0.1728
 2330DPPC   C3A49651  19.106  24.870   2.946  0.1903  0.0755  0.0684
 2330DPPC   C4A49652  18.703  24.619   3.133 -0.0786  0.0067 -0.0914
 2330DPPC   C1B49653  19.720  25.001   2.909  0.1850 -0.1109  0.0802
 2330DPPC   C2B49654  19.549  24.854   3.279 -0.0777  0.0181  0.0378
 2330DPPC   C3B49655  19.112  24.790   3.422 -0.1046  0.0706  0.0872
 2330DPPC   C4B49656  18.689  24.878   3.622 -0.2439 -0.0887  0.0881
 2331DPPC   NC349657  20.907  24.969   2.465 -0.1861 -0.1094  0.2865
 2331DPPC   PO449658  21.122  24.645   2.811 -0.0492  0.0453  0.1117
 2331DPPC   GL149659  20.795  24.502   3.017  0.1024  0.0356 -0.0276
 2331DPPC   GL249660  20.794  24.706   3.285 -0.0346 -0.1917  0.1072
 2331DPPC   C1A49661  20.591  24.298   3.267 -0.1909 -0.0719  0.0008
 2331DPPC   C2A49662  20.627  24.180   3.627  0.1140 -0.1198 -0.1544
 2331DPPC   C3A49663  20.238  24.014   3.805 -0.1961 -0.0486 -0.1054
 2331DPPC   C4A49664  19.821  23.768   3.837  0.1245 -0.1559  0.2577
 2331DPPC   C1B49665  20.357  24.813   3.578 -0.3892  0.0930  0.1404
 2331DPPC   C2B49666  20.069  24.924   3.982 -0.0717 -0.2349 -0.0507
 2331DPPC   C3B49667  20.022  25.174   4.321  0.2984  0.3634 -0.0213
 2331DPPC   C4B49668  19.622  25.161   4.497  0.0689  0.5894  0.2179
 2332DPPC   NC349669  26.699  22.779   4.132 -0.3939  0.0272  0.1717
 2332DPPC   PO449670  27.122  22.768   3.914  0.1492 -0.0967  0.1535
 2332DPPC   GL149671  27.373  22.613   4.176 -0.2150 -0.1596 -0.3262
 2332DPPC   GL249672  27.613  22.499   4.031 -0.1637 -0.2306 -0.0014
 2332DPPC   C1A49673  27.782  22.747   4.407  0.2550 -0.2396  0.0627
 2332DPPC   C2A49674  28.034  22.844   4.637 -0.1146 -0.2090 -0.0098
 2332DPPC   C3A49675  28.419  22.778   4.577  0.0240 -0.0408  0.1577
 2332DPPC   C4A49676  28.674  22.338   4.538 -0.0030 -0.0033  0.1495
 2332DPPC   C1B49677  27.600  22.050   4.153 -0.0951  0.1761  0.1386
 2332DPPC   C2B49678  27.751  21.643   4.059 -0.1924 -0.5281 -0.1605
 2332DPPC   C3B49679  27.756  21.150   3.694  0.2050 -0.0303  0.3054
 2332DPPC   C4B49680  27.497  20.906   3.380  0.2695 -0.0092 -0.0233
 2333DPPC   NC349681  21.861  22.741   0.704 -0.4092  0.0183 -0.2356
 2333DPPC   PO449682  21.479  22.840   0.476 -0.0323 -0.5377 -0.3370
 2333DPPC   GL149683  21.164  22.575   0.713  0.1881 -0.1389  0.3565
 2333DPPC   GL249684  21.343  22.445   0.908 -0.0407 -0.4728  0.3466
 2333DPPC   C1A49685  20.869  22.262   0.764  0.1710 -0.0157 -0.1241
 2333DPPC   C2A49686  20.409  22.124   0.927 -0.0767 -0.1106  0.2837
 2333DPPC   C3A49687  20.100  22.020   1.278 -0.0068 -0.1290 -0.1478
 2333DPPC   C4A49688  20.205  21.723   1.585 -0.0087  0.0240 -0.0164
 2333DPPC   C1B49689  21.153  22.049   1.091  0.0279 -0.2838  0.2710
 2333DPPC   C2B49690  21.136  21.682   1.346 -0.2068  0.1774 -0.2989
 2333DPPC   C3B49691  21.184  21.261   1.665 -0.0164  0.0477 -0.2079
 2333DPPC   C4B49692  21.493  21.267   2.005 -0.4047  0.4105  0.1400
 2334DPPC   NC349693  17.528  26.080  25.299 -0.0483 -0.1252  0.2046
 2334DPPC   PO449694  17.867  25.747  25.337  0.2006 -0.1628 -0.1745
 2334DPPC   GL149695  17.428  25.493  25.540  0.1864  0.5039  0.3038
 2334DPPC   GL249696  17.161  25.709  25.426  0.0486  0.2581 -0.3776
 2334DPPC   C1A49697  17.135  25.343  25.890 -0.2691 -0.2871  0.1072
 2334DPPC   C2A49698  16.901  24.974  26.098 -0.3323 -0.4498  0.2106
 2334DPPC   C3A49699  16.553  24.561  26.095  0.2761 -0.0981 -0.2822
 2334DPPC   C4A49700  16.285  24.292  26.137 -0.1093 -0.0244 -0.0421
 2334DPPC   C1B49701  16.810  25.405  25.515 -0.4988  0.0970  0.2120
 2334DPPC   C2B49702  16.500  25.150  25.742  0.1213  0.2574 -0.3021
 2334DPPC   C3B49703  16.160  24.838  25.899  0.1645 -0.1228  0.0689
 2334DPPC   C4B49704  15.743  24.810  25.867  0.2086  0.0434 -0.0542
 2335DPPC   NC349705  17.685  29.522  25.438 -0.0365 -0.0259  0.1644
 2335DPPC   PO449706  17.694  29.247  25.128  0.0704 -0.2313  0.1388
 2335DPPC   GL149707  18.048  29.597  25.034 -0.0585  0.2322  0.0762
 2335DPPC   GL249708  17.962  29.845  25.237  0.2117 -0.0925  0.0913
 2335DPPC   C1A49709  18.260  29.684  24.603 -0.1205 -0.1578  0.0403
 2335DPPC   C2A49710  18.584  29.957  24.335 -0.3263  0.2407  0.2204
 2335DPPC   C3A49711  18.923  29.989  24.006  0.1989 -0.1539  0.0412
 2335DPPC   C4A49712  19.139  30.264  24.181  0.3650 -0.0311 -0.0543
 2335DPPC   C1B49713  17.751  30.229  25.183  0.1112 -0.2749 -0.1726
 2335DPPC   C2B49714  17.667  30.553  25.061  0.0660 -0.1581 -0.0746
 2335DPPC   C3B49715  17.657  30.715  24.671 -0.0391 -0.2982 -0.2580
 2335DPPC   C4B49716  17.916  31.054  24.474  0.1592  0.0946 -0.1999
 2336DPPC   NC349717  20.637  23.048  24.274  0.1314  0.0037 -0.1936
 2336DPPC   PO449718  21.042  23.070  24.009 -0.1058 -0.1639  0.1571
 2336DPPC   GL149719  21.311  23.344  23.930 -0.1460  0.0958 -0.1060
 2336DPPC   GL249720  21.143  23.519  23.698  0.2203  0.1450  0.1230
 2336DPPC   C1A49721  21.624  23.661  24.060 -0.2619 -0.2038  0.0487
 2336DPPC   C2A49722  21.758  24.023  23.869  0.1010  0.0414 -0.0539
 2336DPPC   C3A49723  21.991  24.359  23.660  0.2513  0.0973 -0.0705
 2336DPPC   C4A49724  22.294  24.682  23.380  0.2250 -0.2117 -0.0367
 2336DPPC   C1B49725  21.518  23.738  23.526 -0.1277  0.2073  0.0927
 2336DPPC   C2B49726  21.886  23.945  23.344 -0.2847  0.0377  0.3343
 2336DPPC   C3B49727  22.188  24.127  23.153 -0.1384  0.0675  0.1278
 2336DPPC   C4B49728  22.394  24.001  22.768  0.2049 -0.2741 -0.3354
 2337DPPC   NC349729  20.000  23.615  22.568  0.1354  0.0675  0.1436
 2337DPPC   PO449730  19.827  23.917  22.177  0.2476 -0.1806  0.0890
 2337DPPC   GL149731  20.142  24.290  21.956  0.3310  0.0813 -0.1779
 2337DPPC   GL249732  20.097  24.635  21.989 -0.0532 -0.0738 -0.2498
 2337DPPC   C1A49733  20.571  24.462  21.921 -0.2637  0.0815 -0.2220
 2337DPPC   C2A49734  20.946  24.404  21.741  0.5410 -0.0341  0.2832
 2337DPPC   C3A49735  21.323  24.363  21.712  0.3879 -0.0435  0.2539
 2337DPPC   C4A49736  21.758  24.298  21.876  0.2670 -0.1934 -0.0993
 2337DPPC   C1B49737  20.269  24.752  21.607 -0.5322  0.0753  0.1643
 2337DPPC   C2B49738  20.779  24.797  21.584 -0.1034 -0.2628  0.0923
 2337DPPC   C3B49739  21.280  24.883  21.528 -0.2226 -0.0800  0.0838
 2337DPPC   C4B49740  21.764  25.135  21.689 -0.2025  0.0197  0.1455
 2338DPPC   NC349741  18.457  29.002  25.957  0.0913  0.1974  0.1226
 2338DPPC   PO449742  18.809  28.955  26.212 -0.2058 -0.1232 -0.1739
 2338DPPC   GL149743  19.205  29.080  26.216  0.0419 -0.3614 -0.1758
 2338DPPC   GL249744  19.532  28.868  26.153  0.1826  0.0824  0.0885
 2338DPPC   C1A49745  19.492  29.334  26.078  0.0120  0.1686 -0.1563
 2338DPPC   C2A49746  19.680  29.700  25.866  0.3740  0.0450  0.1875
 2338DPPC   C3A49747  19.768  29.764  25.407  0.0470 -0.0747 -0.0815
 2338DPPC   C4A49748  19.564  30.031  24.976 -0.1263 -0.2872  0.0584
 2338DPPC   C1B49749  19.897  28.892  26.367  0.0708 -0.2490 -0.1866
 2338DPPC   C2B49750  20.291  28.805  26.396 -0.0210  0.1478 -0.0037
 2338DPPC   C3B49751  20.662  28.957  26.178 -0.2519  0.1806 -0.3351
 2338DPPC   C4B49752  20.865  28.745  25.687 -0.2893 -0.1457 -0.0307
 2339DPPC   NC349753  22.932  20.725  22.467 -0.1234 -0.1797 -0.0111
 2339DPPC   PO449754  22.782  20.621  22.061  0.0859  0.1081  0.2413
 2339DPPC   GL149755  22.835  21.075  22.049 -0.1950  0.0982 -0.1528
 2339DPPC   GL249756  22.994  21.202  22.297 -0.2901  0.0657 -0.3344
 2339DPPC   C1A49757  22.846  21.398  21.838 -0.3881 -0.0183 -0.0939
 2339DPPC   C2A49758  22.800  21.731  21.573 -0.1584 -0.1661  0.1794
 2339DPPC   C3A49759  22.765  22.058  21.155 -0.1504  0.1403 -0.0178
 2339DPPC   C4A49760  22.937  22.035  20.706  0.0799  0.1612 -0.3716
 2339DPPC   C1B49761  23.313  21.537  21.977 -0.1766 -0.0071 -0.0466
 2339DPPC   C2B49762  23.355  22.003  21.712 -0.1457  0.1379 -0.1880
 2339DPPC   C3B49763  23.149  22.161  21.473  0.1699 -0.0890 -0.0171
 2339DPPC   C4B49764  23.262  22.183  21.042 -0.1459  0.1947  0.2160
 2340DPPC   NC349765  17.511  29.710  24.955  0.0998 -0.0417  0.3232
 2340DPPC   PO449766  17.159  29.509  25.265 -0.1050  0.3433  0.0144
 2340DPPC   GL149767  17.243  29.900  25.351  0.0917 -0.1034  0.2823
 2340DPPC   GL249768  17.540  29.980  25.619 -0.2893  0.1529  0.0947
 2340DPPC   C1A49769  17.124  30.223  25.134 -0.0043 -0.0432  0.0157
 2340DPPC   C2A49770  17.252  30.457  24.759  0.0148  0.0437  0.0248
 2340DPPC   C3A49771  17.217  30.269  24.441 -0.0889 -0.2968 -0.5158
 2340DPPC   C4A49772  17.281  30.092  24.155 -0.0322  0.0281  0.1113
 2340DPPC   C1B49773  17.396  30.320  25.611 -0.2049  0.1600 -0.4639
 2340DPPC   C2B49774  17.143  30.655  25.358 -0.0323 -0.0544 -0.0922
 2340DPPC   C3B49775  16.955  30.994  25.195 -0.1450 -0.1515 -0.2445
 2340DPPC   C4B49776  16.478  31.075  25.197  0.0719  0.3226  0.2215
 2341DPPC   NC349777  18.143  29.612   0.848  0.0795  0.2731  0.3175
 2341DPPC   PO449778  18.308  29.605   0.448 -0.0011 -0.3073  0.2275
 2341DPPC   GL149779  17.921  29.943   0.571  0.1609 -0.2947  0.0571
 2341DPPC   GL249780  18.030  30.160   0.891 -0.0862 -0.1060 -0.2312
 2341DPPC   C1A49781  17.480  30.171   0.523  0.2415  0.0219 -0.2902
 2341DPPC   C2A49782  17.431  30.622   0.486 -0.2314 -0.0730 -0.1329
 2341DPPC   C3A49783  17.476  30.930   0.251 -0.3969 -0.1472 -0.1701
 2341DPPC   C4A49784  17.863  30.970  26.838  0.2355  0.1589 -0.1452
 2341DPPC   C1B49785  17.619  30.094   1.058 -0.0163 -0.2607 -0.0568
 2341DPPC   C2B49786  17.415  29.799   1.243  0.0907 -0.0740 -0.0596
 2341DPPC   C3B49787  17.014  29.867   1.500 -0.6943  0.1383 -0.0661
 2341DPPC   C4B49788  16.833  29.644   1.881 -0.0662  0.0827 -0.0081
 2342DPPC   NC349789  22.017  19.230  22.762 -0.1789 -0.2846  0.1813
 2342DPPC   PO449790  22.379  19.206  22.616 -0.1371  0.0868  0.2164
 2342DPPC   GL149791  22.183  18.857  22.468 -0.1116 -0.0262 -0.1392
 2342DPPC   GL249792  22.304  18.722  22.828  0.2694  0.1323  0.1024
 2342DPPC   C1A49793  22.067  18.450  22.386  0.3467  0.0762  0.1066
 2342DPPC   C2A49794  22.006  17.988  22.352 -0.1259 -0.0233  0.1093
 2342DPPC   C3A49795  22.277  17.607  22.127  0.0180  0.3723 -0.1055
 2342DPPC   C4A49796  22.530  17.245  22.340  0.1641 -0.0755 -0.1497
 2342DPPC   C1B49797  22.449  18.444  23.196  0.0802  0.0010  0.1911
 2342DPPC   C2B49798  22.781  18.448  23.403 -0.0117  0.0584  0.1807
 2342DPPC   C3B49799  23.076  18.161  23.350 -0.2241 -0.1126 -0.1037
 2342DPPC   C4B49800  23.238  17.910  23.085 -0.4176 -0.1853 -0.3063
 2343DPPC   NC349801  21.586  20.783  19.381 -0.2423  0.3161  0.2845
 2343DPPC   PO449802  21.394  20.588  18.963 -0.2949 -0.1071  0.1041
 2343DPPC   GL149803  21.642  20.639  18.527  0.1672 -0.1133  0.1549
 2343DPPC   GL249804  21.354  20.656  18.366  0.1403  0.2210  0.1367
 2343DPPC   C1A49805  21.919  20.814  18.278  0.0597 -0.2961 -0.0405
 2343DPPC   C2A49806  21.778  20.845  17.868  0.3009  0.2275  0.2065
 2343DPPC   C3A49807  21.689  20.935  17.507  0.0063 -0.0831 -0.0412
 2343DPPC   C4A49808  21.548  21.158  17.212  0.0742 -0.1232  0.1307
 2343DPPC   C1B49809  21.508  20.299  18.107 -0.0582 -0.1559 -0.1126
 2343DPPC   C2B49810  21.539  20.017  17.774 -0.0337 -0.0224  0.0853
 2343DPPC   C3B49811  21.833  19.980  17.492  0.1427  0.1800  0.1583
 2343DPPC   C4B49812  21.958  20.199  17.122 -0.0261 -0.3808 -0.2251
 2344DPPC   NC349813  18.643  23.253  19.035  0.0072 -0.0317 -0.0590
 2344DPPC   PO449814  18.663  23.527  18.588  0.2101  0.1211 -0.0062
 2344DPPC   GL149815  18.289  23.432  18.578 -0.6458 -0.3345 -0.2107
 2344DPPC   GL249816  18.199  23.418  18.767 -0.2036  0.3915 -0.1050
 2344DPPC   C1A49817  18.022  23.471  18.224  0.2300  0.0651 -0.0026
 2344DPPC   C2A49818  17.805  23.836  17.983  0.0162 -0.1377 -0.2152
 2344DPPC   C3A49819  17.473  23.968  17.757 -0.0053  0.0524 -0.1385
 2344DPPC   C4A49820  17.400  24.322  17.476 -0.1525 -0.2334  0.0126
 2344DPPC   C1B49821  18.012  23.032  18.612 -0.3985  0.2600  0.0192
 2344DPPC   C2B49822  17.872  22.708  18.704 -0.2624  0.0324  0.2229
 2344DPPC   C3B49823  17.615  22.464  18.865 -0.1565  0.0710  0.0414
 2344DPPC   C4B49824  17.252  22.482  19.099  0.0372 -0.2386 -0.0880
 2345DPPC   NC349825  25.692  20.402   0.857 -0.0379 -0.0577 -0.0782
 2345DPPC   PO449826  26.110  20.487   1.087  0.3097 -0.1513 -0.1423
 2345DPPC   GL149827  26.078  20.067   1.040  0.0097 -0.0573 -0.2055
 2345DPPC   GL249828  26.253  19.874   1.190  0.0552  0.0272  0.0260
 2345DPPC   C1A49829  25.862  19.598   1.061  0.0134 -0.3077 -0.0361
 2345DPPC   C2A49830  25.991  19.263   1.217 -0.3624  0.2140  0.0562
 2345DPPC   C3A49831  25.962  19.253   1.589  0.0827 -0.1245 -0.0510
 2345DPPC   C4A49832  25.975  19.085   1.991 -0.0798  0.0328 -0.1621
 2345DPPC   C1B49833  26.466  19.604   1.399 -0.1736  0.1027  0.1764
 2345DPPC   C2B49834  26.523  19.354   1.732 -0.4419 -0.1632  0.2490
 2345DPPC   C3B49835  26.507  19.163   2.031  0.0126  0.0978  0.0096
 2345DPPC   C4B49836  26.333  18.862   2.326  0.1824 -0.4446  0.2973
 2346DPPC   NC349837  22.727  19.251  21.781  0.0604  0.0659 -0.2523
 2346DPPC   PO449838  22.880  19.164  22.228 -0.0540 -0.2016  0.0096
 2346DPPC   GL149839  22.785  18.859  22.336  0.2441 -0.2148 -0.0413
 2346DPPC   GL249840  22.625  18.757  21.977  0.1205 -0.1964  0.0316
 2346DPPC   C1A49841  22.576  18.445  22.440 -0.4003 -0.4935  0.2305
 2346DPPC   C2A49842  22.357  18.201  22.687  0.1472  0.0079 -0.1388
 2346DPPC   C3A49843  22.205  18.070  22.991  0.0063 -0.0807 -0.3073
 2346DPPC   C4A49844  22.064  18.120  23.325  0.1480  0.0480 -0.0120
 2346DPPC   C1B49845  22.358  18.308  22.028  0.0354 -0.2297  0.0548
 2346DPPC   C2B49846  22.386  17.983  21.850  0.0968 -0.1431 -0.1396
 2346DPPC   C3B49847  22.264  17.718  21.540 -0.2540  0.3682  0.1100
 2346DPPC   C4B49848  21.958  17.443  21.391  0.1773  0.0291  0.0217
 2347DPPC   NC349849  22.407  23.106   1.399 -0.0297  0.0227  0.0748
 2347DPPC   PO449850  22.551  23.240   1.735  0.2079 -0.2513 -0.2954
 2347DPPC   GL149851  22.145  23.204   1.889 -0.2573  0.0484  0.3425
 2347DPPC   GL249852  22.165  23.309   2.217  0.2273 -0.0008 -0.2590
 2347DPPC   C1A49853  21.888  22.803   2.026 -0.2254  0.0800 -0.0605
 2347DPPC   C2A49854  21.722  22.418   2.238  0.0065 -0.0831 -0.0293
 2347DPPC   C3A49855  21.536  22.177   2.447 -0.0937 -0.0732  0.2643
 2347DPPC   C4A49856  21.390  21.885   2.741  0.0957  0.4918 -0.2410
 2347DPPC   C1B49857  21.829  23.060   2.441  0.1941 -0.2388 -0.4998
 2347DPPC   C2B49858  21.575  22.730   2.683  0.0750 -0.2064  0.0734
 2347DPPC   C3B49859  21.379  22.362   2.892  0.1237  0.1306 -0.3664
 2347DPPC   C4B49860  21.320  22.030   3.224  0.0121  0.3292  0.0163
 2348DPPC   NC349861  26.567  22.452   1.960 -0.0988  0.0844 -0.0495
 2348DPPC   PO449862  26.892  22.300   1.752 -0.0146  0.2477 -0.5758
 2348DPPC   GL149863  27.244  22.649   1.519  0.0761  0.0547  0.0085
 2348DPPC   GL249864  27.651  22.679   1.556 -0.0153 -0.0933 -0.1481
 2348DPPC   C1A49865  27.424  22.913   1.159 -0.0681  0.0539  0.1672
 2348DPPC   C2A49866  27.501  22.864   0.748 -0.2908  0.0879  0.0332
 2348DPPC   C3A49867  27.621  23.026   0.456 -0.4689  0.0794  0.0135
 2348DPPC   C4A49868  27.391  22.983   0.131 -0.1896 -0.3339 -0.1854
 2348DPPC   C1B49869  27.749  23.139   1.480 -0.1994  0.0693  0.3609
 2348DPPC   C2B49870  28.106  23.318   1.576  0.2473 -0.3527  0.2099
 2348DPPC   C3B49871  28.425  23.587   1.434 -0.2535 -0.1876  0.0578
 2348DPPC   C4B49872  28.739  23.949   1.246  0.3183  0.0690  0.1339
 2349DPPC   NC349873  17.378  26.930  24.905  0.0282 -0.2486 -0.2836
 2349DPPC   PO449874  17.386  26.414  24.988 -0.0666 -0.3591  0.1104
 2349DPPC   GL149875  16.944  26.418  24.929 -0.0330 -0.3350  0.0244
 2349DPPC   GL249876  16.689  26.693  25.155  0.0079 -0.1818 -0.1027
 2349DPPC   C1A49877  16.474  26.267  25.073  0.3063  0.3347  0.2521
 2349DPPC   C2A49878  16.280  25.878  25.079  0.0550 -0.2036 -0.1038
 2349DPPC   C3A49879  15.907  25.850  25.228 -0.3464  0.0243  0.0507
 2349DPPC   C4A49880  15.619  26.064  25.505 -0.3726  0.0732  0.1352
 2349DPPC   C1B49881  16.556  26.433  25.529  0.0383  0.0488 -0.0565
 2349DPPC   C2B49882  16.501  26.182  25.997 -0.0272  0.3189  0.1671
 2349DPPC   C3B49883  16.311  25.993  26.297  0.3367 -0.1465  0.2541
 2349DPPC   C4B49884  15.886  25.684  26.229  0.1798  0.2050 -0.3758
 2350DPPC   NC349885  17.146  28.471  22.638 -0.0102 -0.0657  0.2735
 2350DPPC   PO449886  17.178  28.780  22.862 -0.3458  0.0246 -0.2168
 2350DPPC   GL149887  17.305  29.208  22.750 -0.1424 -0.1723 -0.0803
 2350DPPC   GL249888  17.133  29.468  22.626  0.0772  0.0149  0.1879
 2350DPPC   C1A49889  17.625  29.564  22.576  0.0245  0.0979  0.2581
 2350DPPC   C2A49890  17.972  29.749  22.754 -0.0405 -0.1530 -0.1284
 2350DPPC   C3A49891  18.405  29.925  22.742  0.0090  0.3342  0.0348
 2350DPPC   C4A49892  18.529  30.254  22.994 -0.4855  0.2463  0.1666
 2350DPPC   C1B49893  17.015  29.992  22.538  0.2803  0.2403 -0.0210
 2350DPPC   C2B49894  17.131  30.380  22.505  0.2046  0.1256  0.0845
 2350DPPC   C3B49895  17.441  30.602  22.296  0.2065 -0.1338 -0.2107
 2350DPPC   C4B49896  17.841  30.631  22.502  0.0046 -0.0658  0.4163
 2351DPPC   NC349897  23.659  19.689  24.291 -0.0479  0.2440  0.0148
 2351DPPC   PO449898  23.893  19.561  24.656  0.1581  0.2993  0.2632
 2351DPPC   GL149899  23.541  19.426  24.766 -0.2647 -0.1695 -0.3676
 2351DPPC   GL249900  23.452  19.237  24.541 -0.0724  0.1014  0.0217
 2351DPPC   C1A49901  23.166  19.334  25.060 -0.0030 -0.1812  0.1835
 2351DPPC   C2A49902  22.822  19.230  25.416 -0.0412 -0.1838 -0.3274
 2351DPPC   C3A49903  22.455  19.422  25.538  0.0610 -0.0480  0.2620
 2351DPPC   C4A49904  22.337  19.765  25.574  0.0508 -0.1560 -0.1579
 2351DPPC   C1B49905  23.105  18.972  24.589  0.2555  0.0505  0.0532
 2351DPPC   C2B49906  22.837  18.712  24.692 -0.0611 -0.1613  0.3096
 2351DPPC   C3B49907  22.714  18.412  25.009 -0.1613  0.1113 -0.0300
 2351DPPC   C4B49908  22.807  18.200  25.438 -0.3420  0.0075 -0.0667
 2352DPPC   NC349909  19.758  23.490  21.867  0.2024 -0.3161 -0.1001
 2352DPPC   PO449910  20.090  23.261  22.171  0.1881 -0.3081  0.3057
 2352DPPC   GL149911  20.437  23.324  21.919 -0.1024  0.1258  0.0659
 2352DPPC   GL249912  20.596  23.013  21.943  0.0850 -0.1955 -0.1672
 2352DPPC   C1A49913  20.644  23.619  21.893  0.3339 -0.2269  0.1875
 2352DPPC   C2A49914  20.887  23.861  21.694  0.2543 -0.2196  0.3143
 2352DPPC   C3A49915  21.077  24.018  21.344 -0.3268  0.0306  0.2268
 2352DPPC   C4A49916  21.526  24.049  21.425 -0.0961  0.2223 -0.0342
 2352DPPC   C1B49917  20.974  23.217  21.865 -0.2672  0.0324  0.1947
 2352DPPC   C2B49918  21.343  23.041  21.997 -0.0489 -0.0787 -0.3248
 2352DPPC   C3B49919  21.733  23.028  21.819  0.0206  0.0538  0.1525
 2352DPPC   C4B49920  21.993  23.042  21.466  0.2470 -0.0125 -0.0144
 2353DPPC   NC349921  18.567  27.880   1.713  0.0021 -0.0896  0.0783
 2353DPPC   PO449922  18.619  27.734   2.092  0.1205  0.2643  0.4281
 2353DPPC   GL149923  18.355  27.683   2.439  0.1135 -0.0964  0.3716
 2353DPPC   GL249924  18.536  27.597   2.690  0.3967  0.1807  0.1915
 2353DPPC   C1A49925  18.069  27.871   2.625 -0.0049 -0.1840 -0.0636
 2353DPPC   C2A49926  17.645  27.885   2.869 -0.2207  0.2369  0.0591
 2353DPPC   C3A49927  17.560  28.035   3.223 -0.1859 -0.1574  0.1758
 2353DPPC   C4A49928  17.221  28.328   3.262 -0.3195 -0.0082 -0.2910
 2353DPPC   C1B49929  18.387  27.659   3.126  0.0918  0.0850  0.5395
 2353DPPC   C2B49930  18.336  27.834   3.545  0.1816 -0.1363 -0.2136
 2353DPPC   C3B49931  18.009  27.766   3.755 -0.5087 -0.1211  0.1514
 2353DPPC   C4B49932  17.865  27.510   4.047  0.0699 -0.2617  0.1830
 2354DPPC   NC349933  23.149  20.906  26.160  0.0458  0.0419 -0.2285
 2354DPPC   PO449934  22.886  20.869  26.565 -0.2924 -0.1965 -0.3151
 2354DPPC   GL149935  22.885  20.443  26.392 -0.1259  0.0572  0.0897
 2354DPPC   GL249936  23.072  20.176  26.501 -0.2480 -0.0254 -0.0971
 2354DPPC   C1A49937  22.599  20.052  26.419  0.1074 -0.0397 -0.3184
 2354DPPC   C2A49938  22.394  19.675  26.657  0.0701  0.0001 -0.1011
 2354DPPC   C3A49939  22.121  19.506   0.066 -0.1136  0.0688 -0.0062
 2354DPPC   C4A49940  21.729  19.295   0.014 -0.1554 -0.0632  0.0846
 2354DPPC   C1B49941  22.949  19.822  26.728  0.0760  0.1315 -0.0888
 2354DPPC   C2B49942  22.817  19.435  26.799  0.2232  0.2164 -0.0203
 2354DPPC   C3B49943  22.813  19.088   0.012 -0.3276 -0.1411 -0.2239
 2354DPPC   C4B49944  22.828  19.171   0.497  0.1865 -0.1373 -0.1604
 2355DPPC   NC349945  24.627  19.766  25.980 -0.1543 -0.0712 -0.2575
 2355DPPC   PO449946  24.225  19.851  25.709 -0.1885  0.2168  0.1199
 2355DPPC   GL149947  24.044  19.460  25.671  0.1533  0.5135 -0.0616
 2355DPPC   GL249948  23.772  19.312  25.929 -0.0798 -0.1302  0.3374
 2355DPPC   C1A49949  24.164  18.990  25.605  0.0520  0.0866 -0.1288
 2355DPPC   C2A49950  24.044  18.542  25.615  0.0190  0.2371  0.0103
 2355DPPC   C3A49951  23.559  18.261  25.660 -0.0695 -0.3056 -0.1208
 2355DPPC   C4A49952  23.262  17.998  25.662 -0.1831  0.0277 -0.2001
 2355DPPC   C1B49953  23.727  19.036  26.312 -0.1964  0.1617  0.0896
 2355DPPC   C2B49954  23.628  18.656  26.521  0.1867 -0.1615  0.1441
 2355DPPC   C3B49955  23.634  18.256  26.578  0.0086  0.1939  0.2770
 2355DPPC   C4B49956  23.902  17.855  26.303  0.2548  0.0672 -0.1248
 2356DPPC   NC349957  19.028  23.809  18.300  0.0134  0.3929 -0.0111
 2356DPPC   PO449958  18.995  23.414  18.160  0.0375  0.1071  0.0791
 2356DPPC   GL149959  18.780  23.710  17.847  0.2194 -0.1456 -0.1176
 2356DPPC   GL249960  18.472  23.533  17.939  0.1780 -0.1551  0.2918
 2356DPPC   C1A49961  18.499  23.902  17.527 -0.2766 -0.1213 -0.3782
 2356DPPC   C2A49962  18.409  24.137  17.191 -0.0581 -0.4292 -0.1306
 2356DPPC   C3A49963  18.134  24.202  16.921  0.1173  0.3644 -0.1758
 2356DPPC   C4A49964  17.551  24.204  17.003  0.0549  0.0077 -0.1729
 2356DPPC   C1B49965  18.134  23.636  17.678 -0.0078  0.3789  0.1823
 2356DPPC   C2B49966  17.952  23.783  17.278 -0.0576 -0.0958 -0.2860
 2356DPPC   C3B49967  17.578  23.672  17.104  0.2895 -0.2895 -0.4032
 2356DPPC   C4B49968  17.335  23.223  17.139 -0.1265 -0.1241 -0.1187
 2357DPPC   NC349969  19.530  21.421  19.173  0.0030 -0.2284  0.1603
 2357DPPC   PO449970  19.883  21.293  18.961  0.0114  0.2743  0.1376
 2357DPPC   GL149971  19.682  21.287  18.588  0.0026 -0.1238  0.0558
 2357DPPC   GL249972  19.872  21.322  18.254 -0.2613  0.2097  0.0515
 2357DPPC   C1A49973  19.384  20.928  18.587 -0.0197 -0.2239  0.1724
 2357DPPC   C2A49974  18.924  20.804  18.510 -0.2436 -0.2543  0.0804
 2357DPPC   C3A49975  18.479  20.828  18.550  0.1857 -0.0255 -0.1189
 2357DPPC   C4A49976  18.145  20.563  18.538  0.0971  0.0709 -0.0974
 2357DPPC   C1B49977  19.555  21.405  17.944  0.0960  0.0838  0.1330
 2357DPPC   C2B49978  19.582  21.387  17.454  0.0752  0.0786  0.0686
 2357DPPC   C3B49979  19.807  21.588  17.147  0.3181  0.1261  0.1300
 2357DPPC   C4B49980  19.719  21.701  16.746 -0.0964  0.0579 -0.0069
 2358DPPC   NC349981  22.135  25.769   3.800 -0.0467  0.1129  0.0445
 2358DPPC   PO449982  22.273  25.405   3.786 -0.4615  0.0618  0.0120
 2358DPPC   GL149983  21.937  25.178   3.971  0.1796 -0.0684 -0.3345
 2358DPPC   GL249984  21.665  25.159   3.905 -0.0168 -0.0251 -0.0331
 2358DPPC   C1A49985  21.875  24.784   4.215 -0.1910  0.3347 -0.0649
 2358DPPC   C2A49986  21.613  24.548   4.476 -0.0648 -0.0178 -0.0894
 2358DPPC   C3A49987  21.357  24.299   4.824  0.0351 -0.0806  0.0534
 2358DPPC   C4A49988  21.092  23.965   4.923 -0.1732  0.3618 -0.3627
 2358DPPC   C1B49989  21.395  24.996   4.217  0.0019 -0.3090 -0.0038
 2358DPPC   C2B49990  21.326  24.986   4.614  0.0404 -0.2084 -0.1181
 2358DPPC   C3B49991  21.335  24.783   5.119 -0.1235  0.1558 -0.0472
 2358DPPC   C4B49992  21.242  24.701   5.565 -0.1827  0.0703  0.1785
 2359DPPC   NC349993  22.135  25.047   0.430  0.0770  0.3959 -0.0802
 2359DPPC   PO449994  21.890  24.944   0.114  0.1649  0.2656 -0.1839
 2359DPPC   GL149995  22.348  25.099  26.901 -0.1068  0.0194 -0.1190
 2359DPPC   GL249996  22.587  24.945   0.121  0.5106 -0.0371 -0.2141
 2359DPPC   C1A49997  22.644  25.431  26.808  0.1255 -0.0475 -0.1576
 2359DPPC   C2A49998  22.797  25.802  26.628 -0.0161  0.0260  0.0244
 2359DPPC   C3A49999  22.917  26.082  26.402 -0.0861  0.0302  0.2216
 2359DPPC   C4A50000  23.223  26.348  26.690  0.0638 -0.0665 -0.0934
 2359DPPC   C1B50001  22.819  24.917  26.772 -0.0091  0.1528  0.0301
 2359DPPC   C2B50002  22.950  24.702  26.418 -0.0255 -0.2614  0.3180
 2359DPPC   C3B50003  23.182  24.999  26.198  0.1673  0.0842 -0.0835
 2359DPPC   C4B50004  23.084  25.252  25.837  0.1494 -0.0877  0.2291
 2360DPPC   NC350005  21.061  25.754   2.888  0.0386 -0.4001 -0.2121
 2360DPPC   PO450006  21.096  26.054   3.123 -0.0899 -0.1660 -0.0975
 2360DPPC   GL150007  20.660  26.038   3.386 -0.3163  0.0545 -0.1569
 2360DPPC   GL250008  20.345  26.059   3.399  0.2655 -0.1656  0.2401
 2360DPPC   C1A50009  20.632  25.860   3.841 -0.0894  0.3330 -0.0794
 2360DPPC   C2A50010  20.376  25.909   4.142 -0.0613  0.0520 -0.2285
 2360DPPC   C3A50011  20.317  26.091   4.502  0.3410  0.0140 -0.0388
 2360DPPC   C4A50012  20.437  26.287   4.903 -0.2398 -0.0967  0.2282
 2360DPPC   C1B50013  20.090  25.964   3.773  0.1813 -0.1148  0.1200
 2360DPPC   C2B50014  19.530  26.008   3.935 -0.0883 -0.0210 -0.0436
 2360DPPC   C3B50015  19.233  26.235   4.226 -0.0123 -0.0632  0.0842
 2360DPPC   C4B50016  19.017  26.506   4.453  0.4314 -0.0927 -0.0208
 2361DPPC   NC350017  18.430  24.016  24.562 -0.1520  0.0518 -0.1409
 2361DPPC   PO450018  18.107  24.201  24.445 -0.1009 -0.1524 -0.1211
 2361DPPC   GL150019  17.676  24.015  24.460 -0.1827  0.0596  0.1496
 2361DPPC   GL250020  17.632  24.046  24.212 -0.0573  0.0216  0.0371
 2361DPPC   C1A50021  17.105  24.025  24.436 -0.2554  0.0954 -0.3277
 2361DPPC   C2A50022  16.608  24.102  24.365 -0.0666  0.0995  0.1741
 2361DPPC   C3A50023  16.213  24.135  24.607 -0.2123  0.0307  0.0940
 2361DPPC   C4A50024  15.869  24.470  24.721  0.1299  0.3459  0.0512
 2361DPPC   C1B50025  17.364  23.817  24.114 -0.1022 -0.1308  0.1878
 2361DPPC   C2B50026  17.073  23.595  24.197 -0.0715 -0.0387  0.2067
 2361DPPC   C3B50027  16.699  23.490  24.308 -0.2932 -0.1355  0.2021
 2361DPPC   C4B50028  16.553  23.710  24.666  0.3460 -0.3702 -0.2748
 2362DPPC   NC350029  28.010  22.185   3.309 -0.2909  0.0990 -0.0449
 2362DPPC   PO450030  27.641  22.259   3.482 -0.2546  0.1885 -0.3642
 2362DPPC   GL150031  27.916  22.184   3.828  0.0582  0.0435 -0.0809
 2362DPPC   GL250032  28.188  22.275   3.778 -0.1272  0.1853 -0.0585
 2362DPPC   C1A50033  28.099  22.280   4.278  0.1531  0.1578 -0.1258
 2362DPPC   C2A50034  28.195  22.357   4.695  0.0195 -0.1491  0.1752
 2362DPPC   C3A50035  28.322  22.476   5.054 -0.0774 -0.1933  0.2302
 2362DPPC   C4A50036  28.184  22.815   5.238  0.2738  0.5943 -0.2032
 2362DPPC   C1B50037  28.270  21.842   3.978  0.1864 -0.0420  0.4924
 2362DPPC   C2B50038  28.395  21.885   4.447 -0.2277 -0.0421 -0.0294
 2362DPPC   C3B50039  28.414  21.951   4.880 -0.0751  0.0397 -0.0651
 2362DPPC   C4B50040  28.694  21.640   5.146 -0.0235 -0.2402  0.1919
 2363DPPC   NC350041  19.555  22.948  24.763  0.1190  0.0957 -0.1078
 2363DPPC   PO450042  19.935  22.592  24.582 -0.4373 -0.2184 -0.2566
 2363DPPC   GL150043  19.592  22.486  24.506 -0.4358  0.3853  0.0117
 2363DPPC   GL250044  19.524  22.142  24.459  0.2967  0.2851 -0.1098
 2363DPPC   C1A50045  19.159  22.376  24.727  0.0665  0.1839 -0.3350
 2363DPPC   C2A50046  19.021  22.395  25.091 -0.3292 -0.0722  0.3722
 2363DPPC   C3A50047  18.951  22.509  25.528 -0.1908 -0.3273  0.0782
 2363DPPC   C4A50048  19.276  22.581  25.834 -0.1914 -0.2125  0.1326
 2363DPPC   C1B50049  19.151  21.909  24.668  0.1019 -0.2581  0.1965
 2363DPPC   C2B50050  18.903  21.950  24.950 -0.0656  0.1846  0.0179
 2363DPPC   C3B50051  18.533  21.816  25.123 -0.0116  0.1584 -0.1282
 2363DPPC   C4B50052  18.169  22.109  25.361  0.1019  0.0121 -0.2027
 2364DPPC   NC350053  21.893  28.446   3.072 -0.0673 -0.0956 -0.1067
 2364DPPC   PO450054  21.570  28.642   3.128 -0.0388 -0.1723 -0.0217
 2364DPPC   GL150055  21.522  29.028   2.847  0.0313  0.0312  0.2680
 2364DPPC   GL250056  21.605  29.252   3.095 -0.2588 -0.0676  0.0783
 2364DPPC   C1A50057  21.775  29.293   2.606 -0.3130  0.0819 -0.3701
 2364DPPC   C2A50058  21.744  29.703   2.444 -0.3097 -0.0816 -0.3204
 2364DPPC   C3A50059  22.046  29.901   2.270 -0.1935 -0.1244  0.2487
 2364DPPC   C4A50060  22.158  30.287   2.092  0.3241  0.0205  0.1443
 2364DPPC   C1B50061  21.683  29.640   2.987 -0.5143  0.0328 -0.0845
 2364DPPC   C2B50062  21.576  30.040   3.092  0.0018 -0.4001  0.1830
 2364DPPC   C3B50063  21.757  30.422   3.235  0.5840  0.0972 -0.4061
 2364DPPC   C4B50064  21.919  30.636   3.597  0.1249 -0.2724  0.1628
 2365DPPC   NC350065  21.238  25.030   3.252 -0.0926 -0.0531  0.2816
 2365DPPC   PO450066  21.354  25.343   3.559  0.0560  0.1865  0.2656
 2365DPPC   GL150067  20.866  25.357   3.695  0.1187 -0.2696 -0.1090
 2365DPPC   GL250068  20.581  25.161   3.765  0.0034  0.1391 -0.1078
 2365DPPC   C1A50069  20.718  25.489   4.117  0.0990 -0.0159  0.1022
 2365DPPC   C2A50070  20.494  25.523   4.510 -0.2096  0.4579  0.1498
 2365DPPC   C3A50071  20.491  25.591   4.899 -0.0282 -0.0268 -0.0663
 2365DPPC   C4A50072  20.677  25.447   5.254 -0.2028 -0.2200 -0.0862
 2365DPPC   C1B50073  20.504  25.057   4.148  0.3644  0.5785  0.2751
 2365DPPC   C2B50074  20.500  25.039   4.570 -0.0953 -0.0358  0.1558
 2365DPPC   C3B50075  20.805  25.087   5.025 -0.0121  0.0551  0.4303
 2365DPPC   C4B50076  20.919  25.005   5.383 -0.2311  0.0882  0.1200
 2366DPPC   NC350077  18.586  27.347  23.719 -0.2516  0.0960  0.2380
 2366DPPC   PO450078  18.284  27.669  23.492  0.1861  0.4438 -0.1976
 2366DPPC   GL150079  18.708  27.642  23.243  0.1877 -0.1334 -0.1128
 2366DPPC   GL250080  18.848  27.286  23.261  0.0209 -0.0318  0.0447
 2366DPPC   C1A50081  19.054  27.834  23.092 -0.1277 -0.3408 -0.1039
 2366DPPC   C2A50082  19.254  28.193  23.041 -0.1371 -0.2349 -0.1540
 2366DPPC   C3A50083  19.563  28.446  22.785 -0.1067  0.1273 -0.0605
 2366DPPC   C4A50084  19.861  28.460  22.438 -0.2354  0.2072  0.0134
 2366DPPC   C1B50085  19.228  27.457  23.466 -0.0772 -0.1095 -0.0596
 2366DPPC   C2B50086  19.389  27.786  23.483 -0.3219  0.0751  0.0650
 2366DPPC   C3B50087  19.687  28.105  23.126  0.1438  0.1005 -0.0318
 2366DPPC   C4B50088  19.983  28.138  22.807 -0.0421  0.0189  0.3917
 2367DPPC   NC350089  24.488  25.629   4.639  0.1883 -0.1731  0.1420
 2367DPPC   PO450090  24.782  25.366   4.830  0.1458 -0.0944 -0.0083
 2367DPPC   GL150091  24.656  25.377   5.273  0.0027  0.1047 -0.4072
 2367DPPC   GL250092  24.717  25.100   5.612  0.0398 -0.0473  0.1311
 2367DPPC   C1A50093  24.352  25.376   5.700 -0.0119  0.1427  0.0987
 2367DPPC   C2A50094  23.998  25.245   5.809  0.0169 -0.1208 -0.1611
 2367DPPC   C3A50095  23.900  25.211   6.298 -0.1980  0.0079 -0.1091
 2367DPPC   C4A50096  23.799  24.938   6.623 -0.0630 -0.1003 -0.0327
 2367DPPC   C1B50097  25.163  24.968   5.844 -0.2546  0.0184  0.1874
 2367DPPC   C2B50098  25.449  25.059   6.212 -0.0193 -0.0037 -0.2732
 2367DPPC   C3B50099  25.635  25.301   6.598  0.1465 -0.2298  0.1258
 2367DPPC   C4B50100  25.657  25.698   6.831 -0.2027 -0.0452  0.0465
 2368DPPC   NC350101  26.793  19.694  26.205 -0.3270  0.3712 -0.0558
 2368DPPC   PO450102  27.081  19.758  26.546 -0.0161  0.5411 -0.2509
 2368DPPC   GL150103  27.430  19.860  26.549 -0.1435 -0.1594  0.3085
 2368DPPC   GL250104  27.640  20.015  26.861  0.1082  0.0289 -0.4148
 2368DPPC   C1A50105  27.816  20.004  26.466 -0.0770  0.0128  0.0662
 2368DPPC   C2A50106  28.300  19.878  26.474  0.0687 -0.1724 -0.2749
 2368DPPC   C3A50107  28.472  19.675  26.829  0.0560  0.0832 -0.4175
 2368DPPC   C4A50108  28.606  19.199  26.798  0.0298 -0.1542 -0.0328
 2368DPPC   C1B50109  28.064  20.111   0.068 -0.0207 -0.1151  0.2184
 2368DPPC   C2B50110  28.344  20.118   0.433  0.0850  0.2379  0.0844
 2368DPPC   C3B50111  28.714  19.902   0.357  0.3307  0.0190 -0.2288
 2368DPPC   C4B50112  28.988  19.749   0.150  0.0867  0.2687  0.0070
 2369DPPC   NC350113  17.261  26.018  22.200 -0.0891  0.2481  0.2529
 2369DPPC   PO450114  17.432  25.832  22.622 -0.1985 -0.1441 -0.2786
 2369DPPC   GL150115  17.014  25.791  22.628 -0.0577  0.0037  0.3804
 2369DPPC   GL250116  16.871  25.709  22.330 -0.0248  0.1858 -0.1145
 2369DPPC   C1A50117  16.562  25.621  22.734  0.1966 -0.3608  0.1122
 2369DPPC   C2A50118  16.156  25.544  22.804 -0.2162 -0.0585 -0.1337
 2369DPPC   C3A50119  15.832  25.838  22.855 -0.0402 -0.1377 -0.0214
 2369DPPC   C4A50120  15.582  26.107  22.941 -0.3108 -0.0905 -0.0031
 2369DPPC   C1B50121  16.708  25.275  22.425  0.1106  0.1551 -0.0050
 2369DPPC   C2B50122  16.354  25.210  22.475 -0.2202  0.0902 -0.2662
 2369DPPC   C3B50123  15.944  25.125  22.565  0.2567 -0.0779 -0.1128
 2369DPPC   C4B50124  15.566  25.494  22.570 -0.0138  0.0248 -0.0737
 2370DPPC   NC350125  24.992  22.878   2.777 -0.6790 -0.3301  0.0373
 2370DPPC   PO450126  24.530  22.805   3.009 -0.0861  0.1407 -0.1808
 2370DPPC   GL150127  24.441  22.528   3.312  0.1213 -0.3806 -0.1271
 2370DPPC   GL250128  24.313  22.265   3.116  0.5870 -0.4511 -0.0560
 2370DPPC   C1A50129  24.437  22.244   3.628 -0.1661 -0.1273  0.1431
 2370DPPC   C2A50130  24.311  22.009   3.932  0.0962  0.0421  0.2615
 2370DPPC   C3A50131  24.270  21.980   4.358 -0.2589  0.0778 -0.0882
 2370DPPC   C4A50132  24.332  21.710   4.724 -0.3706 -0.0358 -0.0967
 2370DPPC   C1B50133  24.052  22.052   3.299  0.1670  0.2901  0.0401
 2370DPPC   C2B50134  23.878  21.953   3.690 -0.0077  0.2138 -0.1636
 2370DPPC   C3B50135  23.740  21.830   4.104  0.0023  0.1232  0.1577
 2370DPPC   C4B50136  23.805  21.906   4.556 -0.5619  0.3089 -0.0069
 2371DPPC   NC350137  18.282  30.400  26.815 -0.1026 -0.1356  0.2270
 2371DPPC   PO450138  17.986  30.199  26.555  0.2399  0.1893  0.3970
 2371DPPC   GL150139  18.097  30.666  26.459  0.3062  0.1950  0.0102
 2371DPPC   GL250140  17.850  30.752  26.256  0.2336  0.2132 -0.2662
 2371DPPC   C1A50141  18.127  31.084  26.338 -0.0691  0.2155  0.1419
 2371DPPC   C2A50142  18.143  31.390  26.197  0.1397  0.0099  0.1045
 2371DPPC   C3A50143  18.305  31.522  25.922 -0.0000  0.2133  0.3049
 2371DPPC   C4A50144  18.686  31.518  25.619  0.4717  0.0213 -0.3585
 2371DPPC   C1B50145  17.981  30.942  25.923  0.2560  0.1034 -0.1147
 2371DPPC   C2B50146  17.843  31.336  25.718 -0.1379 -0.1386  0.0974
 2371DPPC   C3B50147  18.174  31.632  25.399  0.1973 -0.4855  0.1817
 2371DPPC   C4B50148  18.444  31.919  25.536  0.3273 -0.0110 -0.1325
 2372DPPC   NC350149  21.192  22.567  26.238 -0.3308  0.1381  0.5116
 2372DPPC   PO450150  21.093  22.607  25.739 -0.1763 -0.0240 -0.4343
 2372DPPC   GL150151  20.742  22.406  25.894  0.0539 -0.0767 -0.0355
 2372DPPC   GL250152  20.583  22.521  26.174  0.1154  0.1597 -0.0959
 2372DPPC   C1A50153  20.557  22.028  26.017  0.1602 -0.0361  0.0224
 2372DPPC   C2A50154  20.369  21.805  26.332 -0.0027  0.1799  0.0525
 2372DPPC   C3A50155  20.062  21.500  26.352  0.1108  0.0809  0.0979
 2372DPPC   C4A50156  19.696  21.315  26.391 -0.2333 -0.0962 -0.1239
 2372DPPC   C1B50157  20.205  22.245  26.312 -0.0852  0.1540  0.1030
 2372DPPC   C2B50158  19.946  21.983  26.469 -0.1615 -0.0029 -0.1639
 2372DPPC   C3B50159  19.615  21.824  26.430 -0.1094  0.0428 -0.0349
 2372DPPC   C4B50160  19.348  21.596  26.147  0.2942 -0.3266 -0.2017
 2373DPPC   NC350161  19.185  24.422  25.935  0.0682 -0.0728 -0.0744
 2373DPPC   PO450162  19.254  24.563  26.328  0.1333  0.0798 -0.1154
 2373DPPC   GL150163  19.023  24.383  26.693  0.0427  0.0624 -0.2255
 2373DPPC   GL250164  18.954  24.155  26.414 -0.1893  0.4383  0.2399
 2373DPPC   C1A50165  18.893  24.001  26.865  0.1231 -0.1642 -0.0662
 2373DPPC   C2A50166  18.572  23.844   0.234  0.0820 -0.1248 -0.0366
 2373DPPC   C3A50167  18.135  23.858   0.378 -0.0680  0.1400 -0.0490
 2373DPPC   C4A50168  17.680  23.843   0.561 -0.0928 -0.0432 -0.2158
 2373DPPC   C1B50169  18.535  24.007  26.470 -0.1453 -0.3696  0.1003
 2373DPPC   C2B50170  18.521  23.680  26.656  0.7289  0.2587 -0.2026
 2373DPPC   C3B50171  18.319  23.382   0.109 -0.0579  0.2668 -0.0981
 2373DPPC   C4B50172  18.430  23.140   0.528  0.1053 -0.1748  0.2998
 2374DPPC   NC350173  17.623  27.787  20.128 -0.2176  0.1512  0.1352
 2374DPPC   PO450174  17.517  27.860  20.439 -0.1537  0.0389 -0.2228
 2374DPPC   GL150175  17.874  28.166  20.424  0.0377 -0.1564 -0.2886
 2374DPPC   GL250176  17.699  28.447  20.323 -0.4051 -0.1169 -0.2264
 2374DPPC   C1A50177  18.118  28.484  20.596  0.1737  0.0025  0.0686
 2374DPPC   C2A50178  18.306  28.789  20.516 -0.2677 -0.1729 -0.0167
 2374DPPC   C3A50179  18.174  29.277  20.587 -0.3189 -0.1824  0.0193
 2374DPPC   C4A50180  18.370  29.545  20.830  0.2292  0.0368 -0.5111
 2374DPPC   C1B50181  17.379  28.767  20.202 -0.0004 -0.0795 -0.0091
 2374DPPC   C2B50182  17.423  29.173  20.192  0.0911  0.1833  0.4095
 2374DPPC   C3B50183  17.460  29.551  20.492  0.1467  0.1692 -0.1378
 2374DPPC   C4B50184  17.813  29.616  20.637 -0.0401  0.3086 -0.1481
 2375DPPC   NC350185  26.842  22.833   3.482 -0.4538  0.0545 -0.0656
 2375DPPC   PO450186  26.552  22.467   3.730  0.0915  0.0212  0.1947
 2375DPPC   GL150187  26.657  22.242   4.161 -0.0411 -0.0176 -0.0057
 2375DPPC   GL250188  26.969  22.358   4.290 -0.0285  0.2702 -0.0402
 2375DPPC   C1A50189  26.649  21.875   4.419  0.1215 -0.2715 -0.2221
 2375DPPC   C2A50190  26.882  21.551   4.425 -0.0705  0.0591 -0.0113
 2375DPPC   C3A50191  27.040  21.067   4.392  0.0613 -0.0432  0.0794
 2375DPPC   C4A50192  27.120  20.680   4.537  0.1453  0.0783 -0.3249
 2375DPPC   C1B50193  26.995  22.180   4.700  0.0906  0.2961  0.0921
 2375DPPC   C2B50194  27.256  22.130   5.103  0.0289 -0.0885 -0.3474
 2375DPPC   C3B50195  27.700  22.027   5.051 -0.2819 -0.0908  0.0160
 2375DPPC   C4B50196  27.916  22.197   5.289  0.1540  0.3535 -0.2370
 2376DPPC   NC350197  26.227  22.970   4.296  0.0313  0.0690  0.0164
 2376DPPC   PO450198  26.572  23.021   4.543  0.1947  0.0073 -0.1028
 2376DPPC   GL150199  26.530  22.576   4.548 -0.3352  0.0141  0.0671
 2376DPPC   GL250200  26.155  22.565   4.639 -0.2531 -0.1298 -0.0489
 2376DPPC   C1A50201  26.507  22.276   4.684  0.2274  0.0205  0.1625
 2376DPPC   C2A50202  26.351  21.852   4.857  0.1423 -0.2687  0.0466
 2376DPPC   C3A50203  26.415  21.536   5.186  0.0833 -0.0534  0.1798
 2376DPPC   C4A50204  26.550  21.132   5.378 -0.2030 -0.1853 -0.1094
 2376DPPC   C1B50205  25.874  22.691   4.962  0.2767  0.2336  0.0576
 2376DPPC   C2B50206  25.667  23.009   5.346  0.1004  0.1430 -0.2009
 2376DPPC   C3B50207  25.507  23.060   5.789 -0.1417  0.0434  0.0156
 2376DPPC   C4B50208  25.271  23.011   6.200 -0.2367  0.1926  0.2219
 2377DPPC   NC350209  20.759  23.150  23.019 -0.0334  0.2622  0.1951
 2377DPPC   PO450210  20.875  23.437  23.264  0.2362 -0.1242 -0.3886
 2377DPPC   GL150211  21.237  23.556  23.147  0.0821  0.2422  0.1729
 2377DPPC   GL250212  21.119  23.872  23.174 -0.2076  0.1213 -0.1114
 2377DPPC   C1A50213  21.573  23.636  22.964 -0.0811  0.1069  0.2309
 2377DPPC   C2A50214  21.907  23.684  22.620  0.3323 -0.0254 -0.0345
 2377DPPC   C3A50215  22.133  23.847  22.231 -0.1021 -0.0180  0.0687
 2377DPPC   C4A50216  21.975  23.862  21.737 -0.0503 -0.1747  0.0508
 2377DPPC   C1B50217  21.445  24.072  23.163 -0.0416 -0.1571  0.4096
 2377DPPC   C2B50218  21.766  24.110  22.852  0.0284 -0.0748  0.0021
 2377DPPC   C3B50219  21.939  24.221  22.530  0.3148  0.0132  0.0052
 2377DPPC   C4B50220  22.316  24.418  22.284  0.1459 -0.1285 -0.0082
 2378DPPC   NC350221  27.433  24.118   3.626 -0.2196 -0.0225  0.4826
 2378DPPC   PO450222  27.580  24.479   3.808  0.0203  0.0340 -0.3224
 2378DPPC   GL150223  27.932  24.444   3.514 -0.0573 -0.0260 -0.0282
 2378DPPC   GL250224  28.034  24.068   3.466 -0.0013 -0.2165 -0.2543
 2378DPPC   C1A50225  28.262  24.707   3.318 -0.2637 -0.0237  0.2157
 2378DPPC   C2A50226  28.478  25.100   3.482  0.0211 -0.1677 -0.1072
 2378DPPC   C3A50227  28.644  25.329   3.764  0.1050 -0.0190 -0.2263
 2378DPPC   C4A50228  28.918  25.277   4.140  0.0417  0.0732 -0.1568
 2378DPPC   C1B50229  28.378  24.093   3.312  0.0869  0.0470 -0.1789
 2378DPPC   C2B50230  28.799  24.205   3.307 -0.3417  0.3091 -0.0803
 2378DPPC   C3B50231  29.236  24.322   3.417 -0.0886  0.1222 -0.2442
 2378DPPC   C4B50232  29.308  24.452   3.803 -0.0536  0.0159  0.4831
 2379DPPC   NC350233  17.085  28.078  26.421 -0.2766  0.1799  0.1839
 2379DPPC   PO450234  17.084  28.470  26.117  0.1358  0.2548  0.2035
 2379DPPC   GL150235  16.703  28.707  26.136 -0.1257  0.1209  0.0267
 2379DPPC   GL250236  16.532  28.717  25.899  0.1496  0.3327  0.2508
 2379DPPC   C1A50237  16.233  28.941  26.261  0.0470 -0.1502 -0.0916
 2379DPPC   C2A50238  16.032  28.963  26.632 -0.0523 -0.1235 -0.1108
 2379DPPC   C3A50239  16.136  28.955   0.169 -0.2852 -0.1294  0.3142
 2379DPPC   C4A50240  16.261  28.721   0.469 -0.2174  0.0053  0.1752
 2379DPPC   C1B50241  16.309  28.988  25.789  0.3976 -0.2274 -0.2871
 2379DPPC   C2B50242  16.133  29.201  25.454  0.1711 -0.0071 -0.1405
 2379DPPC   C3B50243  15.707  29.288  25.502 -0.1303 -0.0390  0.0507
 2379DPPC   C4B50244  15.459  29.156  25.587  0.2661  0.1757  0.0538
 2380DPPC   NC350245  17.582  29.579  25.917 -0.2697 -0.0373 -0.3554
 2380DPPC   PO450246  18.001  29.575  26.017 -0.6496  0.1595  0.0389
 2380DPPC   GL150247  18.102  29.902  25.764  0.1366  0.1765  0.1950
 2380DPPC   GL250248  17.930  30.169  25.844  0.0146 -0.2607  0.1743
 2380DPPC   C1A50249  18.433  29.865  25.517 -0.0214  0.0923 -0.2134
 2380DPPC   C2A50250  18.774  29.705  25.321 -0.0888  0.1957  0.0682
 2380DPPC   C3A50251  19.041  29.960  25.084  0.1065  0.2394  0.1932
 2380DPPC   C4A50252  19.066  30.022  24.674 -0.0358 -0.0534 -0.1432
 2380DPPC   C1B50253  17.833  30.504  25.647 -0.2171 -0.1438  0.1679
 2380DPPC   C2B50254  17.640  30.905  25.443  0.0626 -0.0629  0.1176
 2380DPPC   C3B50255  17.511  31.081  25.061  0.3236  0.1933  0.1581
 2380DPPC   C4B50256  17.207  31.104  24.764  0.0570  0.0028 -0.0759
 2381DPPC   NC350257  27.398  23.128   4.068 -0.3379  0.1374 -0.1962
 2381DPPC   PO450258  26.964  23.153   4.271 -0.1230 -0.2660 -0.0499
 2381DPPC   GL150259  27.048  22.846   4.607  0.0182 -0.0879 -0.0264
 2381DPPC   GL250260  26.942  22.962   4.856 -0.2320 -0.1546 -0.2074
 2381DPPC   C1A50261  27.407  22.638   4.712 -0.0967 -0.0532 -0.0935
 2381DPPC   C2A50262  27.715  22.293   4.604  0.0620  0.1681 -0.2644
 2381DPPC   C3A50263  27.906  21.965   4.564  0.0945 -0.2115  0.2406
 2381DPPC   C4A50264  28.043  21.493   4.483 -0.1880 -0.1834 -0.0801
 2381DPPC   C1B50265  26.960  22.519   5.004  0.0305 -0.1369  0.0870
 2381DPPC   C2B50266  26.792  22.314   5.238 -0.3951 -0.0599  0.0258
 2381DPPC   C3B50267  27.052  21.950   5.568  0.2119 -0.1258  0.0965
 2381DPPC   C4B50268  26.917  21.855   5.986  0.3069 -0.1680 -0.4918
 2382DPPC   NC350269  23.994  20.937  24.542  0.0774 -0.2656  0.1370
 2382DPPC   PO450270  24.210  21.200  24.789  0.0917  0.0030 -0.0617
 2382DPPC   GL150271  24.540  21.449  24.625 -0.0948 -0.0654 -0.0681
 2382DPPC   GL250272  24.737  21.356  24.306 -0.0436  0.3797 -0.3020
 2382DPPC   C1A50273  24.941  21.691  24.631  0.2628 -0.2604  0.0041
 2382DPPC   C2A50274  25.268  21.901  24.349  0.1089 -0.0108  0.1050
 2382DPPC   C3A50275  25.444  22.160  24.108  0.2834 -0.1769  0.0027
 2382DPPC   C4A50276  25.687  22.379  23.813 -0.0628  0.1455  0.0715
 2382DPPC   C1B50277  25.231  21.424  24.222  0.0412 -0.1776  0.0012
 2382DPPC   C2B50278  25.675  21.196  24.181 -0.0407  0.0525 -0.0591
 2382DPPC   C3B50279  26.125  21.342  24.379 -0.0469 -0.2213  0.2554
 2382DPPC   C4B50280  26.587  21.362  24.319 -0.1689  0.4645 -0.2890
 2383DPPC   NC350281  16.604  27.274  23.454 -0.1136 -0.1275  0.1530
 2383DPPC   PO450282  16.488  27.048  23.798 -0.1631 -0.1846 -0.1128
 2383DPPC   GL150283  16.055  27.062  23.751  0.2367  0.0424  0.0986
 2383DPPC   GL250284  16.137  26.963  23.443  0.3935  0.1013  0.2979
 2383DPPC   C1A50285  15.617  26.868  23.850  0.1091  0.0843 -0.3990
 2383DPPC   C2A50286  15.395  26.559  23.981 -0.0448 -0.0389  0.0246
 2383DPPC   C3A50287  15.257  26.233  24.177 -0.0544 -0.0709 -0.1674
 2383DPPC   C4A50288  15.040  26.159  24.585  0.2723 -0.0608  0.1462
 2383DPPC   C1B50289  15.698  26.969  23.354 -0.0100 -0.0557 -0.2603
 2383DPPC   C2B50290  15.298  26.877  23.493  0.0417 -0.0699 -0.3391
 2383DPPC   C3B50291  14.904  26.919  23.787  0.0382 -0.0754  0.0168
 2383DPPC   C4B50292  14.575  26.766  24.068  0.1595 -0.0191  0.2889
 2384DPPC   NC350293  18.815  26.446  23.556  0.1535  0.0265 -0.1179
 2384DPPC   PO450294  18.536  26.400  23.107 -0.2967  0.2951 -0.0557
 2384DPPC   GL150295  18.940  26.501  23.100  0.3158 -0.2311 -0.0132
 2384DPPC   GL250296  18.861  26.858  23.082 -0.2698  0.4589 -0.2896
 2384DPPC   C1A50297  19.406  26.621  23.030 -0.0048  0.1460  0.2171
 2384DPPC   C2A50298  19.818  26.707  22.876 -0.0154  0.0057  0.1363
 2384DPPC   C3A50299  20.055  26.911  22.497 -0.0268  0.0294 -0.2330
 2384DPPC   C4A50300  20.479  27.150  22.359  0.2573  0.1178  0.2322
 2384DPPC   C1B50301  19.189  27.252  22.944 -0.0375  0.1671 -0.0217
 2384DPPC   C2B50302  19.405  27.600  22.805 -0.2449 -0.0338 -0.3322
 2384DPPC   C3B50303  19.830  27.601  22.768 -0.1160 -0.0272 -0.1502
 2384DPPC   C4B50304  20.288  27.460  22.695  0.0894  0.0303  0.2382
 2385DPPC   NC350305  24.456  20.053  22.654 -0.0179  0.6338 -0.1977
 2385DPPC   PO450306  24.260  19.901  22.348  0.3077  0.0654  0.0321
 2385DPPC   GL150307  24.674  19.963  22.218  0.0991  0.1037  0.1823
 2385DPPC   GL250308  24.910  20.035  22.424 -0.0562  0.2245 -0.1144
 2385DPPC   C1A50309  25.047  19.947  21.911 -0.1116 -0.0399  0.2797
 2385DPPC   C2A50310  25.419  19.990  21.658 -0.1473  0.0655  0.2361
 2385DPPC   C3A50311  25.617  20.165  21.259  0.1751  0.2285  0.0825
 2385DPPC   C4A50312  25.633  20.644  21.232  0.1820  0.2525 -0.1262
 2385DPPC   C1B50313  25.296  20.238  22.303  0.0458 -0.0104  0.1724
 2385DPPC   C2B50314  25.743  20.340  22.224 -0.3565  0.1332  0.1807
 2385DPPC   C3B50315  26.203  20.329  22.107  0.2980 -0.0712  0.3325
 2385DPPC   C4B50316  26.431  19.981  21.834 -0.0692  0.0173  0.0520
 2386DPPC   NC350317  23.043  26.940   4.868 -0.1203 -0.0113 -0.0550
 2386DPPC   PO450318  22.602  26.975   4.715  0.0303 -0.0389  0.0185
 2386DPPC   GL150319  22.342  27.042   5.035 -0.1413  0.1781  0.1008
 2386DPPC   GL250320  22.380  27.183   5.248  0.2343  0.0223  0.3594
 2386DPPC   C1A50321  22.261  26.761   5.379 -0.4378  0.1036 -0.1667
 2386DPPC   C2A50322  22.154  26.590   5.777 -0.1588  0.0684  0.3014
 2386DPPC   C3A50323  22.259  26.121   5.800  0.1087  0.2864  0.2095
 2386DPPC   C4A50324  22.141  25.645   5.896  0.0338  0.3011  0.1944
 2386DPPC   C1B50325  22.063  27.089   5.649  0.1131  0.2763 -0.0804
 2386DPPC   C2B50326  21.815  27.306   5.940 -0.0790 -0.1226  0.0891
 2386DPPC   C3B50327  21.359  27.366   6.171 -0.1447  0.1321  0.3117
 2386DPPC   C4B50328  21.132  27.688   6.264  0.1631 -0.0574  0.0814
 2387DPPC   NC350329  26.838  21.131   0.038 -0.2215 -0.0141  0.0655
 2387DPPC   PO450330  27.048  20.769   0.054  0.1415  0.3546  0.0791
 2387DPPC   GL150331  27.499  20.851   0.290 -0.1702  0.2534  0.1065
 2387DPPC   GL250332  27.396  21.184   0.329 -0.1328 -0.2410  0.2689
 2387DPPC   C1A50333  27.891  20.858   0.032 -0.2199 -0.5315 -0.2346
 2387DPPC   C2A50334  28.178  20.804  26.597  0.1176  0.1193  0.1425
 2387DPPC   C3A50335  28.649  20.749  26.394 -0.0012  0.0592 -0.1191
 2387DPPC   C4A50336  29.030  20.742  26.652  0.2273  0.3950  0.3132
 2387DPPC   C1B50337  27.405  21.450   0.002  0.0741 -0.2594  0.1091
 2387DPPC   C2B50338  27.646  21.803  26.869 -0.0275 -0.0032  0.2169
 2387DPPC   C3B50339  27.944  21.914  26.703 -0.1315 -0.1620  0.0616
 2387DPPC   C4B50340  28.187  22.341  26.674 -0.1237 -0.1905 -0.2518
 2388DPPC   NC350341  21.284  21.489  20.536 -0.0140 -0.3977  0.2196
 2388DPPC   PO450342  21.779  21.229  20.431 -0.1940  0.1546  0.2394
 2388DPPC   GL150343  22.085  21.452  20.307 -0.0473  0.2835  0.2471
 2388DPPC   GL250344  22.059  21.393  19.918 -0.0641  0.1592  0.1569
 2388DPPC   C1A50345  21.973  21.915  20.151 -0.2547  0.2460  0.2967
 2388DPPC   C2A50346  21.889  22.329  19.933 -0.2078 -0.0971  0.2298
 2388DPPC   C3A50347  21.975  22.376  19.568 -0.0331 -0.2283  0.0786
 2388DPPC   C4A50348  22.320  22.146  19.445 -0.1025  0.0498  0.1776
 2388DPPC   C1B50349  22.425  21.672  20.035 -0.1613  0.0219  0.0704
 2388DPPC   C2B50350  22.492  22.058  20.226 -0.1684  0.1777 -0.2562
 2388DPPC   C3B50351  22.457  22.489  20.004  0.2598 -0.0309 -0.2751
 2388DPPC   C4B50352  22.261  22.781  19.781  0.0846 -0.1494  0.0495
 2389DPPC   NC350353  23.232  19.768  19.862 -0.2653  0.0072 -0.0558
 2389DPPC   PO450354  22.860  19.553  19.938  0.0481  0.2993 -0.0257
 2389DPPC   GL150355  23.120  19.264  19.667 -0.1059  0.3074  0.1269
 2389DPPC   GL250356  23.377  19.472  19.533 -0.2256 -0.3300 -0.0752
 2389DPPC   C1A50357  23.297  19.042  19.322  0.0207  0.1014  0.3073
 2389DPPC   C2A50358  23.419  18.885  18.914  0.1691  0.1487 -0.1116
 2389DPPC   C3A50359  23.338  18.962  18.557 -0.1148  0.3775 -0.3157
 2389DPPC   C4A50360  23.395  19.060  18.092 -0.0251 -0.1045  0.0427
 2389DPPC   C1B50361  23.621  19.351  19.064 -0.2377 -0.1136  0.0529
 2389DPPC   C2B50362  24.133  19.315  18.877  0.0680 -0.4015 -0.4508
 2389DPPC   C3B50363  24.471  19.143  18.741  0.3397 -0.0977  0.1630
 2389DPPC   C4B50364  24.764  18.938  18.644  0.0079 -0.1852 -0.0738
 2390DPPC   NC350365  22.535  22.762   1.697 -0.2552 -0.0419  0.0843
 2390DPPC   PO450366  22.842  22.749   2.010  0.0377  0.0063  0.0508
 2390DPPC   GL150367  22.594  22.654   2.221  0.2199 -0.1087  0.2256
 2390DPPC   GL250368  22.284  22.837   2.343  0.2119  0.0115 -0.3921
 2390DPPC   C1A50369  22.337  22.382   2.284 -0.0051 -0.1468 -0.3769
 2390DPPC   C2A50370  22.018  22.031   2.488 -0.2186  0.0271  0.1398
 2390DPPC   C3A50371  21.832  21.695   2.897  0.3273  0.0375  0.0207
 2390DPPC   C4A50372  21.450  21.498   3.098 -0.2014 -0.1211 -0.1743
 2390DPPC   C1B50373  22.099  22.605   2.707  0.1060  0.2695  0.0055
 2390DPPC   C2B50374  21.846  22.251   2.927 -0.0238  0.1047  0.2633
 2390DPPC   C3B50375  21.704  22.276   3.406 -0.1513  0.0734  0.3865
 2390DPPC   C4B50376  21.516  22.051   3.839  0.1766 -0.2236 -0.3870
 2391DPPC   NC350377  17.654  25.258  24.647  0.1821  0.0580 -0.0689
 2391DPPC   PO450378  17.748  24.851  24.850  0.0616  0.1646 -0.1702
 2391DPPC   GL150379  17.319  24.894  24.923 -0.0845  0.0811  0.1023
 2391DPPC   GL250380  17.177  25.171  25.030  0.2124  0.1342 -0.1814
 2391DPPC   C1A50381  17.109  24.658  25.157 -0.0692 -0.0115  0.2590
 2391DPPC   C2A50382  17.179  24.274  25.490  0.1114 -0.2593  0.3103
 2391DPPC   C3A50383  17.306  23.874  25.471 -0.1326  0.0828  0.2910
 2391DPPC   C4A50384  17.345  23.511  25.165 -0.1371  0.2546 -0.1108
 2391DPPC   C1B50385  16.789  24.839  24.883  0.3140  0.2631  0.0646
 2391DPPC   C2B50386  16.388  24.595  24.962 -0.2393  0.1145 -0.0143
 2391DPPC   C3B50387  16.200  24.221  25.108 -0.2005  0.0953 -0.0547
 2391DPPC   C4B50388  15.813  24.029  25.414  0.1441  0.2606 -0.0004
 2392DPPC   NC350389  18.540  25.082  26.280  0.2661 -0.0948 -0.4023
 2392DPPC   PO450390  18.496  25.444  26.487  0.2258 -0.2847 -0.1360
 2392DPPC   GL150391  18.287  25.096  26.724 -0.2255 -0.1071  0.1330
 2392DPPC   GL250392  17.963  25.144  26.593  0.1638 -0.1177 -0.0687
 2392DPPC   C1A50393  17.951  24.661  26.654  0.0715 -0.3838 -0.2626
 2392DPPC   C2A50394  17.713  24.451  26.692  0.0525 -0.0008  0.0566
 2392DPPC   C3A50395  17.341  24.283   0.046 -0.0910  0.2213 -0.1490
 2392DPPC   C4A50396  16.951  24.036   0.038 -0.2577 -0.1367  0.0017
 2392DPPC   C1B50397  17.647  24.971  26.791 -0.0983 -0.1753  0.3036
 2392DPPC   C2B50398  17.303  24.735   0.141 -0.0297  0.0391  0.1918
 2392DPPC   C3B50399  16.935  24.530   0.327 -0.2667  0.1476  0.4495
 2392DPPC   C4B50400  16.538  24.500   0.161 -0.0604  0.3113  0.1212
 2393DPPC   NC350401  17.121  28.982  26.335 -0.4475 -0.1398  0.0693
 2393DPPC   PO450402  17.130  28.580  26.572 -0.0736  0.0875 -0.3115
 2393DPPC   GL150403  16.677  28.295  26.592 -0.0383  0.0475 -0.0228
 2393DPPC   GL250404  16.532  28.669  26.680  0.1882 -0.0266 -0.1298
 2393DPPC   C1A50405  16.370  27.987  26.553  0.3986  0.3471  0.3440
 2393DPPC   C2A50406  16.038  27.615  26.588 -0.1000  0.0350  0.1380
 2393DPPC   C3A50407  15.688  27.360  26.486  0.1765 -0.0975 -0.0557
 2393DPPC   C4A50408  15.307  27.093  26.476  0.3365 -0.0807 -0.0775
 2393DPPC   C1B50409  16.282  28.406  26.857  0.3055 -0.2824  0.0812
 2393DPPC   C2B50410  15.888  28.058  26.763  0.4110  0.0163  0.0212
 2393DPPC   C3B50411  15.821  27.660   0.103  0.1205 -0.1899  0.2253
 2393DPPC   C4B50412  16.038  27.244   0.277 -0.0161  0.0109 -0.0883
 2394DPPC   NC350413  18.250  26.426  24.151  0.0790 -0.1103  0.2794
 2394DPPC   PO450414  18.654  26.548  24.086  0.0033  0.0436 -0.1385
 2394DPPC   GL150415  19.066  26.552  23.990  0.1566  0.0186  0.0894
 2394DPPC   GL250416  19.190  26.719  24.175 -0.0502  0.1171 -0.1547
 2394DPPC   C1A50417  19.415  26.305  23.977 -0.3298  0.0258 -0.1927
 2394DPPC   C2A50418  19.822  26.305  23.903  0.0468  0.1655 -0.0667
 2394DPPC   C3A50419  20.061  26.483  23.906  0.0041 -0.1501  0.0027
 2394DPPC   C4A50420  20.314  26.830  23.863  0.0513 -0.1978 -0.1232
 2394DPPC   C1B50421  19.546  26.770  23.939 -0.1197 -0.2570  0.1576
 2394DPPC   C2B50422  19.934  27.098  23.782  0.2895 -0.0414  0.0181
 2394DPPC   C3B50423  20.336  27.334  23.665  0.0924  0.1659  0.0909
 2394DPPC   C4B50424  20.817  27.334  23.581 -0.2591 -0.2588 -0.2344
 2395DPPC   NC350425  19.212  25.337  23.765  0.0953 -0.0480 -0.1340
 2395DPPC   PO450426  19.309  25.162  23.327 -0.1039  0.0911  0.1098
 2395DPPC   GL150427  19.384  25.530  22.987  0.2053 -0.3923  0.1427
 2395DPPC   GL250428  19.358  25.893  22.993 -0.2139 -0.0090 -0.0448
 2395DPPC   C1A50429  19.725  25.666  22.704  0.0594  0.0481 -0.1275
 2395DPPC   C2A50430  20.165  25.869  22.686 -0.0067  0.0357 -0.0726
 2395DPPC   C3A50431  20.576  25.994  22.687 -0.2024  0.1146  0.2145
 2395DPPC   C4A50432  20.929  26.248  22.656  0.4895  0.0539  0.0945
 2395DPPC   C1B50433  19.698  26.162  22.926 -0.1219 -0.1329  0.0509
 2395DPPC   C2B50434  20.144  26.327  22.852 -0.1811  0.1220  0.3498
 2395DPPC   C3B50435  20.453  26.495  22.560 -0.0921  0.1301  0.1986
 2395DPPC   C4B50436  20.802  26.692  22.315 -0.1462  0.2637 -0.2317
 2396DPPC   NC350437  24.802  18.863  24.547 -0.1556  0.0895  0.2550
 2396DPPC   PO450438  24.500  18.872  24.213  0.1496  0.1048 -0.1206
 2396DPPC   GL150439  24.209  18.642  24.439 -0.2451  0.3236 -0.0010
 2396DPPC   GL250440  24.383  18.675  24.732  0.0730 -0.0171 -0.1713
 2396DPPC   C1A50441  23.914  18.474  24.611  0.2450 -0.0614  0.2179
 2396DPPC   C2A50442  23.724  18.118  24.617 -0.1288 -0.0986  0.3751
 2396DPPC   C3A50443  23.320  17.943  24.619 -0.0867  0.0522  0.2388
 2396DPPC   C4A50444  23.029  17.595  24.488 -0.1641 -0.0275  0.1644
 2396DPPC   C1B50445  24.562  18.243  24.576  0.3516 -0.0150  0.1248
 2396DPPC   C2B50446  24.607  17.780  24.429  0.0602  0.3081 -0.2761
 2396DPPC   C3B50447  24.556  17.419  24.450 -0.3243 -0.2005  0.0245
 2396DPPC   C4B50448  24.095  17.404  24.462  0.1541 -0.2536  0.0317
 2397DPPC   NC350449  23.643  20.431  22.652 -0.0400 -0.0889  0.1417
 2397DPPC   PO450450  24.089  20.351  22.721  0.2791  0.3289  0.0955
 2397DPPC   GL150451  24.407  20.389  22.359 -0.1361  0.0167  0.0985
 2397DPPC   GL250452  24.282  20.323  22.116 -0.1583 -0.0546  0.1033
 2397DPPC   C1A50453  24.866  20.476  22.196  0.0051 -0.0296  0.0228
 2397DPPC   C2A50454  25.116  20.412  21.913 -0.2754  0.2163 -0.2850
 2397DPPC   C3A50455  25.397  20.462  21.643  0.1299 -0.1576 -0.1357
 2397DPPC   C4A50456  25.806  20.475  21.685 -0.2443  0.1660 -0.5635
 2397DPPC   C1B50457  24.618  20.280  21.815  0.1027 -0.0177 -0.1350
 2397DPPC   C2B50458  24.789  20.672  21.599  0.2521 -0.0727 -0.0118
 2397DPPC   C3B50459  25.272  20.893  21.527 -0.1148  0.1371  0.1013
 2397DPPC   C4B50460  25.585  21.186  21.493 -0.1941  0.3548  0.0991
 2398DPPC   NC350461  21.404  20.043  21.234  0.0132 -0.2074  0.2746
 2398DPPC   PO450462  21.132  20.035  20.842 -0.4099  0.1402 -0.0235
 2398DPPC   GL150463  20.945  19.685  20.962 -0.1948 -0.1074 -0.2878
 2398DPPC   GL250464  20.757  19.558  20.714  0.1617 -0.3484  0.0872
 2398DPPC   C1A50465  20.521  19.336  21.073 -0.3901 -0.0758 -0.0907
 2398DPPC   C2A50466  20.295  18.943  20.866  0.2268 -0.1469  0.0922
 2398DPPC   C3A50467  20.019  18.882  20.533 -0.1087 -0.5827  0.1659
 2398DPPC   C4A50468  19.912  19.115  20.079  0.1657  0.1571  0.2442
 2398DPPC   C1B50469  20.453  19.318  20.564 -0.0458 -0.0198  0.3900
 2398DPPC   C2B50470  20.426  18.962  20.253  0.0702 -0.0854 -0.2260
 2398DPPC   C3B50471  20.243  18.617  20.091 -0.0312 -0.2742  0.0973
 2398DPPC   C4B50472  19.848  18.606  20.143  0.1240  0.0852 -0.0154
 2399DPPC   NC350473  20.519  25.882   1.549 -0.3723 -0.2634  0.0612
 2399DPPC   PO450474  20.312  25.458   1.502 -0.2396  0.2638 -0.1928
 2399DPPC   GL150475  20.059  24.965   1.490  0.1128 -0.2153 -0.1663
 2399DPPC   GL250476  20.205  24.636   1.624  0.0051 -0.0551 -0.0190
 2399DPPC   C1A50477  19.679  24.768   1.511  0.1535  0.0320 -0.1977
 2399DPPC   C2A50478  19.380  24.552   1.738  0.2086  0.2092  0.2044
 2399DPPC   C3A50479  19.095  24.300   1.794  0.4009 -0.4046  0.1158
 2399DPPC   C4A50480  18.799  24.159   2.134 -0.1785 -0.0498 -0.0827
 2399DPPC   C1B50481  19.889  24.167   1.755  0.0429  0.3440  0.1654
 2399DPPC   C2B50482  19.479  24.034   1.969 -0.0521 -0.1455 -0.1799
 2399DPPC   C3B50483  19.237  23.880   2.288 -0.6323 -0.1101 -0.1581
 2399DPPC   C4B50484  18.895  23.654   2.408  0.2718  0.1623 -0.3105
 2400DPPC   NC350485  18.086  29.932   0.024 -0.0896 -0.3077  0.0287
 2400DPPC   PO450486  18.380  30.108   0.300  0.0098  0.2121 -0.0989
 2400DPPC   GL150487  18.431  30.587   0.430  0.1920 -0.0976 -0.2273
 2400DPPC   GL250488  18.678  30.726   0.331  0.1925  0.4085  0.0361
 2400DPPC   C1A50489  18.401  31.044   0.617 -0.0847  0.0255  0.2409
 2400DPPC   C2A50490  18.651  31.345   0.316 -0.1458  0.0318 -0.1217
 2400DPPC   C3A50491  19.066  31.609   0.409 -0.2243  0.0481  0.1355
 2400DPPC   C4A50492  19.440  31.748   0.634  0.1652 -0.0883 -0.0475
 2400DPPC   C1B50493  18.320  30.999   0.146 -0.1513  0.0377 -0.3479
 2400DPPC   C2B50494  18.177  31.448   0.127  0.3047 -0.1805  0.0817
 2400DPPC   C3B50495  17.954  31.446  26.702  0.1785  0.0358  0.2133
 2400DPPC   C4B50496  17.708  31.737  26.379 -0.0831  0.3437 -0.3384
 2401DPPC   NC350497  27.363  20.484  26.741 -0.1072  0.0449 -0.1559
 2401DPPC   PO450498  27.145  20.258  26.364 -0.0803 -0.2999  0.2394
 2401DPPC   GL150499  27.545  20.373  26.228  0.1158 -0.2457  0.0110
 2401DPPC   GL250500  27.784  20.497  26.465  0.0119  0.1083  0.2681
 2401DPPC   C1A50501  28.018  20.302  26.056  0.3201  0.0365 -0.2275
 2401DPPC   C2A50502  28.446  20.377  26.106 -0.0018  0.1841  0.0873
 2401DPPC   C3A50503  28.886  20.324  26.298  0.3076  0.0767 -0.1434
 2401DPPC   C4A50504  29.246  20.504  26.261  0.2418 -0.1056  0.4126
 2401DPPC   C1B50505  28.148  20.331  26.589 -0.1052 -0.5467  0.1070
 2401DPPC   C2B50506  28.561  20.185  26.847  0.1140  0.0150 -0.6131
 2401DPPC   C3B50507  28.790  20.400   0.237  0.3004 -0.0929 -0.0249
 2401DPPC   C4B50508  28.972  20.776   0.395 -0.0452  0.0310 -0.1957
 2402DPPC   NC350509  18.410  26.518  21.269  0.2558  0.1387 -0.0058
 2402DPPC   PO450510  18.302  26.635  20.844  0.1132 -0.0732  0.0540
 2402DPPC   GL150511  18.629  26.634  20.785 -0.0664 -0.0901  0.0563
 2402DPPC   GL250512  18.801  26.368  21.013 -0.0223  0.3740  0.0986
 2402DPPC   C1A50513  18.999  26.924  20.636  0.1535  0.2432  0.1983
 2402DPPC   C2A50514  18.954  27.364  20.597  0.0313 -0.1967  0.3954
 2402DPPC   C3A50515  19.177  27.717  20.681 -0.0629 -0.3141 -0.1435
 2402DPPC   C4A50516  19.521  27.961  20.807  0.1453 -0.1391  0.0130
 2402DPPC   C1B50517  19.154  26.492  21.135  0.1012  0.0914 -0.0485
 2402DPPC   C2B50518  19.518  26.582  21.004 -0.1080 -0.1349 -0.0934
 2402DPPC   C3B50519  19.589  26.769  20.644 -0.0591  0.1234  0.1867
 2402DPPC   C4B50520  19.615  27.037  20.246 -0.1077  0.2059  0.0343
 2403DPPC   NC350521  26.113  21.113  26.381  0.0107  0.3199 -0.1081
 2403DPPC   PO450522  25.892  20.830  25.989  0.0197 -0.1106  0.0990
 2403DPPC   GL150523  26.279  20.892  25.783  0.5463 -0.1970 -0.0188
 2403DPPC   GL250524  26.489  21.108  26.025 -0.2523  0.2151 -0.2639
 2403DPPC   C1A50525  26.451  21.132  25.422  0.3096 -0.3022 -0.0481
 2403DPPC   C2A50526  26.752  21.352  25.142  0.1057  0.0873 -0.2595
 2403DPPC   C3A50527  27.227  21.528  25.088 -0.3562  0.0882 -0.2831
 2403DPPC   C4A50528  27.601  21.735  24.989 -0.0658  0.2202  0.1210
 2403DPPC   C1B50529  26.912  21.071  26.007  0.1640  0.2198  0.2909
 2403DPPC   C2B50530  27.399  21.101  25.976 -0.0890 -0.3560 -0.0300
 2403DPPC   C3B50531  27.829  21.133  26.138 -0.1774  0.0088 -0.1948
 2403DPPC   C4B50532  28.224  21.150  26.190 -0.1987  0.0351  0.2095
 2404DPPC   NC350533  19.814  27.347   2.869  0.1820 -0.0790  0.1021
 2404DPPC   PO450534  19.880  27.252   3.257  0.0194 -0.0996  0.4403
 2404DPPC   GL150535  19.490  27.061   3.470 -0.4107  0.2220 -0.1317
 2404DPPC   GL250536  19.339  26.815   3.472  0.1518 -0.1813  0.2517
 2404DPPC   C1A50537  18.986  27.060   3.580  0.1384 -0.2032  0.0421
 2404DPPC   C2A50538  18.681  27.060   4.013 -0.1200 -0.0473  0.2272
 2404DPPC   C3A50539  18.664  26.809   4.280  0.1223  0.1471 -0.2645
 2404DPPC   C4A50540  18.343  26.373   4.320  0.0843  0.1001 -0.0079
 2404DPPC   C1B50541  19.284  26.842   3.875  0.1033 -0.1110  0.0076
 2404DPPC   C2B50542  19.271  27.023   4.254  0.1623  0.1987 -0.2100
 2404DPPC   C3B50543  18.981  27.024   4.653  0.2122 -0.0133  0.2533
 2404DPPC   C4B50544  18.645  27.271   4.909  0.1468  0.0346 -0.4105
 2405DPPC   NC350545  21.557  26.623   2.138 -0.0731  0.1927 -0.1357
 2405DPPC   PO450546  21.431  26.316   1.844 -0.2960  0.2626  0.2381
 2405DPPC   GL150547  21.593  26.516   1.446 -0.3891  0.1360 -0.2412
 2405DPPC   GL250548  21.852  26.678   1.665  0.0609 -0.2759 -0.0152
 2405DPPC   C1A50549  21.679  26.791   1.114  0.1591  0.3975  0.2639
 2405DPPC   C2A50550  21.904  27.150   1.037 -0.0082  0.1104 -0.3395
 2405DPPC   C3A50551  22.118  27.546   0.801 -0.3322 -0.0103 -0.0543
 2405DPPC   C4A50552  22.444  27.669   0.598  0.1460 -0.1015 -0.2799
 2405DPPC   C1B50553  22.142  26.960   1.498  0.0683 -0.2793 -0.3702
 2405DPPC   C2B50554  22.348  27.335   1.258  0.5288 -0.2786 -0.1918
 2405DPPC   C3B50555  22.769  27.425   0.928  0.2581  0.2740  0.2572
 2405DPPC   C4B50556  23.241  27.364   0.823 -0.2338  0.0715  0.0832
 2406DPPC   NC350557  24.543  21.525   1.068 -0.2210  0.0737 -0.0060
 2406DPPC   PO450558  24.597  21.153   1.173  0.2357  0.3426  0.1346
 2406DPPC   GL150559  24.416  20.896   1.518 -0.2906  0.1956 -0.3227
 2406DPPC   GL250560  24.635  20.761   1.790 -0.0092  0.0794 -0.0566
 2406DPPC   C1A50561  24.139  20.523   1.528  0.1480 -0.1469  0.3473
 2406DPPC   C2A50562  23.928  20.303   1.836 -0.1668 -0.1010  0.0482
 2406DPPC   C3A50563  23.644  19.941   1.976 -0.0260 -0.0988  0.1577
 2406DPPC   C4A50564  23.332  19.728   2.085 -0.1213  0.0197 -0.0055
 2406DPPC   C1B50565  24.357  20.478   2.027  0.2503  0.1407 -0.1211
 2406DPPC   C2B50566  24.201  20.476   2.395  0.0484 -0.1277 -0.0562
 2406DPPC   C3B50567  24.163  20.264   2.731 -0.0402  0.1134 -0.1007
 2406DPPC   C4B50568  24.233  20.157   3.062  0.0928  0.1639  0.1721
 2407DPPC   NC350569  25.771  19.879   0.159  0.1633 -0.3589  0.0098
 2407DPPC   PO450570  25.917  20.122   0.517 -0.2726  0.2721 -0.3390
 2407DPPC   GL150571  25.667  19.742   0.592 -0.1140  0.0051 -0.2132
 2407DPPC   GL250572  25.518  19.927   0.817 -0.0438 -0.3989  0.1522
 2407DPPC   C1A50573  25.307  19.397   0.606 -0.1607 -0.1914 -0.0188
 2407DPPC   C2A50574  24.972  19.168   0.750  0.0043 -0.2702 -0.0242
 2407DPPC   C3A50575  25.016  18.797   0.928  0.0241 -0.1583  0.3515
 2407DPPC   C4A50576  25.253  18.502   1.246 -0.0906  0.3058  0.0384
 2407DPPC   C1B50577  25.307  19.698   1.085  0.2359  0.0741 -0.0642
 2407DPPC   C2B50578  24.975  19.524   1.252  0.1489 -0.1811 -0.0257
 2407DPPC   C3B50579  24.958  19.112   1.317  0.0093 -0.4026  0.1202
 2407DPPC   C4B50580  25.011  18.747   1.610 -0.2889  0.0762  0.3099
 2408DPPC   NC350581  23.409  20.224  26.130  0.2162 -0.3201  0.0804
 2408DPPC   PO450582  23.778  20.276  26.316 -0.1513  0.1569  0.0141
 2408DPPC   GL150583  23.546  19.958  26.496 -0.1220 -0.0761  0.2299
 2408DPPC   GL250584  23.207  19.707  26.295 -0.1699  0.1824 -0.2596
 2408DPPC   C1A50585  23.447  19.799  26.905 -0.0243  0.0395  0.0276
 2408DPPC   C2A50586  23.224  19.399   0.152 -0.3431  0.0121  0.0218
 2408DPPC   C3A50587  23.267  19.019   0.307  0.1235 -0.0799  0.0114
 2408DPPC   C4A50588  23.327  18.558   0.343  0.1442 -0.3510  0.0782
 2408DPPC   C1B50589  22.919  19.357  26.295 -0.2544 -0.1134  0.0097
 2408DPPC   C2B50590  22.772  18.981  26.388 -0.2871  0.1917  0.0698
 2408DPPC   C3B50591  22.771  18.568  26.426 -0.4731 -0.1661  0.0233
 2408DPPC   C4B50592  22.785  18.071  26.490 -0.1359  0.1145  0.1356
 2409DPPC   NC350593  25.132  22.770   3.376 -0.2576 -0.0422  0.1746
 2409DPPC   PO450594  25.519  22.820   3.546 -0.1245  0.0120 -0.1223
 2409DPPC   GL150595  25.391  22.375   3.629 -0.1002 -0.0976 -0.1071
 2409DPPC   GL250596  25.695  22.104   3.624 -0.1666 -0.2222 -0.2851
 2409DPPC   C1A50597  25.271  22.092   3.957 -0.0385  0.1577  0.1836
 2409DPPC   C2A50598  25.223  21.716   4.228 -0.1545  0.1739 -0.2502
 2409DPPC   C3A50599  25.117  21.499   4.629 -0.1324  0.3275 -0.0910
 2409DPPC   C4A50600  25.025  21.108   4.669  0.1536  0.0312  0.0762
 2409DPPC   C1B50601  25.584  21.718   3.835  0.0755 -0.0385 -0.1990
 2409DPPC   C2B50602  25.663  21.490   4.263  0.1091 -0.3456  0.0803
 2409DPPC   C3B50603  25.567  21.808   4.596 -0.1346 -0.0946 -0.4669
 2409DPPC   C4B50604  25.309  21.752   5.021 -0.0628  0.0755 -0.0424
 2410DPPC   NC350605  21.033  28.204   2.007  0.2182 -0.1978 -0.1392
 2410DPPC   PO450606  21.028  27.750   1.836 -0.1853 -0.2285 -0.1551
 2410DPPC   GL150607  21.441  28.005   1.796 -0.0197 -0.0630 -0.1414
 2410DPPC   GL250608  21.668  27.723   1.773  0.1423  0.1132  0.0560
 2410DPPC   C1A50609  21.511  28.385   1.516 -0.1983 -0.2281 -0.3058
 2410DPPC   C2A50610  21.403  28.810   1.323 -0.1257  0.2077 -0.2950
 2410DPPC   C3A50611  21.541  29.182   0.938 -0.2895  0.3198 -0.1655
 2410DPPC   C4A50612  21.537  29.293   0.483 -0.3175 -0.0887  0.1500
 2410DPPC   C1B50613  21.934  27.963   1.645  0.0778  0.1673  0.0279
 2410DPPC   C2B50614  22.180  28.084   1.384 -0.1096 -0.2791  0.0599
 2410DPPC   C3B50615  22.349  28.440   1.225  0.1997  0.1865 -0.0992
 2410DPPC   C4B50616  22.202  28.667   0.783  0.0114 -0.1227 -0.0759
 2411DPPC   NC350617  27.914  21.249   2.722 -0.0778  0.2024  0.0597
 2411DPPC   PO450618  27.446  21.416   2.808 -0.2050  0.1834 -0.0574
 2411DPPC   GL150619  27.398  20.987   2.870  0.4723  0.0631 -0.2755
 2411DPPC   GL250620  27.029  20.927   2.830  0.1733  0.0032 -0.2621
 2411DPPC   C1A50621  27.457  20.615   2.903  0.3464  0.2773 -0.1809
 2411DPPC   C2A50622  27.350  20.360   3.167  0.0868  0.1310 -0.0836
 2411DPPC   C3A50623  27.539  20.422   3.603  0.0860 -0.5749 -0.2214
 2411DPPC   C4A50624  27.757  20.768   3.973  0.0829 -0.0309 -0.0054
 2411DPPC   C1B50625  26.854  20.552   2.960 -0.1628  0.1184 -0.4557
 2411DPPC   C2B50626  26.832  20.099   3.196  0.0814 -0.0454 -0.1443
 2411DPPC   C3B50627  26.821  19.688   3.104 -0.0823 -0.0410 -0.0444
 2411DPPC   C4B50628  26.772  19.250   3.199 -0.1271  0.1084  0.4458
 2412DPPC   NC350629  23.505  26.614   4.495  0.0303 -0.0817 -0.0118
 2412DPPC   PO450630  23.707  26.077   4.593 -0.0910 -0.0945  0.1175
 2412DPPC   GL150631  23.481  25.995   5.023 -0.2659 -0.1952 -0.1441
 2412DPPC   GL250632  23.216  26.136   5.082 -0.1005  0.0202 -0.2149
 2412DPPC   C1A50633  23.481  25.794   5.466  0.0763 -0.1120 -0.3771
 2412DPPC   C2A50634  23.346  25.802   5.912  0.0140  0.0109  0.0957
 2412DPPC   C3A50635  23.099  25.785   6.267 -0.0399  0.2454  0.0699
 2412DPPC   C4A50636  22.754  25.960   6.526  0.0476  0.3510  0.0970
 2412DPPC   C1B50637  23.136  26.154   5.598  0.0543 -0.1631 -0.0445
 2412DPPC   C2B50638  23.161  26.254   6.060 -0.1212  0.2165  0.0651
 2412DPPC   C3B50639  22.926  26.403   6.383 -0.1783  0.0389 -0.6289
 2412DPPC   C4B50640  23.086  26.833   6.426  0.3767 -0.1022  0.2342
 2413DPPC   NC350641  25.203  19.023  24.914 -0.2855 -0.1443 -0.1216
 2413DPPC   PO450642  25.238  19.199  25.289  0.0037  0.1085 -0.1249
 2413DPPC   GL150643  25.405  18.773  25.538  0.1375 -0.1412  0.0657
 2413DPPC   GL250644  25.235  18.400  25.360 -0.0068  0.0193 -0.2299
 2413DPPC   C1A50645  25.576  18.422  25.681  0.1085  0.2347  0.0939
 2413DPPC   C2A50646  25.391  17.965  25.698 -0.2934  0.1240  0.0389
 2413DPPC   C3A50647  25.173  17.730  26.005  0.2027  0.4403  0.4106
 2413DPPC   C4A50648  24.878  17.681  26.218  0.0213  0.2357 -0.1583
 2413DPPC   C1B50649  24.859  18.067  25.431  0.2690  0.0629  0.3951
 2413DPPC   C2B50650  24.704  17.669  25.654  0.2773  0.0734  0.2550
 2413DPPC   C3B50651  24.573  17.331  25.960 -0.0102 -0.1675 -0.0130
 2413DPPC   C4B50652  24.406  16.988  26.202  0.0602 -0.3703 -0.0731
 2414DPPC   NC350653  17.314  27.585  22.333 -0.1051  0.1296 -0.1253
 2414DPPC   PO450654  17.708  27.813  22.120  0.0698 -0.0385 -0.1113
 2414DPPC   GL150655  17.949  28.179  22.142 -0.1741  0.1074 -0.0913
 2414DPPC   GL250656  17.870  28.554  21.969 -0.0134  0.1888 -0.0601
 2414DPPC   C1A50657  18.324  28.245  22.022 -0.0701 -0.2051 -0.0796
 2414DPPC   C2A50658  18.593  28.537  21.955 -0.0796  0.3149  0.0937
 2414DPPC   C3A50659  18.883  28.721  21.756  0.2030 -0.0415  0.0466
 2414DPPC   C4A50660  19.163  28.973  21.575 -0.0384  0.1425 -0.2584
 2414DPPC   C1B50661  18.069  28.714  22.172 -0.1329 -0.1589 -0.4474
 2414DPPC   C2B50662  18.075  29.094  22.330  0.1870  0.1738 -0.2248
 2414DPPC   C3B50663  18.002  29.557  22.214 -0.1269  0.2570  0.0596
 2414DPPC   C4B50664  17.792  29.853  21.921 -0.0573  0.1959 -0.0369
 2415DPPC   NC350665  26.097  19.016  24.246  0.1134  0.1994  0.0654
 2415DPPC   PO450666  26.306  18.974  23.881 -0.5141 -0.2908 -0.4310
 2415DPPC   GL150667  26.293  18.929  23.428  0.0995 -0.1643 -0.0132
 2415DPPC   GL250668  25.974  19.130  23.246  0.0225 -0.3632 -0.1230
 2415DPPC   C1A50669  26.604  18.766  23.150 -0.0970 -0.2875  0.0813
 2415DPPC   C2A50670  26.683  18.440  23.061  0.1836  0.0902 -0.0568
 2415DPPC   C3A50671  26.658  18.284  22.585  0.0682  0.0273  0.2536
 2415DPPC   C4A50672  27.055  18.407  22.433  0.0784 -0.1821  0.0262
 2415DPPC   C1B50673  26.207  18.928  22.895 -0.1670  0.3853  0.3562
 2415DPPC   C2B50674  26.481  18.826  22.650 -0.1408  0.1624 -0.0325
 2415DPPC   C3B50675  26.879  19.173  22.531  0.0266 -0.0468 -0.1126
 2415DPPC   C4B50676  26.991  19.590  22.719  0.4202  0.0759  0.1967
 2416DPPC   NC350677  20.888  20.971  23.344 -0.1060 -0.1656  0.2929
 2416DPPC   PO450678  20.424  21.047  23.490  0.0530  0.0700 -0.0057
 2416DPPC   GL150679  20.166  20.782  23.653  0.1167 -0.0580 -0.2220
 2416DPPC   GL250680  19.956  20.738  23.456  0.3276 -0.2873 -0.0973
 2416DPPC   C1A50681  19.929  20.573  23.999  0.0793 -0.1312  0.0646
 2416DPPC   C2A50682  19.862  20.360  24.396 -0.0740  0.1243  0.0122
 2416DPPC   C3A50683  19.647  20.015  24.594 -0.0686 -0.0313 -0.2893
 2416DPPC   C4A50684  19.257  19.830  24.837  0.0815  0.0482 -0.0004
 2416DPPC   C1B50685  19.646  20.395  23.507 -0.1956  0.4410  0.0884
 2416DPPC   C2B50686  19.409  20.081  23.581  0.0142 -0.2428 -0.1126
 2416DPPC   C3B50687  19.082  19.746  23.555 -0.0390 -0.2568 -0.1470
 2416DPPC   C4B50688  19.015  19.420  23.294  0.3946  0.4185 -0.1571
 2417DPPC   NC350689  20.967  20.083  22.822  0.0202  0.3326 -0.1030
 2417DPPC   PO450690  20.678  20.409  22.761 -0.0861 -0.1037 -0.0402
 2417DPPC   GL150691  20.463  20.046  22.812  0.0762  0.1654  0.2544
 2417DPPC   GL250692  20.614  19.694  22.818 -0.0804 -0.0173 -0.0352
 2417DPPC   C1A50693  20.412  19.899  23.167 -0.2636  0.0552  0.1350
 2417DPPC   C2A50694  20.273  19.666  23.467  0.1118 -0.2473 -0.1106
 2417DPPC   C3A50695  20.310  19.239  23.656 -0.4519  0.0078 -0.1528
 2417DPPC   C4A50696  20.094  18.864  23.996  0.1334 -0.3814  0.1247
 2417DPPC   C1B50697  20.152  19.603  22.741  0.0944  0.4099 -0.0649
 2417DPPC   C2B50698  19.722  19.631  22.874  0.0859 -0.0475 -0.1034
 2417DPPC   C3B50699  19.329  19.743  22.619  0.0163 -0.1055  0.0372
 2417DPPC   C4B50700  19.062  20.009  22.372 -0.0812 -0.0970  0.1997
 2418DPPC   NC350701  17.705  28.241  21.619 -0.0611  0.1289 -0.0841
 2418DPPC   PO450702  17.480  28.477  21.275 -0.4439  0.0575  0.3925
 2418DPPC   GL150703  17.349  28.706  20.910 -0.1792  0.0993 -0.3024
 2418DPPC   GL250704  17.502  28.758  20.674  0.0709 -0.0902  0.1443
 2418DPPC   C1A50705  17.289  29.167  20.818 -0.3520  0.0898  0.0715
 2418DPPC   C2A50706  17.092  29.399  21.028  0.0422  0.2991 -0.0168
 2418DPPC   C3A50707  16.727  29.443  21.204  0.1902 -0.1405  0.1851
 2418DPPC   C4A50708  16.611  29.909  21.297  0.2976 -0.2106 -0.2241
 2418DPPC   C1B50709  17.772  28.941  20.467  0.1440  0.1647  0.1343
 2418DPPC   C2B50710  17.933  29.335  20.081  0.2016  0.0936 -0.1581
 2418DPPC   C3B50711  17.781  29.417  19.701 -0.4288 -0.1384  0.1670
 2418DPPC   C4B50712  17.813  29.134  19.320  0.2051  0.2160 -0.0753
 2419DPPC   NC350713  19.376  22.025  21.734 -0.3858 -0.1488  0.3286
 2419DPPC   PO450714  19.227  22.356  21.490 -0.4192  0.3064 -0.0117
 2419DPPC   GL150715  18.927  22.077  21.507  0.1600 -0.0994 -0.3592
 2419DPPC   GL250716  18.974  21.771  21.736 -0.0264  0.1122 -0.2469
 2419DPPC   C1A50717  18.484  21.995  21.604 -0.0508  0.0895  0.3054
 2419DPPC   C2A50718  18.123  21.880  21.774 -0.0134  0.0669 -0.0202
 2419DPPC   C3A50719  17.833  21.627  21.626  0.1820  0.1173 -0.2609
 2419DPPC   C4A50720  17.624  21.302  21.643 -0.0841  0.3068 -0.0534
 2419DPPC   C1B50721  18.580  21.670  21.971  0.1019 -0.0369 -0.0698
 2419DPPC   C2B50722  18.201  21.399  22.041  0.1234 -0.1851 -0.2020
 2419DPPC   C3B50723  18.202  20.998  22.166  0.2600 -0.1924  0.2955
 2419DPPC   C4B50724  18.317  20.551  22.219  0.0730 -0.3554 -0.1566
 2420DPPC   NC350725  18.628  25.889  21.079 -0.1063 -0.0962 -0.0442
 2420DPPC   PO450726  18.354  26.098  20.944  0.0617  0.0820  0.2164
 2420DPPC   GL150727  18.534  26.166  20.585  0.0446 -0.1139  0.0064
 2420DPPC   GL250728  18.781  25.983  20.526  0.2902  0.0960 -0.3045
 2420DPPC   C1A50729  18.708  26.511  20.320  0.0852 -0.0103 -0.1891
 2420DPPC   C2A50730  18.952  26.742  20.014  0.0906 -0.1122 -0.1215
 2420DPPC   C3A50731  19.026  27.054  20.095  0.2866 -0.2384 -0.3043
 2420DPPC   C4A50732  19.258  27.338  20.213  0.2083  0.2674  0.1887
 2420DPPC   C1B50733  19.085  26.352  20.659 -0.1389  0.1154 -0.2570
 2420DPPC   C2B50734  19.336  26.548  20.281  0.1014 -0.0329 -0.1092
 2420DPPC   C3B50735  19.577  26.724  19.888 -0.2643 -0.1356  0.1472
 2420DPPC   C4B50736  19.927  26.772  19.758  0.0760  0.2819  0.0276
 2421DPPC   NC350737  22.406  19.527  20.727  0.1782 -0.0201  0.0790
 2421DPPC   PO450738  22.481  19.296  20.281  0.1310  0.0529  0.1993
 2421DPPC   GL150739  22.649  18.904  20.163  0.1714 -0.2423  0.0790
 2421DPPC   GL250740  22.965  19.025  20.077  0.1811  0.1820 -0.0356
 2421DPPC   C1A50741  22.741  18.451  20.319 -0.0389  0.1458 -0.0599
 2421DPPC   C2A50742  22.844  18.100  20.222 -0.1124 -0.0814 -0.1654
 2421DPPC   C3A50743  23.063  17.800  20.011 -0.2196  0.4145  0.0437
 2421DPPC   C4A50744  23.421  17.561  19.973  0.0303  0.0602  0.0487
 2421DPPC   C1B50745  23.154  18.622  20.104 -0.2245  0.1672 -0.0759
 2421DPPC   C2B50746  23.343  18.248  20.202 -0.3985 -0.1358  0.0493
 2421DPPC   C3B50747  23.342  17.892  20.433  0.0295 -0.3008  0.0164
 2421DPPC   C4B50748  23.380  17.503  20.582 -0.0629  0.1357  0.0399
 2422DPPC   NC350749  26.490  26.517   4.849  0.0890  0.2064 -0.1025
 2422DPPC   PO450750  26.275  26.853   4.999  0.0989  0.1804 -0.2351
 2422DPPC   GL150751  26.531  26.959   5.278 -0.1683  0.0842 -0.0763
 2422DPPC   GL250752  26.470  27.274   5.351 -0.1184  0.0511 -0.4634
 2422DPPC   C1A50753  26.751  26.878   5.680 -0.2189  0.1457  0.1209
 2422DPPC   C2A50754  26.773  26.730   6.073  0.2337  0.0269  0.1359
 2422DPPC   C3A50755  26.938  26.899   6.518  0.2045  0.0999 -0.0062
 2422DPPC   C4A50756  26.721  27.080   6.847 -0.0126 -0.2203 -0.2483
 2422DPPC   C1B50757  26.418  27.257   5.788 -0.2611 -0.2359  0.1582
 2422DPPC   C2B50758  26.251  27.499   6.221  0.1253 -0.2399 -0.0694
 2422DPPC   C3B50759  26.410  27.452   6.650  0.0485 -0.0554  0.3798
 2422DPPC   C4B50760  26.407  27.432   7.031 -0.1212  0.1772 -0.2282
 2423DPPC   NC350761  17.709  25.277  25.180  0.0622  0.3341  0.2490
 2423DPPC   PO450762  17.536  25.607  24.929  0.0808 -0.1940  0.0328
 2423DPPC   GL150763  17.050  25.694  24.877  0.2237  0.0812 -0.1026
 2423DPPC   GL250764  16.820  25.943  25.030  0.0837  0.2883 -0.2412
 2423DPPC   C1A50765  16.709  25.378  25.027  0.1885 -0.1060  0.2001
 2423DPPC   C2A50766  16.581  25.053  25.252  0.2395  0.0924 -0.1349
 2423DPPC   C3A50767  16.233  24.787  25.432  0.1959 -0.1031 -0.2104
 2423DPPC   C4A50768  15.880  24.528  25.359  0.2960 -0.1083 -0.1463
 2423DPPC   C1B50769  16.644  25.830  25.441  0.2278 -0.3859 -0.0078
 2423DPPC   C2B50770  16.333  25.492  25.429  0.1200  0.1477 -0.0630
 2423DPPC   C3B50771  15.909  25.373  25.397  0.0736 -0.2237 -0.0820
 2423DPPC   C4B50772  15.762  25.674  25.745  0.2122  0.1682  0.0268
 2424DPPC   NC350773  18.502  25.026  19.214 -0.0547  0.0756 -0.0566
 2424DPPC   PO450774  18.845  24.947  18.981 -0.2421  0.0746  0.1859
 2424DPPC   GL150775  18.896  25.078  18.546 -0.5359 -0.0301 -0.3621
 2424DPPC   GL250776  18.652  25.158  18.252  0.1441 -0.2038  0.1646
 2424DPPC   C1A50777  19.149  25.271  18.246  0.0452 -0.3126 -0.2157
 2424DPPC   C2A50778  19.213  25.755  18.071 -0.0528 -0.4221 -0.0712
 2424DPPC   C3A50779  19.082  26.126  18.188 -0.0979  0.0053  0.2337
 2424DPPC   C4A50780  18.719  26.275  18.106  0.0631  0.0707 -0.2123
 2424DPPC   C1B50781  18.775  25.142  17.920 -0.2046 -0.0450 -0.2012
 2424DPPC   C2B50782  18.863  24.893  17.687 -0.1944 -0.1537 -0.2832
 2424DPPC   C3B50783  19.009  24.737  17.317 -0.0112  0.0044  0.1582
 2424DPPC   C4B50784  19.286  24.508  16.981  0.4916  0.3053  0.2890
 2425DPPC   NC350785  19.494  24.036  19.847  0.0582  0.1233 -0.0970
 2425DPPC   PO450786  19.783  23.812  19.566  0.0572  0.1965  0.0340
 2425DPPC   GL150787  20.180  23.902  19.416 -0.1803  0.2510  0.1538
 2425DPPC   GL250788  20.265  23.865  19.593 -0.1879 -0.0189 -0.0268
 2425DPPC   C1A50789  20.438  24.146  19.195  0.1849 -0.0969  0.0268
 2425DPPC   C2A50790  20.559  24.574  19.144 -0.0469  0.0243 -0.3294
 2425DPPC   C3A50791  20.862  24.855  18.996 -0.1423  0.0427 -0.0149
 2425DPPC   C4A50792  21.094  25.368  18.922  0.2571  0.3041 -0.0992
 2425DPPC   C1B50793  20.729  23.860  19.661  0.1316  0.2656  0.1227
 2425DPPC   C2B50794  21.074  23.706  19.460  0.0373 -0.0656  0.0412
 2425DPPC   C3B50795  21.475  23.754  19.297 -0.2297  0.0413 -0.2187
 2425DPPC   C4B50796  21.986  23.720  19.287  0.2409  0.0563  0.0994
 2426DPPC   NC350797  20.527  23.596  23.554  0.0720  0.0106  0.0888
 2426DPPC   PO450798  20.238  23.874  23.767  0.1345 -0.0587 -0.0601
 2426DPPC   GL150799  20.688  24.007  23.847  0.0685 -0.2815  0.1520
 2426DPPC   GL250800  20.864  24.027  23.549 -0.2976  0.1246  0.0036
 2426DPPC   C1A50801  20.904  24.410  23.939  0.2935  0.0683 -0.0049
 2426DPPC   C2A50802  21.084  24.793  23.936  0.2887  0.0018  0.2959
 2426DPPC   C3A50803  21.364  24.867  23.518  0.1875  0.1383  0.2241
 2426DPPC   C4A50804  21.556  24.935  23.150  0.0306 -0.0488 -0.1459
 2426DPPC   C1B50805  21.207  24.163  23.647 -0.0749  0.1060  0.0791
 2426DPPC   C2B50806  21.513  24.344  23.526 -0.2508 -0.3017  0.1251
 2426DPPC   C3B50807  21.879  24.579  23.193 -0.4057  0.0354 -0.0758
 2426DPPC   C4B50808  22.095  24.601  22.813 -0.4267 -0.3263  0.2514
 2427DPPC   NC350809  21.266  19.627  20.484 -0.2286  0.0114  0.0358
 2427DPPC   PO450810  21.456  19.738  20.099 -0.4985  0.1368  0.3757
 2427DPPC   GL150811  21.393  19.377  19.745 -0.0544 -0.0925 -0.1124
 2427DPPC   GL250812  21.562  19.110  19.785  0.2035  0.3045  0.0390
 2427DPPC   C1A50813  21.085  19.145  19.520  0.1737 -0.1644  0.1612
 2427DPPC   C2A50814  20.742  19.253  19.201  0.2980  0.0221  0.0184
 2427DPPC   C3A50815  20.414  19.495  19.109 -0.0671 -0.2290  0.0157
 2427DPPC   C4A50816  19.902  19.528  19.287 -0.2118  0.1183 -0.0060
 2427DPPC   C1B50817  21.173  18.793  19.838  0.2932 -0.0067 -0.1788
 2427DPPC   C2B50818  21.022  18.446  20.123  0.3863  0.5489  0.4229
 2427DPPC   C3B50819  20.956  18.082  20.358  0.1877 -0.0946 -0.1300
 2427DPPC   C4B50820  21.202  18.048  20.621  0.0438  0.1664  0.2866
 2428DPPC   NC350821  22.457  27.805   3.067 -0.1557 -0.0800 -0.2692
 2428DPPC   PO450822  22.040  27.956   3.115 -0.1489  0.0530 -0.0589
 2428DPPC   GL150823  22.355  28.259   2.812  0.2152 -0.2975  0.0595
 2428DPPC   GL250824  22.634  28.137   2.702 -0.0338  0.1960  0.0062
 2428DPPC   C1A50825  22.536  28.600   2.602  0.0323  0.2406 -0.2110
 2428DPPC   C2A50826  22.643  28.817   2.239 -0.0978 -0.0951  0.0882
 2428DPPC   C3A50827  22.557  28.709   1.828  0.1042 -0.0009 -0.0213
 2428DPPC   C4A50828  22.376  28.935   1.367 -0.2143 -0.0680 -0.0834
 2428DPPC   C1B50829  23.003  28.403   2.483  0.0628 -0.0471 -0.1989
 2428DPPC   C2B50830  23.050  28.585   2.217  0.0344  0.2605 -0.3931
 2428DPPC   C3B50831  23.347  28.596   1.929  0.0446 -0.0377 -0.1455
 2428DPPC   C4B50832  23.237  28.772   1.521  0.2634 -0.2428 -0.1002
 2429DPPC   NC350833  19.127  25.368  22.507  0.2036  0.0625 -0.0679
 2429DPPC   PO450834  19.228  25.199  22.060  0.0421  0.1470  0.3578
 2429DPPC   GL150835  19.570  25.310  21.796 -0.1976  0.3490 -0.2627
 2429DPPC   GL250836  19.687  25.016  21.751  0.1726 -0.1159  0.1953
 2429DPPC   C1A50837  20.035  25.567  21.712 -0.0291 -0.2175  0.2188
 2429DPPC   C2A50838  20.370  25.735  21.563 -0.0122 -0.4068 -0.3374
 2429DPPC   C3A50839  20.367  26.100  21.314 -0.0716  0.2892  0.3600
 2429DPPC   C4A50840  20.635  26.435  21.218 -0.2186 -0.1212  0.0091
 2429DPPC   C1B50841  19.931  25.107  21.441 -0.1786 -0.1473 -0.0777
 2429DPPC   C2B50842  20.317  25.310  21.318 -0.0157  0.1575 -0.1558
 2429DPPC   C3B50843  20.676  25.635  21.138  0.2818  0.0163 -0.1831
 2429DPPC   C4B50844  21.010  25.686  21.129  0.1482  0.0608  0.1574
 2430DPPC   NC350845  20.256  25.446   1.979 -0.0712  0.1550 -0.0810
 2430DPPC   PO450846  20.566  25.288   2.256 -0.1910  0.0402 -0.0207
 2430DPPC   GL150847  20.373  24.933   2.383 -0.0679 -0.0245 -0.2327
 2430DPPC   GL250848  20.141  24.936   2.084 -0.1707 -0.1128 -0.1419
 2430DPPC   C1A50849  20.014  24.666   2.546  0.0551 -0.0413 -0.4358
 2430DPPC   C2A50850  19.719  24.456   2.831 -0.0143 -0.0159  0.3049
 2430DPPC   C3A50851  19.507  24.196   3.086  0.2182  0.0876  0.1558
 2430DPPC   C4A50852  19.082  24.218   3.276  0.0107 -0.1892 -0.1651
 2430DPPC   C1B50853  19.759  24.617   2.125  0.1830 -0.1788  0.1393
 2430DPPC   C2B50854  19.394  24.389   2.351  0.0974 -0.1871  0.2752
 2430DPPC   C3B50855  19.123  24.435   2.634  0.0873  0.0973 -0.1991
 2430DPPC   C4B50856  19.006  24.049   2.789  0.2189  0.2135  0.1209
 2431DPPC   NC350857  25.194  20.715  25.082 -0.0309  0.0446 -0.0573
 2431DPPC   PO450858  25.627  20.838  25.066  0.0355 -0.1615 -0.1812
 2431DPPC   GL150859  26.038  20.910  24.843  0.0578  0.1110  0.1066
 2431DPPC   GL250860  25.913  20.963  24.541  0.0971  0.2774 -0.2893
 2431DPPC   C1A50861  26.435  21.148  24.758 -0.1154 -0.2112 -0.1085
 2431DPPC   C2A50862  26.751  21.524  24.729 -0.1931 -0.2235  0.1980
 2431DPPC   C3A50863  27.136  21.939  24.616  0.3300  0.1661  0.3254
 2431DPPC   C4A50864  27.632  22.085  24.700  0.2316  0.2811 -0.0019
 2431DPPC   C1B50865  25.881  21.414  24.811 -0.2958  0.0070 -0.1255
 2431DPPC   C2B50866  25.821  21.842  24.888 -0.1978  0.2585 -0.1600
 2431DPPC   C3B50867  26.146  22.129  24.965  0.1168 -0.0658  0.3342
 2431DPPC   C4B50868  26.361  22.245  24.651  0.4513 -0.0172  0.0742
 2432DPPC   NC350869  19.800  23.875  19.100  0.2066  0.1437  0.0346
 2432DPPC   PO450870  19.776  23.600  18.812  0.1309 -0.2191  0.0391
 2432DPPC   GL150871  20.071  24.012  18.708  0.2638  0.1842 -0.3474
 2432DPPC   GL250872  19.811  24.278  18.712 -0.3369  0.2098 -0.4109
 2432DPPC   C1A50873  20.269  24.398  18.655 -0.0974  0.0522 -0.0566
 2432DPPC   C2A50874  20.451  24.858  18.685 -0.0078 -0.2957  0.0842
 2432DPPC   C3A50875  20.754  25.297  18.497 -0.2354  0.5103  0.0874
 2432DPPC   C4A50876  21.101  25.305  18.247  0.0146  0.0840 -0.0583
 2432DPPC   C1B50877  19.884  24.745  18.659 -0.3337  0.1265 -0.0413
 2432DPPC   C2B50878  20.044  24.910  18.389 -0.1562 -0.1739  0.4154
 2432DPPC   C3B50879  19.806  25.283  18.058 -0.1440  0.0761  0.0902
 2432DPPC   C4B50880  19.618  25.433  17.869 -0.1095  0.2402  0.0130
 2433DPPC   NC350881  16.508  27.180  21.799 -0.0742  0.0827  0.2051
 2433DPPC   PO450882  16.358  27.273  22.140 -0.1648  0.0050  0.0856
 2433DPPC   GL150883  16.174  26.864  22.098 -0.0893 -0.0369 -0.0041
 2433DPPC   GL250884  16.004  27.000  22.432 -0.0708  0.0790  0.3269
 2433DPPC   C1A50885  15.827  26.628  22.000  0.0765  0.1988 -0.0163
 2433DPPC   C2A50886  15.500  26.428  21.799  0.0257 -0.0632 -0.0546
 2433DPPC   C3A50887  15.215  26.329  21.594 -0.0865  0.1568 -0.4050
 2433DPPC   C4A50888  14.830  26.454  21.426 -0.0646  0.2432  0.1407
 2433DPPC   C1B50889  15.608  26.910  22.415 -0.2114 -0.0856 -0.1171
 2433DPPC   C2B50890  15.323  27.066  22.698 -0.1976  0.3589  0.1654
 2433DPPC   C3B50891  15.039  26.876  22.891 -0.3460 -0.2122  0.0463
 2433DPPC   C4B50892  14.735  26.983  23.175  0.0186 -0.2394  0.4748
 2434DPPC   NC350893  19.579  23.218  17.523  0.0587 -0.0587 -0.4831
 2434DPPC   PO450894  19.798  22.992  17.746  0.3130 -0.0511 -0.0129
 2434DPPC   GL150895  20.082  23.350  17.448 -0.0054 -0.0782  0.0558
 2434DPPC   GL250896  20.432  23.339  17.473 -0.2373 -0.1059 -0.1397
 2434DPPC   C1A50897  20.191  23.400  16.952 -0.0013  0.2782 -0.0764
 2434DPPC   C2A50898  20.412  23.406  16.685 -0.0932  0.0724 -0.3188
 2434DPPC   C3A50899  20.675  23.350  16.381 -0.1940 -0.0840 -0.1303
 2434DPPC   C4A50900  21.022  23.449  16.163 -0.2047  0.4634  0.0283
 2434DPPC   C1B50901  20.688  23.278  17.113 -0.0939  0.1403 -0.3251
 2434DPPC   C2B50902  20.978  23.364  16.832 -0.2931 -0.2426 -0.0392
 2434DPPC   C3B50903  21.184  23.295  16.594 -0.1369  0.4877  0.2449
 2434DPPC   C4B50904  21.362  22.990  16.658  0.2165  0.1663  0.0254
 2435DPPC   NC350905  21.706  26.992   3.131 -0.0665  0.1334  0.6058
 2435DPPC   PO450906  21.775  27.311   2.815 -0.3602  0.0916 -0.0996
 2435DPPC   GL150907  22.077  27.394   2.425  0.0137 -0.0315  0.1552
 2435DPPC   GL250908  22.349  27.604   2.524 -0.1598  0.0852 -0.2696
 2435DPPC   C1A50909  22.508  27.433   2.096 -0.1173 -0.0805  0.0710
 2435DPPC   C2A50910  22.857  27.623   2.202  0.2222 -0.1430  0.0163
 2435DPPC   C3A50911  23.134  27.691   1.852 -0.1194 -0.1603 -0.1272
 2435DPPC   C4A50912  23.308  27.804   1.550  0.1624 -0.0180  0.0233
 2435DPPC   C1B50913  22.363  27.970   2.324 -0.0072 -0.1795  0.1867
 2435DPPC   C2B50914  22.745  28.119   2.166 -0.0097 -0.0184  0.1265
 2435DPPC   C3B50915  22.962  28.267   1.829 -0.1204  0.4495 -0.2476
 2435DPPC   C4B50916  22.926  28.096   1.460 -0.0512 -0.1639  0.2881
 2436DPPC   NC350917  23.939  27.882   4.824  0.0270 -0.0236 -0.0434
 2436DPPC   PO450918  23.566  27.727   5.025 -0.1289  0.0177  0.0226
 2436DPPC   GL150919  23.306  27.575   5.436  0.2149  0.1839 -0.2792
 2436DPPC   GL250920  23.503  27.301   5.688 -0.2235 -0.2804  0.1109
 2436DPPC   C1A50921  23.026  27.519   5.785  0.2633  0.0471 -0.1853
 2436DPPC   C2A50922  22.589  27.591   5.855  0.2393 -0.0499 -0.1195
 2436DPPC   C3A50923  22.329  27.965   5.876 -0.2925 -0.2044  0.1289
 2436DPPC   C4A50924  22.437  28.370   5.715 -0.1776  0.0114 -0.3272
 2436DPPC   C1B50925  23.850  27.275   6.030 -0.1122 -0.0864  0.2063
 2436DPPC   C2B50926  24.048  27.297   6.435 -0.1045 -0.1362 -0.3896
 2436DPPC   C3B50927  24.033  27.370   6.817  0.1317  0.3041 -0.1286
 2436DPPC   C4B50928  24.156  27.544   7.188 -0.4661 -0.1651 -0.2870
 2437DPPC   NC350929  21.418  25.149   0.100 -0.1447  0.0886  0.3485
 2437DPPC   PO450930  21.212  25.549   0.083  0.0984 -0.0450  0.0977
 2437DPPC   GL150931  21.440  25.962   0.207 -0.1671 -0.1443  0.2085
 2437DPPC   GL250932  21.375  26.118   0.520  0.0810  0.0195 -0.3236
 2437DPPC   C1A50933  21.616  26.461   0.299 -0.2246  0.2540 -0.3987
 2437DPPC   C2A50934  22.002  26.802   0.300  0.1038  0.0570 -0.3017
 2437DPPC   C3A50935  22.262  27.179   0.157  0.2218 -0.0600 -0.0424
 2437DPPC   C4A50936  22.555  27.150  26.856  0.4719  0.1804  0.3579
 2437DPPC   C1B50937  21.586  26.316   0.792  0.0386 -0.0024  0.1378
 2437DPPC   C2B50938  21.941  26.511   0.731  0.1977  0.2338  0.2647
 2437DPPC   C3B50939  22.386  26.604   0.553 -0.0140  0.3663  0.1563
 2437DPPC   C4B50940  22.576  26.617   0.142 -0.0225  0.0367  0.1124
 2438DPPC   NC350941  19.084  27.242  25.915 -0.1787 -0.1886 -0.0706
 2438DPPC   PO450942  19.246  26.999  25.790  0.0599 -0.0151  0.1065
 2438DPPC   GL150943  19.415  27.251  25.484 -0.0890 -0.1082  0.1971
 2438DPPC   GL250944  19.198  27.523  25.479 -0.2849 -0.2355 -0.1119
 2438DPPC   C1A50945  19.529  27.255  25.091 -0.0119 -0.0125 -0.1770
 2438DPPC   C2A50946  19.573  27.602  24.838  0.2158  0.0040 -0.2703
 2438DPPC   C3A50947  19.738  28.025  24.818 -0.4214 -0.1356  0.1090
 2438DPPC   C4A50948  19.714  28.451  24.780 -0.0739  0.0672 -0.1768
 2438DPPC   C1B50949  19.427  27.856  25.350 -0.1656 -0.3329  0.1927
 2438DPPC   C2B50950  19.653  28.165  25.347 -0.1890 -0.2406  0.1870
 2438DPPC   C3B50951  19.959  28.501  25.215  0.0926  0.1782  0.0738
 2438DPPC   C4B50952  20.394  28.655  24.994 -0.1576 -0.0897 -0.0240
 2439DPPC   NC350953  22.518  26.079   2.637 -0.0003  0.2315 -0.2125
 2439DPPC   PO450954  22.453  26.467   2.921  0.0386 -0.1059 -0.1805
 2439DPPC   GL150955  22.704  26.552   2.601 -0.2540 -0.2136  0.0151
 2439DPPC   GL250956  22.483  26.886   2.524 -0.0375 -0.0917 -0.1835
 2439DPPC   C1A50957  23.108  26.553   2.393 -0.1631  0.0917 -0.1900
 2439DPPC   C2A50958  23.380  26.702   1.985 -0.1950 -0.3695 -0.1327
 2439DPPC   C3A50959  23.775  26.804   1.774  0.0694  0.4261  0.1913
 2439DPPC   C4A50960  24.166  26.686   1.477  0.0147 -0.2358 -0.1704
 2439DPPC   C1B50961  22.945  27.072   2.428  0.0602 -0.1954  0.3703
 2439DPPC   C2B50962  23.201  27.167   2.060  0.1093 -0.0736  0.0394
 2439DPPC   C3B50963  23.522  27.318   1.861  0.1399 -0.1009  0.3918
 2439DPPC   C4B50964  23.795  27.124   1.449  0.0655 -0.0192 -0.1421
 2440DPPC   NC350965  21.025  22.532  23.473  0.0896 -0.0568 -0.1105
 2440DPPC   PO450966  21.055  22.727  23.116  0.0343 -0.0532 -0.3392
 2440DPPC   GL150967  21.380  22.772  22.976 -0.2980  0.2430 -0.3346
 2440DPPC   GL250968  21.321  23.091  22.905  0.0630  0.0069 -0.0886
 2440DPPC   C1A50969  21.806  22.842  22.940  0.2017 -0.0502 -0.0916
 2440DPPC   C2A50970  22.176  23.044  22.874  0.0097  0.0074 -0.0637
 2440DPPC   C3A50971  22.561  23.218  22.852  0.1903  0.0591 -0.2950
 2440DPPC   C4A50972  22.712  23.454  22.616 -0.1147  0.3528 -0.1150
 2440DPPC   C1B50973  21.594  23.175  23.332  0.1454  0.2070 -0.1013
 2440DPPC   C2B50974  21.860  23.389  23.565 -0.0588 -0.0259 -0.1606
 2440DPPC   C3B50975  22.067  23.314  23.960  0.0485  0.1100  0.2895
 2440DPPC   C4B50976  21.967  23.375  24.348 -0.0254  0.0929  0.0234
 2441DPPC   NC350977  24.081  22.646   2.931 -0.3566 -0.2368  0.0125
 2441DPPC   PO450978  24.121  22.920   3.301  0.3368  0.0199  0.1416
 2441DPPC   GL150979  23.914  22.478   3.436  0.2033 -0.2487  0.1858
 2441DPPC   GL250980  23.726  22.356   3.091  0.0071 -0.0311  0.0846
 2441DPPC   C1A50981  23.584  22.413   3.561 -0.1423  0.1641  0.3818
 2441DPPC   C2A50982  23.417  22.009   3.605 -0.2807  0.1714  0.0492
 2441DPPC   C3A50983  23.318  21.685   3.842 -0.1001  0.0192  0.2606
 2441DPPC   C4A50984  23.191  21.504   4.148  0.0447 -0.0996 -0.1662
 2441DPPC   C1B50985  23.396  22.049   3.004 -0.1532  0.0624 -0.0683
 2441DPPC   C2B50986  23.213  21.735   3.119 -0.2402 -0.1504 -0.0861
 2441DPPC   C3B50987  23.217  21.374   2.869 -0.0009 -0.1786  0.0932
 2441DPPC   C4B50988  23.562  21.163   2.765  0.0650  0.1352  0.0199
 2442DPPC   NC350989  16.893  26.608  22.988  0.1874  0.2270 -0.0290
 2442DPPC   PO450990  16.827  26.642  22.508 -0.1673  0.0490  0.1138
 2442DPPC   GL150991  16.358  26.672  22.580 -0.0167  0.1149  0.2242
 2442DPPC   GL250992  16.377  26.590  22.887  0.0018  0.2170  0.1302
 2442DPPC   C1A50993  16.018  26.502  22.491  0.0724 -0.0654  0.1050
 2442DPPC   C2A50994  15.580  26.368  22.498  0.2060  0.0852  0.0043
 2442DPPC   C3A50995  15.198  26.423  22.252 -0.0466 -0.2304 -0.2235
 2442DPPC   C4A50996  14.882  26.496  21.936  0.1907  0.3240 -0.0895
 2442DPPC   C1B50997  15.988  26.567  23.234  0.1732  0.4048  0.3806
 2442DPPC   C2B50998  15.642  26.464  23.515  0.2118 -0.0620 -0.0707
 2442DPPC   C3B50999  15.214  26.407  23.402  0.1025 -0.2295 -0.1301
 2442DPPC   C4B51000  14.801  26.496  23.233  0.2237 -0.1325  0.3583
 2443DPPC   NC351001  27.530  23.383   3.028  0.0942 -0.2059 -0.1172
 2443DPPC   PO451002  27.878  23.273   2.869 -0.0944 -0.1309  0.0828
 2443DPPC   GL151003  28.284  23.458   2.714 -0.2259 -0.1899 -0.2300
 2443DPPC   GL251004  28.495  23.571   3.020  0.1797  0.0444  0.1248
 2443DPPC   C1A51005  28.628  23.570   2.425 -0.0706 -0.1925  0.0258
 2443DPPC   C2A51006  29.034  23.459   2.186  0.2183 -0.1204  0.0602
 2443DPPC   C3A51007  29.438  23.608   1.992  0.1111 -0.3124 -0.0093
 2443DPPC   C4A51008  29.747  23.435   1.752  0.1908 -0.0267  0.1498
 2443DPPC   C1B51009  28.853  23.397   3.181 -0.2530 -0.1044 -0.0212
 2443DPPC   C2B51010  29.231  23.504   3.187  0.3236  0.1755  0.1115
 2443DPPC   C3B51011  29.630  23.561   3.183 -0.4573 -0.0345 -0.0871
 2443DPPC   C4B51012  30.034  23.423   3.235 -0.1130 -0.2396 -0.2366
 2444DPPC   NC351013  21.705  19.851  22.431 -0.4109 -0.0776  0.0988
 2444DPPC   PO451014  21.382  19.868  22.695  0.1130 -0.0676 -0.0748
 2444DPPC   GL151015  21.098  19.601  22.860 -0.1979  0.0443 -0.1968
 2444DPPC   GL251016  21.191  19.442  23.096  0.1428  0.2365  0.1272
 2444DPPC   C1A51017  20.836  19.202  22.836 -0.1033 -0.0995  0.1137
 2444DPPC   C2A51018  20.600  18.856  22.719  0.1310  0.1942  0.0636
 2444DPPC   C3A51019  20.263  18.871  22.596  0.0224  0.0020  0.0199
 2444DPPC   C4A51020  19.948  18.471  22.603 -0.0074  0.1247  0.0115
 2444DPPC   C1B51021  21.041  19.173  23.351  0.0351  0.0187 -0.0989
 2444DPPC   C2B51022  20.615  18.889  23.404 -0.0779 -0.0398  0.2685
 2444DPPC   C3B51023  20.138  18.750  23.353  0.0294 -0.2220  0.3303
 2444DPPC   C4B51024  19.770  18.525  23.279 -0.1450  0.2498  0.0316
 2445DPPC   NC351025  25.985  27.247   4.997  0.1573  0.0767 -0.0275
 2445DPPC   PO451026  25.543  27.301   4.954 -0.3719  0.0163  0.0581
 2445DPPC   GL151027  25.668  27.692   5.038  0.0193  0.1989  0.4468
 2445DPPC   GL251028  25.827  27.612   5.339 -0.0448 -0.2705 -0.0450
 2445DPPC   C1A51029  25.748  28.125   5.148 -0.2716 -0.1699  0.1692
 2445DPPC   C2A51030  25.879  28.133   5.525 -0.4125 -0.0354 -0.0230
 2445DPPC   C3A51031  25.921  28.076   6.005 -0.1550  0.2627 -0.0730
 2445DPPC   C4A51032  25.919  27.982   6.428 -0.2153 -0.2520  0.1071
 2445DPPC   C1B51033  26.326  27.737   5.296 -0.0731  0.0006  0.2168
 2445DPPC   C2B51034  26.713  27.669   4.982  0.2334  0.2893 -0.0603
 2445DPPC   C3B51035  26.840  27.349   4.964 -0.1092 -0.1890 -0.4411
 2445DPPC   C4B51036  26.941  27.187   4.608 -0.3477  0.0618  0.0354
 2446DPPC   NC351037  17.886  24.041  20.908  0.0971 -0.2542 -0.3127
 2446DPPC   PO451038  17.678  24.334  21.291 -0.0593  0.4454  0.2706
 2446DPPC   GL151039  17.444  24.371  20.944  0.0554 -0.0255 -0.1152
 2446DPPC   GL251040  17.411  24.110  20.773 -0.1413 -0.2509 -0.1843
 2446DPPC   C1A51041  16.961  24.412  20.937  0.1110 -0.0275  0.0045
 2446DPPC   C2A51042  16.640  24.651  20.687  0.1994  0.2172 -0.1378
 2446DPPC   C3A51043  16.412  24.795  20.236 -0.3542 -0.4099 -0.0042
 2446DPPC   C4A51044  16.340  24.637  19.802 -0.0959  0.0857  0.3358
 2446DPPC   C1B51045  17.141  23.938  20.712 -0.0306 -0.1153  0.0940
 2446DPPC   C2B51046  16.874  23.714  20.348  0.1977 -0.2440 -0.1523
 2446DPPC   C3B51047  16.892  23.413  19.949 -0.0612 -0.1355 -0.1638
 2446DPPC   C4B51048  16.725  23.212  19.636 -0.0768 -0.2936  0.0981
 2447DPPC   NC351049  25.012  21.960   0.656  0.0283 -0.3113  0.1560
 2447DPPC   PO451050  25.035  22.468   0.843  0.2092 -0.1849 -0.2482
 2447DPPC   GL151051  25.080  22.733   0.595 -0.2206  0.2074  0.3348
 2447DPPC   GL251052  24.868  23.015   0.645 -0.1152 -0.0108  0.1675
 2447DPPC   C1A51053  25.491  22.953   0.255  0.1155 -0.1751  0.3311
 2447DPPC   C2A51054  25.845  23.022  26.873 -0.1312 -0.0354  0.0772
 2447DPPC   C3A51055  25.986  23.019  26.512 -0.3687  0.2171  0.1392
 2447DPPC   C4A51056  26.375  23.190  26.245 -0.1200 -0.1737 -0.2130
 2447DPPC   C1B51057  25.117  23.378   0.388 -0.1309  0.0097  0.0394
 2447DPPC   C2B51058  25.352  23.509   0.033 -0.1908  0.0288 -0.1513
 2447DPPC   C3B51059  25.489  23.935  26.800  0.2507 -0.2907  0.0976
 2447DPPC   C4B51060  25.681  24.102  26.527 -0.0202 -0.4124  0.2229
 2448DPPC   NC351061  25.152  26.352   4.609 -0.0646 -0.1235  0.1044
 2448DPPC   PO451062  25.599  26.335   4.551 -0.2848 -0.2697 -0.3791
 2448DPPC   GL151063  25.879  26.624   4.268 -0.0475 -0.1805 -0.0899
 2448DPPC   GL251064  26.062  26.649   4.059  0.1133 -0.0819  0.2917
 2448DPPC   C1A51065  25.564  26.900   3.999  0.2400  0.2003 -0.0001
 2448DPPC   C2A51066  25.368  27.138   3.675  0.1994 -0.2211  0.0419
 2448DPPC   C3A51067  25.453  27.225   3.184 -0.2534  0.2985 -0.1606
 2448DPPC   C4A51068  25.764  27.294   2.834  0.0173  0.2827  0.2441
 2448DPPC   C1B51069  26.139  27.057   4.069  0.3625  0.2921  0.2878
 2448DPPC   C2B51070  25.928  27.356   3.825 -0.2147  0.1054 -0.1323
 2448DPPC   C3B51071  25.565  27.593   3.577  0.0129  0.0613  0.1523
 2448DPPC   C4B51072  25.348  27.682   3.228  0.1864  0.0346  0.1724
 2449DPPC   NC351073  26.452  20.197  25.347 -0.1191  0.2817 -0.1503
 2449DPPC   PO451074  26.413  20.409  25.838  0.5032 -0.0906 -0.1498
 2449DPPC   GL151075  26.910  20.226  25.714 -0.0608  0.1231  0.1919
 2449DPPC   GL251076  27.064  20.166  25.465 -0.1518 -0.0831  0.3173
 2449DPPC   C1A51077  27.280  20.454  25.806 -0.1381 -0.1175 -0.3017
 2449DPPC   C2A51078  27.685  20.701  25.786 -0.2121  0.1499 -0.1336
 2449DPPC   C3A51079  27.868  21.044  25.692 -0.1720  0.0169  0.4419
 2449DPPC   C4A51080  27.892  21.457  25.670  0.1598 -0.0733  0.0214
 2449DPPC   C1B51081  27.400  19.865  25.385 -0.1856 -0.0560 -0.0382
 2449DPPC   C2B51082  27.883  19.752  25.509 -0.2990 -0.1237  0.1377
 2449DPPC   C3B51083  28.237  19.959  25.555  0.0356 -0.1516 -0.0919
 2449DPPC   C4B51084  28.443  19.872  25.143 -0.0499 -0.2076  0.1151
 2450DPPC   NC351085  21.591  21.422  21.640 -0.0193 -0.0244  0.2681
 2450DPPC   PO451086  22.009  21.237  21.727  0.1288 -0.0527  0.0512
 2450DPPC   GL151087  22.340  21.362  21.960  0.3584 -0.2409 -0.2651
 2450DPPC   GL251088  22.508  21.430  22.231 -0.3362 -0.0347 -0.1303
 2450DPPC   C1A51089  22.472  21.843  22.012 -0.1589  0.2800 -0.1163
 2450DPPC   C2A51090  22.867  22.045  21.944 -0.1113  0.1380 -0.0357
 2450DPPC   C3A51091  23.113  22.409  21.936  0.1732 -0.2984  0.1289
 2450DPPC   C4A51092  23.357  22.754  21.906  0.1220 -0.2277 -0.1494
 2450DPPC   C1B51093  22.944  21.699  22.314 -0.2456  0.1417 -0.0345
 2450DPPC   C2B51094  23.300  22.079  22.260  0.0917 -0.0417  0.3218
 2450DPPC   C3B51095  23.647  22.348  22.161  0.0479 -0.1959  0.4077
 2450DPPC   C4B51096  23.813  22.711  22.285  0.0172 -0.0607  0.0263
 2451DPPC   NC351097  23.169  20.096  25.478  0.1612  0.1612 -0.1520
 2451DPPC   PO451098  23.155  20.503  25.829  0.3427  0.1411 -0.1118
 2451DPPC   GL151099  22.887  20.186  25.930 -0.0657  0.0926  0.1726
 2451DPPC   GL251100  22.573  20.018  25.932  0.2967  0.0048  0.1738
 2451DPPC   C1A51101  22.863  19.627  25.877 -0.0817 -0.2760 -0.1555
 2451DPPC   C2A51102  22.648  19.180  25.930  0.1734  0.0430  0.0881
 2451DPPC   C3A51103  22.760  18.779  25.924 -0.0705  0.1719  0.1538
 2451DPPC   C4A51104  22.866  18.208  25.937  0.1376  0.2000  0.4227
 2451DPPC   C1B51105  22.367  19.624  26.171  0.0331  0.1536  0.3210
 2451DPPC   C2B51106  22.378  19.260  26.377 -0.1770  0.0039  0.0369
 2451DPPC   C3B51107  22.350  19.119  26.756 -0.2394  0.0126 -0.0388
 2451DPPC   C4B51108  22.337  19.029   0.265  0.1608  0.0049  0.1363
 2452DPPC   NC351109  19.456  27.297   1.826 -0.1339  0.1783  0.4938
 2452DPPC   PO451110  19.268  27.519   2.230 -0.0213 -0.2076  0.0880
 2452DPPC   GL151111  19.127  27.384   2.635  0.1729  0.1060 -0.1334
 2452DPPC   GL251112  19.000  27.066   2.663  0.8030  0.0910  0.0610
 2452DPPC   C1A51113  18.871  27.367   3.036  0.3288 -0.0269 -0.0957
 2452DPPC   C2A51114  18.619  27.127   3.311 -0.3455 -0.1885 -0.2392
 2452DPPC   C3A51115  18.292  26.894   3.387  0.0933 -0.0731  0.2159
 2452DPPC   C4A51116  17.876  26.788   3.459  0.0265  0.0007  0.0625
 2452DPPC   C1B51117  18.573  26.927   2.728 -0.1215  0.2030  0.0421
 2452DPPC   C2B51118  18.147  26.812   2.832  0.2267 -0.1819 -0.1446
 2452DPPC   C3B51119  17.820  26.791   2.506 -0.0635 -0.0726 -0.5572
 2452DPPC   C4B51120  17.451  27.029   2.458 -0.0935 -0.0033 -0.0466
 2453DPPC   NC351121  20.872  22.116  19.091  0.2101 -0.0512 -0.0430
 2453DPPC   PO451122  21.156  21.996  18.828 -0.0073  0.0955  0.4281
 2453DPPC   GL151123  21.336  21.866  18.390  0.1852 -0.1010 -0.2743
 2453DPPC   GL251124  21.699  21.804  18.440  0.2481  0.1300  0.0393
 2453DPPC   C1A51125  21.472  21.777  17.967 -0.0346 -0.2078 -0.0649
 2453DPPC   C2A51126  21.644  21.795  17.536  0.1470  0.2670 -0.2543
 2453DPPC   C3A51127  21.821  21.539  17.141 -0.0497  0.0051  0.0146
 2453DPPC   C4A51128  21.954  21.273  16.941 -0.0541 -0.1638  0.2015
 2453DPPC   C1B51129  22.008  21.912  18.061  0.1909 -0.1808 -0.2413
 2453DPPC   C2B51130  21.980  22.150  17.643  0.2150  0.0611  0.0023
 2453DPPC   C3B51131  21.743  22.248  17.242 -0.1267  0.1039  0.0842
 2453DPPC   C4B51132  21.355  22.097  17.005  0.1370 -0.0485 -0.1585
 2454DPPC   NC351133  23.650  20.972   0.462 -0.1333 -0.0888 -0.1875
 2454DPPC   PO451134  23.535  21.099   0.872  0.1013 -0.0438 -0.0034
 2454DPPC   GL151135  23.434  20.659   1.010 -0.3165 -0.0345  0.1476
 2454DPPC   GL251136  23.636  20.555   1.179 -0.0412  0.0558 -0.2805
 2454DPPC   C1A51137  23.130  20.398   1.025 -0.1474  0.1419 -0.0594
 2454DPPC   C2A51138  23.123  20.101   0.790  0.2298 -0.0869 -0.0061
 2454DPPC   C3A51139  22.741  19.696   0.773 -0.0953 -0.0686  0.3223
 2454DPPC   C4A51140  22.496  19.617   1.199  0.1451  0.1707  0.0571
 2454DPPC   C1B51141  23.500  20.344   1.475  0.1973  0.0216  0.1140
 2454DPPC   C2B51142  23.119  20.166   1.751  0.3855 -0.0694 -0.0363
 2454DPPC   C3B51143  22.742  19.745   1.831 -0.0023 -0.2370 -0.0240
 2454DPPC   C4B51144  22.627  19.367   1.639  0.1985  0.0981 -0.4362
 2455DPPC   NC351145  19.731  26.406  26.413 -0.0650  0.2679  0.0262
 2455DPPC   PO451146  19.821  26.336  25.995 -0.4568  0.0994 -0.1490
 2455DPPC   GL151147  20.130  26.612  25.952 -0.2294 -0.1671 -0.0426
 2455DPPC   GL251148  20.489  26.493  26.005  0.2432  0.0226  0.1026
 2455DPPC   C1A51149  20.275  26.934  25.912  0.1328  0.2349  0.3610
 2455DPPC   C2A51150  20.354  27.256  25.650 -0.1259  0.2420 -0.0870
 2455DPPC   C3A51151  20.303  27.628  25.615 -0.2615 -0.0278 -0.2008
 2455DPPC   C4A51152  20.560  27.996  25.743 -0.1308  0.5371 -0.2798
 2455DPPC   C1B51153  20.770  26.836  25.937 -0.3286 -0.0688  0.1051
 2455DPPC   C2B51154  20.870  27.199  25.740  0.0031  0.2138 -0.3128
 2455DPPC   C3B51155  21.219  27.436  25.885 -0.0282  0.1596 -0.0263
 2455DPPC   C4B51156  21.704  27.563  25.887 -0.0932  0.1239  0.3766
 2456DPPC   NC351157  24.178  21.519  26.340 -0.1078  0.0096 -0.2583
 2456DPPC   PO451158  24.405  21.228  26.132 -0.0029  0.0381 -0.0740
 2456DPPC   GL151159  24.553  21.717  25.967  0.0093 -0.0715 -0.3163
 2456DPPC   GL251160  24.581  21.910  26.243 -0.2034 -0.0130 -0.0745
 2456DPPC   C1A51161  24.486  21.943  25.697  0.4272 -0.1128  0.1389
 2456DPPC   C2A51162  24.688  22.235  25.343 -0.1137 -0.0077  0.2938
 2456DPPC   C3A51163  24.870  22.341  24.970 -0.0435  0.2216 -0.0497
 2456DPPC   C4A51164  24.976  22.327  24.480  0.0961  0.2827 -0.0305
 2456DPPC   C1B51165  24.837  22.234  25.828 -0.0575 -0.2197 -0.1765
 2456DPPC   C2B51166  24.984  22.660  25.882 -0.0969 -0.2010 -0.1640
 2456DPPC   C3B51167  25.143  23.088  25.744 -0.1972  0.0466  0.2372
 2456DPPC   C4B51168  25.417  23.419  25.757  0.0604 -0.0946  0.0911
 2457DPPC   NC351169  26.463  23.508   2.303  0.1590 -0.1639 -0.1135
 2457DPPC   PO451170  26.554  23.065   2.247  0.0250  0.2907 -0.1485
 2457DPPC   GL151171  26.798  23.321   1.971 -0.3056 -0.0269  0.1454
 2457DPPC   GL251172  26.512  23.378   1.730  0.0691 -0.1728 -0.0359
 2457DPPC   C1A51173  27.018  23.708   1.882 -0.2499 -0.0206  0.2485
 2457DPPC   C2A51174  27.454  23.896   2.013 -0.1602  0.0639  0.1446
 2457DPPC   C3A51175  27.840  24.193   2.091 -0.0237 -0.1078 -0.1240
 2457DPPC   C4A51176  28.045  24.478   1.777 -0.0248 -0.0068 -0.1636
 2457DPPC   C1B51177  26.903  23.505   1.425 -0.0389  0.1667  0.1267
 2457DPPC   C2B51178  27.068  23.728   1.116  0.0775 -0.1560  0.0318
 2457DPPC   C3B51179  27.290  23.863   0.743  0.0958 -0.1705 -0.0972
 2457DPPC   C4B51180  27.526  24.078   0.417 -0.0026 -0.2155  0.1365
 2458DPPC   NC351181  17.857  25.017  23.177  0.0138 -0.2681  0.0434
 2458DPPC   PO451182  17.491  24.797  22.980 -0.3455  0.0522 -0.0383
 2458DPPC   GL151183  17.033  24.854  23.222 -0.1001 -0.2726 -0.0898
 2458DPPC   GL251184  17.035  24.718  23.548  0.2265  0.4342  0.0984
 2458DPPC   C1A51185  16.626  24.715  23.161  0.2989 -0.2227 -0.2164
 2458DPPC   C2A51186  16.340  24.336  23.040 -0.0928  0.0268 -0.0125
 2458DPPC   C3A51187  15.940  24.198  22.861 -0.2017  0.2551 -0.0235
 2458DPPC   C4A51188  15.513  24.139  22.663  0.0042  0.1057 -0.1040
 2458DPPC   C1B51189  16.673  24.714  23.692 -0.1044  0.1462 -0.3958
 2458DPPC   C2B51190  16.310  24.651  23.523 -0.1248  0.0410  0.1852
 2458DPPC   C3B51191  15.932  24.543  23.338 -0.1348 -0.1167 -0.0014
 2458DPPC   C4B51192  15.664  24.518  23.041  0.4912 -0.0179 -0.1625
 2459DPPC   NC351193  23.827  21.208  25.104 -0.0046 -0.0428  0.4323
 2459DPPC   PO451194  23.639  21.253  24.773  0.0625  0.0619 -0.0618
 2459DPPC   GL151195  23.817  21.438  24.413 -0.2294 -0.0383  0.1692
 2459DPPC   GL251196  24.145  21.328  24.291  0.1864 -0.2620  0.0416
 2459DPPC   C1A51197  23.767  21.880  24.295 -0.0399  0.0492 -0.0133
 2459DPPC   C2A51198  23.993  22.266  24.149  0.1498 -0.0868 -0.0022
 2459DPPC   C3A51199  24.101  22.639  23.807 -0.1434  0.0485  0.1701
 2459DPPC   C4A51200  24.389  22.827  23.589 -0.1003  0.1843 -0.0775
 2459DPPC   C1B51201  24.473  21.433  23.933  0.3225  0.0639 -0.2356
 2459DPPC   C2B51202  24.916  21.658  23.929 -0.0493 -0.1238 -0.0419
 2459DPPC   C3B51203  25.354  21.731  23.851  0.0072  0.0007 -0.1310
 2459DPPC   C4B51204  25.816  21.790  23.897  0.1316  0.1357  0.2395
 2460DPPC   NC351205  25.277  18.728  23.891  0.1794 -0.2353  0.2893
 2460DPPC   PO451206  25.763  18.734  24.040  0.0343 -0.3002 -0.2569
 2460DPPC   GL151207  26.197  18.529  24.169 -0.4616 -0.3618 -0.1320
 2460DPPC   GL251208  26.408  18.636  24.463 -0.1736  0.1586  0.0335
 2460DPPC   C1A51209  26.641  18.362  24.066  0.2229 -0.2314  0.0556
 2460DPPC   C2A51210  26.997  18.157  24.137 -0.3808  0.2199 -0.0674
 2460DPPC   C3A51211  27.254  18.279  24.463  0.2842  0.0169 -0.0119
 2460DPPC   C4A51212  27.426  18.389  24.846 -0.0730 -0.1391  0.1700
 2460DPPC   C1B51213  26.630  18.338  24.612 -0.2818  0.1910  0.0037
 2460DPPC   C2B51214  26.965  18.020  24.699  0.1823 -0.0929 -0.2282
 2460DPPC   C3B51215  27.330  18.006  25.061  0.1612 -0.0888 -0.0819
 2460DPPC   C4B51216  27.703  17.891  25.214 -0.1025 -0.0779 -0.2152
 2461DPPC   NC351217  27.990  21.549   2.193  0.1224 -0.1873  0.2991
 2461DPPC   PO451218  28.330  21.259   2.370 -0.3512  0.2040  0.0336
 2461DPPC   GL151219  28.472  21.641   2.215  0.0991  0.0838 -0.1821
 2461DPPC   GL251220  28.288  21.850   2.498  0.0517  0.0927 -0.2234
 2461DPPC   C1A51221  28.942  21.760   2.146  0.0442 -0.1283  0.0017
 2461DPPC   C2A51222  29.274  21.860   2.073 -0.1541  0.2678  0.1925
 2461DPPC   C3A51223  29.631  22.137   2.115 -0.2421 -0.2330  0.1119
 2461DPPC   C4A51224  29.932  22.420   2.303  0.0749 -0.4381  0.5253
 2461DPPC   C1B51225  28.734  22.084   2.457 -0.2841  0.4923 -0.0954
 2461DPPC   C2B51226  28.995  22.277   2.247  0.0064  0.0211  0.3130
 2461DPPC   C3B51227  29.353  22.456   2.299 -0.1546  0.3134  0.1676
 2461DPPC   C4B51228  29.575  22.767   2.488  0.3807  0.0686  0.1708
 2462DPPC   NC351229  20.679  27.632   1.551 -0.0119 -0.0570  0.1133
 2462DPPC   PO451230  20.577  28.078   1.738  0.0810 -0.1909 -0.2385
 2462DPPC   GL151231  20.906  28.263   1.452  0.1031 -0.0256 -0.0965
 2462DPPC   GL251232  21.049  28.484   1.572  0.2353  0.1378  0.1188
 2462DPPC   C1A51233  21.187  28.226   1.111 -0.1038 -0.1441 -0.1677
 2462DPPC   C2A51234  21.337  28.139   0.767 -0.0664  0.0967 -0.0923
 2462DPPC   C3A51235  21.604  28.401   0.505 -0.1455 -0.0182 -0.1644
 2462DPPC   C4A51236  21.764  28.843   0.581 -0.4008  0.0357 -0.1448
 2462DPPC   C1B51237  21.143  28.901   1.859 -0.2194  0.1596 -0.4107
 2462DPPC   C2B51238  21.159  29.418   1.859 -0.1131 -0.1652  0.2065
 2462DPPC   C3B51239  21.460  29.759   1.888 -0.0581 -0.0140  0.2594
 2462DPPC   C4B51240  21.492  30.038   2.174  0.2251  0.0664  0.0638
 2463DPPC   NC351241  20.594  22.503  17.722 -0.0510 -0.2848 -0.0482
 2463DPPC   PO451242  20.354  22.162  17.829 -0.1178  0.0451 -0.2591
 2463DPPC   GL151243  20.314  21.958  17.439  0.5074 -0.1729 -0.0816
 2463DPPC   GL251244  20.548  22.166  17.286 -0.3067  0.2295 -0.0121
 2463DPPC   C1A51245  20.392  21.714  17.017 -0.0022 -0.0933  0.0269
 2463DPPC   C2A51246  20.594  21.430  16.628  0.3584  0.4045 -0.1053
 2463DPPC   C3A51247  20.897  21.070  16.461 -0.0059 -0.1211  0.3726
 2463DPPC   C4A51248  20.846  20.686  16.184  0.1210  0.0544  0.0699
 2463DPPC   C1B51249  20.849  21.887  17.206 -0.0461  0.1290  0.1572
 2463DPPC   C2B51250  20.852  21.438  17.147 -0.0989 -0.1818  0.0885
 2463DPPC   C3B51251  20.770  21.079  16.972  0.3158  0.0784  0.4212
 2463DPPC   C4B51252  20.825  20.712  16.780  0.3101 -0.3183  0.0912
 2464DPPC   NC351253  17.080  25.930  23.523  0.1302  0.1761  0.0743
 2464DPPC   PO451254  17.322  25.581  23.615 -0.0569 -0.1736  0.3449
 2464DPPC   GL151255  16.879  25.476  23.781 -0.2341  0.0051  0.0295
 2464DPPC   GL251256  16.817  25.245  23.494  0.1445 -0.0438  0.0329
 2464DPPC   C1A51257  16.585  25.169  23.945 -0.2511  0.1711 -0.1687
 2464DPPC   C2A51258  16.332  24.886  24.047  0.2474  0.4725 -0.0999
 2464DPPC   C3A51259  15.991  24.649  24.055  0.0066  0.0021  0.1606
 2464DPPC   C4A51260  15.864  24.163  24.239 -0.0061  0.0047  0.7028
 2464DPPC   C1B51261  16.468  25.109  23.433  0.1007 -0.0736  0.0728
 2464DPPC   C2B51262  16.074  25.054  23.394  0.1642 -0.2238 -0.2052
 2464DPPC   C3B51263  15.673  25.032  23.584  0.0908 -0.2215 -0.1857
 2464DPPC   C4B51264  15.521  24.940  23.880 -0.0734 -0.0214 -0.1128
 2465DPPC   NC351265  24.245  22.403   0.515  0.0880 -0.1485 -0.2065
 2465DPPC   PO451266  24.413  21.960   0.244 -0.0915 -0.3670 -0.3691
 2465DPPC   GL151267  24.507  22.163  26.737 -0.0503 -0.1416 -0.2168
 2465DPPC   GL251268  24.532  22.448  26.847 -0.0799 -0.1204  0.1525
 2465DPPC   C1A51269  24.812  22.361  26.325 -0.2666  0.1305 -0.0738
 2465DPPC   C2A51270  25.120  22.549  26.329 -0.0502  0.0030  0.1334
 2465DPPC   C3A51271  25.434  22.757  26.132 -0.1426  0.1260 -0.0817
 2465DPPC   C4A51272  25.636  23.036  25.928  0.1869  0.0411  0.0940
 2465DPPC   C1B51273  24.806  22.768  26.596  0.3465  0.0953  0.0124
 2465DPPC   C2B51274  25.028  23.023  26.273 -0.0066 -0.1678 -0.1865
 2465DPPC   C3B51275  25.020  23.353  26.200  0.1086  0.1163  0.2077
 2465DPPC   C4B51276  25.228  23.853  26.379 -0.2245  0.2170  0.0049
 2466DPPC   NC351277  17.029  26.552  19.608 -0.2392  0.0898  0.1691
 2466DPPC   PO451278  17.242  26.246  19.365 -0.5617  0.0416 -0.4693
 2466DPPC   GL151279  17.306  26.194  18.938  0.1041 -0.0808 -0.2836
 2466DPPC   GL251280  17.025  25.986  18.856 -0.0135  0.0936  0.0709
 2466DPPC   C1A51281  17.407  26.304  18.484  0.0660 -0.2584 -0.0605
 2466DPPC   C2A51282  17.716  26.236  18.076  0.1930 -0.0193  0.2392
 2466DPPC   C3A51283  17.801  26.527  17.775 -0.0270  0.0800 -0.0484
 2466DPPC   C4A51284  17.494  26.734  17.695  0.0000  0.0669  0.0852
 2466DPPC   C1B51285  16.654  26.216  18.724 -0.0950 -0.0028 -0.1072
 2466DPPC   C2B51286  16.265  26.194  18.380  0.0213  0.0876  0.2225
 2466DPPC   C3B51287  16.129  26.038  18.016 -0.2113 -0.2225  0.0615
 2466DPPC   C4B51288  15.903  25.658  17.685  0.0787 -0.0016 -0.2378
 2467DPPC   NC351289  22.445  21.048  24.825  0.2456 -0.2310  0.4282
 2467DPPC   PO451290  22.444  20.628  25.064  0.1095 -0.2829  0.1393
 2467DPPC   GL151291  22.246  20.273  25.287 -0.0460  0.1804 -0.3404
 2467DPPC   GL251292  22.280  20.071  25.063  0.2137  0.0728 -0.4591
 2467DPPC   C1A51293  21.996  20.174  25.646  0.1580  0.0393  0.2253
 2467DPPC   C2A51294  21.849  19.850  25.897  0.1653 -0.0327 -0.0624
 2467DPPC   C3A51295  21.655  19.570  26.059 -0.1379  0.1103 -0.2076
 2467DPPC   C4A51296  21.480  19.388  26.464  0.3102 -0.2584 -0.0048
 2467DPPC   C1B51297  21.917  19.882  25.148  0.2651  0.1156 -0.1731
 2467DPPC   C2B51298  21.910  19.561  25.405 -0.0407 -0.2658  0.0530
 2467DPPC   C3B51299  22.021  19.377  25.762  0.1493  0.0349  0.1178
 2467DPPC   C4B51300  22.117  19.080  25.949  0.0692 -0.0909 -0.2283
 2468DPPC   NC351301  23.666  27.554   3.500 -0.2400  0.3124  0.0188
 2468DPPC   PO451302  23.383  27.799   3.634  0.1286  0.2027  0.2871
 2468DPPC   GL151303  23.658  28.164   3.563 -0.1315  0.1228 -0.2860
 2468DPPC   GL251304  23.850  28.026   3.376  0.2301 -0.1215  0.0926
 2468DPPC   C1A51305  23.986  28.466   3.548  0.0483  0.0828  0.2613
 2468DPPC   C2A51306  24.303  28.801   3.493 -0.0138  0.0857 -0.1371
 2468DPPC   C3A51307  24.648  28.831   3.258 -0.0789 -0.1222 -0.0021
 2468DPPC   C4A51308  25.137  28.829   3.258  0.0218  0.1480  0.0988
 2468DPPC   C1B51309  23.680  28.389   3.129  0.2002  0.2108 -0.2748
 2468DPPC   C2B51310  23.424  28.789   3.008  0.1708  0.0011  0.3007
 2468DPPC   C3B51311  23.457  29.267   2.744  0.0579 -0.2042 -0.0924
 2468DPPC   C4B51312  23.088  29.389   2.794 -0.1228  0.0053  0.0194
 2469DPPC   NC351313  24.521  27.900   4.222  0.2366 -0.1053  0.0572
 2469DPPC   PO451314  24.783  27.739   4.610  0.5212 -0.0459  0.0193
 2469DPPC   GL151315  24.925  28.144   4.682  0.1209 -0.0789  0.0459
 2469DPPC   GL251316  25.253  28.125   4.652 -0.2596  0.0027 -0.0512
 2469DPPC   C1A51317  24.963  28.576   4.611  0.1215 -0.0969 -0.0537
 2469DPPC   C2A51318  25.241  28.829   4.717  0.2470  0.0902  0.1344
 2469DPPC   C3A51319  25.408  29.167   4.520 -0.1172 -0.0361  0.1452
 2469DPPC   C4A51320  25.731  29.531   4.510  0.0296 -0.1448  0.2139
 2469DPPC   C1B51321  25.508  28.445   4.568 -0.0969  0.0511  0.2525
 2469DPPC   C2B51322  25.802  28.728   4.733  0.0060 -0.1660  0.2224
 2469DPPC   C3B51323  25.992  28.749   5.007 -0.5318  0.2005  0.2422
 2469DPPC   C4B51324  26.285  28.412   4.930  0.0264  0.0700 -0.3531
 2470DPPC   NC351325  16.703  26.935  20.180 -0.0036  0.0070 -0.0401
 2470DPPC   PO451326  16.726  26.933  19.728 -0.0013 -0.0276 -0.0856
 2470DPPC   GL151327  16.866  26.885  19.219  0.0779  0.1663  0.0743
 2470DPPC   GL251328  17.059  26.660  19.117 -0.0340  0.0739 -0.0247
 2470DPPC   C1A51329  16.608  26.835  18.869  0.2492 -0.3776  0.1931
 2470DPPC   C2A51330  16.248  26.735  18.649 -0.0900  0.0990 -0.2080
 2470DPPC   C3A51331  15.877  27.148  18.498 -0.1931  0.3487  0.0930
 2470DPPC   C4A51332  15.577  27.434  18.510 -0.2545 -0.2419 -0.3308
 2470DPPC   C1B51333  17.276  26.682  18.763 -0.2487 -0.1505  0.0365
 2470DPPC   C2B51334  17.550  26.936  18.607  0.0857  0.0997 -0.1573
 2470DPPC   C3B51335  17.610  26.973  18.135 -0.3572  0.0336 -0.1225
 2470DPPC   C4B51336  17.458  27.225  17.792 -0.1269 -0.2548  0.1097
 2471DPPC   NC351337  18.542  30.169   0.745 -0.2937 -0.1854  0.3119
 2471DPPC   PO451338  18.942  30.298   0.406 -0.1009  0.0622  0.0099
 2471DPPC   GL151339  19.021  30.588   0.728 -0.0151  0.0930 -0.0135
 2471DPPC   GL251340  18.698  30.659   0.902  0.1753 -0.0367 -0.1606
 2471DPPC   C1A51341  19.172  30.909   0.916 -0.2312  0.1782 -0.0040
 2471DPPC   C2A51342  19.587  30.902   1.093  0.2401  0.3403  0.0673
 2471DPPC   C3A51343  19.958  30.963   1.247 -0.0291  0.0866  0.1917
 2471DPPC   C4A51344  20.359  30.970   1.485  0.2367 -0.1889  0.1048
 2471DPPC   C1B51345  18.190  30.686   0.983 -0.2112 -0.4040 -0.2944
 2471DPPC   C2B51346  17.961  31.030   1.151  0.3937  0.2683  0.4226
 2471DPPC   C3B51347  17.919  31.404   1.437 -0.1242 -0.1821  0.3285
 2471DPPC   C4B51348  17.638  31.470   1.746  0.1391 -0.3769  0.4109
 2472DPPC   NC351349  17.532  26.613  20.349 -0.0409  0.1318  0.2850
 2472DPPC   PO451350  17.430  26.481  19.903 -0.1467  0.2849  0.0232
 2472DPPC   GL151351  17.514  26.688  19.437  0.1004  0.0693  0.1476
 2472DPPC   GL251352  17.689  26.470  19.203  0.2924 -0.0444 -0.1705
 2472DPPC   C1A51353  17.474  26.997  19.187  0.2503  0.3152 -0.1438
 2472DPPC   C2A51354  17.170  27.129  18.932  0.0559 -0.0628  0.1979
 2472DPPC   C3A51355  17.060  27.172  18.488  0.1375  0.1848  0.1226
 2472DPPC   C4A51356  16.948  27.445  18.074 -0.1543  0.2211  0.2843
 2472DPPC   C1B51357  17.759  26.504  18.784 -0.1350 -0.3244  0.0017
 2472DPPC   C2B51358  18.037  26.713  18.472 -0.1709  0.2457 -0.2060
 2472DPPC   C3B51359  18.097  27.106  18.207  0.0695 -0.1971 -0.0210
 2472DPPC   C4B51360  17.940  27.491  18.053 -0.0337 -0.0059  0.0453
 2473DPPC   NC351361  25.227  20.343   0.632 -0.3226 -0.2974  0.1906
 2473DPPC   PO451362  25.253  20.011   0.342 -0.1394  0.1392  0.2867
 2473DPPC   GL151363  24.927  19.638   0.392 -0.0304  0.1552  0.2150
 2473DPPC   GL251364  24.747  19.611   0.086  0.0155  0.2307  0.0432
 2473DPPC   C1A51365  24.570  19.476   0.503  0.0145 -0.2210  0.2682
 2473DPPC   C2A51366  24.459  19.222   0.780 -0.2485 -0.0287 -0.0476
 2473DPPC   C3A51367  24.426  19.041   1.222 -0.2098 -0.3685  0.0309
 2473DPPC   C4A51368  24.123  18.673   1.428 -0.3309 -0.1133 -0.0675
 2473DPPC   C1B51369  24.696  19.225   0.083 -0.3293  0.0186 -0.0622
 2473DPPC   C2B51370  24.594  18.933   0.388 -0.3520  0.1641 -0.1435
 2473DPPC   C3B51371  24.547  18.671   0.828  0.2133 -0.2536 -0.0142
 2473DPPC   C4B51372  24.477  18.419   1.242  0.0728  0.2237 -0.0536
 2474DPPC   NC351373  21.211  21.818  21.526 -0.1900  0.0845  0.4125
 2474DPPC   PO451374  21.384  21.740  21.956 -0.0558 -0.0350  0.1165
 2474DPPC   GL151375  21.700  21.961  21.604 -0.1014 -0.1542 -0.0250
 2474DPPC   GL251376  22.127  21.851  21.653  0.1404 -0.2651  0.0144
 2474DPPC   C1A51377  21.945  22.416  21.502 -0.0856  0.1014  0.0784
 2474DPPC   C2A51378  22.303  22.644  21.343  0.1435 -0.1925  0.2064
 2474DPPC   C3A51379  22.653  22.816  21.105  0.0473 -0.0391  0.2533
 2474DPPC   C4A51380  22.700  22.906  20.699  0.1277 -0.1615  0.0654
 2474DPPC   C1B51381  22.297  22.202  21.225 -0.1641 -0.1499  0.0919
 2474DPPC   C2B51382  22.345  22.408  20.885  0.1665 -0.0209  0.1780
 2474DPPC   C3B51383  22.311  22.675  20.568  0.3163  0.0304  0.1513
 2474DPPC   C4B51384  22.420  22.965  20.261 -0.3692 -0.2475  0.1248
 2475DPPC   NC351385  19.823  26.094  25.220 -0.4375  0.2300 -0.0411
 2475DPPC   PO451386  19.437  26.024  25.119  0.3127 -0.5403  0.1499
 2475DPPC   GL151387  19.674  26.169  24.672 -0.0837  0.0678  0.2679
 2475DPPC   GL251388  19.457  26.391  24.481  0.0420 -0.0800 -0.2734
 2475DPPC   C1A51389  20.151  26.398  24.708  0.5483  0.0176  0.4089
 2475DPPC   C2A51390  20.542  26.542  24.648 -0.0572  0.0941 -0.1512
 2475DPPC   C3A51391  20.984  26.684  24.460  0.0429 -0.1374 -0.2559
 2475DPPC   C4A51392  21.341  26.489  24.133 -0.1598 -0.1392  0.3079
 2475DPPC   C1B51393  19.810  26.540  24.321 -0.0684  0.1899  0.0195
 2475DPPC   C2B51394  20.164  26.758  24.308  0.0183 -0.0463 -0.0393
 2475DPPC   C3B51395  20.531  26.943  24.284 -0.0519 -0.2221  0.0720
 2475DPPC   C4B51396  20.783  27.297  24.074  0.0697  0.2260 -0.0633
 2476DPPC   NC351397  27.178  21.807   1.556  0.0938  0.0160 -0.1520
 2476DPPC   PO451398  27.408  22.135   1.547  0.0627  0.0139  0.0890
 2476DPPC   GL151399  27.763  22.008   1.346 -0.1594  0.1443 -0.1660
 2476DPPC   GL251400  27.872  22.225   1.591 -0.1297 -0.0366  0.2023
 2476DPPC   C1A51401  28.188  21.854   1.328  0.0303 -0.0091 -0.1946
 2476DPPC   C2A51402  28.613  21.917   1.152  0.0106  0.2197  0.1541
 2476DPPC   C3A51403  29.110  22.101   1.154 -0.2518  0.0793 -0.1215
 2476DPPC   C4A51404  29.473  22.340   1.111 -0.0408  0.2499  0.0637
 2476DPPC   C1B51405  28.331  22.447   1.507 -0.0666 -0.0736  0.0658
 2476DPPC   C2B51406  28.678  22.516   1.280  0.1321 -0.0199 -0.0726
 2476DPPC   C3B51407  28.722  22.344   0.873 -0.0381 -0.1809  0.0877
 2476DPPC   C4B51408  28.417  22.437   0.582  0.0344  0.1037  0.1670
 2477DPPC   NC351409  17.460  24.641  22.531  0.0189  0.3003 -0.1593
 2477DPPC   PO451410  17.340  24.909  22.240  0.1692 -0.2297  0.0044
 2477DPPC   GL151411  16.991  24.910  22.372  0.0421 -0.2032 -0.1314
 2477DPPC   GL251412  17.028  24.794  22.729 -0.0308  0.1362  0.5166
 2477DPPC   C1A51413  16.606  24.866  22.173 -0.0460  0.0388  0.1729
 2477DPPC   C2A51414  16.337  24.554  21.959  0.0296  0.1798  0.1167
 2477DPPC   C3A51415  16.127  24.277  21.771  0.2027 -0.2314  0.0388
 2477DPPC   C4A51416  16.006  23.829  21.630  0.1672  0.1602  0.0494
 2477DPPC   C1B51417  16.787  24.427  22.337  0.0959 -0.2034 -0.0813
 2477DPPC   C2B51418  16.457  24.140  22.535 -0.2037 -0.2146  0.1662
 2477DPPC   C3B51419  16.278  23.840  22.639  0.3498  0.2504  0.1489
 2477DPPC   C4B51420  16.031  23.567  22.386 -0.0041 -0.3536  0.1179
 2478DPPC   NC351421  16.221  27.828  22.154 -0.2036 -0.1139 -0.0256
 2478DPPC   PO451422  16.530  28.044  22.156 -0.1202 -0.1797  0.0189
 2478DPPC   GL151423  16.176  28.262  21.843  0.2921 -0.0458 -0.0637
 2478DPPC   GL251424  15.934  28.080  21.803 -0.0017 -0.1101 -0.1551
 2478DPPC   C1A51425  15.802  28.540  22.046  0.0751  0.1974  0.2547
 2478DPPC   C2A51426  15.429  28.445  22.198  0.0243 -0.0997 -0.2527
 2478DPPC   C3A51427  15.024  28.394  22.014 -0.3534 -0.1553  0.1621
 2478DPPC   C4A51428  14.683  28.499  21.845 -0.0503 -0.0797 -0.2537
 2478DPPC   C1B51429  15.507  28.250  21.781 -0.0752  0.1323  0.1243
 2478DPPC   C2B51430  15.357  28.544  21.567 -0.0193  0.3636 -0.1930
 2478DPPC   C3B51431  14.939  28.688  21.365  0.2727  0.1111  0.0801
 2478DPPC   C4B51432  14.827  28.983  21.129 -0.2360  0.0881  0.2497
 2479DPPC   NC351433  24.605  18.688  23.065 -0.4292  0.0518  0.0153
 2479DPPC   PO451434  24.833  18.764  22.590  0.0336 -0.0941 -0.0182
 2479DPPC   GL151435  25.178  18.707  22.317  0.1613 -0.0785 -0.0381
 2479DPPC   GL251436  25.412  18.476  22.458 -0.1707 -0.3560  0.3587
 2479DPPC   C1A51437  25.308  18.479  21.979 -0.2226  0.1369 -0.0007
 2479DPPC   C2A51438  24.962  18.321  21.757  0.2876  0.0137  0.3136
 2479DPPC   C3A51439  24.949  17.936  21.450  0.0992 -0.2604 -0.2878
 2479DPPC   C4A51440  24.973  17.572  21.713 -0.0162 -0.1256  0.0363
 2479DPPC   C1B51441  25.840  18.372  22.386 -0.0239  0.0192 -0.1302
 2479DPPC   C2B51442  26.235  18.551  22.234 -0.0074 -0.2789 -0.0423
 2479DPPC   C3B51443  26.706  18.557  22.164 -0.2524 -0.1102 -0.3344
 2479DPPC   C4B51444  26.924  18.959  22.117  0.0750 -0.0992 -0.0847
 2480DPPC   NC351445  20.779  20.775  20.877  0.1330  0.0659  0.0151
 2480DPPC   PO451446  20.552  20.425  21.093 -0.0507  0.2888 -0.0423
 2480DPPC   GL151447  20.680  19.989  21.306  0.1862 -0.3107 -0.1230
 2480DPPC   GL251448  20.446  19.955  21.393 -0.2729 -0.0016  0.1361
 2480DPPC   C1A51449  20.816  19.549  21.444 -0.1274  0.0696 -0.0687
 2480DPPC   C2A51450  20.940  19.196  21.329  0.4644 -0.0930 -0.0072
 2480DPPC   C3A51451  21.035  18.771  21.163  0.0180 -0.1809  0.0335
 2480DPPC   C4A51452  21.048  18.327  21.104 -0.0079  0.2560 -0.1982
 2480DPPC   C1B51453  20.072  19.746  21.424 -0.2784  0.1916 -0.2600
 2480DPPC   C2B51454  19.824  19.261  21.386  0.1385 -0.1158  0.2349
 2480DPPC   C3B51455  19.509  18.977  21.331 -0.0889  0.1162 -0.1272
 2480DPPC   C4B51456  19.193  18.612  21.345  0.2345  0.2268  0.1804
 2481DPPC   NC351457  24.721  27.829   5.556 -0.0959  0.0339  0.0836
 2481DPPC   PO451458  24.810  27.437   5.368 -0.2597 -0.1548  0.0562
 2481DPPC   GL151459  24.946  27.502   5.827  0.1103  0.0175  0.0823
 2481DPPC   GL251460  24.786  27.495   6.044  0.1471  0.0591 -0.0440
 2481DPPC   C1A51461  25.256  27.251   5.986 -0.1490 -0.0097 -0.2771
 2481DPPC   C2A51462  25.424  26.923   6.391  0.0007  0.3727 -0.2589
 2481DPPC   C3A51463  25.413  26.859   6.888 -0.1657 -0.0388 -0.3364
 2481DPPC   C4A51464  25.428  27.081   7.200 -0.1625  0.1552 -0.1335
 2481DPPC   C1B51465  24.917  27.364   6.423 -0.0697 -0.2828  0.1746
 2481DPPC   C2B51466  25.258  27.410   6.557 -0.2983  0.0841  0.1187
 2481DPPC   C3B51467  25.503  27.458   6.871 -0.1423  0.1115 -0.3193
 2481DPPC   C4B51468  25.963  27.334   7.158  0.0082  0.2013  0.1712
 2482DPPC   NC351469  16.551  29.127  24.445 -0.1123  0.0630 -0.0400
 2482DPPC   PO451470  16.624  28.722  24.618  0.1205  0.1282  0.2289
 2482DPPC   GL151471  16.245  28.827  24.809  0.0763  0.1182 -0.0649
 2482DPPC   GL251472  16.126  28.484  24.942 -0.1538  0.0714 -0.3777
 2482DPPC   C1A51473  15.917  28.963  25.002  0.0200  0.1566 -0.1836
 2482DPPC   C2A51474  15.559  29.146  24.905 -0.0359  0.2928  0.0978
 2482DPPC   C3A51475  15.051  29.278  24.739  0.0132 -0.0458 -0.2022
 2482DPPC   C4A51476  14.829  29.411  25.006 -0.0159 -0.0088  0.1513
 2482DPPC   C1B51477  15.645  28.465  25.001 -0.1103 -0.1678 -0.2995
 2482DPPC   C2B51478  15.297  28.723  24.918  0.1026  0.1500 -0.2941
 2482DPPC   C3B51479  14.826  28.781  24.762  0.1144  0.2518 -0.1804
 2482DPPC   C4B51480  14.466  28.922  24.639 -0.2406  0.1529 -0.1081
 2483DPPC   NC351481  21.485  26.913   4.294 -0.1551  0.0330  0.0522
 2483DPPC   PO451482  21.618  27.409   4.173  0.0628 -0.1130  0.2373
 2483DPPC   GL151483  21.202  27.416   4.434  0.0731  0.1056  0.0587
 2483DPPC   GL251484  21.248  27.594   4.650 -0.1187  0.1540 -0.4208
 2483DPPC   C1A51485  20.773  27.285   4.469 -0.1915 -0.0794  0.0984
 2483DPPC   C2A51486  20.486  27.250   4.539 -0.0987 -0.4996 -0.1866
 2483DPPC   C3A51487  20.126  27.231   4.842 -0.0266 -0.1579 -0.0687
 2483DPPC   C4A51488  19.974  27.338   5.223  0.3176  0.4025  0.2099
 2483DPPC   C1B51489  20.982  27.531   4.918  0.3965 -0.3736  0.0427
 2483DPPC   C2B51490  20.745  27.286   4.962  0.1073  0.0933  0.0091
 2483DPPC   C3B51491  20.447  27.286   5.204 -0.1366 -0.0903 -0.0251
 2483DPPC   C4B51492  20.426  27.254   5.584 -0.1104  0.3208  0.0900
 2484DPPC   NC351493  22.605  22.335   1.016 -0.0556 -0.0482 -0.3315
 2484DPPC   PO451494  22.505  22.692   1.187 -0.0034 -0.1147 -0.1554
 2484DPPC   GL151495  22.349  22.343   1.427  0.1331 -0.1064 -0.2958
 2484DPPC   GL251496  22.293  22.300   1.774  0.2838 -0.1237 -0.3772
 2484DPPC   C1A51497  22.412  21.922   1.481  0.0482  0.2544 -0.0128
 2484DPPC   C2A51498  22.425  21.569   1.744  0.0154  0.0759  0.1663
 2484DPPC   C3A51499  22.413  21.317   1.915 -0.0642  0.0765 -0.2937
 2484DPPC   C4A51500  22.075  21.028   2.060  0.0039 -0.2298  0.2231
 2484DPPC   C1B51501  22.375  21.952   2.084  0.1694  0.0718 -0.0941
 2484DPPC   C2B51502  22.128  21.568   2.230 -0.2267 -0.2164 -0.0804
 2484DPPC   C3B51503  22.050  21.264   2.533  0.1834 -0.1680  0.0124
 2484DPPC   C4B51504  22.371  21.038   2.837 -0.1465  0.0694  0.2187
 2485DPPC   NC351505  22.066  28.197   4.228 -0.1394  0.1323  0.0326
 2485DPPC   PO451506  21.849  28.091   4.649  0.0128  0.1854 -0.1703
 2485DPPC   GL151507  21.543  28.107   4.926  0.3037 -0.0846 -0.1582
 2485DPPC   GL251508  21.765  28.039   5.216 -0.0917  0.1936  0.0835
 2485DPPC   C1A51509  21.260  28.374   5.189  0.0901  0.1796  0.3323
 2485DPPC   C2A51510  20.772  28.614   5.228  0.0031  0.2301  0.0647
 2485DPPC   C3A51511  20.467  28.578   4.937  0.1789 -0.3849  0.0203
 2485DPPC   C4A51512  20.431  28.176   4.777 -0.2288  0.2072  0.0633
 2485DPPC   C1B51513  21.511  28.218   5.521 -0.5421 -0.1817 -0.0741
 2485DPPC   C2B51514  21.332  28.497   5.674  0.0475  0.1898  0.3906
 2485DPPC   C3B51515  21.049  28.710   5.761 -0.1004 -0.0706 -0.0860
 2485DPPC   C4B51516  20.677  28.801   6.003  0.3235  0.1072 -0.2700
 2486DPPC   NC351517  20.049  20.784  21.911  0.1463 -0.3017  0.0863
 2486DPPC   PO451518  19.817  21.196  21.858  0.2080 -0.3592 -0.1025
 2486DPPC   GL151519  19.417  20.939  21.802  0.2725  0.1482  0.3021
 2486DPPC   GL251520  19.537  20.643  21.867  0.2220 -0.0738  0.3969
 2486DPPC   C1A51521  19.098  20.890  21.927 -0.1311 -0.2422  0.1530
 2486DPPC   C2A51522  18.744  20.733  21.798  0.1758 -0.3059  0.2036
 2486DPPC   C3A51523  18.449  20.656  21.416  0.2860  0.1638  0.1182
 2486DPPC   C4A51524  18.056  20.429  21.360 -0.1458  0.2629  0.0624
 2486DPPC   C1B51525  19.219  20.395  21.736  0.1089 -0.2184  0.0965
 2486DPPC   C2B51526  19.002  20.067  21.879  0.0262 -0.0940 -0.0642
 2486DPPC   C3B51527  18.893  19.607  21.859  0.1820  0.1334  0.1471
 2486DPPC   C4B51528  18.910  19.226  22.029  0.1724 -0.0528  0.1176
 2487DPPC   NC351529  19.677  21.162  21.393 -0.3461  0.0641  0.2032
 2487DPPC   PO451530  19.454  21.352  21.021  0.2544 -0.0564  0.1572
 2487DPPC   GL151531  19.078  21.569  20.908 -0.1135 -0.0719 -0.3532
 2487DPPC   GL251532  18.940  21.667  20.662  0.0859  0.2927 -0.0181
 2487DPPC   C1A51533  18.739  21.582  21.198  0.0996  0.0441  0.0558
 2487DPPC   C2A51534  18.299  21.584  21.277 -0.3843 -0.0775 -0.0334
 2487DPPC   C3A51535  18.062  21.210  21.212 -0.0588 -0.0299 -0.0582
 2487DPPC   C4A51536  17.788  20.926  21.360 -0.3448  0.1565  0.0492
 2487DPPC   C1B51537  18.803  21.230  20.626  0.0694  0.1973  0.0164
 2487DPPC   C2B51538  18.631  20.882  20.604  0.1453  0.1390  0.3175
 2487DPPC   C3B51539  18.243  20.722  20.452  0.1271 -0.1704  0.1869
 2487DPPC   C4B51540  17.970  20.785  20.092 -0.2541  0.0112  0.2223
 2488DPPC   NC351541  21.334  23.675   1.578 -0.1391 -0.0263 -0.0374
 2488DPPC   PO451542  21.374  23.886   1.929  0.4473 -0.1693  0.2821
 2488DPPC   GL151543  21.102  23.712   2.284 -0.3295  0.3435 -0.1279
 2488DPPC   GL251544  20.825  23.932   2.284 -0.0937 -0.0225 -0.0728
 2488DPPC   C1A51545  20.882  23.543   2.614 -0.4021  0.1161  0.1465
 2488DPPC   C2A51546  20.594  23.271   2.777 -0.2624 -0.0438 -0.1704
 2488DPPC   C3A51547  20.509  22.897   3.013 -0.0810  0.1616  0.0324
 2488DPPC   C4A51548  20.265  22.560   3.079  0.0017  0.5038 -0.1067
 2488DPPC   C1B51549  20.413  23.985   2.420 -0.3522  0.2602  0.1090
 2488DPPC   C2B51550  20.137  23.790   2.700  0.1286 -0.1820  0.1943
 2488DPPC   C3B51551  20.080  23.480   2.975 -0.0648 -0.3371  0.0514
 2488DPPC   C4B51552  20.051  23.092   3.216 -0.1785 -0.2324  0.1164
 2489DPPC   NC351553  22.513  19.995  19.585 -0.3283 -0.5146 -0.0482
 2489DPPC   PO451554  22.825  20.284  19.859 -0.0210 -0.1026 -0.0613
 2489DPPC   GL151555  23.026  20.286  19.520  0.0025 -0.0288  0.1387
 2489DPPC   GL251556  23.264  20.078  19.435  0.1204  0.1183  0.2849
 2489DPPC   C1A51557  23.126  20.518  19.129 -0.0890  0.0688  0.2188
 2489DPPC   C2A51558  23.255  20.846  18.759 -0.2856  0.1354  0.0796
 2489DPPC   C3A51559  23.104  21.130  18.461  0.0034  0.0457  0.2206
 2489DPPC   C4A51560  22.875  21.268  18.106 -0.0712 -0.2215  0.2915
 2489DPPC   C1B51561  23.591  20.034  19.097 -0.1298  0.0317  0.0165
 2489DPPC   C2B51562  24.044  19.805  18.995 -0.2718 -0.1008 -0.2494
 2489DPPC   C3B51563  24.147  19.708  18.621  0.0686  0.0907  0.2058
 2489DPPC   C4B51564  24.572  19.702  18.389 -0.2575  0.1690  0.3458
 2490DPPC   NC351565  19.243  25.422   0.619  0.1254 -0.0415  0.3150
 2490DPPC   PO451566  19.177  25.113   0.272  0.2442 -0.0951  0.0481
 2490DPPC   GL151567  18.766  25.016   0.411 -0.2366  0.0868 -0.1051
 2490DPPC   GL251568  18.683  24.870   0.243 -0.0284 -0.4436 -0.2628
 2490DPPC   C1A51569  18.383  24.689   0.608  0.0099 -0.0356  0.3443
 2490DPPC   C2A51570  18.116  24.390   0.482  0.1841 -0.0189  0.1776
 2490DPPC   C3A51571  17.761  24.134   0.202  0.2836  0.1797 -0.0756
 2490DPPC   C4A51572  17.532  23.870   0.041 -0.3333 -0.1142  0.0075
 2490DPPC   C1B51573  18.193  24.766   0.150  0.0074  0.0623 -0.0910
 2490DPPC   C2B51574  17.746  24.663   0.269 -0.2272 -0.3737 -0.1161
 2490DPPC   C3B51575  17.482  24.378   0.542  0.2203  0.5171 -0.3636
 2490DPPC   C4B51576  17.392  24.268   0.947 -0.1358  0.2044 -0.0047
 2491DPPC   NC351577  20.687  26.958   3.022 -0.0602 -0.3032  0.2094
 2491DPPC   PO451578  20.627  26.558   3.377  0.0986 -0.0433  0.0262
 2491DPPC   GL151579  20.327  26.473   3.690 -0.1724  0.1656  0.3842
 2491DPPC   GL251580  20.688  26.353   3.788  0.0653  0.0420 -0.1820
 2491DPPC   C1A51581  20.133  26.374   4.070  0.1294 -0.1987 -0.1475
 2491DPPC   C2A51582  19.860  26.161   4.345 -0.0915  0.0343  0.1010
 2491DPPC   C3A51583  19.570  26.158   4.651  0.2671 -0.1686 -0.1061
 2491DPPC   C4A51584  19.148  26.017   4.656 -0.2288 -0.0734  0.0543
 2491DPPC   C1B51585  20.720  26.315   4.195 -0.0691  0.1470 -0.0935
 2491DPPC   C2B51586  20.591  26.517   4.497 -0.0212 -0.1000  0.1988
 2491DPPC   C3B51587  20.461  26.847   4.840 -0.0296 -0.3001  0.0014
 2491DPPC   C4B51588  20.313  26.824   5.226 -0.1264 -0.0071 -0.0272
 2492DPPC   NC351589  20.145  22.540  25.065 -0.1618  0.3647  0.3672
 2492DPPC   PO451590  19.803  22.768  25.367 -0.3047  0.2906  0.2468
 2492DPPC   GL151591  19.700  22.361  25.613  0.3707 -0.0912  0.2010
 2492DPPC   GL251592  19.902  22.243  25.326 -0.2155 -0.0173  0.2068
 2492DPPC   C1A51593  19.442  22.039  25.875  0.0278 -0.1323 -0.0118
 2492DPPC   C2A51594  19.021  22.028  26.019  0.0198  0.3212  0.1009
 2492DPPC   C3A51595  18.646  21.909  26.191  0.4200  0.4859  0.1732
 2492DPPC   C4A51596  18.266  21.913  26.352  0.0226  0.1614 -0.0639
 2492DPPC   C1B51597  19.449  22.017  25.287 -0.3130  0.3652 -0.1696
 2492DPPC   C2B51598  19.048  21.982  25.475  0.0088 -0.0617 -0.1419
 2492DPPC   C3B51599  18.715  22.109  25.708 -0.0761 -0.1020 -0.0469
 2492DPPC   C4B51600  18.311  21.943  25.818 -0.1211 -0.0445  0.2865
 2493DPPC   NC351601  17.151  29.308  24.146  0.0560 -0.3263  0.0004
 2493DPPC   PO451602  17.335  29.113  23.789 -0.1200 -0.3175  0.0426
 2493DPPC   GL151603  17.310  29.497  23.510  0.0462  0.0963 -0.0134
 2493DPPC   GL251604  17.109  29.497  23.264 -0.0242 -0.2300 -0.0342
 2493DPPC   C1A51605  17.316  29.807  23.647  0.2878 -0.1237 -0.0510
 2493DPPC   C2A51606  17.178  30.174  23.569  0.2673 -0.1265 -0.0173
 2493DPPC   C3A51607  17.376  30.480  23.292  0.0840 -0.2074 -0.3826
 2493DPPC   C4A51608  17.434  30.923  23.423 -0.0105 -0.1440 -0.2864
 2493DPPC   C1B51609  17.040  29.860  23.076 -0.0010  0.0785  0.3345
 2493DPPC   C2B51610  17.014  30.228  22.999 -0.0750  0.0066 -0.2021
 2493DPPC   C3B51611  17.057  30.750  23.028 -0.4905  0.1863 -0.1302
 2493DPPC   C4B51612  16.991  31.153  23.208 -0.4331 -0.2478 -0.3553
 2494DPPC   NC351613  27.656  22.652   3.081 -0.0923  0.0646 -0.0296
 2494DPPC   PO451614  28.065  22.661   2.931 -0.0702  0.1621 -0.0898
 2494DPPC   GL151615  28.405  22.955   2.848 -0.0598 -0.2710 -0.1841
 2494DPPC   GL251616  28.614  22.928   3.136  0.0089 -0.1134  0.1624
 2494DPPC   C1A51617  28.742  23.166   2.704 -0.0302 -0.0135 -0.0469
 2494DPPC   C2A51618  29.087  23.212   2.706  0.3063  0.1282 -0.3837
 2494DPPC   C3A51619  29.286  23.529   2.682 -0.3244 -0.0448 -0.0915
 2494DPPC   C4A51620  29.629  23.925   2.637 -0.0291  0.0784  0.0494
 2494DPPC   C1B51621  29.089  22.916   3.145 -0.1861  0.1764 -0.1295
 2494DPPC   C2B51622  29.390  22.685   2.982  0.1673 -0.0312  0.2898
 2494DPPC   C3B51623  29.625  22.350   3.023 -0.1438  0.1316 -0.1730
 2494DPPC   C4B51624  29.654  22.121   2.643  0.2641 -0.0257  0.1960
 2495DPPC   NC351625  20.155  23.039  25.647  0.0129  0.2816  0.0676
 2495DPPC   PO451626  20.277  23.152  26.073 -0.2508 -0.0486  0.0947
 2495DPPC   GL151627  19.787  23.016  26.025  0.0403  0.0861  0.3641
 2495DPPC   GL251628  19.752  23.051  26.456 -0.0051 -0.0613 -0.0504
 2495DPPC   C1A51629  19.411  22.779  26.262  0.0130 -0.1005  0.2046
 2495DPPC   C2A51630  19.296  22.337  26.297 -0.0876  0.0089 -0.2874
 2495DPPC   C3A51631  19.183  21.985  26.570  0.3027  0.1723  0.0637
 2495DPPC   C4A51632  19.349  21.540  26.772  0.1014 -0.2194 -0.1626
 2495DPPC   C1B51633  19.735  22.826   0.030  0.0701  0.0459  0.4166
 2495DPPC   C2B51634  19.662  22.511   0.278  0.1018  0.1644  0.0271
 2495DPPC   C3B51635  19.399  22.230   0.508  0.0328  0.0632 -0.1069
 2495DPPC   C4B51636  19.138  21.887   0.551 -0.0185  0.3005  0.2262
 2496DPPC   NC351637  21.181  29.014   3.341 -0.0917  0.1559 -0.0987
 2496DPPC   PO451638  21.073  28.831   2.928 -0.1598 -0.1779 -0.3345
 2496DPPC   GL151639  21.045  29.303   2.960 -0.0432  0.0153  0.4483
 2496DPPC   GL251640  20.807  29.298   3.215 -0.2572  0.0720  0.1166
 2496DPPC   C1A51641  21.196  29.686   3.193 -0.2823  0.0919 -0.0097
 2496DPPC   C2A51642  21.160  30.082   3.431 -0.1055  0.2621 -0.1489
 2496DPPC   C3A51643  20.960  30.237   3.836  0.2925  0.2865  0.0439
 2496DPPC   C4A51644  20.623  30.384   4.041 -0.1642  0.0415 -0.2632
 2496DPPC   C1B51645  20.787  29.737   2.992  0.0202  0.0332 -0.1744
 2496DPPC   C2B51646  20.927  30.153   3.016  0.0055  0.0496 -0.0099
 2496DPPC   C3B51647  21.125  30.544   3.268 -0.2094  0.1390 -0.1991
 2496DPPC   C4B51648  20.886  30.920   3.307  0.4214  0.0650  0.1536
 2497DPPC   NC351649  21.937  19.837  23.276  0.0942  0.1103  0.1353
 2497DPPC   PO451650  21.766  19.597  23.038  0.0215 -0.0708 -0.2692
 2497DPPC   GL151651  21.820  19.193  23.211 -0.0474  0.0828 -0.0598
 2497DPPC   GL251652  21.905  18.898  23.117 -0.1320 -0.0281 -0.2596
 2497DPPC   C1A51653  21.516  18.914  23.383 -0.0593 -0.0001 -0.2230
 2497DPPC   C2A51654  21.149  18.726  23.592 -0.1760 -0.0975  0.0424
 2497DPPC   C3A51655  21.024  18.490  24.010 -0.3401 -0.0337  0.2575
 2497DPPC   C4A51656  20.813  18.103  24.138 -0.0214 -0.3063  0.2820
 2497DPPC   C1B51657  21.928  18.507  23.001  0.1109  0.0260  0.2954
 2497DPPC   C2B51658  21.769  18.201  22.846  0.1651 -0.3952 -0.2017
 2497DPPC   C3B51659  21.436  17.918  23.019  0.1183 -0.1633  0.2607
 2497DPPC   C4B51660  20.977  17.944  23.199  0.2005  0.0048 -0.2282
 2498DPPC   NC351661  26.190  25.535   5.245 -0.1102  0.3298 -0.2230
 2498DPPC   PO451662  26.317  25.900   5.183  0.0172  0.1226 -0.0585
 2498DPPC   GL151663  26.577  25.883   5.459  0.0781  0.2237 -0.2670
 2498DPPC   GL251664  26.886  26.084   5.478 -0.1524  0.3383 -0.3481
 2498DPPC   C1A51665  26.788  25.701   5.833  0.2356  0.1166  0.2215
 2498DPPC   C2A51666  27.014  25.476   6.099 -0.1544  0.1348 -0.0332
 2498DPPC   C3A51667  27.461  25.312   5.976 -0.2466  0.3033 -0.1338
 2498DPPC   C4A51668  27.677  24.989   6.143 -0.1492 -0.0863  0.0844
 2498DPPC   C1B51669  26.968  26.158   5.865 -0.1333 -0.1796  0.2223
 2498DPPC   C2B51670  26.813  26.027   6.215 -0.1020 -0.1995  0.4749
 2498DPPC   C3B51671  26.735  25.693   6.518  0.0151 -0.0353 -0.0787
 2498DPPC   C4B51672  26.962  25.838   6.804 -0.0081  0.0035  0.1090
 2499DPPC   NC351673  21.653  23.661  25.703 -0.2541 -0.0644  0.1340
 2499DPPC   PO451674  21.352  23.562  25.410 -0.2302  0.1772  0.1128
 2499DPPC   GL151675  21.671  23.526  25.146 -0.0513 -0.1007 -0.0381
 2499DPPC   GL251676  22.039  23.439  25.231 -0.1190 -0.3192  0.0334
 2499DPPC   C1A51677  21.861  23.567  24.785  0.0443  0.0844  0.0741
 2499DPPC   C2A51678  22.319  23.653  24.814 -0.0671  0.0818  0.0240
 2499DPPC   C3A51679  22.497  23.920  24.556 -0.0704  0.0519  0.1093
 2499DPPC   C4A51680  22.431  24.224  24.120 -0.1692 -0.0641 -0.3559
 2499DPPC   C1B51681  22.133  23.842  25.218 -0.0972 -0.2204  0.1383
 2499DPPC   C2B51682  22.462  24.162  25.153  0.0831  0.0196 -0.2223
 2499DPPC   C3B51683  22.602  24.341  24.960 -0.2523  0.0553 -0.0030
 2499DPPC   C4B51684  22.899  24.480  24.638  0.3195 -0.1748  0.0015
 2500DPPC   NC351685  19.878  21.896  23.390  0.0400  0.1237  0.0145
 2500DPPC   PO451686  19.505  21.832  23.090 -0.0658  0.2777 -0.0558
 2500DPPC   GL151687  19.202  21.702  23.271 -0.1197 -0.2064  0.1598
 2500DPPC   GL251688  19.274  21.790  23.597 -0.2216 -0.1015  0.5305
 2500DPPC   C1A51689  18.781  21.628  23.377 -0.0824  0.1650  0.1030
 2500DPPC   C2A51690  18.408  21.492  23.170 -0.2481 -0.2264  0.0007
 2500DPPC   C3A51691  17.959  21.438  23.014  0.2366 -0.2876  0.1834
 2500DPPC   C4A51692  17.625  21.361  23.176  0.1191 -0.0278 -0.2464
 2500DPPC   C1B51693  19.030  21.513  23.766 -0.0824 -0.2131 -0.3357
 2500DPPC   C2B51694  18.544  21.434  23.853 -0.0573 -0.0382 -0.2134
 2500DPPC   C3B51695  18.223  21.080  23.978 -0.2013 -0.0682  0.1716
 2500DPPC   C4B51696  17.785  20.954  24.030 -0.0939  0.0789 -0.1030
 2501DPPC   NC351697  20.970  24.226   1.919  0.0715  0.0792  0.0813
 2501DPPC   PO451698  20.991  23.999   1.476 -0.1174  0.0575  0.1465
 2501DPPC   GL151699  20.882  23.715   1.826 -0.0046 -0.3548 -0.2507
 2501DPPC   GL251700  21.074  23.390   1.890 -0.4992  0.1731  0.0990
 2501DPPC   C1A51701  20.624  23.509   2.130 -0.1737  0.1825 -0.1004
 2501DPPC   C2A51702  20.288  23.342   2.441  0.1329 -0.1406  0.0531
 2501DPPC   C3A51703  20.087  23.119   2.657  0.2911 -0.2632 -0.1772
 2501DPPC   C4A51704  19.829  22.729   2.516 -0.0914  0.0445  0.0061
 2501DPPC   C1B51705  21.014  22.838   1.847 -0.2348  0.1400  0.2645
 2501DPPC   C2B51706  20.798  22.534   2.002  0.0472  0.2169 -0.0574
 2501DPPC   C3B51707  20.493  22.330   2.334 -0.1905 -0.1331 -0.1940
 2501DPPC   C4B51708  20.121  22.327   2.584 -0.1908 -0.0028  0.4330
 2502DPPC   NC351709  26.555  25.628   4.882  0.0745  0.0120 -0.0745
 2502DPPC   PO451710  26.567  25.169   4.929  0.0503  0.0194 -0.1248
 2502DPPC   GL151711  26.711  25.293   5.254 -0.0733 -0.2443 -0.2382
 2502DPPC   GL251712  26.555  25.391   5.516 -0.0275 -0.1614  0.2238
 2502DPPC   C1A51713  27.070  25.504   5.460  0.1731  0.2991  0.1519
 2502DPPC   C2A51714  27.348  25.719   5.785  0.0830  0.2446 -0.1355
 2502DPPC   C3A51715  27.330  25.864   6.224  0.2387  0.0861  0.0205
 2502DPPC   C4A51716  27.434  25.641   6.558  0.0995  0.1362  0.2337
 2502DPPC   C1B51717  26.786  25.099   5.727  0.1847  0.1691 -0.1250
 2502DPPC   C2B51718  27.280  25.029   5.563 -0.3007 -0.0680 -0.0101
 2502DPPC   C3B51719  27.780  24.943   5.682  0.0475 -0.0889  0.1930
 2502DPPC   C4B51720  28.139  24.780   5.415  0.1073  0.1864 -0.0319
 2503DPPC   NC351721  24.270  19.496  22.617 -0.1599 -0.0603  0.1937
 2503DPPC   PO451722  24.666  19.489  22.356  0.3254 -0.3204  0.1163
 2503DPPC   GL151723  25.114  19.481  21.993 -0.0114  0.2815  0.1876
 2503DPPC   GL251724  25.347  19.124  22.017  0.2284 -0.1306  0.2164
 2503DPPC   C1A51725  25.529  19.483  21.761  0.1295 -0.0471  0.0575
 2503DPPC   C2A51726  25.654  19.573  21.353  0.3174  0.0448  0.0314
 2503DPPC   C3A51727  26.039  19.424  21.069  0.5429 -0.0729 -0.1433
 2503DPPC   C4A51728  26.467  19.300  21.018 -0.0849  0.2070  0.4388
 2503DPPC   C1B51729  25.674  18.795  22.108  0.2727  0.0454  0.0393
 2503DPPC   C2B51730  25.877  18.425  21.843 -0.0622  0.0847  0.0455
 2503DPPC   C3B51731  26.058  18.484  21.437 -0.2080 -0.2037  0.0648
 2503DPPC   C4B51732  26.472  18.337  21.265 -0.1210 -0.0503  0.1496
 2504DPPC   NC351733  19.083  22.370  21.948 -0.0165  0.4570  0.1165
 2504DPPC   PO451734  18.914  22.639  22.160 -0.3070 -0.0688 -0.0081
 2504DPPC   GL151735  18.581  22.364  22.255 -0.2702 -0.1173 -0.0580
 2504DPPC   GL251736  18.592  22.221  22.064  0.1616 -0.3732  0.1490
 2504DPPC   C1A51737  18.290  22.235  22.590  0.0541  0.1552  0.3845
 2504DPPC   C2A51738  17.706  22.245  22.553  0.1119  0.2045  0.0765
 2504DPPC   C3A51739  17.457  21.945  22.425  0.2940 -0.2899  0.1687
 2504DPPC   C4A51740  17.006  21.578  22.317 -0.0637 -0.1103  0.3273
 2504DPPC   C1B51741  18.320  21.819  22.346  0.1137  0.0297  0.0777
 2504DPPC   C2B51742  17.950  21.842  22.678 -0.3178  0.0345  0.0827
 2504DPPC   C3B51743  17.552  21.776  22.941 -0.0661  0.1937  0.1922
 2504DPPC   C4B51744  17.126  21.639  23.213 -0.2385  0.0451 -0.2598
 2505DPPC   NC351745  26.788  22.373   3.284 -0.1622 -0.3503 -0.3427
 2505DPPC   PO451746  27.243  22.507   3.349  0.3021  0.2088 -0.2445
 2505DPPC   GL151747  27.136  22.255   3.723 -0.0446 -0.5572 -0.0243
 2505DPPC   GL251748  26.812  22.052   3.701 -0.0482 -0.1810 -0.2138
 2505DPPC   C1A51749  27.067  21.920   4.139 -0.0550 -0.2216  0.1773
 2505DPPC   C2A51750  27.340  21.453   4.226  0.0684 -0.2444  0.0010
 2505DPPC   C3A51751  27.593  21.150   4.297 -0.1087  0.2583  0.0584
 2505DPPC   C4A51752  27.614  20.837   4.498 -0.0992 -0.3721  0.0509
 2505DPPC   C1B51753  26.645  21.707   3.925 -0.0210 -0.1944  0.0565
 2505DPPC   C2B51754  26.706  21.311   3.984 -0.1795 -0.0543  0.0862
 2505DPPC   C3B51755  26.772  20.851   3.938 -0.2449 -0.0254  0.4285
 2505DPPC   C4B51756  26.593  20.522   3.986  0.0729 -0.0931 -0.0128
 2506DPPC   NC351757  21.825  21.850  26.713 -0.3284 -0.3077  0.0191
 2506DPPC   PO451758  22.253  21.792  26.533  0.0445 -0.1603 -0.0157
 2506DPPC   GL151759  22.026  21.398  26.809 -0.2896  0.2321 -0.0651
 2506DPPC   GL251760  22.073  21.227  26.590  0.2297 -0.0095  0.1952
 2506DPPC   C1A51761  21.733  21.354   0.239 -0.1144  0.0942  0.1332
 2506DPPC   C2A51762  21.414  21.030   0.227  0.4576 -0.1554  0.0492
 2506DPPC   C3A51763  20.988  21.042   0.188  0.0691 -0.0993  0.0314
 2506DPPC   C4A51764  20.673  20.955   0.325  0.0609  0.0774 -0.2313
 2506DPPC   C1B51765  21.949  20.880  26.803  0.0449 -0.1337 -0.5782
 2506DPPC   C2B51766  21.837  20.793   0.385  0.4200  0.1249 -0.0555
 2506DPPC   C3B51767  21.951  20.707   0.814 -0.1634 -0.2064 -0.3793
 2506DPPC   C4B51768  22.065  20.350   0.971  0.0230  0.1319  0.0841
 2507DPPC   NC351769  22.706  28.299   4.620 -0.6678 -0.0543  0.0469
 2507DPPC   PO451770  23.140  28.169   4.756 -0.2071  0.1273 -0.1351
 2507DPPC   GL151771  23.060  28.545   5.106 -0.1851  0.4924 -0.1550
 2507DPPC   GL251772  23.355  28.618   5.086 -0.1500  0.0898 -0.2115
 2507DPPC   C1A51773  22.961  28.969   5.258 -0.1128 -0.1394 -0.0682
 2507DPPC   C2A51774  23.108  29.423   5.394  0.3192 -0.0652 -0.0843
 2507DPPC   C3A51775  23.358  29.798   5.380  0.0897  0.0348 -0.3986
 2507DPPC   C4A51776  23.605  30.048   5.202 -0.2891  0.0929  0.1177
 2507DPPC   C1B51777  23.358  28.717   5.542  0.0365 -0.0559 -0.0693
 2507DPPC   C2B51778  23.037  28.954   5.768 -0.0198  0.0227  0.0828
 2507DPPC   C3B51779  22.544  28.872   5.753  0.1302  0.0446  0.0668
 2507DPPC   C4B51780  22.156  29.035   5.680  0.1640  0.0902  0.1389
 2508DPPC   NC351781  20.557  22.449  18.209 -0.1991 -0.1923 -0.2500
 2508DPPC   PO451782  20.499  22.864  18.123  0.0913 -0.2342  0.1372
 2508DPPC   GL151783  20.776  23.007  17.711  0.0235 -0.0364  0.1874
 2508DPPC   GL251784  20.949  22.803  17.837  0.2147  0.2561 -0.1696
 2508DPPC   C1A51785  20.940  23.389  17.558 -0.2352 -0.1473 -0.0530
 2508DPPC   C2A51786  21.045  23.653  17.262 -0.7444 -0.1845 -0.0350
 2508DPPC   C3A51787  21.417  23.809  17.302  0.0124 -0.2289 -0.0503
 2508DPPC   C4A51788  21.882  23.908  17.169 -0.0605 -0.1365 -0.1474
 2508DPPC   C1B51789  21.238  22.711  17.681 -0.1952  0.0225 -0.1803
 2508DPPC   C2B51790  21.472  22.699  17.447  0.3702  0.3871 -0.3597
 2508DPPC   C3B51791  21.691  22.817  17.107  0.0363  0.0396  0.0582
 2508DPPC   C4B51792  21.787  23.089  16.833 -0.1158 -0.0680 -0.5127
 2509DPPC   NC351793  21.125  26.469   3.446  0.1878  0.1049  0.0880
 2509DPPC   PO451794  20.933  26.943   3.457  0.0347 -0.1375 -0.1464
 2509DPPC   GL151795  20.795  26.862   3.841  0.0501  0.0442 -0.1074
 2509DPPC   GL251796  20.889  26.936   4.164 -0.0827  0.2214 -0.5421
 2509DPPC   C1A51797  20.380  26.850   4.069  0.3201  0.1377 -0.2041
 2509DPPC   C2A51798  20.111  26.821   4.460  0.0737  0.4047  0.0897
 2509DPPC   C3A51799  19.970  26.648   4.844 -0.0729  0.1206 -0.0605
 2509DPPC   C4A51800  19.913  26.184   4.988 -0.2799  0.1193 -0.2294
 2509DPPC   C1B51801  20.966  26.850   4.648 -0.0911  0.1470 -0.1119
 2509DPPC   C2B51802  20.999  26.798   5.067 -0.0452 -0.0887 -0.3708
 2509DPPC   C3B51803  21.149  26.770   5.415 -0.3635  0.1441  0.0728
 2509DPPC   C4B51804  21.347  26.970   5.803 -0.2510 -0.0217 -0.3984
 2510DPPC   NC351805  19.032  22.597  23.584  0.1733 -0.0104 -0.0707
 2510DPPC   PO451806  19.064  23.048  23.516  0.0147  0.5287 -0.0078
 2510DPPC   GL151807  18.705  22.896  23.338 -0.1719 -0.4144  0.0986
 2510DPPC   GL251808  18.573  22.702  23.599  0.0761 -0.0645 -0.1183
 2510DPPC   C1A51809  18.261  22.709  23.096  0.0188  0.0095  0.0888
 2510DPPC   C2A51810  17.989  22.418  22.929 -0.1535  0.0372 -0.0736
 2510DPPC   C3A51811  17.735  22.207  23.252 -0.1213 -0.1931  0.3098
 2510DPPC   C4A51812  17.410  21.981  23.401  0.0544  0.3902 -0.2782
 2510DPPC   C1B51813  18.492  22.325  23.887 -0.0295  0.0077 -0.0371
 2510DPPC   C2B51814  18.333  22.345  24.318 -0.0529 -0.0905  0.0434
 2510DPPC   C3B51815  18.014  22.250  24.570 -0.0035  0.1312 -0.1019
 2510DPPC   C4B51816  17.954  22.243  24.959 -0.1100 -0.0084 -0.1727
 2511DPPC   NC351817  18.443  25.098  25.772  0.5199 -0.0052 -0.0460
 2511DPPC   PO451818  18.098  25.288  26.133  0.1236  0.2352 -0.0338
 2511DPPC   GL151819  17.992  24.873  26.153  0.1267 -0.3402  0.0863
 2511DPPC   GL251820  18.280  24.692  26.197 -0.0690 -0.0209  0.1265
 2511DPPC   C1A51821  17.652  24.612  26.243  0.0783  0.1121  0.1129
 2511DPPC   C2A51822  17.389  24.176  26.238 -0.2230  0.1739 -0.0420
 2511DPPC   C3A51823  17.196  23.927  26.560 -0.0378 -0.1334 -0.1862
 2511DPPC   C4A51824  17.050  23.536  26.844  0.2588  0.3713 -0.1943
 2511DPPC   C1B51825  18.091  24.338  26.152  0.0621 -0.2228 -0.0470
 2511DPPC   C2B51826  17.849  24.020  26.316  0.0784 -0.2035  0.2839
 2511DPPC   C3B51827  17.604  23.671  26.449 -0.1149 -0.1587  0.0655
 2511DPPC   C4B51828  17.237  23.503  26.379  0.0426 -0.1517 -0.1917
 2512DPPC   NC351829  20.732  28.797   2.523 -0.0789 -0.1599 -0.0583
 2512DPPC   PO451830  20.554  28.949   2.859 -0.4595 -0.1245  0.3857
 2512DPPC   GL151831  20.540  29.398   2.634  0.1292  0.1005 -0.1924
 2512DPPC   GL251832  20.299  29.452   2.874  0.1711 -0.0525 -0.2242
 2512DPPC   C1A51833  20.435  29.847   2.657  0.0400 -0.3225  0.1922
 2512DPPC   C2A51834  20.393  30.060   3.003 -0.0456  0.2396 -0.0957
 2512DPPC   C3A51835  20.153  30.382   3.289  0.1165 -0.0800  0.1705
 2512DPPC   C4A51836  20.238  30.618   3.627 -0.1780  0.1855  0.0063
 2512DPPC   C1B51837  20.345  29.588   3.286  0.1888 -0.0319 -0.0520
 2512DPPC   C2B51838  20.224  29.827   3.625 -0.0687  0.0084 -0.0413
 2512DPPC   C3B51839  20.349  29.986   3.946 -0.0884 -0.2933 -0.4345
 2512DPPC   C4B51840  20.836  29.908   4.160 -0.3519 -0.3066  0.1923
 2513DPPC   NC351841  25.771  20.429  24.747  0.3295 -0.2486  0.3746
 2513DPPC   PO451842  25.998  20.080  24.524 -0.1300 -0.0979  0.1563
 2513DPPC   GL151843  26.345  19.933  24.265  0.0081 -0.0924 -0.1311
 2513DPPC   GL251844  26.630  19.792  24.237  0.1874  0.1273 -0.1510
 2513DPPC   C1A51845  26.534  20.073  23.795 -0.0062  0.0455  0.2289
 2513DPPC   C2A51846  26.252  20.096  23.461  0.0188  0.1041 -0.0301
 2513DPPC   C3A51847  26.327  20.164  23.055  0.3032  0.0702 -0.0555
 2513DPPC   C4A51848  26.567  19.989  22.841  0.2527 -0.0963  0.0549
 2513DPPC   C1B51849  26.988  20.079  24.018 -0.0154  0.1619 -0.0666
 2513DPPC   C2B51850  27.470  20.058  23.799  0.1634 -0.2289 -0.1658
 2513DPPC   C3B51851  27.440  20.406  23.548  0.0712  0.3003 -0.1936
 2513DPPC   C4B51852  27.238  20.818  23.412 -0.1700  0.3615  0.1731
 2514DPPC   NC351853  25.056  23.879   4.441  0.1665  0.0605  0.2251
 2514DPPC   PO451854  24.915  24.301   4.529 -0.0924  0.0335  0.3192
 2514DPPC   GL151855  24.880  23.898   4.845  0.1323 -0.1500  0.0986
 2514DPPC   GL251856  24.686  23.728   4.770  0.0588  0.1473  0.1091
 2514DPPC   C1A51857  24.808  23.665   5.246  0.0413  0.2038  0.0244
 2514DPPC   C2A51858  24.953  23.676   5.592 -0.1352  0.1893 -0.1537
 2514DPPC   C3A51859  25.134  23.565   5.998  0.2519 -0.3081  0.0884
 2514DPPC   C4A51860  25.234  23.536   6.406 -0.0279 -0.1532  0.1336
 2514DPPC   C1B51861  24.478  23.427   4.915 -0.2148  0.0350 -0.3174
 2514DPPC   C2B51862  24.434  23.331   5.420 -0.1788  0.1628  0.0808
 2514DPPC   C3B51863  23.989  23.384   5.678 -0.0728  0.1160  0.1978
 2514DPPC   C4B51864  23.535  23.336   5.670 -0.1515 -0.0285 -0.4079
 2515DPPC   NC351865  17.156  29.010  23.298  0.1520  0.0917  0.0114
 2515DPPC   PO451866  16.718  29.124  23.414 -0.0782 -0.0378  0.0487
 2515DPPC   GL151867  16.293  29.431  23.324  0.1846  0.0925  0.0706
 2515DPPC   GL251868  15.984  29.309  23.278  0.2205  0.1626  0.1221
 2515DPPC   C1A51869  16.239  29.710  23.063 -0.2652  0.1662  0.0891
 2515DPPC   C2A51870  16.160  29.750  22.583 -0.0459  0.1259  0.0274
 2515DPPC   C3A51871  16.019  29.720  22.274  0.0767  0.0512  0.3537
 2515DPPC   C4A51872  15.842  29.735  21.841 -0.0634 -0.0371 -0.0269
 2515DPPC   C1B51873  16.107  29.317  22.835  0.0050 -0.0185  0.1498
 2515DPPC   C2B51874  16.011  29.200  22.468 -0.1570 -0.1305 -0.0581
 2515DPPC   C3B51875  16.081  29.268  22.018 -0.1210  0.1746 -0.2361
 2515DPPC   C4B51876  16.024  28.981  21.750 -0.2881  0.1194 -0.2997
 2516DPPC   NC351877  17.968  27.657  22.474 -0.0759  0.1159  0.0113
 2516DPPC   PO451878  17.811  27.917  22.843 -0.2042  0.4247 -0.3631
 2516DPPC   GL151879  18.193  28.158  22.657  0.0805 -0.0333 -0.1225
 2516DPPC   GL251880  18.384  27.999  22.452  0.2326 -0.1170 -0.0692
 2516DPPC   C1A51881  18.391  28.468  22.523 -0.0786 -0.6981  0.1782
 2516DPPC   C2A51882  18.540  28.892  22.560 -0.1238 -0.1143  0.2237
 2516DPPC   C3A51883  18.806  29.217  22.797 -0.1103  0.1824  0.1859
 2516DPPC   C4A51884  19.169  29.546  22.596  0.1133 -0.0720  0.2103
 2516DPPC   C1B51885  18.765  28.000  22.242 -0.0605  0.4189  0.1824
 2516DPPC   C2B51886  18.983  28.227  21.891  0.2277  0.2553 -0.2772
 2516DPPC   C3B51887  19.191  28.399  21.577  0.0906 -0.0585 -0.0424
 2516DPPC   C4B51888  19.296  28.494  21.170  0.1285 -0.2221  0.0723
 2517DPPC   NC351889  24.437  27.135   5.153 -0.0479 -0.1327  0.1579
 2517DPPC   PO451890  24.685  26.811   5.343  0.3754 -0.1203  0.0303
 2517DPPC   GL151891  24.623  26.634   5.675 -0.1313 -0.3492 -0.0084
 2517DPPC   GL251892  24.694  26.320   5.890 -0.4136 -0.0377 -0.2542
 2517DPPC   C1A51893  24.925  26.811   6.097  0.1662 -0.1708 -0.0316
 2517DPPC   C2A51894  24.982  26.902   6.551  0.0321  0.4274  0.1000
 2517DPPC   C3A51895  24.977  27.125   6.914 -0.0162 -0.4570 -0.2035
 2517DPPC   C4A51896  25.043  27.425   7.125  0.1057  0.0814 -0.2000
 2517DPPC   C1B51897  24.632  26.341   6.227 -0.0146  0.0678  0.0951
 2517DPPC   C2B51898  24.329  25.998   6.365  0.2601 -0.2823 -0.0285
 2517DPPC   C3B51899  24.192  25.746   6.642 -0.0427 -0.1783 -0.0077
 2517DPPC   C4B51900  24.203  25.252   6.672 -0.2526 -0.1584 -0.0810
 2518DPPC   NC351901  25.442  19.966  26.145  0.1342 -0.1430  0.1206
 2518DPPC   PO451902  25.221  19.794  26.431 -0.0128  0.1592  0.1905
 2518DPPC   GL151903  25.073  19.468  26.678  0.2920 -0.0053  0.4991
 2518DPPC   GL251904  25.278  19.577   0.020 -0.0687  0.0611 -0.2640
 2518DPPC   C1A51905  25.012  19.059  26.643 -0.1274  0.1071  0.0048
 2518DPPC   C2A51906  24.916  18.708   0.015 -0.0566  0.4653 -0.0388
 2518DPPC   C3A51907  24.827  18.130   0.099 -0.1140 -0.0067  0.1205
 2518DPPC   C4A51908  24.907  17.683  26.751 -0.3442  0.1193 -0.6332
 2518DPPC   C1B51909  25.180  19.149   0.171 -0.0268  0.1645  0.0880
 2518DPPC   C2B51910  25.281  18.729   0.322  0.2469 -0.1747  0.0394
 2518DPPC   C3B51911  24.942  18.529   0.499  0.0901 -0.2114  0.3719
 2518DPPC   C4B51912  24.846  18.231   0.906 -0.0803  0.0143 -0.1085
 2519DPPC   NC351913  22.620  22.478  25.940 -0.1366  0.2911 -0.3563
 2519DPPC   PO451914  22.610  22.478  25.456 -0.0559 -0.2901 -0.0458
 2519DPPC   GL151915  22.720  22.320  25.089 -0.2222  0.2681 -0.1535
 2519DPPC   GL251916  23.000  22.119  25.112  0.0073  0.1728 -0.2414
 2519DPPC   C1A51917  22.985  22.553  24.719  0.2181 -0.0041  0.4181
 2519DPPC   C2A51918  23.268  22.796  24.372 -0.1398  0.2115 -0.1287
 2519DPPC   C3A51919  23.415  23.178  24.349  0.1114 -0.0655  0.1970
 2519DPPC   C4A51920  23.488  23.448  23.987 -0.0290  0.1695 -0.1150
 2519DPPC   C1B51921  23.258  22.457  25.104 -0.0841  0.1019 -0.5468
 2519DPPC   C2B51922  23.629  22.634  24.874 -0.2415  0.0038  0.0439
 2519DPPC   C3B51923  23.807  22.947  24.647  0.0566 -0.2270  0.0568
 2519DPPC   C4B51924  23.946  23.111  24.107 -0.4228  0.0415  0.2517
 2520DPPC   NC351925  25.544  24.046   2.925 -0.0250 -0.3898  0.1766
 2520DPPC   PO451926  25.770  23.861   2.659 -0.2180 -0.0865  0.4008
 2520DPPC   GL151927  26.057  23.980   2.287 -0.0477 -0.3541 -0.0819
 2520DPPC   GL251928  25.829  24.006   2.044 -0.0237  0.2126 -0.1938
 2520DPPC   C1A51929  26.381  24.143   2.092  0.0513 -0.1192  0.2132
 2520DPPC   C2A51930  26.663  24.065   1.686  0.2545 -0.4765 -0.0984
 2520DPPC   C3A51931  27.098  24.087   1.545 -0.1196 -0.1721 -0.1482
 2520DPPC   C4A51932  27.278  24.189   1.122 -0.1496  0.3523  0.1355
 2520DPPC   C1B51933  26.043  24.040   1.727  0.1452  0.3763  0.1836
 2520DPPC   C2B51934  25.935  24.441   1.632  0.2833 -0.1498 -0.0922
 2520DPPC   C3B51935  25.950  24.762   1.446 -0.0618 -0.1095 -0.0172
 2520DPPC   C4B51936  25.911  25.190   1.489  0.0762  0.0955 -0.1777
 2521DPPC   NC351937  18.679  29.030   0.782 -0.1065  0.1070 -0.1627
 2521DPPC   PO451938  18.386  28.851   0.874  0.3421  0.2659 -0.0139
 2521DPPC   GL151939  17.950  29.071   0.903  0.2487  0.0336 -0.2625
 2521DPPC   GL251940  18.001  29.195   1.164 -0.1134  0.0722 -0.1483
 2521DPPC   C1A51941  17.532  29.217   0.990  0.1264 -0.1306 -0.2455
 2521DPPC   C2A51942  17.131  29.390   1.099 -0.1503 -0.0119 -0.3984
 2521DPPC   C3A51943  16.689  29.201   1.223 -0.1518  0.0416 -0.0010
 2521DPPC   C4A51944  16.317  29.111   1.500 -0.1719 -0.1496  0.0671
 2521DPPC   C1B51945  17.716  29.387   1.420 -0.2578 -0.1628 -0.2840
 2521DPPC   C2B51946  17.335  29.524   1.703  0.0745  0.3129 -0.1097
 2521DPPC   C3B51947  17.179  29.228   2.021  0.0521 -0.0606  0.0730
 2521DPPC   C4B51948  17.130  28.847   2.146 -0.3163  0.0604 -0.0388
 2522DPPC   NC351949  18.362  29.825  26.243  0.2878  0.1836  0.3837
 2522DPPC   PO451950  18.667  29.576  26.373 -0.3189 -0.0550  0.5099
 2522DPPC   GL151951  18.886  29.938  26.135  0.0163  0.2118 -0.0175
 2522DPPC   GL251952  18.696  30.031  25.917 -0.0040  0.1832  0.4363
 2522DPPC   C1A51953  19.261  29.925  25.958 -0.0907 -0.0413  0.2549
 2522DPPC   C2A51954  19.311  29.827  25.514  0.0712  0.0336 -0.0815
 2522DPPC   C3A51955  19.416  29.528  25.113 -0.1572 -0.0775 -0.1961
 2522DPPC   C4A51956  19.098  29.537  24.921  0.0182  0.1431  0.1230
 2522DPPC   C1B51957  18.910  30.194  25.624 -0.2712  0.1695 -0.1477
 2522DPPC   C2B51958  19.364  30.301  25.546 -0.0460  0.0433 -0.0467
 2522DPPC   C3B51959  19.761  30.170  25.712  0.1056 -0.2634  0.2223
 2522DPPC   C4B51960  20.176  29.900  25.716  0.0075  0.1866  0.2029
 2523DPPC   NC351961  26.110  23.377   4.082  0.1429 -0.3229  0.0824
 2523DPPC   PO451962  26.458  23.429   4.321  0.2505 -0.0915 -0.1055
 2523DPPC   GL151963  26.267  23.547   4.708  0.1799  0.3753 -0.1510
 2523DPPC   GL251964  26.030  23.356   4.682 -0.4393 -0.0937  0.0401
 2523DPPC   C1A51965  26.207  23.639   5.115  0.1400 -0.0835  0.0350
 2523DPPC   C2A51966  26.339  23.692   5.549 -0.2643  0.1634 -0.1195
 2523DPPC   C3A51967  26.127  23.551   5.994 -0.2474 -0.1497 -0.0995
 2523DPPC   C4A51968  25.792  23.410   6.101  0.0101  0.1520 -0.2187
 2523DPPC   C1B51969  26.027  23.162   5.049 -0.3679  0.2453  0.1825
 2523DPPC   C2B51970  26.193  23.168   5.444  0.0835 -0.1959  0.1825
 2523DPPC   C3B51971  26.065  23.015   5.945  0.0486  0.1072 -0.2607
 2523DPPC   C4B51972  25.801  22.874   6.139  0.2952  0.1636  0.0997
 2524DPPC   NC351973  18.216  29.098   0.476 -0.1289  0.1407 -0.3703
 2524DPPC   PO451974  17.832  28.919   0.360  0.0701  0.0087 -0.0701
 2524DPPC   GL151975  17.412  28.921   0.537  0.1019  0.0642 -0.1374
 2524DPPC   GL251976  17.151  28.717   0.424 -0.3077  0.1372 -0.1275
 2524DPPC   C1A51977  16.933  28.982   0.791 -0.2961 -0.0284  0.0462
 2524DPPC   C2A51978  16.605  28.736   0.894 -0.0712 -0.0150 -0.0481
 2524DPPC   C3A51979  16.495  28.724   1.304  0.0666 -0.2563  0.1750
 2524DPPC   C4A51980  16.777  28.632   1.747 -0.1712 -0.0172  0.0154
 2524DPPC   C1B51981  16.674  28.849   0.248  0.2143  0.2312  0.2372
 2524DPPC   C2B51982  16.546  29.259   0.276  0.1241  0.0076 -0.2503
 2524DPPC   C3B51983  16.657  29.683   0.264  0.3896 -0.2429  0.1468
 2524DPPC   C4B51984  17.056  29.824   0.374  0.0017  0.0445  0.1340
 2525DPPC   NC351985  20.107  29.094   2.614 -0.0754  0.4103  0.3902
 2525DPPC   PO451986  19.836  28.796   2.735 -0.2191 -0.0514 -0.2281
 2525DPPC   GL151987  19.865  29.016   3.141 -0.1393 -0.1057  0.1246
 2525DPPC   GL251988  20.147  28.856   3.150  0.0870  0.0950  0.0916
 2525DPPC   C1A51989  19.899  29.385   3.221  0.1158  0.0031 -0.1628
 2525DPPC   C2A51990  19.783  29.733   3.344 -0.2276 -0.1805  0.0016
 2525DPPC   C3A51991  19.754  30.105   3.581 -0.1201 -0.1410  0.2301
 2525DPPC   C4A51992  19.916  30.385   3.889  0.4246  0.2002  0.0414
 2525DPPC   C1B51993  20.259  29.120   3.467 -0.1543 -0.1785 -0.2282
 2525DPPC   C2B51994  19.986  29.378   3.814  0.0494 -0.0112 -0.2210
 2525DPPC   C3B51995  20.185  29.552   4.092 -0.2080 -0.1327 -0.0220
 2525DPPC   C4B51996  20.593  29.481   4.075  0.1300 -0.0706  0.2350
 2526DPPC   NC351997  22.826  21.046  23.291  0.0861  0.3039 -0.0125
 2526DPPC   PO451998  23.313  21.003  23.247  0.0816  0.2435  0.2874
 2526DPPC   GL151999  23.669  21.016  23.040  0.1953 -0.2160  0.0865
 2526DPPC   GL252000  23.884  20.818  23.012  0.0573 -0.4369  0.0567
 2526DPPC   C1A52001  23.758  21.153  22.595  0.0288  0.0164 -0.0947
 2526DPPC   C2A52002  23.762  21.371  22.104  0.2755  0.3392 -0.0044
 2526DPPC   C3A52003  23.785  21.777  21.782 -0.2995 -0.1112  0.1858
 2526DPPC   C4A52004  23.900  22.169  21.821 -0.1068  0.2629 -0.2993
 2526DPPC   C1B52005  24.096  21.242  23.222  0.2591  0.1229  0.1095
 2526DPPC   C2B52006  24.299  21.572  23.203 -0.0019  0.2515  0.3666
 2526DPPC   C3B52007  24.401  21.906  23.376  0.0849  0.1230 -0.0182
 2526DPPC   C4B52008  24.786  22.004  23.626 -0.0639 -0.0321 -0.3126
 2527DPPC   NC352009  25.568  21.378  26.749  0.1249 -0.0936  0.0844
 2527DPPC   PO452010  26.006  21.372  26.773 -0.0265 -0.5790 -0.0437
 2527DPPC   GL152011  26.241  21.668  26.522 -0.0225 -0.0820 -0.0120
 2527DPPC   GL252012  26.484  21.940  26.575 -0.2200  0.2091 -0.0828
 2527DPPC   C1A52013  26.237  21.748  26.100 -0.0050  0.0055  0.0040
 2527DPPC   C2A52014  26.221  22.072  25.832 -0.0804  0.1694 -0.1058
 2527DPPC   C3A52015  26.445  22.068  25.411  0.1587  0.1615  0.1883
 2527DPPC   C4A52016  26.840  22.305  25.379  0.1108  0.1414 -0.0576
 2527DPPC   C1B52017  26.633  22.118  26.187 -0.1323 -0.3154  0.0330
 2527DPPC   C2B52018  26.784  21.898  25.844 -0.0486 -0.0457  0.1559
 2527DPPC   C3B52019  26.896  21.794  25.326  0.3007  0.3600 -0.0001
 2527DPPC   C4B52020  26.691  22.018  24.961  0.0672  0.0335 -0.1798
 2528DPPC   NC352021  24.213  25.366   4.173  0.2694  0.2639  0.4140
 2528DPPC   PO452022  24.003  25.394   4.587  0.0616 -0.2160 -0.1452
 2528DPPC   GL152023  23.690  25.387   4.994  0.1705  0.2892  0.0238
 2528DPPC   GL252024  23.573  25.141   4.899 -0.0837  0.1448 -0.0859
 2528DPPC   C1A52025  23.316  25.318   5.326 -0.1021 -0.1451 -0.1744
 2528DPPC   C2A52026  23.138  25.391   5.744 -0.0930  0.3420 -0.2679
 2528DPPC   C3A52027  22.932  25.146   6.148  0.1601 -0.0934  0.0245
 2528DPPC   C4A52028  22.921  24.746   6.327  0.0655 -0.0319 -0.1490
 2528DPPC   C1B52029  23.256  24.909   5.001 -0.1029  0.1063 -0.0713
 2528DPPC   C2B52030  23.119  24.545   5.182  0.0931  0.3550 -0.0501
 2528DPPC   C3B52031  23.156  24.160   5.411  0.3077  0.1086  0.4475
 2528DPPC   C4B52032  22.881  23.768   5.620  0.2065  0.0065 -0.0258
 2529DPPC   NC352033  23.833  26.310   5.167 -0.0900 -0.0050  0.0508
 2529DPPC   PO452034  23.644  26.712   5.021  0.3729  0.0702 -0.0271
 2529DPPC   GL152035  23.651  26.730   5.474  0.1919  0.3527 -0.4674
 2529DPPC   GL252036  23.634  26.437   5.600  0.1972 -0.1031  0.2579
 2529DPPC   C1A52037  23.505  26.776   5.920 -0.0457  0.0030  0.0018
 2529DPPC   C2A52038  23.431  26.516   6.369 -0.1219  0.0978 -0.0049
 2529DPPC   C3A52039  23.346  26.171   6.549  0.2742  0.0360 -0.2042
 2529DPPC   C4A52040  23.187  25.830   6.773 -0.2811 -0.5642  0.1588
 2529DPPC   C1B52041  23.645  26.256   5.965  0.2184 -0.0672 -0.0769
 2529DPPC   C2B52042  23.847  26.092   6.332 -0.0202  0.0089  0.1815
 2529DPPC   C3B52043  23.751  25.693   6.417 -0.2146  0.0787  0.0457
 2529DPPC   C4B52044  23.494  25.402   6.621  0.0974 -0.1383 -0.2483
 2530DPPC   NC352045  20.248  21.348  23.849  0.0707  0.1706  0.0013
 2530DPPC   PO452046  20.617  21.607  24.059  0.0072  0.0554 -0.1368
 2530DPPC   GL152047  20.386  21.252  24.324 -0.0628 -0.2497  0.0497
 2530DPPC   GL252048  20.208  20.950  24.173  0.1119  0.2110  0.3145
 2530DPPC   C1A52049  20.074  21.119  24.669  0.1514 -0.2552 -0.0203
 2530DPPC   C2A52050  19.762  21.039  24.852 -0.0540  0.1070  0.0003
 2530DPPC   C3A52051  19.425  20.848  25.042 -0.3040  0.3435 -0.0692
 2530DPPC   C4A52052  19.269  20.451  24.991  0.0832 -0.0796  0.0822
 2530DPPC   C1B52053  20.236  20.670  24.488 -0.1912 -0.0636 -0.0034
 2530DPPC   C2B52054  19.963  20.566  24.854 -0.4132 -0.1095  0.0109
 2530DPPC   C3B52055  19.750  20.605  25.278  0.1734  0.0859 -0.1502
 2530DPPC   C4B52056  19.610  20.822  25.599 -0.0388  0.1023  0.0645
 2531DPPC   NC352057  23.441  21.188  24.311  0.1836 -0.5690  0.1746
 2531DPPC   PO452058  22.989  21.319  24.158  0.1832  0.1121  0.0826
 2531DPPC   GL152059  23.334  21.572  24.016  0.1802  0.1162 -0.1759
 2531DPPC   GL252060  23.323  21.872  24.111 -0.2422 -0.2610  0.1552
 2531DPPC   C1A52061  23.724  21.651  23.839  0.1330  0.0519  0.1515
 2531DPPC   C2A52062  23.881  21.697  23.430  0.0469  0.0044 -0.2352
 2531DPPC   C3A52063  23.724  22.074  23.198 -0.1273 -0.1364  0.0678
 2531DPPC   C4A52064  23.292  22.191  23.317  0.1120  0.0181 -0.1722
 2531DPPC   C1B52065  23.574  22.152  23.849 -0.1188 -0.1463 -0.4173
 2531DPPC   C2B52066  23.986  22.203  23.622 -0.0401  0.0686  0.2367
 2531DPPC   C3B52067  24.390  22.391  23.347 -0.2135  0.0927 -0.3024
 2531DPPC   C4B52068  24.523  22.714  23.098  0.2983 -0.1506  0.0950
 2532DPPC   NC352069  25.695  20.919   1.870  0.0964  0.1625 -0.1167
 2532DPPC   PO452070  25.408  21.005   1.534  0.2958  0.1374 -0.1930
 2532DPPC   GL152071  25.195  20.827   1.829 -0.0909 -0.0972 -0.1534
 2532DPPC   GL252072  25.211  20.461   1.699 -0.0902 -0.1429 -0.2695
 2532DPPC   C1A52073  25.066  20.488   2.208 -0.2381 -0.0611  0.1079
 2532DPPC   C2A52074  24.952  20.141   2.411 -0.1648 -0.0266  0.1112
 2532DPPC   C3A52075  24.542  19.972   2.619  0.1212 -0.0867 -0.2273
 2532DPPC   C4A52076  24.270  19.746   2.816  0.1646 -0.0307  0.0076
 2532DPPC   C1B52077  24.820  20.207   1.883  0.0421  0.0553  0.1853
 2532DPPC   C2B52078  24.477  20.010   2.122  0.3289 -0.1155  0.3329
 2532DPPC   C3B52079  24.058  19.922   2.399 -0.0662  0.1736  0.2396
 2532DPPC   C4B52080  23.707  19.763   2.600 -0.3834 -0.0791 -0.1040
 2533DPPC   NC352081  18.395  28.982   1.451 -0.1011  0.0803 -0.2108
 2533DPPC   PO452082  18.459  29.369   1.151  0.0322 -0.2748 -0.1422
 2533DPPC   GL152083  18.174  29.599   1.339 -0.0054 -0.1400 -0.1372
 2533DPPC   GL252084  18.466  29.906   1.160 -0.2351  0.1621 -0.4326
 2533DPPC   C1A52085  17.881  29.961   1.492  0.0182 -0.1302  0.3166
 2533DPPC   C2A52086  17.502  30.083   1.764 -0.1498  0.1679 -0.0086
 2533DPPC   C3A52087  17.340  30.094   2.069  0.1055 -0.3215  0.1808
 2533DPPC   C4A52088  17.290  29.995   2.511  0.0601 -0.0850 -0.0388
 2533DPPC   C1B52089  18.373  30.287   1.390 -0.3608  0.1169 -0.1547
 2533DPPC   C2B52090  18.279  30.603   1.580  0.5605  0.2432 -0.1636
 2533DPPC   C3B52091  17.906  30.898   1.594  0.3446  0.0960 -0.0392
 2533DPPC   C4B52092  17.635  30.908   1.790 -0.1477  0.0492  0.1794
 2534DPPC   NC352093  20.247  21.622  22.950 -0.1926  0.0767  0.1678
 2534DPPC   PO452094  20.075  21.429  23.349  0.0992 -0.0214 -0.0317
 2534DPPC   GL152095  19.682  21.164  23.489 -0.2507  0.0135  0.0881
 2534DPPC   GL252096  19.797  21.061  23.868 -0.0075  0.1593  0.1178
 2534DPPC   C1A52097  19.265  21.165  23.487  0.1580  0.0972  0.1294
 2534DPPC   C2A52098  18.828  21.030  23.577 -0.1882 -0.0140 -0.0298
 2534DPPC   C3A52099  18.442  21.109  23.511 -0.1276 -0.0758 -0.1092
 2534DPPC   C4A52100  18.048  21.257  23.506  0.0046 -0.5945  0.4138
 2534DPPC   C1B52101  19.492  20.808  23.796  0.3064 -0.0631  0.0115
 2534DPPC   C2B52102  19.432  20.404  23.972 -0.2577  0.4278 -0.0066
 2534DPPC   C3B52103  19.188  20.144  24.330  0.3960 -0.1109 -0.0683
 2534DPPC   C4B52104  18.917  20.144  24.673 -0.2341  0.0441  0.1862
 2535DPPC   NC352105  24.105  20.454  26.681  0.0834 -0.1030 -0.1284
 2535DPPC   PO452106  24.033  20.480   0.162  0.1961 -0.0737  0.0481
 2535DPPC   GL152107  24.022  20.091   0.231 -0.1257  0.0534 -0.5644
 2535DPPC   GL252108  23.733  20.009   0.334  0.0204  0.3877 -0.1280
 2535DPPC   C1A52109  24.183  19.632   0.276  0.2367 -0.1368  0.1032
 2535DPPC   C2A52110  24.223  19.155   0.210 -0.0632  0.4445 -0.0691
 2535DPPC   C3A52111  24.142  18.844   0.483 -0.1841 -0.3408  0.2255
 2535DPPC   C4A52112  24.151  18.389   0.491  0.0245 -0.1461  0.2636
 2535DPPC   C1B52113  23.467  19.746   0.500  0.1905 -0.2563  0.1951
 2535DPPC   C2B52114  23.259  19.597   0.800 -0.1308  0.0493 -0.2057
 2535DPPC   C3B52115  22.985  19.399   1.093 -0.3490 -0.1378 -0.1387
 2535DPPC   C4B52116  22.767  19.111   1.203  0.1827 -0.2069  0.0313
 2536DPPC   NC352117  22.576  21.869   0.399 -0.3561 -0.0204 -0.1465
 2536DPPC   PO452118  22.299  22.049   0.660 -0.3526  0.2607 -0.0675
 2536DPPC   GL152119  22.114  22.034   1.087 -0.1202 -0.2304  0.1702
 2536DPPC   GL252120  21.962  22.402   1.077 -0.0802  0.0897 -0.1112
 2536DPPC   C1A52121  21.917  22.009   1.591  0.0814 -0.1695  0.1302
 2536DPPC   C2A52122  21.751  22.020   1.966 -0.0765  0.5728 -0.0764
 2536DPPC   C3A52123  21.603  21.761   2.203 -0.2349 -0.0504 -0.4167
 2536DPPC   C4A52124  21.546  21.422   2.498  0.2273 -0.3060 -0.1380
 2536DPPC   C1B52125  21.642  22.147   1.161  0.0184  0.0792  0.3115
 2536DPPC   C2B52126  21.417  22.033   1.534 -0.0093 -0.1857 -0.0916
 2536DPPC   C3B52127  21.106  21.714   1.869 -0.0210 -0.0516  0.1304
 2536DPPC   C4B52128  20.720  21.480   2.004 -0.1303  0.3063  0.3160
 2537DPPC   NC352129  25.586  22.052   0.618  0.0798  0.0841 -0.0474
 2537DPPC   PO452130  25.245  22.266   0.332  0.2030  0.1761  0.1807
 2537DPPC   GL152131  25.154  22.601   0.009 -0.1015  0.0376 -0.1276
 2537DPPC   GL252132  24.916  22.779   0.107  0.2210  0.2358 -0.2850
 2537DPPC   C1A52133  25.380  22.894  26.665  0.1254 -0.1690 -0.0593
 2537DPPC   C2A52134  25.546  23.249  26.531  0.0259  0.0092  0.0331
 2537DPPC   C3A52135  25.866  23.398  26.217 -0.1742  0.1407 -0.0669
 2537DPPC   C4A52136  26.279  23.572  25.951 -0.1064  0.2613 -0.0776
 2537DPPC   C1B52137  24.931  23.199  26.831 -0.2503  0.4021  0.0527
 2537DPPC   C2B52138  24.851  23.634  26.648 -0.0401  0.0446 -0.3445
 2537DPPC   C3B52139  24.855  24.161  26.348 -0.0061 -0.0500  0.3829
 2537DPPC   C4B52140  24.759  24.608  26.256 -0.3696 -0.1964  0.0739
 2538DPPC   NC352141  23.133  21.463   0.798  0.0485  0.0274  0.2287
 2538DPPC   PO452142  22.832  21.453   0.546 -0.2429  0.1501  0.0747
 2538DPPC   GL152143  22.670  21.233   0.810  0.1750  0.1420  0.3242
 2538DPPC   GL252144  22.772  20.983   0.843 -0.1787  0.0401 -0.1599
 2538DPPC   C1A52145  22.318  21.058   1.043 -0.1011  0.2827  0.0645
 2538DPPC   C2A52146  22.124  20.720   1.334 -0.1047 -0.1710  0.0028
 2538DPPC   C3A52147  22.042  20.601   1.712 -0.0049  0.2286 -0.0355
 2538DPPC   C4A52148  21.670  20.574   2.100  0.1739 -0.0028  0.1027
 2538DPPC   C1B52149  22.961  20.640   0.604 -0.0233 -0.0972  0.0053
 2538DPPC   C2B52150  22.760  20.252   0.479 -0.2909 -0.2107 -0.1096
 2538DPPC   C3B52151  22.398  20.013   0.587  0.0681  0.3529  0.1587
 2538DPPC   C4B52152  22.201  19.859   0.890  0.3146  0.0514  0.3689
 2539DPPC   NC352153  20.993  22.945   0.196  0.2787  0.0271 -0.0965
 2539DPPC   PO452154  20.667  23.303   0.385 -0.3659  0.1594  0.2572
 2539DPPC   GL152155  20.693  22.849   0.611  0.0902  0.1295  0.1822
 2539DPPC   GL252156  20.671  22.534   0.445  0.1331 -0.0572  0.4255
 2539DPPC   C1A52157  20.434  22.648   0.965 -0.1167  0.0064 -0.3787
 2539DPPC   C2A52158  20.130  22.524   1.264 -0.1257  0.2533  0.3794
 2539DPPC   C3A52159  19.840  22.316   1.598  0.3201 -0.1739  0.1718
 2539DPPC   C4A52160  19.557  22.028   1.864 -0.1940 -0.3439 -0.0741
 2539DPPC   C1B52161  20.439  22.178   0.476  0.0828 -0.1092 -0.0281
 2539DPPC   C2B52162  20.339  21.731   0.439  0.0084  0.0377  0.0193
 2539DPPC   C3B52163  20.075  21.380   0.454  0.0309 -0.2247 -0.0186
 2539DPPC   C4B52164  19.887  20.985   0.565 -0.0021 -0.0825 -0.1860
 2540DPPC   NC352165  19.656  25.625  25.343 -0.0904 -0.4039 -0.0311
 2540DPPC   PO452166  20.092  25.474  25.032  0.3502 -0.0964  0.0681
 2540DPPC   GL152167  20.197  25.889  24.713 -0.3422  0.1370  0.2067
 2540DPPC   GL252168  20.469  25.841  24.982 -0.0148  0.3701  0.1139
 2540DPPC   C1A52169  20.678  26.051  24.506  0.1323 -0.2136  0.2441
 2540DPPC   C2A52170  21.055  26.167  24.373 -0.3994 -0.0598  0.0889
 2540DPPC   C3A52171  21.444  25.972  24.571  0.0097 -0.0631  0.0167
 2540DPPC   C4A52172  21.607  25.569  24.750  0.2222  0.0140  0.1105
 2540DPPC   C1B52173  20.534  26.168  25.051 -0.0238  0.0962  0.1255
 2540DPPC   C2B52174  20.813  26.514  25.141  0.1199 -0.0722  0.0632
 2540DPPC   C3B52175  21.042  26.705  24.967  0.0329 -0.0731  0.0755
 2540DPPC   C4B52176  21.551  26.843  24.991  0.0999 -0.0091  0.1557
 2541DPPC   NC352177  25.156  19.206  24.449 -0.3416  0.1207  0.1431
 2541DPPC   PO452178  25.343  18.757  24.401  0.2566  0.3066 -0.1147
 2541DPPC   GL152179  25.483  18.340  24.382  0.0916 -0.0303 -0.1161
 2541DPPC   GL252180  25.643  18.154  24.553  0.4733 -0.1260  0.0433
 2541DPPC   C1A52181  25.382  18.076  24.114  0.2683 -0.2949  0.1885
 2541DPPC   C2A52182  25.536  17.847  23.815  0.1499 -0.2127 -0.1815
 2541DPPC   C3A52183  25.902  17.583  23.727  0.0319 -0.1354 -0.0192
 2541DPPC   C4A52184  26.294  17.343  23.747 -0.2644  0.0612 -0.0527
 2541DPPC   C1B52185  25.881  18.024  24.888  0.0067  0.2376 -0.2021
 2541DPPC   C2B52186  25.690  17.849  25.194  0.0144 -0.1513 -0.2404
 2541DPPC   C3B52187  25.471  17.549  25.435 -0.2630  0.1085 -0.1994
 2541DPPC   C4B52188  25.202  17.442  25.535 -0.1607 -0.1283 -0.0712
 2542DPPC   NC352189  27.032  25.729   4.820 -0.1864 -0.1228  0.0893
 2542DPPC   PO452190  27.090  25.258   4.870  0.0772 -0.0724 -0.2328
 2542DPPC   GL152191  27.493  25.591   4.791  0.0181  0.2935  0.2495
 2542DPPC   GL252192  27.568  25.411   5.007  0.3501 -0.1428 -0.1247
 2542DPPC   C1A52193  27.824  25.883   4.894  0.2003 -0.1045 -0.0742
 2542DPPC   C2A52194  27.906  26.399   4.957 -0.3574  0.0614 -0.0320
 2542DPPC   C3A52195  27.674  26.837   5.090  0.0948  0.2039 -0.1350
 2542DPPC   C4A52196  27.642  27.157   5.477  0.0999 -0.2916  0.0386
 2542DPPC   C1B52197  27.777  25.485   5.314 -0.0200 -0.1547  0.1076
 2542DPPC   C2B52198  27.753  25.873   5.528  0.0983  0.1910 -0.1211
 2542DPPC   C3B52199  27.639  26.284   5.387 -0.2030  0.6926 -0.4113
 2542DPPC   C4B52200  27.556  26.647   5.594 -0.2570 -0.1909  0.2807
 2543DPPC   NC352201  25.514  18.597  24.914  0.0868 -0.0911 -0.1142
 2543DPPC   PO452202  25.647  18.967  25.007  0.0414  0.0575 -0.1376
 2543DPPC   GL152203  25.879  18.754  25.244  0.0562 -0.2920 -0.1135
 2543DPPC   GL252204  25.900  18.713  25.525  0.1816  0.0323  0.0347
 2543DPPC   C1A52205  25.876  18.279  25.320  0.2162  0.1218  0.0227
 2543DPPC   C2A52206  26.077  17.920  25.586  0.2956 -0.0064 -0.0261
 2543DPPC   C3A52207  26.434  17.924  25.761  0.2666  0.0887 -0.0605
 2543DPPC   C4A52208  26.822  18.168  25.696  0.1915 -0.1531 -0.1018
 2543DPPC   C1B52209  26.324  18.509  25.444 -0.0228  0.1471 -0.0165
 2543DPPC   C2B52210  26.773  18.509  25.225 -0.1082  0.1034 -0.0420
 2543DPPC   C3B52211  27.167  18.599  25.207  0.0740 -0.0606 -0.0439
 2543DPPC   C4B52212  27.337  18.948  25.061  0.0696 -0.0733 -0.3678
 2544DPPC   NC352213  19.149  23.838  25.041  0.1846 -0.2624 -0.2014
 2544DPPC   PO452214  18.931  23.893  24.710 -0.1282  0.2440  0.0775
 2544DPPC   GL152215  18.543  23.585  24.807  0.1409  0.1760  0.0148
 2544DPPC   GL252216  18.644  23.396  25.109 -0.0647 -0.0595 -0.1371
 2544DPPC   C1A52217  18.108  23.398  24.968  0.5736 -0.2064 -0.1234
 2544DPPC   C2A52218  17.886  23.078  25.082 -0.0792 -0.1096  0.2693
 2544DPPC   C3A52219  17.517  22.789  25.189 -0.4328  0.2546 -0.1455
 2544DPPC   C4A52220  17.257  22.308  25.076  0.2495  0.0686 -0.0437
 2544DPPC   C1B52221  18.274  23.295  25.389 -0.3629  0.0020 -0.3446
 2544DPPC   C2B52222  18.054  22.955  25.602  0.2022 -0.1437  0.1979
 2544DPPC   C3B52223  17.949  22.641  25.963 -0.2958  0.2376  0.4365
 2544DPPC   C4B52224  17.903  22.180  26.182  0.0406 -0.0377 -0.0098
 2545DPPC   NC352225  22.247  18.882  20.486 -0.0778 -0.1585 -0.1376
 2545DPPC   PO452226  22.031  19.229  20.623 -0.0697  0.1007  0.0753
 2545DPPC   GL152227  21.917  19.077  20.157 -0.1757 -0.3281  0.1697
 2545DPPC   GL252228  22.158  19.058  19.901 -0.3208 -0.4209 -0.0579
 2545DPPC   C1A52229  21.796  18.706  19.915  0.0926  0.1001 -0.1432
 2545DPPC   C2A52230  21.846  18.390  19.595  0.0363  0.0525  0.4195
 2545DPPC   C3A52231  21.553  18.204  19.326 -0.0027  0.0425 -0.0087
 2545DPPC   C4A52232  21.360  17.765  19.494 -0.0260  0.0896  0.3819
 2545DPPC   C1B52233  22.562  19.089  19.576  0.1078 -0.0180  0.3410
 2545DPPC   C2B52234  22.788  19.320  19.271  0.1779  0.2203  0.0260
 2545DPPC   C3B52235  23.085  19.327  18.963 -0.1123  0.0429 -0.0006
 2545DPPC   C4B52236  23.025  19.324  18.500  0.1975 -0.4835  0.1126
 2546DPPC   NC352237  26.766  25.086   3.818  0.0581  0.1097 -0.2707
 2546DPPC   PO452238  27.285  24.894   3.761  0.0849 -0.0430 -0.1298
 2546DPPC   GL152239  27.693  24.972   3.620  0.1186  0.2554  0.1098
 2546DPPC   GL252240  27.966  24.844   3.823  0.2261  0.1990 -0.1188
 2546DPPC   C1A52241  27.733  25.358   3.549  0.0508 -0.1143  0.1555
 2546DPPC   C2A52242  27.824  25.788   3.756  0.0796  0.1175  0.0009
 2546DPPC   C3A52243  28.143  26.115   3.738  0.2517 -0.4574  0.0258
 2546DPPC   C4A52244  28.219  26.540   4.013  0.4533 -0.2289  0.1399
 2546DPPC   C1B52245  28.414  24.998   4.024 -0.0258  0.2401 -0.0234
 2546DPPC   C2B52246  28.756  24.853   4.020 -0.0257 -0.2129  0.3659
 2546DPPC   C3B52247  29.244  24.910   3.944  0.0894 -0.0833 -0.0479
 2546DPPC   C4B52248  29.669  24.986   3.784 -0.0641 -0.0219 -0.0930
 2547DPPC   NC352249  23.937  27.409   4.095  0.4137  0.0889  0.0798
 2547DPPC   PO452250  24.351  27.484   4.093  0.1218  0.2690 -0.1246
 2547DPPC   GL152251  24.686  27.578   3.815  0.2111  0.0655  0.5042
 2547DPPC   GL252252  24.641  27.808   3.680  0.0034 -0.1230 -0.0335
 2547DPPC   C1A52253  25.102  27.518   3.768 -0.0128 -0.0992 -0.2349
 2547DPPC   C2A52254  25.295  27.888   3.841 -0.2956 -0.2081  0.0470
 2547DPPC   C3A52255  25.240  28.252   4.142 -0.2186 -0.0168  0.2165
 2547DPPC   C4A52256  25.138  28.671   4.060  0.2498  0.0203  0.4185
 2547DPPC   C1B52257  24.963  27.981   3.467  0.1385  0.2910  0.1790
 2547DPPC   C2B52258  25.232  28.354   3.637 -0.2076 -0.0225 -0.2363
 2547DPPC   C3B52259  25.607  28.526   3.769  0.2134 -0.1245  0.2229
 2547DPPC   C4B52260  25.819  28.582   4.151 -0.2406  0.1105 -0.1101
 2548DPPC   NC352261  21.338  20.287  23.511 -0.0405 -0.0390  0.2286
 2548DPPC   PO452262  21.728  20.294  23.472 -0.1366 -0.1609  0.2326
 2548DPPC   GL152263  21.749  19.882  23.798  0.0121  0.0625 -0.0309
 2548DPPC   GL252264  21.432  19.821  23.780 -0.1942  0.0919 -0.1677
 2548DPPC   C1A52265  21.548  19.368  23.689  0.0565  0.0749 -0.2372
 2548DPPC   C2A52266  21.311  19.038  23.961 -0.1798 -0.1943 -0.0569
 2548DPPC   C3A52267  21.061  18.971  24.335 -0.0203 -0.0246 -0.3060
 2548DPPC   C4A52268  20.661  18.686  24.478 -0.1835 -0.4546 -0.1602
 2548DPPC   C1B52269  21.090  19.561  23.886 -0.0499  0.1964  0.1284
 2548DPPC   C2B52270  20.783  19.253  23.767  0.4734  0.1413  0.0100
 2548DPPC   C3B52271  20.617  18.927  24.036 -0.2102  0.0012  0.1357
 2548DPPC   C4B52272  20.366  18.448  24.067  0.2150 -0.0505  0.2443
 2549DPPC   NC352273  25.030  25.673   5.105  0.2800 -0.0545  0.2531
 2549DPPC   PO452274  25.380  25.734   5.348 -0.0554 -0.0935  0.0578
 2549DPPC   GL152275  25.413  25.843   5.842  0.3124  0.3365  0.0698
 2549DPPC   GL252276  25.325  25.495   5.949  0.0662 -0.0837 -0.1272
 2549DPPC   C1A52277  25.412  26.230   6.116 -0.0378  0.0964  0.0619
 2549DPPC   C2A52278  25.129  26.446   6.365  0.3128 -0.1512 -0.0454
 2549DPPC   C3A52279  24.955  26.406   6.699 -0.0422  0.3265  0.2289
 2549DPPC   C4A52280  24.928  26.234   7.060 -0.0925 -0.1236 -0.1668
 2549DPPC   C1B52281  25.305  25.653   6.338 -0.1610 -0.1755 -0.1711
 2549DPPC   C2B52282  25.288  26.005   6.554 -0.1675  0.0590 -0.2579
 2549DPPC   C3B52283  25.485  26.238   6.896  0.2276 -0.1223  0.1120
 2549DPPC   C4B52284  25.683  26.447   7.088 -0.1791 -0.1618  0.0565
 2550DPPC   NC352285  26.331  24.484   3.205 -0.1157 -0.4746 -0.0224
 2550DPPC   PO452286  26.799  24.260   3.363 -0.1474 -0.0713  0.1024
 2550DPPC   GL152287  27.128  24.352   3.106 -0.3383  0.0496  0.1537
 2550DPPC   GL252288  27.374  24.548   3.220  0.2284  0.2411  0.0415
 2550DPPC   C1A52289  27.316  24.467   2.714  0.1223  0.2594 -0.0125
 2550DPPC   C2A52290  27.778  24.465   2.587  0.1812 -0.1614 -0.2558
 2550DPPC   C3A52291  28.127  24.540   2.291  0.1393 -0.0913  0.4718
 2550DPPC   C4A52292  28.448  24.658   1.984  0.1711  0.2260  0.3206
 2550DPPC   C1B52293  27.709  24.823   3.070  0.2453 -0.2130 -0.1047
 2550DPPC   C2B52294  28.016  25.111   3.211 -0.2002 -0.2658  0.0691
 2550DPPC   C3B52295  28.428  25.531   3.183  0.0016 -0.2648  0.1750
 2550DPPC   C4B52296  28.553  25.808   3.514 -0.0034 -0.0688  0.1646
 2551DPPC   NC352297  17.692  27.656  21.605 -0.1626 -0.2944 -0.0463
 2551DPPC   PO452298  17.778  27.896  21.234 -0.1867 -0.0924 -0.2807
 2551DPPC   GL152299  18.151  28.184  21.201  0.1547 -0.2241 -0.2345
 2551DPPC   GL252300  18.029  28.484  21.115  0.1232 -0.2213 -0.0739
 2551DPPC   C1A52301  18.437  28.276  20.945  0.0689 -0.0732  0.4490
 2551DPPC   C2A52302  18.638  28.497  20.636 -0.1355 -0.2880  0.1450
 2551DPPC   C3A52303  18.675  28.515  20.244  0.2664  0.2867  0.1398
 2551DPPC   C4A52304  18.876  28.895  20.316 -0.1038 -0.0528  0.3844
 2551DPPC   C1B52305  17.979  28.871  20.909 -0.0248 -0.0449  0.2455
 2551DPPC   C2B52306  18.234  29.247  21.136 -0.0826 -0.3674  0.0085
 2551DPPC   C3B52307  18.504  29.317  21.506 -0.0966  0.0616 -0.0611
 2551DPPC   C4B52308  18.486  29.120  21.923 -0.0074 -0.1136 -0.1032
 2552DPPC   NC352309  24.555  27.703   5.091  0.1839  0.0391  0.2545
 2552DPPC   PO452310  24.268  27.984   5.214 -0.1342  0.0143 -0.2257
 2552DPPC   GL152311  24.678  28.246   5.243 -0.0493 -0.2279 -0.2357
 2552DPPC   GL252312  24.463  28.450   5.394  0.3182 -0.1627  0.0792
 2552DPPC   C1A52313  24.918  28.591   5.134  0.0407 -0.0379 -0.2835
 2552DPPC   C2A52314  25.121  28.995   5.291 -0.5370 -0.1120  0.2032
 2552DPPC   C3A52315  25.061  29.391   5.182  0.1215  0.3012  0.0312
 2552DPPC   C4A52316  25.232  29.854   5.219 -0.2214  0.0119  0.0549
 2552DPPC   C1B52317  24.274  28.495   5.775 -0.1076  0.2240  0.2175
 2552DPPC   C2B52318  24.221  28.640   6.227  0.2955 -0.1831  0.4400
 2552DPPC   C3B52319  24.420  28.683   6.595 -0.2462 -0.0463 -0.3070
 2552DPPC   C4B52320  24.623  28.824   7.037 -0.4964  0.0478 -0.0672
 2553DPPC   NC352321  22.587  24.043   0.156  0.0078 -0.1477  0.0582
 2553DPPC   PO452322  22.255  24.069  26.848  0.1050 -0.1746  0.0360
 2553DPPC   GL152323  22.489  24.329  26.682 -0.0782 -0.3280 -0.1349
 2553DPPC   GL252324  22.716  24.435  26.853  0.0819 -0.0400  0.4476
 2553DPPC   C1A52325  22.409  24.723  26.494  0.1136 -0.1876  0.0588
 2553DPPC   C2A52326  22.183  25.073  26.109  0.0434  0.1783  0.2033
 2553DPPC   C3A52327  22.417  25.201  25.833 -0.1017  0.2967 -0.0285
 2553DPPC   C4A52328  22.695  25.225  25.589  0.1909 -0.0407 -0.0175
 2553DPPC   C1B52329  23.020  24.259  26.595 -0.2314 -0.0665  0.1643
 2553DPPC   C2B52330  23.344  24.314  26.434 -0.0360 -0.3750  0.1806
 2553DPPC   C3B52331  23.609  24.646  26.378  0.1439  0.0136  0.0329
 2553DPPC   C4B52332  23.768  24.859  26.699  0.0277 -0.1741  0.0686
 2554DPPC   NC352333  20.708  27.370   1.972 -0.1609  0.0267  0.4670
 2554DPPC   PO452334  20.904  27.069   1.648 -0.3093  0.2619 -0.0197
 2554DPPC   GL152335  21.132  27.458   1.400 -0.2734  0.2888 -0.1039
 2554DPPC   GL252336  21.115  27.764   1.389 -0.1308  0.2203 -0.2127
 2554DPPC   C1A52337  21.028  27.712   0.905  0.0729  0.0388 -0.1072
 2554DPPC   C2A52338  21.042  27.786   0.551 -0.1689 -0.1009  0.0876
 2554DPPC   C3A52339  21.280  27.972   0.223 -0.1011  0.0730 -0.1548
 2554DPPC   C4A52340  21.311  28.300   0.038 -0.2012 -0.0452 -0.1180
 2554DPPC   C1B52341  21.474  27.759   1.160 -0.1955 -0.0620  0.0713
 2554DPPC   C2B52342  21.758  28.100   1.037  0.0843 -0.1021 -0.1681
 2554DPPC   C3B52343  22.081  28.150   0.806 -0.0145  0.1070  0.1177
 2554DPPC   C4B52344  22.365  28.213   0.602 -0.2493 -0.2962  0.1739
 2555DPPC   NC352345  18.707  23.740  19.499 -0.2675  0.0252  0.0504
 2555DPPC   PO452346  18.466  23.656  19.194  0.1429  0.2353 -0.3550
 2555DPPC   GL152347  18.057  23.717  19.184  0.0993 -0.1067  0.0704
 2555DPPC   GL252348  17.861  23.682  18.967 -0.1323 -0.1755  0.2559
 2555DPPC   C1A52349  17.592  23.604  19.383 -0.2534 -0.3110  0.0888
 2555DPPC   C2A52350  17.299  23.282  19.268  0.3135  0.0886  0.0815
 2555DPPC   C3A52351  16.994  23.019  19.070 -0.0418  0.0607  0.0420
 2555DPPC   C4A52352  16.755  22.836  18.859 -0.0814  0.2291  0.2140
 2555DPPC   C1B52353  17.609  24.013  18.889 -0.2018 -0.3005  0.0743
 2555DPPC   C2B52354  17.311  24.190  18.789  0.0105  0.0802  0.3737
 2555DPPC   C3B52355  16.955  24.250  19.042 -0.0922 -0.3524  0.1209
 2555DPPC   C4B52356  16.590  24.027  19.161  0.0063  0.3360 -0.0500
 2556DPPC   NC352357  19.229  24.786  26.835 -0.1051 -0.0272  0.2189
 2556DPPC   PO452358  19.571  24.780   0.333  0.0986 -0.0101  0.1475
 2556DPPC   GL152359  19.532  24.422   0.635  0.0322 -0.1728  0.1581
 2556DPPC   GL252360  19.522  23.990   0.555  0.0770  0.0156 -0.1702
 2556DPPC   C1A52361  19.265  24.113   0.946 -0.0757  0.0969  0.0982
 2556DPPC   C2A52362  18.915  23.863   1.108 -0.2117  0.1799  0.3182
 2556DPPC   C3A52363  18.495  23.666   1.306 -0.0204 -0.0130 -0.1245
 2556DPPC   C4A52364  18.107  23.409   1.423  0.0990  0.4530 -0.1528
 2556DPPC   C1B52365  19.372  23.624   0.698 -0.0993 -0.1784 -0.0017
 2556DPPC   C2B52366  19.278  23.241   0.558 -0.0016  0.0329 -0.1838
 2556DPPC   C3B52367  19.111  22.896   0.416 -0.3875  0.0522  0.1065
 2556DPPC   C4B52368  18.958  22.476   0.540 -0.0076  0.0931 -0.1202
 2557DPPC   NC352369  25.677  19.239  25.439  0.0183 -0.0116 -0.1839
 2557DPPC   PO452370  25.861  19.179  25.866  0.1268  0.1908  0.1105
 2557DPPC   GL152371  25.593  18.957  26.081  0.0660  0.0220  0.1844
 2557DPPC   GL252372  25.777  18.695  26.022 -0.0480  0.1328 -0.0560
 2557DPPC   C1A52373  25.341  18.875  26.334 -0.1028 -0.2479  0.3993
 2557DPPC   C2A52374  25.104  18.585  26.512 -0.1656  0.1511  0.2225
 2557DPPC   C3A52375  24.945  18.182  26.358 -0.0956 -0.2626 -0.1225
 2557DPPC   C4A52376  24.895  18.142  25.907 -0.0952 -0.2515 -0.3714
 2557DPPC   C1B52377  25.844  18.517  26.423  0.2345 -0.1539  0.3584
 2557DPPC   C2B52378  25.842  18.268  26.840  0.0081 -0.2696  0.0918
 2557DPPC   C3B52379  25.944  17.891   0.113  0.1074 -0.2170  0.2899
 2557DPPC   C4B52380  26.091  17.476  26.886 -0.2076  0.3830  0.0215
 2558DPPC   NC352381  20.083  25.251   1.109  0.1618 -0.2137 -0.1594
 2558DPPC   PO452382  20.229  25.014   0.827  0.2497 -0.2240 -0.1682
 2558DPPC   GL152383  19.991  24.631   1.086  0.3012 -0.0080 -0.1381
 2558DPPC   GL252384  19.731  24.810   0.974 -0.2202  0.1599  0.1044
 2558DPPC   C1A52385  19.684  24.335   1.163 -0.0043  0.3817  0.2260
 2558DPPC   C2A52386  19.415  24.086   1.406  0.1605 -0.1834  0.1884
 2558DPPC   C3A52387  19.029  23.830   1.575  0.3141  0.0206 -0.1206
 2558DPPC   C4A52388  18.832  23.410   1.683  0.0717  0.1484 -0.3797
 2558DPPC   C1B52389  19.314  24.618   1.133 -0.0279 -0.2133 -0.0716
 2558DPPC   C2B52390  18.981  24.384   1.316  0.0082  0.1554 -0.1975
 2558DPPC   C3B52391  18.667  24.262   1.479  0.1964 -0.5401  0.1058
 2558DPPC   C4B52392  18.527  23.934   1.742  0.0642  0.3730 -0.2275
 2559DPPC   NC352393  19.200  26.938   1.165 -0.1537 -0.3032  0.1265
 2559DPPC   PO452394  19.267  26.472   1.294 -0.2146 -0.2852 -0.0322
 2559DPPC   GL152395  19.111  26.331   1.677  0.0814 -0.1767  0.1067
 2559DPPC   GL252396  19.087  26.517   1.956  0.1494 -0.0144  0.1994
 2559DPPC   C1A52397  18.769  26.165   1.781 -0.1398  0.1959 -0.0023
 2559DPPC   C2A52398  18.369  26.361   1.971 -0.2038  0.1319  0.1513
 2559DPPC   C3A52399  17.947  26.512   2.028  0.0596  0.1935 -0.2179
 2559DPPC   C4A52400  17.531  26.685   2.051  0.1448 -0.1233 -0.2435
 2559DPPC   C1B52401  18.722  26.256   2.269  0.4452  0.1165  0.4067
 2559DPPC   C2B52402  18.322  25.965   2.251 -0.2109 -0.4093 -0.0948
 2559DPPC   C3B52403  18.082  25.822   2.642  0.0003 -0.2262  0.0798
 2559DPPC   C4B52404  17.827  25.697   2.992  0.1905  0.5296  0.4612
 2560DPPC   NC352405  21.853  19.837  19.346 -0.0239 -0.1450 -0.1369
 2560DPPC   PO452406  22.226  19.660  19.337  0.2335  0.2244 -0.5151
 2560DPPC   GL152407  22.145  19.820  18.947  0.0490  0.0347  0.1029
 2560DPPC   GL252408  22.079  20.148  18.795 -0.0666 -0.1030  0.1371
 2560DPPC   C1A52409  22.015  19.723  18.568 -0.1835 -0.0596 -0.0218
 2560DPPC   C2A52410  22.084  19.729  18.179 -0.2091 -0.0947  0.1592
 2560DPPC   C3A52411  21.927  19.561  17.914 -0.1467 -0.0242 -0.3388
 2560DPPC   C4A52412  22.016  19.425  17.495  0.1121  0.0556  0.1197
 2560DPPC   C1B52413  22.407  20.021  18.576 -0.4048  0.1715 -0.1996
 2560DPPC   C2B52414  22.854  19.939  18.523 -0.1138  0.3276 -0.0779
 2560DPPC   C3B52415  23.226  19.836  18.558  0.1611 -0.0477 -0.1070
 2560DPPC   C4B52416  23.663  19.742  18.669  0.2482 -0.0336  0.0113
 2561DPPC   NC352417  20.424  28.140   3.784  0.1798 -0.0044 -0.1063
 2561DPPC   PO452418  20.782  28.223   3.931 -0.0575 -0.1373 -0.0339
 2561DPPC   GL152419  20.479  28.321   4.281  0.0537 -0.0496 -0.0426
 2561DPPC   GL252420  20.566  28.646   4.447 -0.0951  0.0668 -0.1532
 2561DPPC   C1A52421  20.032  28.174   4.429  0.1681  0.1132  0.0921
 2561DPPC   C2A52422  19.724  28.211   4.702  0.0014 -0.0500 -0.2215
 2561DPPC   C3A52423  19.410  27.973   4.982  0.1804 -0.3461  0.1959
 2561DPPC   C4A52424  19.221  27.730   5.325  0.0682  0.4253  0.0644
 2561DPPC   C1B52425  20.083  28.667   4.494 -0.0817  0.1415  0.1689
 2561DPPC   C2B52426  19.719  28.777   4.657  0.2553  0.1265  0.4181
 2561DPPC   C3B52427  19.439  29.175   4.574 -0.1216 -0.0819 -0.2318
 2561DPPC   C4B52428  19.162  29.246   4.262  0.0685 -0.1410 -0.1138
 2562DPPC   NC352429  20.684  20.069  20.760 -0.0847 -0.1982  0.0064
 2562DPPC   PO452430  20.866  19.995  20.296  0.0517  0.0169 -0.2022
 2562DPPC   GL152431  20.460  19.721  20.337  0.0566 -0.2924 -0.1250
 2562DPPC   GL252432  20.228  19.933  20.324 -0.4709 -0.0176  0.0760
 2562DPPC   C1A52433  20.370  19.464  20.005 -0.3742 -0.1812 -0.3976
 2562DPPC   C2A52434  20.185  19.227  19.623 -0.1748 -0.1695 -0.1872
 2562DPPC   C3A52435  20.103  18.793  19.666  0.0853 -0.0726 -0.0761
 2562DPPC   C4A52436  19.933  18.585  19.441 -0.2809 -0.0085 -0.0308
 2562DPPC   C1B52437  20.025  19.537  20.383  0.2388 -0.0476 -0.3395
 2562DPPC   C2B52438  19.648  19.441  20.433 -0.0407  0.0469 -0.0602
 2562DPPC   C3B52439  19.517  19.094  20.426 -0.1609  0.0939 -0.0187
 2562DPPC   C4B52440  19.538  18.720  20.536  0.0832  0.1258 -0.0408
 2563DPPC   NC352441  16.241  28.572  24.376  0.1182 -0.0555  0.0289
 2563DPPC   PO452442  16.181  28.848  24.090 -0.1124  0.2578 -0.2211
 2563DPPC   GL152443  16.019  29.059  24.421  0.1714  0.0076 -0.4881
 2563DPPC   GL252444  16.186  29.418  24.266 -0.0194 -0.2291 -0.4064
 2563DPPC   C1A52445  15.623  29.101  24.295  0.0296  0.1682  0.1236
 2563DPPC   C2A52446  15.138  29.036  24.280  0.1332 -0.0138  0.0467
 2563DPPC   C3A52447  14.716  28.998  23.992  0.1913  0.5241  0.4262
 2563DPPC   C4A52448  14.382  29.159  23.666 -0.0246  0.1128 -0.1648
 2563DPPC   C1B52449  16.329  29.841  24.423 -0.1393  0.2160 -0.0905
 2563DPPC   C2B52450  16.189  30.032  24.902  0.0185  0.4476 -0.1226
 2563DPPC   C3B52451  16.197  30.182  25.302 -0.1606 -0.0273 -0.0237
 2563DPPC   C4B52452  16.081  30.197  25.715 -0.3129 -0.3430 -0.0240
 2564DPPC   NC352453  19.228  24.283  20.327 -0.0552 -0.0220 -0.1218
 2564DPPC   PO452454  19.545  23.929  20.402  0.0238 -0.0839  0.2105
 2564DPPC   GL152455  19.933  23.994  20.231 -0.1294  0.0010  0.0127
 2564DPPC   GL252456  19.949  23.958  19.979 -0.0505 -0.0446 -0.2012
 2564DPPC   C1A52457  20.188  24.333  20.360 -0.0650 -0.0503  0.0593
 2564DPPC   C2A52458  20.520  24.554  20.230 -0.0052  0.1053  0.3264
 2564DPPC   C3A52459  20.562  25.059  20.221  0.3587  0.1074  0.1056
 2564DPPC   C4A52460  20.864  25.349  19.975  0.1591 -0.1095 -0.1519
 2564DPPC   C1B52461  20.388  24.013  20.017 -0.2140  0.2201 -0.2635
 2564DPPC   C2B52462  20.868  24.208  20.123  0.1337  0.0049  0.0702
 2564DPPC   C3B52463  21.148  24.579  20.264  0.3584  0.0831  0.1792
 2564DPPC   C4B52464  21.451  24.897  20.375  0.5369 -0.2309  0.1459
 2565DPPC   NC352465  20.415  27.168   3.501 -0.1298 -0.1961  0.0741
 2565DPPC   PO452466  20.866  27.346   3.705  0.2390  0.3033  0.1958
 2565DPPC   GL152467  20.632  27.357   4.004  0.0517 -0.1853  0.2184
 2565DPPC   GL252468  20.637  27.686   4.073 -0.2058 -0.1319  0.0446
 2565DPPC   C1A52469  20.266  27.316   4.121  0.2902  0.1299 -0.0029
 2565DPPC   C2A52470  19.838  27.242   4.368 -0.0446  0.0224  0.1805
 2565DPPC   C3A52471  19.669  26.998   4.774  0.1748  0.0411  0.1809
 2565DPPC   C4A52472  19.725  26.914   5.229 -0.2864 -0.0012 -0.0426
 2565DPPC   C1B52473  20.280  27.745   4.343  0.1723  0.0527  0.4128
 2565DPPC   C2B52474  19.895  27.688   4.724 -0.1610 -0.0058  0.0463
 2565DPPC   C3B52475  19.595  27.472   4.966 -0.1070 -0.0067 -0.3560
 2565DPPC   C4B52476  19.331  27.186   5.054 -0.2664  0.1971  0.0057
 2566DPPC   NC352477  19.496  27.180   2.502  0.6537 -0.0715  0.1000
 2566DPPC   PO452478  19.502  26.836   2.672 -0.1953 -0.2700  0.0446
 2566DPPC   GL152479  19.359  27.067   2.985 -0.0614  0.0311 -0.0438
 2566DPPC   GL252480  19.335  27.437   3.098  0.0643  0.1710  0.1046
 2566DPPC   C1A52481  19.034  26.899   3.105  0.2285  0.0378 -0.0276
 2566DPPC   C2A52482  18.739  26.590   3.309 -0.2411 -0.2472  0.1930
 2566DPPC   C3A52483  18.633  26.189   3.654  0.3848 -0.0378 -0.0731
 2566DPPC   C4A52484  18.310  26.126   3.831 -0.4165  0.0067 -0.3445
 2566DPPC   C1B52485  19.282  27.507   3.473 -0.2637 -0.0798  0.1513
 2566DPPC   C2B52486  18.911  27.571   3.477  0.1718 -0.2741 -0.1764
 2566DPPC   C3B52487  18.651  27.430   3.728 -0.1321 -0.3026  0.3199
 2566DPPC   C4B52488  18.225  27.293   3.710 -0.0165  0.4694 -0.1251
 2567DPPC   NC352489  26.957  23.793   3.055  0.2116 -0.2989  0.4774
 2567DPPC   PO452490  27.242  23.689   3.330  0.1136 -0.0532  0.0477
 2567DPPC   GL152491  27.603  23.894   3.190 -0.0553  0.0459  0.1727
 2567DPPC   GL252492  27.427  23.922   2.934  0.2952 -0.0432  0.2651
 2567DPPC   C1A52493  27.898  24.309   3.040 -0.2924  0.3045 -0.1433
 2567DPPC   C2A52494  28.296  24.449   2.767  0.0690 -0.2107  0.1124
 2567DPPC   C3A52495  28.685  24.668   3.028  0.3147 -0.0432  0.1550
 2567DPPC   C4A52496  28.827  24.681   3.493  0.1726  0.1738  0.5616
 2567DPPC   C1B52497  27.302  24.058   2.469 -0.1632  0.3490 -0.0517
 2567DPPC   C2B52498  27.347  24.419   2.186  0.2872  0.0603  0.3184
 2567DPPC   C3B52499  27.511  24.370   1.747  0.1483  0.1217 -0.2861
 2567DPPC   C4B52500  27.644  24.558   1.378 -0.0242 -0.3003 -0.1158
 2568DPPC   NC352501  20.378  26.298   2.995 -0.4068 -0.0505  0.0034
 2568DPPC   PO452502  19.998  26.195   3.114  0.8596 -0.1069  0.0099
 2568DPPC   GL152503  19.541  26.095   3.089  0.1840  0.1557 -0.1553
 2568DPPC   GL252504  19.471  26.392   2.915  0.1037 -0.3156 -0.0099
 2568DPPC   C1A52505  19.329  25.810   3.176  0.1426 -0.0315  0.4404
 2568DPPC   C2A52506  19.236  25.763   3.539  0.0052 -0.4135  0.1550
 2568DPPC   C3A52507  19.027  25.948   3.853 -0.1436 -0.2828  0.1044
 2568DPPC   C4A52508  18.782  26.147   4.129 -0.0379  0.0261  0.0563
 2568DPPC   C1B52509  19.155  26.436   3.121  0.3003 -0.1221 -0.1799
 2568DPPC   C2B52510  18.935  26.086   3.221 -0.0782 -0.0175  0.2119
 2568DPPC   C3B52511  18.768  25.726   3.294 -0.3103 -0.0121  0.0823
 2568DPPC   C4B52512  18.546  25.720   3.659  0.1062  0.2970  0.0045
 2569DPPC   NC352513  23.527  25.754   3.387 -0.0739  0.0638  0.0168
 2569DPPC   PO452514  23.822  26.157   3.594  0.2970  0.0434 -0.0762
 2569DPPC   GL152515  24.041  26.393   3.298 -0.0841 -0.0888 -0.0138
 2569DPPC   GL252516  24.333  26.366   3.190 -0.0319 -0.0651  0.0903
 2569DPPC   C1A52517  24.125  26.520   2.816 -0.0121 -0.1199 -0.2044
 2569DPPC   C2A52518  24.382  26.776   2.507 -0.3116 -0.2514  0.2319
 2569DPPC   C3A52519  24.574  27.057   2.243 -0.1093  0.1188  0.1626
 2569DPPC   C4A52520  24.687  27.273   1.860  0.0885 -0.2662 -0.0889
 2569DPPC   C1B52521  24.616  26.596   2.894  0.0761 -0.1627 -0.0823
 2569DPPC   C2B52522  24.878  26.792   2.601 -0.0951  0.0225  0.2461
 2569DPPC   C3B52523  25.265  26.806   2.305  0.0377 -0.0311  0.1072
 2569DPPC   C4B52524  25.574  27.199   2.329  0.1355 -0.3970 -0.1579
 2570DPPC   NC352525  18.812  22.764  19.396  0.1262  0.2873  0.1483
 2570DPPC   PO452526  19.124  22.280  19.372 -0.0100 -0.2072 -0.0771
 2570DPPC   GL152527  18.759  22.302  19.186  0.1759  0.1277 -0.0659
 2570DPPC   GL252528  18.747  22.121  18.898  0.0811  0.0688  0.1952
 2570DPPC   C1A52529  18.248  22.276  19.062 -0.1770  0.1662  0.0034
 2570DPPC   C2A52530  17.938  22.093  18.742 -0.2752 -0.3241 -0.2396
 2570DPPC   C3A52531  17.727  22.348  18.415  0.0745 -0.1535 -0.0081
 2570DPPC   C4A52532  17.841  22.048  18.066 -0.0577 -0.0917  0.0189
 2570DPPC   C1B52533  18.699  21.801  18.736 -0.1148  0.0363  0.1145
 2570DPPC   C2B52534  18.612  21.504  18.312 -0.1096 -0.3194  0.2243
 2570DPPC   C3B52535  18.601  21.152  18.156  0.1130 -0.3012  0.2094
 2570DPPC   C4B52536  18.626  20.768  18.063 -0.1480  0.1644 -0.2705
 2571DPPC   NC352537  22.078  20.784  25.332  0.0609  0.3291 -0.0089
 2571DPPC   PO452538  22.030  21.178  25.672 -0.1237 -0.0811 -0.3850
 2571DPPC   GL152539  21.941  20.693  25.835  0.0851 -0.0659  0.4653
 2571DPPC   GL252540  22.208  20.584  25.903  0.0858  0.2586  0.0238
 2571DPPC   C1A52541  21.704  20.346  25.997  0.1900  0.2132  0.1226
 2571DPPC   C2A52542  21.333  20.229  25.841 -0.3345 -0.2195 -0.0138
 2571DPPC   C3A52543  20.869  20.164  25.920  0.1907  0.1188 -0.0703
 2571DPPC   C4A52544  20.788  19.836  26.162  0.0709  0.0152 -0.2184
 2571DPPC   C1B52545  22.138  20.368  26.277  0.0704  0.0106 -0.1345
 2571DPPC   C2B52546  21.967  20.035  26.346  0.0850  0.0773  0.0188
 2571DPPC   C3B52547  21.816  19.723  26.687  0.3344 -0.0190  0.1726
 2571DPPC   C4B52548  21.434  19.747  26.820  0.2495 -0.1300 -0.2085
 2572DPPC   NC352549  19.267  22.161  18.897 -0.0521 -0.1554 -0.2333
 2572DPPC   PO452550  19.357  21.652  18.810  0.1493 -0.0516  0.1312
 2572DPPC   GL152551  19.141  21.387  18.539  0.1181 -0.2514 -0.0780
 2572DPPC   GL252552  18.945  21.238  18.780 -0.2377  0.0534 -0.2297
 2572DPPC   C1A52553  19.081  21.195  18.084 -0.1339  0.1039  0.3202
 2572DPPC   C2A52554  18.938  21.197  17.767 -0.0106  0.1310  0.0386
 2572DPPC   C3A52555  19.084  20.994  17.545  0.0640 -0.1990  0.1032
 2572DPPC   C4A52556  19.169  20.702  17.843 -0.0767  0.4972  0.0910
 2572DPPC   C1B52557  18.848  20.853  19.036  0.0168 -0.0831 -0.2751
 2572DPPC   C2B52558  18.567  20.612  18.995 -0.1271  0.0137  0.0026
 2572DPPC   C3B52559  18.234  20.456  19.237 -0.1878 -0.1533 -0.3673
 2572DPPC   C4B52560  18.256  20.107  19.633 -0.2473 -0.0225 -0.3504
 2573DPPC   NC352561  17.979  28.587  25.636  0.3291  0.1816 -0.0284
 2573DPPC   PO452562  18.287  28.804  25.545 -0.0068 -0.0905  0.0348
 2573DPPC   GL152563  18.690  28.994  25.288  0.1866 -0.2112  0.0683
 2573DPPC   GL252564  18.722  29.057  24.991  0.0443 -0.3238  0.0283
 2573DPPC   C1A52565  19.098  29.185  25.331 -0.3061  0.0863  0.0234
 2573DPPC   C2A52566  19.464  29.348  25.548 -0.0366  0.3114  0.1067
 2573DPPC   C3A52567  19.850  29.090  25.757  0.0701  0.1104  0.1632
 2573DPPC   C4A52568  20.111  28.761  25.961  0.0248 -0.1281 -0.3333
 2573DPPC   C1B52569  19.020  29.047  24.571 -0.1500 -0.1951 -0.0617
 2573DPPC   C2B52570  19.314  29.117  24.246  0.0340 -0.1686  0.3101
 2573DPPC   C3B52571  19.546  28.963  23.887 -0.1445 -0.1144 -0.0568
 2573DPPC   C4B52572  19.904  28.610  23.918  0.0335  0.3682  0.0660
 2574DPPC   NC352573  17.923  28.585  24.391 -0.3483  0.0862  0.2473
 2574DPPC   PO452574  17.625  28.954  24.250 -0.1949  0.3239 -0.0388
 2574DPPC   GL152575  17.736  29.364  24.162  0.0181 -0.0722 -0.1183
 2574DPPC   GL252576  17.798  29.356  23.814 -0.1295  0.0767 -0.0609
 2574DPPC   C1A52577  17.611  29.806  24.034 -0.0879  0.0710 -0.0815
 2574DPPC   C2A52578  17.593  30.202  23.795  0.3173  0.1731  0.0237
 2574DPPC   C3A52579  17.350  30.600  23.866 -0.1834 -0.0547 -0.1079
 2574DPPC   C4A52580  17.455  31.175  23.907  0.1099 -0.0080  0.2125
 2574DPPC   C1B52581  17.853  29.789  23.615 -0.2705 -0.1469 -0.2841
 2574DPPC   C2B52582  18.085  30.180  23.775  0.0246 -0.3521 -0.2098
 2574DPPC   C3B52583  17.923  30.574  23.602 -0.1853  0.2215 -0.0411
 2574DPPC   C4B52584  17.845  31.014  23.672  0.0621 -0.3962  0.1460
 2575DPPC   NC352585  18.961  29.769   1.354  0.2995 -0.0115  0.1100
 2575DPPC   PO452586  18.986  29.957   0.911 -0.1244 -0.0586  0.1315
 2575DPPC   GL152587  18.937  30.277   1.383  0.0720 -0.0253  0.0684
 2575DPPC   GL252588  18.972  30.585   1.293  0.1078  0.1246 -0.1651
 2575DPPC   C1A52589  18.793  30.388   1.817 -0.1078  0.1510  0.2801
 2575DPPC   C2A52590  18.450  30.527   2.069  0.1805  0.1009 -0.0695
 2575DPPC   C3A52591  18.041  30.788   2.182 -0.2360 -0.0272  0.0548
 2575DPPC   C4A52592  17.762  30.981   2.456  0.5290  0.3944 -0.0721
 2575DPPC   C1B52593  19.338  30.467   1.135 -0.1571  0.0164 -0.0471
 2575DPPC   C2B52594  19.824  30.472   1.157 -0.0574 -0.2529 -0.1395
 2575DPPC   C3B52595  20.285  30.492   1.278  0.2547 -0.0282  0.0047
 2575DPPC   C4B52596  20.486  30.591   0.849 -0.0698  0.3571 -0.1573
 2576DPPC   NC352597  26.225  21.827   1.162  0.3466  0.1505  0.1554
 2576DPPC   PO452598  25.871  22.028   1.033 -0.3901 -0.1157  0.3834
 2576DPPC   GL152599  25.863  22.511   0.807  0.0914 -0.1564 -0.0306
 2576DPPC   GL252600  25.595  22.585   0.589 -0.1723  0.1015  0.3128
 2576DPPC   C1A52601  25.886  22.907   0.854 -0.1446 -0.0238  0.1106
 2576DPPC   C2A52602  26.106  23.133   0.421 -0.0571  0.1779 -0.0941
 2576DPPC   C3A52603  25.970  23.467   0.194 -0.3666  0.0897 -0.0203
 2576DPPC   C4A52604  25.794  23.561  26.741 -0.1813  0.0484 -0.1057
 2576DPPC   C1B52605  25.927  22.620   0.312  0.1818 -0.0360 -0.0153
 2576DPPC   C2B52606  26.315  22.782   0.174  0.3032  0.0151  0.0010
 2576DPPC   C3B52607  26.315  23.174  26.841  0.0176 -0.0736 -0.3208
 2576DPPC   C4B52608  26.272  23.526  26.574  0.0648 -0.1330  0.2439
 2577DPPC   NC352609  22.396  20.868  21.762 -0.0341 -0.1953  0.2870
 2577DPPC   PO452610  22.491  20.797  21.325 -0.1084 -0.3766 -0.1517
 2577DPPC   GL152611  22.948  21.076  21.236  0.2676 -0.2172  0.3077
 2577DPPC   GL252612  23.139  21.016  20.929 -0.1829 -0.3005 -0.1064
 2577DPPC   C1A52613  23.161  21.320  21.414  0.1486 -0.0431 -0.1844
 2577DPPC   C2A52614  23.424  21.594  21.392 -0.1050 -0.0683 -0.1518
 2577DPPC   C3A52615  23.635  21.961  21.286  0.1686  0.0164  0.0263
 2577DPPC   C4A52616  23.574  22.349  21.387 -0.0706 -0.0589  0.2622
 2577DPPC   C1B52617  23.491  21.192  20.733 -0.3439 -0.1393 -0.2908
 2577DPPC   C2B52618  23.825  21.190  20.478 -0.0794  0.0877 -0.1326
 2577DPPC   C3B52619  24.320  21.299  20.412 -0.0828  0.1926 -0.4584
 2577DPPC   C4B52620  24.542  21.522  20.070  0.0161 -0.3177 -0.1816
 2578DPPC   NC352621  25.573  26.775   5.768 -0.3259  0.3276  0.2736
 2578DPPC   PO452622  25.861  26.806   5.972  0.1255 -0.0433 -0.0054
 2578DPPC   GL152623  26.114  26.537   5.955 -0.2150  0.0353  0.2833
 2578DPPC   GL252624  26.379  26.657   5.814 -0.0342 -0.0390  0.4974
 2578DPPC   C1A52625  26.411  26.361   6.295 -0.0897  0.1459 -0.0773
 2578DPPC   C2A52626  26.577  26.246   6.662 -0.0006  0.0956  0.0972
 2578DPPC   C3A52627  26.668  26.599   7.068 -0.0477 -0.1859  0.1818
 2578DPPC   C4A52628  26.353  26.946   7.250  0.2065  0.2987 -0.0692
 2578DPPC   C1B52629  26.410  26.953   6.264  0.0219 -0.0329 -0.0970
 2578DPPC   C2B52630  26.378  26.749   6.618  0.3080 -0.1537  0.0267
 2578DPPC   C3B52631  26.200  26.443   6.937  0.0722 -0.1132  0.2509
 2578DPPC   C4B52632  26.113  26.003   6.906 -0.1481 -0.3488  0.2005
 2579DPPC   NC352633  18.806  25.264  26.819  0.1459 -0.1691  0.1348
 2579DPPC   PO452634  18.720  24.839  26.667  0.0121 -0.2963  0.0063
 2579DPPC   GL152635  18.466  24.531  26.677 -0.1604  0.1814 -0.3885
 2579DPPC   GL252636  18.543  24.325  26.914 -0.0471 -0.0705 -0.0499
 2579DPPC   C1A52637  18.098  24.180  26.723  0.2233 -0.1921  0.1516
 2579DPPC   C2A52638  18.060  23.755  26.875  0.2109  0.0845  0.4434
 2579DPPC   C3A52639  17.820  23.455  26.895 -0.3001  0.0093  0.0785
 2579DPPC   C4A52640  17.420  23.198  26.808 -0.2036  0.1340  0.1522
 2579DPPC   C1B52641  18.597  24.340   0.367  0.2553 -0.2482 -0.2678
 2579DPPC   C2B52642  18.509  24.261   0.857  0.1491 -0.2980  0.0369
 2579DPPC   C3B52643  18.249  24.115   1.190  0.0394 -0.1025 -0.1142
 2579DPPC   C4B52644  17.815  24.075   1.349 -0.0723  0.0252 -0.2030
 2580DPPC   NC352645  24.519  19.840  25.299  0.0423  0.0924  0.1329
 2580DPPC   PO452646  24.883  19.684  25.528  0.2038 -0.3993 -0.0393
 2580DPPC   GL152647  24.570  19.344  25.755  0.1960 -0.0907  0.0620
 2580DPPC   GL252648  24.720  19.013  25.664  0.0192  0.0750 -0.2407
 2580DPPC   C1A52649  24.303  19.067  26.111 -0.1178 -0.2618 -0.2885
 2580DPPC   C2A52650  24.144  18.710  26.418  0.1038  0.0505 -0.2283
 2580DPPC   C3A52651  24.155  18.282  26.586  0.2294 -0.0534 -0.1377
 2580DPPC   C4A52652  23.886  17.885  26.797 -0.0291  0.0707 -0.0115
 2580DPPC   C1B52653  24.577  18.544  25.675  0.0616  0.0430 -0.2132
 2580DPPC   C2B52654  24.435  18.176  25.645 -0.0927 -0.4334 -0.2498
 2580DPPC   C3B52655  24.055  18.045  25.761  0.2511  0.2842 -0.0300
 2580DPPC   C4B52656  23.698  17.769  25.767 -0.1500  0.1340  0.1816
 2581DPPC   NC352657  25.502  23.919   3.815  0.0071  0.2240 -0.0912
 2581DPPC   PO452658  25.574  23.820   4.247  0.0557 -0.1209  0.0817
 2581DPPC   GL152659  25.604  23.893   4.730 -0.0196 -0.1833  0.0725
 2581DPPC   GL252660  25.376  23.945   4.822 -0.1250  0.0697  0.0018
 2581DPPC   C1A52661  25.718  23.552   4.948  0.0364  0.1298 -0.2814
 2581DPPC   C2A52662  25.810  23.503   5.348  0.0404  0.1739  0.4010
 2581DPPC   C3A52663  25.768  23.618   5.681 -0.1210  0.1996  0.3597
 2581DPPC   C4A52664  25.441  23.859   5.717  0.1079 -0.0466 -0.0271
 2581DPPC   C1B52665  25.319  23.687   5.236 -0.2328 -0.0451 -0.2356
 2581DPPC   C2B52666  25.187  23.293   5.436  0.3988 -0.0681 -0.1707
 2581DPPC   C3B52667  24.881  23.182   5.743 -0.0974  0.2804  0.1629
 2581DPPC   C4B52668  24.799  23.187   6.160  0.1497 -0.0048  0.0460
 2582DPPC   NC352669  17.885  26.795  21.144 -0.2831 -0.1514  0.1106
 2582DPPC   PO452670  17.871  26.814  20.728 -0.1113  0.0383  0.0212
 2582DPPC   GL152671  18.217  27.192  20.493 -0.2300  0.0563  0.1093
 2582DPPC   GL252672  18.576  27.071  20.378  0.2375 -0.1715  0.0694
 2582DPPC   C1A52673  18.450  27.609  20.467  0.2225  0.3612  0.0318
 2582DPPC   C2A52674  18.400  28.031  20.455 -0.0138  0.1121 -0.3472
 2582DPPC   C3A52675  18.205  28.363  20.127  0.0102 -0.2317 -0.0860
 2582DPPC   C4A52676  18.012  28.343  19.803 -0.1981 -0.0754  0.0199
 2582DPPC   C1B52677  18.504  26.911  19.977  0.1967  0.0938 -0.0980
 2582DPPC   C2B52678  18.538  26.777  19.596  0.3755  0.0692  0.1370
 2582DPPC   C3B52679  18.606  26.919  19.222 -0.1359  0.2074  0.0555
 2582DPPC   C4B52680  19.033  26.918  19.126  0.0225 -0.3041 -0.2308
 2583DPPC   NC352681  22.019  21.165  25.026 -0.0196  0.0668  0.0357
 2583DPPC   PO452682  21.717  21.150  25.280  0.0552  0.1030  0.4555
 2583DPPC   GL152683  21.428  20.853  25.447  0.0912 -0.1244 -0.2108
 2583DPPC   GL252684  21.503  20.724  25.642  0.1808 -0.2096  0.1154
 2583DPPC   C1A52685  21.248  20.445  25.306 -0.4117 -0.1072 -0.2027
 2583DPPC   C2A52686  21.055  20.073  25.496 -0.3249  0.1219  0.3802
 2583DPPC   C3A52687  21.164  19.706  25.719  0.2576  0.1363 -0.1859
 2583DPPC   C4A52688  21.276  19.285  25.896  0.0688 -0.3018 -0.0171
 2583DPPC   C1B52689  21.010  20.717  25.798  0.0849 -0.1228 -0.1273
 2583DPPC   C2B52690  20.794  20.643  26.141 -0.1581  0.0601 -0.1493
 2583DPPC   C3B52691  20.415  20.692  26.387  0.1169  0.0714  0.0463
 2583DPPC   C4B52692  20.021  20.489  26.592  0.1472  0.0211  0.1293
 2584DPPC   NC352693  27.083  21.805   2.923  0.2757  0.3604 -0.2355
 2584DPPC   PO452694  27.112  21.999   3.324 -0.2821 -0.0861  0.0338
 2584DPPC   GL152695  27.120  21.598   3.411  0.2520  0.1173  0.2552
 2584DPPC   GL252696  27.149  21.304   3.166  0.0843 -0.1225 -0.2597
 2584DPPC   C1A52697  27.237  21.269   3.790  0.1121  0.3157 -0.1076
 2584DPPC   C2A52698  27.296  20.935   3.966 -0.0771 -0.0999 -0.0793
 2584DPPC   C3A52699  27.165  20.526   4.030  0.0199  0.1056  0.4037
 2584DPPC   C4A52700  26.945  20.187   4.279 -0.2308 -0.0084  0.0756
 2584DPPC   C1B52701  26.943  20.913   3.297 -0.0161  0.2146  0.0885
 2584DPPC   C2B52702  26.998  20.572   3.504  0.2639 -0.2839 -0.0935
 2584DPPC   C3B52703  26.889  20.154   3.704 -0.1087 -0.0772 -0.2464
 2584DPPC   C4B52704  26.933  19.661   3.548 -0.1987 -0.2598 -0.2386
 2585DPPC   NC352705  25.710  25.234   4.628  0.1755  0.2191  0.0066
 2585DPPC   PO452706  25.552  25.335   5.039  0.0126  0.1466  0.2358
 2585DPPC   GL152707  25.671  25.256   5.444  0.1117  0.0754  0.4482
 2585DPPC   GL252708  25.896  25.439   5.638 -0.2753 -0.0803 -0.0260
 2585DPPC   C1A52709  25.694  24.960   5.763  0.2427  0.1083  0.1983
 2585DPPC   C2A52710  26.014  24.739   5.929  0.1940 -0.1799  0.1245
 2585DPPC   C3A52711  26.007  24.414   6.143 -0.1033 -0.2560 -0.0570
 2585DPPC   C4A52712  25.820  24.328   6.508  0.0753  0.1678  0.2264
 2585DPPC   C1B52713  25.862  25.387   6.075 -0.0334  0.0032 -0.1083
 2585DPPC   C2B52714  25.851  25.684   6.337  0.0728  0.0983  0.1079
 2585DPPC   C3B52715  25.829  26.103   6.454 -0.0197 -0.0821 -0.0527
 2585DPPC   C4B52716  25.731  26.523   6.582 -0.2800  0.0222  0.1144
 2586DPPC   NC352717  19.771  21.380  22.330  0.2639 -0.1840  0.3411
 2586DPPC   PO452718  19.489  21.632  22.051 -0.0538  0.3139 -0.0345
 2586DPPC   GL152719  19.132  21.389  22.090  0.1061  0.0843  0.1248
 2586DPPC   GL252720  19.281  21.228  22.342 -0.2915  0.1029  0.0717
 2586DPPC   C1A52721  18.773  21.235  21.776 -0.0894 -0.3884 -0.2095
 2586DPPC   C2A52722  18.459  21.215  21.722  0.0737 -0.0151  0.2672
 2586DPPC   C3A52723  18.147  21.069  21.698 -0.0281 -0.1593  0.1416
 2586DPPC   C4A52724  17.958  20.690  21.802  0.1800 -0.0613 -0.0299
 2586DPPC   C1B52725  19.005  20.816  22.455 -0.0287  0.0292  0.4760
 2586DPPC   C2B52726  18.884  20.495  22.675 -0.0364  0.0504  0.0072
 2586DPPC   C3B52727  18.646  20.199  22.724 -0.0421 -0.1289 -0.1525
 2586DPPC   C4B52728  18.666  19.762  22.586 -0.1661 -0.3054  0.1632
 2587DPPC   NC352729  20.089  20.673  21.060 -0.1148  0.3492  0.1403
 2587DPPC   PO452730  20.011  21.101  21.028 -0.1013 -0.0891  0.0316
 2587DPPC   GL152731  19.567  20.751  21.019 -0.3880  0.1644  0.1272
 2587DPPC   GL252732  19.690  20.437  20.840  0.3788 -0.2328  0.0646
 2587DPPC   C1A52733  19.202  20.536  21.291  0.2161  0.1191  0.0322
 2587DPPC   C2A52734  18.824  20.328  21.425  0.0730  0.2917 -0.1083
 2587DPPC   C3A52735  18.591  20.162  21.652  0.1547  0.2097 -0.1846
 2587DPPC   C4A52736  18.259  20.261  21.816 -0.2236  0.4931  0.0657
 2587DPPC   C1B52737  19.256  20.282  20.828 -0.2858 -0.4984  0.2872
 2587DPPC   C2B52738  18.888  20.031  20.902  0.1168 -0.1411 -0.0265
 2587DPPC   C3B52739  18.591  19.997  21.112 -0.2472 -0.2512  0.4712
 2587DPPC   C4B52740  18.266  19.964  21.366  0.0636  0.1029 -0.1698
 2588DPPC   NC352741  19.759  21.780  18.451  0.0137 -0.1796  0.4476
 2588DPPC   PO452742  19.899  22.039  18.172 -0.0361  0.0869 -0.0557
 2588DPPC   GL152743  20.125  21.772  18.047  0.2189  0.0256 -0.2016
 2588DPPC   GL252744  19.923  21.699  17.746 -0.2101  0.1539 -0.0644
 2588DPPC   C1A52745  20.419  21.535  17.766  0.1578  0.3914  0.0685
 2588DPPC   C2A52746  20.821  21.532  17.618 -0.0473  0.0029 -0.1152
 2588DPPC   C3A52747  21.253  21.527  17.501  0.1393 -0.0708 -0.0919
 2588DPPC   C4A52748  21.328  21.652  17.166  0.0906  0.0092 -0.0423
 2588DPPC   C1B52749  20.008  21.248  17.805 -0.2272  0.1182  0.2340
 2588DPPC   C2B52750  20.092  20.899  17.963  0.0315  0.1853 -0.0438
 2588DPPC   C3B52751  19.920  20.537  17.963 -0.1716  0.1380 -0.0331
 2588DPPC   C4B52752  19.555  20.322  17.971 -0.1801  0.1240  0.1763
 2589DPPC   NC352753  19.876  25.138   0.478 -0.0910  0.1901 -0.3080
 2589DPPC   PO452754  19.652  25.292   0.825 -0.0093  0.2209  0.1666
 2589DPPC   GL152755  19.400  25.205   1.160  0.1645  0.1157  0.2818
 2589DPPC   GL252756  19.126  25.492   1.261  0.1899 -0.0193  0.0901
 2589DPPC   C1A52757  19.265  25.030   1.495  0.1817  0.2085 -0.0306
 2589DPPC   C2A52758  18.868  24.756   1.690 -0.1580 -0.1353 -0.1839
 2589DPPC   C3A52759  18.513  24.482   1.870 -0.0151 -0.3839 -0.2001
 2589DPPC   C4A52760  18.088  24.339   1.637  0.2283  0.4937 -0.0121
 2589DPPC   C1B52761  18.914  25.613   1.589  0.1571  0.4860 -0.1271
 2589DPPC   C2B52762  18.560  25.532   1.908  0.2904  0.3232  0.0195
 2589DPPC   C3B52763  18.119  25.413   1.956 -0.4087  0.2792 -0.3111
 2589DPPC   C4B52764  17.928  25.039   2.231  0.1373 -0.0321  0.1367
 2590DPPC   NC352765  21.431  19.808  19.592  0.0101 -0.1316  0.0067
 2590DPPC   PO452766  21.269  19.896  19.308 -0.2333  0.0477 -0.1223
 2590DPPC   GL152767  21.191  19.519  19.216  0.0012 -0.0033 -0.1070
 2590DPPC   GL252768  21.463  19.396  19.194  0.0245  0.0449  0.2656
 2590DPPC   C1A52769  21.108  19.061  18.971  0.0225  0.1090 -0.2975
 2590DPPC   C2A52770  20.945  18.712  18.741 -0.3270  0.0306 -0.3102
 2590DPPC   C3A52771  20.757  18.600  18.367 -0.4232 -0.0877 -0.2250
 2590DPPC   C4A52772  20.285  18.432  18.436 -0.2437  0.2158 -0.0688
 2590DPPC   C1B52773  21.591  18.943  19.332 -0.2021  0.1622  0.1117
 2590DPPC   C2B52774  21.264  18.637  19.197  0.2222 -0.2554 -0.4316
 2590DPPC   C3B52775  20.897  18.731  19.295 -0.0867 -0.0054 -0.0226
 2590DPPC   C4B52776  20.414  18.871  19.264 -0.1550  0.0551 -0.1114
 2591DPPC   NC352777  23.125  27.679   4.818  0.1130  0.0134 -0.1184
 2591DPPC   PO452778  23.143  27.378   4.988  0.0355  0.1366  0.2887
 2591DPPC   GL152779  23.120  27.077   5.356  0.1475  0.1922  0.1064
 2591DPPC   GL252780  22.877  27.184   5.394  0.0007 -0.1240  0.1653
 2591DPPC   C1A52781  23.046  27.011   5.837  0.3500 -0.1864  0.2129
 2591DPPC   C2A52782  23.292  27.252   6.169  0.2192 -0.0669 -0.2256
 2591DPPC   C3A52783  23.460  27.675   6.074 -0.1755 -0.0278  0.0601
 2591DPPC   C4A52784  23.543  28.011   5.907 -0.0624  0.0457 -0.1222
 2591DPPC   C1B52785  22.556  27.078   5.688  0.3337 -0.0436  0.0222
 2591DPPC   C2B52786  22.439  26.930   6.088  0.1332 -0.3821 -0.1750
 2591DPPC   C3B52787  22.131  26.963   6.395 -0.1005  0.2843  0.1602
 2591DPPC   C4B52788  22.093  27.041   6.828 -0.1417 -0.0713  0.1434
 2592DPPC   NC352789  23.506  19.270  23.358  0.0865  0.0882  0.1500
 2592DPPC   PO452790  23.787  18.958  23.242 -0.0833 -0.2493  0.0959
 2592DPPC   GL152791  23.799  18.519  23.318 -0.0170  0.2858  0.1402
 2592DPPC   GL252792  23.623  18.436  22.915 -0.0195  0.0479  0.3077
 2592DPPC   C1A52793  23.709  18.106  23.315 -0.0292  0.1726  0.1698
 2592DPPC   C2A52794  23.809  17.796  23.083 -0.1724  0.2436  0.0675
 2592DPPC   C3A52795  24.152  17.442  23.130  0.0136  0.2843 -0.0730
 2592DPPC   C4A52796  24.497  17.099  23.068 -0.2294  0.1901  0.2893
 2592DPPC   C1B52797  23.844  18.138  22.640 -0.0612 -0.0143  0.1224
 2592DPPC   C2B52798  24.031  17.972  22.258 -0.4117 -0.0795  0.1807
 2592DPPC   C3B52799  24.056  17.814  21.791 -0.1861  0.1141  0.3056
 2592DPPC   C4B52800  24.061  17.602  21.420 -0.0106 -0.0252  0.2473
 2593DPPC   NC352801  18.710  26.161  22.657 -0.0569 -0.1887  0.1762
 2593DPPC   PO452802  18.419  26.093  22.251  0.2544 -0.1075  0.0915
 2593DPPC   GL152803  18.855  26.278  22.149  0.1174 -0.1945 -0.1548
 2593DPPC   GL252804  18.936  26.333  21.729  0.2956 -0.0656 -0.0336
 2593DPPC   C1A52805  19.237  26.526  22.108  0.0243  0.1252 -0.4196
 2593DPPC   C2A52806  19.700  26.429  21.936 -0.2796  0.1631  0.6660
 2593DPPC   C3A52807  20.134  26.635  22.121  0.0123  0.0036 -0.2049
 2593DPPC   C4A52808  20.079  26.245  22.319 -0.4678  0.1944 -0.0743
 2593DPPC   C1B52809  19.246  26.125  21.896  0.1846  0.0718 -0.1820
 2593DPPC   C2B52810  19.589  25.923  21.814 -0.0663 -0.2621  0.0135
 2593DPPC   C3B52811  19.929  26.106  21.623 -0.0168 -0.0962 -0.0441
 2593DPPC   C4B52812  20.384  26.236  21.811  0.0020  0.1416 -0.1497
 2594DPPC   NC352813  25.947  22.597   3.672 -0.1021  0.2172  0.2421
 2594DPPC   PO452814  25.840  22.949   4.002 -0.0091  0.0738  0.2182
 2594DPPC   GL152815  25.637  22.571   4.058 -0.3861  0.0930  0.0977
 2594DPPC   GL252816  25.703  22.686   4.395  0.0833 -0.1294 -0.1063
 2594DPPC   C1A52817  25.781  22.173   4.172 -0.0079  0.1039 -0.3177
 2594DPPC   C2A52818  25.989  22.019   4.484  0.2735 -0.3422 -0.2190
 2594DPPC   C3A52819  26.064  21.541   4.613  0.0120  0.1892 -0.0088
 2594DPPC   C4A52820  26.274  21.152   4.903 -0.1982 -0.0197  0.0757
 2594DPPC   C1B52821  25.596  22.394   4.688  0.0745  0.1068  0.0120
 2594DPPC   C2B52822  25.813  22.119   4.970 -0.3939 -0.2334  0.2357
 2594DPPC   C3B52823  26.269  22.253   5.178  0.3313  0.1726 -0.1207
 2594DPPC   C4B52824  26.443  22.671   5.104 -0.0661  0.3063 -0.0543
 2595DPPC   NC352825  24.501  19.775  23.886  0.0394  0.1242 -0.2144
 2595DPPC   PO452826  24.665  19.948  23.489  0.1840 -0.0691  0.0963
 2595DPPC   GL152827  25.168  20.171  23.437 -0.2530 -0.0298  0.2246
 2595DPPC   GL252828  25.167  20.476  23.117  0.1491 -0.3508 -0.2686
 2595DPPC   C1A52829  25.540  20.418  23.571 -0.1726 -0.2381  0.0857
 2595DPPC   C2A52830  25.712  20.759  23.379 -0.0683  0.3635  0.0210
 2595DPPC   C3A52831  25.888  21.070  23.091  0.0759  0.0888  0.1062
 2595DPPC   C4A52832  25.546  21.332  23.001  0.2806 -0.0905  0.0907
 2595DPPC   C1B52833  25.459  20.379  22.844  0.0692 -0.1417  0.1361
 2595DPPC   C2B52834  25.872  20.661  22.789 -0.1723  0.0546 -0.1595
 2595DPPC   C3B52835  26.052  20.647  22.445 -0.1929  0.0061  0.2922
 2595DPPC   C4B52836  26.176  20.788  21.982 -0.5300 -0.0031  0.2538
 2596DPPC   NC352837  20.793  25.825  26.880  0.0956  0.1352  0.2292
 2596DPPC   PO452838  20.480  25.959  26.618  0.1653 -0.0071  0.0952
 2596DPPC   GL152839  20.824  26.246  26.309  0.0928 -0.4741  0.1551
 2596DPPC   GL252840  20.940  26.149  26.026 -0.3741  0.4518  0.0069
 2596DPPC   C1A52841  21.113  26.602  26.132 -0.2406  0.1214 -0.1120
 2596DPPC   C2A52842  21.288  26.891  25.944 -0.3069 -0.0925 -0.1594
 2596DPPC   C3A52843  21.818  27.109  25.861 -0.0014  0.2854  0.0330
 2596DPPC   C4A52844  21.946  27.313  25.510 -0.0291 -0.1897  0.1893
 2596DPPC   C1B52845  20.904  26.454  25.689  0.1280  0.0153 -0.1854
 2596DPPC   C2B52846  21.081  26.771  25.459  0.0615  0.0334 -0.1735
 2596DPPC   C3B52847  21.332  27.110  25.460  0.2040  0.2446  0.1451
 2596DPPC   C4B52848  21.468  27.695  25.448  0.0284  0.1003  0.2468
 2597DPPC   NC352849  19.830  24.136  22.692 -0.0603 -0.0524  0.0916
 2597DPPC   PO452850  19.922  23.856  23.013 -0.1354  0.1841  0.1938
 2597DPPC   GL152851  20.315  23.972  22.766 -0.0176  0.0134 -0.0494
 2597DPPC   GL252852  20.219  24.062  22.442 -0.0211  0.2322  0.2508
 2597DPPC   C1A52853  20.862  24.150  22.703 -0.2753 -0.1425 -0.1940
 2597DPPC   C2A52854  21.289  23.950  22.641  0.1471 -0.1955  0.0530
 2597DPPC   C3A52855  21.539  23.899  22.365  0.1094  0.1291 -0.4728
 2597DPPC   C4A52856  21.432  23.973  22.030  0.2378  0.2282 -0.0961
 2597DPPC   C1B52857  20.457  24.373  22.491  0.0001  0.0066 -0.1244
 2597DPPC   C2B52858  20.872  24.576  22.421 -0.0690  0.1046 -0.0903
 2597DPPC   C3B52859  21.356  24.875  22.473  0.1911  0.1619 -0.0326
 2597DPPC   C4B52860  21.605  25.155  22.653  0.0240  0.2252 -0.2117
 2598DPPC   NC352861  16.625  26.733  21.025  0.0565  0.1338 -0.1771
 2598DPPC   PO452862  16.459  26.985  20.681  0.0523  0.1555  0.0593
 2598DPPC   GL152863  16.089  26.958  20.444  0.1268  0.0126  0.1692
 2598DPPC   GL252864  16.211  27.262  20.315 -0.0852  0.3157 -0.2308
 2598DPPC   C1A52865  15.665  26.639  20.339 -0.0871  0.1196  0.0742
 2598DPPC   C2A52866  15.561  26.308  20.126  0.0669 -0.2017 -0.0523
 2598DPPC   C3A52867  15.190  26.018  20.101 -0.0941  0.3285  0.2586
 2598DPPC   C4A52868  14.916  26.001  20.371  0.3393  0.2463  0.1706
 2598DPPC   C1B52869  16.386  27.544  19.994  0.0730  0.2772  0.1127
 2598DPPC   C2B52870  16.242  27.827  19.682 -0.1122 -0.1800 -0.1307
 2598DPPC   C3B52871  15.957  28.105  19.745 -0.0675 -0.0675  0.1137
 2598DPPC   C4B52872  15.713  28.399  19.982  0.3012  0.3159 -0.3930
 2599DPPC   NC352873  16.673  28.741  23.065 -0.0244 -0.0674 -0.6725
 2599DPPC   PO452874  16.793  29.139  22.892 -0.0983  0.2492 -0.0617
 2599DPPC   GL152875  16.672  29.504  23.004  0.1742  0.2912 -0.0335
 2599DPPC   GL252876  16.664  29.622  22.686  0.2980  0.1807 -0.1790
 2599DPPC   C1A52877  16.563  29.856  23.460 -0.2505 -0.1056  0.2112
 2599DPPC   C2A52878  16.590  30.319  23.438 -0.0585 -0.4901 -0.1225
 2599DPPC   C3A52879  16.924  30.664  23.585  0.2444  0.1371  0.4954
 2599DPPC   C4A52880  16.985  31.027  23.798 -0.1471  0.0357  0.0098
 2599DPPC   C1B52881  16.568  30.052  22.788  0.2558  0.0420  0.1181
 2599DPPC   C2B52882  16.324  30.225  23.037 -0.0166 -0.0590 -0.1500
 2599DPPC   C3B52883  15.995  30.028  23.309 -0.1235  0.0006  0.1890
 2599DPPC   C4B52884  15.969  29.696  23.594  0.0208 -0.0697  0.1550
 2600DPPC   NC352885  17.994  26.236  25.607  0.0924  0.0097  0.0893
 2600DPPC   PO452886  17.823  25.741  25.940 -0.0111 -0.2546 -0.0104
 2600DPPC   GL152887  17.617  25.356  26.083  0.2181 -0.1441  0.0404
 2600DPPC   GL252888  17.609  25.057  25.871 -0.3931 -0.0151 -0.0980
 2600DPPC   C1A52889  17.350  25.098  26.346 -0.0257 -0.0131 -0.3279
 2600DPPC   C2A52890  17.209  24.659  26.390  0.0882  0.2592 -0.0847
 2600DPPC   C3A52891  16.925  24.395  26.556 -0.3750  0.0007  0.0620
 2600DPPC   C4A52892  16.470  24.480  26.591 -0.1658  0.0604  0.0546
 2600DPPC   C1B52893  17.326  24.750  25.881  0.1575 -0.1312 -0.2656
 2600DPPC   C2B52894  16.994  24.441  25.997 -0.1898 -0.0270  0.3337
 2600DPPC   C3B52895  16.771  24.078  26.232  0.1902  0.2296 -0.3705
 2600DPPC   C4B52896  16.592  23.934  26.636  0.2402 -0.1233  0.2214
 2601DPPC   NC352897  16.326  27.985  23.704  0.0652  0.2247  0.0241
 2601DPPC   PO452898  16.477  27.727  23.367  0.1589 -0.0805  0.0794
 2601DPPC   GL152899  16.141  27.932  23.168 -0.0735  0.0951 -0.0474
 2601DPPC   GL252900  15.907  27.936  23.350  0.3359  0.2044  0.0513
 2601DPPC   C1A52901  15.792  28.343  22.949  0.1186  0.0626 -0.0061
 2601DPPC   C2A52902  15.489  28.567  22.761  0.0083  0.1749  0.3684
 2601DPPC   C3A52903  15.165  28.948  22.567  0.5361 -0.1965 -0.1959
 2601DPPC   C4A52904  14.978  29.257  22.367  0.2837  0.0049 -0.0168
 2601DPPC   C1B52905  15.504  27.801  23.137  0.1860 -0.0058  0.2222
 2601DPPC   C2B52906  15.242  27.575  22.790  0.1051  0.1199 -0.0983
 2601DPPC   C3B52907  15.190  27.467  22.393 -0.0776 -0.0556  0.1363
 2601DPPC   C4B52908  14.835  27.544  22.111  0.4568 -0.0874 -0.2374
 2602DPPC   NC352909  17.948  24.084  20.238 -0.0281  0.4098 -0.0767
 2602DPPC   PO452910  18.016  24.356  19.893 -0.0604  0.0238 -0.2057
 2602DPPC   GL152911  17.575  24.321  19.868  0.0411  0.0588 -0.2666
 2602DPPC   GL252912  17.491  24.497  19.726  0.0303 -0.3229  0.2632
 2602DPPC   C1A52913  17.489  23.959  19.744 -0.2750 -0.0098  0.0668
 2602DPPC   C2A52914  17.169  23.708  19.604  0.1202  0.1966 -0.0491
 2602DPPC   C3A52915  16.673  23.667  19.525 -0.2340 -0.0743  0.0604
 2602DPPC   C4A52916  16.243  23.671  19.379  0.0347  0.1376  0.1428
 2602DPPC   C1B52917  17.102  24.517  19.461 -0.2291  0.2133  0.1565
 2602DPPC   C2B52918  16.772  24.627  19.297 -0.3055  0.0376  0.1154
 2602DPPC   C3B52919  16.318  24.532  19.251  0.4498  0.0137 -0.2451
 2602DPPC   C4B52920  16.013  24.716  19.381  0.1114  0.2620 -0.0783
 2603DPPC   NC352921  21.391  25.366   1.318  0.3387  0.4015 -0.1162
 2603DPPC   PO452922  21.704  25.530   1.592 -0.2783  0.2236 -0.0209
 2603DPPC   GL152923  21.920  25.983   1.566  0.1152  0.0161 -0.0067
 2603DPPC   GL252924  21.897  26.107   1.201 -0.0742  0.1939  0.0658
 2603DPPC   C1A52925  22.197  26.171   1.548  0.1284 -0.0317  0.0959
 2603DPPC   C2A52926  22.479  26.578   1.592 -0.1306  0.3062  0.0977
 2603DPPC   C3A52927  22.663  26.867   1.327  0.1476 -0.1591  0.1372
 2603DPPC   C4A52928  22.942  26.977   1.130  0.2832  0.0384  0.0063
 2603DPPC   C1B52929  22.093  26.521   1.246 -0.0043  0.0644 -0.1334
 2603DPPC   C2B52930  22.326  26.910   0.981 -0.2763 -0.2271 -0.0471
 2603DPPC   C3B52931  22.478  27.160   0.617  0.1994  0.0859 -0.1593
 2603DPPC   C4B52932  22.735  27.397   0.278 -0.4500  0.1400  0.0683
 2604DPPC   NC352933  21.427  25.565   0.596 -0.0035  0.0351 -0.0134
 2604DPPC   PO452934  21.676  25.271   0.476 -0.0564 -0.3487  0.0587
 2604DPPC   GL152935  21.951  25.472   0.122  0.0487 -0.2417 -0.0755
 2604DPPC   GL252936  21.883  25.349  26.733 -0.0787 -0.0299 -0.1141
 2604DPPC   C1A52937  21.835  25.832  26.925 -0.0832  0.1657  0.0605
 2604DPPC   C2A52938  21.613  26.139  26.644  0.4117  0.2480 -0.0209
 2604DPPC   C3A52939  21.267  26.319  26.642  0.0873 -0.0426 -0.2922
 2604DPPC   C4A52940  21.020  26.693  26.611  0.2502  0.1180 -0.2084
 2604DPPC   C1B52941  22.256  25.369  26.497 -0.0664 -0.0519 -0.0666
 2604DPPC   C2B52942  22.659  25.133  26.289  0.1051  0.1844 -0.0417
 2604DPPC   C3B52943  22.977  25.389  26.376  0.0082 -0.0342  0.1596
 2604DPPC   C4B52944  23.166  25.600  26.179  0.1289  0.1016  0.2597
 2605DPPC   NC352945  34.611  31.699  17.135  0.0964 -0.2626 -0.2465
 2605DPPC   PO452946  34.235  31.661  16.952  0.2218 -0.2185 -0.1553
 2605DPPC   GL152947  34.546  31.722  16.548  0.2840  0.0994  0.3767
 2605DPPC   GL252948  34.526  31.470  16.329  0.0725 -0.0160  0.0547
 2605DPPC   C1A52949  34.896  31.794  16.315 -0.0064  0.0277  0.0115
 2605DPPC   C2A52950  35.158  31.802  16.047  0.1119  0.3612 -0.3488
 2605DPPC   C3A52951  35.529  31.994  15.703 -0.3101  0.0971  0.0075
 2605DPPC   C4A52952  35.799  31.936  15.356 -0.0036 -0.0057 -0.0931
 2605DPPC   C1B52953  34.780  31.416  15.997 -0.1785 -0.2002 -0.0398
 2605DPPC   C2B52954  35.028  31.645  15.618 -0.0175  0.0721 -0.2590
 2605DPPC   C3B52955  35.473  31.464  15.499 -0.3444  0.1673  0.0823
 2605DPPC   C4B52956  35.634  31.549  15.060 -0.0972  0.2253  0.0004
 2606DPPC   NC352957  24.992  29.379   0.735 -0.1075 -0.3108 -0.0980
 2606DPPC   PO452958  24.552  29.424   0.927  0.0884  0.0510 -0.2926
 2606DPPC   GL152959  24.312  29.019   0.973  0.0532  0.2498  0.0848
 2606DPPC   GL252960  24.021  29.105   0.699 -0.0569  0.2703 -0.1975
 2606DPPC   C1A52961  24.065  28.626   1.116  0.2411 -0.1812 -0.1617
 2606DPPC   C2A52962  23.823  28.307   0.915  0.4239  0.1331 -0.1126
 2606DPPC   C3A52963  23.921  27.806   0.874  0.1516  0.2978 -0.0046
 2606DPPC   C4A52964  23.695  27.438   0.994  0.0041 -0.2473 -0.0958
 2606DPPC   C1B52965  23.667  28.889   0.610  0.0938 -0.2912 -0.1401
 2606DPPC   C2B52966  23.416  28.592   0.564 -0.0661  0.0864  0.2350
 2606DPPC   C3B52967  23.157  28.181   0.621 -0.0046 -0.0320  0.0079
 2606DPPC   C4B52968  22.916  27.830   0.529 -0.4463 -0.0198 -0.0381
 2607DPPC   NC352969  28.268  23.668  25.293 -0.0738 -0.0704  0.1971
 2607DPPC   PO452970  28.237  24.106  25.333  0.2254  0.4052 -0.0033
 2607DPPC   GL152971  27.981  23.999  25.711 -0.0907 -0.1298  0.1139
 2607DPPC   GL252972  28.079  23.690  25.761  0.0574  0.1908 -0.1898
 2607DPPC   C1A52973  27.587  23.810  25.690  0.1945 -0.0791 -0.0945
 2607DPPC   C2A52974  27.209  23.669  25.941 -0.3665 -0.1419  0.2587
 2607DPPC   C3A52975  27.110  23.272  26.242  0.1995 -0.2738  0.2886
 2607DPPC   C4A52976  27.370  23.121  26.520 -0.3903 -0.0659 -0.0983
 2607DPPC   C1B52977  27.939  23.819  26.191 -0.2624  0.0093 -0.1241
 2607DPPC   C2B52978  27.659  24.022  26.526  0.0266  0.0605 -0.0486
 2607DPPC   C3B52979  27.401  23.667  26.414 -0.0105 -0.2944  0.1374
 2607DPPC   C4B52980  27.611  23.416  26.055 -0.1621 -0.2336 -0.1042
 2608DPPC   NC352981  20.249  31.465   5.380 -0.1013 -0.4549 -0.1719
 2608DPPC   PO452982  20.137  31.622   5.030 -0.2526  0.1402 -0.1315
 2608DPPC   GL152983  20.535  31.300   4.974 -0.3122  0.1670 -0.0211
 2608DPPC   GL252984  20.396  30.995   5.068  0.1829 -0.1210  0.1962
 2608DPPC   C1A52985  20.950  31.189   4.677  0.2583 -0.0353  0.2832
 2608DPPC   C2A52986  21.102  31.018   4.456 -0.2661  0.0371  0.1637
 2608DPPC   C3A52987  21.516  31.031   4.155  0.0829  0.1679  0.0752
 2608DPPC   C4A52988  22.027  30.992   4.182  0.4284 -0.0400  0.1174
 2608DPPC   C1B52989  20.695  30.769   4.858  0.2625 -0.2686 -0.1243
 2608DPPC   C2B52990  20.467  30.519   4.526 -0.1709  0.1765  0.0078
 2608DPPC   C3B52991  20.230  30.683   4.190 -0.1177 -0.2434 -0.1962
 2608DPPC   C4B52992  19.930  30.928   4.229  0.1388 -0.0224 -0.0687
 2609DPPC   NC352993  30.448  23.802   6.304  0.1955  0.2031  0.0963
 2609DPPC   PO452994  30.225  23.476   6.141  0.0289  0.1607 -0.0922
 2609DPPC   GL152995  30.007  23.685   5.738  0.1733  0.1390  0.2287
 2609DPPC   GL252996  29.709  23.761   5.894 -0.0095 -0.2068  0.1957
 2609DPPC   C1A52997  29.766  23.664   5.330  0.1006 -0.1327 -0.2683
 2609DPPC   C2A52998  29.813  23.798   5.016 -0.1303  0.0239  0.1364
 2609DPPC   C3A52999  29.734  24.247   4.900 -0.0548 -0.0254 -0.0578
 2609DPPC   C4A53000  29.938  24.691   4.699 -0.1081  0.0978 -0.0247
 2609DPPC   C1B53001  29.341  23.887   5.714 -0.0179  0.1694 -0.2028
 2609DPPC   C2B53002  28.909  24.038   5.560  0.2895 -0.2742 -0.0191
 2609DPPC   C3B53003  28.557  24.089   5.317 -0.1832  0.2617 -0.3302
 2609DPPC   C4B53004  28.298  24.345   5.589 -0.0335 -0.0057 -0.0148
 2610DPPC   NC353005  26.785  39.643  12.977 -0.0304  0.0316 -0.0445
 2610DPPC   PO453006  26.794  39.262  13.206 -0.0861 -0.0358  0.1287
 2610DPPC   GL153007  26.639  39.108  13.693  0.1388  0.2577  0.1023
 2610DPPC   GL253008  26.408  39.197  13.928 -0.0794 -0.2746  0.3311
 2610DPPC   C1A53009  27.000  38.945  14.060  0.1497 -0.2021  0.0375
 2610DPPC   C2A53010  27.070  38.882  14.540  0.0156  0.1383  0.2860
 2610DPPC   C3A53011  26.909  38.762  15.001 -0.0462 -0.2238  0.0659
 2610DPPC   C4A53012  27.041  38.541  15.317  0.2616  0.2008 -0.1572
 2610DPPC   C1B53013  26.467  38.849  14.156 -0.0772  0.2688  0.0263
 2610DPPC   C2B53014  26.692  38.546  14.404 -0.1200  0.4389 -0.0659
 2610DPPC   C3B53015  26.622  38.325  14.809  0.0467  0.2582 -0.0137
 2610DPPC   C4B53016  26.774  38.124  15.184  0.0810  0.3820  0.3688
 2611DPPC   NC353017  23.523  24.788  19.201 -0.1530 -0.3672 -0.1526
 2611DPPC   PO453018  23.831  24.824  19.492 -0.0874  0.6060  0.1356
 2611DPPC   GL153019  23.449  24.804  19.723 -0.3199 -0.2605  0.3276
 2611DPPC   GL253020  23.076  24.954  19.703 -0.3561  0.0376 -0.4383
 2611DPPC   C1A53021  23.337  24.477  19.894  0.0607 -0.0258  0.0244
 2611DPPC   C2A53022  22.958  24.252  19.827 -0.2860 -0.1825 -0.1824
 2611DPPC   C3A53023  22.648  23.943  19.893  0.1503  0.6117 -0.0871
 2611DPPC   C4A53024  22.539  23.558  19.935 -0.1081  0.0306 -0.4634
 2611DPPC   C1B53025  22.736  24.670  19.817 -0.2020 -0.0280  0.0268
 2611DPPC   C2B53026  22.514  24.352  19.683  0.0209 -0.1886 -0.0807
 2611DPPC   C3B53027  22.327  24.051  19.456 -0.2987  0.1252  0.4752
 2611DPPC   C4B53028  22.386  23.817  19.052 -0.1135  0.0204 -0.1327
 2612DPPC   NC353029  35.462  31.891  11.837 -0.0856  0.2632 -0.2726
 2612DPPC   PO453030  35.513  32.273  12.092 -0.1289  0.3369  0.0899
 2612DPPC   GL153031  35.431  32.200  12.584 -0.0577 -0.0299  0.3050
 2612DPPC   GL253032  35.429  32.026  12.920  0.0682 -0.2657 -0.1732
 2612DPPC   C1A53033  35.035  32.400  12.728 -0.1535  0.0163  0.0161
 2612DPPC   C2A53034  34.678  32.650  13.049  0.1299 -0.0617  0.0758
 2612DPPC   C3A53035  34.237  32.729  13.141  0.1702  0.0495 -0.0375
 2612DPPC   C4A53036  33.841  32.695  13.059  0.0934  0.0044  0.2224
 2612DPPC   C1B53037  34.980  31.993  13.058  0.1794  0.0374 -0.3084
 2612DPPC   C2B53038  34.527  32.080  13.130 -0.2854 -0.0155 -0.0446
 2612DPPC   C3B53039  34.030  32.227  13.039 -0.3361  0.0110  0.1573
 2612DPPC   C4B53040  33.610  32.171  13.086  0.1791  0.0920 -0.0525
 2613DPPC   NC353041  29.074  35.108  10.691 -0.1616  0.2551 -0.3720
 2613DPPC   PO453042  29.467  35.292  10.807 -0.1569 -0.0670 -0.1229
 2613DPPC   GL153043  29.417  35.432  11.330  0.0782 -0.0932  0.5212
 2613DPPC   GL253044  29.264  35.553  11.587  0.0544 -0.0903  0.1592
 2613DPPC   C1A53045  29.542  35.363  11.899  0.1324 -0.0052 -0.2354
 2613DPPC   C2A53046  29.563  35.285  12.332  0.2380  0.0502  0.0714
 2613DPPC   C3A53047  29.329  35.406  12.596  0.0164  0.2567  0.0824
 2613DPPC   C4A53048  29.097  35.798  12.817  0.1180 -0.2037 -0.0001
 2613DPPC   C1B53049  29.056  35.089  11.642 -0.3765  0.2719  0.4379
 2613DPPC   C2B53050  29.090  34.988  12.109  0.0480  0.0736 -0.3367
 2613DPPC   C3B53051  29.235  34.862  12.494  0.3360 -0.0034 -0.0381
 2613DPPC   C4B53052  29.470  34.962  12.886  0.1259 -0.4408  0.0751
 2614DPPC   NC353053  19.250  28.422  12.605  0.0268 -0.0722 -0.0082
 2614DPPC   PO453054  18.796  28.619  12.646 -0.0020  0.1310  0.3724
 2614DPPC   GL153055  19.108  28.715  12.989  0.3683 -0.0061  0.0057
 2614DPPC   GL253056  19.443  28.838  13.116 -0.0802 -0.1000 -0.1034
 2614DPPC   C1A53057  19.283  28.493  13.410 -0.2868 -0.0221 -0.0310
 2614DPPC   C2A53058  19.689  28.307  13.628  0.0267 -0.1209  0.3096
 2614DPPC   C3A53059  19.960  28.490  13.917  0.1473 -0.1219 -0.4162
 2614DPPC   C4A53060  20.326  28.484  13.952  0.2210 -0.2493 -0.2362
 2614DPPC   C1B53061  19.845  28.832  13.313 -0.1121 -0.1121  0.0128
 2614DPPC   C2B53062  20.162  28.802  13.557  0.2335 -0.0918  0.0001
 2614DPPC   C3B53063  20.569  29.016  13.586 -0.1856 -0.2155  0.1459
 2614DPPC   C4B53064  20.911  28.615  13.652 -0.1387  0.1914 -0.1932
 2615DPPC   NC353065  15.294  24.575   1.768 -0.1250 -0.0786  0.1904
 2615DPPC   PO453066  15.082  24.783   1.449 -0.1456  0.3476  0.0656
 2615DPPC   GL153067  15.274  25.156   1.433  0.2172 -0.0090  0.2610
 2615DPPC   GL253068  15.356  25.096   1.695  0.1761 -0.3174 -0.0387
 2615DPPC   C1A53069  15.624  25.576   1.147 -0.0101 -0.1733  0.0096
 2615DPPC   C2A53070  15.652  25.927   0.979  0.2551  0.1468 -0.1913
 2615DPPC   C3A53071  15.927  26.233   0.996  0.0727  0.2495  0.1578
 2615DPPC   C4A53072  16.360  26.180   1.009 -0.3368 -0.1482 -0.0343
 2615DPPC   C1B53073  15.731  25.011   1.451 -0.2201  0.1139 -0.2560
 2615DPPC   C2B53074  15.621  25.048   1.046  0.0238 -0.2549 -0.0879
 2615DPPC   C3B53075  15.648  25.072   0.608  0.1054  0.2212  0.1055
 2615DPPC   C4B53076  15.961  24.903   0.303 -0.1300  0.1772 -0.1241
 2616DPPC   NC353077  19.206  26.771  25.376  0.0865  0.2813  0.2731
 2616DPPC   PO453078  19.653  26.752  25.635  0.0454 -0.0479  0.0201
 2616DPPC   GL153079  19.831  27.054  25.575 -0.2906  0.2194  0.1500
 2616DPPC   GL253080  19.883  27.291  25.919  0.1026  0.4572 -0.1844
 2616DPPC   C1A53081  20.036  27.169  25.239  0.0438 -0.3047  0.3239
 2616DPPC   C2A53082  20.375  27.488  25.026 -0.0424 -0.1215  0.0363
 2616DPPC   C3A53083  20.523  27.890  24.929 -0.1384  0.0235 -0.0474
 2616DPPC   C4A53084  20.741  28.153  24.803 -0.1693  0.2976 -0.0994
 2616DPPC   C1B53085  19.800  27.597  25.470  0.0586  0.3329 -0.1715
 2616DPPC   C2B53086  19.989  27.752  25.140  0.0602  0.1381 -0.0699
 2616DPPC   C3B53087  20.228  28.093  25.346 -0.2676  0.5234  0.0459
 2616DPPC   C4B53088  20.268  28.475  25.576  0.1070  0.2940 -0.2463
 2617DPPC   NC353089  16.226  27.475  22.557 -0.2865  0.0423  0.2636
 2617DPPC   PO453090  16.361  27.920  22.593  0.1576 -0.2398 -0.2857
 2617DPPC   GL153091  15.876  27.798  22.728  0.1602  0.4724 -0.0324
 2617DPPC   GL253092  15.732  27.430  22.745  0.0849  0.2606 -0.0060
 2617DPPC   C1A53093  15.471  28.061  22.715 -0.1567 -0.2065 -0.1538
 2617DPPC   C2A53094  15.116  28.319  22.992 -0.1155 -0.0724  0.0677
 2617DPPC   C3A53095  14.798  28.755  22.979  0.1118  0.2682 -0.1881
 2617DPPC   C4A53096  14.666  29.018  22.702 -0.0999 -0.0943 -0.2813
 2617DPPC   C1B53097  15.562  27.323  23.094  0.0631  0.0211  0.1987
 2617DPPC   C2B53098  15.109  27.271  23.170  0.3621 -0.2187  0.2267
 2617DPPC   C3B53099  14.738  27.426  22.896  0.0496  0.0198  0.1586
 2617DPPC   C4B53100  14.593  27.693  22.513 -0.1781 -0.0762 -0.2054
 2618DPPC   NC353101  22.586  21.283  26.577 -0.0426  0.1470 -0.1962
 2618DPPC   PO453102  22.492  21.552   0.002 -0.0225 -0.1878 -0.1584
 2618DPPC   GL153103  22.239  21.323   0.311  0.2486 -0.2075 -0.0904
 2618DPPC   GL253104  22.199  21.448   0.650 -0.1378  0.0892 -0.2581
 2618DPPC   C1A53105  22.249  20.903   0.522 -0.1070  0.0407 -0.1262
 2618DPPC   C2A53106  22.465  20.564   0.766 -0.1724 -0.2496  0.1777
 2618DPPC   C3A53107  22.568  20.230   1.001 -0.3335  0.2086 -0.0826
 2618DPPC   C4A53108  22.835  20.029   1.329  0.2236 -0.2205 -0.2905
 2618DPPC   C1B53109  21.743  21.246   0.734  0.0710 -0.3805 -0.0236
 2618DPPC   C2B53110  21.473  20.954   0.751 -0.1612 -0.0162 -0.0863
 2618DPPC   C3B53111  21.529  20.531   0.663  0.0296 -0.0443  0.0228
 2618DPPC   C4B53112  21.630  20.073   0.785 -0.0980  0.0957  0.3355
 2619DPPC   NC353113  20.421  25.332  25.439  0.1354  0.0207  0.0948
 2619DPPC   PO453114  20.639  25.443  25.769 -0.0976  0.0107  0.0921
 2619DPPC   GL153115  20.786  25.723  25.400  0.0112  0.0892 -0.4010
 2619DPPC   GL253116  20.780  25.460  25.152 -0.2077  0.0440  0.1596
 2619DPPC   C1A53117  20.948  26.108  25.337 -0.3196  0.2464 -0.3740
 2619DPPC   C2A53118  21.311  26.362  25.310  0.0125 -0.3149 -0.2991
 2619DPPC   C3A53119  21.664  26.330  25.328  0.0351  0.0996 -0.0368
 2619DPPC   C4A53120  22.187  26.292  25.329  0.0159  0.1167  0.0186
 2619DPPC   C1B53121  20.978  25.761  24.903 -0.0278  0.0645 -0.1569
 2619DPPC   C2B53122  21.094  26.211  24.863 -0.0167  0.0826  0.0673
 2619DPPC   C3B53123  21.451  26.462  24.605  0.1700 -0.0050 -0.0470
 2619DPPC   C4B53124  21.858  26.459  24.418 -0.2036  0.2071 -0.1441
 2620DPPC   NC353125  23.292  22.016   1.574 -0.2293 -0.3823  0.1048
 2620DPPC   PO453126  23.402  21.892   1.169 -0.0390  0.1399  0.1034
 2620DPPC   GL153127  23.248  21.545   1.358 -0.0655 -0.4718  0.1230
 2620DPPC   GL253128  23.370  21.188   1.289  0.1618  0.2817  0.2089
 2620DPPC   C1A53129  23.037  21.345   1.675 -0.2465  0.2882 -0.1202
 2620DPPC   C2A53130  23.032  20.981   1.940 -0.1531  0.2087  0.0332
 2620DPPC   C3A53131  22.836  20.579   2.168 -0.0300 -0.2855  0.0794
 2620DPPC   C4A53132  23.100  20.262   2.322  0.1659  0.3441  0.1778
 2620DPPC   C1B53133  23.160  20.850   1.443  0.0623  0.3439  0.1816
 2620DPPC   C2B53134  22.889  20.574   1.653  0.0616 -0.2469  0.2081
 2620DPPC   C3B53135  22.514  20.843   1.709 -0.0758 -0.1017  0.0813
 2620DPPC   C4B53136  22.214  21.145   1.537  0.1577  0.3098  0.0476
 2621DPPC   NC353137  26.382  19.500  26.625  0.2519  0.1661 -0.1457
 2621DPPC   PO453138  26.188  19.747  26.919 -0.1726 -0.1634 -0.1152
 2621DPPC   GL153139  26.362  19.305   0.223 -0.0538  0.4148 -0.2871
 2621DPPC   GL253140  26.339  19.121   0.015  0.3458  0.0098  0.1272
 2621DPPC   C1A53141  26.140  18.982   0.520  0.1177 -0.0989 -0.2640
 2621DPPC   C2A53142  26.013  18.689   0.791  0.1419  0.0454  0.1842
 2621DPPC   C3A53143  25.953  18.770   1.179  0.0279 -0.0895 -0.0593
 2621DPPC   C4A53144  25.646  18.763   1.474 -0.1028 -0.3853 -0.0389
 2621DPPC   C1B53145  26.425  18.686   0.091  0.0156  0.0719 -0.2119
 2621DPPC   C2B53146  26.068  18.372   0.359  0.0487 -0.0770 -0.1940
 2621DPPC   C3B53147  25.648  18.223   0.408  0.5036 -0.2932 -0.1691
 2621DPPC   C4B53148  25.235  18.159   0.511 -0.0801  0.0329 -0.0233
 2622DPPC   NC353149  18.454  22.917  20.396  0.0722  0.3546  0.1958
 2622DPPC   PO453150  18.354  23.206  20.115 -0.0671  0.0015  0.1667
 2622DPPC   GL153151  17.985  23.113  20.149  0.0724 -0.1070 -0.0173
 2622DPPC   GL253152  17.967  22.797  20.232  0.0571  0.3472  0.0527
 2622DPPC   C1A53153  17.479  23.029  20.201  0.2849 -0.0575 -0.2591
 2622DPPC   C2A53154  17.298  22.716  20.497 -0.0397 -0.2256  0.1200
 2622DPPC   C3A53155  17.118  22.437  20.438  0.0315 -0.0078  0.1575
 2622DPPC   C4A53156  16.820  22.185  20.682 -0.2706 -0.0163 -0.2886
 2622DPPC   C1B53157  17.582  22.563  20.092  0.2648 -0.1018  0.1513
 2622DPPC   C2B53158  17.251  22.407  19.828  0.2391 -0.3741 -0.1947
 2622DPPC   C3B53159  16.859  22.290  19.828  0.0056 -0.3157  0.0219
 2622DPPC   C4B53160  16.636  21.838  19.806 -0.1819 -0.0887  0.0602
 2623DPPC   NC353161  16.883  28.525  24.224  0.2818  0.1975 -0.1398
 2623DPPC   PO453162  16.766  28.977  24.004  0.3602  0.2726  0.3395
 2623DPPC   GL153163  16.604  29.390  23.897 -0.1753  0.2200 -0.0272
 2623DPPC   GL253164  16.710  29.490  24.129  0.0768 -0.2535  0.3404
 2623DPPC   C1A53165  16.366  29.746  23.881 -0.1351  0.4072 -0.0680
 2623DPPC   C2A53166  16.246  30.162  23.727  0.2538  0.1547 -0.1641
 2623DPPC   C3A53167  16.341  30.623  23.752 -0.0247  0.4689  0.3421
 2623DPPC   C4A53168  16.317  30.871  23.598  0.3119  0.1418  0.0295
 2623DPPC   C1B53169  16.857  29.883  23.947  0.0231 -0.0976  0.1976
 2623DPPC   C2B53170  16.756  30.298  23.948  0.0631  0.0351 -0.1711
 2623DPPC   C3B53171  16.892  30.701  24.177  0.1651 -0.1688  0.1701
 2623DPPC   C4B53172  16.829  30.798  24.653  0.0545  0.0231  0.2751
 2624DPPC   NC353173  19.065  26.104   1.085 -0.1503 -0.2243 -0.1340
 2624DPPC   PO453174  18.919  25.802   0.881  0.1672 -0.2417 -0.0477
 2624DPPC   GL153175  18.678  25.676   1.164  0.4135  0.3360  0.4609
 2624DPPC   GL253176  18.445  25.715   1.071 -0.1148  0.1508 -0.2422
 2624DPPC   C1A53177  18.242  25.423   1.458 -0.0494 -0.0227 -0.2132
 2624DPPC   C2A53178  17.863  25.232   1.583  0.0873  0.0184  0.1868
 2624DPPC   C3A53179  17.510  25.257   1.983  0.1625  0.2417  0.0077
 2624DPPC   C4A53180  17.345  25.097   2.341 -0.1030 -0.0396 -0.1540
 2624DPPC   C1B53181  18.044  25.790   1.241 -0.0984 -0.0482  0.1380
 2624DPPC   C2B53182  17.523  25.885   1.331  0.1553 -0.1950  0.0871
 2624DPPC   C3B53183  17.209  25.662   1.289 -0.1456 -0.2958 -0.3003
 2624DPPC   C4B53184  16.849  25.481   1.387  0.0688  0.1529 -0.0268
 2625DPPC   NC353185  20.325  23.550   0.230  0.3306 -0.1474 -0.2539
 2625DPPC   PO453186  20.118  23.854  26.866  0.3898 -0.1812 -0.3560
 2625DPPC   GL153187  19.817  23.640   0.188  0.2856 -0.3348  0.2506
 2625DPPC   GL253188  19.959  23.697   0.480 -0.1151  0.1042 -0.1993
 2625DPPC   C1A53189  19.730  23.262   0.271 -0.1764 -0.0743 -0.3005
 2625DPPC   C2A53190  19.648  22.944   0.597 -0.1320  0.2539 -0.0162
 2625DPPC   C3A53191  19.513  22.656   0.757  0.0256 -0.3520 -0.3125
 2625DPPC   C4A53192  19.200  22.398   1.000 -0.0900  0.1129  0.0528
 2625DPPC   C1B53193  19.816  23.368   0.723 -0.2016  0.2858 -0.0487
 2625DPPC   C2B53194  19.503  23.187   1.009 -0.2014  0.0162 -0.1732
 2625DPPC   C3B53195  19.141  22.913   0.906 -0.1945 -0.2564 -0.0544
 2625DPPC   C4B53196  18.716  22.841   0.907  0.0007 -0.1463 -0.2584
 2626DPPC   NC353197  18.519  36.522  18.233 -0.0940  0.0637  0.0912
 2626DPPC   PO453198  18.496  36.824  18.473 -0.1368  0.0021 -0.1739
 2626DPPC   GL153199  18.947  36.654  18.424 -0.0742 -0.1711  0.1666
 2626DPPC   GL253200  19.178  36.900  18.331 -0.1565 -0.0261 -0.3505
 2626DPPC   C1A53201  19.198  36.313  18.418 -0.2459 -0.0026  0.0245
 2626DPPC   C2A53202  19.521  35.879  18.407 -0.2862  0.2234  0.2568
 2626DPPC   C3A53203  19.815  35.616  18.607  0.5380  0.1598 -0.2559
 2626DPPC   C4A53204  20.199  35.323  18.554 -0.1276 -0.1638  0.1600
 2626DPPC   C1B53205  19.336  36.762  18.022 -0.1497  0.0324 -0.2104
 2626DPPC   C2B53206  19.445  36.608  17.619  0.0488  0.2030  0.0270
 2626DPPC   C3B53207  19.725  36.601  17.309  0.1294  0.0299  0.2229
 2626DPPC   C4B53208  19.811  36.278  17.123  0.2833 -0.0428 -0.0681
 2627DPPC   NC353209  22.852  18.990   3.724  0.1210 -0.5116  0.0061
 2627DPPC   PO453210  22.398  18.993   3.767  0.2261 -0.1119  0.1994
 2627DPPC   GL153211  22.493  19.230   3.359  0.1516  0.0474 -0.0075
 2627DPPC   GL253212  22.785  19.476   3.555 -0.2676 -0.1086 -0.0799
 2627DPPC   C1A53213  22.357  19.591   3.190 -0.0938  0.1231  0.1576
 2627DPPC   C2A53214  22.326  20.090   3.177 -0.1031  0.2690 -0.0533
 2627DPPC   C3A53215  22.326  20.454   2.925  0.1743  0.0834  0.1311
 2627DPPC   C4A53216  22.540  20.605   2.628  0.2485 -0.2411 -0.0045
 2627DPPC   C1B53217  22.649  19.836   3.592 -0.0644 -0.0974  0.4214
 2627DPPC   C2B53218  22.647  20.177   3.572  0.0011  0.0170  0.3118
 2627DPPC   C3B53219  22.492  20.558   3.427 -0.0883  0.1633 -0.2213
 2627DPPC   C4B53220  22.298  20.898   3.317 -0.0545 -0.1324  0.0520
 2628DPPC   NC353221  34.450  30.980   5.086 -0.0994 -0.0993  0.0571
 2628DPPC   PO453222  34.420  30.616   5.364  0.0239  0.3791  0.0854
 2628DPPC   GL153223  34.084  30.435   4.970 -0.0681 -0.0829 -0.1259
 2628DPPC   GL253224  33.953  30.420   4.629 -0.0071 -0.0235 -0.1707
 2628DPPC   C1A53225  33.671  30.377   5.059 -0.0431 -0.2451 -0.1654
 2628DPPC   C2A53226  33.277  30.279   5.029  0.0637 -0.1722 -0.2017
 2628DPPC   C3A53227  32.942  30.417   4.861 -0.2038 -0.1507 -0.0327
 2628DPPC   C4A53228  32.857  30.812   4.854 -0.2690 -0.0427 -0.1258
 2628DPPC   C1B53229  33.957  30.205   4.297 -0.2672 -0.1152  0.1811
 2628DPPC   C2B53230  34.030  29.781   4.274  0.2061  0.1106 -0.1840
 2628DPPC   C3B53231  34.296  29.733   4.490  0.4040 -0.1874 -0.1319
 2628DPPC   C4B53232  34.684  29.684   4.162 -0.3791  0.3398 -0.1505
 2629DPPC   NC353233  26.943  24.879   8.660 -0.2365  0.0053 -0.1279
 2629DPPC   PO453234  26.836  25.239   8.351  0.0400 -0.2381 -0.0442
 2629DPPC   GL153235  26.915  25.158   7.886 -0.0346 -0.0727  0.1090
 2629DPPC   GL253236  27.059  25.480   7.754  0.4166 -0.1408 -0.3156
 2629DPPC   C1A53237  26.886  24.929   7.568 -0.0637 -0.0086 -0.1846
 2629DPPC   C2A53238  26.843  24.865   7.100  0.0405  0.1149 -0.1682
 2629DPPC   C3A53239  27.290  24.931   6.933  0.0786 -0.0443  0.2134
 2629DPPC   C4A53240  27.622  25.287   7.126  0.1092 -0.1771 -0.2961
 2629DPPC   C1B53241  26.767  25.450   7.364 -0.2711  0.0853 -0.0218
 2629DPPC   C2B53242  26.339  25.261   7.118 -0.1892 -0.2394 -0.1768
 2629DPPC   C3B53243  26.158  25.040   6.834  0.1677  0.2753  0.0434
 2629DPPC   C4B53244  25.718  24.755   6.866  0.0426  0.1064  0.1220
 2630DPPC   NC353245  14.357  22.708  22.528  0.1162 -0.1054  0.1169
 2630DPPC   PO453246  14.078  22.833  22.932 -0.2956 -0.5159 -0.1131
 2630DPPC   GL153247  14.510  23.063  22.942  0.0220  0.2013  0.0071
 2630DPPC   GL253248  14.646  22.981  23.148 -0.3231  0.1752 -0.1701
 2630DPPC   C1A53249  14.518  23.538  22.973  0.3434  0.1327 -0.5208
 2630DPPC   C2A53250  14.875  23.882  23.074  0.2841 -0.0310  0.0674
 2630DPPC   C3A53251  15.216  24.124  23.247 -0.1414  0.0529  0.0437
 2630DPPC   C4A53252  15.463  24.414  23.512 -0.0080 -0.1526  0.0415
 2630DPPC   C1B53253  14.931  23.356  22.973  0.1789  0.1033 -0.1494
 2630DPPC   C2B53254  15.276  23.722  22.868 -0.2256 -0.1993  0.1914
 2630DPPC   C3B53255  15.701  23.753  22.999 -0.3159 -0.3336 -0.2659
 2630DPPC   C4B53256  16.102  23.787  23.120 -0.1388 -0.0291  0.1548
 2631DPPC   NC353257  19.061  23.088  20.470 -0.1916  0.3029  0.2750
 2631DPPC   PO453258  18.778  22.903  20.808  0.2160 -0.1494  0.1233
 2631DPPC   GL153259  18.566  22.551  20.792 -0.2252  0.3266 -0.1945
 2631DPPC   GL253260  18.609  22.373  21.057  0.1091 -0.2165 -0.0099
 2631DPPC   C1A53261  18.149  22.288  20.662  0.2581 -0.1403 -0.0535
 2631DPPC   C2A53262  17.924  21.893  20.601 -0.1632  0.2369 -0.2207
 2631DPPC   C3A53263  17.707  21.509  20.551  0.1745  0.2040  0.0375
 2631DPPC   C4A53264  17.314  21.273  20.618 -0.1843  0.1931 -0.0366
 2631DPPC   C1B53265  18.351  22.074  21.062 -0.3079 -0.2974  0.0182
 2631DPPC   C2B53266  18.025  22.012  21.138 -0.0827 -0.0235 -0.0188
 2631DPPC   C3B53267  17.807  21.696  21.127 -0.1955 -0.1746 -0.1003
 2631DPPC   C4B53268  17.579  21.367  21.074  0.4293 -0.3820 -0.0586
 2632DPPC   NC353269  22.214  20.739  20.894  0.2271 -0.0007 -0.0494
 2632DPPC   PO453270  22.200  20.876  20.535  0.1888 -0.2568 -0.1220
 2632DPPC   GL153271  22.583  21.215  20.413 -0.2321  0.4949  0.0198
 2632DPPC   GL253272  22.670  21.226  20.090  0.2180 -0.2098 -0.2564
 2632DPPC   C1A53273  23.005  21.403  20.599  0.0201  0.4117  0.1601
 2632DPPC   C2A53274  23.323  21.626  20.433 -0.1951  0.0059 -0.0884
 2632DPPC   C3A53275  23.521  22.070  20.549 -0.0603  0.1586 -0.3080
 2632DPPC   C4A53276  23.530  22.377  20.160 -0.0661  0.2242  0.0127
 2632DPPC   C1B53277  22.961  21.535  20.078 -0.0577  0.1438 -0.2417
 2632DPPC   C2B53278  23.174  21.801  19.778  0.0269  0.2136  0.0525
 2632DPPC   C3B53279  23.396  21.999  19.430 -0.1523 -0.0864  0.1183
 2632DPPC   C4B53280  23.755  22.165  19.344  0.2249 -0.2569  0.0562
 2633DPPC   NC353281  21.288  23.192  24.513 -0.1835 -0.0879 -0.0664
 2633DPPC   PO453282  20.820  23.431  24.475 -0.0869 -0.0958  0.0573
 2633DPPC   GL153283  21.191  23.701  24.311  0.0243  0.0507  0.1425
 2633DPPC   GL253284  21.149  23.923  24.081 -0.4014  0.0247  0.1858
 2633DPPC   C1A53285  21.536  23.843  24.546 -0.1001  0.0071  0.0525
 2633DPPC   C2A53286  21.930  23.875  24.438 -0.1337 -0.1502 -0.0033
 2633DPPC   C3A53287  22.158  23.824  24.003  0.2235  0.1278 -0.0838
 2633DPPC   C4A53288  22.413  23.873  23.597  0.0213  0.3455 -0.0726
 2633DPPC   C1B53289  21.422  24.208  24.180  0.1144 -0.0492 -0.1375
 2633DPPC   C2B53290  21.891  24.365  24.163  0.3894 -0.0171  0.0349
 2633DPPC   C3B53291  22.233  24.697  23.982 -0.2263 -0.1772  0.2078
 2633DPPC   C4B53292  22.531  25.001  23.984  0.1257 -0.0430  0.0983
 2634DPPC   NC353293  20.714  23.011  26.391  0.1846 -0.0925 -0.4497
 2634DPPC   PO453294  21.052  22.947  26.647 -0.0963  0.2041 -0.0355
 2634DPPC   GL153295  20.739  22.575  26.863  0.0347 -0.4394 -0.2224
 2634DPPC   GL253296  20.917  22.368  26.606  0.4407  0.0691  0.0225
 2634DPPC   C1A53297  20.228  22.384   0.103  0.0525 -0.1269 -0.1306
 2634DPPC   C2A53298  19.913  22.117   0.438 -0.2646  0.1862  0.2157
 2634DPPC   C3A53299  19.955  21.788   0.764 -0.1010  0.0398  0.0857
 2634DPPC   C4A53300  19.956  21.549   1.166 -0.1097  0.2560 -0.0678
 2634DPPC   C1B53301  20.587  22.070  26.760  0.2882  0.3055  0.1834
 2634DPPC   C2B53302  20.217  21.771  26.837 -0.1647 -0.2953  0.1085
 2634DPPC   C3B53303  19.974  21.446  26.860  0.1561 -0.2819 -0.2295
 2634DPPC   C4B53304  19.719  21.220   0.055  0.1593  0.3213  0.2511
 2635DPPC   NC353305  24.144  26.748   5.158  0.2732 -0.0531 -0.4261
 2635DPPC   PO453306  24.095  26.508   5.530 -0.1505 -0.0518  0.0045
 2635DPPC   GL153307  24.083  26.831   5.867 -0.1307  0.2645  0.2972
 2635DPPC   GL253308  24.313  26.862   6.034 -0.3085  0.0909  0.0937
 2635DPPC   C1A53309  23.890  26.806   6.393 -0.0316  0.0141  0.0160
 2635DPPC   C2A53310  24.045  26.885   6.796  0.2306 -0.2148 -0.0138
 2635DPPC   C3A53311  24.359  26.957   7.107  0.0482 -0.0479 -0.1068
 2635DPPC   C4A53312  24.554  27.202   7.263  0.0967  0.1291 -0.1268
 2635DPPC   C1B53313  24.470  27.048   6.265  0.1503  0.0992  0.2160
 2635DPPC   C2B53314  24.521  27.148   6.617 -0.2818 -0.3970  0.1453
 2635DPPC   C3B53315  24.562  26.708   6.715  0.2366 -0.1092 -0.1328
 2635DPPC   C4B53316  24.260  26.507   6.539 -0.0022  0.2222  0.1236
 2636DPPC   NC353317  21.567  28.225  20.008  0.2280 -0.1417  0.2513
 2636DPPC   PO453318  21.338  28.396  20.360  0.1102 -0.1764 -0.0709
 2636DPPC   GL153319  21.142  28.327  20.705 -0.1499 -0.0480  0.4068
 2636DPPC   GL253320  20.961  28.085  20.504  0.1981  0.2745 -0.1194
 2636DPPC   C1A53321  21.147  28.109  21.079 -0.1476  0.3110  0.0055
 2636DPPC   C2A53322  20.823  28.118  21.399 -0.0293  0.2822  0.1691
 2636DPPC   C3A53323  20.604  27.901  21.791  0.1464  0.1305  0.0359
 2636DPPC   C4A53324  20.490  27.460  21.870  0.0513  0.2913  0.1458
 2636DPPC   C1B53325  20.860  27.788  20.851  0.2452 -0.0281 -0.0646
 2636DPPC   C2B53326  20.936  27.574  21.186 -0.2544 -0.0468 -0.1692
 2636DPPC   C3B53327  21.144  27.277  21.334  0.0766  0.0258 -0.1318
 2636DPPC   C4B53328  21.510  27.180  21.269 -0.0847  0.2635  0.0758
 2637DPPC   NC353329  26.721  29.058   2.131  0.1880 -0.1250 -0.2226
 2637DPPC   PO453330  26.821  28.682   2.176 -0.1480  0.1528 -0.2212
 2637DPPC   GL153331  26.972  28.262   2.254 -0.0013 -0.0096 -0.1382
 2637DPPC   GL253332  26.827  28.253   2.637 -0.0907  0.0723  0.1389
 2637DPPC   C1A53333  26.983  27.895   2.166  0.0758 -0.0627  0.0097
 2637DPPC   C2A53334  26.840  27.519   2.308  0.0952 -0.5048  0.0209
 2637DPPC   C3A53335  26.550  27.287   2.445  0.0296 -0.1360 -0.0679
 2637DPPC   C4A53336  26.073  27.467   2.490 -0.1925  0.0258  0.0513
 2637DPPC   C1B53337  26.692  28.198   3.015 -0.0724  0.0585 -0.0728
 2637DPPC   C2B53338  26.527  28.425   3.390 -0.3348  0.1667  0.2147
 2637DPPC   C3B53339  26.466  28.687   3.742  0.2355 -0.1689  0.0654
 2637DPPC   C4B53340  26.073  28.808   3.797  0.0477  0.2073 -0.2248
 2638DPPC   NC353341  26.335  23.673  23.105  0.0221 -0.1762 -0.3733
 2638DPPC   PO453342  26.719  23.592  23.268 -0.2825  0.1773  0.2035
 2638DPPC   GL153343  26.393  23.475  23.559  0.3574  0.1876 -0.0476
 2638DPPC   GL253344  26.506  23.414  23.936 -0.2193  0.0735 -0.2384
 2638DPPC   C1A53345  26.083  23.206  23.635  0.1091  0.3355 -0.4733
 2638DPPC   C2A53346  25.702  22.842  23.553 -0.2114 -0.1661 -0.4323
 2638DPPC   C3A53347  25.350  22.626  23.455  0.2904 -0.0350  0.0549
 2638DPPC   C4A53348  24.840  22.471  23.422 -0.2846 -0.1354 -0.0156
 2638DPPC   C1B53349  26.307  23.055  24.121  0.2499 -0.0572  0.0933
 2638DPPC   C2B53350  25.996  22.632  24.300  0.2142 -0.0785 -0.0716
 2638DPPC   C3B53351  25.626  22.594  24.238  0.0589  0.1739  0.1132
 2638DPPC   C4B53352  25.415  22.939  24.385 -0.0208 -0.1595  0.1629
 2639DPPC   NC353353  14.844  21.338  19.910 -0.3390  0.2599 -0.1031
 2639DPPC   PO453354  14.625  21.552  19.654  0.0861 -0.0325  0.0579
 2639DPPC   GL153355  15.061  21.814  19.875  0.0348  0.1405  0.0815
 2639DPPC   GL253356  15.286  21.540  19.850 -0.1018  0.0124  0.0527
 2639DPPC   C1A53357  15.413  22.071  19.636 -0.1193  0.1861 -0.3053
 2639DPPC   C2A53358  15.409  22.448  19.595  0.1186  0.1585  0.2546
 2639DPPC   C3A53359  15.219  22.855  19.476  0.0642  0.0939  0.1803
 2639DPPC   C4A53360  15.343  23.292  19.470  0.0472 -0.2052  0.1061
 2639DPPC   C1B53361  15.699  21.658  19.757  0.1394 -0.0573  0.2850
 2639DPPC   C2B53362  16.200  21.617  19.707  0.1037  0.2288  0.3531
 2639DPPC   C3B53363  16.532  21.357  19.685 -0.0008  0.0939 -0.0187
 2639DPPC   C4B53364  16.939  21.282  19.750  0.0460 -0.0045 -0.1694
 2640DPPC   NC353365  19.791  31.017  23.252 -0.2567  0.1572  0.2614
 2640DPPC   PO453366  19.546  31.371  23.080 -0.2872 -0.2727  0.2095
 2640DPPC   GL153367  19.061  31.495  23.196 -0.1784 -0.0919 -0.4184
 2640DPPC   GL253368  18.903  31.425  22.928  0.0123  0.0690 -0.2570
 2640DPPC   C1A53369  18.621  31.632  23.274  0.0732  0.1507  0.1509
 2640DPPC   C2A53370  18.300  31.445  23.089  0.2306 -0.0867  0.0242
 2640DPPC   C3A53371  18.130  31.111  22.734  0.0066  0.4031 -0.2077
 2640DPPC   C4A53372  18.257  30.864  22.425 -0.0046 -0.1355 -0.1728
 2640DPPC   C1B53373  18.616  31.233  22.720  0.2918 -0.1169 -0.2628
 2640DPPC   C2B53374  18.345  31.378  22.281 -0.0149 -0.0783 -0.0113
 2640DPPC   C3B53375  18.013  31.285  22.290 -0.1705  0.0500 -0.2016
 2640DPPC   C4B53376  17.635  31.111  22.559  0.0523  0.2083  0.0775
 2641DPPC   NC353377  14.891  21.071  18.622 -0.2589  0.2134 -0.2400
 2641DPPC   PO453378  14.889  21.494  18.523 -0.0282 -0.0602 -0.4533
 2641DPPC   GL153379  15.243  21.652  18.528 -0.1507 -0.0653 -0.0857
 2641DPPC   GL253380  15.253  21.478  18.896  0.1866  0.0008  0.1816
 2641DPPC   C1A53381  15.647  21.608  18.443  0.1570 -0.1472 -0.1690
 2641DPPC   C2A53382  15.864  21.730  18.780 -0.0757 -0.0169  0.0131
 2641DPPC   C3A53383  16.074  22.147  18.871  0.0196 -0.2120 -0.2344
 2641DPPC   C4A53384  16.379  22.432  19.054  0.1415 -0.0639  0.3355
 2641DPPC   C1B53385  15.343  21.915  19.126 -0.2621  0.2090  0.1962
 2641DPPC   C2B53386  15.374  22.371  19.026 -0.0981 -0.3067 -0.1763
 2641DPPC   C3B53387  15.492  22.807  19.094 -0.3191 -0.1213 -0.0599
 2641DPPC   C4B53388  15.745  22.997  19.378 -0.0689  0.0814  0.1419
 2642DPPC   NC353389  34.770  30.734  26.341  0.1470 -0.0070  0.2395
 2642DPPC   PO453390  34.369  30.502  26.604 -0.2847 -0.0255  0.3820
 2642DPPC   GL153391  34.447  30.682   0.107 -0.0788 -0.1979  0.2105
 2642DPPC   GL253392  34.393  30.763   0.400  0.0200 -0.4539 -0.0489
 2642DPPC   C1A53393  34.953  30.711   0.230 -0.0003 -0.0680 -0.0793
 2642DPPC   C2A53394  35.182  30.966   0.564  0.2948 -0.3265  0.2674
 2642DPPC   C3A53395  35.383  31.270   0.725 -0.1299 -0.1088 -0.2424
 2642DPPC   C4A53396  35.589  31.690   0.831 -0.1213  0.1195 -0.1033
 2642DPPC   C1B53397  34.527  30.436   0.494  0.0223 -0.3936 -0.2235
 2642DPPC   C2B53398  34.859  30.342   0.599 -0.4564 -0.1700  0.1531
 2642DPPC   C3B53399  35.206  30.366   0.643 -0.1331  0.1680 -0.0029
 2642DPPC   C4B53400  35.533  30.274   0.763  0.0310 -0.0850 -0.1022
 2643DPPC   NC353401  19.819  32.827   5.035  0.1314  0.2376  0.1621
 2643DPPC   PO453402  20.153  33.037   4.898  0.0681  0.0837  0.0130
 2643DPPC   GL153403  20.393  32.923   4.544 -0.2275  0.1865  0.0332
 2643DPPC   GL253404  20.660  33.109   4.562  0.1398  0.2349 -0.5915
 2643DPPC   C1A53405  20.591  32.570   4.278  0.0481 -0.0088  0.1832
 2643DPPC   C2A53406  20.665  32.155   4.166 -0.2797 -0.0433 -0.3678
 2643DPPC   C3A53407  20.681  31.710   4.163 -0.1860  0.1478 -0.3472
 2643DPPC   C4A53408  20.557  31.503   4.520  0.3331  0.0349 -0.0514
 2643DPPC   C1B53409  20.801  33.172   4.209  0.0111 -0.1117  0.2778
 2643DPPC   C2B53410  21.039  33.162   3.842 -0.0106  0.2641  0.2775
 2643DPPC   C3B53411  21.248  32.821   3.578  0.0057 -0.3359  0.1110
 2643DPPC   C4B53412  21.534  32.601   3.532 -0.0240 -0.0551 -0.2901
 2644DPPC   NC353413  38.792  34.745  25.937  0.2059  0.0463  0.3788
 2644DPPC   PO453414  38.261  34.750  26.213 -0.1345 -0.0207  0.3224
 2644DPPC   GL153415  37.914  34.687  25.995  0.0046  0.0533  0.0430
 2644DPPC   GL253416  37.818  35.016  25.935 -0.1353  0.0954  0.0398
 2644DPPC   C1A53417  37.807  34.657  25.607 -0.2733 -0.2098 -0.0585
 2644DPPC   C2A53418  37.462  34.703  25.313  0.0918 -0.0804  0.1888
 2644DPPC   C3A53419  37.014  34.692  25.247  0.0970 -0.0099  0.0217
 2644DPPC   C4A53420  36.918  34.913  24.935 -0.0820  0.0432  0.5209
 2644DPPC   C1B53421  37.384  34.675  25.834 -0.3533 -0.1414  0.0745
 2644DPPC   C2B53422  37.121  34.369  25.585 -0.0501 -0.2116  0.0210
 2644DPPC   C3B53423  36.676  34.359  25.431  0.2857 -0.2586  0.1878
 2644DPPC   C4B53424  36.437  34.582  25.113 -0.2318 -0.0623  0.1738
 2645DPPC   NC353425  25.200  14.852  22.468  0.0489 -0.0792 -0.0533
 2645DPPC   PO453426  25.416  15.241  22.645  0.0904 -0.2980  0.2356
 2645DPPC   GL153427  25.323  15.749  22.414 -0.3186  0.2260 -0.2149
 2645DPPC   GL253428  25.104  15.737  22.518  0.2933  0.2562 -0.0042
 2645DPPC   C1A53429  25.382  16.165  22.172 -0.0944 -0.1268  0.2904
 2645DPPC   C2A53430  25.666  16.587  22.225  0.0378  0.1058 -0.0064
 2645DPPC   C3A53431  25.583  16.964  22.056 -0.3475  0.0773 -0.1899
 2645DPPC   C4A53432  25.471  17.380  21.820 -0.4869  0.1308  0.5538
 2645DPPC   C1B53433  24.884  15.992  22.278  0.0137 -0.2294  0.0105
 2645DPPC   C2B53434  24.731  16.276  22.110 -0.1042 -0.1983 -0.1775
 2645DPPC   C3B53435  24.440  16.591  22.158 -0.1304 -0.2609  0.2185
 2645DPPC   C4B53436  24.296  16.954  22.049  0.1005  0.4727 -0.0108
 2646DPPC   NC353437  35.254  29.169  22.034 -0.2444 -0.0145 -0.3783
 2646DPPC   PO453438  35.493  28.862  22.380  0.1011 -0.2319  0.1488
 2646DPPC   GL153439  35.956  28.715  22.322 -0.1434  0.0603  0.0741
 2646DPPC   GL253440  36.155  28.877  22.494 -0.3644 -0.0578 -0.2032
 2646DPPC   C1A53441  36.268  28.554  22.042  0.0778 -0.1489 -0.1205
 2646DPPC   C2A53442  36.693  28.535  21.978 -0.2493 -0.0612 -0.0876
 2646DPPC   C3A53443  37.209  28.433  21.889  0.2521  0.1489 -0.1934
 2646DPPC   C4A53444  37.551  28.512  22.081 -0.3264 -0.1812 -0.1452
 2646DPPC   C1B53445  36.495  28.781  22.427  0.1959 -0.2592 -0.1722
 2646DPPC   C2B53446  36.918  28.579  22.425  0.1752  0.1619 -0.0306
 2646DPPC   C3B53447  37.102  28.174  22.617  0.0481 -0.0660 -0.4667
 2646DPPC   C4B53448  36.746  27.998  22.905  0.1819 -0.1652  0.1096
 2647DPPC   NC353449  19.784  19.771   3.317 -0.2052 -0.2464  0.1154
 2647DPPC   PO453450  19.517  19.948   3.037  0.0282 -0.2400  0.2810
 2647DPPC   GL153451  19.572  20.290   2.700 -0.1505 -0.0533  0.2833
 2647DPPC   GL253452  19.279  20.424   2.525  0.2212 -0.0070 -0.2312
 2647DPPC   C1A53453  19.895  20.446   2.395  0.2467  0.2354  0.1892
 2647DPPC   C2A53454  20.182  20.295   2.050 -0.0128  0.5728  0.1482
 2647DPPC   C3A53455  20.402  19.954   1.881  0.2217 -0.1188 -0.2586
 2647DPPC   C4A53456  20.737  20.023   1.630 -0.2098  0.5063  0.1839
 2647DPPC   C1B53457  19.522  20.770   2.735 -0.2113  0.0937 -0.0512
 2647DPPC   C2B53458  19.669  21.186   2.908 -0.1806  0.0814 -0.2228
 2647DPPC   C3B53459  19.941  21.291   3.211  0.1102  0.1245  0.2754
 2647DPPC   C4B53460  20.239  20.865   3.284  0.1249 -0.1106 -0.1920
 2648DPPC   NC353461  25.029  39.402   2.735 -0.1082  0.2211  0.1045
 2648DPPC   PO453462  25.154  39.330   2.409 -0.0838  0.1897 -0.3397
 2648DPPC   GL153463  25.169  38.961   2.129 -0.0928 -0.1961  0.1124
 2648DPPC   GL253464  25.292  38.695   2.283  0.0090 -0.2391  0.0946
 2648DPPC   C1A53465  25.097  38.679   1.715 -0.0953 -0.5542  0.0617
 2648DPPC   C2A53466  25.279  38.495   1.397  0.0782  0.1875 -0.0357
 2648DPPC   C3A53467  25.270  38.236   0.985 -0.1423  0.0445  0.1239
 2648DPPC   C4A53468  25.391  38.244   0.655  0.3629 -0.2036 -0.0202
 2648DPPC   C1B53469  25.547  38.676   1.967 -0.2287 -0.0427  0.0194
 2648DPPC   C2B53470  25.928  38.554   1.927 -0.4659  0.1458  0.2033
 2648DPPC   C3B53471  26.291  38.171   1.605 -0.0484 -0.0134  0.3903
 2648DPPC   C4B53472  26.266  37.824   1.447 -0.0628 -0.1969 -0.0487
 2649DPPC   NC353473  20.163  19.345   2.634  0.2299  0.2052 -0.0162
 2649DPPC   PO453474  20.245  19.308   2.214  0.0387  0.0649 -0.1278
 2649DPPC   GL153475  20.570  19.607   2.187  0.0037  0.1109 -0.1055
 2649DPPC   GL253476  20.858  19.590   1.929  0.2280  0.0866 -0.4158
 2649DPPC   C1A53477  20.693  19.955   2.426  0.2477 -0.0078 -0.0574
 2649DPPC   C2A53478  20.861  20.237   2.100  0.2656  0.3187  0.1572
 2649DPPC   C3A53479  20.693  20.620   2.155  0.0575  0.0962 -0.1025
 2649DPPC   C4A53480  20.815  20.991   1.826 -0.2453 -0.1585  0.2165
 2649DPPC   C1B53481  21.266  19.833   1.933  0.1743 -0.1518  0.1871
 2649DPPC   C2B53482  21.329  20.254   1.925  0.1314 -0.1665  0.1308
 2649DPPC   C3B53483  21.578  20.430   1.607  0.1959 -0.1845  0.1387
 2649DPPC   C4B53484  21.657  20.612   1.185 -0.2549 -0.0140  0.2805
 2650DPPC   NC353485  20.719  33.679   4.642 -0.0066 -0.0429 -0.1414
 2650DPPC   PO453486  20.950  33.732   4.980  0.2068 -0.0585  0.1336
 2650DPPC   GL153487  21.171  33.987   4.657 -0.0190  0.0243  0.0960
 2650DPPC   GL253488  21.365  33.710   4.626 -0.1284  0.0314  0.0390
 2650DPPC   C1A53489  21.141  33.947   4.160 -0.0010  0.2473  0.0179
 2650DPPC   C2A53490  21.337  33.600   3.854  0.2428 -0.0283  0.0454
 2650DPPC   C3A53491  21.549  33.219   3.737  0.3769 -0.2849  0.3222
 2650DPPC   C4A53492  21.908  33.037   3.538 -0.1698  0.0953  0.0504
 2650DPPC   C1B53493  21.605  33.438   4.347  0.1644 -0.2488  0.2262
 2650DPPC   C2B53494  21.761  32.979   4.144  0.1419 -0.0190 -0.0438
 2650DPPC   C3B53495  22.119  32.773   3.905 -0.0210 -0.1879 -0.1292
 2650DPPC   C4B53496  22.442  32.965   3.741 -0.3652  0.2236 -0.1773
 2651DPPC   NC353497  15.274  25.836   3.289  0.1590  0.1956  0.0043
 2651DPPC   PO453498  15.174  25.730   2.909 -0.0530 -0.4326 -0.3844
 2651DPPC   GL153499  15.511  25.828   2.637  0.0078 -0.2886 -0.0787
 2651DPPC   GL253500  15.579  26.180   2.556  0.0051  0.3280 -0.0914
 2651DPPC   C1A53501  15.927  25.825   2.499  0.2997 -0.0140  0.1003
 2651DPPC   C2A53502  16.265  26.107   2.541  0.1096  0.1113  0.1250
 2651DPPC   C3A53503  16.512  26.417   2.649  0.0274 -0.0150  0.2741
 2651DPPC   C4A53504  16.654  26.822   2.835  0.0735 -0.1224  0.2335
 2651DPPC   C1B53505  15.928  26.353   2.357 -0.0482 -0.1090 -0.0960
 2651DPPC   C2B53506  16.272  26.497   2.150 -0.2634 -0.5132 -0.0993
 2651DPPC   C3B53507  16.719  26.604   2.153  0.0618  0.1562 -0.1357
 2651DPPC   C4B53508  17.143  26.339   2.137 -0.0270 -0.0665  0.2233
 2652DPPC   NC353509  25.378  24.354  22.330  0.4334  0.3444 -0.1374
 2652DPPC   PO453510  25.667  24.061  22.194  0.0400 -0.1012  0.5000
 2652DPPC   GL153511  25.483  23.839  22.555  0.0067  0.1154 -0.0347
 2652DPPC   GL253512  25.668  23.808  22.750 -0.3126 -0.1660 -0.1635
 2652DPPC   C1A53513  25.248  23.586  22.916 -0.2484  0.1354  0.1062
 2652DPPC   C2A53514  24.813  23.455  23.051 -0.1924 -0.0383  0.0242
 2652DPPC   C3A53515  24.547  23.324  23.281  0.0870 -0.3073 -0.1722
 2652DPPC   C4A53516  24.163  23.084  23.186 -0.1651  0.1830  0.2432
 2652DPPC   C1B53517  25.662  23.333  22.627  0.1934 -0.0388  0.0120
 2652DPPC   C2B53518  25.197  23.141  22.598  0.1990 -0.2301 -0.3580
 2652DPPC   C3B53519  24.962  23.011  23.089 -0.0054  0.0813  0.4006
 2652DPPC   C4B53520  24.969  22.975  23.526 -0.1989 -0.1233  0.1736
 2653DPPC   NC353521  25.697  30.002   2.922  0.1042 -0.1773  0.0916
 2653DPPC   PO453522  25.602  29.993   2.418  0.1774  0.2057 -0.0324
 2653DPPC   GL153523  25.168  29.765   2.701 -0.0716 -0.0890  0.1208
 2653DPPC   GL253524  25.094  29.608   2.528  0.3500 -0.0396  0.0290
 2653DPPC   C1A53525  25.051  29.379   2.978  0.1782 -0.0608 -0.0537
 2653DPPC   C2A53526  24.717  29.407   3.356 -0.0098 -0.1468  0.5824
 2653DPPC   C3A53527  24.517  29.263   3.746  0.2764 -0.2173  0.0325
 2653DPPC   C4A53528  24.382  29.242   4.221 -0.1038 -0.2480  0.0114
 2653DPPC   C1B53529  24.661  29.557   2.658 -0.0524 -0.2195  0.0564
 2653DPPC   C2B53530  24.300  29.658   2.932 -0.0207 -0.0106  0.0825
 2653DPPC   C3B53531  23.934  29.713   3.020  0.0929 -0.0065  0.0990
 2653DPPC   C4B53532  23.862  29.878   3.374  0.1877 -0.0114 -0.1290
 2654DPPC   NC353533  23.305  26.953  23.143  0.1995 -0.1566 -0.0022
 2654DPPC   PO453534  23.824  26.792  23.162  0.1773 -0.0199 -0.0470
 2654DPPC   GL153535  23.417  26.602  23.410  0.2827 -0.1527  0.1509
 2654DPPC   GL253536  23.303  26.276  23.267 -0.0430  0.1197 -0.0749
 2654DPPC   C1A53537  22.937  26.527  23.499 -0.2497 -0.1304  0.0974
 2654DPPC   C2A53538  22.519  26.400  23.626  0.3703  0.2334 -0.0141
 2654DPPC   C3A53539  22.069  26.193  23.721 -0.4357 -0.2963  0.1031
 2654DPPC   C4A53540  21.570  26.307  23.755 -0.3448 -0.2202  0.3142
 2654DPPC   C1B53541  22.925  26.039  23.603  0.2381  0.0233 -0.2282
 2654DPPC   C2B53542  22.578  25.809  23.817  0.0187 -0.0521 -0.2559
 2654DPPC   C3B53543  22.521  25.544  24.114  0.0819  0.1914  0.2274
 2654DPPC   C4B53544  22.852  25.289  24.242 -0.0080  0.0898 -0.3606
 2655DPPC   NC353545  26.265  23.740  22.608  0.0026 -0.1055  0.3152
 2655DPPC   PO453546  26.446  23.350  22.431 -0.1857 -0.1558 -0.0361
 2655DPPC   GL153547  26.169  23.266  22.680  0.0177 -0.0240 -0.0920
 2655DPPC   GL253548  26.243  23.160  23.153 -0.1665  0.0826  0.2534
 2655DPPC   C1A53549  25.889  22.929  22.789 -0.2371  0.1435  0.2683
 2655DPPC   C2A53550  25.512  22.961  22.988  0.1208  0.0387 -0.2665
 2655DPPC   C3A53551  25.484  23.283  23.230 -0.2433 -0.2265  0.2816
 2655DPPC   C4A53552  25.149  23.481  23.498  0.1849 -0.0464  0.1876
 2655DPPC   C1B53553  26.125  22.832  23.299  0.2895 -0.2191  0.4028
 2655DPPC   C2B53554  26.296  22.439  23.408 -0.0438  0.1109  0.2133
 2655DPPC   C3B53555  26.097  22.036  23.106  0.0914  0.0827 -0.2622
 2655DPPC   C4B53556  25.825  22.087  22.720  0.0480 -0.1628 -0.0137
 2656DPPC   NC353557  20.663  18.590   2.381  0.2244 -0.0480 -0.0512
 2656DPPC   PO453558  21.018  18.712   2.680  0.2068 -0.0609  0.1279
 2656DPPC   GL153559  21.224  18.748   2.310 -0.3719  0.2202  0.1945
 2656DPPC   GL253560  21.531  18.929   2.589 -0.0897  0.2197 -0.1846
 2656DPPC   C1A53561  21.487  19.018   2.068 -0.3326 -0.0770  0.0226
 2656DPPC   C2A53562  21.649  19.439   1.980  0.1588  0.1864 -0.0937
 2656DPPC   C3A53563  21.762  19.849   1.830  0.1814 -0.4717 -0.2294
 2656DPPC   C4A53564  21.934  20.139   1.987  0.2784  0.0827 -0.0643
 2656DPPC   C1B53565  21.703  19.263   2.477 -0.2828  0.2307  0.1260
 2656DPPC   C2B53566  21.753  19.678   2.453 -0.0663  0.1446  0.3009
 2656DPPC   C3B53567  21.584  20.016   2.316 -0.0644 -0.0940  0.0452
 2656DPPC   C4B53568  21.201  20.112   2.375 -0.0877 -0.1411 -0.0756
 2657DPPC   NC353569  16.373  23.738   2.557  0.0649  0.1014  0.1151
 2657DPPC   PO453570  16.351  24.156   2.728  0.0474 -0.0707  0.0985
 2657DPPC   GL153571  16.827  24.042   2.686 -0.2109 -0.1793 -0.0114
 2657DPPC   GL253572  16.852  24.178   2.946  0.0581  0.0963 -0.0355
 2657DPPC   C1A53573  17.274  24.142   2.620 -0.0478 -0.1181  0.0096
 2657DPPC   C2A53574  17.678  24.225   2.600  0.0938  0.0226  0.0519
 2657DPPC   C3A53575  17.866  23.962   2.411 -0.0403 -0.1714  0.0282
 2657DPPC   C4A53576  18.250  24.015   2.130 -0.0281  0.1913 -0.0822
 2657DPPC   C1B53577  17.191  24.401   3.055  0.1934 -0.2059 -0.1798
 2657DPPC   C2B53578  17.662  24.530   2.990 -0.0258  0.2259  0.0858
 2657DPPC   C3B53579  18.130  24.321   2.865 -0.2467  0.1258  0.2837
 2657DPPC   C4B53580  18.538  24.175   3.061 -0.0197  0.0806 -0.1402
 2658DPPC   NC353581  27.751  21.833   7.228  0.0238 -0.2110 -0.0918
 2658DPPC   PO453582  27.750  21.875   6.721  0.1638  0.0842  0.0376
 2658DPPC   GL153583  27.777  22.173   6.392  0.2147 -0.2354  0.1627
 2658DPPC   GL253584  27.959  22.188   6.062 -0.0482  0.2122  0.0833
 2658DPPC   C1A53585  27.973  22.615   6.429  0.0467 -0.0084  0.1936
 2658DPPC   C2A53586  28.153  23.031   6.299  0.2143 -0.2172 -0.1367
 2658DPPC   C3A53587  28.520  23.125   6.086  0.1382 -0.0633 -0.1800
 2658DPPC   C4A53588  28.759  22.811   5.858  0.0197  0.0534 -0.1456
 2658DPPC   C1B53589  27.646  22.455   5.976  0.2033  0.1592  0.0453
 2658DPPC   C2B53590  27.820  22.920   5.975  0.0955 -0.0140  0.0181
 2658DPPC   C3B53591  27.834  23.106   5.543  0.0732 -0.0453 -0.0196
 2658DPPC   C4B53592  27.899  23.222   5.122  0.1342 -0.0338 -0.1208
 2659DPPC   NC353593  35.000  29.147  19.785  0.0187  0.1611 -0.0780
 2659DPPC   PO453594  35.456  29.139  19.914 -0.0931  0.2244 -0.0027
 2659DPPC   GL153595  35.876  29.172  19.990 -0.0401 -0.1927  0.0304
 2659DPPC   GL253596  36.034  29.287  19.686 -0.0048 -0.0585 -0.3706
 2659DPPC   C1A53597  36.132  29.169  20.181  0.1975 -0.1406  0.1711
 2659DPPC   C2A53598  36.514  28.992  20.270  0.2862  0.3216 -0.1112
 2659DPPC   C3A53599  36.911  28.743  20.326 -0.0470  0.0345 -0.0794
 2659DPPC   C4A53600  37.279  28.461  20.574 -0.0408 -0.0939  0.2027
 2659DPPC   C1B53601  36.444  29.080  19.791  0.0673  0.1620 -0.2757
 2659DPPC   C2B53602  36.741  29.041  19.773 -0.0324  0.0717 -0.0893
 2659DPPC   C3B53603  37.155  29.081  20.026 -0.0977 -0.1744  0.3656
 2659DPPC   C4B53604  37.547  29.283  19.913  0.0574 -0.0570  0.0212
 2660DPPC   NC353605  27.703  25.943  26.668 -0.2369  0.3812 -0.1925
 2660DPPC   PO453606  27.701  25.984   0.147 -0.2079  0.0074 -0.2417
 2660DPPC   GL153607  27.412  25.816   0.578 -0.1801  0.0285  0.2818
 2660DPPC   GL253608  27.725  25.637   0.674 -0.1235  0.3795  0.0085
 2660DPPC   C1A53609  27.200  25.501   0.714  0.0584  0.0100  0.0243
 2660DPPC   C2A53610  27.276  25.204   0.470 -0.0913  0.2651  0.1091
 2660DPPC   C3A53611  27.424  24.999   0.079 -0.1977  0.0228  0.0324
 2660DPPC   C4A53612  27.715  24.929  26.729 -0.3063  0.0443  0.0686
 2660DPPC   C1B53613  27.779  25.182   0.662 -0.0304 -0.4270 -0.0815
 2660DPPC   C2B53614  27.626  24.942   0.984 -0.0676 -0.0203  0.1710
 2660DPPC   C3B53615  27.254  24.711   1.161 -0.3213 -0.2608 -0.3866
 2660DPPC   C4B53616  27.038  24.574   1.482  0.3327  0.2442 -0.2314
 2661DPPC   NC353617  26.461  16.084  23.173  0.1641 -0.2012  0.0090
 2661DPPC   PO453618  26.580  16.085  23.621  0.1943 -0.0329 -0.3494
 2661DPPC   GL153619  26.320  16.364  23.645 -0.1497 -0.0737  0.2024
 2661DPPC   GL253620  26.430  16.576  23.462  0.0819 -0.0953 -0.0978
 2661DPPC   C1A53621  25.928  16.631  23.454  0.0200 -0.2576 -0.1153
 2661DPPC   C2A53622  25.654  16.831  23.156  0.0200  0.2088  0.0260
 2661DPPC   C3A53623  25.534  17.110  22.933  0.2089 -0.1492  0.2073
 2661DPPC   C4A53624  25.106  17.345  22.873  0.1531  0.0866  0.2596
 2661DPPC   C1B53625  26.366  16.966  23.418 -0.0287 -0.2339 -0.0109
 2661DPPC   C2B53626  26.590  17.190  23.168 -0.0857  0.0270  0.4268
 2661DPPC   C3B53627  26.670  17.586  23.095 -0.1096  0.3174 -0.2115
 2661DPPC   C4B53628  26.875  17.993  23.195  0.2604  0.2990 -0.0685
 2662DPPC   NC353629  26.468  41.874  25.206  0.2246  0.0882  0.0587
 2662DPPC   PO453630  26.423  41.726  24.820 -0.0034  0.0559  0.3322
 2662DPPC   GL153631  26.646  41.289  24.949 -0.1381 -0.0020 -0.0853
 2662DPPC   GL253632  27.018  41.243  24.818  0.0770 -0.1061  0.2935
 2662DPPC   C1A53633  26.772  40.777  25.064 -0.0738 -0.2101  0.4500
 2662DPPC   C2A53634  27.048  40.475  24.824 -0.0065 -0.3192  0.2648
 2662DPPC   C3A53635  27.188  40.135  24.702  0.0128 -0.0367 -0.2215
 2662DPPC   C4A53636  27.237  39.750  24.449 -0.1908  0.0702  0.0679
 2662DPPC   C1B53637  26.945  40.945  24.523  0.1457 -0.4149 -0.3622
 2662DPPC   C2B53638  27.224  40.700  24.326  0.0335  0.2110  0.1136
 2662DPPC   C3B53639  27.499  40.374  24.307 -0.1876  0.1362 -0.1139
 2662DPPC   C4B53640  27.688  39.970  24.519 -0.1530  0.2400  0.2410
 2663DPPC   NC353641  39.716  33.822  22.306 -0.1719  0.0268 -0.0384
 2663DPPC   PO453642  39.690  34.063  22.711  0.1119 -0.0062  0.2937
 2663DPPC   GL153643  39.279  34.027  22.633  0.3296  0.2222  0.0820
 2663DPPC   GL253644  39.160  34.131  22.288  0.0892  0.2217 -0.0393
 2663DPPC   C1A53645  38.818  34.166  22.642 -0.2682  0.1365 -0.0473
 2663DPPC   C2A53646  38.362  34.066  22.615 -0.1016 -0.4306  0.1904
 2663DPPC   C3A53647  37.920  34.050  22.602  0.0707 -0.0196  0.1029
 2663DPPC   C4A53648  37.472  33.985  22.429  0.5647 -0.1846  0.2533
 2663DPPC   C1B53649  38.882  33.820  22.324  0.0490 -0.1833  0.0427
 2663DPPC   C2B53650  38.590  33.481  22.256  0.1116 -0.2386  0.4810
 2663DPPC   C3B53651  38.185  33.215  22.219  0.2571  0.2507 -0.2153
 2663DPPC   C4B53652  38.078  33.034  22.483  0.0800 -0.1354 -0.0206
 2664DPPC   NC353653  24.104  17.091  17.901  0.5097  0.3133  0.0312
 2664DPPC   PO453654  23.725  17.387  17.771 -0.3247  0.1754 -0.1603
 2664DPPC   GL153655  23.438  17.762  17.715  0.0566 -0.2786  0.1602
 2664DPPC   GL253656  23.740  17.901  17.704 -0.0252 -0.1426  0.1155
 2664DPPC   C1A53657  23.170  17.829  18.117 -0.3412 -0.1674  0.1732
 2664DPPC   C2A53658  23.114  17.730  18.583 -0.0643 -0.4502  0.0497
 2664DPPC   C3A53659  23.405  18.119  18.883  0.0585  0.0289  0.1816
 2664DPPC   C4A53660  23.641  18.446  18.786 -0.2087 -0.1310 -0.0858
 2664DPPC   C1B53661  24.073  18.239  17.829 -0.1441 -0.0824  0.3107
 2664DPPC   C2B53662  24.019  18.628  17.827 -0.3017  0.2251  0.2427
 2664DPPC   C3B53663  23.907  18.990  18.096  0.0878 -0.3871 -0.1578
 2664DPPC   C4B53664  23.707  19.224  18.436 -0.2221  0.2627 -0.0261
 2665DPPC   NC353665  26.844  28.998   1.371 -0.0224 -0.1393  0.4037
 2665DPPC   PO453666  26.678  28.659   1.653 -0.1327 -0.0701 -0.0057
 2665DPPC   GL153667  26.444  28.428   1.980 -0.0102 -0.0259  0.2916
 2665DPPC   GL253668  26.208  28.234   1.823  0.1035  0.1069 -0.2940
 2665DPPC   C1A53669  26.504  28.082   2.248  0.0350  0.0770  0.1915
 2665DPPC   C2A53670  26.524  27.854   2.550 -0.1563 -0.1276  0.1010
 2665DPPC   C3A53671  26.347  27.720   2.934 -0.0727 -0.0304 -0.1365
 2665DPPC   C4A53672  26.249  27.278   3.066 -0.0346 -0.1700  0.2029
 2665DPPC   C1B53673  26.064  27.872   1.988 -0.1738 -0.2029  0.3645
 2665DPPC   C2B53674  25.684  27.652   2.235 -0.1255  0.1871 -0.1532
 2665DPPC   C3B53675  25.290  27.753   2.262 -0.0777  0.0320  0.1661
 2665DPPC   C4B53676  24.928  27.812   2.071  0.1593  0.1762  0.2762
 2666DPPC   NC353677  28.054  27.679  13.793 -0.2361 -0.0473 -0.3516
 2666DPPC   PO453678  27.946  27.299  13.923 -0.0064  0.4751 -0.0419
 2666DPPC   GL153679  27.986  27.063  13.617  0.3617  0.3513 -0.0751
 2666DPPC   GL253680  28.192  26.874  13.672  0.0547 -0.2752 -0.2692
 2666DPPC   C1A53681  27.774  27.053  13.186  0.0348 -0.1474 -0.1039
 2666DPPC   C2A53682  27.732  26.900  12.823  0.1418 -0.0650 -0.3288
 2666DPPC   C3A53683  27.402  26.663  12.786 -0.0436  0.0389  0.1549
 2666DPPC   C4A53684  26.961  26.609  12.810  0.0628  0.1933  0.1036
 2666DPPC   C1B53685  28.231  26.896  13.217 -0.0318  0.2117  0.0778
 2666DPPC   C2B53686  28.138  26.581  12.894 -0.0731 -0.3438  0.0073
 2666DPPC   C3B53687  28.148  26.188  12.628  0.2602 -0.1654 -0.0589
 2666DPPC   C4B53688  28.111  26.008  12.175  0.0078 -0.2212  0.3252
 2667DPPC   NC353689  25.870  31.512   9.657 -0.0040 -0.1161  0.2439
 2667DPPC   PO453690  25.847  31.995   9.688  0.0961 -0.1852 -0.2313
 2667DPPC   GL153691  26.011  31.938  10.070  0.0896 -0.0200  0.2858
 2667DPPC   GL253692  25.743  32.105  10.224 -0.0758 -0.0576 -0.0960
 2667DPPC   C1A53693  26.346  31.834  10.390 -0.0836  0.0195  0.2184
 2667DPPC   C2A53694  26.682  31.597  10.522 -0.1962 -0.0176  0.3344
 2667DPPC   C3A53695  26.863  31.146  10.477  0.0833  0.0897  0.0304
 2667DPPC   C4A53696  27.039  30.761  10.572 -0.0865 -0.1174  0.0292
 2667DPPC   C1B53697  25.874  31.978  10.579 -0.0881 -0.0939  0.1215
 2667DPPC   C2B53698  26.034  32.030  10.926  0.1479 -0.1801  0.1107
 2667DPPC   C3B53699  26.167  32.153  11.323  0.1689  0.2426  0.2291
 2667DPPC   C4B53700  26.372  31.969  11.667 -0.3166 -0.1370  0.1172
 2668DPPC   NC353701  18.235  33.095   2.128  0.1480 -0.1044  0.4587
 2668DPPC   PO453702  18.601  32.889   2.200 -0.1766 -0.1103 -0.1073
 2668DPPC   GL153703  18.914  32.695   2.060 -0.1486  0.0738  0.0033
 2668DPPC   GL253704  18.983  32.901   1.808  0.2790 -0.1242  0.2288
 2668DPPC   C1A53705  19.172  32.378   1.900  0.1631 -0.1392  0.0433
 2668DPPC   C2A53706  19.585  32.254   1.800 -0.0267 -0.0870  0.1534
 2668DPPC   C3A53707  20.043  32.482   1.914  0.5337  0.1458 -0.3094
 2668DPPC   C4A53708  20.361  32.707   1.909  0.1535  0.1274 -0.3112
 2668DPPC   C1B53709  19.280  33.212   1.654  0.0964 -0.3084  0.3877
 2668DPPC   C2B53710  19.625  33.449   1.704  0.0411 -0.2382  0.0746
 2668DPPC   C3B53711  19.946  33.640   1.732 -0.3052  0.0412 -0.0470
 2668DPPC   C4B53712  20.358  33.583   1.836 -0.1476  0.2010 -0.5749
 2669DPPC   NC353713  28.234  22.825  24.501  0.1612 -0.0824  0.2887
 2669DPPC   PO453714  28.271  22.718  24.912  0.2425 -0.2184  0.0904
 2669DPPC   GL153715  28.249  22.545  25.352  0.3093  0.0964 -0.0085
 2669DPPC   GL253716  28.335  22.239  25.201 -0.0692 -0.0993 -0.1411
 2669DPPC   C1A53717  28.181  22.111  25.630  0.0833  0.2783  0.4339
 2669DPPC   C2A53718  28.227  21.736  25.837 -0.1471  0.0859  0.0312
 2669DPPC   C3A53719  28.255  21.706  26.285 -0.0135 -0.6084 -0.1272
 2669DPPC   C4A53720  28.240  21.474  26.650  0.1475 -0.2122  0.0525
 2669DPPC   C1B53721  28.078  21.786  25.277  0.0950 -0.1859  0.1711
 2669DPPC   C2B53722  28.023  21.326  25.185 -0.1501  0.0802  0.1007
 2669DPPC   C3B53723  28.235  20.966  25.315 -0.3445 -0.1158 -0.2720
 2669DPPC   C4B53724  28.167  20.617  25.599  0.1437 -0.0383  0.0582
 2670DPPC   NC353725  22.582  29.382   9.996 -0.3349  0.1110 -0.0158
 2670DPPC   PO453726  22.392  29.354  10.412 -0.0341  0.0443 -0.0127
 2670DPPC   GL153727  22.392  29.356  10.778  0.0350 -0.0995 -0.1286
 2670DPPC   GL253728  22.101  29.351  11.019 -0.2891 -0.1072  0.1110
 2670DPPC   C1A53729  22.520  29.563  11.189 -0.0756  0.0121  0.3043
 2670DPPC   C2A53730  22.433  29.524  11.693  0.1419  0.1987 -0.1664
 2670DPPC   C3A53731  22.648  29.488  12.148 -0.2033 -0.2306 -0.2838
 2670DPPC   C4A53732  22.729  29.417  12.637  0.0493 -0.1235  0.0225
 2670DPPC   C1B53733  22.043  29.204  11.533 -0.0630 -0.1662 -0.0989
 2670DPPC   C2B53734  22.115  29.289  12.034 -0.0981  0.2232 -0.3877
 2670DPPC   C3B53735  22.108  29.663  12.331 -0.2898  0.2122 -0.0070
 2670DPPC   C4B53736  22.479  29.851  12.408 -0.1386  0.1340 -0.0657
 2671DPPC   NC353737  20.443  29.442  20.937 -0.0882 -0.3063 -0.1804
 2671DPPC   PO453738  20.442  29.140  20.583 -0.0312 -0.0148 -0.0973
 2671DPPC   GL153739  20.158  28.878  20.783 -0.0349 -0.2659  0.3993
 2671DPPC   GL253740  20.276  28.564  20.953 -0.1656 -0.0020  0.1625
 2671DPPC   C1A53741  19.824  28.844  21.068  0.1754  0.0933 -0.3185
 2671DPPC   C2A53742  19.397  28.956  21.051 -0.1167  0.0176  0.1693
 2671DPPC   C3A53743  19.124  28.967  20.794  0.0903  0.0509 -0.1220
 2671DPPC   C4A53744  18.600  29.020  20.790  0.1170  0.0796  0.0072
 2671DPPC   C1B53745  20.180  28.072  21.254  0.0823  0.0648  0.1125
 2671DPPC   C2B53746  20.450  27.689  21.307  0.5781 -0.1719 -0.1554
 2671DPPC   C3B53747  20.556  27.276  21.365 -0.1670  0.0541 -0.3060
 2671DPPC   C4B53748  20.731  26.891  21.434 -0.4076  0.1135 -0.0848
 2672DPPC   NC353749  26.108  15.817  25.351  0.1362  0.2770 -0.1137
 2672DPPC   PO453750  26.248  16.151  25.224 -0.0675  0.1098 -0.0389
 2672DPPC   GL153751  26.041  16.555  25.166  0.0608  0.1111 -0.1640
 2672DPPC   GL253752  26.107  16.716  25.409 -0.1722 -0.0935  0.2280
 2672DPPC   C1A53753  25.978  16.994  25.018 -0.2685 -0.0752  0.2212
 2672DPPC   C2A53754  25.617  17.300  25.041  0.1850 -0.0255  0.0793
 2672DPPC   C3A53755  25.402  17.647  24.845 -0.0829 -0.2727  0.1041
 2672DPPC   C4A53756  25.187  18.020  24.985 -0.1415 -0.1335 -0.0785
 2672DPPC   C1B53757  26.204  17.092  25.611 -0.4195  0.1307  0.0844
 2672DPPC   C2B53758  26.601  17.324  25.572 -0.2500 -0.1513  0.0317
 2672DPPC   C3B53759  26.780  17.590  25.314  0.0576 -0.0868 -0.2489
 2672DPPC   C4B53760  26.783  17.981  25.145 -0.2086 -0.2645  0.0494
 2673DPPC   NC353761  20.330  29.885  22.267  0.0352 -0.0141  0.1222
 2673DPPC   PO453762  20.087  30.245  22.260 -0.0395 -0.2032  0.0618
 2673DPPC   GL153763  19.580  30.320  22.242 -0.0906  0.0398 -0.2289
 2673DPPC   GL253764  19.460  30.500  22.574  0.0379  0.1920  0.0934
 2673DPPC   C1A53765  19.437  30.010  22.550 -0.1183 -0.0821 -0.2016
 2673DPPC   C2A53766  19.290  29.975  22.966 -0.0781  0.2455 -0.2242
 2673DPPC   C3A53767  19.217  29.917  23.496  0.2161 -0.0502  0.1952
 2673DPPC   C4A53768  19.449  30.085  23.824  0.1625 -0.1571 -0.0280
 2673DPPC   C1B53769  19.223  30.446  22.859  0.1482 -0.0594  0.3170
 2673DPPC   C2B53770  19.002  30.481  23.277  0.2460  0.4772 -0.3320
 2673DPPC   C3B53771  18.954  30.443  23.714  0.0545  0.1690 -0.2843
 2673DPPC   C4B53772  18.545  30.342  23.947  0.4453  0.1240 -0.0823
 2674DPPC   NC353773  40.105  31.270  20.568 -0.1072  0.3459  0.5555
 2674DPPC   PO453774  39.882  30.941  20.255 -0.0920  0.1673  0.1668
 2674DPPC   GL153775  39.395  30.938  20.168  0.2987 -0.1755 -0.5664
 2674DPPC   GL253776  39.260  31.076  19.946  0.1544  0.0520 -0.2708
 2674DPPC   C1A53777  38.942  30.952  20.393 -0.3521  0.0812 -0.0510
 2674DPPC   C2A53778  38.718  30.592  20.557  0.3001  0.1317 -0.0488
 2674DPPC   C3A53779  38.427  30.420  20.820 -0.4025  0.2918  0.4178
 2674DPPC   C4A53780  38.354  30.285  21.332 -0.0039  0.0034  0.1444
 2674DPPC   C1B53781  38.838  31.174  19.957 -0.0710 -0.1243  0.0884
 2674DPPC   C2B53782  38.519  31.281  19.787  0.1148  0.0021 -0.0670
 2674DPPC   C3B53783  38.107  31.146  19.694  0.0627  0.2602 -0.4195
 2674DPPC   C4B53784  37.881  30.788  19.677  0.0397  0.0714 -0.0003
 2675DPPC   NC353785  24.858  23.953  20.006  0.2508  0.1714 -0.2827
 2675DPPC   PO453786  24.418  24.021  20.251  0.0867  0.0630 -0.1308
 2675DPPC   GL153787  24.104  23.627  20.174  0.2224  0.0399 -0.0861
 2675DPPC   GL253788  24.532  23.520  20.247  0.3427 -0.1478 -0.0116
 2675DPPC   C1A53789  24.163  23.126  20.356 -0.1137  0.0386 -0.2877
 2675DPPC   C2A53790  23.763  22.770  20.393  0.0478 -0.3435  0.2421
 2675DPPC   C3A53791  23.384  22.547  20.645 -0.2882  0.0023  0.3183
 2675DPPC   C4A53792  22.907  22.519  20.437  0.3302 -0.0525 -0.0475
 2675DPPC   C1B53793  24.555  23.360  20.638  0.0951  0.0185  0.3272
 2675DPPC   C2B53794  24.351  23.231  20.988 -0.2561 -0.1516 -0.1367
 2675DPPC   C3B53795  24.046  23.117  21.241 -0.2376 -0.0088 -0.1079
 2675DPPC   C4B53796  23.818  23.211  21.668 -0.2264 -0.3940  0.3473
 2676DPPC   NC353797  22.938  29.219  25.372  0.2090  0.1581 -0.0179
 2676DPPC   PO453798  23.205  29.058  25.616  0.3815  0.2063 -0.0385
 2676DPPC   GL153799  23.041  28.847  25.845  0.0611  0.0571  0.1298
 2676DPPC   GL253800  22.797  29.124  25.951  0.3227  0.3086  0.1683
 2676DPPC   C1A53801  22.896  28.713  26.235  0.3029 -0.0794 -0.0769
 2676DPPC   C2A53802  22.760  28.704  26.634 -0.0197  0.1903 -0.1628
 2676DPPC   C3A53803  22.439  28.708   0.073  0.0402 -0.1995 -0.2345
 2676DPPC   C4A53804  22.096  28.527   0.309 -0.1379 -0.2020  0.1330
 2676DPPC   C1B53805  22.370  28.945  26.200  0.0176 -0.2739 -0.2577
 2676DPPC   C2B53806  22.123  28.631  26.031  0.0021 -0.2103  0.0909
 2676DPPC   C3B53807  22.040  28.249  25.829  0.2127 -0.1772 -0.1091
 2676DPPC   C4B53808  21.954  27.864  25.470  0.0571 -0.1063 -0.0763
 2677DPPC   NC353809  19.487  37.743  25.762  0.2148  0.2690 -0.1317
 2677DPPC   PO453810  19.683  37.924  26.119 -0.0791 -0.2243 -0.1977
 2677DPPC   GL153811  20.035  37.772  25.871  0.0557  0.6953  0.2739
 2677DPPC   GL253812  19.915  37.467  25.686 -0.2196 -0.4947 -0.1517
 2677DPPC   C1A53813  20.443  37.750  25.531  0.0994 -0.2243 -0.0399
 2677DPPC   C2A53814  20.705  37.932  25.257  0.1851 -0.2518  0.3271
 2677DPPC   C3A53815  21.002  38.120  25.011  0.1102  0.1018  0.0216
 2677DPPC   C4A53816  21.120  38.189  24.670 -0.2599  0.2057 -0.0380
 2677DPPC   C1B53817  20.287  37.256  25.539 -0.1033  0.0589  0.0480
 2677DPPC   C2B53818  20.653  37.001  25.650  0.3086  0.1591  0.2137
 2677DPPC   C3B53819  21.132  37.069  25.435  0.3053  0.1419 -0.0758
 2677DPPC   C4B53820  21.331  37.453  25.593 -0.0232  0.0995 -0.2563
 2678DPPC   NC353821  32.697  40.921  25.232 -0.0075 -0.2182  0.1969
 2678DPPC   PO453822  32.218  40.796  25.315  0.2233  0.0431  0.0662
 2678DPPC   GL153823  32.361  40.385  25.212 -0.1119  0.0290 -0.3256
 2678DPPC   GL253824  32.447  40.271  24.986  0.0021  0.0776  0.0762
 2678DPPC   C1A53825  32.113  40.048  25.311 -0.1281 -0.0025 -0.4611
 2678DPPC   C2A53826  31.738  39.919  25.283 -0.0035  0.0155 -0.4565
 2678DPPC   C3A53827  31.372  39.973  25.286  0.1778 -0.2997  0.0052
 2678DPPC   C4A53828  30.863  39.999  25.434  0.2272 -0.0238 -0.1282
 2678DPPC   C1B53829  32.190  39.995  24.739  0.0793 -0.1331 -0.1180
 2678DPPC   C2B53830  32.089  39.774  24.375 -0.4080 -0.0256 -0.1346
 2678DPPC   C3B53831  32.132  39.606  24.052  0.0861 -0.0086 -0.0827
 2678DPPC   C4B53832  32.213  39.849  23.619  0.0045 -0.1362  0.0109
 2679DPPC   NC353833  18.733  25.567  13.920 -0.4346  0.2588 -0.2649
 2679DPPC   PO453834  18.510  25.412  14.379 -0.0074 -0.0117  0.1431
 2679DPPC   GL153835  18.785  25.610  14.716 -0.0486  0.0004 -0.2299
 2679DPPC   GL253836  18.847  25.497  14.899 -0.0772 -0.1653  0.0844
 2679DPPC   C1A53837  19.272  25.721  14.908  0.1267 -0.0976 -0.0198
 2679DPPC   C2A53838  19.676  25.830  14.882  0.1423  0.1433  0.0121
 2679DPPC   C3A53839  19.881  25.899  15.191  0.2485 -0.1443  0.0399
 2679DPPC   C4A53840  20.200  25.915  15.566 -0.1681  0.0339  0.0152
 2679DPPC   C1B53841  18.856  25.829  15.180 -0.0437  0.1438  0.0915
 2679DPPC   C2B53842  19.017  26.058  15.621 -0.2336 -0.1835 -0.2127
 2679DPPC   C3B53843  19.345  26.313  15.811 -0.1323 -0.0122  0.1108
 2679DPPC   C4B53844  19.561  26.671  15.902  0.0566  0.1884  0.1839
 2680DPPC   NC353845  24.086  38.089  13.161  0.6248  0.0092  0.0355
 2680DPPC   PO453846  24.024  37.765  12.921 -0.2077 -0.1480 -0.1669
 2680DPPC   GL153847  24.191  37.588  13.321 -0.0271 -0.0223  0.0730
 2680DPPC   GL253848  24.051  37.327  13.429 -0.0969  0.1005  0.0119
 2680DPPC   C1A53849  24.596  37.487  13.443 -0.0385 -0.0568  0.0748
 2680DPPC   C2A53850  24.828  37.157  13.685 -0.2164  0.0628 -0.0664
 2680DPPC   C3A53851  24.870  36.878  14.101 -0.4107  0.0140  0.0370
 2680DPPC   C4A53852  25.054  36.639  14.467 -0.0242 -0.1409  0.2647
 2680DPPC   C1B53853  23.947  36.955  13.686  0.2256 -0.2034  0.1830
 2680DPPC   C2B53854  23.641  36.867  13.894  0.0477 -0.0200  0.0562
 2680DPPC   C3B53855  23.448  36.464  14.121  0.0974 -0.2707  0.1524
 2680DPPC   C4B53856  23.304  36.166  14.430  0.1802  0.3778 -0.1839
 2681DPPC   NC353857  22.885  27.716  10.538 -0.1443  0.0770 -0.1153
 2681DPPC   PO453858  22.860  28.196  10.607  0.1473 -0.1408  0.1579
 2681DPPC   GL153859  22.856  28.181  10.961  0.0271  0.0010  0.1877
 2681DPPC   GL253860  22.682  27.882  11.044 -0.1253 -0.0051 -0.1259
 2681DPPC   C1A53861  22.875  28.220  11.443 -0.2258  0.3692  0.1680
 2681DPPC   C2A53862  23.089  28.265  11.848  0.0172  0.1795  0.1239
 2681DPPC   C3A53863  23.100  28.375  12.257 -0.0241 -0.0196 -0.2014
 2681DPPC   C4A53864  23.148  28.630  12.594 -0.3863 -0.0742  0.0225
 2681DPPC   C1B53865  22.931  27.689  11.303 -0.0890 -0.1169  0.1558
 2681DPPC   C2B53866  23.265  27.688  11.597 -0.2215  0.1106  0.2134
 2681DPPC   C3B53867  23.565  27.865  11.895  0.1220 -0.0068  0.1829
 2681DPPC   C4B53868  23.598  28.135  12.201  0.1348 -0.0049  0.0290
 2682DPPC   NC353869  25.326  29.671   2.072 -0.1218  0.1746  0.1678
 2682DPPC   PO453870  25.531  29.334   1.912  0.2219  0.2354  0.1043
 2682DPPC   GL153871  25.274  28.937   2.124  0.1164 -0.0733 -0.0833
 2682DPPC   GL253872  25.238  28.854   2.456 -0.0495 -0.1041 -0.0048
 2682DPPC   C1A53873  24.813  28.857   2.139  0.2020 -0.0197  0.1450
 2682DPPC   C2A53874  24.541  28.952   1.829 -0.0719 -0.0186 -0.1498
 2682DPPC   C3A53875  24.239  28.988   1.552 -0.0663  0.0393  0.1380
 2682DPPC   C4A53876  23.959  29.325   1.729 -0.0613 -0.0316 -0.0234
 2682DPPC   C1B53877  25.441  28.785   2.852 -0.3037 -0.3627 -0.1288
 2682DPPC   C2B53878  25.545  28.534   3.256  0.1907  0.2780  0.1025
 2682DPPC   C3B53879  25.631  28.157   3.450 -0.0521 -0.1019 -0.1899
 2682DPPC   C4B53880  25.879  27.897   3.870 -0.0563 -0.1276 -0.0723
 2683DPPC   NC353881  29.879  36.738  19.986 -0.1083  0.0332 -0.0470
 2683DPPC   PO453882  29.854  37.198  20.144  0.4042 -0.1657  0.5063
 2683DPPC   GL153883  29.782  37.739  20.146  0.0780  0.2495  0.1353
 2683DPPC   GL253884  29.758  37.831  20.435 -0.2439  0.1431 -0.1904
 2683DPPC   C1A53885  29.826  38.093  20.028 -0.5148  0.2748 -0.0645
 2683DPPC   C2A53886  30.044  38.533  20.164  0.2668  0.0135  0.0598
 2683DPPC   C3A53887  30.162  38.961  20.238  0.1067 -0.0268 -0.0029
 2683DPPC   C4A53888  30.205  39.243  20.572  0.2569  0.0941 -0.1075
 2683DPPC   C1B53889  29.776  38.198  20.606 -0.1960  0.1576  0.0057
 2683DPPC   C2B53890  29.924  38.652  20.692  0.1484  0.2834  0.1482
 2683DPPC   C3B53891  29.648  39.051  20.852  0.0228 -0.1219  0.2069
 2683DPPC   C4B53892  29.288  39.339  20.713 -0.2027 -0.1684  0.0259
 2684DPPC   NC353893  36.835  34.736  14.488  0.1611  0.1197 -0.2350
 2684DPPC   PO453894  36.528  34.725  14.115  0.0849 -0.1897 -0.1510
 2684DPPC   GL153895  36.308  34.598  14.597  0.0618  0.3642 -0.0453
 2684DPPC   GL253896  36.357  34.826  14.782  0.0754  0.0253  0.0940
 2684DPPC   C1A53897  36.255  34.522  15.109 -0.2532  0.0948 -0.0383
 2684DPPC   C2A53898  36.242  34.710  15.545  0.1672 -0.0358  0.1790
 2684DPPC   C3A53899  35.959  34.830  15.879  0.0786  0.1770 -0.1957
 2684DPPC   C4A53900  35.529  34.644  15.948  0.2266  0.2117 -0.1617
 2684DPPC   C1B53901  36.377  34.979  15.189  0.0524  0.0764  0.1701
 2684DPPC   C2B53902  36.289  35.215  15.568  0.1794 -0.1226  0.0891
 2684DPPC   C3B53903  36.170  35.566  15.609 -0.1157  0.4028 -0.5681
 2684DPPC   C4B53904  36.299  35.888  15.707  0.4254  0.1555 -0.2840
 2685DPPC   NC353905  23.533  25.203  20.621  0.1776  0.3710 -0.1778
 2685DPPC   PO453906  23.428  25.526  20.797  0.1029  0.1798 -0.0604
 2685DPPC   GL153907  23.073  25.345  20.579 -0.1006  0.2048  0.2688
 2685DPPC   GL253908  23.049  25.424  20.202  0.1068  0.0691  0.0541
 2685DPPC   C1A53909  22.618  25.030  20.581 -0.3421 -0.1151 -0.1026
 2685DPPC   C2A53910  22.361  24.777  20.761 -0.0450  0.0611  0.3303
 2685DPPC   C3A53911  22.232  24.491  20.908  0.0779  0.1489 -0.2100
 2685DPPC   C4A53912  21.841  24.337  21.008  0.1627  0.0271  0.0228
 2685DPPC   C1B53913  22.710  25.063  20.119  0.2651  0.1692  0.1520
 2685DPPC   C2B53914  22.477  24.612  20.221 -0.2659  0.1282  0.2870
 2685DPPC   C3B53915  22.225  24.354  20.368 -0.4038  0.1321  0.0874
 2685DPPC   C4B53916  21.919  24.097  20.561  0.0585 -0.2712 -0.1325
 2686DPPC   NC353917  35.957  31.506  21.277  0.0654 -0.1846 -0.1173
 2686DPPC   PO453918  36.000  31.435  20.915  0.1579 -0.2607  0.0928
 2686DPPC   GL153919  36.430  31.558  21.063 -0.0904 -0.0255 -0.0392
 2686DPPC   GL253920  36.534  31.601  21.389  0.1586  0.3452  0.2226
 2686DPPC   C1A53921  36.914  31.575  20.955 -0.0239 -0.0734  0.1416
 2686DPPC   C2A53922  37.415  31.505  20.740  0.0596  0.0905  0.1926
 2686DPPC   C3A53923  37.781  31.206  20.865  0.1755 -0.1206 -0.0402
 2686DPPC   C4A53924  38.171  31.175  21.123  0.0056  0.0427 -0.1785
 2686DPPC   C1B53925  36.910  31.709  21.505  0.0730 -0.0203 -0.3576
 2686DPPC   C2B53926  37.297  31.944  21.484 -0.3317 -0.2080 -0.1295
 2686DPPC   C3B53927  37.732  32.193  21.547 -0.1803  0.2943 -0.0343
 2686DPPC   C4B53928  38.191  32.178  21.392 -0.0079  0.3210  0.2019
 2687DPPC   NC353929  13.171  28.414  26.663 -0.3001 -0.2842 -0.2456
 2687DPPC   PO453930  13.626  28.408  26.772  0.0098 -0.3029  0.2495
 2687DPPC   GL153931  14.018  28.498  26.691 -0.0042 -0.0458  0.0828
 2687DPPC   GL253932  14.175  28.233  26.551  0.1708  0.0988 -0.0002
 2687DPPC   C1A53933  14.284  28.915  26.742  0.1515 -0.2430 -0.0148
 2687DPPC   C2A53934  14.727  28.932  26.822  0.1001 -0.3588 -0.0320
 2687DPPC   C3A53935  15.162  28.733  26.707  0.0376  0.0597 -0.0203
 2687DPPC   C4A53936  15.219  28.947  26.365 -0.3099  0.0327  0.2285
 2687DPPC   C1B53937  14.471  28.446  26.354  0.3059  0.1165  0.1384
 2687DPPC   C2B53938  14.904  28.590  26.153  0.2608 -0.0885 -0.3746
 2687DPPC   C3B53939  15.342  28.701  25.947  0.1291 -0.1547 -0.0271
 2687DPPC   C4B53940  15.764  28.845  26.117 -0.3056 -0.0685 -0.0430
 2688DPPC   NC353941  23.766  26.334  22.889  0.1887 -0.2729  0.3566
 2688DPPC   PO453942  23.900  26.021  22.678 -0.0561  0.3726 -0.1607
 2688DPPC   GL153943  23.556  25.890  23.117 -0.2745 -0.3133  0.1445
 2688DPPC   GL253944  23.393  25.950  22.823  0.1730 -0.0193 -0.0877
 2688DPPC   C1A53945  23.603  25.518  23.240 -0.1195  0.2029  0.1204
 2688DPPC   C2A53946  23.359  25.240  23.479  0.1997 -0.3805 -0.0998
 2688DPPC   C3A53947  23.366  24.762  23.539 -0.2619  0.3124  0.0655
 2688DPPC   C4A53948  23.132  24.358  23.577  0.0002 -0.2144 -0.2223
 2688DPPC   C1B53949  23.055  25.873  23.156 -0.1980 -0.0114  0.2851
 2688DPPC   C2B53950  22.678  25.490  23.204 -0.3217 -0.0916 -0.0746
 2688DPPC   C3B53951  22.367  25.372  23.150 -0.1742  0.1235 -0.3490
 2688DPPC   C4B53952  22.044  25.071  23.113  0.3210  0.1988  0.2262
 2689DPPC   NC353953  24.397  16.559   1.129 -0.2480  0.2373  0.0390
 2689DPPC   PO453954  23.960  16.698   1.099 -0.1151 -0.1240  0.2953
 2689DPPC   GL153955  23.786  17.028   0.899  0.2093 -0.1313 -0.1334
 2689DPPC   GL253956  23.918  17.329   0.949 -0.0464 -0.2715  0.3058
 2689DPPC   C1A53957  23.852  17.111   0.499 -0.1439 -0.2025 -0.3391
 2689DPPC   C2A53958  23.837  16.898   0.141 -0.3123  0.0056 -0.2953
 2689DPPC   C3A53959  23.419  16.810  26.901  0.1665 -0.1330  0.2132
 2689DPPC   C4A53960  22.977  16.968  26.871 -0.0937  0.1021 -0.0859
 2689DPPC   C1B53961  24.136  17.489   0.572 -0.0405 -0.2239 -0.3819
 2689DPPC   C2B53962  24.047  17.890   0.407 -0.3928 -0.2658 -0.0547
 2689DPPC   C3B53963  24.272  18.121   0.091  0.1330  0.1240 -0.0825
 2689DPPC   C4B53964  24.201  18.582   0.024  0.2687 -0.1519 -0.5114
 2690DPPC   NC353965  20.984  15.553  19.214  0.0419 -0.0407  0.1866
 2690DPPC   PO453966  20.782  15.991  19.293  0.1874 -0.3106  0.0687
 2690DPPC   GL153967  20.638  16.457  19.281 -0.0750 -0.3442 -0.0470
 2690DPPC   GL253968  20.363  16.539  19.430  0.1381 -0.2588 -0.1926
 2690DPPC   C1A53969  20.710  16.918  19.340 -0.1456 -0.0029 -0.1293
 2690DPPC   C2A53970  20.981  17.248  19.402 -0.2854 -0.0133  0.0998
 2690DPPC   C3A53971  20.995  17.620  19.141 -0.2025 -0.1204 -0.4566
 2690DPPC   C4A53972  20.814  17.738  18.845 -0.2035 -0.0893  0.0936
 2690DPPC   C1B53973  20.378  17.039  19.626 -0.2280 -0.1133 -0.0050
 2690DPPC   C2B53974  20.351  17.465  19.791  0.2112  0.0064  0.2140
 2690DPPC   C3B53975  20.239  17.849  19.646 -0.1754  0.0822 -0.1553
 2690DPPC   C4B53976  20.039  18.095  19.494  0.0534 -0.0261  0.1108
 2691DPPC   NC353977  25.590  26.885  25.817 -0.1881 -0.1250 -0.0316
 2691DPPC   PO453978  25.420  26.559  25.652  0.1076  0.0272 -0.5025
 2691DPPC   GL153979  25.067  26.315  25.606  0.1894  0.0097  0.2035
 2691DPPC   GL253980  24.833  26.326  25.416  0.1793  0.0705 -0.0287
 2691DPPC   C1A53981  25.083  25.949  25.755 -0.2017 -0.0545  0.1374
 2691DPPC   C2A53982  24.894  25.619  26.022  0.3919 -0.0632  0.4303
 2691DPPC   C3A53983  24.615  25.838  26.304 -0.0043  0.0725 -0.0888
 2691DPPC   C4A53984  24.455  25.519  26.543  0.0152 -0.1614  0.0448
 2691DPPC   C1B53985  24.545  26.079  25.419 -0.1296 -0.1514 -0.0567
 2691DPPC   C2B53986  24.139  25.927  25.421 -0.0906  0.1321  0.0664
 2691DPPC   C3B53987  23.962  25.529  25.656  0.2654 -0.3847 -0.1310
 2691DPPC   C4B53988  23.640  25.483  26.009  0.4716 -0.2778  0.2589
 2692DPPC   NC353989  26.334  34.300  15.483 -0.2334  0.0098 -0.0041
 2692DPPC   PO453990  26.015  34.558  15.521  0.0488 -0.4460  0.2612
 2692DPPC   GL153991  25.885  34.669  15.121  0.0367  0.1100 -0.2738
 2692DPPC   GL253992  25.776  35.002  15.192  0.2861  0.0870 -0.2531
 2692DPPC   C1A53993  25.827  34.815  14.656 -0.1565 -0.0586 -0.2609
 2692DPPC   C2A53994  25.902  35.190  14.601  0.4851 -0.0213 -0.0094
 2692DPPC   C3A53995  25.886  35.498  14.268 -0.0591 -0.2974  0.0067
 2692DPPC   C4A53996  25.829  35.501  13.789 -0.0226  0.1098 -0.0865
 2692DPPC   C1B53997  25.486  35.174  14.861 -0.1250 -0.1570  0.2002
 2692DPPC   C2B53998  25.378  35.307  14.446  0.0443 -0.1800 -0.0403
 2692DPPC   C3B53999  25.326  35.651  14.268 -0.1124 -0.4005 -0.0158
 2692DPPC   C4B54000  25.506  35.876  13.962 -0.1613 -0.1125  0.3342
 2693DPPC   NC354001  17.766  28.164   6.146 -0.2690  0.3521 -0.1867
 2693DPPC   PO454002  17.482  27.966   5.964 -0.1724  0.0258 -0.1757
 2693DPPC   GL154003  17.642  27.689   5.637 -0.0810 -0.0530  0.1619
 2693DPPC   GL254004  17.986  27.783   5.676 -0.0461 -0.2013  0.0722
 2693DPPC   C1A54005  17.762  27.643   5.196 -0.2656  0.1525  0.1213
 2693DPPC   C2A54006  17.969  27.366   4.839 -0.1641  0.0073  0.0732
 2693DPPC   C3A54007  17.918  27.221   4.409 -0.2523  0.2056  0.4851
 2693DPPC   C4A54008  17.688  26.952   3.978 -0.3352 -0.2056  0.0121
 2693DPPC   C1B54009  18.526  27.899   5.667 -0.2190 -0.0304  0.2433
 2693DPPC   C2B54010  18.857  27.703   5.730  0.0644  0.0929 -0.1576
 2693DPPC   C3B54011  19.101  27.373   5.646  0.0418 -0.3124 -0.3514
 2693DPPC   C4B54012  19.391  27.025   5.542 -0.0274  0.0076 -0.2908
 2694DPPC   NC354013  29.922  19.621  14.294  0.0379 -0.1978 -0.2427
 2694DPPC   PO454014  29.526  19.743  14.348  0.1340 -0.0214  0.0613
 2694DPPC   GL154015  29.432  19.957  14.595  0.2029 -0.0232  0.0269
 2694DPPC   GL254016  29.408  19.905  14.896 -0.1083  0.3451  0.1755
 2694DPPC   C1A54017  29.079  20.152  14.654 -0.1437  0.1965 -0.1149
 2694DPPC   C2A54018  28.906  20.591  14.631  0.1756  0.0567  0.0523
 2694DPPC   C3A54019  28.637  20.859  14.439 -0.3296 -0.3795 -0.1925
 2694DPPC   C4A54020  28.283  21.141  14.281 -0.0034  0.3543 -0.0328
 2694DPPC   C1B54021  29.400  20.320  14.999 -0.6673 -0.2444  0.2705
 2694DPPC   C2B54022  29.302  20.730  15.123  0.0352  0.2039  0.1250
 2694DPPC   C3B54023  29.069  20.953  14.964  0.0184 -0.0772 -0.2148
 2694DPPC   C4B54024  28.654  20.867  14.935 -0.0704 -0.1017 -0.0905
 2695DPPC   NC354025  20.859  30.602  24.010 -0.0054  0.1675  0.1296
 2695DPPC   PO454026  20.523  30.676  24.327 -0.1497  0.0197  0.2826
 2695DPPC   GL154027  20.146  30.372  24.469  0.1073  0.1206  0.1362
 2695DPPC   GL254028  19.881  30.559  24.409 -0.0729 -0.1261 -0.0061
 2695DPPC   C1A54029  19.983  30.121  24.665  0.3685 -0.1881  0.1000
 2695DPPC   C2A54030  19.904  29.663  24.914  0.0953 -0.1507 -0.5416
 2695DPPC   C3A54031  19.865  29.304  25.082 -0.2375  0.0926  0.0900
 2695DPPC   C4A54032  19.894  28.929  24.954 -0.1959  0.2484 -0.3918
 2695DPPC   C1B54033  19.592  30.662  24.823 -0.0954 -0.0136 -0.2704
 2695DPPC   C2B54034  19.267  30.417  25.052 -0.0746 -0.2624 -0.0512
 2695DPPC   C3B54035  18.860  30.490  25.111  0.0757  0.1768  0.1973
 2695DPPC   C4B54036  18.567  30.743  24.949 -0.0137  0.0613 -0.3228
 2696DPPC   NC354037  23.849  26.373  23.387 -0.1124  0.2925 -0.3080
 2696DPPC   PO454038  24.234  26.291  23.673 -0.1699  0.0637  0.1151
 2696DPPC   GL154039  23.962  26.129  23.890 -0.2348  0.0450  0.2417
 2696DPPC   GL254040  24.060  25.949  24.139  0.0890  0.0966  0.0099
 2696DPPC   C1A54041  23.483  26.296  23.865  0.0208 -0.4010 -0.0654
 2696DPPC   C2A54042  23.074  26.371  23.971 -0.0680  0.0623  0.3425
 2696DPPC   C3A54043  22.680  26.184  24.142 -0.1029 -0.4371  0.3914
 2696DPPC   C4A54044  22.511  25.930  24.478  0.1119 -0.1873 -0.1105
 2696DPPC   C1B54045  23.882  25.617  24.264  0.0127  0.2255  0.0961
 2696DPPC   C2B54046  23.580  25.251  24.423  0.0805 -0.0766  0.1824
 2696DPPC   C3B54047  23.387  24.986  24.256  0.0677  0.2680  0.1143
 2696DPPC   C4B54048  23.161  25.005  23.939 -0.1136 -0.0217 -0.2474
 2697DPPC   NC354049  33.004  40.847  18.168  0.0350  0.1786 -0.0389
 2697DPPC   PO454050  32.929  40.489  18.361  0.0801 -0.2024 -0.3939
 2697DPPC   GL154051  32.841  40.062  18.289 -0.3646  0.0269 -0.3892
 2697DPPC   GL254052  32.562  40.132  18.313 -0.3328 -0.4222 -0.2199
 2697DPPC   C1A54053  32.633  39.550  18.257  0.5008 -0.0123 -0.2395
 2697DPPC   C2A54054  32.901  39.143  18.353 -0.1043 -0.0344  0.1800
 2697DPPC   C3A54055  33.026  38.701  18.358  0.1821 -0.2139  0.2804
 2697DPPC   C4A54056  33.408  38.472  18.145 -0.3473  0.1362 -0.1883
 2697DPPC   C1B54057  32.345  40.217  18.587 -0.2229  0.0368  0.0745
 2697DPPC   C2B54058  32.004  39.999  18.643  0.2125 -0.0116  0.0050
 2697DPPC   C3B54059  32.025  39.611  18.693 -0.1205 -0.0570  0.1165
 2697DPPC   C4B54060  32.071  39.336  19.026  0.1803 -0.1997  0.0418
 2698DPPC   NC354061  29.869  17.936  17.855  0.7190  0.1698  0.2821
 2698DPPC   PO454062  30.146  18.055  18.117  0.3124 -0.2366 -0.0185
 2698DPPC   GL154063  29.973  18.392  18.350 -0.0017  0.1338 -0.4068
 2698DPPC   GL254064  30.048  18.344  18.745 -0.0267  0.1708  0.0289
 2698DPPC   C1A54065  29.838  18.762  18.546 -0.4702 -0.0971  0.2406
 2698DPPC   C2A54066  29.822  19.048  18.892  0.2380 -0.1851 -0.2814
 2698DPPC   C3A54067  30.069  19.212  19.114 -0.1068 -0.1952  0.2403
 2698DPPC   C4A54068  30.023  19.621  19.358 -0.1457 -0.1858  0.1275
 2698DPPC   C1B54069  30.243  18.734  18.911 -0.2971 -0.2903 -0.0501
 2698DPPC   C2B54070  30.419  19.069  18.667  0.2519 -0.0787  0.0507
 2698DPPC   C3B54071  30.501  19.246  18.404  0.1823  0.0754 -0.0276
 2698DPPC   C4B54072  30.801  19.387  18.247 -0.1643 -0.0295 -0.0128
 2699DPPC   NC354073  22.076  31.321  25.745  0.1621 -0.0420  0.1097
 2699DPPC   PO454074  21.857  30.961  25.534  0.0151  0.1967  0.2033
 2699DPPC   GL154075  21.514  30.517  25.706 -0.2080  0.1417 -0.0551
 2699DPPC   GL254076  21.563  30.171  25.442 -0.0129 -0.0992  0.1725
 2699DPPC   C1A54077  21.057  30.400  26.014 -0.2791  0.0988  0.2545
 2699DPPC   C2A54078  21.034  30.321  26.454 -0.0490  0.1690 -0.3906
 2699DPPC   C3A54079  20.869  30.597  26.764 -0.2011 -0.0329 -0.3148
 2699DPPC   C4A54080  20.419  30.601  26.904  0.2445  0.0481  0.1292
 2699DPPC   C1B54081  21.201  30.116  25.526  0.2399  0.3132  0.0442
 2699DPPC   C2B54082  20.799  29.797  25.741  0.2875  0.0384  0.0063
 2699DPPC   C3B54083  20.511  29.678  26.129 -0.1657  0.1379  0.0590
 2699DPPC   C4B54084  20.177  29.795  26.253 -0.0335  0.1025  0.1468
 2700DPPC   NC354085  25.560  23.765  21.780  0.2068  0.0589  0.2973
 2700DPPC   PO454086  25.533  23.816  21.367 -0.1239 -0.0710 -0.1678
 2700DPPC   GL154087  25.243  23.385  21.360  0.0395  0.1129 -0.2625
 2700DPPC   GL254088  25.297  23.206  21.508 -0.1519 -0.3379 -0.0235
 2700DPPC   C1A54089  24.809  23.271  21.471 -0.0923  0.1817  0.2021
 2700DPPC   C2A54090  24.395  23.139  21.623  0.6186 -0.3727  0.1845
 2700DPPC   C3A54091  24.183  22.925  22.038  0.3401 -0.0424 -0.1384
 2700DPPC   C4A54092  24.243  22.915  22.452  0.1627  0.1354  0.1498
 2700DPPC   C1B54093  25.268  22.835  21.568 -0.2318  0.2597  0.0189
 2700DPPC   C2B54094  25.103  22.447  21.668 -0.2834 -0.0536 -0.0435
 2700DPPC   C3B54095  25.308  22.117  21.758 -0.2810 -0.0163 -0.1989
 2700DPPC   C4B54096  25.251  21.571  21.766  0.1783  0.1583 -0.1495
 2701DPPC   NC354097  24.374  25.185  22.353  0.1582 -0.0674  0.0891
 2701DPPC   PO454098  24.081  25.184  22.544  0.0681 -0.3512 -0.2039
 2701DPPC   GL154099  23.858  24.889  22.491 -0.0279  0.1574 -0.0451
 2701DPPC   GL254100  23.776  24.758  22.693 -0.1214  0.0741  0.0660
 2701DPPC   C1A54101  23.435  24.672  22.227  0.2632  0.4193  0.2544
 2701DPPC   C2A54102  22.994  24.506  22.192 -0.2352  0.0477  0.4020
 2701DPPC   C3A54103  22.760  24.267  22.492  0.1312  0.1246 -0.2539
 2701DPPC   C4A54104  22.625  24.438  22.925  0.1086  0.2748  0.2072
 2701DPPC   C1B54105  23.397  25.044  22.652  0.1681  0.0597  0.0791
 2701DPPC   C2B54106  23.037  25.082  22.488 -0.3577  0.0741  0.2663
 2701DPPC   C3B54107  22.801  25.273  22.759 -0.2114 -0.0167  0.1994
 2701DPPC   C4B54108  22.502  24.954  22.981 -0.3003  0.1660 -0.0110
 2702DPPC   NC354109  35.594  20.576  19.715  0.1457  0.1388 -0.3157
 2702DPPC   PO454110  35.858  20.837  20.066  0.2961  0.2689  0.1834
 2702DPPC   GL154111  35.608  21.163  20.066  0.3647 -0.2614  0.3040
 2702DPPC   GL254112  35.887  21.377  20.123 -0.0605 -0.1950 -0.2220
 2702DPPC   C1A54113  35.329  21.448  20.316 -0.2170 -0.3014 -0.0147
 2702DPPC   C2A54114  35.274  21.854  20.372 -0.0381 -0.0182 -0.1099
 2702DPPC   C3A54115  34.949  22.153  20.612 -0.0713 -0.2712  0.1990
 2702DPPC   C4A54116  34.625  22.261  20.859 -0.1046 -0.2925 -0.0057
 2702DPPC   C1B54117  35.754  21.758  20.331 -0.0865 -0.4530  0.1791
 2702DPPC   C2B54118  35.922  22.142  20.474 -0.0734 -0.2482  0.0119
 2702DPPC   C3B54119  36.077  22.410  20.721 -0.2588 -0.0380  0.2594
 2702DPPC   C4B54120  36.149  22.591  21.101  0.3491  0.2529  0.0819
 2703DPPC   NC354121  17.727  29.256   5.705  0.0523  0.0664  0.0594
 2703DPPC   PO454122  18.085  29.169   5.964 -0.3750  0.0512  0.0452
 2703DPPC   GL154123  18.546  29.129   5.785 -0.1578 -0.0908 -0.0279
 2703DPPC   GL254124  18.479  28.916   5.658  0.1618  0.0472  0.2163
 2703DPPC   C1A54125  18.939  28.955   5.903 -0.3597 -0.1159 -0.0719
 2703DPPC   C2A54126  19.393  28.939   5.818  0.0190 -0.1185 -0.0978
 2703DPPC   C3A54127  19.775  28.858   6.031  0.0520 -0.2590  0.1663
 2703DPPC   C4A54128  20.182  28.725   6.307  0.1280  0.1674  0.0363
 2703DPPC   C1B54129  18.406  28.912   5.197  0.3240 -0.2649 -0.0282
 2703DPPC   C2B54130  18.428  29.039   4.792 -0.1100  0.2674  0.2266
 2703DPPC   C3B54131  18.561  29.272   4.452  0.2357 -0.3424 -0.0472
 2703DPPC   C4B54132  18.641  29.276   4.060  0.1578 -0.1793 -0.0436
 2704DPPC   NC354133  22.937  28.181  21.052  0.0765  0.2606  0.2671
 2704DPPC   PO454134  22.630  27.834  21.257  0.1888 -0.1822  0.0708
 2704DPPC   GL154135  22.263  27.646  21.437 -0.1191 -0.0389 -0.0863
 2704DPPC   GL254136  21.896  27.550  21.284  0.1139  0.1621  0.2492
 2704DPPC   C1A54137  21.948  27.561  21.793  0.0473 -0.1153 -0.1315
 2704DPPC   C2A54138  21.761  27.251  22.114 -0.3282  0.1258  0.0028
 2704DPPC   C3A54139  21.564  27.064  22.377 -0.0827  0.0155 -0.0551
 2704DPPC   C4A54140  21.260  26.796  22.561  0.1273 -0.1751 -0.0926
 2704DPPC   C1B54141  21.426  27.682  21.422  0.2307  0.0039  0.0443
 2704DPPC   C2B54142  21.039  27.692  21.659 -0.1857  0.3962  0.1621
 2704DPPC   C3B54143  20.904  27.623  22.084 -0.0432 -0.2257 -0.0642
 2704DPPC   C4B54144  20.532  27.734  22.289 -0.1031 -0.0926  0.0619
 2705DPPC   NC354145  19.645  28.725  18.935  0.0822  0.0791  0.6061
 2705DPPC   PO454146  19.830  28.650  19.321  0.1360  0.2457  0.0799
 2705DPPC   GL154147  19.662  28.257  19.233  0.1880  0.1377  0.0523
 2705DPPC   GL254148  19.864  28.083  19.286 -0.0958  0.0212  0.2182
 2705DPPC   C1A54149  19.361  28.108  19.362  0.2135  0.1244  0.1224
 2705DPPC   C2A54150  19.151  27.945  19.750  0.3149 -0.2429 -0.2534
 2705DPPC   C3A54151  18.911  27.575  19.859  0.1189  0.4378 -0.1320
 2705DPPC   C4A54152  18.811  27.223  19.591  0.1676 -0.1333 -0.0454
 2705DPPC   C1B54153  19.778  27.634  19.257 -0.4606  0.0271 -0.0918
 2705DPPC   C2B54154  19.872  27.277  19.065  0.3830 -0.0193  0.1593
 2705DPPC   C3B54155  19.562  26.881  19.194  0.0213  0.0699 -0.1010
 2705DPPC   C4B54156  19.269  26.892  19.547 -0.0488  0.1051  0.0918
 2706DPPC   NC354157  20.818  34.699   4.629 -0.4293 -0.0040 -0.0144
 2706DPPC   PO454158  21.024  35.040   4.449  0.1641  0.5678 -0.0151
 2706DPPC   GL154159  21.044  34.770   3.997 -0.1691  0.2159 -0.2079
 2706DPPC   GL254160  21.036  34.946   3.778 -0.3853  0.0336  0.1920
 2706DPPC   C1A54161  21.202  34.416   3.915  0.0704  0.1659 -0.1205
 2706DPPC   C2A54162  21.643  34.185   3.715  0.1104 -0.0457  0.0359
 2706DPPC   C3A54163  21.853  34.292   3.335 -0.3154  0.0030 -0.0458
 2706DPPC   C4A54164  21.941  34.312   2.977  0.2619  0.2850 -0.0694
 2706DPPC   C1B54165  21.223  35.026   3.396 -0.0620  0.1961 -0.1368
 2706DPPC   C2B54166  21.007  35.152   3.066 -0.4312  0.1619 -0.3079
 2706DPPC   C3B54167  20.866  35.466   2.745  0.0112  0.3288  0.1938
 2706DPPC   C4B54168  20.782  35.466   2.434 -0.0630  0.1808 -0.2791
 2707DPPC   NC354169  27.967  27.087   0.927  0.1121  0.0154 -0.1466
 2707DPPC   PO454170  27.921  27.020   1.303  0.2661 -0.0404  0.0496
 2707DPPC   GL154171  27.632  26.676   1.538  0.0287  0.0486 -0.3968
 2707DPPC   GL254172  27.734  26.686   1.758  0.0042  0.0194 -0.1875
 2707DPPC   C1A54173  27.408  26.233   1.528 -0.0221 -0.1118 -0.1177
 2707DPPC   C2A54174  27.012  26.050   1.320 -0.1499 -0.0274  0.2336
 2707DPPC   C3A54175  26.774  25.737   1.083 -0.1488  0.0802  0.1500
 2707DPPC   C4A54176  26.351  25.600   1.167 -0.0558  0.2700  0.0067
 2707DPPC   C1B54177  27.666  26.307   1.966 -0.0080  0.2483 -0.2314
 2707DPPC   C2B54178  27.281  26.022   1.982  0.0997 -0.1976  0.2938
 2707DPPC   C3B54179  27.068  25.765   2.138 -0.0302  0.0153 -0.2017
 2707DPPC   C4B54180  26.729  25.899   2.012  0.0899 -0.2531 -0.0502
 2708DPPC   NC354181  24.246  30.461   0.936  0.1059  0.0838 -0.2747
 2708DPPC   PO454182  24.003  30.054   0.827  0.2198 -0.3226 -0.0321
 2708DPPC   GL154183  23.651  29.766   1.046 -0.1672  0.0052  0.0160
 2708DPPC   GL254184  23.933  29.602   1.235  0.1100 -0.3827  0.0132
 2708DPPC   C1A54185  23.398  29.506   1.230 -0.0394  0.2456 -0.1507
 2708DPPC   C2A54186  23.272  29.260   1.450 -0.0504  0.3001 -0.0412
 2708DPPC   C3A54187  23.103  29.162   1.119 -0.1029 -0.0637  0.1057
 2708DPPC   C4A54188  23.097  28.916   0.717  0.0394  0.0662 -0.0711
 2708DPPC   C1B54189  23.738  29.157   1.235 -0.1503  0.0805 -0.2471
 2708DPPC   C2B54190  23.509  28.819   1.080  0.1234 -0.1743 -0.1549
 2708DPPC   C3B54191  23.131  28.523   1.102  0.0054 -0.0651  0.4088
 2708DPPC   C4B54192  22.803  28.605   1.401 -0.1587  0.1364  0.1403
 2709DPPC   NC354193  20.270  19.178  15.101  0.1484  0.1767  0.3265
 2709DPPC   PO454194  20.120  19.481  15.395 -0.1181 -0.0551 -0.0695
 2709DPPC   GL154195  19.993  19.969  15.488 -0.0594  0.1962  0.1174
 2709DPPC   GL254196  20.026  19.960  15.800 -0.1674  0.5377  0.2228
 2709DPPC   C1A54197  20.030  20.401  15.737 -0.1335 -0.2069  0.1154
 2709DPPC   C2A54198  20.178  20.776  15.624  0.3905  0.1210  0.0055
 2709DPPC   C3A54199  20.577  20.978  15.577 -0.3628  0.1708 -0.0020
 2709DPPC   C4A54200  20.846  21.340  15.498 -0.1551 -0.2131  0.5150
 2709DPPC   C1B54201  19.848  20.098  16.179  0.1834 -0.0328  0.3094
 2709DPPC   C2B54202  19.763  19.830  16.526  0.1432 -0.1593  0.2362
 2709DPPC   C3B54203  19.555  19.745  16.882  0.2915  0.0941 -0.0981
 2709DPPC   C4B54204  19.136  19.842  17.096  0.1898  0.0887  0.1199
 2710DPPC   NC354205  27.913  17.556  18.525  0.0153  0.1624 -0.1360
 2710DPPC   PO454206  27.490  17.489  18.744  0.2055 -0.0259 -0.0526
 2710DPPC   GL154207  27.523  17.981  18.781  0.0331  0.0327  0.0745
 2710DPPC   GL254208  27.145  17.956  19.007  0.1394 -0.4321  0.1167
 2710DPPC   C1A54209  27.496  18.399  19.030  0.0134 -0.0880  0.3058
 2710DPPC   C2A54210  27.474  18.841  18.947 -0.0435  0.1010 -0.1941
 2710DPPC   C3A54211  27.235  19.230  18.729  0.1056  0.0950 -0.1800
 2710DPPC   C4A54212  26.997  19.559  18.653  0.0467  0.0274 -0.1002
 2710DPPC   C1B54213  26.917  18.329  19.097 -0.0948 -0.5236  0.2590
 2710DPPC   C2B54214  26.772  18.680  19.166  0.2169 -0.0957 -0.2616
 2710DPPC   C3B54215  26.434  19.054  19.231 -0.1266  0.2594 -0.0894
 2710DPPC   C4B54216  25.992  19.100  19.388 -0.0907  0.2995 -0.4038
 2711DPPC   NC354217  18.854  38.444  21.899  0.1003 -0.0285  0.1352
 2711DPPC   PO454218  18.528  38.213  22.154 -0.0644  0.1656 -0.0512
 2711DPPC   GL154219  18.713  37.836  22.079  0.1099 -0.1850  0.0307
 2711DPPC   GL254220  19.081  37.905  22.038 -0.2251  0.1201 -0.1803
 2711DPPC   C1A54221  18.598  37.344  22.115  0.1051 -0.2265  0.1187
 2711DPPC   C2A54222  18.658  36.939  21.937  0.0428 -0.2164  0.1478
 2711DPPC   C3A54223  18.697  36.540  21.851  0.1541 -0.0335 -0.1219
 2711DPPC   C4A54224  18.593  36.127  21.961  0.1520  0.1934 -0.0608
 2711DPPC   C1B54225  19.139  37.556  22.087 -0.0497  0.0003  0.1015
 2711DPPC   C2B54226  19.108  37.211  22.250  0.1950 -0.3504 -0.0535
 2711DPPC   C3B54227  19.100  36.749  22.286  0.0334 -0.0689 -0.1217
 2711DPPC   C4B54228  19.060  36.383  22.168  0.1795  0.1347 -0.1287
 2712DPPC   NC354229  27.319  25.078  25.368 -0.1138  0.1789 -0.0657
 2712DPPC   PO454230  27.414  25.445  25.500  0.1900  0.0140 -0.1680
 2712DPPC   GL154231  27.417  25.221  25.876 -0.5204 -0.2110  0.4400
 2712DPPC   GL254232  27.686  25.242  26.184 -0.2583  0.2704  0.0499
 2712DPPC   C1A54233  27.322  24.845  26.225 -0.1344 -0.0817 -0.0303
 2712DPPC   C2A54234  27.330  24.615  26.594  0.2833 -0.1652 -0.1871
 2712DPPC   C3A54235  26.936  24.422  26.608 -0.0133  0.0295  0.0168
 2712DPPC   C4A54236  26.527  24.528  26.519  0.1188  0.0899  0.1292
 2712DPPC   C1B54237  27.412  25.261  26.563  0.0578  0.1130 -0.2743
 2712DPPC   C2B54238  27.015  25.125  26.790  0.0813  0.0376  0.1637
 2712DPPC   C3B54239  27.020  24.797   0.106  0.0321 -0.0284  0.0495
 2712DPPC   C4B54240  27.203  24.410   0.215 -0.1171  0.3588 -0.0640
 2713DPPC   NC354241  22.560  15.641  21.644 -0.1680  0.0677  0.1181
 2713DPPC   PO454242  22.230  15.867  21.601  0.0723 -0.1853 -0.2322
 2713DPPC   GL154243  22.053  16.198  21.408  0.1325 -0.0383  0.1057
 2713DPPC   GL254244  22.088  16.214  21.125  0.1130 -0.1840  0.0181
 2713DPPC   C1A54245  21.637  16.345  21.405 -0.4822  0.2178 -0.0068
 2713DPPC   C2A54246  21.460  16.698  21.594 -0.2174 -0.0241 -0.0333
 2713DPPC   C3A54247  21.717  17.030  21.626  0.1628  0.0256 -0.2749
 2713DPPC   C4A54248  22.000  17.231  21.877 -0.1553 -0.2453 -0.3249
 2713DPPC   C1B54249  22.222  16.475  20.786  0.0826 -0.1258 -0.1201
 2713DPPC   C2B54250  22.355  16.604  20.443 -0.1047 -0.0917 -0.1095
 2713DPPC   C3B54251  21.989  16.929  20.359 -0.1909  0.1009  0.4043
 2713DPPC   C4B54252  21.695  17.268  20.316 -0.1895 -0.0747 -0.1027
 2714DPPC   NC354253  15.079  23.777   1.562  0.1007  0.0720  0.0593
 2714DPPC   PO454254  15.342  24.067   1.745 -0.1120  0.3311 -0.1990
 2714DPPC   GL154255  15.760  24.117   1.551  0.2089  0.0176  0.3248
 2714DPPC   GL254256  15.764  24.491   1.565  0.1428 -0.1396 -0.0180
 2714DPPC   C1A54257  15.943  24.019   1.142 -0.2272  0.1118  0.0078
 2714DPPC   C2A54258  16.331  24.232   1.079 -0.1662 -0.1564  0.0813
 2714DPPC   C3A54259  16.628  24.474   1.429 -0.2409  0.0610  0.2944
 2714DPPC   C4A54260  16.950  24.519   1.694 -0.1618 -0.0489  0.0668
 2714DPPC   C1B54261  16.090  24.686   1.294 -0.0102 -0.2167 -0.0611
 2714DPPC   C2B54262  16.196  25.078   1.211  0.1833 -0.0768  0.1890
 2714DPPC   C3B54263  16.510  25.252   1.014 -0.1644 -0.2195 -0.0857
 2714DPPC   C4B54264  16.638  25.332   0.690  0.2155  0.0861 -0.1081
 2715DPPC   NC354265  23.134  26.057   8.852 -0.1510  0.1891  0.0740
 2715DPPC   PO454266  23.034  25.687   8.622  0.0779 -0.1474  0.3900
 2715DPPC   GL154267  23.176  25.769   8.246  0.0517  0.0111  0.1027
 2715DPPC   GL254268  23.056  25.598   7.903  0.0818  0.0896 -0.3621
 2715DPPC   C1A54269  23.142  26.139   7.903  0.1214 -0.1322  0.1866
 2715DPPC   C2A54270  23.116  26.415   7.565 -0.0406  0.3752  0.3417
 2715DPPC   C3A54271  22.913  26.774   7.487 -0.1721 -0.1610 -0.1274
 2715DPPC   C4A54272  22.643  27.165   7.533 -0.2351  0.1858  0.1266
 2715DPPC   C1B54273  23.364  25.389   7.575  0.1896 -0.0498  0.1592
 2715DPPC   C2B54274  23.534  25.478   7.111  0.1572  0.0715 -0.0542
 2715DPPC   C3B54275  23.641  25.862   6.894 -0.4485  0.0200  0.0852
 2715DPPC   C4B54276  23.987  26.174   6.793 -0.0540  0.0674 -0.0480
 2716DPPC   NC354277  34.312  25.623  12.116 -0.2193  0.1208 -0.0776
 2716DPPC   PO454278  34.140  25.208  12.278 -0.3857 -0.2627  0.3791
 2716DPPC   GL154279  33.781  25.307  12.490  0.2425  0.0769  0.0717
 2716DPPC   GL254280  33.873  25.076  12.789  0.2097 -0.0850 -0.0207
 2716DPPC   C1A54281  33.488  25.345  12.797 -0.0766 -0.3995 -0.1655
 2716DPPC   C2A54282  33.194  25.694  12.850 -0.2898 -0.3951  0.0429
 2716DPPC   C3A54283  33.406  26.149  12.758  0.2383  0.2910  0.0495
 2716DPPC   C4A54284  33.387  26.578  12.641 -0.0371  0.0740 -0.0952
 2716DPPC   C1B54285  33.689  25.197  13.241 -0.0830  0.0345  0.0875
 2716DPPC   C2B54286  33.672  25.177  13.744 -0.5359 -0.0126 -0.0505
 2716DPPC   C3B54287  33.497  25.402  14.125 -0.1100 -0.1441 -0.2001
 2716DPPC   C4B54288  33.089  25.521  14.280  0.0754 -0.0834  0.1515
 2717DPPC   NC354289  13.928  28.421  20.543  0.2833 -0.3576 -0.0130
 2717DPPC   PO454290  13.650  28.441  20.968 -0.0636 -0.0178  0.1979
 2717DPPC   GL154291  14.076  28.330  20.962  0.1984 -0.2790 -0.0220
 2717DPPC   GL254292  14.111  28.072  21.204 -0.1114 -0.1029  0.0307
 2717DPPC   C1A54293  14.430  28.619  21.146 -0.0838 -0.1458  0.3002
 2717DPPC   C2A54294  14.827  28.396  20.942  0.0775  0.0745 -0.1436
 2717DPPC   C3A54295  15.257  28.361  21.072  0.2471  0.3130  0.4436
 2717DPPC   C4A54296  15.601  28.053  21.372 -0.2738 -0.1122  0.1361
 2717DPPC   C1B54297  14.436  27.806  21.238  0.1661  0.1334  0.0782
 2717DPPC   C2B54298  14.508  27.732  21.736 -0.0793 -0.3812  0.2104
 2717DPPC   C3B54299  14.041  27.771  21.873  0.2472 -0.2053 -0.0846
 2717DPPC   C4B54300  13.594  27.682  21.709  0.0356  0.3021  0.0068
 2718DPPC   NC354301  33.293  29.027   0.303  0.4849  0.0061 -0.0403
 2718DPPC   PO454302  33.400  28.792   0.280  0.1234  0.0455 -0.1447
 2718DPPC   GL154303  33.838  28.962   0.440 -0.0449 -0.2070 -0.0619
 2718DPPC   GL254304  33.962  29.257   0.324 -0.0130 -0.0933 -0.0001
 2718DPPC   C1A54305  34.135  29.038   0.686  0.1741  0.0528  0.0771
 2718DPPC   C2A54306  34.454  29.096   1.039 -0.0672 -0.1969  0.0700
 2718DPPC   C3A54307  34.835  29.168   1.197  0.1511  0.0228 -0.1384
 2718DPPC   C4A54308  35.085  29.257   1.606 -0.1601  0.1855 -0.1011
 2718DPPC   C1B54309  34.371  29.505   0.477  0.0467  0.1439  0.2551
 2718DPPC   C2B54310  34.771  29.385   0.677  0.0994  0.0665  0.0052
 2718DPPC   C3B54311  35.178  29.415   0.891 -0.1789 -0.2891 -0.1064
 2718DPPC   C4B54312  35.636  29.278   0.943  0.3254  0.1284 -0.1162
 2719DPPC   NC354313  21.055  15.537  20.466 -0.2184 -0.0366 -0.0943
 2719DPPC   PO454314  21.085  16.012  20.615  0.0180 -0.1852  0.1456
 2719DPPC   GL154315  21.320  16.409  20.800 -0.1861 -0.0315 -0.1819
 2719DPPC   GL254316  21.172  16.613  20.596  0.1712  0.1199 -0.0544
 2719DPPC   C1A54317  21.521  16.693  21.094  0.0146  0.0060  0.0741
 2719DPPC   C2A54318  21.647  17.174  21.122  0.1168  0.2027 -0.1016
 2719DPPC   C3A54319  21.487  17.589  21.088 -0.2662 -0.1212 -0.0429
 2719DPPC   C4A54320  21.068  17.763  21.073  0.0979  0.1038 -0.1704
 2719DPPC   C1B54321  21.548  16.803  20.632 -0.0767 -0.0864  0.1588
 2719DPPC   C2B54322  21.898  16.880  20.799 -0.0765 -0.1403  0.0239
 2719DPPC   C3B54323  22.412  17.008  20.681  0.1539 -0.4374  0.0767
 2719DPPC   C4B54324  22.892  17.173  20.699  0.5375 -0.3249  0.1162
 2720DPPC   NC354325  35.902  28.374  22.643  0.3089 -0.1200  0.1777
 2720DPPC   PO454326  35.889  28.734  22.927  0.0162 -0.0748  0.2140
 2720DPPC   GL154327  36.380  28.606  22.856  0.3768 -0.3133  0.0472
 2720DPPC   GL254328  36.391  28.290  22.804  0.1526 -0.0865 -0.2947
 2720DPPC   C1A54329  36.892  28.531  22.973 -0.3817 -0.0355  0.1150
 2720DPPC   C2A54330  37.216  28.469  23.140  0.2235  0.3484 -0.0072
 2720DPPC   C3A54331  37.258  28.003  23.146 -0.1396 -0.0227 -0.0848
 2720DPPC   C4A54332  37.447  27.576  23.178 -0.2203 -0.4108  0.0412
 2720DPPC   C1B54333  36.489  28.161  22.349 -0.2512 -0.0623  0.2786
 2720DPPC   C2B54334  36.887  28.139  22.150 -0.2304  0.1161  0.2107
 2720DPPC   C3B54335  37.361  28.043  22.204 -0.1809  0.3509 -0.1741
 2720DPPC   C4B54336  37.705  28.135  22.452 -0.1915 -0.1828 -0.1054
 2721DPPC   NC354337  21.086  25.333   8.198  0.1774 -0.0835 -0.1029
 2721DPPC   PO454338  21.482  25.244   8.230 -0.2574 -0.1536  0.2451
 2721DPPC   GL154339  21.726  25.279   7.883 -0.2487 -0.0905 -0.0213
 2721DPPC   GL254340  21.987  25.383   7.850  0.2382  0.1645 -0.0361
 2721DPPC   C1A54341  21.641  24.977   7.532 -0.1374 -0.2820  0.2427
 2721DPPC   C2A54342  21.576  24.733   7.179 -0.0681  0.0878  0.0367
 2721DPPC   C3A54343  21.495  24.964   6.761  0.1610  0.1684 -0.0874
 2721DPPC   C4A54344  21.498  25.151   6.418 -0.0800  0.3072 -0.1971
 2721DPPC   C1B54345  22.173  25.152   7.524  0.2624 -0.0296  0.2411
 2721DPPC   C2B54346  22.601  25.191   7.428 -0.1706 -0.0514  0.0111
 2721DPPC   C3B54347  23.049  24.979   7.347 -0.0520 -0.2377 -0.3967
 2721DPPC   C4B54348  22.989  24.705   6.948 -0.0503  0.0058  0.1855
 2722DPPC   NC354349  27.248  27.974   1.460 -0.1651 -0.2649  0.1103
 2722DPPC   PO454350  27.307  27.558   1.396  0.0302  0.1127 -0.2114
 2722DPPC   GL154351  27.001  27.213   1.406  0.5188 -0.0180 -0.1153
 2722DPPC   GL254352  27.042  27.080   1.715  0.1961  0.2915 -0.0926
 2722DPPC   C1A54353  26.687  26.981   1.316  0.1833  0.0934  0.0916
 2722DPPC   C2A54354  26.293  26.911   1.097  0.1325  0.3000  0.1676
 2722DPPC   C3A54355  26.074  26.581   1.290  0.2178  0.1171  0.3725
 2722DPPC   C4A54356  26.029  26.089   1.314 -0.3569 -0.1002  0.0073
 2722DPPC   C1B54357  27.006  27.023   2.185 -0.0877 -0.0932  0.2540
 2722DPPC   C2B54358  26.913  26.926   2.559 -0.0071  0.0162 -0.1977
 2722DPPC   C3B54359  26.639  26.949   2.937 -0.0661 -0.0129 -0.0131
 2722DPPC   C4B54360  26.668  26.916   3.300 -0.0009 -0.0883  0.1734
 2723DPPC   NC354361  22.368  28.164  21.544 -0.1227  0.2344 -0.1306
 2723DPPC   PO454362  22.130  28.069  21.169  0.1743  0.1126  0.2726
 2723DPPC   GL154363  21.817  27.974  21.602  0.1278 -0.1536 -0.2505
 2723DPPC   GL254364  21.973  28.121  21.812  0.0617  0.0714  0.1485
 2723DPPC   C1A54365  21.537  27.756  21.917  0.0469  0.0760  0.1198
 2723DPPC   C2A54366  21.327  27.315  21.891  0.2041 -0.1223 -0.1981
 2723DPPC   C3A54367  20.905  27.148  21.832  0.0632 -0.3148  0.1922
 2723DPPC   C4A54368  20.535  26.880  21.870  0.0496 -0.1324  0.1537
 2723DPPC   C1B54369  22.008  27.868  22.191  0.1399 -0.1504 -0.1908
 2723DPPC   C2B54370  21.786  27.605  22.498 -0.0895 -0.2231  0.1611
 2723DPPC   C3B54371  21.552  27.475  22.728 -0.3169 -0.1134 -0.0962
 2723DPPC   C4B54372  21.264  27.454  23.006  0.0509  0.2168 -0.0029
 2724DPPC   NC354373  30.662  40.852  16.314  0.0211 -0.1377  0.0472
 2724DPPC   PO454374  30.257  40.678  16.140  0.0346  0.2316 -0.0154
 2724DPPC   GL154375  30.108  40.369  16.286 -0.1001 -0.0490  0.0981
 2724DPPC   GL254376  30.149  40.018  16.445  0.0326 -0.0193 -0.2136
 2724DPPC   C1A54377  29.708  40.222  16.661 -0.0374  0.2319 -0.0288
 2724DPPC   C2A54378  29.499  40.181  17.081 -0.0308  0.0686 -0.1664
 2724DPPC   C3A54379  29.550  40.047  17.468 -0.0254 -0.0011 -0.1193
 2724DPPC   C4A54380  29.335  39.750  17.797 -0.2161  0.4931 -0.0676
 2724DPPC   C1B54381  30.134  39.734  16.824  0.0125 -0.4345 -0.0757
 2724DPPC   C2B54382  30.120  39.390  17.076  0.2209 -0.1794 -0.1625
 2724DPPC   C3B54383  29.821  39.119  17.107 -0.2928  0.1274 -0.0530
 2724DPPC   C4B54384  29.833  38.796  16.824  0.1322  0.0422  0.0967
 2725DPPC   NC354385  22.446  21.076  14.526 -0.1727  0.0755  0.4875
 2725DPPC   PO454386  22.225  21.268  14.895 -0.1577  0.0387 -0.2166
 2725DPPC   GL154387  22.094  21.585  15.120 -0.1830 -0.1462  0.0071
 2725DPPC   GL254388  21.957  21.380  15.395  0.1271  0.1411  0.1738
 2725DPPC   C1A54389  22.282  21.802  15.513  0.0339  0.1324  0.1673
 2725DPPC   C2A54390  22.649  21.935  15.526  0.0712 -0.3342  0.2357
 2725DPPC   C3A54391  23.099  21.994  15.393  0.1280  0.0750 -0.1915
 2725DPPC   C4A54392  23.544  22.086  15.214 -0.0635  0.1096  0.0508
 2725DPPC   C1B54393  21.935  21.606  15.785  0.3167 -0.0044 -0.2816
 2725DPPC   C2B54394  21.928  21.927  16.083  0.1844  0.1671 -0.2145
 2725DPPC   C3B54395  21.790  22.170  16.395  0.0601  0.1523  0.0503
 2725DPPC   C4B54396  21.600  22.370  16.725 -0.2128 -0.1589  0.1831
 2726DPPC   NC354397  35.656  32.280  20.716  0.1873 -0.3751 -0.2134
 2726DPPC   PO454398  35.811  32.565  20.290 -0.0342  0.5044  0.0005
 2726DPPC   GL154399  35.925  32.789  19.983 -0.1180 -0.0681  0.1173
 2726DPPC   GL254400  35.884  32.676  19.689 -0.0645  0.1354 -0.0571
 2726DPPC   C1A54401  36.303  32.994  19.831 -0.2127 -0.2496 -0.1333
 2726DPPC   C2A54402  36.742  33.181  19.781 -0.2565 -0.0552  0.0254
 2726DPPC   C3A54403  36.937  33.481  19.621  0.2722  0.0284  0.2402
 2726DPPC   C4A54404  37.346  33.715  19.575  0.1895 -0.0092  0.0923
 2726DPPC   C1B54405  36.178  32.789  19.385 -0.1222 -0.0382 -0.1740
 2726DPPC   C2B54406  36.655  33.000  19.329 -0.3311 -0.1582 -0.0492
 2726DPPC   C3B54407  36.954  33.275  19.111 -0.1006 -0.0978  0.1620
 2726DPPC   C4B54408  37.341  33.587  19.134 -0.1612  0.2562  0.0968
 2727DPPC   NC354409  39.512  32.605  18.495 -0.0443  0.1293 -0.0964
 2727DPPC   PO454410  39.215  33.080  18.573 -0.1204  0.1735  0.2689
 2727DPPC   GL154411  38.895  32.861  18.546 -0.1226 -0.1276 -0.1196
 2727DPPC   GL254412  38.635  32.975  18.480  0.0686  0.0922 -0.2454
 2727DPPC   C1A54413  38.728  32.542  18.875 -0.2054  0.0483  0.2921
 2727DPPC   C2A54414  38.350  32.451  19.115  0.2594  0.1905  0.1023
 2727DPPC   C3A54415  37.954  32.517  19.290 -0.0138 -0.4551 -0.0530
 2727DPPC   C4A54416  37.557  32.713  19.380 -0.3444 -0.1984 -0.0633
 2727DPPC   C1B54417  38.268  32.852  18.332  0.1034 -0.3065 -0.0919
 2727DPPC   C2B54418  38.128  32.802  17.937  0.0268 -0.3704 -0.0473
 2727DPPC   C3B54419  37.684  32.864  17.779  0.1943 -0.1513 -0.0547
 2727DPPC   C4B54420  37.360  32.535  17.810  0.0376 -0.0769  0.0462
 2728DPPC   NC354421  27.893  26.398   0.298 -0.0970 -0.2026  0.0297
 2728DPPC   PO454422  28.168  26.631   0.751  0.3109 -0.2103  0.1183
 2728DPPC   GL154423  27.986  26.572   1.086  0.0564  0.0603 -0.2178
 2728DPPC   GL254424  28.154  26.533   1.507 -0.1337 -0.0855 -0.0788
 2728DPPC   C1A54425  27.580  26.451   1.113 -0.1259  0.1618  0.2983
 2728DPPC   C2A54426  27.273  26.301   0.986  0.1096  0.0789  0.1101
 2728DPPC   C3A54427  26.912  26.121   0.801  0.0816  0.0212  0.2874
 2728DPPC   C4A54428  26.503  26.114   0.912  0.0355  0.0762 -0.1132
 2728DPPC   C1B54429  27.940  26.216   1.444 -0.0464  0.2477 -0.0507
 2728DPPC   C2B54430  27.771  25.968   1.214 -0.0034  0.4772  0.0217
 2728DPPC   C3B54431  27.344  25.729   1.136  0.0209  0.3897 -0.2776
 2728DPPC   C4B54432  27.261  25.250   1.105  0.0768 -0.1674  0.0499
 2729DPPC   NC354433  21.396  27.448  19.762 -0.1877  0.3093 -0.0681
 2729DPPC   PO454434  21.540  27.229  19.400  0.3813  0.0044 -0.1999
 2729DPPC   GL154435  21.299  26.796  19.452  0.0505 -0.1311 -0.2032
 2729DPPC   GL254436  21.450  26.538  19.358  0.1126  0.1660 -0.0211
 2729DPPC   C1A54437  20.945  26.595  19.640  0.0019 -0.2882 -0.3001
 2729DPPC   C2A54438  20.780  26.164  19.701 -0.2398 -0.2289 -0.1758
 2729DPPC   C3A54439  20.778  25.839  19.370 -0.2804  0.0302 -0.1799
 2729DPPC   C4A54440  20.813  25.395  19.475  0.3384 -0.0111  0.3606
 2729DPPC   C1B54441  21.064  26.406  19.243 -0.4096  0.1853  0.0563
 2729DPPC   C2B54442  20.680  26.416  19.233  0.2543 -0.1099  0.1847
 2729DPPC   C3B54443  20.384  26.689  19.515 -0.2141  0.0762 -0.0002
 2729DPPC   C4B54444  20.350  26.800  19.976  0.1464  0.0217 -0.0897
 2730DPPC   NC354445  27.055  25.125  24.937  0.3552  0.0808 -0.0622
 2730DPPC   PO454446  27.342  24.729  24.934 -0.2379 -0.1995  0.2155
 2730DPPC   GL154447  27.120  24.619  25.231  0.6189  0.0902  0.3651
 2730DPPC   GL254448  26.860  24.786  25.293  0.0643 -0.3190 -0.0157
 2730DPPC   C1A54449  26.786  24.293  25.304 -0.0769 -0.1914  0.2219
 2730DPPC   C2A54450  26.721  23.854  25.003  0.1824 -0.0607  0.0265
 2730DPPC   C3A54451  26.499  23.553  24.988 -0.4705  0.0157  0.1036
 2730DPPC   C4A54452  26.110  23.383  25.021 -0.1291 -0.1233 -0.2347
 2730DPPC   C1B54453  26.617  24.697  25.743 -0.0686  0.0438  0.0680
 2730DPPC   C2B54454  26.180  24.480  25.994 -0.0474  0.1362 -0.2828
 2730DPPC   C3B54455  25.895  24.188  26.074  0.2938  0.2386  0.3184
 2730DPPC   C4B54456  25.601  23.893  26.059 -0.2769  0.3024  0.2057
 2731DPPC   NC354457  26.346  38.061  12.199 -0.1481 -0.0550 -0.3706
 2731DPPC   PO454458  26.747  37.960  12.263  0.1604  0.4215 -0.4204
 2731DPPC   GL154459  26.958  37.741  12.578  0.1969  0.0943 -0.2498
 2731DPPC   GL254460  27.252  37.917  12.678  0.2723  0.0507  0.1760
 2731DPPC   C1A54461  27.064  37.539  12.934  0.0096  0.1315 -0.2371
 2731DPPC   C2A54462  26.841  37.433  13.325  0.2049 -0.1278 -0.0544
 2731DPPC   C3A54463  26.639  37.173  13.651  0.2780  0.3442  0.2261
 2731DPPC   C4A54464  26.402  36.782  13.585 -0.0886 -0.1643  0.0296
 2731DPPC   C1B54465  27.583  37.671  12.928 -0.0835  0.1039  0.3735
 2731DPPC   C2B54466  27.741  37.382  13.115 -0.0544  0.1517 -0.2154
 2731DPPC   C3B54467  28.080  37.134  13.265  0.0048 -0.3606  0.0130
 2731DPPC   C4B54468  28.250  36.791  13.513 -0.0799  0.1013  0.0339
 2732DPPC   NC354469  27.403  16.685   0.210 -0.3385  0.2191  0.4985
 2732DPPC   PO454470  27.733  16.906   0.040  0.0177 -0.0480 -0.0358
 2732DPPC   GL154471  27.682  17.335   0.048 -0.1265  0.0046  0.2144
 2732DPPC   GL254472  27.932  17.567   0.318 -0.1795 -0.0627 -0.0369
 2732DPPC   C1A54473  27.446  17.618  26.697  0.2990 -0.3730  0.3403
 2732DPPC   C2A54474  27.412  18.021  26.488  0.3997  0.1483 -0.0476
 2732DPPC   C3A54475  27.253  18.421  26.492 -0.0410 -0.0322  0.0632
 2732DPPC   C4A54476  27.280  18.846  26.407 -0.1450 -0.0945 -0.3307
 2732DPPC   C1B54477  27.873  17.950  26.923 -0.2020 -0.0936  0.0065
 2732DPPC   C2B54478  27.783  18.298  26.728 -0.0621 -0.1342 -0.1948
 2732DPPC   C3B54479  27.841  18.680  26.553  0.0002 -0.1232  0.0817
 2732DPPC   C4B54480  27.692  19.155  26.524 -0.0554  0.0492 -0.0431
 2733DPPC   NC354481  19.933  30.011  21.496 -0.0251 -0.1819  0.0528
 2733DPPC   PO454482  19.929  29.956  21.908  0.1870  0.1134  0.0042
 2733DPPC   GL154483  19.469  29.903  22.043  0.3302  0.2621 -0.1349
 2733DPPC   GL254484  19.343  30.193  21.788 -0.0693  0.1513  0.2820
 2733DPPC   C1A54485  18.932  29.952  22.150  0.0573  0.1069  0.0049
 2733DPPC   C2A54486  18.679  30.253  21.893  0.1462  0.2790 -0.0193
 2733DPPC   C3A54487  18.436  30.264  21.479 -0.0499  0.1742  0.0197
 2733DPPC   C4A54488  18.339  30.459  21.136  0.4160 -0.0777  0.3635
 2733DPPC   C1B54489  19.090  29.890  21.671 -0.0793  0.2563 -0.1159
 2733DPPC   C2B54490  18.628  29.753  21.785 -0.1127 -0.1431  0.0785
 2733DPPC   C3B54491  18.210  29.565  21.812 -0.0259  0.1161  0.1209
 2733DPPC   C4B54492  17.930  29.396  21.516 -0.0752 -0.1565  0.0844
 2734DPPC   NC354493  27.524  27.272   1.059  0.1656 -0.1039 -0.2052
 2734DPPC   PO454494  27.488  27.089   0.694 -0.3214  0.0077  0.0324
 2734DPPC   GL154495  27.157  26.863   0.907  0.1676 -0.0924  0.1547
 2734DPPC   GL254496  27.310  26.813   1.150  0.1096 -0.0859 -0.2580
 2734DPPC   C1A54497  26.791  26.552   1.046 -0.0527 -0.0305 -0.2465
 2734DPPC   C2A54498  26.591  26.379   1.318  0.0102  0.3272  0.2425
 2734DPPC   C3A54499  26.563  25.921   1.510  0.0703 -0.2510 -0.1792
 2734DPPC   C4A54500  26.508  25.465   1.707  0.1450 -0.0924 -0.2054
 2734DPPC   C1B54501  27.094  26.630   1.444  0.0025 -0.1844 -0.3323
 2734DPPC   C2B54502  27.285  26.616   1.876 -0.1397  0.3971  0.0802
 2734DPPC   C3B54503  27.537  26.654   2.260 -0.1692 -0.3185  0.0708
 2734DPPC   C4B54504  27.371  26.911   2.602 -0.0746  0.1447 -0.2506
 2735DPPC   NC354505  16.461  25.423   3.868  0.0546 -0.1847  0.0491
 2735DPPC   PO454506  16.002  25.349   3.871  0.0020  0.1784 -0.2112
 2735DPPC   GL154507  16.293  25.514   3.457 -0.0187  0.3470  0.3694
 2735DPPC   GL254508  16.599  25.268   3.368 -0.1312 -0.1225  0.0182
 2735DPPC   C1A54509  16.569  25.780   3.240  0.0901  0.1231  0.0979
 2735DPPC   C2A54510  16.940  25.884   3.028 -0.0693 -0.2777  0.0727
 2735DPPC   C3A54511  17.401  26.037   2.937  0.1687  0.1014  0.0504
 2735DPPC   C4A54512  17.740  26.186   3.181 -0.2147  0.3849  0.0875
 2735DPPC   C1B54513  16.871  25.398   3.008 -0.1303 -0.1531 -0.0742
 2735DPPC   C2B54514  16.999  25.594   2.550 -0.0748 -0.3448  0.0277
 2735DPPC   C3B54515  17.342  25.796   2.346 -0.0981  0.1793  0.1242
 2735DPPC   C4B54516  17.666  26.067   2.099 -0.6902  0.1478  0.1198
 2736DPPC   NC354517  15.806  24.524  16.563 -0.0639 -0.0492 -0.1528
 2736DPPC   PO454518  15.742  24.803  17.050 -0.0207 -0.2199 -0.2007
 2736DPPC   GL154519  15.684  25.105  17.373 -0.3065  0.1427  0.1292
 2736DPPC   GL254520  15.573  25.398  17.382 -0.3493  0.1470 -0.1532
 2736DPPC   C1A54521  16.063  25.217  17.570 -0.1697  0.3972 -0.1877
 2736DPPC   C2A54522  16.341  25.447  17.862 -0.1499  0.0098  0.1528
 2736DPPC   C3A54523  16.622  25.853  18.158  0.0475  0.3588 -0.0252
 2736DPPC   C4A54524  16.758  26.296  18.001  0.0127 -0.2416 -0.0680
 2736DPPC   C1B54525  15.600  25.217  17.876  0.0135 -0.1733  0.4476
 2736DPPC   C2B54526  15.988  25.113  18.090 -0.1085 -0.1544 -0.0162
 2736DPPC   C3B54527  16.358  24.986  17.914  0.2656  0.0702  0.1771
 2736DPPC   C4B54528  16.535  24.999  17.615 -0.1918 -0.0148  0.0233
 2737DPPC   NC354529  33.983  19.203  18.689 -0.0048 -0.2738  0.0111
 2737DPPC   PO454530  34.457  19.321  18.802  0.0504 -0.1809 -0.0784
 2737DPPC   GL154531  34.201  19.725  18.887  0.0492 -0.1183  0.2270
 2737DPPC   GL254532  33.987  19.862  19.071 -0.1253 -0.1411  0.0689
 2737DPPC   C1A54533  33.959  20.106  18.632  0.2938 -0.1454 -0.0670
 2737DPPC   C2A54534  33.676  20.106  18.361 -0.1860  0.1073 -0.0394
 2737DPPC   C3A54535  33.473  20.463  18.054 -0.1338 -0.0003  0.1094
 2737DPPC   C4A54536  33.345  20.945  18.119 -0.0898  0.2172 -0.2111
 2737DPPC   C1B54537  33.959  20.020  19.459  0.3910 -0.1233 -0.1262
 2737DPPC   C2B54538  34.123  20.401  19.687  0.0159  0.0557  0.2656
 2737DPPC   C3B54539  33.885  20.481  20.069 -0.4900 -0.3411  0.1473
 2737DPPC   C4B54540  33.787  20.223  20.399  0.1518 -0.2996  0.0761
 2738DPPC   NC354541  25.421  15.042  25.558 -0.0733  0.0680 -0.0190
 2738DPPC   PO454542  25.636  15.443  25.536  0.0866 -0.2544  0.1750
 2738DPPC   GL154543  25.530  15.866  25.462 -0.0344  0.2232 -0.0631
 2738DPPC   GL254544  25.256  15.980  25.673 -0.0771  0.0180 -0.1398
 2738DPPC   C1A54545  25.650  16.193  25.018  0.1731  0.1742  0.0477
 2738DPPC   C2A54546  25.401  16.305  24.665  0.0181 -0.1413  0.0192
 2738DPPC   C3A54547  25.260  16.576  24.411  0.0229  0.4328 -0.1411
 2738DPPC   C4A54548  24.935  16.764  24.260  0.0777  0.5017 -0.2393
 2738DPPC   C1B54549  25.480  16.401  25.493 -0.1064  0.0336  0.1428
 2738DPPC   C2B54550  25.507  16.668  25.267 -0.0811  0.0898 -0.1418
 2738DPPC   C3B54551  25.198  17.014  25.230 -0.0445  0.2035  0.1424
 2738DPPC   C4B54552  24.824  17.140  25.463  0.2156 -0.2771 -0.0317
 2739DPPC   NC354553  28.290  31.751   2.983 -0.0281 -0.1108  0.0112
 2739DPPC   PO454554  28.273  31.383   2.879  0.0618  0.0487  0.1027
 2739DPPC   GL154555  28.402  31.313   3.335 -0.2930 -0.0332  0.0826
 2739DPPC   GL254556  28.667  31.170   3.398 -0.0806 -0.0126  0.0045
 2739DPPC   C1A54557  28.473  31.447   3.740 -0.1430  0.0960  0.1740
 2739DPPC   C2A54558  28.272  31.550   4.015  0.0311  0.0219  0.2203
 2739DPPC   C3A54559  27.996  31.779   4.334  0.1288  0.0898  0.3157
 2739DPPC   C4A54560  27.845  31.789   4.679 -0.2085 -0.2013 -0.1535
 2739DPPC   C1B54561  29.023  31.084   3.781 -0.2460 -0.1989  0.3206
 2739DPPC   C2B54562  29.332  30.962   4.003  0.3732 -0.0323  0.1267
 2739DPPC   C3B54563  29.499  30.871   4.385  0.2286  0.1983  0.1250
 2739DPPC   C4B54564  29.240  31.109   4.726  0.0058 -0.3083 -0.1462
 2740DPPC   NC354565  26.472  28.252   1.426 -0.1326  0.0458 -0.4993
 2740DPPC   PO454566  26.820  27.999   1.230  0.0296  0.0570 -0.2027
 2740DPPC   GL154567  26.768  27.685   1.530  0.2843  0.3924  0.2002
 2740DPPC   GL254568  26.631  27.904   1.804  0.1824  0.2633  0.0925
 2740DPPC   C1A54569  26.474  27.323   1.539  0.1308  0.2946  0.0432
 2740DPPC   C2A54570  26.260  26.898   1.671 -0.2520 -0.5792  0.3069
 2740DPPC   C3A54571  26.147  26.541   1.773 -0.3217 -0.0921 -0.2059
 2740DPPC   C4A54572  25.784  26.300   1.706 -0.0071 -0.0003  0.1805
 2740DPPC   C1B54573  26.413  27.545   1.998 -0.0550  0.0293  0.1426
 2740DPPC   C2B54574  26.563  27.114   1.976  0.1819  0.0800 -0.0778
 2740DPPC   C3B54575  26.702  26.702   1.822  0.0800 -0.0792  0.1069
 2740DPPC   C4B54576  26.862  26.339   1.726  0.0595  0.0145  0.1072
 2741DPPC   NC354577  37.989  34.091  15.551  0.1411  0.0697 -0.3047
 2741DPPC   PO454578  37.849  34.468  15.643  0.0338 -0.0521 -0.0483
 2741DPPC   GL154579  37.510  34.140  15.700  0.0426 -0.1891  0.1102
 2741DPPC   GL254580  37.329  33.987  15.540 -0.3258 -0.1027  0.3611
 2741DPPC   C1A54581  37.405  33.868  16.030 -0.0451 -0.0823  0.3188
 2741DPPC   C2A54582  37.303  33.559  16.422 -0.0514 -0.3783 -0.0547
 2741DPPC   C3A54583  36.988  33.561  16.501 -0.2661  0.0750  0.0842
 2741DPPC   C4A54584  36.600  33.390  16.361  0.3584 -0.2746  0.1904
 2741DPPC   C1B54585  36.981  34.256  15.642  0.2475 -0.2605  0.1108
 2741DPPC   C2B54586  36.535  34.386  15.780  0.4177 -0.1357 -0.2719
 2741DPPC   C3B54587  36.408  34.501  16.126 -0.1151  0.0426 -0.2675
 2741DPPC   C4B54588  36.023  34.307  16.317  0.2191 -0.1343 -0.1417
 2742DPPC   NC354589  15.855  26.981  16.222 -0.3298 -0.0124 -0.2141
 2742DPPC   PO454590  16.129  27.016  16.612  0.2088  0.3203 -0.0559
 2742DPPC   GL154591  16.370  26.815  16.889  0.1831 -0.0008 -0.0185
 2742DPPC   GL254592  16.528  26.690  16.701 -0.2313  0.2154 -0.0326
 2742DPPC   C1A54593  16.828  26.906  17.049  0.1224  0.0334 -0.0792
 2742DPPC   C2A54594  17.294  26.932  17.229 -0.2141  0.0136  0.0626
 2742DPPC   C3A54595  17.735  27.074  17.398 -0.0036 -0.0917  0.0189
 2742DPPC   C4A54596  17.964  27.053  17.761 -0.2708  0.3766  0.0126
 2742DPPC   C1B54597  16.516  26.353  17.000 -0.0292  0.0875 -0.0938
 2742DPPC   C2B54598  16.768  25.989  17.152  0.0288 -0.3032 -0.1619
 2742DPPC   C3B54599  16.898  25.606  17.061 -0.0520  0.1840  0.2091
 2742DPPC   C4B54600  17.216  25.454  17.398  0.0942  0.2158  0.0803
 2743DPPC   NC354601  24.522  24.290  21.120  0.2772 -0.0357  0.0034
 2743DPPC   PO454602  24.766  24.135  21.444 -0.2625 -0.3996  0.1658
 2743DPPC   GL154603  24.491  23.834  21.382  0.4121 -0.3183  0.2574
 2743DPPC   GL254604  24.428  23.737  21.128 -0.1692 -0.3510  0.2408
 2743DPPC   C1A54605  24.170  23.635  21.621  0.1730  0.1798 -0.2959
 2743DPPC   C2A54606  24.170  23.489  22.070  0.0694 -0.4636  0.0571
 2743DPPC   C3A54607  24.005  23.455  22.442  0.0092 -0.0456 -0.0190
 2743DPPC   C4A54608  23.804  23.072  22.666 -0.0258  0.0068  0.1119
 2743DPPC   C1B54609  23.941  23.624  21.172 -0.1732 -0.2217 -0.1740
 2743DPPC   C2B54610  23.470  23.406  21.149 -0.1973 -0.0623 -0.0082
 2743DPPC   C3B54611  23.100  23.099  21.118 -0.3826  0.1277 -0.2649
 2743DPPC   C4B54612  23.153  22.690  21.040  0.0833  0.1799 -0.0133
 2744DPPC   NC354613  14.233  26.781   2.280  0.0146  0.0169  0.2073
 2744DPPC   PO454614  14.291  27.155   2.250 -0.0588 -0.0734 -0.1412
 2744DPPC   GL154615  14.710  27.043   2.038  0.2495  0.1837 -0.3976
 2744DPPC   GL254616  14.781  26.858   1.696 -0.0472 -0.1547  0.2004
 2744DPPC   C1A54617  15.196  27.096   2.166  0.0191  0.0594  0.1213
 2744DPPC   C2A54618  15.580  27.252   2.153  0.0626  0.1525  0.0403
 2744DPPC   C3A54619  15.968  27.335   2.406 -0.0856 -0.2287 -0.0851
 2744DPPC   C4A54620  16.396  27.319   2.637  0.2148 -0.2575  0.2394
 2744DPPC   C1B54621  15.110  26.719   1.847 -0.1408 -0.1054 -0.1297
 2744DPPC   C2B54622  15.459  26.446   2.032  0.3244 -0.1186  0.1142
 2744DPPC   C3B54623  15.800  26.453   1.835 -0.0671 -0.3000  0.7130
 2744DPPC   C4B54624  16.088  26.313   1.549  0.1171  0.0770 -0.1645
 2745DPPC   NC354625  15.564  28.540   3.750  0.0165  0.0108  0.1376
 2745DPPC   PO454626  15.715  28.994   3.732  0.0853  0.1011 -0.1052
 2745DPPC   GL154627  16.041  29.033   3.542  0.0171 -0.3018 -0.1941
 2745DPPC   GL254628  16.379  29.175   3.719 -0.1883  0.1638  0.0900
 2745DPPC   C1A54629  16.246  29.195   3.080 -0.0543  0.0723 -0.1294
 2745DPPC   C2A54630  16.571  29.469   2.974 -0.0687 -0.0053 -0.1713
 2745DPPC   C3A54631  16.900  29.779   2.802 -0.2130  0.2409  0.0374
 2745DPPC   C4A54632  17.006  30.024   2.939  0.2587  0.1655 -0.0530
 2745DPPC   C1B54633  16.850  29.203   3.749 -0.3386  0.1165  0.0318
 2745DPPC   C2B54634  17.227  29.322   3.536  0.0136  0.1358 -0.0486
 2745DPPC   C3B54635  17.450  29.388   3.156  0.0773  0.0916 -0.1722
 2745DPPC   C4B54636  17.387  29.533   2.786  0.1126  0.0662 -0.2034
 2746DPPC   NC354637  26.914  26.109  25.639  0.1033 -0.1182  0.0771
 2746DPPC   PO454638  26.550  25.924  25.884  0.2821 -0.2850 -0.0034
 2746DPPC   GL154639  26.583  25.636  26.141 -0.1213 -0.0238  0.1970
 2746DPPC   GL254640  26.464  25.325  25.991 -0.0264 -0.1819 -0.2137
 2746DPPC   C1A54641  26.623  25.377  26.499 -0.1205 -0.0663 -0.0659
 2746DPPC   C2A54642  26.552  24.976  26.701 -0.2204 -0.1943  0.1273
 2746DPPC   C3A54643  26.575  24.704   0.094 -0.1037 -0.0757 -0.1977
 2746DPPC   C4A54644  26.693  24.309   0.107 -0.3297 -0.0603  0.0922
 2746DPPC   C1B54645  26.347  24.960  26.197  0.2332  0.1846  0.0038
 2746DPPC   C2B54646  26.097  24.765  26.576  0.0208 -0.0966 -0.2388
 2746DPPC   C3B54647  25.997  24.655   0.073 -0.0546 -0.1882  0.1667
 2746DPPC   C4B54648  26.005  24.297   0.368 -0.1037 -0.1162 -0.3500
 2747DPPC   NC354649  22.268  40.711  21.128  0.0554  0.1439 -0.0437
 2747DPPC   PO454650  22.220  40.309  21.202 -0.0538 -0.0505 -0.1467
 2747DPPC   GL154651  22.479  40.014  20.992 -0.0170 -0.0862 -0.2256
 2747DPPC   GL254652  22.411  39.720  20.760  0.2319 -0.0788 -0.1072
 2747DPPC   C1A54653  22.913  39.854  21.084  0.1029 -0.0567 -0.0187
 2747DPPC   C2A54654  23.104  39.541  21.261 -0.0696 -0.0571  0.0244
 2747DPPC   C3A54655  23.225  39.063  21.280  0.0583 -0.1007 -0.0929
 2747DPPC   C4A54656  23.226  38.709  21.035  0.0463 -0.3957  0.0705
 2747DPPC   C1B54657  22.645  39.402  20.738  0.1978 -0.0605 -0.3054
 2747DPPC   C2B54658  22.697  39.001  20.506  0.0244 -0.2449  0.0642
 2747DPPC   C3B54659  22.858  38.927  20.052 -0.0117  0.0174  0.1420
 2747DPPC   C4B54660  22.998  38.655  19.615  0.1525  0.0687  0.0620
 2748DPPC   NC354661  22.738  24.623  18.135  0.1276  0.2147  0.1766
 2748DPPC   PO454662  22.971  24.294  17.953  0.0302 -0.2863 -0.0404
 2748DPPC   GL154663  22.634  24.116  18.221 -0.0627 -0.2945  0.2625
 2748DPPC   GL254664  22.611  23.894  17.997 -0.2950  0.2557  0.0675
 2748DPPC   C1A54665  22.440  23.767  18.499 -0.4314  0.1529 -0.0686
 2748DPPC   C2A54666  22.477  23.332  18.482  0.1455  0.1457 -0.0655
 2748DPPC   C3A54667  22.465  22.777  18.510 -0.2208 -0.1117  0.1584
 2748DPPC   C4A54668  22.718  22.553  18.605  0.0137  0.0895 -0.0431
 2748DPPC   C1B54669  22.484  23.501  18.007 -0.1189 -0.1194  0.2980
 2748DPPC   C2B54670  22.467  23.050  18.032 -0.0561  0.0813  0.1812
 2748DPPC   C3B54671  22.241  22.829  17.758 -0.0503 -0.0983  0.0387
 2748DPPC   C4B54672  21.815  22.604  17.810  0.0586  0.0378  0.0510
 2749DPPC   NC354673  26.154  24.817  24.076 -0.0719 -0.0655  0.0555
 2749DPPC   PO454674  25.869  24.793  23.647 -0.1313 -0.0519 -0.2760
 2749DPPC   GL154675  25.787  24.426  23.907 -0.0976  0.0584 -0.1236
 2749DPPC   GL254676  25.719  24.187  23.753 -0.2412  0.2215 -0.2091
 2749DPPC   C1A54677  25.440  24.269  24.205  0.2608 -0.4288  0.1348
 2749DPPC   C2A54678  25.078  24.018  24.454 -0.0714 -0.0999 -0.0446
 2749DPPC   C3A54679  24.779  23.706  24.259 -0.1336  0.2847  0.1310
 2749DPPC   C4A54680  24.598  23.579  24.601  0.0165  0.0907  0.0233
 2749DPPC   C1B54681  25.428  23.881  23.728 -0.0368 -0.0910 -0.0845
 2749DPPC   C2B54682  24.949  23.804  23.781  0.1145 -0.1342  0.0196
 2749DPPC   C3B54683  24.726  23.394  23.751 -0.0048  0.0068  0.2229
 2749DPPC   C4B54684  24.423  23.205  23.945 -0.1248 -0.1592 -0.0902
 2750DPPC   NC354685  24.953  24.643  22.656 -0.0368 -0.1630  0.1476
 2750DPPC   PO454686  24.728  24.717  22.288  0.0062 -0.0778 -0.3287
 2750DPPC   GL154687  24.346  24.603  22.153 -0.0101 -0.0653  0.2227
 2750DPPC   GL254688  24.339  24.350  21.967  0.0457  0.2109  0.1778
 2750DPPC   C1A54689  24.048  24.416  22.346  0.1424  0.0917  0.0163
 2750DPPC   C2A54690  23.737  24.263  22.531  0.1273 -0.0586 -0.0660
 2750DPPC   C3A54691  23.267  24.303  22.608 -0.2080 -0.2227  0.2945
 2750DPPC   C4A54692  23.042  24.680  22.765  0.2989  0.0610  0.0806
 2750DPPC   C1B54693  23.956  24.320  21.805  0.1826  0.0977 -0.1158
 2750DPPC   C2B54694  23.515  24.247  22.048  0.0605 -0.0318  0.0050
 2750DPPC   C3B54695  23.227  23.957  22.237  0.0926 -0.1130 -0.2526
 2750DPPC   C4B54696  23.045  23.830  22.568  0.2543 -0.2215 -0.0005
 2751DPPC   NC354697  30.683  17.578  22.162  0.3003 -0.1148 -0.0175
 2751DPPC   PO454698  30.390  17.498  21.935  0.0737 -0.2698 -0.1363
 2751DPPC   GL154699  30.476  17.958  21.922  0.1003  0.0501 -0.1645
 2751DPPC   GL254700  30.296  18.140  21.680 -0.1914 -0.0507  0.1683
 2751DPPC   C1A54701  30.374  18.510  21.957  0.1651  0.2439 -0.2720
 2751DPPC   C2A54702  30.166  18.994  21.994  0.0362 -0.0137 -0.3315
 2751DPPC   C3A54703  30.077  19.401  21.971  0.3987  0.0546  0.0192
 2751DPPC   C4A54704  29.820  19.630  21.719 -0.2189  0.0341 -0.0605
 2751DPPC   C1B54705  29.916  18.306  21.811  0.0290 -0.3361 -0.3793
 2751DPPC   C2B54706  29.787  18.624  22.082 -0.1960  0.3180 -0.2054
 2751DPPC   C3B54707  29.435  18.938  22.345  0.2184  0.0750  0.0615
 2751DPPC   C4B54708  29.195  19.248  22.595  0.2136 -0.0972  0.1356
 2752DPPC   NC354709  23.636  28.988   8.117  0.1598  0.1051 -0.1258
 2752DPPC   PO454710  23.686  29.016   7.678  0.0327  0.0016  0.1967
 2752DPPC   GL154711  24.024  28.859   7.475  0.1280  0.1892  0.0263
 2752DPPC   GL254712  24.222  29.069   7.363  0.0253 -0.0922 -0.4186
 2752DPPC   C1A54713  24.048  28.477   7.196 -0.1185  0.0799 -0.1191
 2752DPPC   C2A54714  23.706  28.174   6.905  0.2770 -0.0245 -0.2691
 2752DPPC   C3A54715  23.509  28.015   6.420 -0.2331  0.3062 -0.0069
 2752DPPC   C4A54716  23.166  28.068   6.299 -0.0759  0.4330 -0.1471
 2752DPPC   C1B54717  24.117  28.983   6.956  0.0062 -0.0089  0.1238
 2752DPPC   C2B54718  23.988  29.032   6.494  0.0143 -0.0444  0.1157
 2752DPPC   C3B54719  24.015  29.174   6.119  0.2804 -0.2347  0.0872
 2752DPPC   C4B54720  24.172  29.642   6.047  0.0154  0.1012 -0.1585
 2753DPPC   NC354721  38.512  27.305   0.153  0.0873  0.0718 -0.2377
 2753DPPC   PO454722  38.152  27.132   0.068 -0.0346  0.1355 -0.3244
 2753DPPC   GL154723  37.874  27.395  26.835  0.0957  0.2605  0.0199
 2753DPPC   GL254724  38.136  27.588   0.037  0.0643  0.0846 -0.2832
 2753DPPC   C1A54725  37.477  27.581  26.690  0.2547 -0.1435 -0.3426
 2753DPPC   C2A54726  37.025  27.513  26.522 -0.0501 -0.1767 -0.1578
 2753DPPC   C3A54727  36.704  27.558  26.254  0.0786 -0.2130  0.2889
 2753DPPC   C4A54728  36.737  27.951  26.075 -0.1089  0.3073  0.4001
 2753DPPC   C1B54729  37.874  27.942  26.852  0.0562  0.3541 -0.1133
 2753DPPC   C2B54730  37.894  28.378  26.692  0.2129  0.0426  0.1734
 2753DPPC   C3B54731  37.619  28.500  26.404 -0.0193 -0.0117  0.1635
 2753DPPC   C4B54732  37.140  28.413  26.239 -0.0971 -0.0246  0.1280
 2754DPPC   NC354733  27.495  24.061  23.523 -0.3082  0.0314 -0.2009
 2754DPPC   PO454734  27.393  23.790  23.794 -0.1512 -0.0164  0.1145
 2754DPPC   GL154735  27.530  23.401  24.180 -0.0892 -0.0348  0.1741
 2754DPPC   GL254736  27.444  23.507  24.436  0.0288 -0.2138  0.2635
 2754DPPC   C1A54737  27.196  23.104  24.355 -0.0957 -0.0617  0.1096
 2754DPPC   C2A54738  27.161  22.800  24.738 -0.3253  0.1258  0.3411
 2754DPPC   C3A54739  27.341  22.459  24.995  0.0196  0.2558  0.4299
 2754DPPC   C4A54740  27.226  22.131  25.098  0.3115  0.0508  0.0168
 2754DPPC   C1B54741  27.543  23.260  24.821 -0.0804  0.0798 -0.2795
 2754DPPC   C2B54742  27.398  23.025  25.200  0.2093 -0.1801 -0.3084
 2754DPPC   C3B54743  26.987  22.911  25.324  0.0094  0.4065 -0.1899
 2754DPPC   C4B54744  26.616  22.793  25.478 -0.0944  0.3136  0.0756
 2755DPPC   NC354745  26.850  41.584  23.759 -0.4819 -0.2465 -0.4363
 2755DPPC   PO454746  27.237  41.655  23.861 -0.0723  0.3204  0.3031
 2755DPPC   GL154747  27.400  41.320  23.703 -0.1448 -0.0999 -0.4258
 2755DPPC   GL254748  27.049  41.203  23.490 -0.2920 -0.1394 -0.0092
 2755DPPC   C1A54749  27.541  40.952  23.590  0.0300  0.0721 -0.3965
 2755DPPC   C2A54750  27.771  40.574  23.631  0.0825  0.0601 -0.1510
 2755DPPC   C3A54751  27.531  40.170  23.397  0.0376  0.0296  0.2372
 2755DPPC   C4A54752  27.349  39.825  23.275  0.1384  0.1459  0.2016
 2755DPPC   C1B54753  27.051  40.694  23.366 -0.0284  0.1995  0.3292
 2755DPPC   C2B54754  26.905  40.246  23.192  0.0228  0.3952  0.0978
 2755DPPC   C3B54755  27.050  39.825  22.888  0.6307 -0.0498 -0.0499
 2755DPPC   C4B54756  27.252  39.507  22.764  0.0386  0.2778  0.0668
 2756DPPC   NC354757  24.019  25.768  20.900 -0.3211  0.0567 -0.0810
 2756DPPC   PO454758  23.878  25.310  20.954 -0.0975  0.0649 -0.2270
 2756DPPC   GL154759  23.573  24.859  21.003 -0.0853 -0.3177  0.1220
 2756DPPC   GL254760  23.217  24.799  20.746  0.0782  0.3403  0.1704
 2756DPPC   C1A54761  23.330  24.441  21.127 -0.0694 -0.2338  0.0700
 2756DPPC   C2A54762  23.008  24.235  21.339 -0.4533  0.3416  0.1610
 2756DPPC   C3A54763  22.727  23.913  21.206 -0.2028 -0.4642  0.1784
 2756DPPC   C4A54764  22.449  23.758  21.479  0.2597  0.1109 -0.0040
 2756DPPC   C1B54765  22.829  24.538  20.920 -0.1997 -0.0019 -0.2876
 2756DPPC   C2B54766  22.516  24.404  21.331 -0.3559  0.4271  0.0795
 2756DPPC   C3B54767  22.192  24.279  21.503 -0.2861  0.0449 -0.2335
 2756DPPC   C4B54768  22.387  24.083  21.928  0.1385 -0.1447 -0.1167
 2757DPPC   NC354769  23.017  25.029  18.155 -0.1732 -0.1422 -0.2020
 2757DPPC   PO454770  22.615  25.091  18.243  0.1707  0.0867  0.1702
 2757DPPC   GL154771  22.181  24.920  18.162 -0.0537  0.3356 -0.0266
 2757DPPC   GL254772  22.287  24.530  18.328 -0.4235  0.0379 -0.0546
 2757DPPC   C1A54773  21.865  24.595  18.117  0.0724 -0.0794  0.2833
 2757DPPC   C2A54774  21.728  24.299  17.810 -0.1064 -0.0940 -0.0994
 2757DPPC   C3A54775  21.404  24.166  17.731 -0.0513  0.1527  0.0035
 2757DPPC   C4A54776  21.071  24.326  17.779  0.2147 -0.0499 -0.0799
 2757DPPC   C1B54777  22.292  24.208  18.701 -0.2781  0.2532 -0.3172
 2757DPPC   C2B54778  22.041  23.895  18.738  0.0024 -0.1002 -0.2231
 2757DPPC   C3B54779  21.878  23.608  18.756 -0.0649 -0.0351 -0.0299
 2757DPPC   C4B54780  21.851  23.132  18.965 -0.0570 -0.5759 -0.2302
 2758DPPC   NC354781  22.595  34.010   5.610  0.2858 -0.0232  0.1077
 2758DPPC   PO454782  22.373  34.162   5.257 -0.0522  0.0598 -0.1350
 2758DPPC   GL154783  22.237  33.994   4.928  0.1287  0.3302  0.1613
 2758DPPC   GL254784  22.289  33.672   4.857  0.3054 -0.0061  0.1776
 2758DPPC   C1A54785  22.329  34.029   4.458 -0.2779  0.0139 -0.0026
 2758DPPC   C2A54786  22.203  34.069   4.050 -0.0471 -0.1548 -0.2247
 2758DPPC   C3A54787  22.129  33.981   3.672 -0.1332  0.0147  0.1864
 2758DPPC   C4A54788  22.159  33.865   3.217  0.1944 -0.1139 -0.4038
 2758DPPC   C1B54789  22.743  33.892   4.735  0.1884  0.0195 -0.2718
 2758DPPC   C2B54790  22.805  33.877   4.327 -0.0982  0.1536  0.1133
 2758DPPC   C3B54791  22.955  33.580   4.079 -0.3561 -0.1457  0.0564
 2758DPPC   C4B54792  23.179  33.753   3.738  0.0155 -0.1746  0.2325
 2759DPPC   NC354793  23.812  35.314  11.110  0.0202  0.2773 -0.2216
 2759DPPC   PO454794  23.777  35.388  11.439  0.0570 -0.2141  0.0178
 2759DPPC   GL154795  23.921  35.086  11.693 -0.1736 -0.0562  0.1182
 2759DPPC   GL254796  23.935  35.302  11.943  0.1165 -0.1189 -0.0053
 2759DPPC   C1A54797  24.196  34.733  11.913  0.2576  0.1310 -0.0480
 2759DPPC   C2A54798  24.343  34.273  12.002  0.0330 -0.0822  0.0792
 2759DPPC   C3A54799  24.413  33.904  12.324  0.2012  0.1523 -0.4627
 2759DPPC   C4A54800  24.619  33.732  12.541 -0.2366  0.0513  0.4658
 2759DPPC   C1B54801  24.024  35.071  12.236 -0.0298  0.4473  0.3100
 2759DPPC   C2B54802  24.018  34.580  12.395 -0.1524  0.3537  0.0476
 2759DPPC   C3B54803  23.989  34.249  12.483  0.0551  0.2121  0.1367
 2759DPPC   C4B54804  24.289  34.041  12.837  0.1877  0.0411 -0.1047
 2760DPPC   NC354805  26.448  21.439  19.043  0.0893 -0.0998 -0.0096
 2760DPPC   PO454806  25.972  21.384  19.073 -0.2571 -0.1105 -0.1276
 2760DPPC   GL154807  25.948  21.122  18.763  0.0607  0.1036  0.1040
 2760DPPC   GL254808  25.711  20.789  18.780 -0.0759 -0.1255 -0.0425
 2760DPPC   C1A54809  25.946  20.919  18.369 -0.3821  0.0268  0.0844
 2760DPPC   C2A54810  25.923  20.823  17.913  0.3165  0.1059  0.2021
 2760DPPC   C3A54811  25.923  20.666  17.483  0.1257 -0.2929  0.0177
 2760DPPC   C4A54812  25.621  20.870  17.238 -0.1262 -0.0747 -0.2507
 2760DPPC   C1B54813  25.439  20.497  18.916  0.0480  0.3178 -0.0472
 2760DPPC   C2B54814  25.631  20.180  18.745 -0.0337 -0.1206 -0.1960
 2760DPPC   C3B54815  25.920  19.896  18.769  0.2650 -0.1560  0.0128
 2760DPPC   C4B54816  26.107  19.568  19.071  0.0955  0.0291 -0.1785
 2761DPPC   NC354817  30.538  33.351  14.463  0.0295  0.1569 -0.0523
 2761DPPC   PO454818  30.632  32.989  14.314  0.0571  0.1005  0.1514
 2761DPPC   GL154819  30.767  33.286  13.950  0.0398  0.0175  0.2091
 2761DPPC   GL254820  30.631  33.599  13.887 -0.1519  0.3174 -0.0247
 2761DPPC   C1A54821  30.948  33.369  13.414 -0.0376  0.0483 -0.0345
 2761DPPC   C2A54822  30.935  33.719  13.268  0.0794  0.1553 -0.0330
 2761DPPC   C3A54823  30.926  34.076  13.221 -0.0246 -0.2094  0.0562
 2761DPPC   C4A54824  30.826  34.558  13.297  0.0361 -0.1744 -0.0703
 2761DPPC   C1B54825  31.008  33.780  13.822 -0.2535 -0.2621  0.0983
 2761DPPC   C2B54826  31.250  34.123  13.536 -0.0564  0.0238  0.1339
 2761DPPC   C3B54827  31.349  34.454  13.368  0.2899 -0.0124 -0.1151
 2761DPPC   C4B54828  31.761  34.762  13.090  0.2816 -0.1296 -0.0292
 2762DPPC   NC354829  29.267  30.732   9.734 -0.0629 -0.3594 -0.0391
 2762DPPC   PO454830  28.755  30.743   9.518 -0.2959 -0.0867 -0.0759
 2762DPPC   GL154831  28.801  30.565   9.926  0.1617 -0.0627  0.0464
 2762DPPC   GL254832  28.842  30.828  10.033 -0.2108  0.2538 -0.0971
 2762DPPC   C1A54833  28.641  30.385  10.203  0.1075 -0.2568 -0.1241
 2762DPPC   C2A54834  28.510  30.511  10.579 -0.0643 -0.0515  0.0594
 2762DPPC   C3A54835  28.520  30.818  10.802 -0.0182 -0.1849 -0.0544
 2762DPPC   C4A54836  28.782  31.234  10.770  0.0462 -0.1930 -0.1029
 2762DPPC   C1B54837  28.918  30.749  10.453 -0.2860  0.1732 -0.1822
 2762DPPC   C2B54838  29.053  30.645  10.820  0.0101 -0.1078  0.0769
 2762DPPC   C3B54839  28.851  30.486  11.171  0.0265 -0.2208  0.0047
 2762DPPC   C4B54840  28.681  30.410  11.606  0.0245 -0.1492  0.0416
 2763DPPC   NC354841  30.538  21.504  21.062  0.2938  0.0719 -0.0548
 2763DPPC   PO454842  30.505  21.895  20.753  0.3301 -0.0775  0.0904
 2763DPPC   GL154843  30.806  21.517  20.566  0.0733  0.0623  0.1607
 2763DPPC   GL254844  30.943  21.362  20.865 -0.0661 -0.1286  0.1536
 2763DPPC   C1A54845  31.160  21.243  20.414  0.2660 -0.1248  0.0713
 2763DPPC   C2A54846  31.519  21.151  20.319  0.3354 -0.0828  0.1458
 2763DPPC   C3A54847  31.979  21.161  20.119  0.1058  0.1542  0.1862
 2763DPPC   C4A54848  32.215  21.006  20.127 -0.1281  0.0015 -0.3089
 2763DPPC   C1B54849  30.947  20.954  21.216 -0.0274  0.0307 -0.1062
 2763DPPC   C2B54850  31.186  20.613  21.290 -0.0497 -0.0038 -0.0034
 2763DPPC   C3B54851  31.534  20.377  21.369  0.0608 -0.4428  0.2925
 2763DPPC   C4B54852  31.751  19.986  21.417  0.0078 -0.1976  0.3241
 2764DPPC   NC354853  35.463  20.179  18.871 -0.4181 -0.2266  0.0941
 2764DPPC   PO454854  35.414  20.479  18.568 -0.1983 -0.1824  0.0626
 2764DPPC   GL154855  35.108  20.642  18.580 -0.4419  0.1436  0.0976
 2764DPPC   GL254856  35.100  21.043  18.706 -0.1398 -0.2291 -0.6302
 2764DPPC   C1A54857  34.585  20.689  18.632  0.3536 -0.3587 -0.0591
 2764DPPC   C2A54858  34.117  20.628  18.792  0.1436  0.4212  0.0908
 2764DPPC   C3A54859  33.743  20.950  18.756  0.2483  0.1435 -0.0544
 2764DPPC   C4A54860  33.526  21.255  18.579 -0.0136  0.1602  0.2022
 2764DPPC   C1B54861  35.056  21.371  18.737  0.1372 -0.1307  0.4151
 2764DPPC   C2B54862  35.095  21.716  18.914  0.1283 -0.1596  0.1699
 2764DPPC   C3B54863  34.721  21.941  19.026  0.0907  0.1245  0.3487
 2764DPPC   C4B54864  34.364  22.089  19.226  0.1379  0.1004  0.2031
 2765DPPC   NC354865  27.918  38.116  23.223  0.0648 -0.1280  0.1838
 2765DPPC   PO454866  27.452  38.254  23.317  0.2731  0.1426 -0.0823
 2765DPPC   GL154867  27.743  38.593  23.243  0.0629 -0.0275  0.1516
 2765DPPC   GL254868  27.632  38.688  22.982 -0.1885  0.1575 -0.2406
 2765DPPC   C1A54869  27.873  38.967  23.376  0.1521  0.1335 -0.1686
 2765DPPC   C2A54870  28.133  39.236  23.190  0.0065 -0.0423 -0.1684
 2765DPPC   C3A54871  28.415  39.535  23.294 -0.1269  0.0034  0.2055
 2765DPPC   C4A54872  28.678  39.570  23.650  0.0131  0.0186  0.2607
 2765DPPC   C1B54873  27.389  39.033  23.191  0.0954 -0.1531  0.1325
 2765DPPC   C2B54874  27.386  39.276  23.544 -0.1070  0.0459  0.1237
 2765DPPC   C3B54875  27.310  39.659  23.788  0.0588 -0.0073  0.1107
 2765DPPC   C4B54876  27.359  39.996  23.945  0.4527 -0.0458 -0.0599
 2766DPPC   NC354877  40.029  29.019  21.575 -0.4159  0.1058  0.0852
 2766DPPC   PO454878  39.810  29.026  21.983  0.1932 -0.1756 -0.1328
 2766DPPC   GL154879  39.537  29.270  21.731 -0.1528 -0.2211 -0.3539
 2766DPPC   GL254880  39.432  29.429  21.555  0.2089  0.3506 -0.2011
 2766DPPC   C1A54881  39.007  29.234  21.875  0.3592 -0.0052  0.0974
 2766DPPC   C2A54882  38.623  29.023  21.797  0.2237 -0.2271 -0.0434
 2766DPPC   C3A54883  38.188  28.986  21.770  0.3274 -0.1483 -0.1293
 2766DPPC   C4A54884  37.857  28.715  21.707 -0.0820 -0.1411 -0.1926
 2766DPPC   C1B54885  39.196  29.174  21.325  0.1163 -0.2808 -0.0213
 2766DPPC   C2B54886  38.892  29.038  21.152 -0.1452 -0.0468 -0.2090
 2766DPPC   C3B54887  38.523  29.003  20.938 -0.0438 -0.0347 -0.2011
 2766DPPC   C4B54888  38.383  28.910  20.510 -0.2253  0.0177  0.1229
 2767DPPC   NC354889  31.349  31.981   6.561 -0.2749  0.0643 -0.2196
 2767DPPC   PO454890  31.407  32.178   6.183  0.2795 -0.3954 -0.1124
 2767DPPC   GL154891  31.368  31.861   5.818 -0.3923  0.3262 -0.4637
 2767DPPC   GL254892  31.390  31.598   6.043  0.0672 -0.4580 -0.0060
 2767DPPC   C1A54893  31.710  31.832   5.463  0.1415  0.0160 -0.0230
 2767DPPC   C2A54894  31.986  32.070   5.206  0.2203 -0.2347  0.3356
 2767DPPC   C3A54895  31.984  32.451   5.128 -0.0775  0.0966 -0.2184
 2767DPPC   C4A54896  31.632  32.743   5.055  0.0975 -0.0248 -0.1468
 2767DPPC   C1B54897  31.521  31.362   5.595 -0.1075 -0.2380  0.0740
 2767DPPC   C2B54898  31.748  31.457   5.175  0.1771  0.0506 -0.1328
 2767DPPC   C3B54899  31.928  31.082   4.862  0.2985 -0.0820 -0.1208
 2767DPPC   C4B54900  31.838  30.979   4.459 -0.0841  0.2519  0.1246
 2768DPPC   NC354901  25.659  26.132  25.459  0.0262  0.0797 -0.3011
 2768DPPC   PO454902  26.138  26.163  25.336 -0.2745 -0.1471 -0.3065
 2768DPPC   GL154903  26.031  25.900  25.724  0.2401  0.1717  0.1483
 2768DPPC   GL254904  25.673  25.844  25.964  0.0405  0.0464  0.0994
 2768DPPC   C1A54905  25.882  25.443  26.001 -0.1142 -0.0940  0.2514
 2768DPPC   C2A54906  25.776  24.985  26.169  0.1234  0.2443 -0.2143
 2768DPPC   C3A54907  25.608  24.561  26.343  0.1430 -0.2587  0.2169
 2768DPPC   C4A54908  25.307  24.335  26.232  0.1092  0.3012  0.1682
 2768DPPC   C1B54909  25.703  25.708  26.369 -0.1073  0.0312 -0.0900
 2768DPPC   C2B54910  25.521  25.698  26.751 -0.2034 -0.0984 -0.0120
 2768DPPC   C3B54911  25.539  25.637   0.115 -0.2648  0.0716 -0.2639
 2768DPPC   C4B54912  25.223  25.865   0.377  0.2635 -0.1060  0.3403
 2769DPPC   NC354913  33.145  32.596  10.591 -0.0076  0.1170  0.2831
 2769DPPC   PO454914  32.943  32.875  10.856 -0.2720 -0.1477  0.0617
 2769DPPC   GL154915  32.861  33.027  11.250  0.0803 -0.0756  0.0124
 2769DPPC   GL254916  32.900  32.730  11.413  0.1484 -0.1352 -0.0768
 2769DPPC   C1A54917  32.715  33.321  11.464 -0.0644 -0.1870 -0.0022
 2769DPPC   C2A54918  32.516  33.429  11.808  0.3125 -0.1397 -0.1943
 2769DPPC   C3A54919  32.316  33.543  12.148  0.1493 -0.1205  0.1013
 2769DPPC   C4A54920  32.003  33.929  12.405  0.2994 -0.0967  0.0558
 2769DPPC   C1B54921  32.880  32.998  11.808 -0.0188 -0.0750 -0.0337
 2769DPPC   C2B54922  32.669  32.923  12.117  0.0190 -0.2349 -0.0035
 2769DPPC   C3B54923  32.571  32.703  12.419 -0.3715 -0.0025  0.1705
 2769DPPC   C4B54924  32.846  32.561  12.770  0.3728  0.4478 -0.3120
 2770DPPC   NC354925  34.903  33.156  23.881  0.1647 -0.1982 -0.0482
 2770DPPC   PO454926  34.767  32.891  24.204  0.2111  0.0640 -0.0738
 2770DPPC   GL154927  35.171  32.968  24.397 -0.1627  0.1291 -0.1698
 2770DPPC   GL254928  35.339  32.904  24.716  0.4095  0.1479 -0.1382
 2770DPPC   C1A54929  35.462  33.375  24.426 -0.0238 -0.1695  0.0726
 2770DPPC   C2A54930  35.894  33.418  24.289 -0.1210  0.4777  0.1225
 2770DPPC   C3A54931  36.256  33.348  24.576 -0.3165  0.3241 -0.0243
 2770DPPC   C4A54932  36.381  33.449  25.060  0.0612 -0.3031  0.5066
 2770DPPC   C1B54933  35.657  32.766  25.013  0.1923 -0.3243 -0.0923
 2770DPPC   C2B54934  35.661  32.801  25.466  0.3518 -0.0564  0.0218
 2770DPPC   C3B54935  35.713  32.806  25.921 -0.1321  0.0909  0.0691
 2770DPPC   C4B54936  35.880  32.688  26.162  0.1704  0.2691 -0.1762
 2771DPPC   NC354937  39.653  27.859  24.169 -0.1152  0.2671  0.0955
 2771DPPC   PO454938  39.532  28.022  23.829 -0.2288 -0.1404 -0.2064
 2771DPPC   GL154939  39.160  28.093  23.786 -0.1047 -0.0709 -0.1851
 2771DPPC   GL254940  39.007  28.322  24.020 -0.1892 -0.0834  0.0195
 2771DPPC   C1A54941  38.991  28.438  23.493  0.0218 -0.1358 -0.1117
 2771DPPC   C2A54942  38.595  28.673  23.419  0.0653  0.2459  0.0689
 2771DPPC   C3A54943  38.531  29.069  23.349  0.1775 -0.1434 -0.2779
 2771DPPC   C4A54944  38.702  29.482  23.324  0.0221 -0.1761 -0.1289
 2771DPPC   C1B54945  38.639  28.144  23.808 -0.1828 -0.2510  0.0433
 2771DPPC   C2B54946  38.240  28.360  23.688 -0.1185 -0.1642  0.3127
 2771DPPC   C3B54947  37.869  28.514  23.842 -0.1390 -0.0168  0.0359
 2771DPPC   C4B54948  37.442  28.287  23.999  0.0329  0.1638 -0.0206
 2772DPPC   NC354949  27.881  21.757  12.066  0.0615  0.4735 -0.2430
 2772DPPC   PO454950  28.119  22.037  12.008  0.0008  0.3488  0.1590
 2772DPPC   GL154951  27.946  22.026  12.470  0.1151 -0.0545 -0.2675
 2772DPPC   GL254952  28.111  22.036  12.674 -0.1183 -0.0297  0.0899
 2772DPPC   C1A54953  27.810  22.401  12.742 -0.1552 -0.2359  0.0386
 2772DPPC   C2A54954  27.862  22.768  12.883 -0.1737  0.0562 -0.0774
 2772DPPC   C3A54955  27.777  23.120  13.144  0.0178 -0.2234  0.0333
 2772DPPC   C4A54956  27.871  23.322  13.522 -0.2242  0.0454  0.3072
 2772DPPC   C1B54957  28.223  22.486  13.021  0.1753 -0.2420 -0.1044
 2772DPPC   C2B54958  28.397  22.857  13.102  0.0489 -0.3588 -0.0169
 2772DPPC   C3B54959  28.360  23.213  13.410 -0.1880 -0.3454 -0.0049
 2772DPPC   C4B54960  28.406  23.224  13.823 -0.1421 -0.0999 -0.0985
 2773DPPC   NC354961  28.372  18.592   4.484 -0.1849 -0.2100  0.2661
 2773DPPC   PO454962  28.390  19.030   4.626  0.1136  0.1898  0.2586
 2773DPPC   GL154963  28.117  19.328   4.372 -0.0746 -0.1700  0.1436
 2773DPPC   GL254964  28.202  19.641   4.404  0.2185  0.0205 -0.0255
 2773DPPC   C1A54965  27.957  19.301   3.972  0.2623  0.0809 -0.0007
 2773DPPC   C2A54966  27.596  19.003   4.006  0.2934  0.2839  0.0330
 2773DPPC   C3A54967  27.666  18.669   3.770  0.0677 -0.1170 -0.2620
 2773DPPC   C4A54968  27.420  18.338   3.676 -0.2607  0.0731 -0.1915
 2773DPPC   C1B54969  27.851  19.841   4.291  0.2886  0.1072  0.3534
 2773DPPC   C2B54970  27.425  19.983   4.092 -0.2215 -0.0041 -0.3660
 2773DPPC   C3B54971  27.013  19.717   4.038 -0.0839  0.2367  0.0353
 2773DPPC   C4B54972  26.962  19.290   3.979  0.1469  0.0162 -0.0431
 2774DPPC   NC354973  21.812  30.485  23.550  0.1147  0.0739  0.0159
 2774DPPC   PO454974  21.542  30.258  23.832 -0.0949 -0.3378 -0.2523
 2774DPPC   GL154975  21.453  29.813  24.018  0.2298 -0.3723 -0.0233
 2774DPPC   GL254976  21.124  29.669  23.939 -0.3302  0.0114 -0.0427
 2774DPPC   C1A54977  21.637  29.509  24.222 -0.1400 -0.1541 -0.1516
 2774DPPC   C2A54978  21.625  29.068  24.306  0.1298 -0.1478  0.1256
 2774DPPC   C3A54979  21.463  28.847  24.614  0.0388  0.1663 -0.2706
 2774DPPC   C4A54980  21.196  28.525  24.665 -0.0848 -0.2471  0.0720
 2774DPPC   C1B54981  20.775  29.428  24.114  0.1764 -0.0200  0.0377
 2774DPPC   C2B54982  20.412  29.336  24.083  0.2053 -0.0375  0.0834
 2774DPPC   C3B54983  20.084  29.480  23.834  0.0060  0.0594 -0.0683
 2774DPPC   C4B54984  19.903  29.873  23.748  0.0512 -0.1324 -0.0243
 2775DPPC   NC354985  14.466  22.201  24.204  0.0082  0.4236 -0.1559
 2775DPPC   PO454986  14.455  22.054  23.880 -0.1249 -0.1786  0.0023
 2775DPPC   GL154987  14.888  22.210  23.708  0.0817  0.0542 -0.0819
 2775DPPC   GL254988  14.994  22.240  24.032 -0.0202 -0.2013  0.1084
 2775DPPC   C1A54989  15.314  22.425  23.534  0.1426  0.0169  0.1939
 2775DPPC   C2A54990  15.589  22.706  23.705 -0.2473  0.1550 -0.0231
 2775DPPC   C3A54991  16.000  22.916  23.796  0.1248 -0.0777  0.1227
 2775DPPC   C4A54992  16.459  22.924  23.709 -0.1295 -0.2072 -0.1108
 2775DPPC   C1B54993  15.124  22.596  23.900  0.0623  0.0761  0.0309
 2775DPPC   C2B54994  15.164  22.982  23.769 -0.1268  0.2149 -0.0955
 2775DPPC   C3B54995  15.191  23.498  23.832 -0.0105 -0.0271  0.3473
 2775DPPC   C4B54996  15.000  23.843  23.944 -0.2080  0.4164 -0.0489
 2776DPPC   NC354997  25.681  17.531   4.469 -0.3536  0.3312  0.0973
 2776DPPC   PO454998  25.706  17.381   3.975 -0.1079  0.2763  0.0982
 2776DPPC   GL154999  25.570  17.627   3.606  0.0823 -0.1155  0.0567
 2776DPPC   GL255000  25.231  17.833   3.751  0.0348  0.2467 -0.0047
 2776DPPC   C1A55001  25.388  17.956   3.254 -0.0905  0.3043  0.1732
 2776DPPC   C2A55002  25.605  18.492   3.233  0.0799 -0.0177  0.3183
 2776DPPC   C3A55003  25.787  18.904   3.230  0.0480 -0.1295  0.4197
 2776DPPC   C4A55004  25.685  19.405   3.373  0.0708 -0.1848 -0.0769
 2776DPPC   C1B55005  25.019  18.205   3.482 -0.0928  0.1546  0.0492
 2776DPPC   C2B55006  24.970  18.661   3.372  0.0435  0.0682 -0.0988
 2776DPPC   C3B55007  25.312  18.974   3.556 -0.0460  0.1104 -0.2809
 2776DPPC   C4B55008  25.487  19.157   3.895 -0.0387 -0.0795 -0.1330
 2777DPPC   NC355009  33.888  36.033   3.837 -0.1224 -0.0401  0.2005
 2777DPPC   PO455010  34.242  36.102   3.652  0.1827 -0.1011 -0.1429
 2777DPPC   GL155011  34.345  35.738   3.405  0.2643  0.1533 -0.1008
 2777DPPC   GL255012  34.313  35.746   3.009  0.0185 -0.0658 -0.0335
 2777DPPC   C1A55013  34.136  35.393   3.429 -0.2655 -0.3011 -0.1733
 2777DPPC   C2A55014  33.892  35.153   3.474  0.1419  0.1193  0.0930
 2777DPPC   C3A55015  33.870  34.760   3.145 -0.1137  0.2489  0.2781
 2777DPPC   C4A55016  34.169  34.325   3.062  0.0572 -0.0511 -0.0195
 2777DPPC   C1B55017  34.064  35.766   2.704  0.1307  0.1534 -0.2674
 2777DPPC   C2B55018  33.832  35.486   2.497  0.1069 -0.0872 -0.1554
 2777DPPC   C3B55019  33.844  35.035   2.445  0.1496 -0.0290  0.2018
 2777DPPC   C4B55020  34.213  34.874   2.033  0.2024  0.0612 -0.1506
 2778DPPC   NC355021  25.902  41.701  23.862 -0.0369 -0.0373 -0.2974
 2778DPPC   PO455022  25.419  41.722  23.808 -0.0730 -0.1045  0.2619
 2778DPPC   GL155023  25.655  41.283  23.669 -0.0853 -0.0240  0.0759
 2778DPPC   GL255024  26.018  41.310  23.622  0.1597  0.1423 -0.1189
 2778DPPC   C1A55025  25.499  40.850  23.646 -0.2490  0.1014  0.0965
 2778DPPC   C2A55026  25.148  40.569  23.698  0.0834 -0.2273  0.5703
 2778DPPC   C3A55027  24.862  40.284  23.476  0.2893  0.1041  0.2644
 2778DPPC   C4A55028  24.724  40.102  23.224 -0.1794  0.0179 -0.0558
 2778DPPC   C1B55029  26.063  40.988  23.606 -0.0326 -0.1699  0.0871
 2778DPPC   C2B55030  25.906  40.532  23.496  0.2758 -0.0257  0.1312
 2778DPPC   C3B55031  25.597  40.248  23.586  0.1033  0.1092 -0.0504
 2778DPPC   C4B55032  25.472  39.876  23.714  0.0524 -0.1040 -0.0415
 2779DPPC   NC355033  35.517  25.809   2.806  0.0853 -0.0086  0.1759
 2779DPPC   PO455034  35.812  26.179   2.822 -0.0773  0.1108  0.1025
 2779DPPC   GL155035  35.448  26.486   2.843 -0.0259 -0.2967  0.1666
 2779DPPC   GL255036  35.254  26.304   2.615 -0.0290 -0.0246 -0.1354
 2779DPPC   C1A55037  35.074  26.764   2.777  0.3826  0.0744 -0.0737
 2779DPPC   C2A55038  34.745  27.094   2.872  0.2482 -0.0628  0.0498
 2779DPPC   C3A55039  34.481  27.345   3.198  0.2007  0.0551  0.0431
 2779DPPC   C4A55040  34.061  27.356   3.450 -0.0769  0.3308  0.2310
 2779DPPC   C1B55041  35.002  26.206   2.199 -0.2452 -0.0886 -0.1002
 2779DPPC   C2B55042  34.696  26.115   2.065  0.1520 -0.3451  0.2620
 2779DPPC   C3B55043  34.448  26.133   1.743 -0.2544 -0.1766 -0.0795
 2779DPPC   C4B55044  34.364  26.308   1.272 -0.0086  0.0553  0.0395
 2780DPPC   NC355045  28.664  22.835  25.304 -0.3780  0.1388  0.1081
 2780DPPC   PO455046  28.370  23.161  25.224  0.2271  0.0683 -0.0991
 2780DPPC   GL155047  27.965  23.139  25.381  0.0270 -0.1060  0.0260
 2780DPPC   GL255048  27.881  23.381  25.265  0.1053 -0.1282  0.2565
 2780DPPC   C1A55049  27.638  23.172  25.622  0.0853 -0.1649 -0.2995
 2780DPPC   C2A55050  27.217  23.193  25.730  0.4569  0.4889  0.0762
 2780DPPC   C3A55051  26.766  23.362  25.860 -0.2756 -0.2032 -0.0098
 2780DPPC   C4A55052  26.688  23.601  26.200  0.3011  0.2578 -0.2355
 2780DPPC   C1B55053  27.444  23.506  25.228 -0.0698 -0.4195  0.0011
 2780DPPC   C2B55054  26.988  23.487  25.369  0.0050  0.0314  0.1665
 2780DPPC   C3B55055  26.494  23.374  25.457 -0.0877  0.0575 -0.0106
 2780DPPC   C4B55056  26.287  23.755  25.420 -0.0191  0.2974 -0.0066
 2781DPPC   NC355057  26.835  23.863  23.791  0.1946  0.0034 -0.0220
 2781DPPC   PO455058  26.911  24.209  24.012 -0.0397  0.0278  0.3660
 2781DPPC   GL155059  26.763  24.015  24.415  0.0481  0.1356  0.0062
 2781DPPC   GL255060  26.589  24.198  24.682  0.1376  0.1955 -0.0628
 2781DPPC   C1A55061  26.682  23.704  24.495 -0.1353 -0.0654 -0.1021
 2781DPPC   C2A55062  26.432  23.350  24.522  0.0371  0.1222 -0.1232
 2781DPPC   C3A55063  26.049  23.168  24.578  0.1578 -0.2147 -0.5278
 2781DPPC   C4A55064  25.789  23.231  24.224 -0.1465 -0.2487  0.0187
 2781DPPC   C1B55065  26.199  23.878  24.671 -0.5043  0.1101 -0.2755
 2781DPPC   C2B55066  25.957  23.659  24.617 -0.0871  0.1910  0.4058
 2781DPPC   C3B55067  25.404  23.460  24.565 -0.1162  0.2047  0.3366
 2781DPPC   C4B55068  25.016  23.336  24.655  0.1544 -0.0706  0.1946
 2782DPPC   NC355069  20.800  19.103   3.508 -0.2923 -0.2338 -0.1825
 2782DPPC   PO455070  20.473  19.275   3.138  0.2361  0.0353  0.1041
 2782DPPC   GL155071  20.806  19.598   3.192  0.0565 -0.1498  0.4060
 2782DPPC   GL255072  21.143  19.434   3.323  0.1886 -0.3189  0.1753
 2782DPPC   C1A55073  20.969  19.933   3.353  0.1109 -0.1152 -0.1994
 2782DPPC   C2A55074  21.225  20.272   3.165 -0.0693  0.1069  0.2390
 2782DPPC   C3A55075  21.373  20.659   2.973  0.1877 -0.2481  0.0612
 2782DPPC   C4A55076  21.454  20.925   2.650 -0.0247  0.3000 -0.0153
 2782DPPC   C1B55077  21.399  19.762   3.132 -0.1430 -0.1301 -0.0961
 2782DPPC   C2B55078  21.490  20.026   2.809 -0.0512  0.0873 -0.0739
 2782DPPC   C3B55079  21.789  20.420   2.640  0.1291 -0.1944 -0.1659
 2782DPPC   C4B55080  21.981  20.804   2.711  0.1455  0.2505 -0.0780
 2783DPPC   NC355081  35.800  28.910   4.131 -0.2485 -0.1902  0.1320
 2783DPPC   PO455082  35.854  28.485   4.028 -0.2301 -0.2377 -0.2931
 2783DPPC   GL155083  35.490  28.591   3.784  0.0094 -0.0988  0.1975
 2783DPPC   GL255084  35.428  28.364   3.547  0.2156 -0.1610  0.4248
 2783DPPC   C1A55085  35.038  28.624   3.738  0.1415 -0.0473 -0.3367
 2783DPPC   C2A55086  34.679  28.678   3.425  0.0107  0.1831 -0.2111
 2783DPPC   C3A55087  34.324  28.819   3.098  0.1292 -0.0449  0.3035
 2783DPPC   C4A55088  34.040  28.563   3.076  0.0805 -0.0573 -0.0199
 2783DPPC   C1B55089  35.155  28.470   3.258  0.0053 -0.1384  0.0667
 2783DPPC   C2B55090  34.668  28.430   2.918 -0.0923  0.2492  0.0972
 2783DPPC   C3B55091  34.317  28.338   2.705 -0.1294  0.0881 -0.3758
 2783DPPC   C4B55092  33.919  28.433   2.606 -0.2844 -0.0109 -0.1963
 2784DPPC   NC355093  27.512  23.279  22.884 -0.0977 -0.2457  0.2429
 2784DPPC   PO455094  27.181  23.340  23.026  0.3547 -0.0119  0.0177
 2784DPPC   GL155095  26.942  22.931  23.288  0.4041  0.2396 -0.2677
 2784DPPC   GL255096  26.649  22.735  23.217  0.1266 -0.0798  0.1785
 2784DPPC   C1A55097  26.533  22.937  23.624  0.0508  0.2160 -0.0061
 2784DPPC   C2A55098  26.112  22.661  23.803  0.2962  0.1471  0.1071
 2784DPPC   C3A55099  26.169  22.176  23.977  0.2075  0.5206  0.0238
 2784DPPC   C4A55100  26.254  21.801  24.036  0.1626 -0.1406  0.0576
 2784DPPC   C1B55101  26.798  22.538  23.584  0.2093 -0.1481 -0.1265
 2784DPPC   C2B55102  26.563  22.540  23.979 -0.2609 -0.2184  0.0334
 2784DPPC   C3B55103  26.623  22.125  24.215  0.0513  0.1533  0.0009
 2784DPPC   C4B55104  26.941  21.693  24.247 -0.2668 -0.1530 -0.1470
 2785DPPC   NC355105  22.215  30.681  25.292  0.1558 -0.1143 -0.5213
 2785DPPC   PO455106  22.224  30.172  25.100 -0.0689 -0.1190  0.2848
 2785DPPC   GL155107  21.914  29.860  25.203  0.1968 -0.0794 -0.1169
 2785DPPC   GL255108  21.641  29.769  24.993  0.2867  0.1802  0.1766
 2785DPPC   C1A55109  21.591  29.660  25.441 -0.2551 -0.1800 -0.0790
 2785DPPC   C2A55110  21.165  29.522  25.605  0.0213  0.1797  0.1707
 2785DPPC   C3A55111  20.725  29.465  25.434 -0.1645  0.2887 -0.2178
 2785DPPC   C4A55112  20.241  29.556  25.348 -0.1760 -0.0727 -0.1211
 2785DPPC   C1B55113  21.164  29.657  25.105 -0.1420 -0.0261  0.1018
 2785DPPC   C2B55114  20.853  29.393  24.921 -0.0619 -0.0273 -0.1632
 2785DPPC   C3B55115  20.332  29.349  24.790 -0.1391  0.2561  0.2910
 2785DPPC   C4B55116  20.087  29.576  24.438  0.0826  0.0996  0.4329
 2786DPPC   NC355117  14.899  31.015  21.208  0.1727 -0.4065  0.1397
 2786DPPC   PO455118  15.024  30.955  20.767  0.1685  0.0751  0.0096
 2786DPPC   GL155119  15.386  30.884  21.090 -0.0189  0.0867  0.1740
 2786DPPC   GL255120  15.376  30.572  20.843 -0.3137  0.1152 -0.0976
 2786DPPC   C1A55121  15.789  30.990  21.217 -0.2413  0.1954  0.5662
 2786DPPC   C2A55122  15.933  31.009  21.648  0.1080 -0.0733 -0.0352
 2786DPPC   C3A55123  16.118  30.967  22.043 -0.0026 -0.1369  0.0525
 2786DPPC   C4A55124  16.471  30.858  22.371  0.0641 -0.0355  0.2553
 2786DPPC   C1B55125  15.740  30.310  21.095 -0.2344 -0.1594  0.2981
 2786DPPC   C2B55126  16.002  30.083  21.090 -0.1890  0.1969  0.3423
 2786DPPC   C3B55127  16.219  29.638  21.096 -0.1279 -0.1686  0.2866
 2786DPPC   C4B55128  16.118  29.435  21.502 -0.2252  0.2371  0.2647
 2787DPPC   NC355129  26.946  21.210  21.149 -0.1319  0.0443 -0.0736
 2787DPPC   PO455130  26.525  21.092  20.910 -0.2108 -0.1888  0.0745
 2787DPPC   GL155131  26.436  20.719  20.629 -0.0500 -0.3018 -0.2376
 2787DPPC   GL255132  26.668  20.486  20.494 -0.1630 -0.0114  0.4761
 2787DPPC   C1A55133  26.171  20.342  20.719  0.1307 -0.0522 -0.1752
 2787DPPC   C2A55134  26.165  19.909  20.565  0.1949 -0.1105 -0.0522
 2787DPPC   C3A55135  26.213  19.487  20.573  0.1843  0.2595 -0.2357
 2787DPPC   C4A55136  25.943  19.153  20.557  0.1077  0.2747  0.3307
 2787DPPC   C1B55137  26.615  20.139  20.502 -0.1328  0.1734 -0.2611
 2787DPPC   C2B55138  26.618  19.700  20.726 -0.3086 -0.0380  0.2024
 2787DPPC   C3B55139  26.904  19.396  20.818  0.1452 -0.0290 -0.1825
 2787DPPC   C4B55140  27.222  19.202  21.014 -0.0733 -0.0051 -0.0569
 2788DPPC   NC355141  24.200  14.843  22.839 -0.3754 -0.1775  0.1212
 2788DPPC   PO455142  24.062  15.293  22.983 -0.1460 -0.2647  0.2198
 2788DPPC   GL155143  24.253  15.728  22.980  0.0669  0.3870 -0.0683
 2788DPPC   GL255144  24.490  15.709  22.728  0.1796  0.0353 -0.0168
 2788DPPC   C1A55145  24.315  16.229  23.112  0.3029 -0.2365 -0.2745
 2788DPPC   C2A55146  24.209  16.651  22.823 -0.0548  0.0121 -0.1933
 2788DPPC   C3A55147  24.320  16.949  22.601  0.2251  0.4779  0.1412
 2788DPPC   C4A55148  24.675  17.183  22.599  0.1390  0.1219  0.0572
 2788DPPC   C1B55149  24.479  16.161  22.594 -0.1274  0.1254  0.0644
 2788DPPC   C2B55150  24.624  16.486  22.562 -0.1466  0.1253 -0.1081
 2788DPPC   C3B55151  24.878  16.714  22.828 -0.3342  0.1387  0.0591
 2788DPPC   C4B55152  25.188  16.689  23.118 -0.0607 -0.3248  0.0550
 2789DPPC   NC355153  33.616  24.302   4.164  0.2027 -0.0818  0.0658
 2789DPPC   PO455154  33.200  24.577   4.215 -0.1686  0.1234  0.1481
 2789DPPC   GL155155  32.886  24.753   4.136 -0.3351 -0.0582  0.1771
 2789DPPC   GL255156  32.538  24.745   4.347  0.0897  0.2012  0.0778
 2789DPPC   C1A55157  32.671  24.880   3.770  0.2845  0.0578  0.2152
 2789DPPC   C2A55158  32.567  24.565   3.395  0.2980  0.0152  0.0478
 2789DPPC   C3A55159  32.225  24.469   3.129  0.2197  0.0020 -0.3337
 2789DPPC   C4A55160  31.838  24.262   3.138 -0.1531  0.0647 -0.0780
 2789DPPC   C1B55161  32.330  25.078   4.480  0.0683 -0.1726 -0.0409
 2789DPPC   C2B55162  32.026  25.396   4.266  0.1718  0.2126  0.0784
 2789DPPC   C3B55163  31.887  25.873   4.214  0.2623 -0.1586  0.1819
 2789DPPC   C4B55164  31.748  25.844   3.846 -0.0672 -0.2888 -0.1805
 2790DPPC   NC355165  26.201  23.304  21.788  0.2266 -0.2134 -0.0940
 2790DPPC   PO455166  25.822  23.359  21.623  0.0267  0.1388  0.3326
 2790DPPC   GL155167  25.575  23.222  21.921  0.2167 -0.1745 -0.1753
 2790DPPC   GL255168  25.365  23.358  22.156 -0.5247 -0.2592 -0.2250
 2790DPPC   C1A55169  25.562  22.902  22.331 -0.0465  0.0004  0.2735
 2790DPPC   C2A55170  25.503  22.615  22.546 -0.1608  0.0459 -0.2492
 2790DPPC   C3A55171  25.649  22.483  22.978 -0.1914 -0.1458  0.1100
 2790DPPC   C4A55172  25.691  22.252  23.303 -0.0808  0.2344  0.0025
 2790DPPC   C1B55173  25.083  23.006  22.066  0.1676  0.0338 -0.0606
 2790DPPC   C2B55174  24.795  22.857  21.752 -0.0261 -0.5253 -0.1191
 2790DPPC   C3B55175  24.376  22.592  21.666 -0.0497 -0.1364  0.0924
 2790DPPC   C4B55176  24.276  22.389  22.011  0.1284  0.3161 -0.3207
 2791DPPC   NC355177  29.184  22.583  16.813  0.3326 -0.5534  0.2766
 2791DPPC   PO455178  29.558  22.458  17.059 -0.0800 -0.2808  0.0707
 2791DPPC   GL155179  29.614  22.057  16.990  0.0700  0.0273  0.2432
 2791DPPC   GL255180  29.861  22.073  17.235 -0.2072 -0.0438 -0.0845
 2791DPPC   C1A55181  29.682  21.691  16.667  0.1190  0.1510  0.1189
 2791DPPC   C2A55182  29.755  21.336  16.429 -0.0781  0.2082  0.0683
 2791DPPC   C3A55183  29.428  21.093  16.185  0.0419 -0.4386  0.0733
 2791DPPC   C4A55184  29.147  21.017  15.957 -0.0108  0.4965 -0.0172
 2791DPPC   C1B55185  30.026  21.784  16.989  0.1413  0.2590 -0.0935
 2791DPPC   C2B55186  30.168  21.690  16.620  0.0832 -0.3527 -0.0815
 2791DPPC   C3B55187  30.081  21.696  16.236 -0.1794 -0.0934 -0.3190
 2791DPPC   C4B55188  29.814  21.867  15.980 -0.1179  0.1137  0.1341
 2792DPPC   NC355189  35.873  27.343   3.341  0.1223  0.0824  0.0453
 2792DPPC   PO455190  35.874  26.983   3.484  0.2565  0.3171 -0.1101
 2792DPPC   GL155191  35.474  26.921   3.108  0.1572 -0.0102  0.1838
 2792DPPC   GL255192  35.608  26.980   2.767 -0.0977 -0.1135  0.0132
 2792DPPC   C1A55193  35.240  27.227   3.054 -0.0573 -0.2723 -0.2373
 2792DPPC   C2A55194  34.975  27.551   3.136 -0.2244 -0.1121  0.2513
 2792DPPC   C3A55195  34.681  27.725   2.919 -0.0872 -0.0756  0.1211
 2792DPPC   C4A55196  34.470  27.939   2.558  0.0258  0.0033  0.0754
 2792DPPC   C1B55197  35.252  27.170   2.478 -0.1490  0.1164 -0.1009
 2792DPPC   C2B55198  35.090  27.366   2.150  0.0035 -0.1296 -0.0606
 2792DPPC   C3B55199  34.732  27.336   1.927 -0.1224  0.0125 -0.2481
 2792DPPC   C4B55200  34.350  27.134   1.810 -0.2011 -0.2683  0.3864
 2793DPPC   NC355201  24.661  24.026  19.424  0.1350 -0.0516 -0.0570
 2793DPPC   PO455202  24.300  23.806  19.279  0.0771  0.1847 -0.1309
 2793DPPC   GL155203  23.867  23.750  19.517  0.0055 -0.0504 -0.3072
 2793DPPC   GL255204  23.850  23.526  19.747  0.1968 -0.0652 -0.2329
 2793DPPC   C1A55205  23.646  23.946  19.931  0.0440 -0.2031 -0.0454
 2793DPPC   C2A55206  23.250  23.972  20.239  0.3650  0.0480 -0.1922
 2793DPPC   C3A55207  22.872  23.667  20.295  0.0024 -0.0184  0.0953
 2793DPPC   C4A55208  22.470  23.350  20.494  0.0582 -0.2118 -0.0886
 2793DPPC   C1B55209  23.494  23.492  19.518  0.0878  0.1574  0.1404
 2793DPPC   C2B55210  23.001  23.619  19.286 -0.2410  0.0634 -0.1966
 2793DPPC   C3B55211  22.648  23.573  19.443 -0.1289 -0.0496 -0.1482
 2793DPPC   C4B55212  22.256  23.265  19.444 -0.3806  0.2014 -0.0402
 2794DPPC   NC355213  30.009  41.926  21.677  0.2039  0.0657 -0.1142
 2794DPPC   PO455214  30.347  41.783  21.832 -0.2434  0.1449 -0.1260
 2794DPPC   GL155215  30.067  41.461  21.937 -0.0780  0.2067 -0.0152
 2794DPPC   GL255216  30.190  41.365  22.323 -0.1766 -0.0148 -0.0743
 2794DPPC   C1A55217  29.943  41.150  21.737 -0.4196 -0.0943  0.1859
 2794DPPC   C2A55218  29.984  40.724  21.594  0.3784  0.1294  0.1519
 2794DPPC   C3A55219  29.739  40.401  21.653  0.0416  0.4178  0.2324
 2794DPPC   C4A55220  29.693  39.979  21.740 -0.1532  0.4504  0.0819
 2794DPPC   C1B55221  30.020  40.991  22.304 -0.0301  0.2204 -0.1269
 2794DPPC   C2B55222  29.941  40.586  22.135  0.2076 -0.0696 -0.1210
 2794DPPC   C3B55223  30.038  40.154  21.987 -0.5922 -0.2796  0.2429
 2794DPPC   C4B55224  30.235  40.168  21.631  0.3147  0.0590 -0.4398
 2795DPPC   NC355225  23.027  26.899  21.875 -0.3609 -0.0570  0.1736
 2795DPPC   PO455226  23.165  26.607  21.613 -0.1054  0.3692 -0.1427
 2795DPPC   GL155227  22.777  26.473  21.532  0.0014  0.2300 -0.2391
 2795DPPC   GL255228  22.870  26.146  21.349 -0.2582  0.1226  0.2922
 2795DPPC   C1A55229  22.426  26.419  21.755 -0.0375  0.1391  0.0646
 2795DPPC   C2A55230  22.206  26.314  22.167 -0.1239  0.1629 -0.2589
 2795DPPC   C3A55231  22.080  25.806  22.298  0.3946 -0.1962  0.0374
 2795DPPC   C4A55232  21.688  25.701  22.438  0.0132 -0.0014 -0.3237
 2795DPPC   C1B55233  22.917  26.012  21.726 -0.3263  0.2564 -0.2714
 2795DPPC   C2B55234  23.119  25.906  22.163  0.1674  0.0222  0.1214
 2795DPPC   C3B55235  23.036  25.692  22.609  0.2568  0.1412  0.2779
 2795DPPC   C4B55236  23.180  25.464  22.939 -0.0381 -0.3552 -0.1761
 2796DPPC   NC355237  25.906  29.076   1.481  0.2178  0.0207  0.0249
 2796DPPC   PO455238  25.736  28.904   1.146 -0.2540 -0.0429 -0.1718
 2796DPPC   GL155239  25.547  28.624   1.315 -0.0479 -0.0594  0.1552
 2796DPPC   GL255240  25.468  28.732   1.559  0.0852  0.3485 -0.3776
 2796DPPC   C1A55241  25.705  28.143   1.476  0.0940 -0.1034 -0.0372
 2796DPPC   C2A55242  25.835  27.769   1.475  0.2564 -0.2264  0.2105
 2796DPPC   C3A55243  25.936  27.456   1.732  0.1794  0.0770 -0.3086
 2796DPPC   C4A55244  26.058  27.159   2.104 -0.2470 -0.1806 -0.0684
 2796DPPC   C1B55245  25.599  28.580   1.896 -0.1856  0.1171 -0.0026
 2796DPPC   C2B55246  25.757  28.198   2.084 -0.0098 -0.2961 -0.0226
 2796DPPC   C3B55247  26.046  28.114   2.419  0.2359 -0.0623  0.0190
 2796DPPC   C4B55248  26.271  28.230   2.702 -0.2048 -0.2504  0.2516
 2797DPPC   NC355249  23.219  39.908  16.662 -0.2376 -0.0219  0.0858
 2797DPPC   PO455250  22.832  40.030  16.898  0.0882 -0.3378  0.0993
 2797DPPC   GL155251  22.984  39.703  17.113 -0.0279 -0.4512 -0.2370
 2797DPPC   GL255252  22.886  39.472  16.972  0.0133 -0.0573  0.2929
 2797DPPC   C1A55253  23.253  39.350  17.359  0.2162 -0.0739 -0.1056
 2797DPPC   C2A55254  23.406  38.972  17.424  0.1329 -0.0377  0.1259
 2797DPPC   C3A55255  23.582  38.564  17.503 -0.2716  0.0044  0.3229
 2797DPPC   C4A55256  23.829  38.256  17.330 -0.4667  0.3913 -0.2846
 2797DPPC   C1B55257  23.197  39.231  16.858  0.2648 -0.3973  0.0441
 2797DPPC   C2B55258  23.523  39.169  16.951 -0.0848  0.1087  0.0607
 2797DPPC   C3B55259  23.824  38.822  17.100  0.1922  0.0309 -0.0453
 2797DPPC   C4B55260  24.334  38.768  17.102 -0.2447 -0.0828 -0.0910
 2798DPPC   NC355261  17.107  36.057  21.198  0.2922  0.1279  0.0576
 2798DPPC   PO455262  16.893  35.916  21.651  0.1250  0.1706  0.1106
 2798DPPC   GL155263  17.388  35.754  21.615 -0.2827 -0.0850 -0.1833
 2798DPPC   GL255264  17.594  35.993  21.479 -0.3998 -0.1993  0.0184
 2798DPPC   C1A55265  17.864  35.819  21.830  0.1647  0.2450  0.1098
 2798DPPC   C2A55266  18.083  36.120  21.999 -0.4057  0.0814  0.4160
 2798DPPC   C3A55267  18.294  36.359  22.283  0.1363  0.4812  0.3316
 2798DPPC   C4A55268  18.633  36.516  22.370  0.0355 -0.2827 -0.0878
 2798DPPC   C1B55269  17.986  36.046  21.430 -0.0154 -0.0334 -0.2075
 2798DPPC   C2B55270  18.334  35.809  21.609  0.0370  0.2125  0.2272
 2798DPPC   C3B55271  18.670  35.594  21.884  0.1289 -0.0833  0.1089
 2798DPPC   C4B55272  18.986  35.819  22.016  0.1000  0.1865  0.1547
 2799DPPC   NC355273  15.074  32.188  26.864 -0.4113  0.1046 -0.1365
 2799DPPC   PO455274  15.038  31.844  26.484 -0.2626 -0.1235 -0.4034
 2799DPPC   GL155275  15.403  31.557  26.524 -0.2323  0.1713  0.0381
 2799DPPC   GL255276  15.460  31.274  26.314  0.0774  0.1162 -0.2056
 2799DPPC   C1A55277  15.855  31.503  26.685  0.0514 -0.3176 -0.1145
 2799DPPC   C2A55278  16.320  31.405  26.652 -0.1341 -0.0492  0.2769
 2799DPPC   C3A55279  16.481  31.255   0.123  0.0853 -0.2135 -0.1677
 2799DPPC   C4A55280  16.541  31.058   0.459  0.0001  0.3040  0.1579
 2799DPPC   C1B55281  15.385  30.875  26.082  0.2429  0.1954 -0.1333
 2799DPPC   C2B55282  15.224  30.539  26.354 -0.2066  0.0921  0.1425
 2799DPPC   C3B55283  15.008  30.305  26.576  0.0551 -0.3928 -0.2084
 2799DPPC   C4B55284  14.868  30.210   0.036  0.0979 -0.0325  0.0393
 2800DPPC   NC355285  25.373  19.744   6.341 -0.1225  0.1116  0.0850
 2800DPPC   PO455286  25.681  19.955   6.519 -0.3531 -0.5189 -0.1257
 2800DPPC   GL155287  25.695  20.059   6.170  0.1463 -0.2288 -0.1413
 2800DPPC   GL255288  25.399  20.362   6.138 -0.0559  0.1234 -0.3951
 2800DPPC   C1A55289  25.820  20.054   5.622  0.0721 -0.1951 -0.0266
 2800DPPC   C2A55290  25.582  19.980   5.254  0.1294  0.0192 -0.3189
 2800DPPC   C3A55291  25.228  20.142   4.974  0.1249  0.0845  0.0663
 2800DPPC   C4A55292  24.741  20.246   5.020 -0.4319  0.0212 -0.2587
 2800DPPC   C1B55293  25.644  20.746   5.969  0.0428  0.0178 -0.0741
 2800DPPC   C2B55294  25.795  21.049   5.768 -0.0441  0.1772  0.3764
 2800DPPC   C3B55295  26.000  21.364   5.543  0.0754  0.4545 -0.0346
 2800DPPC   C4B55296  25.745  21.472   5.238 -0.3135 -0.4125 -0.1515
 2801DPPC   NC355297  38.062  24.144  25.600  0.1766 -0.0007  0.2104
 2801DPPC   PO455298  37.726  23.999  25.903 -0.0745 -0.1624  0.0011
 2801DPPC   GL155299  37.341  23.989  25.672  0.0953 -0.0767 -0.0060
 2801DPPC   GL255300  37.383  23.863  25.415  0.3473 -0.0537 -0.4025
 2801DPPC   C1A55301  37.117  24.371  25.536  0.1162 -0.0073  0.1109
 2801DPPC   C2A55302  36.758  24.469  25.454 -0.0765  0.2213  0.0116
 2801DPPC   C3A55303  36.370  24.312  25.400 -0.1649  0.0256  0.3577
 2801DPPC   C4A55304  35.950  24.398  25.387  0.0667 -0.0807 -0.1985
 2801DPPC   C1B55305  36.930  23.868  25.374  0.0860 -0.2396 -0.2630
 2801DPPC   C2B55306  36.482  23.886  25.117 -0.0452 -0.1950 -0.2440
 2801DPPC   C3B55307  36.223  24.168  24.882 -0.0940  0.1482  0.0218
 2801DPPC   C4B55308  36.215  24.540  24.932 -0.0460 -0.0765 -0.0123
 2802DPPC   NC355309  32.016  18.211  20.921 -0.1455 -0.1003  0.0241
 2802DPPC   PO455310  31.639  18.087  21.029 -0.1331 -0.0067 -0.2553
 2802DPPC   GL155311  31.645  18.522  20.888  0.0829 -0.0129 -0.0381
 2802DPPC   GL255312  31.270  18.592  20.779 -0.1756 -0.0646  0.0121
 2802DPPC   C1A55313  31.613  18.967  21.081 -0.0481 -0.0499  0.1426
 2802DPPC   C2A55314  31.774  19.233  21.429  0.5215 -0.2865 -0.1892
 2802DPPC   C3A55315  31.860  19.557  21.638 -0.2912  0.1880 -0.2163
 2802DPPC   C4A55316  32.159  19.624  22.044  0.0057 -0.2242  0.1074
 2802DPPC   C1B55317  30.807  18.738  20.812 -0.3980  0.0406  0.1786
 2802DPPC   C2B55318  30.516  19.079  20.701 -0.0666  0.1590 -0.0164
 2802DPPC   C3B55319  30.230  19.376  20.517 -0.0634 -0.5839  0.0572
 2802DPPC   C4B55320  29.874  19.712  20.350  0.2745 -0.1290  0.1046
 2803DPPC   NC355321  18.778  21.959   4.100 -0.0867  0.0239 -0.3778
 2803DPPC   PO455322  18.357  21.929   4.042 -0.0517 -0.0145  0.3066
 2803DPPC   GL155323  18.463  22.247   3.614  0.0295 -0.0202 -0.1145
 2803DPPC   GL255324  18.702  22.023   3.566  0.2298 -0.0173  0.0729
 2803DPPC   C1A55325  18.256  22.406   3.261 -0.1193 -0.0460  0.2585
 2803DPPC   C2A55326  18.112  22.550   2.858 -0.2174 -0.1576  0.0511
 2803DPPC   C3A55327  18.052  22.963   2.789  0.0226 -0.4285 -0.1442
 2803DPPC   C4A55328  17.751  22.992   2.443 -0.4140 -0.0856 -0.1062
 2803DPPC   C1B55329  19.020  22.372   3.474  0.3060 -0.2075  0.1424
 2803DPPC   C2B55330  19.337  22.709   3.250 -0.0313  0.1325 -0.1312
 2803DPPC   C3B55331  19.402  23.118   3.169  0.6075 -0.0203 -0.3444
 2803DPPC   C4B55332  19.630  23.270   2.870  0.1033  0.1491  0.1602
 2804DPPC   NC355333  27.754  23.414   8.185  0.1053 -0.0737 -0.1617
 2804DPPC   PO455334  27.823  23.546   7.756 -0.1913  0.0747  0.1591
 2804DPPC   GL155335  27.286  23.663   7.600  0.0424 -0.2777 -0.1909
 2804DPPC   GL255336  27.136  23.655   7.306 -0.2534 -0.0337  0.0003
 2804DPPC   C1A55337  26.900  23.797   7.674  0.3009 -0.6234 -0.3436
 2804DPPC   C2A55338  26.417  23.650   7.759 -0.1303  0.0231  0.3587
 2804DPPC   C3A55339  26.074  23.579   7.412 -0.3079  0.1484  0.1436
 2804DPPC   C4A55340  25.857  23.403   6.999  0.1316 -0.1992 -0.0495
 2804DPPC   C1B55341  26.903  23.544   7.006  0.0708 -0.0672 -0.3567
 2804DPPC   C2B55342  26.808  23.750   6.588  0.0099 -0.0336  0.1244
 2804DPPC   C3B55343  26.722  23.979   6.306 -0.2342  0.1756  0.0898
 2804DPPC   C4B55344  26.426  24.199   6.070 -0.1232  0.1398  0.0479
 2805DPPC   NC355345  28.462  21.641  23.531  0.0915 -0.0408 -0.0839
 2805DPPC   PO455346  28.404  21.873  23.876 -0.0703  0.1196  0.2291
 2805DPPC   GL155347  28.380  21.340  24.144  0.1330 -0.1222  0.0421
 2805DPPC   GL255348  28.539  21.042  24.086 -0.1522  0.2051 -0.0369
 2805DPPC   C1A55349  28.044  20.999  24.098 -0.1075  0.1915 -0.0935
 2805DPPC   C2A55350  27.999  20.526  24.208  0.0739  0.1711 -0.2741
 2805DPPC   C3A55351  28.361  20.331  24.487  0.4022  0.0480  0.4533
 2805DPPC   C4A55352  28.777  20.267  24.341 -0.1528  0.1205 -0.1089
 2805DPPC   C1B55353  28.529  20.819  24.418 -0.2668 -0.0465  0.0157
 2805DPPC   C2B55354  28.461  20.788  24.831 -0.0202 -0.0162  0.1184
 2805DPPC   C3B55355  28.576  20.629  25.237  0.0594 -0.4397 -0.0405
 2805DPPC   C4B55356  28.603  20.283  25.558 -0.1661  0.0285  0.1867
 2806DPPC   NC355357  29.117  24.473   0.112 -0.0717 -0.0297  0.0963
 2806DPPC   PO455358  29.085  24.793   0.482 -0.1382 -0.0034 -0.2084
 2806DPPC   GL155359  28.748  24.549   0.592 -0.2164 -0.0470  0.0548
 2806DPPC   GL255360  28.999  24.290   0.572 -0.2484  0.2423 -0.0048
 2806DPPC   C1A55361  28.486  24.416   0.941  0.0575  0.1055 -0.2034
 2806DPPC   C2A55362  28.091  24.509   1.067  0.3326  0.0992 -0.0431
 2806DPPC   C3A55363  27.733  24.203   0.894  0.0275  0.3630  0.1432
 2806DPPC   C4A55364  27.771  23.773   0.736 -0.1949 -0.3356  0.1936
 2806DPPC   C1B55365  28.720  23.976   0.752  0.0294  0.1149  0.0793
 2806DPPC   C2B55366  28.654  23.505   0.994  0.0682  0.0843  0.0218
 2806DPPC   C3B55367  28.406  23.165   1.208 -0.0866 -0.2081 -0.0988
 2806DPPC   C4B55368  28.130  22.875   1.408 -0.1847  0.3341 -0.3005
 2807DPPC   NC355369  22.030  39.754  16.395  0.2104  0.0620  0.1447
 2807DPPC   PO455370  22.331  39.352  16.443  0.3191  0.2318 -0.2644
 2807DPPC   GL155371  22.662  39.110  16.719 -0.0582  0.1689  0.4279
 2807DPPC   GL255372  22.593  38.971  16.366  0.1665  0.5842  0.0993
 2807DPPC   C1A55373  22.650  38.731  16.769 -0.4639  0.4219  0.1124
 2807DPPC   C2A55374  22.359  38.437  16.733  0.1074  0.1829  0.1158
 2807DPPC   C3A55375  22.067  38.062  16.605 -0.3703  0.1115 -0.2527
 2807DPPC   C4A55376  22.030  37.692  16.697  0.1680  0.3127  0.2603
 2807DPPC   C1B55377  22.795  38.486  16.320 -0.0534  0.1268  0.0355
 2807DPPC   C2B55378  23.082  38.151  16.210  0.0809  0.0977  0.0209
 2807DPPC   C3B55379  23.090  37.727  16.251  0.0959  0.0151  0.1471
 2807DPPC   C4B55380  23.000  37.323  16.507  0.0484  0.1594 -0.2677
 2808DPPC   NC355381  23.852  27.298  22.570 -0.1450  0.0876  0.2717
 2808DPPC   PO455382  23.569  26.876  22.726  0.0175  0.1891 -0.2814
 2808DPPC   GL155383  23.274  26.596  22.841  0.0065  0.2666 -0.1219
 2808DPPC   GL255384  22.977  26.618  23.003  0.1433  0.0175  0.1357
 2808DPPC   C1A55385  22.971  26.222  22.716 -0.1790  0.1734 -0.2230
 2808DPPC   C2A55386  22.565  26.000  22.654  0.1322 -0.2286 -0.3254
 2808DPPC   C3A55387  22.210  25.768  22.808  0.1764 -0.1415  0.0436
 2808DPPC   C4A55388  21.807  25.681  22.947  0.0139  0.0067  0.1668
 2808DPPC   C1B55389  22.607  26.298  23.125  0.0675 -0.0309  0.0428
 2808DPPC   C2B55390  22.503  26.027  23.241 -0.1541 -0.1382  0.1563
 2808DPPC   C3B55391  22.266  25.763  23.391 -0.1225 -0.4932  0.0051
 2808DPPC   C4B55392  22.329  25.375  23.676 -0.0625 -0.1334  0.1487
 2809DPPC   NC355393  21.812  29.504  21.303 -0.1154 -0.0426 -0.0825
 2809DPPC   PO455394  21.368  29.322  21.297  0.2566 -0.1429 -0.0782
 2809DPPC   GL155395  21.340  28.792  21.156 -0.2082  0.1218  0.1018
 2809DPPC   GL255396  21.384  28.613  21.469  0.3076 -0.3285  0.2597
 2809DPPC   C1A55397  20.978  28.602  21.202 -0.1970 -0.0292 -0.5704
 2809DPPC   C2A55398  20.778  28.407  21.019 -0.0012 -0.3316  0.0790
 2809DPPC   C3A55399  20.524  28.125  20.841  0.1047  0.3104  0.2607
 2809DPPC   C4A55400  20.178  28.143  20.743  0.1704 -0.0809  0.0356
 2809DPPC   C1B55401  21.261  28.157  21.629 -0.4665 -0.1363  0.3658
 2809DPPC   C2B55402  21.058  28.054  22.031 -0.2374 -0.0180 -0.1320
 2809DPPC   C3B55403  20.861  28.044  22.480  0.0612  0.1313 -0.1525
 2809DPPC   C4B55404  20.453  28.038  22.673  0.0078 -0.0449 -0.1388
 2810DPPC   NC355405  31.560  30.487   6.827  0.0460 -0.1849 -0.0932
 2810DPPC   PO455406  31.223  30.361   6.575  0.0345 -0.2401 -0.1714
 2810DPPC   GL155407  31.104  30.626   6.186 -0.2175 -0.1908  0.3739
 2810DPPC   GL255408  30.804  30.842   6.084 -0.0267 -0.2864  0.1678
 2810DPPC   C1A55409  31.117  30.524   5.776 -0.0766 -0.1007  0.2580
 2810DPPC   C2A55410  31.365  30.406   5.488 -0.0251 -0.0566 -0.2060
 2810DPPC   C3A55411  31.399  30.407   5.070  0.4873 -0.0981 -0.0236
 2810DPPC   C4A55412  31.441  30.504   4.675  0.0961  0.2631  0.2011
 2810DPPC   C1B55413  30.534  31.015   5.786  0.1250  0.0107  0.0123
 2810DPPC   C2B55414  30.482  30.620   5.561  0.1651  0.2277  0.0459
 2810DPPC   C3B55415  30.317  30.430   5.157 -0.2269  0.3560 -0.0019
 2810DPPC   C4B55416  30.286  30.487   4.646 -0.1660 -0.1281 -0.0445
 2811DPPC   NC355417  15.858  32.236  21.904  0.2378  0.0502 -0.0283
 2811DPPC   PO455418  15.907  32.733  21.995 -0.1351 -0.2926  0.2640
 2811DPPC   GL155419  16.267  32.916  21.890  0.1122 -0.0669 -0.2504
 2811DPPC   GL255420  16.282  33.198  21.654 -0.0085  0.0948 -0.3188
 2811DPPC   C1A55421  16.635  32.794  21.863  0.0994  0.1022 -0.1901
 2811DPPC   C2A55422  17.016  32.690  21.951 -0.6278 -0.4236 -0.1134
 2811DPPC   C3A55423  17.377  32.742  21.816 -0.0487  0.2840  0.1324
 2811DPPC   C4A55424  17.778  32.535  21.625  0.1543  0.2190  0.2529
 2811DPPC   C1B55425  16.720  33.310  21.662 -0.5414  0.0807  0.1561
 2811DPPC   C2B55426  17.050  32.927  21.517 -0.1845 -0.2317  0.1737
 2811DPPC   C3B55427  17.478  32.864  21.333 -0.1880 -0.1907 -0.0350
 2811DPPC   C4B55428  17.578  32.467  21.063  0.3042 -0.0599  0.0946
 2812DPPC   NC355429  35.958  29.661  11.771 -0.0020 -0.0007 -0.1189
 2812DPPC   PO455430  35.818  29.917  12.009  0.0367 -0.1813 -0.0876
 2812DPPC   GL155431  35.535  30.024  12.276 -0.0438 -0.3478  0.0034
 2812DPPC   GL255432  35.527  30.075  12.621 -0.0707  0.0070  0.2784
 2812DPPC   C1A55433  35.298  29.659  12.485 -0.1979 -0.2084 -0.1080
 2812DPPC   C2A55434  34.896  29.729  12.704  0.1207 -0.0774 -0.1281
 2812DPPC   C3A55435  34.533  29.933  12.782  0.0459 -0.0433 -0.0925
 2812DPPC   C4A55436  34.276  29.858  13.144 -0.0012  0.1797  0.2109
 2812DPPC   C1B55437  35.236  29.993  12.957 -0.1708  0.3377 -0.0155
 2812DPPC   C2B55438  34.831  29.984  13.159 -0.2706 -0.0826  0.2453
 2812DPPC   C3B55439  34.599  30.208  13.327 -0.0133 -0.0974 -0.0510
 2812DPPC   C4B55440  34.211  30.393  13.252  0.2974  0.4835 -0.0050
 2813DPPC   NC355441  20.330  15.792  21.468  0.0618 -0.1725 -0.2268
 2813DPPC   PO455442  20.270  16.015  21.059 -0.2181  0.0269 -0.0229
 2813DPPC   GL155443  20.462  16.372  20.955  0.2435  0.0036  0.1766
 2813DPPC   GL255444  20.815  16.341  21.042  0.2019 -0.2248 -0.1977
 2813DPPC   C1A55445  20.709  16.800  20.831  0.2095 -0.1591 -0.1335
 2813DPPC   C2A55446  20.717  17.195  21.021 -0.0081  0.2291 -0.4840
 2813DPPC   C3A55447  20.601  17.637  21.138 -0.1778  0.0241  0.2024
 2813DPPC   C4A55448  20.600  18.133  21.024  0.0729 -0.0086  0.1470
 2813DPPC   C1B55449  20.978  16.782  21.257  0.2045  0.0401  0.0997
 2813DPPC   C2B55450  21.164  17.160  21.520 -0.2635 -0.0924  0.3439
 2813DPPC   C3B55451  21.213  17.631  21.488  0.1088 -0.3174 -0.1129
 2813DPPC   C4B55452  21.061  18.076  21.534 -0.1492 -0.4140 -0.0898
 2814DPPC   NC355453  26.965  26.029  26.128 -0.4271 -0.0949 -0.2235
 2814DPPC   PO455454  26.687  26.375  26.115 -0.2198 -0.2250 -0.2026
 2814DPPC   GL155455  26.293  26.149  26.398  0.2599 -0.3140  0.2494
 2814DPPC   GL255456  26.159  25.916  26.214 -0.0417 -0.1203  0.2838
 2814DPPC   C1A55457  26.008  25.882  26.724  0.3506 -0.0944 -0.1945
 2814DPPC   C2A55458  26.045  25.681   0.220  0.3374 -0.0947  0.3109
 2814DPPC   C3A55459  25.967  25.436   0.571  0.3050 -0.1814 -0.0092
 2814DPPC   C4A55460  26.022  25.157   0.917 -0.3201  0.0072  0.1405
 2814DPPC   C1B55461  26.170  25.545  26.423  0.2605  0.1701  0.0950
 2814DPPC   C2B55462  26.046  25.297  26.713  0.0649 -0.1636  0.2762
 2814DPPC   C3B55463  25.823  25.169   0.172 -0.0775 -0.0802 -0.0794
 2814DPPC   C4B55464  25.542  25.302   0.440 -0.0178 -0.4306 -0.0248
 2815DPPC   NC355465  21.175  23.218   7.872  0.0457  0.2128  0.1269
 2815DPPC   PO455466  21.246  23.303   7.480 -0.0207 -0.0298 -0.1084
 2815DPPC   GL155467  21.283  23.350   6.995  0.0195  0.3084 -0.0935
 2815DPPC   GL255468  21.316  23.554   6.953  0.1434  0.1789  0.0208
 2815DPPC   C1A55469  21.707  23.381   6.744  0.0775  0.1308  0.1217
 2815DPPC   C2A55470  22.100  23.181   6.521 -0.1448  0.1703 -0.1306
 2815DPPC   C3A55471  22.149  22.807   6.506  0.1404 -0.2360  0.2534
 2815DPPC   C4A55472  22.470  22.518   6.227 -0.2136 -0.1168 -0.0431
 2815DPPC   C1B55473  21.696  23.879   6.626  0.2302 -0.2424  0.2908
 2815DPPC   C2B55474  21.957  24.245   6.587  0.2107 -0.1003  0.0190
 2815DPPC   C3B55475  22.411  24.117   6.398 -0.0549 -0.1171 -0.0505
 2815DPPC   C4B55476  22.765  24.000   6.106  0.2855  0.1171  0.1016
 2816DPPC   NC355477  39.747  28.484  22.048 -0.1852  0.0080  0.1106
 2816DPPC   PO455478  39.954  28.123  21.879  0.4637 -0.0807  0.0334
 2816DPPC   GL155479  39.568  28.096  21.694 -0.2760 -0.2217  0.0390
 2816DPPC   GL255480  39.454  27.822  21.563 -0.2716  0.0687 -0.4995
 2816DPPC   C1A55481  39.166  28.238  21.790  0.1111  0.2909  0.0078
 2816DPPC   C2A55482  38.808  28.445  21.921  0.0775  0.1973 -0.1883
 2816DPPC   C3A55483  38.510  28.590  21.957 -0.1067 -0.3350 -0.0976
 2816DPPC   C4A55484  38.084  28.467  22.116  0.2221 -0.2595  0.0758
 2816DPPC   C1B55485  39.057  27.711  21.586 -0.0242  0.3285  0.1873
 2816DPPC   C2B55486  38.610  27.654  21.603  0.0858  0.5312 -0.0786
 2816DPPC   C3B55487  38.206  27.783  21.473 -0.0667 -0.2668 -0.2492
 2816DPPC   C4B55488  37.890  27.585  21.310  0.0696 -0.0062  0.0338
 2817DPPC   NC355489  17.363  23.291  15.676  0.0141  0.0364  0.1677
 2817DPPC   PO455490  17.598  23.313  16.110  0.2124 -0.0322  0.1341
 2817DPPC   GL155491  17.421  23.598  16.437 -0.0798 -0.0978 -0.0788
 2817DPPC   GL255492  17.287  23.909  16.447  0.0012  0.3628 -0.0421
 2817DPPC   C1A55493  17.160  23.659  16.834  0.2970  0.0969  0.1569
 2817DPPC   C2A55494  17.043  23.994  17.163  0.1750 -0.0980 -0.1709
 2817DPPC   C3A55495  16.972  24.054  17.642 -0.3537  0.1655 -0.1155
 2817DPPC   C4A55496  17.094  23.956  18.107 -0.0167 -0.1143 -0.0624
 2817DPPC   C1B55497  17.185  24.336  16.663  0.0133 -0.1751  0.1717
 2817DPPC   C2B55498  17.055  24.465  17.133 -0.0559  0.1199 -0.0530
 2817DPPC   C3B55499  16.984  24.641  17.572  0.1917  0.1365  0.2037
 2817DPPC   C4B55500  17.291  24.629  17.877 -0.0097 -0.2889 -0.0452
 2818DPPC   NC355501  39.626  28.546  25.501  0.1327  0.0739 -0.0931
 2818DPPC   PO455502  39.353  28.183  25.298 -0.1665 -0.3702 -0.1410
 2818DPPC   GL155503  39.032  28.088  25.140 -0.0916  0.1690 -0.0528
 2818DPPC   GL255504  38.949  27.868  25.427 -0.0053  0.0953 -0.0262
 2818DPPC   C1A55505  38.812  28.094  24.758  0.1751 -0.0057 -0.2940
 2818DPPC   C2A55506  38.725  28.116  24.373 -0.1646  0.0674  0.2484
 2818DPPC   C3A55507  38.340  27.918  24.142  0.1442 -0.0784  0.0720
 2818DPPC   C4A55508  38.016  28.050  23.985  0.0252  0.0138 -0.1149
 2818DPPC   C1B55509  38.468  27.811  25.522  0.0027 -0.0560  0.0171
 2818DPPC   C2B55510  38.054  27.920  25.435 -0.0803 -0.0717 -0.1038
 2818DPPC   C3B55511  37.817  28.277  25.417  0.2024 -0.2495 -0.2252
 2818DPPC   C4B55512  37.641  28.597  25.476 -0.2715 -0.0134  0.0837
 2819DPPC   NC355513  21.988  20.337  15.751  0.0110  0.1730  0.1822
 2819DPPC   PO455514  21.674  20.188  15.517 -0.3048  0.4017 -0.0774
 2819DPPC   GL155515  21.474  20.471  15.861  0.0611  0.2508 -0.0933
 2819DPPC   GL255516  21.109  20.602  15.743  0.1389 -0.2337  0.1008
 2819DPPC   C1A55517  21.438  20.849  16.071  0.3054 -0.1122 -0.1260
 2819DPPC   C2A55518  21.355  21.210  16.241  0.0809 -0.0831  0.1201
 2819DPPC   C3A55519  21.134  21.535  16.490  0.3265  0.2666  0.0593
 2819DPPC   C4A55520  20.993  21.744  16.752 -0.2489 -0.1965 -0.2831
 2819DPPC   C1B55521  21.023  21.039  15.875  0.2815 -0.1579 -0.2134
 2819DPPC   C2B55522  20.726  21.325  16.018  0.1910 -0.2764  0.0940
 2819DPPC   C3B55523  20.516  21.653  16.134  0.3501 -0.0196 -0.0502
 2819DPPC   C4B55524  20.628  22.028  16.317  0.0516  0.0104  0.2158
 2820DPPC   NC355525  18.347  28.975  13.437  0.0361  0.0040  0.1287
 2820DPPC   PO455526  18.349  28.860  13.814  0.3192 -0.0311  0.2849
 2820DPPC   GL155527  18.698  28.763  14.003  0.1410 -0.0962 -0.1137
 2820DPPC   GL255528  18.717  28.720  14.285  0.4134  0.3925 -0.1854
 2820DPPC   C1A55529  19.136  28.658  13.907  0.1280 -0.0944 -0.0234
 2820DPPC   C2A55530  19.542  28.812  13.750 -0.0837  0.1205  0.1302
 2820DPPC   C3A55531  19.878  28.957  14.039 -0.0502  0.1481  0.0913
 2820DPPC   C4A55532  20.250  28.928  14.175 -0.2034  0.1162 -0.0117
 2820DPPC   C1B55533  19.113  28.432  14.376  0.1220  0.1533 -0.2213
 2820DPPC   C2B55534  19.472  28.578  14.476  0.2764 -0.0720 -0.0332
 2820DPPC   C3B55535  19.835  28.836  14.518 -0.2826  0.2342 -0.1287
 2820DPPC   C4B55536  20.051  29.292  14.401 -0.2089  0.1667  0.1677
 2821DPPC   NC355537  23.262  27.135  20.969  0.0928  0.3889 -0.1128
 2821DPPC   PO455538  23.143  27.059  21.409  0.2359  0.0227  0.1142
 2821DPPC   GL155539  22.697  26.965  21.431 -0.0170  0.1889 -0.2606
 2821DPPC   GL255540  22.494  26.982  21.755 -0.2795  0.0915 -0.2559
 2821DPPC   C1A55541  22.367  26.697  21.261 -0.1194 -0.0843  0.1035
 2821DPPC   C2A55542  22.065  26.555  21.484 -0.0926 -0.1565 -0.1121
 2821DPPC   C3A55543  21.930  26.156  21.326 -0.2302 -0.0458  0.0055
 2821DPPC   C4A55544  22.036  25.832  21.070 -0.2486 -0.0699 -0.0529
 2821DPPC   C1B55545  22.114  26.888  21.899 -0.2107 -0.3668 -0.0800
 2821DPPC   C2B55546  21.828  26.535  21.892 -0.1972 -0.2342  0.1185
 2821DPPC   C3B55547  21.574  26.365  21.631 -0.0132  0.0190 -0.0573
 2821DPPC   C4B55548  21.323  25.901  21.707 -0.3163  0.0587  0.0845
 2822DPPC   NC355549  24.265  23.789  17.182  0.3680 -0.0917 -0.2478
 2822DPPC   PO455550  24.122  23.369  17.135 -0.1527  0.2563  0.0842
 2822DPPC   GL155551  24.136  23.371  16.765  0.0695 -0.0202 -0.1268
 2822DPPC   GL255552  23.869  23.243  16.725 -0.0834  0.0028  0.3133
 2822DPPC   C1A55553  24.245  23.115  16.351  0.4110  0.0859 -0.5629
 2822DPPC   C2A55554  23.934  22.889  16.172 -0.0075  0.1966 -0.1893
 2822DPPC   C3A55555  23.823  22.482  16.080 -0.0743 -0.2149 -0.1975
 2822DPPC   C4A55556  23.819  22.024  16.038 -0.1741 -0.0614 -0.0534
 2822DPPC   C1B55557  23.509  22.995  16.783 -0.2045 -0.0765 -0.1473
 2822DPPC   C2B55558  23.108  22.941  16.660  0.2111 -0.3052  0.3219
 2822DPPC   C3B55559  22.970  23.006  16.284 -0.1326 -0.1115  0.0076
 2822DPPC   C4B55560  22.729  22.994  15.905  0.1785 -0.2233 -0.1289
 2823DPPC   NC355561  21.076  30.142  23.979  0.1045 -0.0400  0.2145
 2823DPPC   PO455562  21.100  30.358  24.445  0.0818  0.1274  0.1096
 2823DPPC   GL155563  21.102  29.960  24.494  0.1792 -0.4852 -0.1997
 2823DPPC   GL255564  21.362  29.799  24.585  0.0839  0.0628 -0.2828
 2823DPPC   C1A55565  20.747  29.737  24.631  0.1323 -0.1047 -0.4936
 2823DPPC   C2A55566  20.359  29.835  24.876  0.0271  0.0587 -0.0602
 2823DPPC   C3A55567  20.082  30.117  25.206 -0.1663  0.2774  0.1198
 2823DPPC   C4A55568  19.745  30.386  25.246 -0.1615 -0.4572  0.0696
 2823DPPC   C1B55569  21.171  29.401  24.462  0.0367  0.1264 -0.0121
 2823DPPC   C2B55570  20.974  29.044  24.632  0.2859 -0.3431 -0.3505
 2823DPPC   C3B55571  20.533  28.984  24.526 -0.0594  0.1183  0.4263
 2823DPPC   C4B55572  20.621  28.533  24.396 -0.1532 -0.0108  0.2187
 2824DPPC   NC355573  24.651  36.798  23.507 -0.0172  0.0022  0.1094
 2824DPPC   PO455574  24.794  36.813  23.928  0.3326 -0.3597  0.2699
 2824DPPC   GL155575  24.553  37.107  23.975 -0.5789  0.2089  0.0369
 2824DPPC   GL255576  24.481  37.229  23.683  0.1812  0.3202  0.2683
 2824DPPC   C1A55577  24.235  37.280  24.278  0.0670  0.1925 -0.3940
 2824DPPC   C2A55578  23.950  37.577  24.408  0.0167 -0.3778  0.0781
 2824DPPC   C3A55579  23.748  37.984  24.631  0.4484 -0.4334 -0.2611
 2824DPPC   C4A55580  23.350  38.289  24.832  0.0427 -0.0089 -0.0391
 2824DPPC   C1B55581  24.116  37.338  23.535  0.2830 -0.0966  0.2997
 2824DPPC   C2B55582  24.026  37.844  23.606 -0.2383 -0.2683  0.0387
 2824DPPC   C3B55583  23.923  38.093  23.919 -0.1424 -0.0969  0.0228
 2824DPPC   C4B55584  23.740  38.416  23.854  0.2796  0.0916 -0.0075
 2825DPPC   NC355585  16.102  20.286  24.034  0.1522  0.3983  0.0626
 2825DPPC   PO455586  15.835  20.580  24.362  0.2945 -0.2517  0.1756
 2825DPPC   GL155587  16.139  20.848  24.233  0.0056  0.2339  0.2036
 2825DPPC   GL255588  16.145  20.901  23.985  0.1874  0.0966 -0.2955
 2825DPPC   C1A55589  16.372  21.313  24.170 -0.1885  0.4018  0.0264
 2825DPPC   C2A55590  16.812  21.360  24.195 -0.1878  0.0596 -0.3364
 2825DPPC   C3A55591  17.160  21.264  23.939  0.1190 -0.2437  0.2255
 2825DPPC   C4A55592  17.485  21.543  23.645  0.0973  0.1188 -0.4608
 2825DPPC   C1B55593  16.122  21.188  23.658 -0.2834 -0.2061 -0.1492
 2825DPPC   C2B55594  16.268  21.449  23.415  0.2112  0.1494 -0.0579
 2825DPPC   C3B55595  16.572  21.722  23.365 -0.1588 -0.3271 -0.3392
 2825DPPC   C4B55596  16.903  22.080  23.263 -0.1774  0.0652  0.0544
 2826DPPC   NC355597  23.006  18.821   4.695 -0.2751 -0.0851  0.0890
 2826DPPC   PO455598  23.033  18.804   4.290 -0.0414  0.0731 -0.0547
 2826DPPC   GL155599  23.336  18.907   4.123  0.0292 -0.0040  0.1821
 2826DPPC   GL255600  23.333  19.235   4.291  0.1060 -0.4897 -0.0878
 2826DPPC   C1A55601  23.559  19.165   3.852  0.1733 -0.2325  0.1259
 2826DPPC   C2A55602  23.787  19.574   3.574  0.0430 -0.4221 -0.1765
 2826DPPC   C3A55603  23.593  19.995   3.459 -0.0047 -0.1987  0.0349
 2826DPPC   C4A55604  23.456  20.436   3.462  0.0035  0.2488 -0.1806
 2826DPPC   C1B55605  23.720  19.204   4.518 -0.3861  0.4747 -0.1060
 2826DPPC   C2B55606  24.169  19.339   4.487  0.3280  0.1795  0.0746
 2826DPPC   C3B55607  24.415  19.510   4.700  0.0258  0.2022  0.1548
 2826DPPC   C4B55608  24.367  19.826   5.012  0.0104 -0.1516 -0.1296
 2827DPPC   NC355609  25.699  23.424  21.155  0.3426 -0.1154 -0.0503
 2827DPPC   PO455610  25.679  23.039  21.144  0.3293  0.1940 -0.1211
 2827DPPC   GL155611  25.763  22.727  21.453  0.2332  0.0249  0.3873
 2827DPPC   GL255612  25.499  22.401  21.360  0.2575  0.0407  0.1588
 2827DPPC   C1A55613  25.658  22.624  21.879  0.5307 -0.5971  0.0157
 2827DPPC   C2A55614  25.225  22.550  22.159  0.2564  0.2048 -0.0715
 2827DPPC   C3A55615  24.995  22.714  22.577  0.3047  0.1745  0.0602
 2827DPPC   C4A55616  25.160  22.565  23.013 -0.2046 -0.0868 -0.0038
 2827DPPC   C1B55617  25.194  22.117  21.286  0.0234  0.2050  0.2337
 2827DPPC   C2B55618  24.936  21.866  21.596  0.0648 -0.0666 -0.2232
 2827DPPC   C3B55619  24.795  21.605  21.884 -0.2186 -0.0032 -0.3494
 2827DPPC   C4B55620  24.784  21.273  22.279 -0.0698  0.0044  0.0305
 2828DPPC   NC355621  22.223  18.918  15.896 -0.0028  0.0761  0.0553
 2828DPPC   PO455622  22.675  18.993  16.178  0.0200 -0.0578 -0.2954
 2828DPPC   GL155623  22.650  19.408  16.456  0.0376 -0.2512 -0.2805
 2828DPPC   GL255624  22.388  19.611  16.502 -0.2666  0.0678 -0.0721
 2828DPPC   C1A55625  22.876  19.667  16.865  0.0288  0.1672 -0.0605
 2828DPPC   C2A55626  22.905  19.796  17.297 -0.1361  0.2057  0.0058
 2828DPPC   C3A55627  23.000  19.802  17.761 -0.1187 -0.0738  0.2646
 2828DPPC   C4A55628  23.067  19.995  18.050  0.0859 -0.0566 -0.1556
 2828DPPC   C1B55629  22.230  19.863  16.860 -0.1838  0.1967  0.1736
 2828DPPC   C2B55630  22.297  19.789  17.288  0.1659 -0.3248 -0.0713
 2828DPPC   C3B55631  22.253  19.977  17.734  0.1081  0.0254 -0.1904
 2828DPPC   C4B55632  22.562  20.004  18.001  0.1858  0.2961  0.0529
 2829DPPC   NC355633  25.064  27.474  25.992  0.0887 -0.2855 -0.2318
 2829DPPC   PO455634  24.813  27.158  25.923  0.0227 -0.5394  0.1787
 2829DPPC   GL155635  24.611  26.790  25.954  0.0859  0.2233 -0.2327
 2829DPPC   GL255636  24.769  26.540  25.984 -0.1363 -0.0639 -0.0611
 2829DPPC   C1A55637  24.179  26.844  25.883  0.1573  0.0296 -0.3014
 2829DPPC   C2A55638  23.856  27.140  25.691 -0.0857  0.2265  0.0168
 2829DPPC   C3A55639  23.435  26.998  25.775  0.1976  0.0988  0.2909
 2829DPPC   C4A55640  23.422  26.755  26.111  0.1452  0.0221  0.3110
 2829DPPC   C1B55641  24.626  26.159  25.889  0.2204 -0.1151  0.0210
 2829DPPC   C2B55642  24.245  25.973  25.885  0.1566 -0.1250  0.0995
 2829DPPC   C3B55643  23.787  25.960  25.936 -0.1416  0.1316 -0.0355
 2829DPPC   C4B55644  23.394  26.213  26.137  0.0723 -0.3343 -0.1963
 2830DPPC   NC355645  19.332  18.613  26.687 -0.2814 -0.1989 -0.0147
 2830DPPC   PO455646  19.025  18.672  26.537 -0.0819 -0.2099  0.1323
 2830DPPC   GL155647  19.262  18.882  26.272 -0.1013 -0.0095  0.3559
 2830DPPC   GL255648  19.300  18.763  25.972 -0.1272 -0.1392 -0.0379
 2830DPPC   C1A55649  19.652  19.011  26.257 -0.0407 -0.1676  0.0245
 2830DPPC   C2A55650  20.010  19.247  26.274  0.0089 -0.0791 -0.0107
 2830DPPC   C3A55651  20.349  19.226  26.348 -0.1296  0.2780  0.2784
 2830DPPC   C4A55652  20.720  19.269  26.086  0.0264 -0.1562  0.0889
 2830DPPC   C1B55653  19.641  19.034  25.808  0.1901 -0.1014  0.2368
 2830DPPC   C2B55654  19.952  19.321  25.753 -0.3191  0.1471 -0.1015
 2830DPPC   C3B55655  20.387  19.482  25.615  0.0585  0.0796 -0.2122
 2830DPPC   C4B55656  20.689  19.806  25.646 -0.0512 -0.1782 -0.0909
 2831DPPC   NC355657  24.080  20.751   6.390 -0.0262 -0.0184 -0.1257
 2831DPPC   PO455658  23.943  21.117   6.527 -0.1857  0.2569  0.0535
 2831DPPC   GL155659  24.015  21.270   6.114  0.1848 -0.4211 -0.0372
 2831DPPC   GL255660  23.796  21.042   6.035  0.1985 -0.0117 -0.0719
 2831DPPC   C1A55661  23.707  21.578   5.817  0.2242 -0.1840 -0.1869
 2831DPPC   C2A55662  23.580  21.654   5.356 -0.3502 -0.0003  0.1178
 2831DPPC   C3A55663  23.442  21.681   4.941  0.1904  0.2703  0.0830
 2831DPPC   C4A55664  23.267  21.314   4.658 -0.1078 -0.0678  0.3814
 2831DPPC   C1B55665  23.709  20.790   5.649  0.1200 -0.2838 -0.0359
 2831DPPC   C2B55666  23.553  20.654   5.115 -0.3189  0.0561 -0.1959
 2831DPPC   C3B55667  23.528  20.333   4.791  0.0679  0.1733  0.0150
 2831DPPC   C4B55668  23.429  20.260   4.365  0.2414  0.1057  0.1082
 2832DPPC   NC355669  23.300  29.878  26.574  0.1686 -0.1823 -0.0639
 2832DPPC   PO455670  23.356  29.926   0.113 -0.0223  0.1173  0.1381
 2832DPPC   GL155671  23.367  29.778   0.523 -0.2052 -0.1094 -0.0844
 2832DPPC   GL255672  23.625  29.508   0.639  0.0278  0.0373 -0.0892
 2832DPPC   C1A55673  23.088  29.649   0.828 -0.3290  0.1393  0.1084
 2832DPPC   C2A55674  22.934  29.677   1.169  0.1697  0.0779  0.1019
 2832DPPC   C3A55675  23.017  29.658   1.671 -0.2219 -0.2397  0.2796
 2832DPPC   C4A55676  23.185  29.954   2.009  0.2423 -0.2982 -0.0380
 2832DPPC   C1B55677  23.191  29.339   0.386  0.0217 -0.1606 -0.1576
 2832DPPC   C2B55678  22.763  29.301   0.546  0.0701  0.0562 -0.2660
 2832DPPC   C3B55679  22.335  29.148   0.516  0.1764  0.1093 -0.1906
 2832DPPC   C4B55680  22.051  29.050   0.210 -0.1810 -0.1045 -0.0535
 2833DPPC   NC355681  22.122  29.165  23.845 -0.0313 -0.3053  0.2225
 2833DPPC   PO455682  22.415  28.938  24.172  0.2343  0.0776  0.1666
 2833DPPC   GL155683  22.189  28.609  24.302  0.1006 -0.0697 -0.3116
 2833DPPC   GL255684  22.225  28.283  24.107 -0.0233  0.2277  0.0048
 2833DPPC   C1A55685  21.765  28.455  24.582  0.1956  0.3225 -0.2016
 2833DPPC   C2A55686  21.638  28.162  24.883  0.0602 -0.0590  0.2771
 2833DPPC   C3A55687  21.579  28.166  25.403  0.0018  0.1480  0.2529
 2833DPPC   C4A55688  21.132  28.210  25.634 -0.4004  0.1692  0.0702
 2833DPPC   C1B55689  21.872  27.980  24.277 -0.1640 -0.1236 -0.0733
 2833DPPC   C2B55690  21.550  27.783  24.504  0.0156 -0.0124 -0.3401
 2833DPPC   C3B55691  21.252  27.782  24.874 -0.0803  0.3721  0.2874
 2833DPPC   C4B55692  21.044  27.455  25.036 -0.0732  0.1610 -0.0323
 2834DPPC   NC355693  19.869  24.988   7.780  0.2594 -0.0109 -0.0625
 2834DPPC   PO455694  19.841  25.240   7.465 -0.0610 -0.1467  0.0057
 2834DPPC   GL155695  20.175  25.132   7.097 -0.0418 -0.0161  0.0718
 2834DPPC   GL255696  20.130  24.900   6.864 -0.0677 -0.2954 -0.1392
 2834DPPC   C1A55697  20.595  25.230   6.782  0.0402 -0.2019  0.1487
 2834DPPC   C2A55698  20.631  25.480   6.388 -0.6798  0.1378 -0.0218
 2834DPPC   C3A55699  20.529  25.746   6.078 -0.1709 -0.1651 -0.0885
 2834DPPC   C4A55700  20.294  26.157   6.010  0.0079 -0.1520 -0.1211
 2834DPPC   C1B55701  20.188  25.031   6.416 -0.1698  0.0969 -0.5310
 2834DPPC   C2B55702  20.312  25.262   6.058  0.1720  0.0766  0.3809
 2834DPPC   C3B55703  20.276  25.352   5.607 -0.2398 -0.1747 -0.1419
 2834DPPC   C4B55704  20.090  25.524   5.231 -0.0235 -0.1363 -0.1330
 2835DPPC   NC355705  19.022  25.636   7.010 -0.5647  0.0633  0.1088
 2835DPPC   PO455706  19.425  25.596   7.124  0.0044 -0.1546 -0.0271
 2835DPPC   GL155707  19.492  25.839   6.725 -0.1044 -0.1904 -0.0995
 2835DPPC   GL255708  19.222  25.921   6.578 -0.2354  0.1416 -0.0779
 2835DPPC   C1A55709  19.667  25.768   6.376 -0.2105  0.0349 -0.2258
 2835DPPC   C2A55710  20.014  25.788   6.094 -0.1120  0.1468  0.0852
 2835DPPC   C3A55711  20.157  25.868   5.599 -0.1353 -0.0370 -0.0838
 2835DPPC   C4A55712  20.528  25.882   5.322 -0.0635  0.3141 -0.1049
 2835DPPC   C1B55713  19.343  26.170   6.226  0.0633  0.0753 -0.1432
 2835DPPC   C2B55714  19.221  26.504   6.134 -0.2009 -0.1234  0.1572
 2835DPPC   C3B55715  18.890  26.642   6.215 -0.2070  0.0006  0.1696
 2835DPPC   C4B55716  18.677  26.834   6.449 -0.2542  0.3269  0.0391
 2836DPPC   NC355717  20.291  30.549   6.686 -0.2049 -0.0108  0.2915
 2836DPPC   PO455718  20.023  30.194   6.551 -0.1597 -0.0038  0.2397
 2836DPPC   GL155719  20.414  29.928   6.473  0.0778  0.1377  0.1132
 2836DPPC   GL255720  20.704  30.110   6.443  0.1416 -0.2193 -0.0131
 2836DPPC   C1A55721  20.479  29.654   6.327 -0.0275 -0.2810 -0.1553
 2836DPPC   C2A55722  20.470  29.445   6.066  0.0684  0.0751  0.1339
 2836DPPC   C3A55723  20.713  29.247   5.784  0.0093  0.1287 -0.2798
 2836DPPC   C4A55724  20.621  28.946   5.557 -0.0017  0.0719  0.1540
 2836DPPC   C1B55725  20.825  29.994   6.053  0.1395 -0.0071  0.0530
 2836DPPC   C2B55726  20.941  30.001   5.618  0.0971  0.1006 -0.0803
 2836DPPC   C3B55727  21.379  29.881   5.397  0.0493  0.2942  0.1687
 2836DPPC   C4B55728  21.447  29.387   5.210 -0.4045 -0.2172  0.0615
 2837DPPC   NC355729  20.405  18.564   1.166  0.2332 -0.2837  0.2143
 2837DPPC   PO455730  20.408  18.478   1.509  0.0051 -0.0460  0.4701
 2837DPPC   GL155731  20.734  18.847   1.421  0.3131 -0.2771 -0.0104
 2837DPPC   GL255732  20.640  19.201   1.551 -0.0244 -0.1921  0.0158
 2837DPPC   C1A55733  21.044  19.036   1.257  0.0896  0.1120  0.0403
 2837DPPC   C2A55734  21.413  18.914   0.992  0.0627 -0.1201  0.0272
 2837DPPC   C3A55735  21.663  19.115   0.825  0.1505 -0.3054 -0.4124
 2837DPPC   C4A55736  21.896  19.217   0.488 -0.2034  0.0314  0.3161
 2837DPPC   C1B55737  21.024  19.514   1.500  0.1053 -0.2386  0.0090
 2837DPPC   C2B55738  21.324  19.692   1.372 -0.3365 -0.2926 -0.2527
 2837DPPC   C3B55739  21.408  19.620   1.006  0.0307  0.2102 -0.3740
 2837DPPC   C4B55740  21.818  19.582   0.807 -0.1483  0.2022  0.0760
 2838DPPC   NC355741  16.619  35.101  20.560 -0.0365  0.1723 -0.2928
 2838DPPC   PO455742  16.928  35.358  20.368  0.2915  0.2851  0.0544
 2838DPPC   GL155743  17.038  34.957  20.391  0.1956 -0.1491  0.0923
 2838DPPC   GL255744  17.377  35.130  20.256 -0.2532  0.2511  0.0553
 2838DPPC   C1A55745  17.064  34.584  20.198 -0.2783 -0.0967 -0.4992
 2838DPPC   C2A55746  17.103  34.089  20.302 -0.0920 -0.3017 -0.4840
 2838DPPC   C3A55747  17.151  33.737  20.235 -0.1488 -0.3621 -0.0455
 2838DPPC   C4A55748  16.906  33.465  20.098 -0.0757  0.2030 -0.0132
 2838DPPC   C1B55749  17.609  34.882  19.935 -0.0346  0.3878  0.0667
 2838DPPC   C2B55750  17.907  34.562  20.077 -0.0920  0.2824 -0.1205
 2838DPPC   C3B55751  18.133  34.140  20.150  0.1360  0.1437  0.2687
 2838DPPC   C4B55752  18.237  33.774  20.404 -0.0264  0.1145 -0.1269
 2839DPPC   NC355753  21.924  25.031   8.257  0.2327  0.1030 -0.2643
 2839DPPC   PO455754  22.042  24.576   8.175 -0.0998 -0.1452  0.2280
 2839DPPC   GL155755  22.069  24.429   7.758 -0.1522  0.2069 -0.2238
 2839DPPC   GL255756  22.357  24.437   7.577  0.1082 -0.4099 -0.2491
 2839DPPC   C1A55757  21.765  24.295   7.484  0.2279  0.0035  0.3112
 2839DPPC   C2A55758  21.743  24.202   7.136  0.1283 -0.2326  0.1843
 2839DPPC   C3A55759  21.583  24.353   6.845  0.2657 -0.0545  0.1296
 2839DPPC   C4A55760  21.588  24.580   6.494  0.3170 -0.2103  0.1503
 2839DPPC   C1B55761  22.055  24.670   7.313 -0.1249 -0.0366 -0.3960
 2839DPPC   C2B55762  21.995  24.714   6.853 -0.1145 -0.0645 -0.1041
 2839DPPC   C3B55763  22.161  24.736   6.358  0.2188 -0.0989  0.4234
 2839DPPC   C4B55764  22.475  24.538   6.145 -0.3986 -0.1958  0.0528
 2840DPPC   NC355765  38.547  23.523  20.177  0.1301 -0.3288 -0.0350
 2840DPPC   PO455766  37.987  23.394  20.154 -0.0268  0.1047  0.2143
 2840DPPC   GL155767  37.910  23.860  20.303 -0.0918 -0.1847 -0.0220
 2840DPPC   GL255768  37.993  24.160  20.441  0.0698  0.0693  0.2689
 2840DPPC   C1A55769  37.510  24.040  20.402 -0.1328  0.1459 -0.2372
 2840DPPC   C2A55770  37.110  24.129  20.642  0.2608 -0.1144 -0.3090
 2840DPPC   C3A55771  36.664  24.410  20.630 -0.0440 -0.1065 -0.1390
 2840DPPC   C4A55772  36.489  24.787  20.455 -0.0779 -0.2585  0.0407
 2840DPPC   C1B55773  37.784  24.484  20.522  0.0337  0.1069  0.0114
 2840DPPC   C2B55774  37.408  24.593  20.666  0.0885  0.0029  0.1470
 2840DPPC   C3B55775  37.132  24.523  20.984  0.0077 -0.2468  0.6695
 2840DPPC   C4B55776  36.869  24.152  21.108 -0.0916  0.1373 -0.0072
 2841DPPC   NC355777  17.368  18.546  22.778  0.0353 -0.1824 -0.0951
 2841DPPC   PO455778  17.560  18.353  22.976  0.1059  0.0233 -0.0380
 2841DPPC   GL155779  17.907  18.721  22.832  0.0844 -0.2824 -0.1254
 2841DPPC   GL255780  17.750  18.837  23.137  0.1145  0.1542  0.5766
 2841DPPC   C1A55781  18.259  19.010  22.740 -0.2974 -0.0992 -0.1018
 2841DPPC   C2A55782  18.434  19.305  22.436 -0.3752 -0.2595 -0.3583
 2841DPPC   C3A55783  18.490  19.515  22.129 -0.1557 -0.1180 -0.1433
 2841DPPC   C4A55784  18.430  19.717  21.787 -0.2883 -0.0942 -0.3118
 2841DPPC   C1B55785  18.168  18.877  23.187  0.1794 -0.0889  0.1400
 2841DPPC   C2B55786  18.447  19.229  23.433 -0.0456  0.3106  0.1594
 2841DPPC   C3B55787  18.784  19.211  23.761 -0.0025  0.2660 -0.2551
 2841DPPC   C4B55788  18.961  19.308  24.065  0.2571  0.3436 -0.3001
 2842DPPC   NC355789  26.074  36.482  25.519 -0.0493 -0.0392  0.3050
 2842DPPC   PO455790  25.743  36.616  25.789  0.2986 -0.1496 -0.1033
 2842DPPC   GL155791  25.453  36.889  25.837 -0.1502  0.4002  0.0741
 2842DPPC   GL255792  25.122  36.854  25.878 -0.1120  0.1232 -0.2648
 2842DPPC   C1A55793  25.452  37.273  26.169 -0.0779 -0.0591 -0.0869
 2842DPPC   C2A55794  25.310  37.532  26.428  0.0950  0.0329  0.0668
 2842DPPC   C3A55795  25.288  37.801  26.686 -0.0853  0.3037 -0.1074
 2842DPPC   C4A55796  25.225  37.988   0.052 -0.3498 -0.1272  0.1129
 2842DPPC   C1B55797  24.953  37.209  26.138  0.1506  0.0249 -0.0784
 2842DPPC   C2B55798  24.555  37.264  26.362  0.1276 -0.4026 -0.1474
 2842DPPC   C3B55799  24.272  37.572  26.473 -0.0919  0.0243 -0.2074
 2842DPPC   C4B55800  23.861  37.507  26.756 -0.0423 -0.0148  0.0410
 2843DPPC   NC355801  13.213  29.467  26.037  0.3335  0.3056  0.1561
 2843DPPC   PO455802  13.550  29.759  26.218 -0.2364  0.1541 -0.0449
 2843DPPC   GL155803  13.987  29.670  26.376  0.1447  0.1926 -0.2932
 2843DPPC   GL255804  14.207  29.473  26.628 -0.0244  0.0925 -0.0397
 2843DPPC   C1A55805  14.452  29.745  26.250  0.3915 -0.1234 -0.0592
 2843DPPC   C2A55806  14.701  29.365  26.476 -0.0938  0.0749 -0.1262
 2843DPPC   C3A55807  15.119  29.390  26.553  0.1994  0.2617  0.3200
 2843DPPC   C4A55808  15.356  29.686  26.421  0.2087  0.1549  0.0656
 2843DPPC   C1B55809  14.223  29.176  26.335 -0.3167 -0.3064 -0.0144
 2843DPPC   C2B55810  14.662  29.013  26.125  0.2175  0.1673  0.0495
 2843DPPC   C3B55811  14.907  29.099  25.747  0.1214  0.2496 -0.0149
 2843DPPC   C4B55812  14.636  29.374  25.459 -0.0016 -0.1022 -0.4057
 2844DPPC   NC355813  22.760  30.014  25.795  0.0994  0.0498 -0.0536
 2844DPPC   PO455814  22.355  30.239  26.036  0.2056 -0.2965 -0.1076
 2844DPPC   GL155815  22.164  29.947  26.258  0.0970  0.0634  0.1080
 2844DPPC   GL255816  22.383  29.834  26.516  0.1461 -0.1453  0.2101
 2844DPPC   C1A55817  21.839  29.728  26.317 -0.1860  0.0234 -0.0524
 2844DPPC   C2A55818  21.602  29.344  26.433  0.0927  0.0670  0.0248
 2844DPPC   C3A55819  21.137  29.326  26.382 -0.0920 -0.1039  0.1813
 2844DPPC   C4A55820  20.856  29.376  26.008  0.2144  0.3791  0.3826
 2844DPPC   C1B55821  22.162  29.500  26.623 -0.2830 -0.3645  0.3671
 2844DPPC   C2B55822  22.153  29.090  26.674  0.3516  0.4040 -0.2983
 2844DPPC   C3B55823  22.159  28.663  26.542  0.1625 -0.5775 -0.0388
 2844DPPC   C4B55824  21.977  28.270  26.318 -0.1218  0.0519  0.0884
 2845DPPC   NC355825  34.278  22.705  13.499  0.1703  0.4723  0.2002
 2845DPPC   PO455826  33.808  22.718  13.488  0.1098  0.0864  0.1071
 2845DPPC   GL155827  33.640  22.882  13.825 -0.1412  0.1806 -0.2092
 2845DPPC   GL255828  33.715  23.089  14.143 -0.0598 -0.1120  0.1604
 2845DPPC   C1A55829  33.178  23.043  13.941  0.0949 -0.1824 -0.0298
 2845DPPC   C2A55830  32.923  23.019  14.245 -0.0179 -0.1389 -0.2880
 2845DPPC   C3A55831  32.843  22.652  14.378  0.0576 -0.0855  0.2051
 2845DPPC   C4A55832  32.409  22.362  14.241 -0.0243 -0.1255  0.0526
 2845DPPC   C1B55833  33.724  23.441  14.379  0.2538  0.2193 -0.0993
 2845DPPC   C2B55834  33.149  23.492  14.409  0.1394  0.1684 -0.0724
 2845DPPC   C3B55835  32.826  23.502  14.624 -0.0874  0.1709  0.4560
 2845DPPC   C4B55836  32.556  23.430  14.984  0.0211 -0.1173 -0.2744
 2846DPPC   NC355837  33.883  40.050  21.803 -0.1366  0.1148 -0.0564
 2846DPPC   PO455838  34.087  40.035  22.234 -0.0498 -0.0267  0.0759
 2846DPPC   GL155839  33.990  39.646  22.111  0.2258  0.0037 -0.0955
 2846DPPC   GL255840  34.214  39.629  21.852  0.1388 -0.2863 -0.0835
 2846DPPC   C1A55841  33.654  39.412  22.145 -0.2562  0.0257 -0.4768
 2846DPPC   C2A55842  33.558  38.968  22.111  0.3304 -0.1221  0.3562
 2846DPPC   C3A55843  33.517  38.508  22.121  0.1538 -0.0146 -0.2998
 2846DPPC   C4A55844  33.409  38.071  22.256  0.3857 -0.1782 -0.0378
 2846DPPC   C1B55845  33.922  39.330  21.707 -0.0821 -0.4940  0.1808
 2846DPPC   C2B55846  33.680  38.922  21.625 -0.1331 -0.1757  0.2891
 2846DPPC   C3B55847  33.357  38.746  21.565 -0.1512 -0.0561  0.0578
 2846DPPC   C4B55848  33.116  38.489  21.284  0.0646  0.0846  0.1346
 2847DPPC   NC355849  33.098  32.869   5.689 -0.0836 -0.0613 -0.0787
 2847DPPC   PO455850  33.194  33.302   5.625  0.0771 -0.0122 -0.1180
 2847DPPC   GL155851  32.835  33.347   5.266  0.3291 -0.1061 -0.0482
 2847DPPC   GL255852  32.815  33.668   5.151 -0.0135 -0.3713 -0.3037
 2847DPPC   C1A55853  32.587  33.277   4.953 -0.5492  0.3582 -0.2721
 2847DPPC   C2A55854  32.319  33.295   4.587 -0.0930 -0.1238  0.1028
 2847DPPC   C3A55855  32.145  33.086   4.304  0.2823 -0.0714 -0.2948
 2847DPPC   C4A55856  32.314  32.796   3.980  0.0026  0.2017 -0.0888
 2847DPPC   C1B55857  32.593  33.712   4.815  0.1922  0.0406 -0.0543
 2847DPPC   C2B55858  32.583  33.666   4.382 -0.1345  0.0591 -0.1176
 2847DPPC   C3B55859  32.618  33.367   4.045 -0.0461  0.4898 -0.1613
 2847DPPC   C4B55860  32.532  33.419   3.634 -0.0582  0.0377  0.0200
 2848DPPC   NC355861  15.778  26.442   4.194  0.0934  0.2230  0.0792
 2848DPPC   PO455862  16.043  26.128   4.314  0.3704  0.1645  0.0123
 2848DPPC   GL155863  16.137  26.355   3.860 -0.2533  0.4342 -0.1901
 2848DPPC   GL255864  16.065  26.466   3.481 -0.3507  0.1580 -0.0542
 2848DPPC   C1A55865  16.542  26.565   3.683 -0.0571  0.0815 -0.1815
 2848DPPC   C2A55866  16.873  26.761   3.326  0.1047  0.1531  0.2673
 2848DPPC   C3A55867  17.176  26.985   3.035 -0.0619 -0.1586  0.1445
 2848DPPC   C4A55868  17.648  27.086   3.022  0.1935 -0.0099 -0.1605
 2848DPPC   C1B55869  16.115  26.046   3.302  0.1604  0.1007  0.0145
 2848DPPC   C2B55870  16.171  25.847   2.945 -0.0048 -0.0635  0.2387
 2848DPPC   C3B55871  16.372  25.428   2.900  0.1992 -0.1856 -0.2743
 2848DPPC   C4B55872  16.579  25.255   2.658 -0.0657  0.0501  0.0894
 2849DPPC   NC355873  40.168  30.945  21.682  0.0276  0.0076 -0.1227
 2849DPPC   PO455874  40.096  31.309  21.891  0.0152 -0.1176 -0.0546
 2849DPPC   GL155875  39.823  31.131  22.234 -0.5263  0.1214  0.0121
 2849DPPC   GL255876  39.849  31.019  22.639  0.1548 -0.0636  0.2285
 2849DPPC   C1A55877  39.371  31.022  22.305 -0.1552  0.1421 -0.1609
 2849DPPC   C2A55878  39.323  30.919  22.746 -0.0970 -0.0733  0.0736
 2849DPPC   C3A55879  39.243  30.684  23.049 -0.1414 -0.0129  0.5180
 2849DPPC   C4A55880  39.289  30.339  23.217 -0.1524  0.4247 -0.2785
 2849DPPC   C1B55881  39.478  31.368  22.622 -0.1350  0.1264 -0.1439
 2849DPPC   C2B55882  39.137  31.520  22.826 -0.1023 -0.1308 -0.2743
 2849DPPC   C3B55883  38.857  31.746  22.684 -0.1297 -0.0211  0.0955
 2849DPPC   C4B55884  38.563  31.915  22.464  0.1191 -0.0875 -0.1412
 2850DPPC   NC355885  16.221  33.955  21.257 -0.3449 -0.1956 -0.0877
 2850DPPC   PO455886  16.494  33.962  20.813 -0.1761  0.0242  0.0477
 2850DPPC   GL155887  16.613  33.534  20.862 -0.0095  0.0064  0.1868
 2850DPPC   GL255888  16.487  33.267  21.192 -0.0519 -0.0079 -0.0056
 2850DPPC   C1A55889  17.023  33.396  20.635 -0.0142 -0.2680 -0.0994
 2850DPPC   C2A55890  17.438  33.413  20.471  0.1589 -0.1236  0.1699
 2850DPPC   C3A55891  17.823  33.155  20.373  0.3557  0.2637  0.0416
 2850DPPC   C4A55892  17.513  32.767  20.519 -0.1230  0.1949  0.0692
 2850DPPC   C1B55893  17.017  33.347  21.219  0.4095 -0.0739  0.2869
 2850DPPC   C2B55894  17.421  33.361  21.134 -0.0743 -0.2724 -0.2431
 2850DPPC   C3B55895  17.722  33.289  21.335  0.1275 -0.2724  0.1017
 2850DPPC   C4B55896  18.016  33.020  21.564  0.3607 -0.4323  0.1803
 2851DPPC   NC355897  26.464  21.929  20.588  0.1634 -0.0206  0.1426
 2851DPPC   PO455898  25.989  21.938  20.504  0.3460 -0.2106 -0.1580
 2851DPPC   GL155899  25.639  21.848  20.779 -0.0897  0.0632 -0.1516
 2851DPPC   GL255900  25.698  21.459  20.835 -0.1116  0.0317 -0.0830
 2851DPPC   C1A55901  25.190  21.933  20.808 -0.0996 -0.1617 -0.4252
 2851DPPC   C2A55902  24.864  21.837  21.003  0.0219  0.1382  0.2099
 2851DPPC   C3A55903  24.554  22.009  21.054 -0.0080  0.2324 -0.3153
 2851DPPC   C4A55904  24.325  22.258  20.929  0.1671  0.2148  0.2991
 2851DPPC   C1B55905  25.209  21.419  20.834 -0.0635 -0.0874 -0.0591
 2851DPPC   C2B55906  24.762  21.400  20.881  0.0081 -0.3896 -0.3042
 2851DPPC   C3B55907  24.353  21.159  20.904  0.1211 -0.3312  0.1875
 2851DPPC   C4B55908  23.903  20.965  20.884 -0.0495 -0.2332 -0.0683
 2852DPPC   NC355909  24.557  41.442  19.205  0.0285  0.2033  0.0995
 2852DPPC   PO455910  24.811  41.327  18.855  0.2282  0.1444 -0.1540
 2852DPPC   GL155911  25.079  41.070  18.628  0.4300  0.3645  0.1917
 2852DPPC   GL255912  24.867  40.926  18.351  0.0630 -0.1646 -0.0925
 2852DPPC   C1A55913  25.240  40.722  18.857 -0.1578 -0.0613  0.0423
 2852DPPC   C2A55914  25.539  40.482  19.102 -0.2011 -0.0641 -0.0524
 2852DPPC   C3A55915  25.704  40.390  19.515  0.0597  0.0318 -0.0171
 2852DPPC   C4A55916  25.815  40.318  19.951  0.1283  0.1625  0.2382
 2852DPPC   C1B55917  24.693  40.549  18.360 -0.0639 -0.3042  0.0116
 2852DPPC   C2B55918  24.575  40.188  18.145 -0.1759 -0.6563  0.0926
 2852DPPC   C3B55919  24.595  39.727  18.027  0.1745 -0.2813  0.0739
 2852DPPC   C4B55920  24.684  39.204  18.019 -0.0349  0.1355  0.0613
 2853DPPC   NC355921  17.901  36.678  18.918  0.2134  0.0421 -0.1721
 2853DPPC   PO455922  18.191  36.440  18.628  0.1905  0.3016 -0.1115
 2853DPPC   GL155923  18.401  35.991  18.730  0.0638 -0.1012 -0.0099
 2853DPPC   GL255924  18.365  35.947  19.059 -0.1988 -0.0596 -0.0808
 2853DPPC   C1A55925  18.616  35.613  18.708 -0.0399 -0.0075  0.1488
 2853DPPC   C2A55926  18.980  35.307  18.779  0.0512 -0.0837  0.0544
 2853DPPC   C3A55927  19.259  34.900  18.789 -0.0556  0.0461  0.5749
 2853DPPC   C4A55928  19.425  34.700  18.677 -0.1897 -0.0840  0.2540
 2853DPPC   C1B55929  18.654  35.627  19.227  0.0299  0.3972 -0.0220
 2853DPPC   C2B55930  18.904  35.334  19.264  0.1400  0.0304 -0.2489
 2853DPPC   C3B55931  19.197  35.078  19.247 -0.0513 -0.1370  0.1650
 2853DPPC   C4B55932  19.479  34.767  19.236  0.0378  0.0761  0.3629
 2854DPPC   NC355933  33.481  34.077  16.833  0.0843 -0.2077  0.1601
 2854DPPC   PO455934  33.109  34.261  16.864  0.0399 -0.1704 -0.0684
 2854DPPC   GL155935  33.323  34.598  16.653 -0.0916  0.0025  0.0996
 2854DPPC   GL255936  33.169  34.574  16.324  0.3201 -0.0653  0.1930
 2854DPPC   C1A55937  33.591  34.855  16.466 -0.0835  0.1455  0.0734
 2854DPPC   C2A55938  34.088  34.913  16.312 -0.0722 -0.1224 -0.1127
 2854DPPC   C3A55939  34.211  35.187  16.018  0.1799 -0.3211  0.4297
 2854DPPC   C4A55940  34.306  35.436  15.720 -0.1393  0.0141 -0.1239
 2854DPPC   C1B55941  33.331  34.858  15.944 -0.2521 -0.0568  0.1662
 2854DPPC   C2B55942  33.391  35.161  15.536 -0.0355  0.1010  0.0057
 2854DPPC   C3B55943  33.480  35.425  15.091  0.0340  0.1556 -0.0432
 2854DPPC   C4B55944  33.422  35.841  15.049  0.2810 -0.1746  0.0969
 2855DPPC   NC355945  23.926  24.122  19.086  0.0129 -0.2072  0.0874
 2855DPPC   PO455946  23.738  23.783  18.840  0.1898  0.2300  0.0172
 2855DPPC   GL155947  23.434  23.379  19.042 -0.1850  0.2583 -0.1765
 2855DPPC   GL255948  23.103  23.575  18.825 -0.0000  0.1458 -0.0631
 2855DPPC   C1A55949  23.165  23.157  19.307  0.0522  0.1705 -0.0074
 2855DPPC   C2A55950  23.294  22.929  19.677 -0.1853 -0.1559 -0.2752
 2855DPPC   C3A55951  23.316  22.815  20.178  0.1187 -0.6546 -0.0668
 2855DPPC   C4A55952  23.329  23.074  20.564 -0.0420  0.2608  0.0558
 2855DPPC   C1B55953  22.675  23.390  18.975  0.0747 -0.5757  0.0432
 2855DPPC   C2B55954  22.352  23.090  18.908  0.2137  0.0538 -0.1498
 2855DPPC   C3B55955  22.023  23.165  18.519 -0.1457  0.0245  0.1433
 2855DPPC   C4B55956  22.028  22.844  18.205 -0.0444  0.1821 -0.1769
 2856DPPC   NC355957  37.233  37.888  18.296 -0.0376 -0.0005 -0.1081
 2856DPPC   PO455958  37.339  37.528  18.690  0.1288 -0.3525  0.1719
 2856DPPC   GL155959  37.071  37.229  18.731 -0.1011 -0.0843 -0.0498
 2856DPPC   GL255960  37.183  36.987  18.505 -0.2559 -0.0335 -0.1662
 2856DPPC   C1A55961  36.992  36.907  19.084  0.0644  0.3730 -0.2543
 2856DPPC   C2A55962  36.776  36.426  19.096 -0.2638 -0.2447 -0.0631
 2856DPPC   C3A55963  36.673  35.944  19.164 -0.0694  0.1162  0.2626
 2856DPPC   C4A55964  36.545  35.398  19.324 -0.0911  0.0173  0.1950
 2856DPPC   C1B55965  36.727  36.870  18.423 -0.2412  0.3142 -0.0840
 2856DPPC   C2B55966  36.518  36.803  18.776  0.2925  0.0446 -0.0778
 2856DPPC   C3B55967  36.244  36.546  18.951 -0.1071 -0.4959 -0.2318
 2856DPPC   C4B55968  36.124  36.186  19.199  0.2198  0.2525  0.5350
 2857DPPC   NC355969  22.218  28.941  22.990 -0.1960 -0.1441  0.0525
 2857DPPC   PO455970  21.971  28.798  22.603 -0.2671 -0.2542  0.1221
 2857DPPC   GL155971  21.902  28.469  22.778 -0.5828  0.0166 -0.2267
 2857DPPC   GL255972  22.114  28.438  23.033 -0.0251  0.0545  0.1558
 2857DPPC   C1A55973  21.563  28.178  22.738  0.0777  0.1248 -0.1815
 2857DPPC   C2A55974  21.154  27.958  22.833 -0.2564  0.0102  0.0066
 2857DPPC   C3A55975  20.826  27.800  22.986  0.0441  0.1774 -0.2005
 2857DPPC   C4A55976  20.774  27.456  22.668 -0.3071 -0.0165 -0.0824
 2857DPPC   C1B55977  21.844  28.280  23.537 -0.1739  0.2126 -0.0160
 2857DPPC   C2B55978  21.885  28.072  23.798 -0.0479  0.0230 -0.0593
 2857DPPC   C3B55979  21.499  27.863  23.928 -0.1806 -0.3001 -0.1947
 2857DPPC   C4B55980  21.150  27.680  24.097 -0.0008  0.0453 -0.3334
 2858DPPC   NC355981  22.828  29.216  24.132 -0.1250  0.0019  0.0138
 2858DPPC   PO455982  22.549  29.002  23.687  0.1503 -0.2046 -0.1950
 2858DPPC   GL155983  22.207  28.831  23.496  0.0189  0.1297  0.1694
 2858DPPC   GL255984  22.118  28.686  23.807  0.1852  0.2462 -0.2995
 2858DPPC   C1A55985  21.761  28.668  23.318 -0.0105 -0.0771  0.1558
 2858DPPC   C2A55986  21.413  28.367  23.169 -0.0729 -0.0123  0.1649
 2858DPPC   C3A55987  21.176  28.479  22.781  0.0587  0.3217  0.1614
 2858DPPC   C4A55988  21.097  28.471  22.279 -0.0520  0.1402  0.0105
 2858DPPC   C1B55989  21.756  28.591  23.973 -0.0458 -0.0499 -0.3294
 2858DPPC   C2B55990  21.475  28.309  24.162 -0.1287 -0.2562 -0.1037
 2858DPPC   C3B55991  21.085  28.052  24.381 -0.1126  0.1904  0.0754
 2858DPPC   C4B55992  20.915  27.727  24.503  0.0786 -0.0156  0.0581
 2859DPPC   NC355993  32.982  27.647   0.692  0.1386  0.0337 -0.2902
 2859DPPC   PO455994  33.019  27.305   0.502 -0.3100  0.0147  0.3390
 2859DPPC   GL155995  33.286  27.188   0.847  0.0451  0.1093 -0.0925
 2859DPPC   GL255996  33.293  26.886   0.889  0.5892  0.1026 -0.2193
 2859DPPC   C1A55997  33.661  27.247   1.051  0.1761  0.0230  0.0361
 2859DPPC   C2A55998  33.992  27.206   1.378  0.0216  0.0905  0.1498
 2859DPPC   C3A55999  33.943  27.472   1.716  0.2452  0.3504  0.0254
 2859DPPC   C4A56000  34.031  27.662   2.134  0.1837 -0.1692 -0.0012
 2859DPPC   C1B56001  33.410  26.897   1.273 -0.0160  0.3826  0.2014
 2859DPPC   C2B56002  33.396  26.693   1.645  0.0948  0.0393  0.0690
 2859DPPC   C3B56003  33.513  26.491   1.927 -0.0004 -0.3502  0.0020
 2859DPPC   C4B56004  33.666  26.179   2.137  0.0167 -0.0537  0.0752
 2860DPPC   NC356005  22.720  27.804  22.408 -0.0931 -0.0336 -0.0298
 2860DPPC   PO456006  22.548  28.228  22.390 -0.0016 -0.3073  0.0496
 2860DPPC   GL156007  22.203  28.031  22.645  0.0951  0.1155 -0.2458
 2860DPPC   GL256008  22.313  27.587  22.674  0.0768  0.0551  0.2768
 2860DPPC   C1A56009  21.992  27.859  22.987  0.0966  0.0341  0.2432
 2860DPPC   C2A56010  21.861  27.439  23.132 -0.0021  0.2834  0.2200
 2860DPPC   C3A56011  21.610  27.205  23.348 -0.0887 -0.1250 -0.0124
 2860DPPC   C4A56012  21.753  27.099  23.730 -0.0073  0.1953 -0.2663
 2860DPPC   C1B56013  22.028  27.199  22.610 -0.0089 -0.1561 -0.2453
 2860DPPC   C2B56014  21.726  26.989  22.847  0.0040 -0.0919  0.0914
 2860DPPC   C3B56015  21.394  26.834  23.038  0.0415  0.0932 -0.0755
 2860DPPC   C4B56016  21.095  27.069  23.306 -0.0636  0.0842 -0.1649
 2861DPPC   NC356017  25.072  23.883  21.166 -0.0328 -0.1300  0.0136
 2861DPPC   PO456018  25.412  23.645  20.818 -0.0322  0.0395  0.3024
 2861DPPC   GL156019  25.335  23.314  20.734  0.1325 -0.1729  0.0261
 2861DPPC   GL256020  25.252  23.107  20.939 -0.0754  0.0429 -0.0546
 2861DPPC   C1A56021  25.012  23.015  20.538 -0.3168  0.2569 -0.0966
 2861DPPC   C2A56022  24.542  22.819  20.586  0.0174  0.2038  0.0526
 2861DPPC   C3A56023  24.149  22.694  20.764  0.0936 -0.0350 -0.4277
 2861DPPC   C4A56024  23.812  22.487  20.864  0.2214  0.0991 -0.1531
 2861DPPC   C1B56025  24.748  22.991  21.062 -0.1527 -0.1139 -0.4149
 2861DPPC   C2B56026  24.448  22.745  21.226 -0.2845  0.2792  0.0737
 2861DPPC   C3B56027  24.010  22.645  21.366  0.0925 -0.3144  0.0616
 2861DPPC   C4B56028  23.807  22.658  21.780 -0.1042  0.1318  0.1258
 2862DPPC   NC356029  20.007  29.224  20.248 -0.0799  0.1987 -0.3212
 2862DPPC   PO456030  19.832  29.475  20.553 -0.1362 -0.1754 -0.2013
 2862DPPC   GL156031  19.682  29.001  20.590 -0.0853  0.0671  0.4771
 2862DPPC   GL256032  19.516  28.949  20.357  0.1612  0.2130  0.3364
 2862DPPC   C1A56033  19.460  28.539  20.652  0.1643 -0.0471  0.0503
 2862DPPC   C2A56034  19.101  28.180  20.784  0.0867 -0.1423  0.0320
 2862DPPC   C3A56035  18.899  28.163  21.165 -0.1721  0.0676 -0.2217
 2862DPPC   C4A56036  18.613  28.303  21.435 -0.1495 -0.1933 -0.3626
 2862DPPC   C1B56037  19.297  28.683  20.193  0.3580 -0.0044 -0.1115
 2862DPPC   C2B56038  19.207  28.223  20.218 -0.2310  0.0672  0.2144
 2862DPPC   C3B56039  19.314  27.849  20.229  0.0709 -0.1349 -0.1003
 2862DPPC   C4B56040  19.693  27.593  20.256  0.1009  0.0834  0.0996
 2863DPPC   NC356041  21.956  28.150   8.199  0.0872  0.1196  0.0189
 2863DPPC   PO456042  21.932  28.529   8.006  0.0488 -0.4202 -0.1668
 2863DPPC   GL156043  21.904  28.684   7.501 -0.4921 -0.1301 -0.1836
 2863DPPC   GL256044  21.974  29.015   7.399  0.1907 -0.0310 -0.0925
 2863DPPC   C1A56045  22.231  28.620   7.149 -0.2014  0.0803 -0.0396
 2863DPPC   C2A56046  22.572  28.137   7.064  0.0724  0.1729 -0.0952
 2863DPPC   C3A56047  22.733  27.866   6.714 -0.0578 -0.2256  0.1289
 2863DPPC   C4A56048  22.711  27.794   6.304 -0.1028 -0.2762 -0.0940
 2863DPPC   C1B56049  21.851  28.915   7.009  0.1972  0.2487 -0.1112
 2863DPPC   C2B56050  21.754  28.853   6.527  0.1564  0.3407 -0.4075
 2863DPPC   C3B56051  21.647  28.994   6.101  0.3360 -0.2019 -0.0758
 2863DPPC   C4B56052  21.602  28.936   5.691  0.2239 -0.0094  0.0017
 2864DPPC   NC356053  22.692  26.934  20.860 -0.0246  0.2270 -0.0871
 2864DPPC   PO456054  22.779  26.516  20.780  0.0180 -0.0386 -0.0795
 2864DPPC   GL156055  22.481  26.233  20.895 -0.0694 -0.2054  0.1003
 2864DPPC   GL256056  22.582  25.941  21.000  0.3681  0.5936  0.3990
 2864DPPC   C1A56057  22.093  26.296  20.894  0.1123 -0.0173 -0.1772
 2864DPPC   C2A56058  21.661  26.138  20.911  0.0987 -0.0614  0.1958
 2864DPPC   C3A56059  21.424  25.750  20.781  0.2684 -0.1437 -0.2100
 2864DPPC   C4A56060  21.509  25.313  20.728 -0.1739  0.1285  0.2112
 2864DPPC   C1B56061  22.399  26.019  21.413  0.0981 -0.0063  0.0558
 2864DPPC   C2B56062  22.055  26.035  21.806  0.3595  0.2882  0.1743
 2864DPPC   C3B56063  21.716  25.684  21.963 -0.0626  0.1526  0.0057
 2864DPPC   C4B56064  21.874  25.260  22.222  0.5438 -0.0620  0.1641
 2865DPPC   NC356065  25.710  24.360  22.947  0.0113 -0.2611 -0.2980
 2865DPPC   PO456066  25.263  24.320  22.815  0.0129 -0.3066 -0.5005
 2865DPPC   GL156067  25.041  23.993  22.926  0.2966  0.0740 -0.1414
 2865DPPC   GL256068  24.992  23.954  22.554  0.0849 -0.4497 -0.0407
 2865DPPC   C1A56069  24.576  23.884  22.887 -0.1754 -0.1437  0.4396
 2865DPPC   C2A56070  24.068  23.905  22.775  0.1580  0.1326 -0.0770
 2865DPPC   C3A56071  23.584  23.685  22.629 -0.0785  0.0929 -0.1001
 2865DPPC   C4A56072  23.361  23.351  22.700  0.1781  0.4614  0.4383
 2865DPPC   C1B56073  24.725  23.571  22.515 -0.2074 -0.0200  0.1971
 2865DPPC   C2B56074  24.364  23.301  22.773 -0.2524  0.0124  0.3730
 2865DPPC   C3B56075  23.964  23.457  22.955  0.1387  0.2152 -0.2861
 2865DPPC   C4B56076  23.657  23.262  23.093 -0.2638 -0.2350 -0.1524
 2866DPPC   NC356077  31.536  33.171   5.950 -0.1452  0.1071 -0.0105
 2866DPPC   PO456078  31.277  32.795   6.105  0.0695 -0.2709 -0.1676
 2866DPPC   GL156079  31.159  32.593   5.795  0.1203 -0.2848 -0.1834
 2866DPPC   GL256080  31.352  32.329   5.629  0.1192 -0.1422 -0.2317
 2866DPPC   C1A56081  30.931  32.569   5.429  0.1245  0.0289 -0.0394
 2866DPPC   C2A56082  31.152  32.627   4.995  0.0688  0.0159 -0.0732
 2866DPPC   C3A56083  31.313  32.716   4.644  0.1408 -0.1054 -0.1812
 2866DPPC   C4A56084  31.434  32.541   4.341  0.2009 -0.3511 -0.1067
 2866DPPC   C1B56085  31.526  32.218   5.243  0.0539  0.1185 -0.1028
 2866DPPC   C2B56086  31.600  32.299   4.879  0.3121  0.1833 -0.2010
 2866DPPC   C3B56087  31.812  32.204   4.486  0.0809 -0.1654  0.0708
 2866DPPC   C4B56088  31.884  31.913   4.230 -0.0791 -0.2331  0.1335
 2867DPPC   NC356089  21.987  26.748  18.497 -0.1339 -0.2160  0.1464
 2867DPPC   PO456090  21.736  26.379  18.378  0.1156 -0.1973  0.2953
 2867DPPC   GL156091  21.449  25.936  18.444 -0.1389 -0.3283  0.1743
 2867DPPC   GL256092  21.122  25.775  18.578 -0.1264 -0.0744  0.3699
 2867DPPC   C1A56093  21.582  25.492  18.365  0.3412  0.3635 -0.2210
 2867DPPC   C2A56094  21.520  25.158  18.529  0.2383 -0.0006  0.1587
 2867DPPC   C3A56095  21.295  24.859  18.716  0.0445  0.1999  0.1640
 2867DPPC   C4A56096  21.308  24.488  18.663  0.0932 -0.2931 -0.2544
 2867DPPC   C1B56097  20.869  25.848  18.845 -0.2600  0.0426  0.0283
 2867DPPC   C2B56098  20.458  25.961  18.886  0.0457 -0.0811  0.0959
 2867DPPC   C3B56099  20.069  26.133  18.773 -0.2804  0.2836  0.1874
 2867DPPC   C4B56100  19.756  26.447  18.892  0.2277  0.1867 -0.0129
 2868DPPC   NC356101  16.421  24.268   3.196 -0.0139  0.0829 -0.2529
 2868DPPC   PO456102  16.182  24.412   3.477  0.0149  0.2921 -0.0413
 2868DPPC   GL156103  16.656  24.589   3.465 -0.1153  0.0525  0.3121
 2868DPPC   GL256104  16.790  24.466   3.678 -0.0231  0.2660 -0.0043
 2868DPPC   C1A56105  16.980  24.887   3.262  0.1400  0.2979  0.0717
 2868DPPC   C2A56106  17.267  25.038   2.947 -0.0040 -0.1866 -0.2778
 2868DPPC   C3A56107  17.642  24.927   2.697 -0.0184 -0.0648 -0.0187
 2868DPPC   C4A56108  18.065  24.772   2.646  0.2832 -0.2391 -0.3816
 2868DPPC   C1B56109  17.151  24.575   3.618  0.1060 -0.0473  0.0558
 2868DPPC   C2B56110  17.527  24.718   3.406  0.1261 -0.0467  0.0277
 2868DPPC   C3B56111  18.019  24.812   3.279  0.0406  0.3947  0.2747
 2868DPPC   C4B56112  18.354  24.976   3.065 -0.3540 -0.1161 -0.2779
 2869DPPC   NC356113  39.883  30.701  25.999  0.2490  0.0932  0.0154
 2869DPPC   PO456114  39.837  30.884  25.540 -0.1457  0.0691 -0.1015
 2869DPPC   GL156115  39.426  30.870  25.832 -0.2755 -0.1944  0.1481
 2869DPPC   GL256116  39.158  30.784  25.629 -0.2326  0.0928  0.0233
 2869DPPC   C1A56117  39.094  30.850  26.188  0.0680  0.3205 -0.3377
 2869DPPC   C2A56118  38.669  30.771  26.389 -0.1608  0.0302 -0.2628
 2869DPPC   C3A56119  38.443  31.127  26.412  0.1761  0.1009 -0.0150
 2869DPPC   C4A56120  38.180  31.506  26.403 -0.1754 -0.0817  0.0214
 2869DPPC   C1B56121  38.792  30.727  25.342  0.2619  0.0124  0.3343
 2869DPPC   C2B56122  38.393  30.767  25.306 -0.2640  0.1866  0.0542
 2869DPPC   C3B56123  37.901  30.793  25.180  0.0188  0.1730 -0.0970
 2869DPPC   C4B56124  37.573  30.513  25.365 -0.2395  0.3432 -0.1376
 2870DPPC   NC356125  24.150  23.337   8.557  0.1758 -0.2490  0.1874
 2870DPPC   PO456126  24.249  23.179   8.336  0.2341  0.1575  0.3304
 2870DPPC   GL156127  24.347  23.242   7.979  0.0840  0.3279 -0.1804
 2870DPPC   GL256128  24.347  23.444   7.860 -0.0107  0.2198  0.0665
 2870DPPC   C1A56129  24.625  23.043   7.698 -0.0388  0.1085 -0.3917
 2870DPPC   C2A56130  24.796  22.899   7.369 -0.0469  0.0169 -0.4568
 2870DPPC   C3A56131  25.102  22.939   7.207 -0.5771  0.3297  0.0320
 2870DPPC   C4A56132  25.411  22.832   7.499 -0.0047 -0.2574 -0.0951
 2870DPPC   C1B56133  24.669  23.505   7.569 -0.0863 -0.0178  0.5284
 2870DPPC   C2B56134  25.006  23.688   7.338  0.2086 -0.3242 -0.1764
 2870DPPC   C3B56135  24.851  23.399   7.057  0.0163  0.0579 -0.0977
 2870DPPC   C4B56136  24.769  23.077   6.900  0.0181 -0.0509  0.2264
 2871DPPC   NC356137  23.279  20.399   6.632 -0.0727 -0.0614  0.0437
 2871DPPC   PO456138  22.973  20.755   6.399 -0.0963 -0.3053  0.0262
 2871DPPC   GL156139  22.843  20.852   5.949 -0.1553 -0.4177 -0.0050
 2871DPPC   GL256140  22.808  21.166   5.938 -0.1869  0.1250  0.1431
 2871DPPC   C1A56141  22.851  20.955   5.485 -0.0126  0.0025  0.0087
 2871DPPC   C2A56142  23.092  20.820   5.092 -0.0781  0.1496  0.2712
 2871DPPC   C3A56143  23.242  20.750   4.702  0.0022  0.3596  0.1040
 2871DPPC   C4A56144  23.502  20.961   4.388 -0.3175  0.0305 -0.3018
 2871DPPC   C1B56145  22.864  21.556   5.718 -0.1112 -0.3717 -0.0278
 2871DPPC   C2B56146  22.795  22.021   5.741 -0.0061 -0.0804  0.0745
 2871DPPC   C3B56147  22.772  22.442   5.753 -0.2719 -0.0661 -0.0774
 2871DPPC   C4B56148  22.630  22.886   5.791  0.1141  0.2417 -0.1284
 2872DPPC   NC356149  28.051  23.639  24.354 -0.1002 -0.1689  0.2777
 2872DPPC   PO456150  27.979  23.232  24.141 -0.3921  0.2912 -0.0674
 2872DPPC   GL156151  27.669  22.954  24.464 -0.4385  0.3762  0.0606
 2872DPPC   GL256152  27.786  22.753  24.803  0.3520 -0.3027 -0.0669
 2872DPPC   C1A56153  27.486  22.504  24.495  0.1485  0.0434 -0.1287
 2872DPPC   C2A56154  27.378  22.046  24.190 -0.4161 -0.2382  0.0355
 2872DPPC   C3A56155  26.993  22.025  23.844  0.0610  0.2305  0.1303
 2872DPPC   C4A56156  26.572  22.046  23.573 -0.1327 -0.1202 -0.1231
 2872DPPC   C1B56157  27.751  22.671  25.253 -0.0245  0.0829  0.1414
 2872DPPC   C2B56158  27.332  22.580  25.470 -0.0888 -0.1880  0.0730
 2872DPPC   C3B56159  26.958  22.520  25.780 -0.2900 -0.3769  0.1671
 2872DPPC   C4B56160  26.521  22.467  25.813  0.3074  0.2896  0.0194
 2873DPPC   NC356161  24.238  25.620  22.962  0.0671 -0.0449  0.3071
 2873DPPC   PO456162  24.532  25.329  22.883  0.1946  0.2880 -0.0997
 2873DPPC   GL156163  24.107  25.161  23.086  0.0448 -0.0745 -0.1514
 2873DPPC   GL256164  23.984  25.227  23.366 -0.0240  0.1220 -0.2644
 2873DPPC   C1A56165  23.611  25.014  23.131  0.1621 -0.2949  0.1312
 2873DPPC   C2A56166  23.164  25.017  23.126  0.1114  0.4829  0.1039
 2873DPPC   C3A56167  22.929  24.656  23.237  0.0568  0.2450 -0.0707
 2873DPPC   C4A56168  22.706  24.262  23.341  0.0887 -0.0494  0.0949
 2873DPPC   C1B56169  23.834  24.928  23.569  0.1740 -0.4106 -0.1552
 2873DPPC   C2B56170  23.642  24.698  23.910  0.2317 -0.1371  0.2145
 2873DPPC   C3B56171  23.317  24.435  24.093  0.0738 -0.1646 -0.3188
 2873DPPC   C4B56172  22.837  24.460  24.112 -0.0411 -0.0207  0.0133
 2874DPPC   NC356173  22.342  35.149   4.510 -0.0826  0.1758 -0.1249
 2874DPPC   PO456174  22.316  34.758   4.593  0.2938  0.1882  0.1955
 2874DPPC   GL156175  22.523  34.737   4.223  0.1611 -0.0875  0.0226
 2874DPPC   GL256176  22.495  34.446   4.240 -0.1828  0.2113 -0.0039
 2874DPPC   C1A56177  22.864  34.633   4.009 -0.0034 -0.1103  0.0464
 2874DPPC   C2A56178  23.227  34.711   3.707  0.0960  0.1418 -0.1778
 2874DPPC   C3A56179  23.427  34.635   3.335 -0.3769 -0.1975  0.0878
 2874DPPC   C4A56180  23.750  34.405   3.199  0.1200 -0.1253  0.3130
 2874DPPC   C1B56181  22.624  34.275   3.833 -0.2782  0.4114  0.2106
 2874DPPC   C2B56182  23.049  34.222   3.714 -0.0175  0.1297  0.2038
 2874DPPC   C3B56183  23.312  34.155   3.360 -0.0041  0.3687 -0.0292
 2874DPPC   C4B56184  23.443  33.840   3.043  0.0655 -0.0932  0.0987
 2875DPPC   NC356185  24.285  29.077  25.927 -0.3187  0.0069 -0.1594
 2875DPPC   PO456186  24.596  28.648  25.700 -0.3072 -0.2323 -0.0784
 2875DPPC   GL156187  24.208  28.462  25.779 -0.0005  0.2939  0.0120
 2875DPPC   GL256188  24.242  28.020  25.751 -0.1173 -0.1640 -0.3651
 2875DPPC   C1A56189  23.851  28.263  25.770  0.1576  0.1737 -0.0478
 2875DPPC   C2A56190  23.542  28.016  25.844  0.0628  0.1302 -0.3149
 2875DPPC   C3A56191  23.229  27.806  25.838 -0.0791  0.2754 -0.2202
 2875DPPC   C4A56192  23.103  27.423  25.685 -0.0315 -0.2828  0.3529
 2875DPPC   C1B56193  23.968  27.823  26.017  0.1055 -0.1520  0.0121
 2875DPPC   C2B56194  23.642  27.895  26.316  0.1246  0.1829  0.1133
 2875DPPC   C3B56195  23.251  27.705  26.319 -0.2637  0.1297 -0.0766
 2875DPPC   C4B56196  22.887  27.906  26.186  0.1233  0.0833  0.0623
 2876DPPC   NC356197  33.436  24.347  18.793  0.0868 -0.0760  0.1690
 2876DPPC   PO456198  33.085  24.295  19.197  0.2679  0.1614  0.2266
 2876DPPC   GL156199  33.402  23.904  19.056 -0.1479  0.0109  0.1642
 2876DPPC   GL256200  33.262  23.710  18.824 -0.2247  0.1566  0.0583
 2876DPPC   C1A56201  33.812  23.790  19.011  0.0227  0.3223 -0.0288
 2876DPPC   C2A56202  34.211  23.574  18.988  0.1651 -0.0427  0.4408
 2876DPPC   C3A56203  34.657  23.337  19.216 -0.2307  0.1972  0.0366
 2876DPPC   C4A56204  35.082  23.253  19.165  0.0569 -0.2124  0.0285
 2876DPPC   C1B56205  33.450  23.271  18.949  0.0832 -0.4797 -0.3491
 2876DPPC   C2B56206  33.671  22.962  18.930 -0.3921 -0.0910 -0.3504
 2876DPPC   C3B56207  33.921  22.548  18.951  0.2275 -0.0700  0.2444
 2876DPPC   C4B56208  33.866  22.187  18.655  0.0451  0.0597  0.1388
 2877DPPC   NC356209  18.950  37.446  24.588 -0.0473 -0.1708 -0.1196
 2877DPPC   PO456210  18.495  37.461  24.654  0.0977 -0.2250  0.1276
 2877DPPC   GL156211  18.662  37.025  24.671  0.0024 -0.0869  0.5058
 2877DPPC   GL256212  18.868  36.920  24.871  0.2299 -0.3395 -0.2720
 2877DPPC   C1A56213  18.588  36.614  24.592  0.1726 -0.0989  0.0665
 2877DPPC   C2A56214  18.844  36.627  24.389 -0.0851 -0.0955  0.0874
 2877DPPC   C3A56215  19.135  36.859  24.298  0.1133 -0.1110 -0.0037
 2877DPPC   C4A56216  19.623  36.775  24.089  0.1091  0.0504  0.1834
 2877DPPC   C1B56217  19.211  36.827  24.813  0.2337  0.0866 -0.2436
 2877DPPC   C2B56218  19.623  36.798  25.016  0.2005 -0.1239 -0.0172
 2877DPPC   C3B56219  19.862  36.510  25.179 -0.1966 -0.0209  0.0586
 2877DPPC   C4B56220  19.751  36.048  25.219  0.0841 -0.0396 -0.1232
 2878DPPC   NC356221  18.729  20.396   2.481 -0.0028  0.0382  0.2617
 2878DPPC   PO456222  18.718  20.609   2.825 -0.1953 -0.2413 -0.0293
 2878DPPC   GL156223  18.856  20.899   2.639 -0.2813 -0.2492  0.3139
 2878DPPC   GL256224  18.705  21.267   2.673  0.2793 -0.2140  0.1197
 2878DPPC   C1A56225  19.174  21.101   2.657 -0.2145  0.1931  0.2701
 2878DPPC   C2A56226  19.347  21.295   2.395  0.0475  0.1642  0.0757
 2878DPPC   C3A56227  19.421  21.552   2.140  0.0586 -0.1245 -0.3310
 2878DPPC   C4A56228  19.106  22.030   2.066 -0.0950  0.0542 -0.1329
 2878DPPC   C1B56229  18.887  21.555   2.295  0.0949 -0.0167  0.1518
 2878DPPC   C2B56230  18.956  21.598   1.898 -0.4771 -0.0560 -0.0635
 2878DPPC   C3B56231  18.835  21.991   1.618 -0.2616 -0.1404 -0.3275
 2878DPPC   C4B56232  18.853  22.369   1.331 -0.3640 -0.1387 -0.5754
 2879DPPC   NC356233  22.413  27.005  19.275 -0.1142 -0.1150 -0.0859
 2879DPPC   PO456234  22.158  26.614  19.023  0.1251 -0.5788 -0.0090
 2879DPPC   GL156235  21.933  26.305  19.027  0.0085  0.3039 -0.1079
 2879DPPC   GL256236  21.675  26.235  18.833 -0.0428 -0.0147  0.0201
 2879DPPC   C1A56237  21.840  26.160  19.390 -0.2940 -0.1714 -0.0577
 2879DPPC   C2A56238  21.762  25.855  19.596 -0.1235  0.0727 -0.1930
 2879DPPC   C3A56239  21.754  25.369  19.484  0.1677  0.0159  0.0529
 2879DPPC   C4A56240  21.826  24.976  19.500  0.0948  0.1309  0.2260
 2879DPPC   C1B56241  21.518  25.907  19.087 -0.0923  0.2135  0.1057
 2879DPPC   C2B56242  21.297  25.617  19.272  0.0087 -0.0463  0.0406
 2879DPPC   C3B56243  21.309  25.357  19.656  0.1850  0.1111  0.2162
 2879DPPC   C4B56244  21.347  25.075  19.980 -0.0551 -0.1373 -0.1712
 2880DPPC   NC356245  20.737  15.845  22.349 -0.0827  0.3875 -0.5288
 2880DPPC   PO456246  20.562  15.937  21.896  0.2247 -0.1275  0.1667
 2880DPPC   GL156247  20.706  16.288  21.922 -0.3042  0.0136 -0.0921
 2880DPPC   GL256248  20.804  16.461  21.601 -0.2737 -0.2838  0.3183
 2880DPPC   C1A56249  20.393  16.659  21.813  0.1452  0.1148 -0.0937
 2880DPPC   C2A56250  20.381  17.126  22.027  0.0417 -0.1549  0.0906
 2880DPPC   C3A56251  20.372  17.562  21.793 -0.0376 -0.1109 -0.1930
 2880DPPC   C4A56252  20.275  17.963  21.432 -0.0456 -0.3497 -0.0080
 2880DPPC   C1B56253  20.476  16.724  21.290  0.2288 -0.0390 -0.1853
 2880DPPC   C2B56254  20.133  16.722  21.019 -0.0292  0.2042  0.0279
 2880DPPC   C3B56255  19.799  16.869  20.795  0.2600 -0.3164  0.1096
 2880DPPC   C4B56256  19.340  16.753  20.660 -0.4737 -0.2835 -0.0228
 2881DPPC   NC356257  27.537  27.240   1.695 -0.1120 -0.4166 -0.0355
 2881DPPC   PO456258  27.823  27.299   2.020 -0.4041 -0.1482 -0.1164
 2881DPPC   GL156259  27.513  27.293   2.290 -0.1584 -0.0948  0.1539
 2881DPPC   GL256260  27.728  27.251   2.574  0.0211 -0.0639 -0.1707
 2881DPPC   C1A56261  27.245  27.408   2.598 -0.0662  0.1861 -0.1046
 2881DPPC   C2A56262  27.135  27.178   2.991  0.0072 -0.3603 -0.0105
 2881DPPC   C3A56263  27.226  26.885   3.252  0.2339  0.3115  0.0246
 2881DPPC   C4A56264  27.417  26.447   3.293  0.2343  0.0303 -0.1581
 2881DPPC   C1B56265  27.619  27.140   2.972  0.0507 -0.1969 -0.0579
 2881DPPC   C2B56266  27.790  26.984   3.432  0.1302  0.4379 -0.0795
 2881DPPC   C3B56267  27.597  27.123   3.848 -0.0263 -0.2965  0.3961
 2881DPPC   C4B56268  27.724  27.267   4.245 -0.2598  0.0900 -0.0611
 2882DPPC   NC356269  26.104  25.757   8.661 -0.0856  0.1634 -0.0975
 2882DPPC   PO456270  26.274  26.189   8.609 -0.3669  0.3215 -0.4249
 2882DPPC   GL156271  26.174  26.179   8.207 -0.1711 -0.1870 -0.3021
 2882DPPC   GL256272  25.864  26.086   8.322  0.1132 -0.2632  0.0920
 2882DPPC   C1A56273  26.130  25.877   7.848  0.0601  0.1603  0.2239
 2882DPPC   C2A56274  26.029  25.475   7.780 -0.3260 -0.2239  0.0252
 2882DPPC   C3A56275  26.029  25.127   7.931 -0.1923  0.4398 -0.1016
 2882DPPC   C4A56276  26.239  24.713   7.895 -0.0652  0.1923 -0.1809
 2882DPPC   C1B56277  25.705  26.061   7.913  0.1435  0.0912 -0.2735
 2882DPPC   C2B56278  25.574  26.290   7.640  0.0917 -0.0820  0.0029
 2882DPPC   C3B56279  25.256  26.530   7.284 -0.2182 -0.0421  0.0436
 2882DPPC   C4B56280  24.875  26.704   7.119 -0.0304  0.0771 -0.0209
 2883DPPC   NC356281  25.113  22.743  19.449 -0.2359  0.0070  0.1649
 2883DPPC   PO456282  25.181  23.099  19.686  0.2805 -0.2175 -0.0340
 2883DPPC   GL156283  24.686  22.917  19.754  0.0436 -0.2011  0.0901
 2883DPPC   GL256284  24.432  23.108  19.923  0.2652 -0.0501  0.1032
 2883DPPC   C1A56285  24.412  22.576  19.957  0.1832 -0.2760  0.0916
 2883DPPC   C2A56286  24.169  22.517  20.285 -0.1653  0.0950 -0.1123
 2883DPPC   C3A56287  23.945  22.240  20.391 -0.1108 -0.0607 -0.1623
 2883DPPC   C4A56288  23.861  21.703  20.388  0.0624  0.1803 -0.0697
 2883DPPC   C1B56289  24.035  22.937  19.862 -0.2718 -0.2423  0.0232
 2883DPPC   C2B56290  23.662  23.222  20.109 -0.0089 -0.0729 -0.0238
 2883DPPC   C3B56291  23.280  23.404  20.196 -0.1389  0.1643  0.2817
 2883DPPC   C4B56292  22.864  23.133  20.316 -0.2531 -0.1245  0.3286
 2884DPPC   NC356293  22.334  29.936  24.338 -0.2468 -0.0696  0.2698
 2884DPPC   PO456294  22.287  29.427  24.312 -0.3009 -0.0254  0.0458
 2884DPPC   GL156295  22.109  29.175  24.473  0.3002  0.0456  0.0302
 2884DPPC   GL256296  22.093  28.948  24.725 -0.0806  0.0753 -0.0209
 2884DPPC   C1A56297  21.764  29.381  24.715 -0.2410 -0.0427  0.2608
 2884DPPC   C2A56298  21.552  29.269  24.996  0.2227 -0.0636 -0.3189
 2884DPPC   C3A56299  21.292  29.013  25.041  0.1411  0.1388  0.0050
 2884DPPC   C4A56300  20.910  28.706  25.050  0.1902 -0.0068 -0.1727
 2884DPPC   C1B56301  21.804  28.803  25.022  0.0129 -0.3703  0.1853
 2884DPPC   C2B56302  21.503  28.614  25.153 -0.0641  0.1367  0.1123
 2884DPPC   C3B56303  21.160  28.310  25.149  0.1490  0.0463 -0.2068
 2884DPPC   C4B56304  20.710  28.286  25.318  0.0582 -0.3058 -0.0193
 2885DPPC   NC356305  23.748  21.910   7.739  0.1435  0.2782  0.3445
 2885DPPC   PO456306  24.164  22.079   7.955  0.2252 -0.0773  0.1428
 2885DPPC   GL156307  24.259  22.379   7.554  0.0440 -0.0420  0.1132
 2885DPPC   GL256308  24.642  22.319   7.384 -0.0096  0.1224  0.1764
 2885DPPC   C1A56309  24.299  22.778   7.393  0.1339 -0.2892 -0.4960
 2885DPPC   C2A56310  24.195  23.228   7.345 -0.2742 -0.1786 -0.0623
 2885DPPC   C3A56311  24.355  23.434   6.934 -0.2032  0.4036  0.1626
 2885DPPC   C4A56312  24.266  23.671   6.592 -0.2167  0.0263  0.4606
 2885DPPC   C1B56313  24.488  22.499   6.978  0.1643  0.0679  0.1984
 2885DPPC   C2B56314  24.354  22.561   6.566  0.1408  0.2972  0.3784
 2885DPPC   C3B56315  24.337  22.655   6.162  0.0508  0.4396  0.1031
 2885DPPC   C4B56316  24.446  22.946   5.916 -0.1070 -0.1415  0.1856
 2886DPPC   NC356317  31.962  21.380   2.946 -0.0743 -0.0125 -0.0937
 2886DPPC   PO456318  32.254  21.281   2.638  0.1194  0.2329 -0.0625
 2886DPPC   GL156319  31.891  21.375   2.445 -0.1599  0.0657  0.3171
 2886DPPC   GL256320  31.627  21.101   2.346  0.1648  0.0967 -0.1500
 2886DPPC   C1A56321  31.655  21.498   1.984 -0.2670  0.0172  0.0694
 2886DPPC   C2A56322  31.342  21.773   1.855 -0.0338 -0.0309  0.1312
 2886DPPC   C3A56323  31.200  22.165   1.626  0.1149 -0.0659  0.0892
 2886DPPC   C4A56324  30.845  22.438   1.644  0.4998 -0.1089 -0.1783
 2886DPPC   C1B56325  31.253  21.207   2.174 -0.3536 -0.0630 -0.0913
 2886DPPC   C2B56326  30.966  21.350   1.951  0.0141 -0.2263 -0.1656
 2886DPPC   C3B56327  30.956  21.473   1.534  0.1408 -0.2934 -0.0507
 2886DPPC   C4B56328  30.791  21.760   1.235  0.3458 -0.0197  0.0959
 2887DPPC   NC356329  22.998  28.903  23.543  0.0810 -0.1044  0.0476
 2887DPPC   PO456330  22.959  28.472  23.660  0.2228  0.3961  0.0049
 2887DPPC   GL156331  22.740  28.080  23.777 -0.2079  0.0584 -0.0792
 2887DPPC   GL256332  22.722  27.829  23.549  0.0664 -0.1799  0.0841
 2887DPPC   C1A56333  22.321  27.795  23.812  0.2526  0.1473 -0.0396
 2887DPPC   C2A56334  22.007  27.559  23.980 -0.1795 -0.1774  0.2666
 2887DPPC   C3A56335  21.596  27.379  24.146  0.0846 -0.0370 -0.2332
 2887DPPC   C4A56336  21.252  27.103  24.269 -0.1783 -0.0969  0.2649
 2887DPPC   C1B56337  22.609  27.421  23.473 -0.0392  0.1340 -0.1577
 2887DPPC   C2B56338  22.165  27.336  23.500  0.2549 -0.3816 -0.1822
 2887DPPC   C3B56339  21.785  27.623  23.554 -0.1981  0.1116  0.0008
 2887DPPC   C4B56340  21.542  27.910  23.221 -0.0850  0.4526 -0.0101
 2888DPPC   NC356341  27.203  32.091   6.642  0.0996 -0.2388 -0.1918
 2888DPPC   PO456342  26.889  31.856   6.565  0.2334  0.5376  0.1627
 2888DPPC   GL156343  26.728  31.538   6.329  0.1360 -0.2731  0.2270
 2888DPPC   GL256344  26.643  31.248   6.458 -0.0403  0.0639 -0.0042
 2888DPPC   C1A56345  26.653  31.501   5.877  0.3447 -0.2140  0.2115
 2888DPPC   C2A56346  26.979  31.258   5.700 -0.0841  0.1786 -0.1697
 2888DPPC   C3A56347  27.298  30.896   5.715  0.1751 -0.0207 -0.0405
 2888DPPC   C4A56348  27.157  30.435   5.638 -0.2628 -0.2845  0.2572
 2888DPPC   C1B56349  26.672  30.901   6.180  0.0105  0.0938 -0.2875
 2888DPPC   C2B56350  26.800  30.477   5.999 -0.2298 -0.0303  0.2730
 2888DPPC   C3B56351  26.779  30.121   5.871  0.3041 -0.0228 -0.2047
 2888DPPC   C4B56352  27.070  29.899   5.653  0.2403  0.1945 -0.1281
 2889DPPC   NC356353  33.339  40.469  23.090  0.0577 -0.3462  0.1636
 2889DPPC   PO456354  33.048  40.622  22.970 -0.0922  0.3743 -0.2565
 2889DPPC   GL156355  32.850  40.326  22.885  0.1640  0.0246  0.1254
 2889DPPC   GL256356  33.126  40.090  22.944 -0.0153  0.1582  0.0378
 2889DPPC   C1A56357  32.603  40.053  23.077 -0.1400  0.1892 -0.1197
 2889DPPC   C2A56358  32.319  39.660  23.213  0.0169  0.1555 -0.0088
 2889DPPC   C3A56359  32.231  39.305  23.500 -0.0236  0.0721 -0.2684
 2889DPPC   C4A56360  32.007  39.165  23.807 -0.2705  0.2462  0.0655
 2889DPPC   C1B56361  32.865  39.724  22.827  0.0299 -0.1426  0.0897
 2889DPPC   C2B56362  32.706  39.415  22.602  0.1686 -0.0757 -0.2680
 2889DPPC   C3B56363  32.307  39.414  22.480  0.0715 -0.1033  0.0944
 2889DPPC   C4B56364  32.093  39.057  22.422 -0.1412  0.2249 -0.0294
 2890DPPC   NC356365  29.982  27.579   2.171  0.2555  0.1199 -0.1653
 2890DPPC   PO456366  29.763  27.222   2.442 -0.3098 -0.2170  0.0086
 2890DPPC   GL156367  30.061  27.010   2.708  0.0341 -0.1292  0.2630
 2890DPPC   GL256368  30.255  27.108   2.923  0.0530 -0.1059  0.1517
 2890DPPC   C1A56369  29.904  26.839   3.150 -0.1426 -0.2431 -0.3893
 2890DPPC   C2A56370  29.735  26.634   3.432  0.1991 -0.0945  0.2394
 2890DPPC   C3A56371  29.581  26.888   3.913  0.2235  0.3136  0.0163
 2890DPPC   C4A56372  29.611  27.173   4.219 -0.0700 -0.3218  0.0480
 2890DPPC   C1B56373  30.382  27.034   3.234  0.0546  0.3070 -0.1704
 2890DPPC   C2B56374  30.768  26.886   3.404  0.1076  0.0022  0.0719
 2890DPPC   C3B56375  31.178  26.781   3.557  0.2085 -0.1645 -0.3040
 2890DPPC   C4B56376  31.649  26.987   3.556  0.0173  0.1194  0.0964
 2891DPPC   NC356377  36.590  25.785   1.990 -0.1476  0.0449 -0.0364
 2891DPPC   PO456378  36.747  25.514   1.534  0.2174 -0.0349  0.1152
 2891DPPC   GL156379  36.372  25.537   1.258 -0.0904  0.2376 -0.1186
 2891DPPC   GL256380  36.003  25.465   1.361  0.0137  0.2410  0.1986
 2891DPPC   C1A56381  36.176  25.763   0.911  0.2364  0.0935 -0.1671
 2891DPPC   C2A56382  35.814  25.957   0.823 -0.1465  0.0506  0.0474
 2891DPPC   C3A56383  35.609  25.869   0.466  0.0302  0.1513  0.1659
 2891DPPC   C4A56384  35.623  25.490   0.315  0.0016 -0.0261 -0.0844
 2891DPPC   C1B56385  35.764  25.750   1.291  0.2471 -0.0395  0.1666
 2891DPPC   C2B56386  35.502  25.895   1.633 -0.1603  0.3617  0.0415
 2891DPPC   C3B56387  35.156  26.131   1.652 -0.2281 -0.5094 -0.0354
 2891DPPC   C4B56388  34.884  26.409   1.670  0.2746 -0.0901 -0.1608
 2892DPPC   NC356389  25.807  15.572  22.756  0.0539 -0.0414 -0.1247
 2892DPPC   PO456390  26.016  15.930  22.947  0.2189  0.1965 -0.1378
 2892DPPC   GL156391  26.021  16.332  22.765  0.0482  0.2811  0.2315
 2892DPPC   GL256392  26.216  16.465  23.008  0.3574  0.0330  0.4634
 2892DPPC   C1A56393  26.093  16.614  22.536 -0.1661 -0.2317  0.0205
 2892DPPC   C2A56394  25.892  17.062  22.501  0.1380 -0.1461  0.0912
 2892DPPC   C3A56395  25.775  17.472  22.734 -0.1527  0.0867  0.1464
 2892DPPC   C4A56396  25.496  17.677  22.869  0.3051 -0.3351  0.0845
 2892DPPC   C1B56397  26.172  16.970  22.922 -0.0732  0.0590  0.2110
 2892DPPC   C2B56398  26.232  17.386  22.767  0.2069  0.1981 -0.1150
 2892DPPC   C3B56399  26.123  17.527  22.355  0.2023  0.1695  0.0695
 2892DPPC   C4B56400  25.668  17.517  22.271  0.2098 -0.0668  0.1396
 2893DPPC   NC356401  18.106  17.364  19.939  0.0734 -0.1645 -0.2307
 2893DPPC   PO456402  18.078  17.709  19.606  0.2825 -0.3081  0.0841
 2893DPPC   GL156403  18.369  18.030  19.548 -0.0546 -0.1757 -0.0906
 2893DPPC   GL256404  18.148  18.311  19.497 -0.1035 -0.0048 -0.0981
 2893DPPC   C1A56405  18.726  18.058  19.756 -0.2210  0.0730 -0.1967
 2893DPPC   C2A56406  19.045  18.357  20.015 -0.1924  0.0916 -0.1162
 2893DPPC   C3A56407  19.388  18.694  20.044  0.1966  0.1488  0.1641
 2893DPPC   C4A56408  19.612  18.781  19.718  0.0956 -0.1143  0.0161
 2893DPPC   C1B56409  18.514  18.504  19.570  0.1043 -0.0123  0.0008
 2893DPPC   C2B56410  18.552  18.939  19.600  0.1885 -0.0468  0.3311
 2893DPPC   C3B56411  18.777  19.215  19.645 -0.1295  0.1466 -0.1417
 2893DPPC   C4B56412  19.107  19.391  19.618  0.1905 -0.1724 -0.0213
 2894DPPC   NC356413  20.657  18.041   1.355 -0.1772 -0.1864  0.0962
 2894DPPC   PO456414  20.697  18.188   0.987 -0.1023 -0.2101  0.0532
 2894DPPC   GL156415  20.737  18.483   0.692  0.1199  0.0557  0.2100
 2894DPPC   GL256416  20.777  18.530   0.356  0.2450 -0.0399  0.3259
 2894DPPC   C1A56417  20.937  18.889   0.660  0.0821  0.0765  0.3680
 2894DPPC   C2A56418  20.829  19.318   0.590  0.0899  0.3015 -0.2015
 2894DPPC   C3A56419  21.104  19.573   0.458  0.0504  0.0454 -0.0684
 2894DPPC   C4A56420  21.532  19.581   0.436 -0.1091  0.0774 -0.1495
 2894DPPC   C1B56421  21.008  18.734  26.910 -0.0097 -0.0534  0.2309
 2894DPPC   C2B56422  21.503  18.812  26.829 -0.0931  0.0656 -0.0184
 2894DPPC   C3B56423  21.967  18.718  26.880  0.0763 -0.1325  0.1129
 2894DPPC   C4B56424  22.495  18.651  26.803 -0.0548  0.0401 -0.1480
 2895DPPC   NC356425  36.952  31.716   2.584 -0.0191  0.0334 -0.4024
 2895DPPC   PO456426  37.162  31.465   2.446  0.1506 -0.2370  0.0966
 2895DPPC   GL156427  37.015  31.620   2.064  0.2908 -0.0526 -0.1199
 2895DPPC   GL256428  36.989  31.921   2.101  0.3258  0.0905  0.1562
 2895DPPC   C1A56429  36.775  31.644   1.683 -0.0156 -0.1591  0.1386
 2895DPPC   C2A56430  36.582  31.526   1.325  0.3806 -0.0967  0.0523
 2895DPPC   C3A56431  36.311  31.162   1.158  0.1470  0.0639  0.0589
 2895DPPC   C4A56432  35.897  31.275   1.011 -0.0583  0.1205  0.4636
 2895DPPC   C1B56433  36.696  32.086   1.978 -0.0165 -0.0050  0.0808
 2895DPPC   C2B56434  36.278  32.059   1.963 -0.4418  0.1838 -0.1371
 2895DPPC   C3B56435  36.202  31.673   1.658 -0.1900  0.3226  0.1736
 2895DPPC   C4B56436  36.118  31.729   1.127  0.0435  0.2337 -0.0291
 2896DPPC   NC356437  21.536  29.209  22.183 -0.3971  0.0303  0.4625
 2896DPPC   PO456438  21.241  29.387  22.567 -0.1272  0.1516 -0.0559
 2896DPPC   GL156439  21.041  29.143  22.914 -0.0902 -0.0882 -0.1139
 2896DPPC   GL256440  20.797  28.834  22.873  0.0734  0.3909  0.2335
 2896DPPC   C1A56441  20.684  29.237  23.172 -0.0044 -0.2083 -0.2282
 2896DPPC   C2A56442  20.598  28.847  23.315  0.1731 -0.0897 -0.2555
 2896DPPC   C3A56443  20.470  28.656  23.590 -0.2027  0.1581 -0.1869
 2896DPPC   C4A56444  20.220  28.285  23.692 -0.2896  0.1571  0.0822
 2896DPPC   C1B56445  20.644  28.436  22.982 -0.1572 -0.1159  0.0653
 2896DPPC   C2B56446  20.281  28.318  23.173  0.0092 -0.0901  0.4682
 2896DPPC   C3B56447  20.017  28.641  23.273 -0.2217  0.0579  0.0599
 2896DPPC   C4B56448  19.660  28.914  22.943 -0.1822 -0.0937 -0.0319
 2897DPPC   NC356449  22.504  26.589  15.998 -0.4422 -0.4236  0.2327
 2897DPPC   PO456450  22.652  26.888  15.654  0.0116  0.2863 -0.3446
 2897DPPC   GL156451  22.478  27.165  15.294  0.0703  0.0201 -0.1505
 2897DPPC   GL256452  22.613  26.885  15.047 -0.0576  0.0621 -0.0909
 2897DPPC   C1A56453  22.180  27.204  14.879  0.3637 -0.1458  0.1970
 2897DPPC   C2A56454  21.783  27.433  14.774 -0.0086 -0.1300 -0.2446
 2897DPPC   C3A56455  21.334  27.492  14.534  0.2790 -0.1696  0.4768
 2897DPPC   C4A56456  21.141  27.152  14.382  0.2252 -0.0727 -0.1513
 2897DPPC   C1B56457  22.404  26.682  14.736  0.0935  0.1345 -0.4864
 2897DPPC   C2B56458  22.059  26.719  14.401 -0.3367 -0.1280 -0.1904
 2897DPPC   C3B56459  22.132  26.600  14.054  0.0910  0.3374 -0.0627
 2897DPPC   C4B56460  21.894  26.745  13.752 -0.1298  0.1467 -0.1219
 2898DPPC   NC356461  24.238  16.601  18.561  0.2829  0.0438  0.0833
 2898DPPC   PO456462  24.254  16.992  18.323 -0.2168 -0.1804  0.0171
 2898DPPC   GL156463  24.038  17.420  18.295 -0.3677  0.0772  0.0952
 2898DPPC   GL256464  23.831  17.384  18.540  0.3803  0.2063  0.4591
 2898DPPC   C1A56465  24.020  17.930  18.385  0.1686 -0.4109 -0.0694
 2898DPPC   C2A56466  24.284  18.207  18.612  0.1657 -0.2855 -0.0260
 2898DPPC   C3A56467  24.430  18.611  18.747 -0.2149 -0.2075 -0.1208
 2898DPPC   C4A56468  24.380  18.903  19.162 -0.1061  0.2614 -0.0463
 2898DPPC   C1B56469  23.647  17.758  18.678  0.3764  0.1149 -0.2347
 2898DPPC   C2B56470  23.575  18.134  18.407 -0.3029 -0.0592 -0.0356
 2898DPPC   C3B56471  23.176  18.320  18.391 -0.2366  0.0089 -0.0163
 2898DPPC   C4B56472  22.824  18.256  18.418  0.0688 -0.1286 -0.1155
 2899DPPC   NC356473  33.949  22.956   2.396 -0.1303  0.1099 -0.1970
 2899DPPC   PO456474  33.817  23.102   2.811 -0.3683 -0.1236 -0.0358
 2899DPPC   GL156475  33.916  23.404   2.584  0.2599  0.1242 -0.0896
 2899DPPC   GL256476  33.859  23.664   2.716  0.3244 -0.2554  0.1037
 2899DPPC   C1A56477  33.868  23.562   2.181 -0.3336  0.0199 -0.1400
 2899DPPC   C2A56478  33.563  23.607   1.878 -0.0035 -0.2452  0.0104
 2899DPPC   C3A56479  33.402  23.703   1.490  0.3608  0.1812 -0.2780
 2899DPPC   C4A56480  33.064  23.538   1.246  0.0121 -0.0902 -0.1263
 2899DPPC   C1B56481  33.529  23.914   2.565  0.0028 -0.0907 -0.4035
 2899DPPC   C2B56482  33.082  24.068   2.576  0.3254  0.0994 -0.2109
 2899DPPC   C3B56483  32.646  24.315   2.605 -0.0599  0.3628  0.2306
 2899DPPC   C4B56484  32.621  24.659   2.847  0.0501 -0.1016 -0.0918
 2900DPPC   NC356485  15.552  21.493  23.932  0.0243  0.1243 -0.1684
 2900DPPC   PO456486  15.373  21.634  24.245 -0.2107  0.0523 -0.1347
 2900DPPC   GL156487  15.668  21.920  24.051  0.1980 -0.1705 -0.0186
 2900DPPC   GL256488  15.469  22.052  23.754  0.0482  0.2627 -0.2206
 2900DPPC   C1A56489  15.772  22.362  24.083  0.4701 -0.1422 -0.0371
 2900DPPC   C2A56490  16.273  22.674  24.147 -0.1243  0.0232  0.0521
 2900DPPC   C3A56491  16.446  23.038  24.356 -0.0802 -0.1342  0.4106
 2900DPPC   C4A56492  16.352  23.242  24.717  0.3416 -0.1120  0.1137
 2900DPPC   C1B56493  15.886  22.007  23.624  0.1957 -0.1456 -0.2177
 2900DPPC   C2B56494  16.142  21.774  23.717  0.3078 -0.0697  0.1859
 2900DPPC   C3B56495  16.521  21.738  23.876 -0.1677  0.1923  0.2516
 2900DPPC   C4B56496  16.953  21.767  23.819 -0.0793  0.0914  0.0078
 2901DPPC   NC356497  23.387  24.058  18.676  0.1419  0.2446  0.4191
 2901DPPC   PO456498  23.179  23.876  18.342  0.1771  0.1029  0.0980
 2901DPPC   GL156499  22.887  23.625  18.284 -0.3411  0.1750 -0.4383
 2901DPPC   GL256500  22.990  23.484  17.943  0.0137 -0.3712 -0.0706
 2901DPPC   C1A56501  22.943  23.182  18.488  0.2084  0.0642  0.2407
 2901DPPC   C2A56502  22.989  23.031  18.836 -0.0212 -0.1916 -0.2793
 2901DPPC   C3A56503  22.732  22.843  19.075 -0.1754  0.2781 -0.0036
 2901DPPC   C4A56504  22.498  22.424  19.026 -0.2802 -0.0907  0.0567
 2901DPPC   C1B56505  23.036  23.089  17.912 -0.1476 -0.1318  0.1485
 2901DPPC   C2B56506  22.746  22.777  17.712  0.1131  0.1100 -0.0312
 2901DPPC   C3B56507  22.586  22.332  17.614 -0.1262  0.2369 -0.0944
 2901DPPC   C4B56508  22.600  22.322  17.158 -0.6117  0.2838  0.2379
 2902DPPC   NC356509  14.774  21.557  21.344  0.3605  0.0854 -0.0688
 2902DPPC   PO456510  14.675  21.971  21.076 -0.1188 -0.1554  0.2089
 2902DPPC   GL156511  14.985  22.157  21.176  0.0479 -0.0007  0.1424
 2902DPPC   GL256512  15.066  22.485  21.131  0.0439  0.1614  0.2262
 2902DPPC   C1A56513  15.446  22.128  21.316 -0.1848  0.0442  0.1659
 2902DPPC   C2A56514  15.689  22.370  21.586  0.4068  0.4632 -0.3055
 2902DPPC   C3A56515  16.042  22.161  21.761 -0.3336  0.2902 -0.2632
 2902DPPC   C4A56516  16.357  22.126  22.074 -0.2654  0.2745 -0.0545
 2902DPPC   C1B56517  15.336  22.757  21.012  0.1037 -0.0228 -0.1026
 2902DPPC   C2B56518  15.447  23.146  20.928 -0.0176  0.1092  0.0319
 2902DPPC   C3B56519  15.295  23.577  20.765 -0.0430  0.1067 -0.0161
 2902DPPC   C4B56520  15.558  23.890  20.574 -0.1618  0.1353 -0.0247
 2903DPPC   NC356521  30.851  20.887   4.695  0.1105  0.0625  0.2119
 2903DPPC   PO456522  30.438  21.021   4.638 -0.3226 -0.1816  0.2131
 2903DPPC   GL156523  30.252  21.291   4.447 -0.7562  0.0800 -0.2542
 2903DPPC   GL256524  30.404  21.292   4.107 -0.0177  0.2689  0.1186
 2903DPPC   C1A56525  29.898  21.555   4.459  0.1953  0.0482 -0.1570
 2903DPPC   C2A56526  29.630  21.773   4.254  0.0313 -0.2412 -0.3688
 2903DPPC   C3A56527  29.200  21.837   4.093 -0.0791 -0.0680  0.0664
 2903DPPC   C4A56528  28.784  21.940   4.100 -0.1493  0.0651 -0.2466
 2903DPPC   C1B56529  30.285  21.316   3.658 -0.0333  0.1465  0.0391
 2903DPPC   C2B56530  30.013  21.598   3.338 -0.0528 -0.0665  0.0049
 2903DPPC   C3B56531  29.940  21.995   3.072 -0.1895  0.0140 -0.2171
 2903DPPC   C4B56532  30.134  22.097   2.687 -0.1540  0.0935 -0.2370
 2904DPPC   NC356533  28.981  38.962   3.399  0.0565  0.1632  0.5082
 2904DPPC   PO456534  28.549  38.835   3.348 -0.3180 -0.5365  0.0557
 2904DPPC   GL156535  28.401  38.549   3.071 -0.2215 -0.0968 -0.3362
 2904DPPC   GL256536  28.055  38.469   2.991  0.1366  0.2794 -0.1413
 2904DPPC   C1A56537  28.458  38.246   2.835 -0.3851 -0.0667  0.2889
 2904DPPC   C2A56538  28.455  37.949   2.555 -0.1061  0.2136  0.2743
 2904DPPC   C3A56539  28.711  37.651   2.454 -0.0820  0.1685  0.1430
 2904DPPC   C4A56540  28.817  37.362   2.096  0.0813  0.1103  0.0368
 2904DPPC   C1B56541  27.936  38.071   2.750  0.2416 -0.3519 -0.0552
 2904DPPC   C2B56542  28.045  37.609   2.527 -0.1392  0.2768 -0.0771
 2904DPPC   C3B56543  27.928  37.530   2.218  0.3423  0.2378  0.2485
 2904DPPC   C4B56544  27.912  37.207   1.855 -0.0610 -0.2340  0.0521
 2905DPPC   NC356545  19.725  16.809  24.513  0.1911  0.0911 -0.0350
 2905DPPC   PO456546  20.126  16.622  24.749 -0.0591 -0.0333 -0.0548
 2905DPPC   GL156547  20.198  17.021  24.511 -0.1793 -0.1644 -0.0366
 2905DPPC   GL256548  19.995  17.229  24.413 -0.1461 -0.2550 -0.2367
 2905DPPC   C1A56549  20.618  17.132  24.494 -0.1809 -0.2685 -0.0414
 2905DPPC   C2A56550  20.948  17.218  24.648  0.3169  0.2171  0.1529
 2905DPPC   C3A56551  21.330  17.148  24.945 -0.4011  0.0284  0.1192
 2905DPPC   C4A56552  21.749  17.401  25.063  0.1819 -0.1095 -0.1494
 2905DPPC   C1B56553  20.245  17.518  24.257 -0.0830  0.3397 -0.0706
 2905DPPC   C2B56554  20.398  17.990  24.350  0.1852 -0.1045  0.0514
 2905DPPC   C3B56555  20.172  18.393  24.559 -0.2713 -0.2702  0.5164
 2905DPPC   C4B56556  19.855  18.696  24.447  0.2862  0.1868 -0.0351
 2906DPPC   NC356557  24.032  29.443   7.664  0.0123  0.2472 -0.0892
 2906DPPC   PO456558  24.269  29.056   7.920  0.0788  0.0832 -0.0966
 2906DPPC   GL156559  24.386  28.543   7.757 -0.5333 -0.0883 -0.1377
 2906DPPC   GL256560  24.682  28.325   7.932  0.0668 -0.3023 -0.0858
 2906DPPC   C1A56561  24.482  28.288   7.345  0.0832  0.1338 -0.2838
 2906DPPC   C2A56562  24.195  28.012   7.012  0.4755  0.2072  0.0745
 2906DPPC   C3A56563  24.008  27.844   6.586  0.0969 -0.1108 -0.4636
 2906DPPC   C4A56564  23.984  27.742   6.204 -0.0051 -0.1313  0.0072
 2906DPPC   C1B56565  24.672  27.879   7.933  0.1026  0.2047 -0.1716
 2906DPPC   C2B56566  24.349  27.598   7.696 -0.1205 -0.1050  0.3546
 2906DPPC   C3B56567  24.230  27.268   7.656 -0.3544 -0.0227  0.2474
 2906DPPC   C4B56568  24.062  26.873   7.532 -0.2372  0.0966  0.1524
 2907DPPC   NC356569  24.315  23.107  18.443  0.0689 -0.3082  0.2959
 2907DPPC   PO456570  24.295  22.842  18.231  0.0037 -0.0692  0.0287
 2907DPPC   GL156571  24.056  22.642  17.935 -0.0451  0.1762  0.0402
 2907DPPC   GL256572  24.073  22.287  17.926  0.4338 -0.2299  0.0603
 2907DPPC   C1A56573  23.597  22.543  18.036 -0.0173  0.1991  0.1929
 2907DPPC   C2A56574  23.171  22.360  17.936 -0.1668  0.0964 -0.1579
 2907DPPC   C3A56575  22.983  22.118  17.808 -0.1184 -0.2235 -0.0562
 2907DPPC   C4A56576  23.054  21.660  17.852 -0.0865 -0.2278 -0.0822
 2907DPPC   C1B56577  23.961  22.182  17.573  0.5052 -0.2842 -0.2285
 2907DPPC   C2B56578  23.844  21.753  17.489 -0.1213  0.2129  0.4046
 2907DPPC   C3B56579  23.650  21.596  17.883  0.0857  0.1769  0.0356
 2907DPPC   C4B56580  23.511  21.329  18.140 -0.1466  0.1067 -0.2289
 2908DPPC   NC356581  31.961  22.331   3.881 -0.0121  0.2091 -0.0331
 2908DPPC   PO456582  31.570  22.060   3.792  0.0520 -0.2010 -0.3984
 2908DPPC   GL156583  31.360  22.289   3.452  0.4157  0.1914 -0.3749
 2908DPPC   GL256584  31.161  22.638   3.470  0.2596 -0.3506  0.2237
 2908DPPC   C1A56585  31.130  22.328   3.090 -0.0558 -0.0125  0.3471
 2908DPPC   C2A56586  30.960  22.556   2.833 -0.0543 -0.1789  0.2786
 2908DPPC   C3A56587  30.926  22.836   2.522  0.1176 -0.2409  0.0764
 2908DPPC   C4A56588  31.197  22.992   2.332  0.1567 -0.2599  0.0523
 2908DPPC   C1B56589  31.096  22.977   3.249 -0.2029 -0.1231 -0.1857
 2908DPPC   C2B56590  30.887  23.288   3.005  0.3371  0.0804  0.1175
 2908DPPC   C3B56591  30.838  23.355   2.619  0.0939 -0.3019  0.0056
 2908DPPC   C4B56592  31.196  23.566   2.247 -0.1498  0.1639 -0.1036
 2909DPPC   NC356593  29.031  25.536   0.840 -0.0154  0.0667  0.0406
 2909DPPC   PO456594  28.997  25.534   1.240  0.0722 -0.2258  0.1281
 2909DPPC   GL156595  28.847  25.209   1.389  0.0235  0.1831 -0.0216
 2909DPPC   GL256596  28.803  25.487   1.675  0.0723  0.1704 -0.0400
 2909DPPC   C1A56597  28.680  24.902   1.487 -0.1674 -0.0692 -0.2729
 2909DPPC   C2A56598  28.857  24.498   1.731  0.1301 -0.1070  0.1871
 2909DPPC   C3A56599  28.975  24.154   1.969  0.3951 -0.1943  0.1517
 2909DPPC   C4A56600  28.845  24.015   2.409 -0.2290 -0.0861  0.0551
 2909DPPC   C1B56601  28.549  25.645   1.915 -0.1492  0.1553  0.0340
 2909DPPC   C2B56602  28.430  25.485   2.290 -0.0258 -0.0943 -0.1179
 2909DPPC   C3B56603  28.333  25.326   2.621 -0.1969 -0.3028 -0.2474
 2909DPPC   C4B56604  28.471  25.096   2.944  0.1959  0.2332  0.4120
 2910DPPC   NC356605  28.524  25.902  14.656 -0.1109  0.1551 -0.0275
 2910DPPC   PO456606  28.324  25.557  14.740 -0.1054 -0.1549 -0.0035
 2910DPPC   GL156607  28.444  25.217  14.520  0.1679  0.0936  0.0700
 2910DPPC   GL256608  28.352  24.906  14.669  0.0826  0.1601 -0.0647
 2910DPPC   C1A56609  28.707  25.024  14.142 -0.1106 -0.3201  0.2367
 2910DPPC   C2A56610  28.990  24.805  13.809 -0.1405  0.1319  0.2519
 2910DPPC   C3A56611  29.304  24.532  13.563 -0.0551  0.2344 -0.2051
 2910DPPC   C4A56612  29.585  24.283  13.351  0.2523 -0.0975  0.3245
 2910DPPC   C1B56613  28.200  24.920  14.197  0.1023 -0.0529  0.3230
 2910DPPC   C2B56614  28.320  24.811  13.748  0.4669 -0.0207 -0.1963
 2910DPPC   C3B56615  28.501  24.552  13.477 -0.1080  0.2456  0.0150
 2910DPPC   C4B56616  28.511  24.094  13.447  0.0265  0.4342  0.1554
 2911DPPC   NC356617  19.590  27.821  11.812  0.0547 -0.1087 -0.1168
 2911DPPC   PO456618  19.817  27.790  12.252 -0.4944 -0.1523 -0.1014
 2911DPPC   GL156619  20.021  27.879  12.641 -0.0964 -0.5024 -0.0017
 2911DPPC   GL256620  20.221  28.183  12.668 -0.1211 -0.0621  0.0918
 2911DPPC   C1A56621  20.211  27.782  13.024 -0.0860 -0.3450 -0.2680
 2911DPPC   C2A56622  20.435  27.723  13.454 -0.0424 -0.0487 -0.1115
 2911DPPC   C3A56623  20.744  27.739  13.824 -0.1056  0.1118  0.3411
 2911DPPC   C4A56624  21.099  27.809  14.182  0.1267  0.1940  0.0560
 2911DPPC   C1B56625  20.651  28.265  12.881  0.1980 -0.1283 -0.0925
 2911DPPC   C2B56626  20.956  28.418  13.152 -0.2749  0.1251  0.0875
 2911DPPC   C3B56627  21.349  28.518  13.474  0.0836  0.0467 -0.4516
 2911DPPC   C4B56628  21.405  28.583  13.866 -0.0891  0.4590  0.1015
 2912DPPC   NC356629  25.901  41.481  24.783  0.1572 -0.2035  0.3367
 2912DPPC   PO456630  26.152  41.334  25.101 -0.1973 -0.3374 -0.0087
 2912DPPC   GL156631  26.229  40.999  25.051  0.2043 -0.2894 -0.1699
 2912DPPC   GL256632  26.310  40.924  25.366  0.0045  0.0489 -0.1086
 2912DPPC   C1A56633  26.439  40.765  24.699 -0.1897  0.0233 -0.2199
 2912DPPC   C2A56634  26.691  40.468  24.474  0.1837  0.0168 -0.1130
 2912DPPC   C3A56635  26.936  40.211  24.214 -0.0242 -0.2086  0.1344
 2912DPPC   C4A56636  27.240  40.434  23.898 -0.2714  0.1910 -0.1309
 2912DPPC   C1B56637  26.388  40.496  25.163 -0.1228 -0.2656 -0.1053
 2912DPPC   C2B56638  26.601  40.247  24.923  0.1433  0.2608  0.0139
 2912DPPC   C3B56639  26.744  39.909  24.720 -0.0688 -0.0454 -0.2748
 2912DPPC   C4B56640  26.764  39.539  24.444  0.2058  0.2372  0.2904
 2913DPPC   NC356641  14.632  26.982   2.601 -0.0261  0.3177 -0.0718
 2913DPPC   PO456642  14.824  27.113   2.944  0.0390  0.2997  0.0566
 2913DPPC   GL156643  15.185  27.163   2.738 -0.1046 -0.0884  0.2837
 2913DPPC   GL256644  15.339  26.906   2.633 -0.0348  0.1061  0.0787
 2913DPPC   C1A56645  15.599  27.351   2.744  0.2384 -0.1207 -0.0696
 2913DPPC   C2A56646  16.013  27.532   2.880  0.1667 -0.0103 -0.0279
 2913DPPC   C3A56647  16.178  27.253   3.061 -0.1708  0.2035 -0.0496
 2913DPPC   C4A56648  16.291  26.820   3.174 -0.0856  0.0740 -0.1340
 2913DPPC   C1B56649  15.679  26.747   2.416  0.5443  0.0708  0.1899
 2913DPPC   C2B56650  15.984  26.891   2.179 -0.2001 -0.0682 -0.2800
 2913DPPC   C3B56651  16.167  27.230   1.837  0.1942 -0.2218 -0.0336
 2913DPPC   C4B56652  15.938  27.421   1.586  0.0404  0.1714  0.2172
 2914DPPC   NC356653  25.738  29.119   8.169  0.3198  0.1120  0.0612
 2914DPPC   PO456654  25.817  29.090   7.828 -0.0673 -0.0693 -0.0393
 2914DPPC   GL156655  25.741  28.873   7.409 -0.5474 -0.1807 -0.3180
 2914DPPC   GL256656  25.636  29.169   7.131  0.0925 -0.0135 -0.2365
 2914DPPC   C1A56657  25.631  28.688   6.973  0.0588 -0.0424 -0.0345
 2914DPPC   C2A56658  25.411  28.277   6.900 -0.5025 -0.1480  0.1050
 2914DPPC   C3A56659  25.488  27.910   6.632  0.1534 -0.0612  0.1572
 2914DPPC   C4A56660  25.507  27.719   6.183 -0.2769 -0.0620 -0.0275
 2914DPPC   C1B56661  25.410  29.269   6.756  0.0418 -0.0123  0.0929
 2914DPPC   C2B56662  25.331  29.614   6.400 -0.0001  0.1066  0.0812
 2914DPPC   C3B56663  25.272  29.805   6.010 -0.3401 -0.4062  0.0833
 2914DPPC   C4B56664  25.266  29.496   5.657 -0.1356 -0.2204  0.2328
 2915DPPC   NC356665  23.813  40.518  25.697  0.0441 -0.0262 -0.0951
 2915DPPC   PO456666  24.014  40.649  25.338 -0.2834  0.0762  0.2935
 2915DPPC   GL156667  24.068  40.204  25.412  0.2316  0.2537  0.2343
 2915DPPC   GL256668  24.458  40.263  25.304  0.0866  0.2188  0.2915
 2915DPPC   C1A56669  24.263  39.896  25.739 -0.1729 -0.2084  0.1769
 2915DPPC   C2A56670  24.392  39.488  25.670  0.0175  0.0549  0.0103
 2915DPPC   C3A56671  24.464  39.175  25.400 -0.1124 -0.1258  0.2215
 2915DPPC   C4A56672  24.604  38.766  25.303 -0.0162  0.1766  0.0694
 2915DPPC   C1B56673  24.608  40.087  24.988 -0.0150 -0.2908  0.2513
 2915DPPC   C2B56674  24.857  40.282  24.661 -0.3574 -0.2376 -0.1766
 2915DPPC   C3B56675  24.933  40.010  24.386  0.1487  0.0039  0.0425
 2915DPPC   C4B56676  24.773  39.636  24.114 -0.3290  0.2818 -0.4713
 2916DPPC   NC356677  25.754  21.971  18.488 -0.4026 -0.0541 -0.2041
 2916DPPC   PO456678  25.524  22.145  18.219 -0.0955 -0.0682  0.2471
 2916DPPC   GL156679  25.385  21.785  18.190  0.2034 -0.2811 -0.1560
 2916DPPC   GL256680  25.538  21.560  18.258 -0.0161  0.3920  0.3261
 2916DPPC   C1A56681  25.148  21.555  17.957  0.0084  0.2237  0.3458
 2916DPPC   C2A56682  24.945  21.257  17.688  0.0333 -0.0979 -0.2902
 2916DPPC   C3A56683  24.620  20.912  17.567  0.2380 -0.0498 -0.0913
 2916DPPC   C4A56684  24.512  20.605  17.362  0.0467 -0.0299  0.0156
 2916DPPC   C1B56685  25.546  21.126  18.039 -0.2244  0.2871  0.2204
 2916DPPC   C2B56686  25.193  20.802  17.884 -0.1307 -0.0807  0.1394
 2916DPPC   C3B56687  25.174  20.398  17.986 -0.1421 -0.0676 -0.1612
 2916DPPC   C4B56688  24.882  20.066  18.072 -0.2488 -0.1075 -0.2219
 2917DPPC   NC356689  15.928  22.664   0.485  0.1068  0.0782 -0.2410
 2917DPPC   PO456690  15.921  22.383   0.260  0.2180 -0.1856  0.1924
 2917DPPC   GL156691  15.895  22.437  26.755 -0.0848 -0.0183 -0.0612
 2917DPPC   GL256692  15.911  22.812  26.579  0.0022  0.0046 -0.0139
 2917DPPC   C1A56693  16.254  22.428  26.561  0.1382 -0.1087 -0.0385
 2917DPPC   C2A56694  16.680  22.287  26.451 -0.0964  0.1977  0.0198
 2917DPPC   C3A56695  17.031  22.302  26.171 -0.1635  0.2396 -0.0585
 2917DPPC   C4A56696  17.219  22.586  26.317  0.0720  0.2120  0.0613
 2917DPPC   C1B56697  16.027  22.882  26.154 -0.3768 -0.0872  0.2037
 2917DPPC   C2B56698  16.183  23.304  26.040  0.3288  0.1221  0.3926
 2917DPPC   C3B56699  16.428  23.544  25.725 -0.2036  0.2748 -0.1355
 2917DPPC   C4B56700  16.269  23.833  25.428  0.2767  0.1764 -0.0708
 2918DPPC   NC356701  31.068  18.475  24.836  0.0665 -0.1484  0.2744
 2918DPPC   PO456702  31.500  18.640  24.581 -0.2254  0.3290  0.0051
 2918DPPC   GL156703  31.080  18.928  24.584  0.0455 -0.3142 -0.0844
 2918DPPC   GL256704  30.787  18.824  24.741  0.1832  0.0986 -0.0058
 2918DPPC   C1A56705  30.636  19.123  24.377  0.1964 -0.1918  0.0238
 2918DPPC   C2A56706  30.479  19.521  24.386  0.2973  0.1790  0.0735
 2918DPPC   C3A56707  30.263  19.931  24.434 -0.4323 -0.0003 -0.0243
 2918DPPC   C4A56708  30.512  20.184  24.759  0.3442  0.1836  0.1525
 2918DPPC   C1B56709  30.357  18.859  24.729  0.0616  0.1641  0.1320
 2918DPPC   C2B56710  30.103  19.281  24.610  0.1776 -0.1948 -0.0636
 2918DPPC   C3B56711  29.862  19.641  24.408  0.1242  0.0215 -0.0620
 2918DPPC   C4B56712  29.755  20.028  24.323  0.0458  0.2486 -0.1185
 2919DPPC   NC356713  24.343  15.274  21.572 -0.0598 -0.2953 -0.1608
 2919DPPC   PO456714  24.679  15.447  21.546 -0.5251 -0.1472 -0.3212
 2919DPPC   GL156715  24.802  15.740  21.636  0.1949 -0.1362  0.0712
 2919DPPC   GL256716  24.611  15.912  21.797 -0.1183  0.1713 -0.0993
 2919DPPC   C1A56717  25.057  16.124  21.775  0.0519 -0.1698 -0.0412
 2919DPPC   C2A56718  25.132  16.545  21.925 -0.0765  0.1664  0.3681
 2919DPPC   C3A56719  25.161  16.963  21.778 -0.0708  0.0203  0.1308
 2919DPPC   C4A56720  24.891  17.131  21.560  0.2416  0.0738  0.0022
 2919DPPC   C1B56721  24.281  16.092  22.126 -0.0762  0.1587  0.2226
 2919DPPC   C2B56722  23.975  16.212  22.412  0.1253 -0.1412 -0.0459
 2919DPPC   C3B56723  23.868  16.328  22.808 -0.1629  0.0890  0.0733
 2919DPPC   C4B56724  23.566  16.601  22.947 -0.2247  0.2756  0.0339
 2920DPPC   NC356725  31.224  41.498  24.779 -0.3677 -0.4916  0.0261
 2920DPPC   PO456726  31.001  41.701  25.095 -0.2278 -0.0909 -0.1670
 2920DPPC   GL156727  30.800  41.285  24.925 -0.3304 -0.2350  0.2463
 2920DPPC   GL256728  30.624  41.158  24.586  0.0062  0.3654 -0.3774
 2920DPPC   C1A56729  30.961  40.790  24.992  0.2109 -0.4097 -0.0764
 2920DPPC   C2A56730  30.723  40.461  24.837 -0.6804  0.0053  0.1828
 2920DPPC   C3A56731  30.732  40.105  24.604 -0.2007  0.0434 -0.0657
 2920DPPC   C4A56732  30.855  39.831  24.194  0.3167  0.1402 -0.0792
 2920DPPC   C1B56733  30.554  40.775  24.484  0.1193  0.2630  0.0933
 2920DPPC   C2B56734  30.314  40.455  24.422 -0.0793  0.0615 -0.0154
 2920DPPC   C3B56735  30.206  40.060  24.684  0.0216 -0.1363  0.2873
 2920DPPC   C4B56736  30.124  39.657  24.608  0.0324  0.2537  0.1113
 2921DPPC   NC356737  23.675  17.100  18.187  0.3092  0.0303  0.0621
 2921DPPC   PO456738  23.826  16.812  18.468 -0.1196 -0.0041  0.2444
 2921DPPC   GL156739  23.891  17.061  18.955 -0.0328  0.1961  0.1673
 2921DPPC   GL256740  24.140  17.128  18.805  0.2474  0.0243 -0.1894
 2921DPPC   C1A56741  23.795  17.158  19.333 -0.2326  0.2682 -0.1761
 2921DPPC   C2A56742  23.552  17.013  19.717  0.0676  0.1208 -0.1662
 2921DPPC   C3A56743  23.532  16.728  20.092  0.2644  0.1288 -0.2602
 2921DPPC   C4A56744  23.416  16.517  20.462 -0.1020 -0.3063 -0.0229
 2921DPPC   C1B56745  23.956  17.540  19.003  0.0568  0.2651  0.1011
 2921DPPC   C2B56746  23.735  17.685  19.313 -0.0318 -0.1703  0.0837
 2921DPPC   C3B56747  23.440  17.551  19.507  0.0123  0.1059  0.0015
 2921DPPC   C4B56748  23.185  17.239  19.388  0.1588  0.3693 -0.0535
 2922DPPC   NC356749  24.157  15.287  20.953  0.1476  0.0960 -0.2202
 2922DPPC   PO456750  23.615  15.355  20.865 -0.0683  0.2273  0.2545
 2922DPPC   GL156751  23.710  15.757  21.080 -0.4333  0.1360 -0.0064
 2922DPPC   GL256752  23.549  16.112  20.884 -0.4081  0.2451 -0.2334
 2922DPPC   C1A56753  23.975  15.994  21.234  0.1833  0.1441  0.1083
 2922DPPC   C2A56754  24.174  16.160  21.557 -0.0525  0.0716 -0.1159
 2922DPPC   C3A56755  24.545  16.441  21.652  0.1095 -0.1470 -0.1288
 2922DPPC   C4A56756  24.672  16.730  21.758 -0.3878  0.2245 -0.2901
 2922DPPC   C1B56757  23.424  16.595  20.949 -0.0838  0.1842  0.0717
 2922DPPC   C2B56758  23.236  16.955  20.981 -0.3936 -0.3931 -0.2029
 2922DPPC   C3B56759  22.816  17.091  21.235 -0.1691 -0.1522  0.2754
 2922DPPC   C4B56760  22.694  17.571  21.292 -0.3363 -0.0061 -0.0786
 2923DPPC   NC356761  35.969  37.134  15.766  0.4361  0.3376  0.0370
 2923DPPC   PO456762  35.595  37.254  15.491  0.1062  0.2017 -0.4911
 2923DPPC   GL156763  35.220  37.219  15.640 -0.2472  0.1787 -0.5846
 2923DPPC   GL256764  35.155  36.956  15.411 -0.1235 -0.0102  0.0443
 2923DPPC   C1A56765  34.992  37.168  16.065  0.0279  0.2129 -0.2463
 2923DPPC   C2A56766  34.715  36.952  16.210  0.1112  0.0486  0.0376
 2923DPPC   C3A56767  34.395  36.639  16.214 -0.1215  0.1851 -0.1857
 2923DPPC   C4A56768  34.121  36.223  16.182  0.1057 -0.0198  0.0588
 2923DPPC   C1B56769  34.913  36.782  15.757  0.0556  0.0233 -0.4272
 2923DPPC   C2B56770  34.834  36.398  15.929  0.0885  0.0118  0.3559
 2923DPPC   C3B56771  34.620  36.026  15.951  0.1362 -0.1673 -0.0362
 2923DPPC   C4B56772  34.638  35.547  16.069 -0.0659  0.0830  0.1479
 2924DPPC   NC356773  26.711  24.120  23.110  0.2443  0.0265 -0.2099
 2924DPPC   PO456774  26.476  24.046  23.464  0.0759 -0.2705  0.1181
 2924DPPC   GL156775  26.302  23.946  23.797  0.1926 -0.0056  0.0794
 2924DPPC   GL256776  26.367  23.945  24.170  0.0905 -0.0543  0.2327
 2924DPPC   C1A56777  25.962  23.635  23.883  0.0016  0.3990 -0.0111
 2924DPPC   C2A56778  25.622  23.276  23.820  0.0451  0.0522  0.1752
 2924DPPC   C3A56779  25.262  22.916  23.930 -0.0218  0.0481 -0.1687
 2924DPPC   C4A56780  24.918  22.719  23.940  0.2634  0.1694  0.1983
 2924DPPC   C1B56781  25.909  24.061  24.224  0.1576 -0.2661  0.1525
 2924DPPC   C2B56782  25.552  23.781  24.221  0.3489  0.3582 -0.0647
 2924DPPC   C3B56783  25.240  23.553  24.105 -0.1093 -0.3564 -0.1975
 2924DPPC   C4B56784  24.915  23.202  24.210  0.1748  0.1354 -0.0706
 2925DPPC   NC356785  36.120  21.371  17.909 -0.0844 -0.1772  0.0430
 2925DPPC   PO456786  36.109  21.398  17.571  0.2667  0.1691 -0.0940
 2925DPPC   GL156787  35.643  21.542  17.709 -0.0253  0.0260  0.5607
 2925DPPC   GL256788  35.648  21.678  18.097  0.1428 -0.1299 -0.2724
 2925DPPC   C1A56789  35.300  21.676  17.709  0.0739 -0.1941 -0.1859
 2925DPPC   C2A56790  34.922  21.624  17.575  0.2067 -0.3913 -0.1738
 2925DPPC   C3A56791  34.677  21.864  17.410  0.1899 -0.2919 -0.2941
 2925DPPC   C4A56792  34.389  22.015  17.177  0.2470 -0.1149 -0.3923
 2925DPPC   C1B56793  35.463  22.088  18.063  0.0974 -0.2641  0.1836
 2925DPPC   C2B56794  35.174  22.416  18.217 -0.1461  0.0093 -0.1972
 2925DPPC   C3B56795  35.138  22.816  18.271 -0.1037 -0.2233 -0.1040
 2925DPPC   C4B56796  34.950  23.205  18.364  0.1187  0.0655  0.0503
 2926DPPC   NC356797  23.621  26.304  21.888  0.0620  0.0303 -0.1974
 2926DPPC   PO456798  23.901  25.853  21.797  0.2257 -0.0136  0.1248
 2926DPPC   GL156799  23.713  25.467  21.693 -0.1194 -0.1476 -0.1835
 2926DPPC   GL256800  23.328  25.574  21.775  0.0791  0.0448 -0.3007
 2926DPPC   C1A56801  23.516  25.091  21.826  0.2860 -0.2348 -0.1652
 2926DPPC   C2A56802  23.169  25.025  21.983 -0.3849  0.1534  0.3391
 2926DPPC   C3A56803  22.779  24.924  22.104 -0.0865  0.2476  0.0363
 2926DPPC   C4A56804  22.670  24.765  22.481 -0.0918 -0.1058 -0.0897
 2926DPPC   C1B56805  23.008  25.412  21.723 -0.1525  0.3263  0.4681
 2926DPPC   C2B56806  22.559  25.184  21.718 -0.2549 -0.3800  0.2254
 2926DPPC   C3B56807  22.286  25.059  21.926  0.0777 -0.0100  0.2125
 2926DPPC   C4B56808  22.282  25.009  22.292  0.0615 -0.1358  0.1545
 2927DPPC   NC356809  27.337  23.965  24.259 -0.1139 -0.1677 -0.0325
 2927DPPC   PO456810  27.751  23.916  24.570  0.0537 -0.2594 -0.2710
 2927DPPC   GL156811  27.270  23.849  24.722  0.3154 -0.2032 -0.0774
 2927DPPC   GL256812  27.171  24.153  24.698  0.0271  0.2351  0.0824
 2927DPPC   C1A56813  27.124  23.525  24.830  0.3157 -0.0131 -0.0785
 2927DPPC   C2A56814  26.840  23.200  24.857 -0.0580 -0.1201 -0.0151
 2927DPPC   C3A56815  26.477  23.066  25.029  0.1032 -0.0877  0.0332
 2927DPPC   C4A56816  26.081  22.936  25.282 -0.4678 -0.0192 -0.1078
 2927DPPC   C1B56817  27.237  24.043  25.158 -0.2642 -0.1082  0.2514
 2927DPPC   C2B56818  27.134  23.957  25.555  0.3493 -0.0743  0.1684
 2927DPPC   C3B56819  26.755  23.856  25.738  0.1585  0.3264 -0.3054
 2927DPPC   C4B56820  26.374  24.058  25.823 -0.2554 -0.0845 -0.1875
 2928DPPC   NC356821  27.623  23.341  23.710 -0.1377 -0.1232 -0.1343
 2928DPPC   PO456822  27.483  23.064  23.445  0.0497 -0.0623  0.0287
 2928DPPC   GL156823  27.276  23.021  23.768  0.0479  0.1345 -0.1886
 2928DPPC   GL256824  27.429  22.717  23.876  0.1201  0.2002 -0.2351
 2928DPPC   C1A56825  26.844  22.978  24.019  0.1201  0.1356 -0.1553
 2928DPPC   C2A56826  26.671  22.908  24.413  0.1375 -0.1427  0.2347
 2928DPPC   C3A56827  26.323  22.776  24.639 -0.0195 -0.2738  0.1612
 2928DPPC   C4A56828  25.986  22.537  24.815 -0.2387  0.3028  0.4876
 2928DPPC   C1B56829  27.090  22.426  24.039 -0.0885 -0.1661  0.0921
 2928DPPC   C2B56830  26.941  22.489  24.400  0.0374  0.1524  0.2579
 2928DPPC   C3B56831  26.730  22.514  24.880  0.1141  0.1082  0.3686
 2928DPPC   C4B56832  26.382  22.542  25.157  0.5366 -0.5660 -0.1100
 2929DPPC   NC356833  14.422  29.141   2.568 -0.0898  0.2153  0.1339
 2929DPPC   PO456834  14.642  28.924   2.866 -0.0300 -0.0862  0.0071
 2929DPPC   GL156835  14.658  28.654   2.515  0.0198  0.0141 -0.1506
 2929DPPC   GL256836  14.787  28.745   2.232  0.0801  0.0079 -0.1670
 2929DPPC   C1A56837  14.767  28.274   2.282 -0.1414  0.2129 -0.1302
 2929DPPC   C2A56838  15.095  28.078   2.118  0.0358  0.0454 -0.1129
 2929DPPC   C3A56839  15.528  28.138   1.915  0.0209  0.0955  0.0007
 2929DPPC   C4A56840  15.945  28.139   1.768 -0.1389  0.2850 -0.0151
 2929DPPC   C1B56841  15.133  28.580   2.381  0.2476 -0.0081  0.2399
 2929DPPC   C2B56842  15.478  28.587   2.267 -0.0514  0.2637  0.6004
 2929DPPC   C3B56843  15.860  28.417   2.222 -0.2491 -0.2222  0.0694
 2929DPPC   C4B56844  16.297  28.238   2.110 -0.1054  0.1226 -0.0728
 2930DPPC   NC356845  15.575  32.955   0.262  0.1940  0.1214 -0.0844
 2930DPPC   PO456846  15.887  32.879  26.904 -0.1821 -0.0814 -0.1393
 2930DPPC   GL156847  16.163  32.531  26.797 -0.1341 -0.0741  0.2067
 2930DPPC   GL256848  16.007  32.307  26.630 -0.0618 -0.2652 -0.2456
 2930DPPC   C1A56849  16.479  32.308  26.556 -0.1538 -0.1624 -0.2472
 2930DPPC   C2A56850  16.783  32.129  26.509  0.1679 -0.0133 -0.1161
 2930DPPC   C3A56851  17.233  32.034  26.679 -0.0222 -0.0782  0.0845
 2930DPPC   C4A56852  17.693  32.157  26.763  0.1966  0.1524 -0.2373
 2930DPPC   C1B56853  16.251  31.885  26.736 -0.3785 -0.0524 -0.1016
 2930DPPC   C2B56854  16.584  31.741   0.010  0.0979 -0.2606  0.0686
 2930DPPC   C3B56855  17.008  31.485   0.009 -0.0496 -0.1292  0.2128
 2930DPPC   C4B56856  17.439  31.404   0.069  0.1053  0.1166  0.0821
 2931DPPC   NC356857  23.674  38.322  13.849 -0.2805 -0.2218 -0.1164
 2931DPPC   PO456858  23.958  38.438  13.450 -0.0284 -0.1834  0.2061
 2931DPPC   GL156859  24.195  38.167  13.763  0.0214 -0.3331 -0.0264
 2931DPPC   GL256860  24.407  37.889  13.690  0.2112  0.3303 -0.1188
 2931DPPC   C1A56861  24.158  38.074  14.188 -0.0094  0.0876  0.1133
 2931DPPC   C2A56862  23.831  37.785  14.268  0.0816  0.1086 -0.1611
 2931DPPC   C3A56863  23.571  37.340  14.180  0.2331  0.1699 -0.0123
 2931DPPC   C4A56864  23.416  36.961  14.415 -0.0868  0.0251  0.0318
 2931DPPC   C1B56865  24.130  37.565  13.877  0.2220  0.5080  0.1754
 2931DPPC   C2B56866  24.072  37.234  14.182  0.1666  0.3174 -0.0007
 2931DPPC   C3B56867  23.964  36.964  14.366 -0.1953  0.1067 -0.4169
 2931DPPC   C4B56868  23.730  36.539  14.579  0.1830 -0.0236  0.1430
 2932DPPC   NC356869  18.203  21.756   3.535 -0.2426 -0.0026 -0.0679
 2932DPPC   PO456870  18.495  21.474   3.351  0.1181 -0.0758  0.0427
 2932DPPC   GL156871  18.845  21.597   3.160 -0.1831  0.0269 -0.1806
 2932DPPC   GL256872  19.043  21.895   3.210  0.1369 -0.1727  0.3158
 2932DPPC   C1A56873  19.111  21.607   2.788 -0.0332 -0.1857 -0.0861
 2932DPPC   C2A56874  19.394  21.801   2.554 -0.1439  0.2584  0.1513
 2932DPPC   C3A56875  19.711  22.026   2.466  0.1011 -0.2313  0.5021
 2932DPPC   C4A56876  19.755  22.367   2.168  0.0145 -0.0486  0.0673
 2932DPPC   C1B56877  19.262  22.109   2.954  0.0874  0.1000 -0.1355
 2932DPPC   C2B56878  19.447  22.445   2.785 -0.1571  0.1259  0.0228
 2932DPPC   C3B56879  19.791  22.688   3.018 -0.0400  0.0246  0.0234
 2932DPPC   C4B56880  19.938  22.656   3.472 -0.2041  0.0209  0.0715
 2933DPPC   NC356881  25.621  40.982  26.797 -0.2628 -0.0867 -0.0452
 2933DPPC   PO456882  25.619  40.653   0.141  0.2609 -0.0785 -0.2059
 2933DPPC   GL156883  25.883  40.266   0.139 -0.3486  0.0216  0.1742
 2933DPPC   GL256884  25.868  40.059   0.469  0.1683  0.2118  0.3374
 2933DPPC   C1A56885  25.926  39.908  26.760 -0.2744  0.2831  0.0646
 2933DPPC   C2A56886  26.025  39.496  26.584  0.1446  0.0243 -0.1840
 2933DPPC   C3A56887  26.132  39.258  26.161 -0.0875 -0.2123  0.0371
 2933DPPC   C4A56888  26.249  39.094  25.799 -0.1876  0.1286 -0.1155
 2933DPPC   C1B56889  25.930  39.625   0.325  0.3146  0.0361 -0.1876
 2933DPPC   C2B56890  26.163  39.300   0.306 -0.1784 -0.0825  0.0628
 2933DPPC   C3B56891  25.929  38.942   0.171 -0.4305 -0.0995  0.0398
 2933DPPC   C4B56892  25.893  38.660  26.819 -0.1002  0.0651  0.0439
 2934DPPC   NC356893  27.330  28.630   2.102  0.2439  0.3914  0.2948
 2934DPPC   PO456894  27.505  28.325   2.429  0.1221 -0.0100  0.0079
 2934DPPC   GL156895  27.425  27.920   2.390  0.0902  0.1112  0.2110
 2934DPPC   GL256896  27.666  27.755   2.488  0.1690  0.1864  0.2522
 2934DPPC   C1A56897  27.088  27.886   2.709  0.1536  0.0083 -0.1281
 2934DPPC   C2A56898  26.824  27.497   2.834 -0.0036  0.2342  0.1486
 2934DPPC   C3A56899  26.721  27.438   3.294 -0.3335 -0.0311 -0.3241
 2934DPPC   C4A56900  26.391  27.415   3.557 -0.1131  0.0342  0.1372
 2934DPPC   C1B56901  27.536  27.770   2.847 -0.2237 -0.1810  0.1288
 2934DPPC   C2B56902  27.210  27.611   3.177  0.0714 -0.2175 -0.1039
 2934DPPC   C3B56903  27.170  27.263   3.579 -0.2647  0.0427  0.0616
 2934DPPC   C4B56904  26.974  27.062   3.778  0.2572  0.0074  0.1005
 2935DPPC   NC356905  15.141  27.564  17.844  0.0785 -0.1505 -0.3048
 2935DPPC   PO456906  15.538  27.619  17.702  0.1750 -0.0344 -0.2865
 2935DPPC   GL156907  15.838  27.814  17.867  0.0752 -0.1181 -0.1981
 2935DPPC   GL256908  16.042  27.596  18.029 -0.1619 -0.4255  0.0441
 2935DPPC   C1A56909  16.206  28.083  17.979  0.1045 -0.0980 -0.0046
 2935DPPC   C2A56910  16.692  27.891  17.982  0.1678  0.3363 -0.1809
 2935DPPC   C3A56911  17.084  28.059  18.105 -0.2272  0.0369  0.1433
 2935DPPC   C4A56912  17.401  28.445  18.135 -0.1346 -0.1808 -0.2866
 2935DPPC   C1B56913  16.145  27.765  18.501  0.1733 -0.0967  0.1993
 2935DPPC   C2B56914  16.126  28.174  18.505 -0.2234 -0.3506 -0.0185
 2935DPPC   C3B56915  15.743  28.511  18.709  0.3768 -0.1222  0.0917
 2935DPPC   C4B56916  15.517  28.260  18.943  0.0568 -0.0024  0.4463
 2936DPPC   NC356917  23.063  24.406  18.458  0.0526 -0.1045  0.0396
 2936DPPC   PO456918  23.209  24.578  18.836  0.0006  0.0239  0.0892
 2936DPPC   GL156919  22.919  24.296  19.009  0.0793 -0.2095 -0.1536
 2936DPPC   GL256920  22.796  24.087  18.839  0.0625 -0.0144 -0.1530
 2936DPPC   C1A56921  22.848  24.081  19.370 -0.1277  0.1818  0.4386
 2936DPPC   C2A56922  23.107  23.804  19.721 -0.0164  0.0555 -0.4430
 2936DPPC   C3A56923  23.021  23.357  19.761 -0.0178 -0.0419  0.2166
 2936DPPC   C4A56924  22.691  23.098  19.464  0.3187  0.1893  0.0521
 2936DPPC   C1B56925  22.469  24.416  19.105 -0.1608 -0.0034  0.2026
 2936DPPC   C2B56926  22.134  24.525  19.377  0.2821 -0.1870 -0.2943
 2936DPPC   C3B56927  21.679  24.301  19.654  0.1006  0.0419 -0.1188
 2936DPPC   C4B56928  21.312  24.169  19.982 -0.1993 -0.0540  0.0697
 2937DPPC   NC356929  23.372  28.012   8.656 -0.0309  0.0134  0.1382
 2937DPPC   PO456930  23.248  27.629   8.448 -0.3078 -0.1050  0.0806
 2937DPPC   GL156931  23.140  27.564   8.014 -0.0797  0.1196  0.0672
 2937DPPC   GL256932  23.332  27.681   7.696  0.2342 -0.0565 -0.1470
 2937DPPC   C1A56933  22.859  27.711   7.657  0.0226 -0.0250 -0.0800
 2937DPPC   C2A56934  22.724  27.671   7.223  0.1516 -0.0783 -0.0294
 2937DPPC   C3A56935  22.586  27.327   6.965  0.4429  0.1944 -0.1602
 2937DPPC   C4A56936  22.642  27.051   6.646 -0.2010 -0.1177  0.0213
 2937DPPC   C1B56937  23.243  27.424   7.331  0.0360  0.0356 -0.1816
 2937DPPC   C2B56938  23.194  27.207   6.934 -0.1139  0.2687  0.2247
 2937DPPC   C3B56939  23.500  26.995   6.685  0.0986 -0.2105  0.3135
 2937DPPC   C4B56940  23.660  26.570   6.802  0.1101  0.2940 -0.1482
 2938DPPC   NC356941  23.415  25.290  19.900 -0.3014 -0.0468 -0.3097
 2938DPPC   PO456942  23.768  25.085  20.141  0.0150 -0.1099  0.0685
 2938DPPC   GL156943  23.490  24.821  20.299 -0.0656 -0.3703 -0.0903
 2938DPPC   GL256944  23.235  24.968  20.276 -0.2846  0.1911  0.0601
 2938DPPC   C1A56945  23.295  24.373  20.510 -0.1838 -0.1275 -0.0240
 2938DPPC   C2A56946  23.090  24.098  20.706  0.1242 -0.2045 -0.1757
 2938DPPC   C3A56947  22.537  24.080  20.777  0.0966 -0.0688 -0.3845
 2938DPPC   C4A56948  22.256  23.707  20.814  0.1054  0.1929  0.3328
 2938DPPC   C1B56949  22.998  24.639  20.288 -0.0064  0.0260  0.0086
 2938DPPC   C2B56950  22.760  24.216  20.293  0.0499 -0.0034  0.0377
 2938DPPC   C3B56951  22.408  23.850  20.313 -0.0676 -0.0366 -0.0225
 2938DPPC   C4B56952  22.109  23.594  20.312  0.0593 -0.2432  0.1401
 2939DPPC   NC356953  32.753  20.970   1.449 -0.3423 -0.2202 -0.0828
 2939DPPC   PO456954  33.196  21.138   1.361 -0.0520  0.1497 -0.3608
 2939DPPC   GL156955  32.907  21.414   1.233 -0.1618 -0.1898  0.0101
 2939DPPC   GL256956  32.633  21.468   1.498  0.0786  0.1655 -0.1078
 2939DPPC   C1A56957  32.570  21.663   1.057 -0.2243 -0.2846  0.1350
 2939DPPC   C2A56958  32.369  21.991   1.032 -0.4101 -0.2803  0.0038
 2939DPPC   C3A56959  32.484  22.448   0.947  0.0535  0.0916  0.2183
 2939DPPC   C4A56960  32.559  22.953   0.937  0.2479 -0.0509 -0.2194
 2939DPPC   C1B56961  32.220  21.384   1.298  0.4982  0.0436 -0.1598
 2939DPPC   C2B56962  32.102  21.367   0.845 -0.0135  0.1403 -0.2796
 2939DPPC   C3B56963  32.057  20.999   0.650 -0.0279  0.0445 -0.1878
 2939DPPC   C4B56964  31.842  20.675   0.450  0.2827 -0.1369 -0.1571
 2940DPPC   NC356965  27.586  16.123  23.857  0.3218 -0.1242 -0.3001
 2940DPPC   PO456966  27.418  16.506  23.849  0.0198  0.0076  0.1565
 2940DPPC   GL156967  27.177  16.803  24.065 -0.2356 -0.0628  0.2893
 2940DPPC   GL256968  27.213  17.147  24.211 -0.2067 -0.2326  0.2181
 2940DPPC   C1A56969  26.720  16.883  24.205 -0.3561  0.0843 -0.0596
 2940DPPC   C2A56970  26.410  17.089  24.294 -0.0452 -0.3786 -0.2191
 2940DPPC   C3A56971  26.188  17.205  24.586  0.1361 -0.3583 -0.0045
 2940DPPC   C4A56972  26.024  17.565  24.702  0.0964  0.2004  0.0453
 2940DPPC   C1B56973  26.826  17.322  23.968  0.0088 -0.1627  0.3006
 2940DPPC   C2B56974  26.658  17.661  23.676  0.1544  0.0710  0.3999
 2940DPPC   C3B56975  26.672  18.061  23.665 -0.1725 -0.1302 -0.0679
 2940DPPC   C4B56976  26.428  18.442  23.497 -0.1030  0.0265  0.3190
 2941DPPC   NC356977  17.487  32.165   2.358 -0.0355 -0.2524  0.1796
 2941DPPC   PO456978  17.057  31.959   2.282  0.1769  0.3426  0.1923
 2941DPPC   GL156979  17.312  31.571   2.157  0.1047 -0.0678 -0.0898
 2941DPPC   GL256980  17.172  31.564   1.881 -0.1233  0.1845 -0.2171
 2941DPPC   C1A56981  17.595  31.332   2.191  0.0321 -0.2671 -0.3506
 2941DPPC   C2A56982  18.047  31.292   2.052 -0.2261  0.0929 -0.3833
 2941DPPC   C3A56983  18.313  31.098   1.928  0.1752 -0.3515 -0.0294
 2941DPPC   C4A56984  18.708  30.879   1.746 -0.0844  0.1326 -0.1650
 2941DPPC   C1B56985  17.184  31.228   1.715  0.1796 -0.1526  0.1404
 2941DPPC   C2B56986  16.908  31.036   1.394  0.1940  0.1392 -0.1004
 2941DPPC   C3B56987  16.826  30.570   1.365 -0.1148 -0.0159  0.4171
 2941DPPC   C4B56988  16.626  30.149   1.483  0.0149 -0.1073  0.3326
 2942DPPC   NC356989  19.086  34.872   1.866  0.0657 -0.1834 -0.0738
 2942DPPC   PO456990  19.390  34.696   1.972 -0.0819  0.0291 -0.1321
 2942DPPC   GL156991  19.869  34.605   1.939 -0.3444 -0.0520 -0.3248
 2942DPPC   GL256992  19.970  34.883   1.884  0.1814 -0.2186 -0.0958
 2942DPPC   C1A56993  20.258  34.434   1.782  0.3127  0.2396 -0.0092
 2942DPPC   C2A56994  20.459  34.117   1.843 -0.4608 -0.1160 -0.0598
 2942DPPC   C3A56995  20.982  34.268   1.928 -0.0097 -0.0424  0.3709
 2942DPPC   C4A56996  21.355  34.200   2.050  0.0270 -0.3239  0.1117
 2942DPPC   C1B56997  19.913  34.832   1.505 -0.1291 -0.3210  0.0595
 2942DPPC   C2B56998  19.855  34.619   1.056  0.2812  0.1013 -0.0024
 2942DPPC   C3B56999  19.904  34.114   0.912 -0.1584 -0.4326 -0.1241
 2942DPPC   C4B57000  19.652  33.826   0.713  0.0212 -0.1612  0.1420
 2943DPPC   NC357001  15.431  20.653  23.538 -0.0021  0.2517  0.0953
 2943DPPC   PO457002  15.799  20.444  23.705  0.0086  0.0563 -0.0875
 2943DPPC   GL157003  16.233  20.529  23.549 -0.1054 -0.1479  0.2408
 2943DPPC   GL257004  16.377  20.827  23.334  0.2513 -0.1010 -0.2319
 2943DPPC   C1A57005  16.597  20.441  23.326  0.2208 -0.2691 -0.0748
 2943DPPC   C2A57006  16.493  20.462  22.927 -0.0654  0.1251  0.0697
 2943DPPC   C3A57007  16.121  20.411  22.793 -0.0618  0.2107 -0.2024
 2943DPPC   C4A57008  15.879  20.745  22.965  0.0102 -0.0196  0.0558
 2943DPPC   C1B57009  16.221  21.105  23.075 -0.0370 -0.0226  0.1536
 2943DPPC   C2B57010  16.218  21.352  22.766 -0.5542  0.2262 -0.6464
 2943DPPC   C3B57011  16.211  21.638  22.427 -0.0041  0.3202 -0.2544
 2943DPPC   C4B57012  16.557  21.638  22.082  0.0446  0.1217  0.0228
 2944DPPC   NC357013  30.920  31.115   9.877 -0.2254  0.3379 -0.0082
 2944DPPC   PO457014  31.106  30.947  10.106 -0.2129 -0.1259  0.0472
 2944DPPC   GL157015  31.061  30.627  10.461 -0.1024  0.0666 -0.0067
 2944DPPC   GL257016  30.685  30.468  10.543 -0.1786  0.0307  0.0689
 2944DPPC   C1A57017  31.067  30.519  10.908  0.4383  0.1199  0.2726
 2944DPPC   C2A57018  31.162  30.147  11.148  0.0413 -0.0309 -0.1056
 2944DPPC   C3A57019  30.834  29.892  11.293 -0.3456  0.1429  0.0046
 2944DPPC   C4A57020  30.512  29.949  11.677 -0.1860 -0.2172 -0.2149
 2944DPPC   C1B57021  30.575  30.700  10.964  0.1119 -0.2673  0.2938
 2944DPPC   C2B57022  30.862  30.552  11.347  0.0172 -0.0544  0.0675
 2944DPPC   C3B57023  30.851  30.670  11.779  0.2542 -0.0473 -0.1194
 2944DPPC   C4B57024  30.718  30.414  12.148 -0.2113 -0.0436  0.0705
 2945DPPC   NC357025  18.282  24.053   5.930  0.1106 -0.0377  0.1495
 2945DPPC   PO457026  18.007  24.148   5.532 -0.0691 -0.2232  0.1545
 2945DPPC   GL157027  18.323  23.995   5.282 -0.2602  0.0368  0.2336
 2945DPPC   GL257028  18.564  23.958   5.520 -0.4576 -0.1051 -0.1017
 2945DPPC   C1A57029  18.597  24.176   5.028 -0.0281 -0.0057 -0.0632
 2945DPPC   C2A57030  19.007  24.265   4.768  0.1211 -0.2285 -0.1470
 2945DPPC   C3A57031  19.310  24.419   4.353 -0.0016  0.0860  0.0157
 2945DPPC   C4A57032  19.678  24.585   4.395  0.1242  0.1200 -0.1212
 2945DPPC   C1B57033  18.747  24.317   5.455 -0.1651  0.0962  0.0169
 2945DPPC   C2B57034  18.590  24.702   5.436 -0.0923  0.5149 -0.0789
 2945DPPC   C3B57035  18.648  25.087   5.217  0.5144  0.1575  0.1629
 2945DPPC   C4B57036  18.654  25.525   5.424  0.3688 -0.1771  0.0504
 2946DPPC   NC357037  24.429  25.817  21.707  0.2768 -0.0004 -0.1988
 2946DPPC   PO457038  24.386  25.621  21.990 -0.1416 -0.1641 -0.0135
 2946DPPC   GL157039  24.050  25.323  22.033  0.0166 -0.0188 -0.2559
 2946DPPC   GL257040  23.719  25.363  22.245  0.1159  0.0697 -0.1792
 2946DPPC   C1A57041  23.916  24.843  21.961  0.2241 -0.2588 -0.1540
 2946DPPC   C2A57042  23.624  24.611  21.634 -0.2502 -0.2248  0.0067
 2946DPPC   C3A57043  23.249  24.574  21.748  0.1066  0.3115 -0.3995
 2946DPPC   C4A57044  22.993  24.757  21.527  0.2759  0.2024  0.1601
 2946DPPC   C1B57045  23.269  25.438  22.235  0.0656  0.0650 -0.0158
 2946DPPC   C2B57046  22.801  25.429  22.165  0.0734 -0.1931  0.0242
 2946DPPC   C3B57047  22.444  25.461  22.354 -0.2390  0.1782  0.1014
 2946DPPC   C4B57048  22.147  25.330  22.652 -0.0429  0.0406  0.1936
 2947DPPC   NC357049  17.015  26.421   5.943  0.1071  0.0973  0.0753
 2947DPPC   PO457050  16.986  26.477   5.574 -0.1971 -0.2235  0.2011
 2947DPPC   GL157051  17.106  26.707   5.223  0.1130  0.0847  0.1612
 2947DPPC   GL257052  17.334  26.531   5.034  0.0432 -0.1694 -0.2469
 2947DPPC   C1A57053  17.368  26.983   4.817 -0.0892 -0.0125  0.0384
 2947DPPC   C2A57054  17.332  27.305   4.497  0.0505  0.0278  0.0965
 2947DPPC   C3A57055  16.860  27.471   4.390  0.1033  0.0146  0.1760
 2947DPPC   C4A57056  16.746  27.900   4.274 -0.2228  0.0295  0.0771
 2947DPPC   C1B57057  17.751  26.476   5.194  0.0196 -0.0833  0.1901
 2947DPPC   C2B57058  18.193  26.307   5.542 -0.1561 -0.1121  0.0447
 2947DPPC   C3B57059  18.419  25.961   5.792 -0.4142 -0.0597 -0.0317
 2947DPPC   C4B57060  18.307  25.499   5.801 -0.0850 -0.0625  0.4411
 2948DPPC   NC357061  19.064  20.399  15.509 -0.0477 -0.3410 -0.0095
 2948DPPC   PO457062  19.198  20.021  15.670 -0.0102  0.2214  0.0407
 2948DPPC   GL157063  19.146  20.157  16.080  0.1335  0.2034 -0.0746
 2948DPPC   GL257064  18.996  20.533  15.978 -0.0345 -0.0158  0.1344
 2948DPPC   C1A57065  19.378  20.207  16.553 -0.1295  0.1825  0.0363
 2948DPPC   C2A57066  19.487  20.279  17.026 -0.1006  0.0662 -0.2639
 2948DPPC   C3A57067  19.185  20.402  17.402  0.1441  0.1228  0.2044
 2948DPPC   C4A57068  19.047  20.043  17.694  0.3192 -0.1827 -0.3348
 2948DPPC   C1B57069  19.208  20.696  16.375  0.1201  0.0973  0.5380
 2948DPPC   C2B57070  19.071  21.085  16.569 -0.1292  0.1988 -0.3156
 2948DPPC   C3B57071  19.080  21.369  16.930 -0.3330 -0.2699  0.1316
 2948DPPC   C4B57072  18.776  21.461  17.334 -0.1340 -0.3217  0.1130
 2949DPPC   NC357073  16.869  35.611  23.585  0.2802 -0.0622 -0.2209
 2949DPPC   PO457074  17.028  36.002  23.794  0.1425 -0.1952  0.2198
 2949DPPC   GL157075  17.270  35.929  23.362 -0.1535  0.2953 -0.3389
 2949DPPC   GL257076  17.239  35.551  23.231  0.2874  0.1834  0.0906
 2949DPPC   C1A57077  17.753  35.812  23.392  0.3098  0.1725 -0.0925
 2949DPPC   C2A57078  18.055  35.481  23.468 -0.0310  0.2069 -0.2989
 2949DPPC   C3A57079  18.267  35.275  23.807  0.0801 -0.1497 -0.0852
 2949DPPC   C4A57080  18.491  35.137  24.081 -0.0260  0.1117 -0.0283
 2949DPPC   C1B57081  17.612  35.216  23.364 -0.3274  0.3789  0.0056
 2949DPPC   C2B57082  17.757  35.135  23.774 -0.0362  0.2857  0.1312
 2949DPPC   C3B57083  17.881  35.562  24.003 -0.3882 -0.0059 -0.1827
 2949DPPC   C4B57084  17.999  35.983  24.035 -0.0049  0.0916 -0.2072
 2950DPPC   NC357085  24.894  24.928  23.043  0.1839  0.1498 -0.0986
 2950DPPC   PO457086  25.158  24.714  23.121 -0.0493 -0.0022 -0.1196
 2950DPPC   GL157087  24.843  24.532  23.406  0.2956  0.0958  0.1029
 2950DPPC   GL257088  24.713  24.397  23.041 -0.0376 -0.1259  0.1261
 2950DPPC   C1A57089  24.576  24.405  23.755  0.2038  0.3049  0.0223
 2950DPPC   C2A57090  24.392  23.907  23.857  0.2327 -0.2702  0.0395
 2950DPPC   C3A57091  24.014  23.751  23.828  0.0664  0.0161  0.1186
 2950DPPC   C4A57092  24.099  23.354  23.625 -0.0928  0.3251 -0.3422
 2950DPPC   C1B57093  24.252  24.458  23.000  0.2780 -0.2617 -0.2951
 2950DPPC   C2B57094  23.892  24.556  23.173 -0.1967 -0.0896 -0.0644
 2950DPPC   C3B57095  23.444  24.541  23.048  0.0624  0.2069 -0.3027
 2950DPPC   C4B57096  23.089  24.222  23.021 -0.0792  0.0087 -0.4399
 2951DPPC   NC357097  21.917  27.455  19.705  0.3075  0.2607 -0.0471
 2951DPPC   PO457098  22.187  27.112  19.695  0.0194  0.1317 -0.1583
 2951DPPC   GL157099  21.809  26.883  19.829  0.1427 -0.0127  0.2710
 2951DPPC   GL257100  21.511  26.925  19.927 -0.0681 -0.0399 -0.1293
 2951DPPC   C1A57101  21.874  26.633  20.205 -0.3362 -0.1595  0.0861
 2951DPPC   C2A57102  21.638  26.531  20.562  0.4906 -0.0518 -0.0506
 2951DPPC   C3A57103  21.286  26.441  20.769  0.0556  0.2610 -0.1250
 2951DPPC   C4A57104  21.158  26.252  21.217  0.1172 -0.0626 -0.1859
 2951DPPC   C1B57105  21.345  26.564  20.091 -0.2517 -0.0445 -0.0326
 2951DPPC   C2B57106  21.397  26.160  20.252 -0.2209  0.2532 -0.0337
 2951DPPC   C3B57107  21.709  25.866  20.085  0.0163  0.1790  0.2988
 2951DPPC   C4B57108  22.057  25.817  20.079  0.1818  0.3130 -0.0920
 2952DPPC   NC357109  23.136  23.214  12.528 -0.2315  0.1288  0.0487
 2952DPPC   PO457110  22.685  23.100  12.688  0.0823 -0.0896  0.1637
 2952DPPC   GL157111  22.790  23.483  12.937  0.2789  0.0982  0.0806
 2952DPPC   GL257112  23.116  23.582  12.913 -0.0424  0.0713 -0.1025
 2952DPPC   C1A57113  22.732  23.611  13.365  0.3507 -0.0012 -0.1368
 2952DPPC   C2A57114  22.905  23.982  13.509  0.1265  0.1390 -0.0928
 2952DPPC   C3A57115  23.201  24.220  13.736 -0.2789  0.1537 -0.1664
 2952DPPC   C4A57116  23.619  24.256  14.049  0.0104  0.1970  0.6946
 2952DPPC   C1B57117  23.189  23.434  13.374 -0.0952 -0.1241  0.0313
 2952DPPC   C2B57118  23.521  23.427  13.522 -0.0933  0.1492  0.4196
 2952DPPC   C3B57119  23.656  23.330  13.929 -0.0025 -0.2748 -0.2514
 2952DPPC   C4B57120  23.743  23.512  14.320  0.0461  0.2199  0.1014
 2953DPPC   NC357121  28.369  17.247  25.943  0.3661  0.2988  0.0653
 2953DPPC   PO457122  28.428  17.264  25.467  0.1521  0.1073  0.0614
 2953DPPC   GL157123  28.208  17.656  25.621 -0.2602  0.1344 -0.1371
 2953DPPC   GL257124  28.305  17.883  25.904  0.0854  0.0129  0.0390
 2953DPPC   C1A57125  28.072  18.045  25.495 -0.0276 -0.2610  0.1434
 2953DPPC   C2A57126  28.275  18.232  25.160 -0.0603 -0.1589 -0.2057
 2953DPPC   C3A57127  28.308  18.456  24.832  0.3401 -0.3371  0.1196
 2953DPPC   C4A57128  28.282  18.800  24.537  0.2690 -0.0621  0.0979
 2953DPPC   C1B57129  28.141  18.302  26.211 -0.2206 -0.1045  0.1630
 2953DPPC   C2B57130  28.300  18.367  26.719  0.0576 -0.0204 -0.0316
 2953DPPC   C3B57131  28.350  18.524   0.153  0.0580 -0.0776  0.1243
 2953DPPC   C4B57132  28.712  18.884   0.243 -0.3375  0.0856 -0.1198
 2954DPPC   NC357133  25.948  25.279  24.826 -0.2104  0.0307 -0.2540
 2954DPPC   PO457134  25.990  25.114  24.465 -0.2066 -0.0248 -0.1108
 2954DPPC   GL157135  25.645  24.952  24.589 -0.1888  0.1415 -0.0517
 2954DPPC   GL257136  25.338  25.177  24.496  0.3308  0.1006  0.2692
 2954DPPC   C1A57137  25.293  24.863  25.011  0.2664  0.2660 -0.2329
 2954DPPC   C2A57138  25.262  24.612  25.406 -0.0889 -0.0286 -0.1947
 2954DPPC   C3A57139  24.913  24.510  25.707 -0.0375 -0.0908  0.3000
 2954DPPC   C4A57140  24.528  24.546  25.657  0.0676 -0.2595  0.3509
 2954DPPC   C1B57141  25.072  24.942  24.573  0.0925 -0.1075  0.2062
 2954DPPC   C2B57142  24.838  24.737  24.838 -0.0373  0.0866 -0.1063
 2954DPPC   C3B57143  24.782  24.753  25.257 -0.0024 -0.2856  0.0215
 2954DPPC   C4B57144  24.440  25.013  25.472 -0.2563  0.1693 -0.1963
 2955DPPC   NC357145  29.390  23.770  26.670 -0.1763  0.0258 -0.0649
 2955DPPC   PO457146  29.013  23.842  26.481  0.3337 -0.0290  0.3415
 2955DPPC   GL157147  29.024  23.640   0.019 -0.0566  0.1523  0.0187
 2955DPPC   GL257148  29.191  23.427   0.077  0.0729  0.2260 -0.1427
 2955DPPC   C1A57149  29.014  23.707   0.487  0.0958  0.2147  0.3874
 2955DPPC   C2A57150  29.163  23.565   0.899 -0.0552 -0.2113  0.2279
 2955DPPC   C3A57151  29.362  23.391   1.245 -0.1573 -0.1925  0.1047
 2955DPPC   C4A57152  29.285  23.270   1.622  0.0151  0.1152 -0.1006
 2955DPPC   C1B57153  29.113  23.100   0.400 -0.0049 -0.2922 -0.0474
 2955DPPC   C2B57154  29.385  22.791   0.478  0.2335  0.1308 -0.0483
 2955DPPC   C3B57155  29.391  22.678   0.762  0.4091  0.0616 -0.0586
 2955DPPC   C4B57156  29.200  22.691   1.241 -0.1140  0.1607 -0.0711
 2956DPPC   NC357157  26.713  26.832  26.535  0.1679 -0.1942  0.0232
 2956DPPC   PO457158  26.452  26.616  26.516 -0.4606 -0.3090 -0.0675
 2956DPPC   GL157159  26.549  26.352  26.787  0.0961 -0.1883  0.2574
 2956DPPC   GL257160  26.778  26.058  26.710  0.0534  0.0803  0.1350
 2956DPPC   C1A57161  26.288  26.141   0.090  0.2429  0.0541 -0.1557
 2956DPPC   C2A57162  26.060  26.151   0.475 -0.0925  0.0410  0.1267
 2956DPPC   C3A57163  26.058  25.900   0.855  0.3022  0.4534 -0.0841
 2956DPPC   C4A57164  25.817  25.562   1.089 -0.0744 -0.0177  0.1221
 2956DPPC   C1B57165  26.456  25.690  26.854  0.0075 -0.1587 -0.1173
 2956DPPC   C2B57166  26.388  25.254   0.167  0.1126  0.0957  0.1529
 2956DPPC   C3B57167  26.190  24.956   0.440  0.0872  0.1455 -0.2706
 2956DPPC   C4B57168  25.752  24.753   0.590 -0.1381  0.0442  0.0288
 2957DPPC   NC357169  18.477  22.658   5.297  0.1912 -0.1656  0.1377
 2957DPPC   PO457170  18.672  23.142   5.361  0.2646 -0.1766  0.3877
 2957DPPC   GL157171  19.031  23.052   5.135 -0.0227  0.2359  0.3605
 2957DPPC   GL257172  19.056  23.292   4.957 -0.2526 -0.3088 -0.1315
 2957DPPC   C1A57173  19.456  23.304   5.315 -0.1974  0.5193  0.1329
 2957DPPC   C2A57174  19.935  23.520   5.282  0.0191 -0.1299 -0.2750
 2957DPPC   C3A57175  20.373  23.678   5.151 -0.1787  0.0802  0.1212
 2957DPPC   C4A57176  20.715  23.981   5.328  0.0596 -0.1589 -0.4218
 2957DPPC   C1B57177  19.392  23.003   4.817 -0.1697 -0.0452  0.2507
 2957DPPC   C2B57178  19.437  22.850   4.401  0.1646 -0.1268  0.1018
 2957DPPC   C3B57179  19.844  22.975   4.268 -0.2283 -0.1673  0.0362
 2957DPPC   C4B57180  20.245  23.124   4.428  0.0774  0.0907  0.1103
 2958DPPC   NC357181  20.927  28.547  20.161 -0.2456  0.0409 -0.1665
 2958DPPC   PO457182  20.442  28.822  20.091 -0.0746 -0.1791 -0.3044
 2958DPPC   GL157183  20.063  28.669  20.270 -0.0931  0.0024 -0.5216
 2958DPPC   GL257184  19.908  28.520  20.593  0.3049  0.2038  0.3926
 2958DPPC   C1A57185  19.677  28.449  20.033  0.2454 -0.0618  0.1255
 2958DPPC   C2A57186  19.320  28.434  19.773  0.1085  0.1638  0.0627
 2958DPPC   C3A57187  18.883  28.560  19.848  0.1820  0.1939 -0.3158
 2958DPPC   C4A57188  18.517  28.463  19.770  0.0432  0.1373 -0.2804
 2958DPPC   C1B57189  19.828  28.124  20.339  0.1275  0.4091 -0.3149
 2958DPPC   C2B57190  19.703  27.985  19.880 -0.1346  0.0100  0.1263
 2958DPPC   C3B57191  19.969  27.614  19.731 -0.0603  0.0928  0.2050
 2958DPPC   C4B57192  20.436  27.479  19.777  0.0487 -0.0316  0.1222
 2959DPPC   NC357193  21.355  16.313  24.798 -0.4232 -0.4316  0.2192
 2959DPPC   PO457194  21.434  16.297  25.336  0.1306  0.0601 -0.1284
 2959DPPC   GL157195  21.532  16.681  25.220 -0.0243 -0.2157  0.3225
 2959DPPC   GL257196  21.564  16.759  24.839  0.0698  0.2869  0.3622
 2959DPPC   C1A57197  21.648  17.048  25.394  0.2235 -0.1339  0.1371
 2959DPPC   C2A57198  21.543  17.532  25.561  0.2661 -0.1121  0.1042
 2959DPPC   C3A57199  21.510  17.843  25.950 -0.1770 -0.1117 -0.0048
 2959DPPC   C4A57200  21.509  17.966  26.365 -0.1359  0.0723  0.0767
 2959DPPC   C1B57201  21.956  16.947  24.973  0.0119 -0.1656 -0.1010
 2959DPPC   C2B57202  22.166  17.275  25.323 -0.1476 -0.0294 -0.0201
 2959DPPC   C3B57203  22.068  17.697  25.495 -0.0610  0.2074 -0.1008
 2959DPPC   C4B57204  22.002  18.072  25.520  0.0156 -0.1874  0.1979
 2960DPPC   NC357205  39.560  28.000  18.574 -0.0472 -0.0401 -0.2491
 2960DPPC   PO457206  39.271  27.817  18.320 -0.4393 -0.0072  0.2757
 2960DPPC   GL157207  39.055  28.149  18.367 -0.0014 -0.1803 -0.1398
 2960DPPC   GL257208  38.775  28.351  18.240 -0.0900  0.0353  0.1521
 2960DPPC   C1A57209  38.686  28.064  18.663 -0.5111  0.0482  0.0510
 2960DPPC   C2A57210  38.617  28.288  19.051  0.1887 -0.0492 -0.2269
 2960DPPC   C3A57211  38.487  28.707  19.198  0.2442 -0.0193  0.3327
 2960DPPC   C4A57212  38.086  28.946  19.189 -0.2637  0.2826  0.2344
 2960DPPC   C1B57213  38.346  28.220  18.288 -0.4791 -0.2889 -0.0451
 2960DPPC   C2B57214  37.950  28.144  18.493 -0.0353  0.1001 -0.3847
 2960DPPC   C3B57215  37.647  28.075  18.802 -0.1891  0.0996  0.3608
 2960DPPC   C4B57216  37.513  28.118  19.278 -0.1017 -0.0108 -0.1680
 2961DPPC   NC357217  29.054  25.027   0.875 -0.3364 -0.0411 -0.2699
 2961DPPC   PO457218  29.271  24.990   1.250 -0.0656  0.1558 -0.0718
 2961DPPC   GL157219  29.516  25.008   1.626 -0.0744  0.1145  0.1225
 2961DPPC   GL257220  29.257  25.209   1.740 -0.0016 -0.2568 -0.1304
 2961DPPC   C1A57221  29.491  24.784   1.989  0.4340 -0.0769 -0.0987
 2961DPPC   C2A57222  29.613  24.611   2.330 -0.0564  0.0076  0.0807
 2961DPPC   C3A57223  29.344  24.363   2.541  0.1927 -0.1943  0.1564
 2961DPPC   C4A57224  29.098  24.469   2.940 -0.0489 -0.2030 -0.1579
 2961DPPC   C1B57225  28.980  25.022   1.936  0.1940  0.0788 -0.1766
 2961DPPC   C2B57226  28.677  25.017   2.258  0.0994 -0.0547 -0.0144
 2961DPPC   C3B57227  28.440  24.875   2.482  0.0602  0.0144  0.3430
 2961DPPC   C4B57228  28.065  24.923   2.676  0.0272  0.0217 -0.2369
 2962DPPC   NC357229  20.207  23.978  12.928  0.2311  0.2416  0.3512
 2962DPPC   PO457230  20.370  24.308  13.182 -0.0484 -0.0548  0.1665
 2962DPPC   GL157231  20.674  24.369  13.558  0.0311 -0.0453 -0.1745
 2962DPPC   GL257232  20.584  24.596  13.880  0.3096 -0.1340  0.1435
 2962DPPC   C1A57233  21.057  24.591  13.776 -0.1322 -0.1187  0.2230
 2962DPPC   C2A57234  21.317  24.868  13.972 -0.0001 -0.1438  0.0370
 2962DPPC   C3A57235  21.525  25.192  14.299 -0.0419  0.0527 -0.2240
 2962DPPC   C4A57236  21.992  25.262  14.346 -0.2833  0.0507 -0.0075
 2962DPPC   C1B57237  20.793  24.902  14.104  0.0061  0.3894 -0.0015
 2962DPPC   C2B57238  21.046  25.262  14.332 -0.0594  0.2292  0.0363
 2962DPPC   C3B57239  21.060  25.625  14.417  0.0653 -0.1883 -0.0662
 2962DPPC   C4B57240  21.110  25.912  14.742  0.0187 -0.1230  0.1116
 2963DPPC   NC357241  26.860  34.204   2.079  0.2048  0.2785 -0.1554
 2963DPPC   PO457242  26.833  34.057   2.444  0.2371  0.0132  0.1669
 2963DPPC   GL157243  26.565  34.085   2.812 -0.2922  0.0744 -0.1481
 2963DPPC   GL257244  26.374  33.793   2.893 -0.0164  0.2346 -0.4053
 2963DPPC   C1A57245  26.459  34.331   3.231 -0.2030  0.0362 -0.0652
 2963DPPC   C2A57246  26.395  34.199   3.620 -0.3346 -0.1120  0.0932
 2963DPPC   C3A57247  26.457  34.414   3.990 -0.0117  0.1597  0.0408
 2963DPPC   C4A57248  26.445  34.644   4.375 -0.2782 -0.2872  0.1229
 2963DPPC   C1B57249  26.268  33.744   3.386 -0.0952  0.1226  0.2782
 2963DPPC   C2B57250  26.420  33.727   3.779 -0.3808 -0.2198  0.4415
 2963DPPC   C3B57251  26.634  33.950   4.130  0.1083  0.0641  0.0021
 2963DPPC   C4B57252  26.895  34.331   4.333 -0.0340  0.0748  0.1537
 2964DPPC   NC357253  20.995  30.461  22.931  0.2247  0.2835 -0.1676
 2964DPPC   PO457254  20.741  30.324  23.316  0.3468  0.0017  0.0987
 2964DPPC   GL157255  20.515  29.856  23.368  0.0785 -0.1977  0.2321
 2964DPPC   GL257256  20.632  29.607  23.676  0.1367  0.2543 -0.2546
 2964DPPC   C1A57257  20.189  29.634  23.288 -0.1212 -0.0938  0.0328
 2964DPPC   C2A57258  20.077  29.229  23.207  0.2557  0.0777  0.0372
 2964DPPC   C3A57259  20.278  28.932  22.948 -0.0285 -0.2271 -0.0519
 2964DPPC   C4A57260  20.320  28.569  22.642 -0.0074 -0.1491  0.0179
 2964DPPC   C1B57261  20.404  29.869  23.832  0.1382 -0.1782  0.2182
 2964DPPC   C2B57262  20.230  30.080  24.120 -0.2001  0.0651 -0.0831
 2964DPPC   C3B57263  19.765  30.053  24.230 -0.1997 -0.0544  0.4849
 2964DPPC   C4B57264  19.457  30.274  24.545  0.1929 -0.0655  0.1230
 2965DPPC   NC357265  18.660  31.506   4.984 -0.0708 -0.0682  0.2280
 2965DPPC   PO457266  19.007  31.466   4.681  0.2680 -0.0487 -0.1373
 2965DPPC   GL157267  19.243  31.315   4.377 -0.0713 -0.3650 -0.0538
 2965DPPC   GL257268  19.251  31.011   4.399  0.0078 -0.2266 -0.0297
 2965DPPC   C1A57269  19.788  31.477   4.244 -0.0663  0.2727 -0.2813
 2965DPPC   C2A57270  20.259  31.430   4.121 -0.0319 -0.1351 -0.1297
 2965DPPC   C3A57271  20.674  31.258   3.892  0.0708 -0.0730 -0.0643
 2965DPPC   C4A57272  20.835  30.733   3.770 -0.3406 -0.0296 -0.2295
 2965DPPC   C1B57273  19.464  31.164   3.981 -0.0222  0.1239  0.0899
 2965DPPC   C2B57274  19.792  31.251   3.799 -0.1152 -0.1212  0.0891
 2965DPPC   C3B57275  20.069  31.037   3.760 -0.0238 -0.3230 -0.1111
 2965DPPC   C4B57276  20.416  31.170   3.427 -0.1578  0.3631 -0.1105
 2966DPPC   NC357277  25.401  29.218   1.427 -0.0294 -0.0123 -0.2806
 2966DPPC   PO457278  25.251  29.066   1.024  0.0362 -0.4020  0.1395
 2966DPPC   GL157279  25.074  28.772   1.224 -0.0870  0.2302  0.0421
 2966DPPC   GL257280  24.990  28.728   1.596  0.2400  0.0041  0.0191
 2966DPPC   C1A57281  25.042  28.350   1.296  0.0761  0.0649  0.0017
 2966DPPC   C2A57282  24.885  28.116   1.499  0.0846 -0.0074  0.1754
 2966DPPC   C3A57283  24.582  27.873   1.598 -0.1842 -0.2332  0.1746
 2966DPPC   C4A57284  24.401  27.754   1.844  0.2729  0.0204  0.0668
 2966DPPC   C1B57285  24.590  28.500   1.459  0.0022  0.0776 -0.1077
 2966DPPC   C2B57286  24.372  28.292   1.588  0.2976 -0.0223 -0.1767
 2966DPPC   C3B57287  23.950  28.144   1.409  0.2832  0.1973 -0.2278
 2966DPPC   C4B57288  23.548  28.224   1.315 -0.1725 -0.0656  0.0045
 2967DPPC   NC357289  23.826  29.913   0.337 -0.1262 -0.0243  0.2680
 2967DPPC   PO457290  24.025  29.492   0.191  0.1317 -0.4043 -0.3565
 2967DPPC   GL157291  23.569  29.395   0.162 -0.0318  0.2876  0.0879
 2967DPPC   GL257292  23.379  29.391  26.804 -0.0951 -0.0435  0.2651
 2967DPPC   C1A57293  23.357  28.891   0.143 -0.3521  0.0234  0.1050
 2967DPPC   C2A57294  23.100  28.547   0.177  0.0674 -0.0295 -0.0567
 2967DPPC   C3A57295  22.800  28.299   0.272 -0.0859  0.2689 -0.0659
 2967DPPC   C4A57296  22.522  27.880   0.167 -0.2335  0.1696 -0.1102
 2967DPPC   C1B57297  23.034  29.155  26.782 -0.0498  0.2525  0.1491
 2967DPPC   C2B57298  22.865  28.973   0.177 -0.0108  0.0030  0.1221
 2967DPPC   C3B57299  22.731  28.739   0.468 -0.0672 -0.1331 -0.3822
 2967DPPC   C4B57300  22.619  28.963   0.885 -0.0421 -0.0393  0.0778
 2968DPPC   NC357301  17.052  32.358  15.684  0.0860 -0.2586  0.3467
 2968DPPC   PO457302  17.126  32.782  15.765 -0.1029 -0.2199 -0.0454
 2968DPPC   GL157303  17.417  32.652  16.074 -0.1987  0.2616 -0.3068
 2968DPPC   GL257304  17.568  32.761  16.362  0.2148  0.4006  0.2609
 2968DPPC   C1A57305  17.691  32.235  16.075  0.3986 -0.1092  0.2616
 2968DPPC   C2A57306  18.085  32.134  16.198 -0.0959  0.2955 -0.0053
 2968DPPC   C3A57307  18.475  31.982  16.203 -0.1980  0.4499 -0.3137
 2968DPPC   C4A57308  18.931  31.940  16.382 -0.3907 -0.1445 -0.0562
 2968DPPC   C1B57309  17.933  32.494  16.436  0.3094 -0.2192 -0.2301
 2968DPPC   C2B57310  18.297  32.333  16.560  0.2448 -0.3060 -0.2760
 2968DPPC   C3B57311  18.677  32.212  16.741  0.0229  0.0278 -0.0563
 2968DPPC   C4B57312  19.079  32.195  16.990  0.0192 -0.1814 -0.0301
 2969DPPC   NC357313  26.733  22.196  21.423 -0.3207  0.2970 -0.0842
 2969DPPC   PO457314  26.331  22.271  21.234 -0.0900 -0.1716  0.2261
 2969DPPC   GL157315  25.964  22.225  21.466 -0.0332  0.1709  0.0689
 2969DPPC   GL257316  25.768  21.970  21.297  0.0058 -0.0423 -0.0775
 2969DPPC   C1A57317  25.821  22.010  21.781  0.2738  0.0428  0.1304
 2969DPPC   C2A57318  25.814  21.594  21.766  0.0823  0.1431 -0.1224
 2969DPPC   C3A57319  25.640  21.220  21.974  0.0623  0.1059 -0.0821
 2969DPPC   C4A57320  25.698  20.860  21.993  0.0267 -0.2079 -0.0056
 2969DPPC   C1B57321  25.486  21.611  21.303  0.2000 -0.3067 -0.2102
 2969DPPC   C2B57322  25.090  21.421  21.345 -0.2840 -0.2086  0.2628
 2969DPPC   C3B57323  24.917  21.217  21.578 -0.5749  0.2598  0.2860
 2969DPPC   C4B57324  25.015  20.927  21.978  0.0287 -0.1695  0.2102
 2970DPPC   NC357325  23.725  29.023  26.434 -0.1101  0.2357 -0.0852
 2970DPPC   PO457326  23.848  28.813  26.116  0.0850  0.0714 -0.1102
 2970DPPC   GL157327  23.603  28.451  26.226  0.0993  0.2096  0.0064
 2970DPPC   GL257328  23.388  28.436  26.039 -0.2150  0.2280 -0.0676
 2970DPPC   C1A57329  23.356  28.228  26.500  0.1268  0.0397 -0.0195
 2970DPPC   C2A57330  23.034  28.242  26.678  0.1122  0.0483  0.0027
 2970DPPC   C3A57331  22.630  28.208  26.733  0.3523 -0.2307 -0.2050
 2970DPPC   C4A57332  22.208  28.252  26.802  0.2345 -0.1295  0.0729
 2970DPPC   C1B57333  23.036  28.234  25.912 -0.1137  0.0238  0.1165
 2970DPPC   C2B57334  22.675  28.069  25.786  0.0689  0.2197  0.1228
 2970DPPC   C3B57335  22.344  27.821  25.862 -0.2280 -0.1647 -0.1589
 2970DPPC   C4B57336  22.311  27.533  25.714  0.1109 -0.0053  0.4073
 2971DPPC   NC357337  26.996  26.674   0.390 -0.1445  0.1239 -0.1621
 2971DPPC   PO457338  26.979  26.425   0.080 -0.0330  0.0907 -0.3013
 2971DPPC   GL157339  26.707  26.151   0.306 -0.4318  0.2876 -0.0119
 2971DPPC   GL257340  26.571  26.426   0.492  0.0066  0.0789  0.1365
 2971DPPC   C1A57341  26.543  25.822   0.454 -0.1310  0.2902  0.1909
 2971DPPC   C2A57342  26.506  25.434   0.702  0.2520  0.3477 -0.1774
 2971DPPC   C3A57343  26.798  25.193   0.914 -0.2174 -0.0615 -0.1007
 2971DPPC   C4A57344  26.802  24.858   1.108  0.1750 -0.2826 -0.0841
 2971DPPC   C1B57345  26.245  26.560   0.702 -0.0284  0.3412  0.0422
 2971DPPC   C2B57346  25.868  26.412   0.876 -0.0939  0.1462  0.0954
 2971DPPC   C3B57347  25.576  26.444   1.283  0.2963 -0.2508  0.0719
 2971DPPC   C4B57348  25.209  26.521   1.484  0.0629  0.2625 -0.3094
 2972DPPC   NC357349  31.227  22.190  23.313 -0.3079 -0.0643  0.3751
 2972DPPC   PO457350  31.492  22.404  22.981  0.2734  0.0508 -0.1042
 2972DPPC   GL157351  31.683  22.031  23.046 -0.1911 -0.0881 -0.2107
 2972DPPC   GL257352  31.506  21.749  23.229 -0.3992  0.7357 -0.0366
 2972DPPC   C1A57353  31.917  21.687  22.911  0.2385 -0.0607 -0.1637
 2972DPPC   C2A57354  32.320  21.450  22.858 -0.2206 -0.1715 -0.2354
 2972DPPC   C3A57355  32.573  21.149  22.712  0.0449  0.2660 -0.1606
 2972DPPC   C4A57356  32.894  20.873  22.586 -0.3418  0.2839  0.2074
 2972DPPC   C1B57357  31.885  21.831  23.440  0.1937  0.2354  0.1070
 2972DPPC   C2B57358  32.284  21.703  23.549 -0.3178  0.0038 -0.0040
 2972DPPC   C3B57359  32.536  21.449  23.666 -0.0094 -0.0341  0.0709
 2972DPPC   C4B57360  33.027  21.345  23.989  0.0003 -0.0368  0.2116
 2973DPPC   NC357361  19.425  18.548   0.919  0.3193  0.1246 -0.0429
 2973DPPC   PO457362  19.276  18.643   0.477 -0.0178  0.1518  0.1897
 2973DPPC   GL157363  19.583  19.011   0.598  0.1357 -0.1845 -0.1272
 2973DPPC   GL257364  19.925  19.083   0.727 -0.1054  0.0035 -0.0469
 2973DPPC   C1A57365  19.679  19.514   0.512  0.0917  0.0802  0.0971
 2973DPPC   C2A57366  19.415  19.847   0.476 -0.0429 -0.1767  0.0027
 2973DPPC   C3A57367  19.391  20.159   0.182  0.0785 -0.3409  0.2573
 2973DPPC   C4A57368  19.599  20.303  26.779 -0.0548 -0.2341  0.1403
 2973DPPC   C1B57369  20.120  18.949   0.325 -0.0123  0.2083 -0.0187
 2973DPPC   C2B57370  20.455  19.063   0.050 -0.3305  0.1915 -0.0819
 2973DPPC   C3B57371  20.814  19.099  26.557  0.3374 -0.1857  0.0450
 2973DPPC   C4B57372  21.243  18.954  26.452  0.0947  0.0914  0.0690
 2974DPPC   NC357373  25.800  27.582  26.373 -0.3003 -0.0125 -0.0853
 2974DPPC   PO457374  25.420  27.181  26.299 -0.0382  0.1034  0.0933
 2974DPPC   GL157375  25.229  26.865  26.550  0.0422 -0.3167 -0.1622
 2974DPPC   GL257376  25.192  27.017  26.810 -0.2491 -0.0014 -0.0230
 2974DPPC   C1A57377  25.007  26.593  26.516  0.0724  0.2202  0.2260
 2974DPPC   C2A57378  24.796  26.314  26.441 -0.4053  0.0239  0.3341
 2974DPPC   C3A57379  24.535  26.045  26.726  0.1455 -0.2488 -0.2051
 2974DPPC   C4A57380  24.131  25.975  26.722  0.1280  0.3110 -0.0718
 2974DPPC   C1B57381  25.235  26.614   0.138 -0.1092  0.0913 -0.1046
 2974DPPC   C2B57382  24.953  26.387   0.484  0.2234 -0.1540  0.1246
 2974DPPC   C3B57383  24.634  26.433   0.814 -0.3702  0.0393  0.3673
 2974DPPC   C4B57384  24.290  26.550   1.048 -0.1832 -0.3383  0.1363
 2975DPPC   NC357385  26.255  27.089   0.456 -0.0725 -0.0250 -0.0294
 2975DPPC   PO457386  26.544  27.448   0.639  0.2809 -0.1841  0.1610
 2975DPPC   GL157387  26.006  27.383   0.750  0.0533  0.0850 -0.4439
 2975DPPC   GL257388  25.891  27.715   0.910 -0.0302  0.1510 -0.2614
 2975DPPC   C1A57389  25.779  26.918   0.929 -0.1158  0.2577  0.0169
 2975DPPC   C2A57390  25.388  26.856   1.198 -0.1762 -0.1779 -0.0637
 2975DPPC   C3A57391  25.092  27.183   1.424  0.5591 -0.2007 -0.2547
 2975DPPC   C4A57392  24.954  27.558   1.608  0.0167 -0.1956 -0.2277
 2975DPPC   C1B57393  26.018  27.339   1.238 -0.0104 -0.1432 -0.2008
 2975DPPC   C2B57394  25.860  26.991   1.454 -0.4082  0.2049  0.6468
 2975DPPC   C3B57395  25.750  26.869   1.859 -0.1812  0.4394 -0.0636
 2975DPPC   C4B57396  25.861  26.734   2.189 -0.3215  0.1107  0.4031
 2976DPPC   NC357397  23.204  28.572  24.683  0.3078 -0.1246 -0.1381
 2976DPPC   PO457398  23.520  28.247  24.884  0.2389  0.1345  0.0076
 2976DPPC   GL157399  23.529  27.807  25.005  0.0290  0.2359 -0.3697
 2976DPPC   GL257400  23.205  27.720  25.254 -0.1190 -0.0403  0.0321
 2976DPPC   C1A57401  23.524  27.317  25.107 -0.0687  0.4403 -0.0815
 2976DPPC   C2A57402  23.386  26.896  25.288 -0.0354 -0.0255 -0.2312
 2976DPPC   C3A57403  23.254  26.543  25.215 -0.0673  0.1039  0.1514
 2976DPPC   C4A57404  22.981  26.204  25.288 -0.3448  0.1327  0.3903
 2976DPPC   C1B57405  23.618  27.623  25.503 -0.0469  0.1684 -0.0095
 2976DPPC   C2B57406  23.614  27.486  25.974 -0.2050  0.2733 -0.0073
 2976DPPC   C3B57407  23.402  27.222  26.297 -0.1655  0.1424  0.1303
 2976DPPC   C4B57408  23.171  26.888  26.546 -0.1316 -0.0989  0.1418
 2977DPPC   NC357409  26.508  25.081  24.932 -0.2026 -0.2169 -0.2019
 2977DPPC   PO457410  26.771  25.270  25.298  0.4121  0.2016  0.1636
 2977DPPC   GL157411  26.408  25.063  25.445  0.1923  0.3139 -0.0800
 2977DPPC   GL257412  26.130  24.941  25.304 -0.0268 -0.1615 -0.1065
 2977DPPC   C1A57413  26.019  24.954  25.749  0.0861  0.1495 -0.2192
 2977DPPC   C2A57414  25.716  24.593  25.685  0.2369 -0.0445 -0.0573
 2977DPPC   C3A57415  25.468  24.282  25.767  0.0979 -0.0270 -0.0151
 2977DPPC   C4A57416  25.148  24.022  25.813  0.0313 -0.1134  0.2748
 2977DPPC   C1B57417  26.171  24.584  25.454  0.0569  0.0883 -0.3154
 2977DPPC   C2B57418  25.963  24.185  25.501 -0.2101  0.1533 -0.1895
 2977DPPC   C3B57419  25.875  23.776  25.678  0.0217  0.0431  0.0740
 2977DPPC   C4B57420  25.900  23.374  25.495 -0.0979 -0.4866  0.2405
 2978DPPC   NC357421  26.223  28.238   0.237 -0.0715  0.1629 -0.0690
 2978DPPC   PO457422  25.753  28.063   0.163 -0.4309  0.0035 -0.0036
 2978DPPC   GL157423  25.646  27.711   0.335 -0.0523 -0.1084  0.0081
 2978DPPC   GL257424  25.335  27.781   0.123  0.0745 -0.1619 -0.1945
 2978DPPC   C1A57425  25.355  27.618   0.640 -0.0441 -0.0111 -0.0045
 2978DPPC   C2A57426  25.529  27.330   0.986  0.0465 -0.1141  0.0006
 2978DPPC   C3A57427  25.558  27.360   1.381 -0.3413  0.1083  0.1330
 2978DPPC   C4A57428  25.403  27.365   1.809  0.0243  0.0409  0.0357
 2978DPPC   C1B57429  25.036  27.452   0.286  0.3619 -0.0506  0.0604
 2978DPPC   C2B57430  24.991  27.015   0.350  0.1539 -0.3539 -0.0929
 2978DPPC   C3B57431  24.718  26.863   0.598  0.2000 -0.0052  0.1470
 2978DPPC   C4B57432  24.353  26.573   0.439  0.0581  0.1047  0.0610
 2979DPPC   NC357433  26.242  41.190  25.927  0.1433 -0.1138  0.2724
 2979DPPC   PO457434  25.843  41.023  25.787 -0.2347  0.1544 -0.1311
 2979DPPC   GL157435  25.793  40.862  25.433 -0.1822  0.0237 -0.3654
 2979DPPC   GL257436  25.960  40.539  25.497  0.1995 -0.0109 -0.3462
 2979DPPC   C1A57437  25.871  40.634  25.036 -0.0667 -0.3076 -0.0537
 2979DPPC   C2A57438  26.135  40.352  24.748 -0.2941  0.0890 -0.0454
 2979DPPC   C3A57439  26.113  40.136  24.326 -0.2531 -0.1365  0.1149
 2979DPPC   C4A57440  25.876  40.168  23.967  0.0256 -0.0062  0.2813
 2979DPPC   C1B57441  26.014  40.169  25.245  0.1573 -0.3486  0.3009
 2979DPPC   C2B57442  25.643  40.178  24.976 -0.0568 -0.1417  0.0756
 2979DPPC   C3B57443  25.431  39.911  24.874 -0.0173  0.1447 -0.0459
 2979DPPC   C4B57444  25.092  39.901  25.180  0.1681 -0.3035 -0.0220
 2980DPPC   NC357445  33.422  28.277   0.348 -0.1137 -0.0171  0.1453
 2980DPPC   PO457446  33.169  28.456   0.767 -0.1831 -0.1108  0.2680
 2980DPPC   GL157447  33.573  28.478   0.800 -0.0208 -0.0544  0.0518
 2980DPPC   GL257448  33.770  28.705   0.861  0.2471  0.0659 -0.3218
 2980DPPC   C1A57449  33.837  28.158   0.830  0.2498  0.2079 -0.2293
 2980DPPC   C2A57450  34.220  28.123   1.112  0.1872  0.1745 -0.3058
 2980DPPC   C3A57451  34.597  28.091   1.365  0.0235 -0.0931  0.2153
 2980DPPC   C4A57452  34.937  28.237   1.656  0.2695  0.1918 -0.4355
 2980DPPC   C1B57453  34.090  28.783   1.168  0.1446  0.1028  0.4761
 2980DPPC   C2B57454  34.512  28.657   1.269 -0.1185 -0.2926  0.2736
 2980DPPC   C3B57455  34.897  28.750   1.444 -0.0140 -0.0682  0.0801
 2980DPPC   C4B57456  35.285  28.513   1.481  0.1519 -0.1557 -0.1515
 2981DPPC   NC357457  28.978  29.070   3.278 -0.0067  0.0574 -0.1007
 2981DPPC   PO457458  29.300  28.997   3.088 -0.0760  0.4491 -0.3027
 2981DPPC   GL157459  29.390  28.799   3.502 -0.1328 -0.1987  0.1655
 2981DPPC   GL257460  29.749  28.917   3.558  0.3770  0.1539 -0.1178
 2981DPPC   C1A57461  29.572  28.492   3.863  0.0220  0.3015  0.1176
 2981DPPC   C2A57462  29.917  28.460   4.040  0.4827 -0.2465  0.1741
 2981DPPC   C3A57463  29.946  28.365   4.415 -0.0571  0.0866 -0.2505
 2981DPPC   C4A57464  30.302  28.426   4.717  0.0433 -0.1933  0.2039
 2981DPPC   C1B57465  30.178  28.783   3.810 -0.1748 -0.2432  0.3162
 2981DPPC   C2B57466  30.293  28.732   4.227 -0.1370  0.1189  0.1006
 2981DPPC   C3B57467  30.371  28.999   4.514  0.0673  0.1757  0.2139
 2981DPPC   C4B57468  30.539  29.386   4.695  0.5012 -0.1988 -0.0072
 2982DPPC   NC357469  24.358  23.412  18.931  0.5190 -0.0496 -0.0298
 2982DPPC   PO457470  24.266  23.045  19.009  0.2360 -0.1277 -0.0496
 2982DPPC   GL157471  23.856  22.856  19.139  0.1246  0.2314 -0.0236
 2982DPPC   GL257472  23.717  23.015  19.400 -0.1285  0.2166  0.0743
 2982DPPC   C1A57473  23.384  22.715  19.206  0.1103 -0.0405 -0.1545
 2982DPPC   C2A57474  22.982  22.648  19.443 -0.1224 -0.0553  0.1100
 2982DPPC   C3A57475  22.643  22.521  19.548  0.0493 -0.2296 -0.2677
 2982DPPC   C4A57476  22.297  22.762  19.340 -0.1418 -0.0335 -0.3667
 2982DPPC   C1B57477  23.700  22.589  19.607 -0.0041 -0.1074  0.2757
 2982DPPC   C2B57478  23.355  22.407  19.704 -0.0731 -0.0911 -0.1823
 2982DPPC   C3B57479  22.968  22.540  19.899 -0.2371 -0.0766 -0.3765
 2982DPPC   C4B57480  22.803  22.863  19.894  0.0312 -0.0657  0.0303
 2983DPPC   NC357481  22.886  21.576   7.370  0.5323 -0.0683  0.0241
 2983DPPC   PO457482  22.821  21.995   7.208 -0.2846 -0.1224 -0.0854
 2983DPPC   GL157483  22.747  22.293   6.909  0.0219 -0.2484 -0.0149
 2983DPPC   GL257484  22.643  22.182   6.604 -0.0432  0.0979 -0.1482
 2983DPPC   C1A57485  22.574  22.693   6.684 -0.1372  0.1527  0.1519
 2983DPPC   C2A57486  22.696  23.002   6.458  0.0085  0.0536  0.1051
 2983DPPC   C3A57487  22.838  23.420   6.497 -0.0810  0.1941 -0.0663
 2983DPPC   C4A57488  22.944  23.858   6.509 -0.0984  0.1127 -0.1941
 2983DPPC   C1B57489  22.906  22.462   6.388 -0.0741  0.0829 -0.0731
 2983DPPC   C2B57490  23.004  22.761   6.126 -0.1563  0.0677 -0.1274
 2983DPPC   C3B57491  23.117  22.854   5.705  0.2387  0.1937  0.2096
 2983DPPC   C4B57492  23.484  22.973   5.391  0.0463  0.1006 -0.0653
 2984DPPC   NC357493  28.541  41.698  25.957  0.0892 -0.0180 -0.1588
 2984DPPC   PO457494  28.061  41.623  25.902 -0.1445 -0.1012  0.0012
 2984DPPC   GL157495  27.899  41.263  25.859  0.1427  0.2203 -0.0988
 2984DPPC   GL257496  27.808  41.251  25.560  0.1289  0.1549 -0.0377
 2984DPPC   C1A57497  27.876  40.961  26.146  0.0461  0.4418  0.4436
 2984DPPC   C2A57498  27.836  40.467  26.303 -0.1608 -0.1599 -0.0339
 2984DPPC   C3A57499  27.588  40.153  26.487  0.0344 -0.2058 -0.0812
 2984DPPC   C4A57500  27.351  40.046  26.781  0.1526  0.3356 -0.1003
 2984DPPC   C1B57501  27.718  40.820  25.622 -0.2104  0.1304 -0.1280
 2984DPPC   C2B57502  27.962  40.476  25.769 -0.0664  0.1248 -0.2211
 2984DPPC   C3B57503  28.096  40.139  25.902  0.1602 -0.1283 -0.0601
 2984DPPC   C4B57504  28.466  39.980  26.171  0.0213  0.1899 -0.2774
 2985DPPC   NC357505  25.606  27.304  26.788 -0.1701 -0.0016 -0.3550
 2985DPPC   PO457506  25.923  27.274   0.147  0.0011 -0.2499  0.0310
 2985DPPC   GL157507  25.719  27.055   0.344  0.0482  0.0872  0.2492
 2985DPPC   GL257508  25.458  27.168   0.480  0.0177  0.1190  0.1113
 2985DPPC   C1A57509  25.735  26.614   0.439 -0.1366  0.1095  0.1727
 2985DPPC   C2A57510  25.432  26.270   0.583 -0.3233  0.1124 -0.0793
 2985DPPC   C3A57511  25.055  26.016   0.840  0.0927  0.0749  0.3069
 2985DPPC   C4A57512  24.648  25.849   0.802  0.3664  0.1095 -0.0083
 2985DPPC   C1B57513  25.336  26.768   0.676 -0.0994  0.2638  0.2503
 2985DPPC   C2B57514  25.171  26.501   0.952 -0.0402  0.1167 -0.0799
 2985DPPC   C3B57515  24.849  26.236   1.205  0.0258  0.1476  0.1204
 2985DPPC   C4B57516  24.543  25.909   1.410  0.0320 -0.0452 -0.3894
 2986DPPC   NC357517  22.310  39.987  25.834 -0.0551  0.3009  0.0837
 2986DPPC   PO457518  22.553  39.785  26.127 -0.4190  0.0521 -0.0761
 2986DPPC   GL157519  22.592  39.368  26.141 -0.2176 -0.0937  0.3657
 2986DPPC   GL257520  22.501  39.190  26.310  0.3261  0.0817 -0.4752
 2986DPPC   C1A57521  22.610  39.161  25.674  0.1516  0.0250 -0.2728
 2986DPPC   C2A57522  22.866  38.881  25.500 -0.1766 -0.2580 -0.0700
 2986DPPC   C3A57523  22.803  38.701  25.163 -0.0538 -0.1140  0.4835
 2986DPPC   C4A57524  22.521  38.553  24.875  0.2737  0.0319 -0.2992
 2986DPPC   C1B57525  22.794  38.808  26.128 -0.0045  0.0223 -0.4320
 2986DPPC   C2B57526  22.981  38.427  26.109  0.2552 -0.1496 -0.0517
 2986DPPC   C3B57527  23.086  38.001  26.089  0.1365  0.1146 -0.1708
 2986DPPC   C4B57528  23.301  37.687  25.840 -0.0917  0.1746  0.1853
 2987DPPC   NC357529  35.415  28.504  23.280  0.0130 -0.2237  0.1130
 2987DPPC   PO457530  35.751  28.409  23.613 -0.1343  0.1439  0.0846
 2987DPPC   GL157531  36.167  28.523  23.755  0.0234  0.2065  0.1981
 2987DPPC   GL257532  36.338  28.215  23.791  0.1865  0.1510 -0.0343
 2987DPPC   C1A57533  36.726  28.449  23.855  0.0710 -0.3714 -0.2260
 2987DPPC   C2A57534  37.094  28.661  23.782 -0.0926  0.1026  0.1593
 2987DPPC   C3A57535  37.458  28.561  23.568  0.0651 -0.2415  0.2099
 2987DPPC   C4A57536  37.653  28.693  23.164  0.0891  0.0417  0.2174
 2987DPPC   C1B57537  36.715  27.963  23.908 -0.2520  0.0738 -0.1087
 2987DPPC   C2B57538  36.998  27.749  24.143 -0.0882  0.0543  0.0060
 2987DPPC   C3B57539  36.852  27.325  24.250 -0.0284 -0.0857 -0.1720
 2987DPPC   C4B57540  36.941  26.894  24.414 -0.0125  0.5151  0.1424
 2988DPPC   NC357541  26.310  24.435  23.813  0.1904  0.0089 -0.1899
 2988DPPC   PO457542  26.512  24.428  24.183 -0.2579 -0.0131 -0.0485
 2988DPPC   GL157543  26.196  24.419  24.430  0.4943  0.2447 -0.0712
 2988DPPC   GL257544  25.864  24.503  24.379 -0.1618  0.0795  0.0626
 2988DPPC   C1A57545  25.882  24.227  24.767  0.0577  0.1099  0.0734
 2988DPPC   C2A57546  25.478  24.004  24.725 -0.3455  0.0548  0.0960
 2988DPPC   C3A57547  25.093  23.824  24.940  0.3325  0.5716 -0.0557
 2988DPPC   C4A57548  24.704  23.707  25.260  0.0435 -0.4246 -0.0260
 2988DPPC   C1B57549  25.490  24.482  24.643  0.1431  0.1939 -0.0372
 2988DPPC   C2B57550  25.191  24.395  24.902 -0.0026 -0.0761  0.0449
 2988DPPC   C3B57551  24.955  24.182  25.279 -0.0409  0.0440 -0.1213
 2988DPPC   C4B57552  24.425  24.187  25.224  0.0397 -0.0514  0.2404
 2989DPPC   NC357553  24.612  16.502   3.590  0.2902  0.3424  0.1901
 2989DPPC   PO457554  24.737  16.961   3.591 -0.1901  0.0910 -0.3569
 2989DPPC   GL157555  25.025  17.270   3.276 -0.2383 -0.0163  0.2053
 2989DPPC   GL257556  24.954  17.624   3.395  0.3573 -0.2399  0.2948
 2989DPPC   C1A57557  25.152  17.551   2.898 -0.2113 -0.2154 -0.5584
 2989DPPC   C2A57558  25.135  17.823   2.628  0.1780  0.3767 -0.0957
 2989DPPC   C3A57559  24.838  18.215   2.599 -0.1222  0.1112  0.0376
 2989DPPC   C4A57560  25.025  18.505   2.504  0.1831 -0.0459  0.1269
 2989DPPC   C1B57561  24.892  17.986   3.045  0.0769  0.0114  0.0172
 2989DPPC   C2B57562  25.204  18.374   2.994  0.1538  0.0613 -0.1922
 2989DPPC   C3B57563  25.419  18.663   2.693  0.3073 -0.1057 -0.0943
 2989DPPC   C4B57564  25.787  18.876   2.433 -0.2850 -0.2608  0.0508
 2990DPPC   NC357565  20.667  30.595  25.045  0.0532 -0.0666 -0.1497
 2990DPPC   PO457566  20.757  30.802  25.432 -0.2288 -0.0887  0.1008
 2990DPPC   GL157567  20.730  30.389  25.581 -0.2801 -0.0270 -0.1320
 2990DPPC   GL257568  20.513  30.257  25.386 -0.1901 -0.0673  0.3078
 2990DPPC   C1A57569  20.551  30.178  25.944  0.4472  0.1499 -0.2832
 2990DPPC   C2A57570  20.157  30.363  26.131 -0.1633  0.1841 -0.1229
 2990DPPC   C3A57571  19.803  30.153  26.186 -0.0170  0.3068  0.0897
 2990DPPC   C4A57572  19.603  29.831  26.476 -0.0419 -0.1537  0.1977
 2990DPPC   C1B57573  20.226  30.372  25.622 -0.2730  0.0902 -0.0711
 2990DPPC   C2B57574  19.902  30.686  25.677  0.4200 -0.2552 -0.0556
 2990DPPC   C3B57575  19.659  31.001  25.724  0.3126  0.1260  0.2035
 2990DPPC   C4B57576  19.345  31.258  25.650  0.2489  0.1415  0.0233
 2991DPPC   NC357577  25.356  41.412  23.304 -0.3195 -0.1385 -0.0342
 2991DPPC   PO457578  25.066  41.630  22.959 -0.0675  0.3594  0.1022
 2991DPPC   GL157579  25.258  41.231  22.800  0.2928 -0.0793  0.0758
 2991DPPC   GL257580  25.470  41.334  22.582 -0.2661 -0.1351  0.0826
 2991DPPC   C1A57581  25.280  40.830  22.660 -0.1639  0.0771  0.0541
 2991DPPC   C2A57582  25.198  40.419  22.621 -0.1881  0.1434 -0.3733
 2991DPPC   C3A57583  25.243  40.111  22.326  0.0714  0.1641 -0.0350
 2991DPPC   C4A57584  25.292  39.646  22.227 -0.0324  0.0833 -0.1805
 2991DPPC   C1B57585  25.303  41.082  22.170 -0.1539  0.2143  0.1365
 2991DPPC   C2B57586  25.056  40.743  22.183 -0.0553 -0.1562 -0.0149
 2991DPPC   C3B57587  24.733  40.665  21.924  0.0209 -0.0226 -0.2974
 2991DPPC   C4B57588  24.681  40.282  21.586  0.0995  0.2107  0.1236
 2992DPPC   NC357589  24.054  27.051  23.567  0.1721  0.0421 -0.0374
 2992DPPC   PO457590  23.636  26.988  23.627  0.3478  0.1084 -0.1142
 2992DPPC   GL157591  23.236  26.930  23.762 -0.1017  0.1345  0.2425
 2992DPPC   GL257592  23.017  27.122  23.494 -0.4511  0.0595  0.1697
 2992DPPC   C1A57593  22.767  26.848  23.891  0.0095 -0.0428  0.0283
 2992DPPC   C2A57594  22.525  26.679  24.132  0.0384 -0.0073  0.2224
 2992DPPC   C3A57595  22.260  26.323  24.152  0.6181 -0.2470  0.1901
 2992DPPC   C4A57596  21.751  26.092  24.179  0.0487  0.2041  0.3838
 2992DPPC   C1B57597  22.602  26.951  23.372  0.0874  0.1926 -0.0456
 2992DPPC   C2B57598  22.172  26.745  23.550  0.1460  0.3573  0.1124
 2992DPPC   C3B57599  21.697  26.687  23.454  0.1994 -0.0316  0.0911
 2992DPPC   C4B57600  21.445  26.358  23.267  0.0594  0.1598 -0.0986
 2993DPPC   NC357601  15.329  32.858  21.204 -0.0833 -0.0158 -0.1672
 2993DPPC   PO457602  15.685  32.810  20.979 -0.0104  0.2316 -0.2870
 2993DPPC   GL157603  16.070  32.664  21.121 -0.0665  0.1305  0.3579
 2993DPPC   GL257604  16.323  32.790  20.997  0.2829  0.1984 -0.1094
 2993DPPC   C1A57605  16.381  32.226  21.163  0.1589  0.2085 -0.1263
 2993DPPC   C2A57606  16.767  32.079  21.307  0.0417  0.1479  0.1171
 2993DPPC   C3A57607  17.040  31.747  21.195 -0.0439 -0.2538  0.0315
 2993DPPC   C4A57608  17.415  31.681  21.371 -0.2565  0.1092  0.2292
 2993DPPC   C1B57609  16.714  32.458  20.912  0.0966  0.3054  0.1674
 2993DPPC   C2B57610  17.050  32.228  20.918  0.1151  0.1236  0.0154
 2993DPPC   C3B57611  17.324  31.957  20.823 -0.0465 -0.1741 -0.0799
 2993DPPC   C4B57612  17.800  31.885  20.561  0.0795 -0.0307  0.2847
 2994DPPC   NC357613  23.178  31.137   1.589  0.0916  0.0038  0.2037
 2994DPPC   PO457614  23.190  30.672   1.426 -0.2478  0.1064 -0.3939
 2994DPPC   GL157615  22.952  30.366   1.671 -0.0153 -0.1466 -0.0413
 2994DPPC   GL257616  22.820  30.102   1.541  0.2758 -0.1744  0.2211
 2994DPPC   C1A57617  22.738  30.426   2.101  0.3288 -0.0951 -0.3361
 2994DPPC   C2A57618  22.462  30.398   2.485  0.0484 -0.2288 -0.2757
 2994DPPC   C3A57619  22.434  30.714   2.796  0.1501  0.1124  0.0444
 2994DPPC   C4A57620  22.246  31.105   2.857 -0.1288  0.2119 -0.1553
 2994DPPC   C1B57621  22.520  29.999   1.838 -0.2926  0.1784 -0.2395
 2994DPPC   C2B57622  22.539  29.934   2.190  0.2952  0.0266 -0.0495
 2994DPPC   C3B57623  22.424  29.969   2.660 -0.0629 -0.2444 -0.0926
 2994DPPC   C4B57624  22.586  30.076   2.960  0.1331  0.0535 -0.1801
 2995DPPC   NC357625  31.899  21.198  13.851  0.1285 -0.0860 -0.3736
 2995DPPC   PO457626  32.241  21.481  13.872 -0.1219 -0.1109 -0.3336
 2995DPPC   GL157627  32.018  21.470  14.262  0.0255 -0.2808  0.2018
 2995DPPC   GL257628  31.972  21.137  14.443  0.1249 -0.3504 -0.2260
 2995DPPC   C1A57629  31.722  21.617  14.522  0.1570 -0.1491  0.0972
 2995DPPC   C2A57630  31.664  22.035  14.746 -0.3628 -0.1144 -0.3826
 2995DPPC   C3A57631  31.594  22.568  14.845  0.2074  0.0178 -0.1209
 2995DPPC   C4A57632  31.299  22.828  15.064 -0.0533  0.2474  0.3221
 2995DPPC   C1B57633  32.102  21.350  14.800  0.0189  0.0116 -0.2739
 2995DPPC   C2B57634  32.506  21.603  14.806  0.0628  0.0192  0.1642
 2995DPPC   C3B57635  32.678  21.767  15.151  0.1143 -0.2996 -0.1091
 2995DPPC   C4B57636  32.584  22.248  15.351 -0.0173  0.2930  0.0685
 2996DPPC   NC357637  21.625  34.318  11.609 -0.0129 -0.0864 -0.3550
 2996DPPC   PO457638  21.510  33.885  11.690  0.0873  0.1212 -0.1190
 2996DPPC   GL157639  21.544  33.659  12.068  0.0947 -0.0264 -0.1764
 2996DPPC   GL257640  21.477  33.801  12.357 -0.1571 -0.1218  0.1674
 2996DPPC   C1A57641  21.827  33.288  12.234  0.1250  0.1008 -0.2910
 2996DPPC   C2A57642  22.138  33.193  12.441 -0.1979  0.0215  0.2337
 2996DPPC   C3A57643  22.369  32.977  12.834  0.2254  0.0507 -0.0814
 2996DPPC   C4A57644  22.303  32.736  13.186  0.2558 -0.0599  0.0267
 2996DPPC   C1B57645  21.710  33.554  12.701 -0.0321 -0.1388 -0.2508
 2996DPPC   C2B57646  21.886  33.259  12.929  0.1478  0.0474  0.4326
 2996DPPC   C3B57647  22.032  33.173  13.236  0.1035 -0.1566  0.0759
 2996DPPC   C4B57648  21.975  32.866  13.542  0.3093  0.1737  0.0065
 2997DPPC   NC357649  28.659  26.596   0.859  0.1490 -0.3115 -0.0145
 2997DPPC   PO457650  28.484  26.182   0.834 -0.3324  0.2455 -0.0440
 2997DPPC   GL157651  28.253  25.850   1.028  0.0811  0.1031 -0.3928
 2997DPPC   GL257652  28.529  25.766   1.169 -0.1683 -0.0373  0.0863
 2997DPPC   C1A57653  27.935  25.474   1.175 -0.0395  0.2321 -0.0460
 2997DPPC   C2A57654  27.894  25.178   1.493  0.2358  0.2181 -0.1921
 2997DPPC   C3A57655  28.156  24.844   1.426  0.1769  0.0679 -0.2471
 2997DPPC   C4A57656  28.456  24.486   1.432 -0.2143  0.1846 -0.0172
 2997DPPC   C1B57657  28.213  25.762   1.571  0.1137 -0.1589 -0.0184
 2997DPPC   C2B57658  27.735  25.766   1.649 -0.3808 -0.1185  0.0287
 2997DPPC   C3B57659  27.357  25.582   1.757  0.2473  0.2530 -0.4694
 2997DPPC   C4B57660  27.004  25.596   1.591 -0.1887  0.0264  0.1187
 2998DPPC   NC357661  23.455  15.723  20.570  0.0407  0.1192  0.2558
 2998DPPC   PO457662  23.664  15.808  20.167  0.1925  0.0147 -0.4274
 2998DPPC   GL157663  23.908  16.044  20.433  0.0426  0.1459  0.0828
 2998DPPC   GL257664  24.220  15.935  20.730 -0.2258 -0.0144 -0.0518
 2998DPPC   C1A57665  23.881  16.443  20.524 -0.0528  0.0376  0.0357
 2998DPPC   C2A57666  24.246  16.667  20.640  0.3783 -0.3590  0.0365
 2998DPPC   C3A57667  24.301  17.049  20.712  0.0058  0.3221 -0.1410
 2998DPPC   C4A57668  23.978  17.332  20.609  0.1124 -0.0286  0.0653
 2998DPPC   C1B57669  24.264  16.305  20.995  0.1970 -0.0279 -0.0117
 2998DPPC   C2B57670  23.916  16.614  21.021  0.0819 -0.1098  0.1283
 2998DPPC   C3B57671  23.679  16.936  20.656  0.2409 -0.3583  0.2004
 2998DPPC   C4B57672  23.263  17.024  20.379  0.0622  0.0919 -0.0941
 2999DPPC   NC357673  24.669  28.202  26.010  0.1433 -0.0773 -0.0522
 2999DPPC   PO457674  24.749  27.804  25.796  0.4109 -0.0188  0.0237
 2999DPPC   GL157675  24.479  27.712  26.073 -0.0708 -0.0829 -0.1770
 2999DPPC   GL257676  24.540  27.543  26.176 -0.2163  0.4021  0.2393
 2999DPPC   C1A57677  24.149  27.351  26.003 -0.0863  0.1680 -0.2406
 2999DPPC   C2A57678  23.838  27.013  26.177 -0.1394 -0.2105 -0.0398
 2999DPPC   C3A57679  23.862  26.519  26.299 -0.1122  0.0692 -0.2667
 2999DPPC   C4A57680  23.709  26.267  26.644  0.1016 -0.2810  0.0679
 2999DPPC   C1B57681  24.577  27.564  26.615 -0.1244 -0.1076  0.0966
 2999DPPC   C2B57682  24.147  27.436  26.825 -0.2006 -0.1778 -0.2233
 2999DPPC   C3B57683  24.032  27.013   0.127  0.3018  0.0691 -0.1035
 2999DPPC   C4B57684  23.780  26.692   0.148  0.2367 -0.0906  0.3549
 3000DPPC   NC357685  24.997  30.131   2.279 -0.1151 -0.1450 -0.1903
 3000DPPC   PO457686  24.786  30.423   2.492  0.0499  0.2508 -0.0575
 3000DPPC   GL157687  24.548  30.049   2.502  0.0367  0.0039 -0.0053
 3000DPPC   GL257688  24.722  30.013   2.731 -0.0020 -0.0596 -0.1012
 3000DPPC   C1A57689  24.191  29.847   2.482 -0.0468 -0.0471 -0.1334
 3000DPPC   C2A57690  23.866  29.994   2.530  0.0892  0.1549  0.0870
 3000DPPC   C3A57691  23.746  30.173   2.972 -0.1427 -0.0406 -0.2932
 3000DPPC   C4A57692  23.814  30.391   3.321 -0.4290 -0.0978  0.1560
 3000DPPC   C1B57693  24.749  29.906   3.162 -0.2490  0.1623 -0.0084
 3000DPPC   C2B57694  24.404  29.856   3.450 -0.2918  0.1519 -0.0103
 3000DPPC   C3B57695  24.173  29.515   3.449 -0.1991  0.0507 -0.2043
 3000DPPC   C4B57696  23.776  29.360   3.434  0.1886  0.2927 -0.1043
 3001DPPC   NC357697  40.154  33.677  21.453  0.0004  0.0212  0.0217
 3001DPPC   PO457698  39.908  33.661  21.848  0.1576  0.0269  0.2906
 3001DPPC   GL157699  39.509  33.425  21.900 -0.1080 -0.2146  0.5476
 3001DPPC   GL257700  39.186  33.505  21.923 -0.1543  0.0677 -0.2683
 3001DPPC   C1A57701  39.400  33.121  22.146 -0.1524  0.1562  0.2934
 3001DPPC   C2A57702  39.313  32.803  22.440  0.1504  0.2603  0.0094
 3001DPPC   C3A57703  39.117  32.419  22.523 -0.1611 -0.1606 -0.2051
 3001DPPC   C4A57704  38.718  32.374  22.286  0.2531 -0.0746  0.0899
 3001DPPC   C1B57705  38.725  33.394  21.812 -0.1246 -0.1883  0.0406
 3001DPPC   C2B57706  38.448  33.638  21.633 -0.0924 -0.0261  0.1766
 3001DPPC   C3B57707  38.220  33.646  21.259 -0.3397 -0.0648 -0.1676
 3001DPPC   C4B57708  38.321  33.494  20.782 -0.1138  0.2485 -0.0317
 3002DPPC   NC357709  14.220  30.406   1.416 -0.0672 -0.3907  0.3605
 3002DPPC   PO457710  14.284  30.191   1.095  0.3023 -0.1631 -0.2652
 3002DPPC   GL157711  14.518  29.867   0.917 -0.1976  0.0614 -0.1665
 3002DPPC   GL257712  14.617  29.479   0.690  0.4088 -0.0327  0.2771
 3002DPPC   C1A57713  14.835  29.662   1.109  0.0207  0.2016 -0.0934
 3002DPPC   C2A57714  14.889  29.230   1.094  0.1877 -0.2510  0.0111
 3002DPPC   C3A57715  14.835  28.846   0.861  0.3381  0.1203  0.0663
 3002DPPC   C4A57716  14.553  28.513   0.656  0.4348 -0.4798  0.2454
 3002DPPC   C1B57717  15.098  29.396   0.587  0.2584  0.3786 -0.2928
 3002DPPC   C2B57718  15.580  29.022   0.490 -0.0873 -0.2211  0.2060
 3002DPPC   C3B57719  15.719  28.640   0.584 -0.0560  0.0303 -0.1157
 3002DPPC   C4B57720  15.884  28.357   0.340 -0.1799  0.3363  0.1881
 3003DPPC   NC357721  25.999  22.617  21.067 -0.0111  0.0804  0.1272
 3003DPPC   PO457722  25.848  22.268  20.890  0.0704 -0.1133 -0.1923
 3003DPPC   GL157723  25.414  22.351  20.881 -0.2012  0.0213  0.1435
 3003DPPC   GL257724  25.336  22.633  20.839  0.1882  0.1636 -0.0212
 3003DPPC   C1A57725  25.015  22.354  20.520 -0.1896 -0.0240  0.0782
 3003DPPC   C2A57726  24.620  22.272  20.507 -0.2180 -0.0970  0.1812
 3003DPPC   C3A57727  24.492  22.125  20.200 -0.0524 -0.0473  0.1399
 3003DPPC   C4A57728  24.195  21.834  20.040 -0.0349 -0.1084  0.0828
 3003DPPC   C1B57729  24.863  22.456  21.053 -0.1478 -0.3386  0.2018
 3003DPPC   C2B57730  24.710  22.308  21.456  0.0982  0.1180  0.1597
 3003DPPC   C3B57731  24.700  22.243  21.870 -0.1423 -0.0113 -0.2397
 3003DPPC   C4B57732  24.819  22.193  22.207 -0.0054  0.0512  0.2195
 3004DPPC   NC357733  22.757  30.045  25.317  0.1130 -0.0432  0.1996
 3004DPPC   PO457734  22.824  29.681  25.436  0.2331 -0.0583 -0.2095
 3004DPPC   GL157735  22.450  29.387  25.629 -0.1046  0.2368 -0.1340
 3004DPPC   GL257736  22.030  29.480  25.617  0.0825  0.0963 -0.2670
 3004DPPC   C1A57737  22.187  29.007  25.664  0.0498  0.2338  0.0725
 3004DPPC   C2A57738  22.042  28.609  25.420  0.2135  0.0613 -0.5630
 3004DPPC   C3A57739  22.027  28.370  25.073  0.2563  0.0020 -0.1383
 3004DPPC   C4A57740  22.167  28.161  24.737  0.0971  0.1700  0.3391
 3004DPPC   C1B57741  21.671  29.107  25.481  0.0661  0.1829 -0.0353
 3004DPPC   C2B57742  21.491  28.658  25.622  0.0501 -0.0442 -0.2668
 3004DPPC   C3B57743  21.526  28.183  25.891 -0.1120 -0.2841 -0.1728
 3004DPPC   C4B57744  21.548  27.898  26.228 -0.1605  0.0211  0.3848
 3005DPPC   NC357745  18.963  19.686   1.889  0.1549  0.1680  0.2910
 3005DPPC   PO457746  19.359  19.622   1.929  0.4336 -0.2946 -0.2308
 3005DPPC   GL157747  19.346  20.068   1.810  0.3598 -0.1773  0.0743
 3005DPPC   GL257748  19.232  19.980   1.555  0.4982  0.1942  0.0548
 3005DPPC   C1A57749  19.758  20.347   1.794 -0.3427 -0.0623  0.1547
 3005DPPC   C2A57750  19.979  20.735   1.885 -0.0541 -0.0682 -0.2425
 3005DPPC   C3A57751  20.230  20.766   2.255  0.2888  0.0589  0.1706
 3005DPPC   C4A57752  20.384  21.160   2.181  0.3578  0.1321 -0.2729
 3005DPPC   C1B57753  19.380  20.361   1.375 -0.0711 -0.1532  0.2790
 3005DPPC   C2B57754  19.790  20.567   1.120  0.3187 -0.2838 -0.2917
 3005DPPC   C3B57755  20.146  20.641   1.416  0.2498 -0.1112  0.0820
 3005DPPC   C4B57756  20.436  20.640   1.741  0.2168 -0.2132  0.2067
 3006DPPC   NC357757  18.575  17.124  22.462  0.1689 -0.0206  0.1626
 3006DPPC   PO457758  18.942  17.002  22.412 -0.1397  0.0103  0.1963
 3006DPPC   GL157759  19.035  17.449  22.386 -0.1351  0.4140  0.2402
 3006DPPC   GL257760  18.785  17.585  22.345  0.1966  0.0855  0.1086
 3006DPPC   C1A57761  19.433  17.617  22.399 -0.2078 -0.1826  0.0888
 3006DPPC   C2A57762  19.638  18.000  22.377  0.1615 -0.5345 -0.0519
 3006DPPC   C3A57763  19.955  17.943  22.037 -0.0244 -0.2791  0.3227
 3006DPPC   C4A57764  20.107  18.267  21.762  0.3005  0.0652 -0.1097
 3006DPPC   C1B57765  18.982  17.981  22.344 -0.0390 -0.3308  0.1088
 3006DPPC   C2B57766  19.082  18.254  22.014  0.0959  0.3825  0.0998
 3006DPPC   C3B57767  19.454  18.316  21.989  0.1449  0.1672  0.2306
 3006DPPC   C4B57768  19.746  18.470  22.099 -0.1189 -0.0762 -0.0902
 3007DPPC   NC357769  13.253  29.746  24.517 -0.0570 -0.3714 -0.2637
 3007DPPC   PO457770  13.267  29.423  24.879  0.1159 -0.1123 -0.2005
 3007DPPC   GL157771  13.657  29.201  24.721  0.1617  0.1874 -0.1934
 3007DPPC   GL257772  13.939  29.424  24.555 -0.2250 -0.1196 -0.0912
 3007DPPC   C1A57773  14.009  28.969  24.395  0.2244  0.1015 -0.0053
 3007DPPC   C2A57774  14.315  28.718  24.168  0.0256 -0.0921  0.3810
 3007DPPC   C3A57775  14.522  28.491  23.804 -0.1730  0.1336 -0.4385
 3007DPPC   C4A57776  14.663  28.798  23.472 -0.0229  0.0516  0.2086
 3007DPPC   C1B57777  14.191  29.251  24.854 -0.0217 -0.0934 -0.2162
 3007DPPC   C2B57778  14.270  29.044  25.335 -0.1917  0.3161 -0.1898
 3007DPPC   C3B57779  14.182  28.616  25.411  0.2348 -0.0451  0.1349
 3007DPPC   C4B57780  14.312  28.180  25.491 -0.1819 -0.1476  0.1198
 3008DPPC   NC357781  22.553  27.682  20.240  0.0076  0.1670  0.0866
 3008DPPC   PO457782  22.295  27.782  20.367  0.2134 -0.2438 -0.1089
 3008DPPC   GL157783  21.943  27.538  20.475  0.1530  0.1632  0.3661
 3008DPPC   GL257784  21.714  27.463  20.758 -0.1683  0.0129 -0.0783
 3008DPPC   C1A57785  21.813  27.065  20.576  0.1838  0.1153 -0.0029
 3008DPPC   C2A57786  21.418  26.941  20.764 -0.0431  0.2547  0.0728
 3008DPPC   C3A57787  21.001  26.791  20.938  0.0581 -0.0742  0.3394
 3008DPPC   C4A57788  20.540  26.905  21.003  0.1616 -0.1653  0.1020
 3008DPPC   C1B57789  21.310  27.462  20.863  0.2922 -0.1012  0.1932
 3008DPPC   C2B57790  20.981  27.295  20.734 -0.0809 -0.1334 -0.0603
 3008DPPC   C3B57791  20.747  27.093  20.571  0.0640 -0.2982  0.0192
 3008DPPC   C4B57792  20.523  27.263  20.191 -0.2714 -0.1958 -0.1393
 3009DPPC   NC357793  22.094  29.648  22.949 -0.4772  0.2521 -0.1236
 3009DPPC   PO457794  21.960  29.664  23.395 -0.4602  0.1622 -0.0663
 3009DPPC   GL157795  21.663  29.381  23.656  0.1326  0.1234  0.2901
 3009DPPC   GL257796  21.674  28.993  23.651 -0.0695 -0.5003 -0.2052
 3009DPPC   C1A57797  21.318  29.204  23.956 -0.2759  0.2900 -0.2650
 3009DPPC   C2A57798  21.150  28.838  24.174  0.1991  0.0309  0.0698
 3009DPPC   C3A57799  20.976  28.440  24.072  0.1196  0.2995  0.1472
 3009DPPC   C4A57800  20.645  28.222  23.945  0.2158  0.1925  0.1206
 3009DPPC   C1B57801  21.357  28.664  23.751  0.4862 -0.1025  0.1287
 3009DPPC   C2B57802  21.292  28.250  23.633  0.2884 -0.1186 -0.0652
 3009DPPC   C3B57803  21.159  27.758  23.554 -0.3256 -0.0767 -0.0339
 3009DPPC   C4B57804  21.331  27.368  23.742  0.0187 -0.1862 -0.3777
 3010DPPC   NC357805  32.842  24.274   4.310  0.3142  0.1015 -0.0692
 3010DPPC   PO457806  32.495  24.268   4.472 -0.2583 -0.0735  0.2484
 3010DPPC   GL157807  32.428  24.344   4.043  0.1301 -0.2413 -0.1409
 3010DPPC   GL257808  32.600  24.248   3.842 -0.1698  0.4136  0.3844
 3010DPPC   C1A57809  32.137  24.656   4.030 -0.2391  0.0998 -0.4221
 3010DPPC   C2A57810  31.776  25.122   3.944 -0.2704  0.1630  0.1792
 3010DPPC   C3A57811  31.574  25.486   4.090  0.0126  0.1563  0.0097
 3010DPPC   C4A57812  31.227  25.704   4.115  0.3134 -0.2729  0.0580
 3010DPPC   C1B57813  32.300  24.118   3.552 -0.3044 -0.0355  0.2495
 3010DPPC   C2B57814  32.212  23.914   3.133  0.1481 -0.0454  0.0183
 3010DPPC   C3B57815  32.053  23.980   2.711  0.1778  0.0902  0.1147
 3010DPPC   C4B57816  31.858  24.333   2.503  0.1484  0.0153 -0.1365
 3011DPPC   NC357817  15.868  25.194   3.406  0.1772 -0.1933 -0.2026
 3011DPPC   PO457818  16.219  24.925   3.314  0.2987  0.0713  0.2310
 3011DPPC   GL157819  16.420  24.751   2.950 -0.0197 -0.3231 -0.0071
 3011DPPC   GL257820  16.312  24.669   2.600  0.1578  0.2194  0.1372
 3011DPPC   C1A57821  16.826  24.690   2.785  0.0786  0.1422 -0.0838
 3011DPPC   C2A57822  17.237  24.652   2.639  0.0063 -0.0906  0.1770
 3011DPPC   C3A57823  17.626  24.604   2.303 -0.1923 -0.1072 -0.1825
 3011DPPC   C4A57824  18.061  24.477   2.203 -0.1409  0.1611 -0.1437
 3011DPPC   C1B57825  16.538  24.619   2.342  0.0969 -0.0917  0.0198
 3011DPPC   C2B57826  16.878  24.317   2.255 -0.0025 -0.1724  0.1988
 3011DPPC   C3B57827  17.251  24.290   1.995 -0.0749 -0.1115 -0.4601
 3011DPPC   C4B57828  17.628  24.115   1.989 -0.1787 -0.2394  0.1177
 3012DPPC   NC357829  24.249  24.471  20.368 -0.0219 -0.2746  0.2479
 3012DPPC   PO457830  24.268  24.303  20.706 -0.0571  0.3156  0.2311
 3012DPPC   GL157831  24.013  23.938  20.626  0.1214 -0.1754 -0.1445
 3012DPPC   GL257832  23.869  24.151  20.365  0.1895  0.0284 -0.0077
 3012DPPC   C1A57833  24.125  23.602  20.697 -0.0298  0.2612  0.1187
 3012DPPC   C2A57834  23.798  23.317  20.674  0.1383  0.2424 -0.3341
 3012DPPC   C3A57835  23.634  22.995  20.918 -0.0437 -0.0692  0.1803
 3012DPPC   C4A57836  23.513  22.905  21.357  0.0954  0.1319 -0.0473
 3012DPPC   C1B57837  23.658  23.690  20.444 -0.0335 -0.3308 -0.0094
 3012DPPC   C2B57838  23.289  23.537  20.706  0.0512 -0.1734  0.1701
 3012DPPC   C3B57839  22.832  23.671  20.809 -0.2049  0.1335  0.0198
 3012DPPC   C4B57840  22.639  23.338  21.010  0.0632 -0.1834 -0.0198
 3013DPPC   NC357841  24.908  26.836  25.505 -0.2995  0.2420  0.3969
 3013DPPC   PO457842  24.516  26.949  25.135 -0.0148  0.1922 -0.4033
 3013DPPC   GL157843  24.354  26.575  25.323 -0.0467  0.1013  0.3027
 3013DPPC   GL257844  24.217  26.275  25.049  0.1543  0.0323  0.0379
 3013DPPC   C1A57845  24.279  26.407  25.664  0.2873 -0.0656 -0.2203
 3013DPPC   C2A57846  24.338  26.451  26.197  0.0281 -0.0381 -0.1044
 3013DPPC   C3A57847  24.259  26.213  26.323 -0.1689 -0.2485 -0.0751
 3013DPPC   C4A57848  24.033  25.712  26.321  0.0065 -0.1499 -0.0125
 3013DPPC   C1B57849  23.855  26.247  25.266  0.1869  0.1122  0.1317
 3013DPPC   C2B57850  23.536  26.102  25.485 -0.3462 -0.3595 -0.1224
 3013DPPC   C3B57851  23.153  25.967  25.789 -0.0508 -0.0288  0.1103
 3013DPPC   C4B57852  22.682  26.099  25.938 -0.0859  0.2836 -0.1045
 3014DPPC   NC357853  17.500  30.839  14.212  0.2120 -0.0464 -0.1597
 3014DPPC   PO457854  17.809  30.537  14.519  0.0866  0.3542 -0.1649
 3014DPPC   GL157855  18.118  30.246  14.686 -0.4283 -0.0163  0.1369
 3014DPPC   GL257856  17.965  30.151  14.941  0.0494  0.1987 -0.0317
 3014DPPC   C1A57857  18.446  29.989  14.418 -0.1509  0.0281  0.2052
 3014DPPC   C2A57858  18.769  29.820  14.070 -0.2726 -0.1627 -0.2687
 3014DPPC   C3A57859  19.095  29.534  14.075 -0.0764 -0.0749 -0.0946
 3014DPPC   C4A57860  19.259  29.008  14.272  0.0962 -0.2047 -0.0797
 3014DPPC   C1B57861  18.443  30.028  14.900  0.0334  0.1006  0.0577
 3014DPPC   C2B57862  18.808  30.295  14.963  0.3336  0.1361 -0.2295
 3014DPPC   C3B57863  19.231  30.512  15.155  0.2779 -0.4143 -0.1467
 3014DPPC   C4B57864  19.434  30.879  15.264  0.1355 -0.0207 -0.1429
 3015DPPC   NC357865  27.319  22.611  23.173 -0.0240  0.3905  0.0367
 3015DPPC   PO457866  27.358  22.156  23.185 -0.0171  0.1498  0.0815
 3015DPPC   GL157867  27.129  21.834  23.319 -0.0186 -0.1498 -0.1229
 3015DPPC   GL257868  27.176  21.638  23.122 -0.1953 -0.1791 -0.0578
 3015DPPC   C1A57869  26.780  21.656  23.398  0.0682 -0.2457  0.2111
 3015DPPC   C2A57870  26.480  21.269  23.429  0.0442 -0.0530  0.3242
 3015DPPC   C3A57871  26.186  20.999  23.574  0.0419 -0.0069  0.1480
 3015DPPC   C4A57872  26.093  20.539  23.726 -0.1742  0.0895  0.0901
 3015DPPC   C1B57873  27.116  21.271  23.500  0.0904  0.3450  0.4192
 3015DPPC   C2B57874  26.846  21.035  23.681  0.1408 -0.2003  0.0963
 3015DPPC   C3B57875  26.547  20.846  23.867 -0.0921  0.1457  0.0788
 3015DPPC   C4B57876  26.584  20.471  24.058 -0.0047  0.0443  0.1676
 3016DPPC   NC357877  29.125  23.623  25.206 -0.2707  0.1132  0.0055
 3016DPPC   PO457878  29.128  23.394  25.542 -0.0891  0.1509 -0.0912
 3016DPPC   GL157879  28.779  23.096  25.742  0.2660 -0.1932  0.0181
 3016DPPC   GL257880  28.481  23.258  25.681  0.2568 -0.0163 -0.2554
 3016DPPC   C1A57881  28.419  22.760  25.940  0.2681 -0.3070  0.1473
 3016DPPC   C2A57882  28.123  22.696  26.315  0.2722  0.2361 -0.2362
 3016DPPC   C3A57883  27.866  23.028  26.377  0.1627 -0.0563  0.0849
 3016DPPC   C4A57884  27.878  23.397  26.478  0.1621  0.0117  0.0059
 3016DPPC   C1B57885  28.113  23.178  25.922 -0.0066  0.0218  0.1208
 3016DPPC   C2B57886  27.960  22.729  25.818  0.0115  0.4449 -0.0767
 3016DPPC   C3B57887  27.751  22.389  25.665 -0.4394 -0.1924 -0.3631
 3016DPPC   C4B57888  27.779  22.196  25.199 -0.1866 -0.0407  0.0000
 3017DPPC   NC357889  32.372  29.658   0.833 -0.0077  0.1786  0.0745
 3017DPPC   PO457890  32.672  29.548   1.223  0.1067 -0.1127 -0.0333
 3017DPPC   GL157891  33.048  29.331   1.463 -0.2535 -0.0190  0.1565
 3017DPPC   GL257892  32.961  29.255   1.774  0.2465  0.1604  0.0452
 3017DPPC   C1A57893  33.330  29.000   1.335  0.1407 -0.2016  0.1339
 3017DPPC   C2A57894  33.728  28.907   1.519  0.1809 -0.0656  0.1850
 3017DPPC   C3A57895  34.117  28.955   1.710 -0.1228 -0.0135 -0.0993
 3017DPPC   C4A57896  34.557  29.050   1.614 -0.3322  0.1113  0.0592
 3017DPPC   C1B57897  33.280  29.181   2.040  0.0776  0.1340 -0.0525
 3017DPPC   C2B57898  33.472  28.973   2.415 -0.1795  0.0668 -0.1035
 3017DPPC   C3B57899  33.336  29.217   2.745 -0.0547 -0.0489 -0.1938
 3017DPPC   C4B57900  33.575  29.368   3.037 -0.1035 -0.3319  0.0010
 3018DPPC   NC357901  21.242  27.110  18.963  0.1393  0.1372 -0.4612
 3018DPPC   PO457902  21.096  26.862  18.562  0.2943 -0.0066  0.1262
 3018DPPC   GL157903  20.877  26.660  18.815  0.1994 -0.0795  0.0792
 3018DPPC   GL257904  20.830  26.911  19.157 -0.0311  0.1573  0.0257
 3018DPPC   C1A57905  20.356  26.584  18.780 -0.2432  0.1082  0.4250
 3018DPPC   C2A57906  20.096  26.490  18.461 -0.1254  0.0958 -0.2374
 3018DPPC   C3A57907  19.669  26.438  18.377 -0.0367 -0.1350  0.2697
 3018DPPC   C4A57908  19.426  26.429  17.954  0.1368 -0.1802  0.0130
 3018DPPC   C1B57909  20.817  27.130  19.574 -0.3113  0.1173 -0.4343
 3018DPPC   C2B57910  20.833  26.891  20.010 -0.3707 -0.2728 -0.1607
 3018DPPC   C3B57911  20.759  26.386  20.136 -0.2212 -0.0706 -0.1065
 3018DPPC   C4B57912  20.673  26.019  20.234 -0.0225  0.0789  0.0278
 3019DPPC   NC357913  26.416  25.566  25.527 -0.1151  0.0751  0.2036
 3019DPPC   PO457914  26.246  25.454  25.162 -0.0372 -0.1520  0.1881
 3019DPPC   GL157915  25.882  25.308  25.408  0.2166  0.0749 -0.0459
 3019DPPC   GL257916  25.626  25.198  25.139 -0.2417 -0.0671 -0.0940
 3019DPPC   C1A57917  25.563  25.067  25.618  0.1545 -0.1559  0.0058
 3019DPPC   C2A57918  25.311  24.830  25.952 -0.0805  0.3821 -0.1016
 3019DPPC   C3A57919  25.187  24.845  26.394 -0.1352 -0.3838  0.0321
 3019DPPC   C4A57920  24.966  24.788  26.695 -0.1160  0.0770  0.0182
 3019DPPC   C1B57921  25.194  25.307  25.237  0.0324  0.0558 -0.2366
 3019DPPC   C2B57922  24.883  25.091  25.624 -0.0339  0.2617 -0.0026
 3019DPPC   C3B57923  24.709  25.012  25.915  0.2033  0.1809 -0.1730
 3019DPPC   C4B57924  24.761  25.145  26.321 -0.1468  0.4820  0.2192
 3020DPPC   NC357925  21.508  29.872  23.534  0.0421 -0.1681 -0.2374
 3020DPPC   PO457926  21.026  29.894  23.470 -0.1965  0.0302  0.1029
 3020DPPC   GL157927  21.038  29.441  23.503  0.0048  0.2853  0.0131
 3020DPPC   GL257928  21.380  29.180  23.280  0.0523  0.3640 -0.0565
 3020DPPC   C1A57929  20.890  29.110  23.722 -0.2191  0.1471 -0.2238
 3020DPPC   C2A57930  20.692  28.940  24.015  0.0628 -0.3565 -0.2543
 3020DPPC   C3A57931  20.307  28.815  24.096  0.1354  0.2506 -0.1246
 3020DPPC   C4A57932  20.141  28.653  24.497 -0.3475  0.1443 -0.1404
 3020DPPC   C1B57933  21.177  28.891  23.380  0.1558 -0.1650  0.1449
 3020DPPC   C2B57934  20.966  28.528  23.393  0.0106 -0.1438 -0.1234
 3020DPPC   C3B57935  20.791  28.140  23.462  0.2766 -0.2333 -0.1062
 3020DPPC   C4B57936  20.425  27.816  23.505  0.1146  0.2189  0.2161
 3021DPPC   NC357937  25.498  24.446  11.351 -0.1393  0.1024  0.2393
 3021DPPC   PO457938  25.018  24.260  11.380  0.1508 -0.0831 -0.1152
 3021DPPC   GL157939  25.175  24.430  11.743  0.1232  0.0192 -0.2508
 3021DPPC   GL257940  25.387  24.674  11.788  0.2763  0.5468  0.0215
 3021DPPC   C1A57941  25.383  24.311  12.179 -0.1209 -0.0771  0.1125
 3021DPPC   C2A57942  25.431  24.048  12.536 -0.0318 -0.1922 -0.2618
 3021DPPC   C3A57943  25.356  23.851  12.973 -0.2303 -0.3163  0.0420
 3021DPPC   C4A57944  25.673  23.825  13.307 -0.3418  0.0874 -0.0216
 3021DPPC   C1B57945  25.358  24.996  12.137 -0.1258 -0.3102  0.2172
 3021DPPC   C2B57946  25.010  24.989  12.300  0.1374  0.1244 -0.1155
 3021DPPC   C3B57947  24.688  24.805  12.640 -0.1591  0.3346  0.0275
 3021DPPC   C4B57948  24.413  24.431  12.788  0.1291  0.0265  0.2070
 3022DPPC   NC357949  25.936  29.134   2.062  0.0890 -0.0599 -0.3344
 3022DPPC   PO457950  26.246  28.892   1.956 -0.1837 -0.4176 -0.1497
 3022DPPC   GL157951  26.041  28.620   2.238  0.0065  0.1498 -0.0303
 3022DPPC   GL257952  25.729  28.715   2.382 -0.2041 -0.1294  0.2915
 3022DPPC   C1A57953  25.959  28.589   2.740 -0.0321 -0.1993 -0.1785
 3022DPPC   C2A57954  25.836  28.285   2.954  0.2474 -0.0129 -0.1377
 3022DPPC   C3A57955  26.194  28.102   3.219  0.0323 -0.1509  0.0178
 3022DPPC   C4A57956  26.407  27.947   3.556 -0.1128 -0.2105  0.1434
 3022DPPC   C1B57957  25.470  28.370   2.582 -0.3412 -0.1632 -0.1574
 3022DPPC   C2B57958  25.682  27.903   2.684  0.1447  0.0741 -0.0243
 3022DPPC   C3B57959  25.777  27.700   3.032 -0.1038  0.3065 -0.0233
 3022DPPC   C4B57960  25.999  27.693   3.394 -0.1619  0.0408  0.0555
 3023DPPC   NC357961  23.750  28.014  23.704 -0.0843  0.1760  0.2754
 3023DPPC   PO457962  23.571  27.579  23.623  0.0506 -0.2673 -0.1065
 3023DPPC   GL157963  23.037  27.528  23.783 -0.2015 -0.0193 -0.2093
 3023DPPC   GL257964  23.037  27.651  24.156 -0.0930 -0.1848 -0.3127
 3023DPPC   C1A57965  22.739  27.323  23.940 -0.0014 -0.0761 -0.1683
 3023DPPC   C2A57966  22.275  27.124  23.945 -0.1205  0.0206  0.0603
 3023DPPC   C3A57967  21.953  26.999  24.180  0.1394 -0.1166  0.1085
 3023DPPC   C4A57968  21.848  26.635  23.969  0.0803  0.5004  0.0459
 3023DPPC   C1B57969  22.821  27.472  24.422 -0.1186 -0.2731  0.0030
 3023DPPC   C2B57970  22.604  27.115  24.398  0.2470  0.0569  0.2168
 3023DPPC   C3B57971  22.253  26.908  24.628  0.0509  0.2940  0.1264
 3023DPPC   C4B57972  22.107  27.084  24.991 -0.2095  0.0367  0.1081
 3024DPPC   NC357973  16.938  19.013  18.992  0.0663  0.1961 -0.0922
 3024DPPC   PO457974  17.246  19.096  18.700  0.0358 -0.0755 -0.2502
 3024DPPC   GL157975  17.413  19.213  19.164 -0.1803  0.0088  0.3751
 3024DPPC   GL257976  17.586  18.999  19.292  0.1145 -0.0114  0.1769
 3024DPPC   C1A57977  17.463  19.580  19.343 -0.2633  0.2798  0.0050
 3024DPPC   C2A57978  17.433  19.935  19.436 -0.1272 -0.0574 -0.2837
 3024DPPC   C3A57979  17.196  20.200  19.677  0.2061  0.2734 -0.0256
 3024DPPC   C4A57980  17.036  20.099  20.119  0.1052 -0.0721  0.0395
 3024DPPC   C1B57981  18.100  18.875  19.369  0.0451 -0.4153 -0.2991
 3024DPPC   C2B57982  18.323  19.223  19.273  0.1206  0.1676  0.2143
 3024DPPC   C3B57983  18.629  19.433  19.138  0.0038  0.1490  0.1342
 3024DPPC   C4B57984  18.862  19.707  18.957 -0.2647  0.1586  0.4279
 3025DPPC   NC357985  22.990  25.395  19.302  0.2632  0.2953 -0.1350
 3025DPPC   PO457986  23.001  25.448  19.714  0.1184 -0.2587  0.3391
 3025DPPC   GL157987  22.646  25.220  19.677  0.2798  0.0197 -0.1605
 3025DPPC   GL257988  22.548  25.087  19.378  0.0536  0.0417 -0.2914
 3025DPPC   C1A57989  22.245  25.075  19.779  0.1497 -0.0052 -0.2934
 3025DPPC   C2A57990  22.047  24.667  19.897 -0.2394 -0.3447 -0.1280
 3025DPPC   C3A57991  22.140  24.148  19.958 -0.1101  0.0472 -0.0248
 3025DPPC   C4A57992  21.686  23.836  19.938  0.2596 -0.0887  0.1189
 3025DPPC   C1B57993  22.410  24.928  18.999  0.3181  0.1002  0.2044
 3025DPPC   C2B57994  22.110  25.057  18.647  0.2256  0.0150  0.1084
 3025DPPC   C3B57995  21.766  24.718  18.624  0.1261 -0.4289  0.0571
 3025DPPC   C4B57996  21.790  24.340  18.632 -0.2341 -0.1307 -0.0126
 3026DPPC   NC357997  31.011  36.215  17.629  0.0520 -0.0699  0.1119
 3026DPPC   PO457998  30.981  36.673  17.641 -0.0669  0.2053 -0.2741
 3026DPPC   GL157999  30.995  37.048  17.547 -0.0399  0.1172  0.4560
 3026DPPC   GL258000  31.007  37.094  17.190  0.3629  0.1960 -0.1226
 3026DPPC   C1A58001  31.152  37.512  17.481  0.2802 -0.0893 -0.0763
 3026DPPC   C2A58002  31.149  37.936  17.522 -0.0154  0.0691 -0.0709
 3026DPPC   C3A58003  31.454  38.266  17.505 -0.1622 -0.0821 -0.4640
 3026DPPC   C4A58004  31.636  38.693  17.625 -0.1262 -0.2734 -0.2470
 3026DPPC   C1B58005  31.131  37.477  16.994 -0.2179  0.0287 -0.0196
 3026DPPC   C2B58006  31.324  37.789  17.073  0.0750  0.2242  0.3289
 3026DPPC   C3B58007  31.230  38.291  17.051 -0.0966 -0.1229 -0.0524
 3026DPPC   C4B58008  31.143  38.513  16.742 -0.2614  0.0413  0.0484
 3027DPPC   NC358009  35.375  24.354  13.405  0.1482 -0.0146 -0.1808
 3027DPPC   PO458010  35.180  24.102  13.795 -0.2844 -0.4594 -0.2742
 3027DPPC   GL158011  34.811  24.032  14.055 -0.1443 -0.2128  0.2202
 3027DPPC   GL258012  35.080  24.255  14.302  0.2659 -0.0376  0.0845
 3027DPPC   C1A58013  34.500  23.975  14.359 -0.2430 -0.0449 -0.3138
 3027DPPC   C2A58014  34.154  24.127  14.298  0.2427  0.2552 -0.2917
 3027DPPC   C3A58015  33.829  24.344  14.296  0.1629 -0.4030 -0.0850
 3027DPPC   C4A58016  33.354  24.422  14.264  0.1549 -0.1570  0.2965
 3027DPPC   C1B58017  34.808  24.359  14.640  0.0906  0.1703 -0.3039
 3027DPPC   C2B58018  34.438  24.166  14.813  0.0989 -0.1720 -0.0026
 3027DPPC   C3B58019  33.909  24.141  14.776  0.2607 -0.0838  0.0533
 3027DPPC   C4B58020  33.539  24.417  14.784 -0.0728  0.0091 -0.0546
 3028DPPC   NC358021  20.671  38.615  26.177 -0.2451 -0.0528 -0.0559
 3028DPPC   PO458022  20.823  38.599  26.670  0.4278 -0.0374 -0.2683
 3028DPPC   GL158023  21.123  38.370  26.459 -0.4840 -0.0559 -0.1329
 3028DPPC   GL258024  21.188  38.490  26.233  0.1011 -0.1395  0.0533
 3028DPPC   C1A58025  21.469  38.212  26.521 -0.0201  0.2783 -0.3312
 3028DPPC   C2A58026  21.519  37.862  26.671  0.3934 -0.1652  0.0911
 3028DPPC   C3A58027  21.386  37.685   0.035 -0.0539  0.3656 -0.0391
 3028DPPC   C4A58028  21.438  37.718   0.437  0.0541  0.1273 -0.0818
 3028DPPC   C1B58029  21.501  38.307  26.033  0.0616 -0.1419  0.2019
 3028DPPC   C2B58030  21.626  37.928  25.871  0.2371  0.0440  0.3475
 3028DPPC   C3B58031  21.856  37.621  25.571  0.2955 -0.1306 -0.2448
 3028DPPC   C4B58032  21.782  37.163  25.423 -0.0150 -0.1857 -0.1697
 3029DPPC   NC358033  33.171  20.975  14.700  0.0123  0.5044  0.1199
 3029DPPC   PO458034  33.278  20.737  15.103  0.1246 -0.2111 -0.3270
 3029DPPC   GL158035  33.038  20.901  15.357  0.0352 -0.2604 -0.0311
 3029DPPC   GL258036  33.279  20.983  15.600  0.0140 -0.3066 -0.1145
 3029DPPC   C1A58037  32.879  21.296  15.619  0.1063  0.1134  0.0730
 3029DPPC   C2A58038  32.819  21.586  15.816  0.2225 -0.2330 -0.0124
 3029DPPC   C3A58039  32.853  21.883  16.213 -0.1478  0.1067 -0.2787
 3029DPPC   C4A58040  32.761  22.293  16.427  0.1437 -0.4492 -0.1029
 3029DPPC   C1B58041  33.361  21.452  15.694  0.0117  0.1042  0.3691
 3029DPPC   C2B58042  33.380  21.802  15.862  0.2896 -0.1331 -0.0214
 3029DPPC   C3B58043  33.433  22.215  15.897 -0.0281  0.0456  0.2785
 3029DPPC   C4B58044  33.799  22.482  16.037 -0.1871 -0.0662 -0.1987
 3030DPPC   NC358045  23.002  21.557  25.019 -0.0248  0.0437 -0.2142
 3030DPPC   PO458046  23.249  21.719  25.354 -0.0339 -0.0530 -0.5824
 3030DPPC   GL158047  23.459  21.847  25.037 -0.2464 -0.0558  0.0508
 3030DPPC   GL258048  23.801  21.739  24.815 -0.0295  0.2777  0.3102
 3030DPPC   C1A58049  23.822  22.214  25.027  0.2354 -0.0760  0.3961
 3030DPPC   C2A58050  23.899  22.236  24.643  0.2098  0.0129  0.2869
 3030DPPC   C3A58051  24.138  22.647  24.457  0.1619 -0.1289 -0.0475
 3030DPPC   C4A58052  24.299  23.084  24.455  0.0079 -0.0436 -0.0409
 3030DPPC   C1B58053  24.239  21.780  24.550 -0.1580 -0.1383  0.3958
 3030DPPC   C2B58054  24.483  21.784  24.279 -0.0310 -0.0840  0.1636
 3030DPPC   C3B58055  24.737  21.998  24.224  0.0395 -0.0649 -0.2467
 3030DPPC   C4B58056  24.981  22.262  24.019 -0.1567  0.0765  0.1513
 3031DPPC   NC358057  20.675  21.173  19.373 -0.0528  0.1042  0.4186
 3031DPPC   PO458058  20.673  20.730  19.302  0.1189 -0.2884  0.0731
 3031DPPC   GL158059  20.500  20.373  19.097  0.0327 -0.0307  0.2653
 3031DPPC   GL258060  20.320  20.518  18.865 -0.0133 -0.1564 -0.3647
 3031DPPC   C1A58061  20.164  19.925  19.135  0.0441  0.1716  0.0243
 3031DPPC   C2A58062  19.976  19.799  18.746  0.2074  0.0773  0.0632
 3031DPPC   C3A58063  19.920  19.516  18.389 -0.1759 -0.1623 -0.2304
 3031DPPC   C4A58064  20.284  19.564  18.106 -0.0898 -0.1137 -0.0756
 3031DPPC   C1B58065  19.968  20.326  18.629  0.3772 -0.1103 -0.2102
 3031DPPC   C2B58066  19.844  20.111  18.277 -0.3519  0.2327 -0.1297
 3031DPPC   C3B58067  19.833  19.770  17.948 -0.0908  0.1768  0.0165
 3031DPPC   C4B58068  19.681  19.321  18.026  0.1288  0.0251  0.0003
 3032DPPC   NC358069  24.082  18.733  22.906  0.1735  0.2390  0.0139
 3032DPPC   PO458070  24.317  18.491  22.571  0.2562 -0.3000 -0.1657
 3032DPPC   GL158071  24.614  18.274  22.742 -0.0689 -0.0077  0.3918
 3032DPPC   GL258072  24.714  18.090  22.924  0.0402 -0.1147  0.1792
 3032DPPC   C1A58073  25.002  18.009  22.560 -0.0430  0.2517 -0.0404
 3032DPPC   C2A58074  25.175  17.661  22.461 -0.0978  0.0941 -0.2202
 3032DPPC   C3A58075  25.345  17.152  22.461 -0.0623  0.0599  0.2724
 3032DPPC   C4A58076  25.461  16.752  22.648 -0.3088 -0.1094  0.0649
 3032DPPC   C1B58077  24.672  17.617  22.996 -0.3104 -0.0602 -0.3525
 3032DPPC   C2B58078  24.488  17.484  23.486  0.2112  0.1012  0.1017
 3032DPPC   C3B58079  24.118  17.695  23.562  0.2665 -0.1393  0.0715
 3032DPPC   C4B58080  23.923  17.856  23.886 -0.0581  0.1057  0.0468
 3033DPPC   NC358081  20.609  27.909   3.141 -0.0589 -0.0257  0.0300
 3033DPPC   PO458082  20.328  27.656   3.422 -0.4141  0.0438  0.1314
 3033DPPC   GL158083  20.007  27.540   3.652 -0.3680 -0.5359 -0.2031
 3033DPPC   GL258084  20.052  27.700   3.913 -0.0157 -0.0038 -0.0933
 3033DPPC   C1A58085  19.610  27.377   3.862 -0.0523 -0.2587  0.3259
 3033DPPC   C2A58086  19.166  27.466   3.980 -0.0230  0.1014 -0.1615
 3033DPPC   C3A58087  18.899  27.444   4.278 -0.1904 -0.2983 -0.1425
 3033DPPC   C4A58088  18.479  27.234   4.451  0.3952 -0.1567 -0.1249
 3033DPPC   C1B58089  19.729  27.751   4.283 -0.1263 -0.0130  0.0063
 3033DPPC   C2B58090  19.335  27.551   4.493  0.0669 -0.3329 -0.2746
 3033DPPC   C3B58091  19.030  27.626   4.846 -0.3292 -0.5094  0.5138
 3033DPPC   C4B58092  18.701  27.720   5.178  0.0239  0.0328 -0.1499
 3034DPPC   NC358093  20.059  26.429   1.488  0.0115  0.2962  0.1716
 3034DPPC   PO458094  20.050  25.932   1.553  0.0256 -0.0933 -0.1407
 3034DPPC   GL158095  19.778  25.834   1.958 -0.0624  0.4273 -0.0575
 3034DPPC   GL258096  19.682  26.114   2.119 -0.0753 -0.0310  0.1473
 3034DPPC   C1A58097  19.564  25.557   2.198  0.0897  0.0244  0.1772
 3034DPPC   C2A58098  19.264  25.413   2.351  0.0651 -0.1555 -0.0270
 3034DPPC   C3A58099  18.939  25.179   2.543  0.2130 -0.0501  0.1157
 3034DPPC   C4A58100  18.660  24.902   2.658  0.0768  0.0271  0.0651
 3034DPPC   C1B58101  19.251  25.960   2.009 -0.0791  0.3014 -0.4036
 3034DPPC   C2B58102  18.976  25.801   2.054 -0.0477 -0.0997 -0.4823
 3034DPPC   C3B58103  18.779  25.617   2.402  0.0101  0.1531  0.1041
 3034DPPC   C4B58104  18.618  25.461   2.813  0.0367  0.1995  0.1700
 3035DPPC   NC358105  22.412  26.475   4.673 -0.0953 -0.1398 -0.0264
 3035DPPC   PO458106  22.184  26.141   4.590 -0.0443  0.1700  0.0075
 3035DPPC   GL158107  22.113  26.213   4.972 -0.1535 -0.0139 -0.3912
 3035DPPC   GL258108  22.296  25.863   5.126  0.1113 -0.1507 -0.1855
 3035DPPC   C1A58109  22.019  26.319   5.398 -0.0686  0.0085  0.1745
 3035DPPC   C2A58110  21.780  26.080   5.697  0.0157 -0.0206  0.3880
 3035DPPC   C3A58111  21.838  26.045   6.110  0.1085 -0.0013 -0.2636
 3035DPPC   C4A58112  21.825  26.077   6.513 -0.1382  0.5164 -0.2204
 3035DPPC   C1B58113  22.066  25.766   5.423 -0.0688  0.0055  0.1234
 3035DPPC   C2B58114  21.702  25.593   5.628 -0.1594 -0.1568  0.4769
 3035DPPC   C3B58115  21.568  25.485   6.049  0.1174  0.0420  0.0580
 3035DPPC   C4B58116  21.724  25.579   6.401  0.1118 -0.2908  0.4599
 3036DPPC   NC358117  23.529  25.051   2.797  0.0131 -0.5153 -0.0725
 3036DPPC   PO458118  23.183  25.349   2.661 -0.2494 -0.2376  0.2279
 3036DPPC   GL158119  23.236  25.447   2.193  0.3042 -0.3187 -0.2953
 3036DPPC   GL258120  23.071  25.281   1.936  0.1672  0.1798 -0.3332
 3036DPPC   C1A58121  23.552  25.702   2.136 -0.0099  0.0328  0.1301
 3036DPPC   C2A58122  23.913  25.570   2.001 -0.0649  0.1252  0.0098
 3036DPPC   C3A58123  24.155  25.879   1.801 -0.2516 -0.2233  0.3202
 3036DPPC   C4A58124  24.364  25.497   1.558 -0.1657 -0.1000  0.0523
 3036DPPC   C1B58125  23.461  25.367   1.762 -0.2748 -0.0349 -0.3030
 3036DPPC   C2B58126  23.828  25.262   1.480  0.1565 -0.5395 -0.0842
 3036DPPC   C3B58127  23.992  25.156   1.740 -0.1404 -0.0703  0.3249
 3036DPPC   C4B58128  24.362  25.242   1.964  0.1031  0.3355  0.2281
 3037DPPC   NC358129  19.280  23.977  18.779 -0.3275 -0.0801  0.2490
 3037DPPC   PO458130  19.386  24.189  18.568 -0.0927  0.1596 -0.1961
 3037DPPC   GL158131  19.537  24.473  18.282 -0.0824 -0.1855 -0.1147
 3037DPPC   GL258132  19.850  24.503  18.171 -0.1241  0.0298  0.4190
 3037DPPC   C1A58133  19.510  24.873  18.288 -0.0270 -0.1117 -0.0533
 3037DPPC   C2A58134  19.368  24.989  17.890  0.1622  0.1092 -0.1682
 3037DPPC   C3A58135  19.208  25.404  17.660  0.0177  0.2191 -0.0766
 3037DPPC   C4A58136  19.509  25.581  17.287 -0.3252 -0.0126  0.1230
 3037DPPC   C1B58137  20.264  24.779  17.935  0.2257 -0.3373 -0.1816
 3037DPPC   C2B58138  20.593  24.691  18.158  0.0507 -0.2179  0.1777
 3037DPPC   C3B58139  20.822  24.536  18.449  0.0720 -0.1265 -0.1408
 3037DPPC   C4B58140  20.834  24.245  18.779  0.1094  0.1460  0.1881
 3038DPPC   NC358141  17.866  26.754   0.139 -0.4775 -0.0495 -0.1947
 3038DPPC   PO458142  18.109  26.503   0.457  0.1153 -0.0406 -0.0428
 3038DPPC   GL158143  17.934  26.626   0.859 -0.2402 -0.1890 -0.1726
 3038DPPC   GL258144  17.968  26.845   1.116 -0.0383  0.0138 -0.1719
 3038DPPC   C1A58145  17.595  26.550   1.027 -0.1482 -0.0310  0.0831
 3038DPPC   C2A58146  17.282  26.372   1.299  0.1002 -0.3861  0.2793
 3038DPPC   C3A58147  17.036  26.548   1.631  0.1281 -0.0940  0.2015
 3038DPPC   C4A58148  16.620  26.604   1.388  0.2107  0.0903  0.1614
 3038DPPC   C1B58149  17.806  26.740   1.450 -0.2330 -0.1753 -0.1649
 3038DPPC   C2B58150  17.576  26.396   1.651  0.0020  0.2486 -0.0980
 3038DPPC   C3B58151  17.278  26.131   1.738  0.0351  0.2349  0.0914
 3038DPPC   C4B58152  16.869  26.066   1.812  0.0371  0.4962 -0.1677
 3039DPPC   NC358153  21.863  20.534  19.080 -0.0389  0.0144  0.3232
 3039DPPC   PO458154  22.203  20.220  19.258 -0.1013  0.4139  0.1361
 3039DPPC   GL158155  22.588  20.205  19.145  0.0504  0.1937  0.1306
 3039DPPC   GL258156  22.676  20.321  18.824 -0.1279 -0.0068  0.0014
 3039DPPC   C1A58157  22.812  19.825  19.009  0.3107 -0.1486 -0.0287
 3039DPPC   C2A58158  22.608  19.517  18.743  0.0769 -0.0576 -0.1589
 3039DPPC   C3A58159  22.603  19.613  18.279 -0.1875 -0.3066 -0.3085
 3039DPPC   C4A58160  22.473  19.575  17.860 -0.1047  0.0820  0.0221
 3039DPPC   C1B58161  22.429  20.527  18.464  0.4151  0.2857  0.1075
 3039DPPC   C2B58162  22.401  20.570  17.958  0.1611  0.1233 -0.2604
 3039DPPC   C3B58163  22.740  20.462  17.751 -0.0079  0.0939  0.0765
 3039DPPC   C4B58164  23.282  20.454  17.819  0.1381  0.2271 -0.2175
 3040DPPC   NC358165  19.060  24.088  19.387 -0.2330 -0.0275 -0.1524
 3040DPPC   PO458166  19.460  24.264  19.152  0.2341  0.1629  0.0647
 3040DPPC   GL158167  19.701  24.657  19.144 -0.0754  0.0134  0.2756
 3040DPPC   GL258168  20.063  24.475  19.092 -0.0550 -0.2787 -0.0903
 3040DPPC   C1A58169  20.052  25.027  19.084  0.0425 -0.3866 -0.1106
 3040DPPC   C2A58170  20.407  25.080  19.294 -0.0496  0.1944 -0.4185
 3040DPPC   C3A58171  20.735  24.876  19.505 -0.1395 -0.2978  0.2349
 3040DPPC   C4A58172  20.868  24.832  19.914  0.2588  0.0456  0.2518
 3040DPPC   C1B58173  20.130  24.649  19.432 -0.0698  0.3322 -0.1150
 3040DPPC   C2B58174  20.306  24.832  19.803  0.0409  0.2299  0.1076
 3040DPPC   C3B58175  20.416  25.214  19.789  0.1267  0.1272 -0.0199
 3040DPPC   C4B58176  20.294  25.544  19.499 -0.1487  0.0428  0.0058
 3041DPPC   NC358177  25.471  22.216   2.534 -0.0156  0.2620  0.1744
 3041DPPC   PO458178  25.192  22.052   2.645 -0.0390 -0.0609  0.0119
 3041DPPC   GL158179  25.075  21.731   2.921  0.2781 -0.0593  0.0124
 3041DPPC   GL258180  24.794  21.957   3.029 -0.0063  0.1697  0.3063
 3041DPPC   C1A58181  25.001  21.495   3.239 -0.0079  0.1734 -0.2881
 3041DPPC   C2A58182  24.714  21.266   3.533 -0.0976  0.1812 -0.2976
 3041DPPC   C3A58183  24.411  21.152   3.929 -0.0972 -0.0978  0.0815
 3041DPPC   C4A58184  24.074  20.937   4.091  0.2773 -0.0616  0.0557
 3041DPPC   C1B58185  24.484  21.873   3.331  0.2659 -0.2478  0.1886
 3041DPPC   C2B58186  24.250  21.582   3.652 -0.0920  0.3684  0.2810
 3041DPPC   C3B58187  24.126  21.485   4.151  0.0374 -0.0932  0.0322
 3041DPPC   C4B58188  23.855  21.349   4.466 -0.4068  0.2178 -0.2026
 3042DPPC   NC358189  23.360  23.298   2.813 -0.2011 -0.0391  0.0894
 3042DPPC   PO458190  22.935  23.315   2.725  0.1550  0.0947 -0.0008
 3042DPPC   GL158191  22.685  23.322   3.057 -0.2839 -0.0062  0.2163
 3042DPPC   GL258192  22.590  23.639   3.122  0.1801  0.0456 -0.0209
 3042DPPC   C1A58193  22.553  23.051   3.350  0.1381  0.4510  0.0218
 3042DPPC   C2A58194  22.212  22.813   3.602  0.0194 -0.1892 -0.0282
 3042DPPC   C3A58195  21.969  22.483   3.772  0.1264  0.2405 -0.3405
 3042DPPC   C4A58196  22.049  22.042   3.702 -0.1268  0.1752 -0.0180
 3042DPPC   C1B58197  22.220  23.483   3.291 -0.1709 -0.1021 -0.0563
 3042DPPC   C2B58198  21.861  23.175   3.479 -0.1288 -0.1977  0.0465
 3042DPPC   C3B58199  21.525  23.033   3.867  0.2157  0.0923  0.1689
 3042DPPC   C4B58200  21.131  22.781   3.885 -0.2739  0.1269  0.1775
 3043DPPC   NC358201  25.668  22.524   1.466  0.0936 -0.0657 -0.1171
 3043DPPC   PO458202  25.756  22.867   1.700  0.2527 -0.3491  0.0619
 3043DPPC   GL158203  26.081  22.944   1.333 -0.0511 -0.2006 -0.2579
 3043DPPC   GL258204  26.145  22.537   1.205 -0.1861 -0.0494  0.4057
 3043DPPC   C1A58205  26.387  23.210   1.220  0.1714  0.2712 -0.1606
 3043DPPC   C2A58206  26.667  23.472   0.909 -0.3547  0.1465 -0.0294
 3043DPPC   C3A58207  26.795  23.843   0.745  0.1032 -0.1792  0.0754
 3043DPPC   C4A58208  26.978  23.888   0.338  0.1245 -0.1531  0.0666
 3043DPPC   C1B58209  26.377  22.773   0.822  0.0017  0.0009 -0.0218
 3043DPPC   C2B58210  26.548  23.078   0.685 -0.0202  0.0576  0.0098
 3043DPPC   C3B58211  26.558  23.382   0.445 -0.0177 -0.6345  0.2475
 3043DPPC   C4B58212  26.589  23.604   0.062 -0.0490 -0.2057 -0.2334
 3044DPPC   NC358213  18.094  24.118  22.928 -0.2105  0.1736 -0.0132
 3044DPPC   PO458214  17.964  23.913  22.548 -0.1781 -0.1243 -0.0179
 3044DPPC   GL158215  17.573  23.775  22.496 -0.0613 -0.2318 -0.1233
 3044DPPC   GL258216  17.475  23.765  22.211  0.1727 -0.0786  0.0770
 3044DPPC   C1A58217  17.360  23.698  22.780 -0.1560  0.1296  0.2009
 3044DPPC   C2A58218  16.965  23.487  22.875  0.2113  0.1199  0.1199
 3044DPPC   C3A58219  16.429  23.376  22.841  0.2383 -0.1147 -0.2510
 3044DPPC   C4A58220  16.105  23.159  22.697  0.2317  0.2589 -0.0249
 3044DPPC   C1B58221  17.058  23.545  22.064  0.0802 -0.2733 -0.2956
 3044DPPC   C2B58222  16.667  23.639  21.915 -0.1300  0.0418  0.0482
 3044DPPC   C3B58223  16.354  23.858  22.109 -0.0768  0.2512  0.0371
 3044DPPC   C4B58224  16.083  24.181  22.269 -0.0540  0.0141  0.1399
 3045DPPC   NC358225  19.835  25.009  24.274 -0.2584 -0.2358  0.0934
 3045DPPC   PO458226  20.171  24.689  24.307  0.2766  0.2740  0.0986
 3045DPPC   GL158227  20.369  25.064  24.372 -0.0222  0.0386  0.0281
 3045DPPC   GL258228  20.268  25.227  24.088  0.1896 -0.0528  0.3711
 3045DPPC   C1A58229  20.727  25.054  24.383  0.0247  0.0856  0.1843
 3045DPPC   C2A58230  21.043  25.172  24.295 -0.1419  0.1420 -0.0556
 3045DPPC   C3A58231  21.323  25.217  23.959  0.3223 -0.1229  0.0060
 3045DPPC   C4A58232  21.733  25.327  23.813 -0.0558  0.1414  0.2499
 3045DPPC   C1B58233  20.634  25.380  23.974  0.0508 -0.0515  0.2225
 3045DPPC   C2B58234  20.884  25.578  23.729 -0.2110  0.3371 -0.0547
 3045DPPC   C3B58235  21.167  25.867  23.468 -0.1008 -0.0175  0.0306
 3045DPPC   C4B58236  21.020  26.070  23.091 -0.2123  0.3804  0.0947
 3046DPPC   NC358237  17.226  28.191  25.687 -0.0521  0.0963 -0.2422
 3046DPPC   PO458238  17.258  27.908  25.982  0.2847 -0.2782  0.0356
 3046DPPC   GL158239  16.847  27.687  26.117 -0.4360  0.2671 -0.2404
 3046DPPC   GL258240  16.872  27.666  26.534  0.0883  0.2403  0.2460
 3046DPPC   C1A58241  16.436  27.619  26.167 -0.0379 -0.3539  0.1995
 3046DPPC   C2A58242  16.003  27.493  26.020  0.1937 -0.2393 -0.0403
 3046DPPC   C3A58243  15.531  27.276  26.022 -0.0298 -0.2868  0.0356
 3046DPPC   C4A58244  15.290  26.962  25.821 -0.2230  0.2426 -0.0501
 3046DPPC   C1B58245  16.544  27.525  26.831  0.0865 -0.1739  0.4168
 3046DPPC   C2B58246  16.482  27.425   0.358 -0.0232 -0.0773 -0.0956
 3046DPPC   C3B58247  16.451  27.662   0.772 -0.2576  0.0199  0.0711
 3046DPPC   C4B58248  16.381  27.713   1.159  0.2709 -0.1743 -0.2232
 3047DPPC   NC358249  17.893  26.434  19.663 -0.0290 -0.0236  0.0022
 3047DPPC   PO458250  18.191  26.120  19.559 -0.1489  0.2954 -0.4586
 3047DPPC   GL158251  18.265  26.414  19.298 -0.1341 -0.1896 -0.1771
 3047DPPC   GL258252  18.088  26.799  19.413  0.1824  0.0188  0.0631
 3047DPPC   C1A58253  18.232  26.627  18.891  0.3749  0.3338  0.2308
 3047DPPC   C2A58254  18.467  27.086  18.796 -0.0100  0.1087 -0.1572
 3047DPPC   C3A58255  18.907  27.409  18.848 -0.2469 -0.2164  0.1466
 3047DPPC   C4A58256  19.397  27.257  18.997  0.1133  0.1058  0.0585
 3047DPPC   C1B58257  17.956  26.965  19.110  0.1830 -0.1469  0.0429
 3047DPPC   C2B58258  17.854  27.261  18.845 -0.2182  0.1927 -0.1004
 3047DPPC   C3B58259  17.538  27.433  18.645 -0.3213 -0.1113  0.1961
 3047DPPC   C4B58260  17.181  27.730  18.481 -0.1273  0.1579 -0.1206
 3048DPPC   NC358261  25.994  19.637  24.812  0.0527 -0.2013  0.0509
 3048DPPC   PO458262  26.297  19.755  25.221  0.1138  0.0078  0.2240
 3048DPPC   GL158263  26.456  20.032  24.850  0.0943 -0.1661 -0.0128
 3048DPPC   GL258264  26.802  20.129  24.982  0.2429  0.0566  0.2596
 3048DPPC   C1A58265  26.729  20.221  24.498  0.1199  0.3000  0.0490
 3048DPPC   C2A58266  27.051  20.509  24.393  0.2537 -0.0615  0.1902
 3048DPPC   C3A58267  27.039  20.587  24.019 -0.0426 -0.0833  0.0028
 3048DPPC   C4A58268  26.705  20.482  23.615 -0.5505  0.3387 -0.0989
 3048DPPC   C1B58269  27.118  20.382  24.986  0.0512 -0.1798 -0.7186
 3048DPPC   C2B58270  27.386  20.682  24.899  0.1615  0.2202  0.0297
 3048DPPC   C3B58271  27.562  20.832  24.419 -0.0708  0.2769  0.0709
 3048DPPC   C4B58272  27.668  21.326  24.050 -0.1087 -0.2363  0.4627
 3049DPPC   NC358273  19.374  21.652  22.656 -0.2260  0.0232 -0.1877
 3049DPPC   PO458274  19.804  21.490  22.835  0.1402  0.3168 -0.1108
 3049DPPC   GL158275  19.390  21.232  23.027  0.1196 -0.1633 -0.0391
 3049DPPC   GL258276  19.475  20.812  23.201 -0.1404  0.4071 -0.0076
 3049DPPC   C1A58277  19.020  20.970  22.940  0.0041  0.1296 -0.4244
 3049DPPC   C2A58278  18.684  20.763  23.071  0.0662  0.2797 -0.0363
 3049DPPC   C3A58279  18.315  20.555  22.803 -0.2700  0.5017  0.0009
 3049DPPC   C4A58280  18.146  20.115  22.553  0.1100 -0.1028 -0.2133
 3049DPPC   C1B58281  19.165  20.603  23.485  0.0235 -0.0087 -0.2071
 3049DPPC   C2B58282  18.848  20.206  23.441  0.1465  0.1973 -0.0469
 3049DPPC   C3B58283  18.361  20.246  23.261  0.1031 -0.4849  0.2362
 3049DPPC   C4B58284  17.976  20.330  23.115  0.1489  0.0615 -0.0997
 3050DPPC   NC358285  17.012  29.295  24.839 -0.3640  0.2932 -0.0680
 3050DPPC   PO458286  16.943  29.604  24.533  0.0330  0.0534 -0.2366
 3050DPPC   GL158287  16.560  29.549  24.802  0.2649 -0.3604  0.0921
 3050DPPC   GL258288  16.580  29.494  25.160 -0.0723  0.0215 -0.0267
 3050DPPC   C1A58289  16.144  29.359  24.878 -0.0505 -0.2171 -0.0770
 3050DPPC   C2A58290  15.721  29.626  25.026  0.3372  0.1728 -0.1415
 3050DPPC   C3A58291  15.706  30.077  25.252 -0.0503 -0.1247 -0.3037
 3050DPPC   C4A58292  15.807  30.476  25.439 -0.0183 -0.4607 -0.0988
 3050DPPC   C1B58293  16.300  29.676  25.214 -0.1371 -0.0815  0.0825
 3050DPPC   C2B58294  16.111  29.709  25.527  0.1822 -0.0901 -0.1748
 3050DPPC   C3B58295  15.936  29.557  25.831 -0.1258 -0.1607 -0.0867
 3050DPPC   C4B58296  15.761  29.425  26.188  0.2575  0.2116  0.0152
 3051DPPC   NC358297  18.279  28.207  23.642  0.2735  0.2564  0.0597
 3051DPPC   PO458298  18.231  28.327  24.169  0.0048 -0.0307  0.1116
 3051DPPC   GL158299  18.529  28.621  24.084  0.3527  0.0084 -0.0611
 3051DPPC   GL258300  18.722  28.565  23.750  0.1741  0.0513 -0.0891
 3051DPPC   C1A58301  18.625  29.006  24.175  0.1429 -0.0525  0.1236
 3051DPPC   C2A58302  18.690  29.371  24.354  0.0392 -0.3887  0.2657
 3051DPPC   C3A58303  19.160  29.584  24.406  0.2818 -0.2634 -0.2301
 3051DPPC   C4A58304  19.509  29.736  24.574 -0.1234  0.0329 -0.0386
 3051DPPC   C1B58305  19.138  28.754  23.543  0.1313  0.1979 -0.0665
 3051DPPC   C2B58306  19.640  28.831  23.463  0.0285  0.4596  0.2174
 3051DPPC   C3B58307  19.979  28.997  23.616 -0.2486  0.0935 -0.0108
 3051DPPC   C4B58308  20.414  29.166  23.644 -0.3351  0.2175  0.1997
 3052DPPC   NC358309  16.578  27.840  24.179  0.2974  0.0172  0.1450
 3052DPPC   PO458310  16.706  27.650  23.806 -0.0251 -0.0162 -0.0950
 3052DPPC   GL158311  16.285  27.513  23.880 -0.3038 -0.0573 -0.0347
 3052DPPC   GL258312  16.332  27.417  24.213 -0.0640 -0.1664 -0.1096
 3052DPPC   C1A58313  15.858  27.367  24.058 -0.1175 -0.1023 -0.0656
 3052DPPC   C2A58314  15.394  27.470  24.288  0.0370  0.0966 -0.1644
 3052DPPC   C3A58315  15.059  27.593  24.510  0.0952  0.0176  0.2254
 3052DPPC   C4A58316  14.671  27.546  24.446 -0.1953  0.1603  0.0014
 3052DPPC   C1B58317  16.004  27.108  24.433 -0.1777 -0.0151  0.3276
 3052DPPC   C2B58318  15.601  27.007  24.318  0.2711  0.2098  0.0437
 3052DPPC   C3B58319  15.232  27.008  24.226 -0.1563  0.0062  0.0061
 3052DPPC   C4B58320  14.893  27.127  24.249 -0.0919 -0.0136  0.0838
 3053DPPC   NC358321  20.184  23.246  17.996  0.1524 -0.0783 -0.0452
 3053DPPC   PO458322  19.842  23.551  17.951  0.0277  0.1588 -0.0394
 3053DPPC   GL158323  19.734  23.665  17.594  0.0317  0.1161 -0.1422
 3053DPPC   GL258324  19.807  24.056  17.709  0.0030  0.0153  0.0552
 3053DPPC   C1A58325  19.981  23.725  17.191 -0.0864 -0.1449 -0.1384
 3053DPPC   C2A58326  20.215  24.171  17.060 -0.0519 -0.1390 -0.0875
 3053DPPC   C3A58327  20.327  24.582  17.186  0.1147 -0.0443 -0.0668
 3053DPPC   C4A58328  20.187  24.891  17.215 -0.0392 -0.0910 -0.1112
 3053DPPC   C1B58329  19.827  24.370  17.382 -0.0760  0.1067  0.0186
 3053DPPC   C2B58330  19.696  24.670  17.247 -0.3229 -0.0950  0.3156
 3053DPPC   C3B58331  19.496  25.079  17.318 -0.0703  0.0751  0.2218
 3053DPPC   C4B58332  19.077  25.192  17.163  0.1297  0.1241  0.0808
 3054DPPC   NC358333  22.107  22.492  25.274  0.2519  0.0304  0.2052
 3054DPPC   PO458334  21.965  22.739  25.582 -0.0303  0.0591 -0.0127
 3054DPPC   GL158335  22.247  23.005  25.459  0.0578  0.0225  0.3313
 3054DPPC   GL258336  22.596  22.942  25.544  0.0806 -0.1490 -0.2933
 3054DPPC   C1A58337  22.484  23.252  25.112 -0.0965  0.0653  0.0870
 3054DPPC   C2A58338  22.783  23.382  24.802 -0.1733 -0.1743  0.1860
 3054DPPC   C3A58339  22.940  23.454  24.460 -0.1184  0.0573 -0.1790
 3054DPPC   C4A58340  23.269  23.714  24.333  0.2421  0.1381  0.0776
 3054DPPC   C1B58341  22.553  23.393  25.658 -0.0966 -0.1663 -0.1344
 3054DPPC   C2B58342  22.596  23.740  25.420  0.2823 -0.1452 -0.1830
 3054DPPC   C3B58343  22.807  23.851  24.980 -0.1742 -0.1396  0.2484
 3054DPPC   C4B58344  22.989  24.012  24.601  0.1709 -0.0556  0.0167
 3055DPPC   NC358345  26.417  20.400   0.689 -0.1040 -0.1374 -0.2382
 3055DPPC   PO458346  26.629  20.040   0.956  0.1325  0.3787  0.0950
 3055DPPC   GL158347  26.675  19.667   0.844  0.0530 -0.1109 -0.2016
 3055DPPC   GL258348  26.380  19.447   0.930 -0.0140  0.3103 -0.2478
 3055DPPC   C1A58349  26.972  19.308   0.858  0.0289  0.1253 -0.1440
 3055DPPC   C2A58350  27.184  19.270   0.551 -0.2372  0.2721  0.1856
 3055DPPC   C3A58351  27.360  19.143   0.213 -0.1509 -0.1119 -0.0438
 3055DPPC   C4A58352  27.483  18.774  26.884 -0.0555 -0.0450 -0.2113
 3055DPPC   C1B58353  26.487  19.134   1.225  0.3464  0.3433 -0.0976
 3055DPPC   C2B58354  26.315  18.912   1.488  0.1132  0.2474 -0.0639
 3055DPPC   C3B58355  26.073  18.514   1.546 -0.3523 -0.0930 -0.1092
 3055DPPC   C4B58356  25.954  18.214   1.316  0.0221  0.0961 -0.0633
 3056DPPC   NC358357  22.116  19.647  20.164 -0.1905 -0.1667  0.0398
 3056DPPC   PO458358  21.890  19.469  19.802  0.0037 -0.2525 -0.0791
 3056DPPC   GL158359  22.028  19.194  19.442  0.1405  0.1652 -0.2810
 3056DPPC   GL258360  22.106  18.873  19.423 -0.3187  0.2602  0.1915
 3056DPPC   C1A58361  22.350  19.119  19.092 -0.1666 -0.0489 -0.0185
 3056DPPC   C2A58362  22.619  19.050  18.790  0.3151 -0.0568  0.0130
 3056DPPC   C3A58363  22.673  18.810  18.435 -0.0198  0.0698 -0.1292
 3056DPPC   C4A58364  22.324  18.541  18.281 -0.0612 -0.0008  0.3424
 3056DPPC   C1B58365  21.905  18.683  19.025 -0.0103  0.1947  0.5027
 3056DPPC   C2B58366  22.160  18.802  18.676 -0.0057  0.2112  0.1821
 3056DPPC   C3B58367  22.268  19.167  18.321 -0.3426  0.0676  0.1883
 3056DPPC   C4B58368  22.074  19.132  17.919 -0.0260 -0.1378 -0.0397
 3057DPPC   NC358369  21.462  25.931   1.474  0.2812  0.4311  0.3452
 3057DPPC   PO458370  21.664  25.687   1.046 -0.2018 -0.1497  0.0511
 3057DPPC   GL158371  21.912  25.774   0.584  0.1553  0.0329  0.1637
 3057DPPC   GL258372  22.226  25.624   0.496 -0.4581 -0.1118  0.0191
 3057DPPC   C1A58373  22.061  26.082   0.416 -0.0693 -0.0351  0.1280
 3057DPPC   C2A58374  21.976  26.363  26.898  0.2530  0.0013  0.0212
 3057DPPC   C3A58375  22.264  26.728  26.709  0.0400 -0.0530 -0.3441
 3057DPPC   C4A58376  22.571  26.925  26.361 -0.0341 -0.1243  0.1895
 3057DPPC   C1B58377  22.370  25.740   0.091 -0.1878 -0.1648  0.0358
 3057DPPC   C2B58378  22.263  25.840  26.653  0.1233 -0.1740  0.3527
 3057DPPC   C3B58379  22.323  26.272  26.549  0.1263  0.0211  0.2829
 3057DPPC   C4B58380  22.457  26.470  26.204 -0.1992 -0.1250  0.1530
 3058DPPC   NC358381  16.750  26.074  20.287 -0.2161  0.1802 -0.1522
 3058DPPC   PO458382  16.695  26.229  19.873 -0.0301  0.1662  0.0484
 3058DPPC   GL158383  16.696  26.003  19.465 -0.0218  0.0098  0.2906
 3058DPPC   GL258384  16.816  26.207  19.245 -0.0484 -0.0895 -0.0290
 3058DPPC   C1A58385  16.337  25.865  19.017  0.0387  0.0744 -0.0121
 3058DPPC   C2A58386  16.047  25.863  18.724  0.0302  0.1060  0.0189
 3058DPPC   C3A58387  15.745  25.551  18.728 -0.1766 -0.1674  0.3681
 3058DPPC   C4A58388  15.541  25.153  18.541 -0.0749  0.0186  0.5500
 3058DPPC   C1B58389  16.391  26.433  19.298  0.4453  0.1981  0.1493
 3058DPPC   C2B58390  16.083  26.812  19.168  0.1324  0.1596  0.0387
 3058DPPC   C3B58391  15.730  26.836  18.985  0.1936  0.0819 -0.0309
 3058DPPC   C4B58392  15.434  26.507  18.925  0.1891  0.0355 -0.1531
 3059DPPC   NC358393  25.351  21.400   2.009 -0.1788 -0.0522 -0.1159
 3059DPPC   PO458394  25.372  21.061   2.235 -0.0433 -0.1331  0.0349
 3059DPPC   GL158395  25.486  20.721   2.478 -0.0630  0.0254  0.0567
 3059DPPC   GL258396  25.631  20.830   2.780  0.1472  0.2250  0.2677
 3059DPPC   C1A58397  25.585  20.348   2.530 -0.1951  0.0612  0.0838
 3059DPPC   C2A58398  25.858  19.960   2.491  0.0679 -0.0702 -0.0053
 3059DPPC   C3A58399  26.217  19.977   2.635 -0.3085  0.0605 -0.2028
 3059DPPC   C4A58400  26.366  20.024   3.034 -0.0056 -0.0037  0.0055
 3059DPPC   C1B58401  25.560  20.487   3.095 -0.1565 -0.0140  0.3184
 3059DPPC   C2B58402  25.744  20.128   3.113 -0.0519 -0.1740  0.4499
 3059DPPC   C3B58403  25.854  19.702   2.972  0.1180 -0.1201  0.0994
 3059DPPC   C4B58404  25.588  19.375   2.740 -0.1706  0.0172  0.2097
 3060DPPC   NC358405  26.857  23.502   4.618 -0.0479 -0.1803 -0.1146
 3060DPPC   PO458406  27.099  23.890   4.604  0.1460  0.1229  0.0534
 3060DPPC   GL158407  27.497  23.940   4.702 -0.2456  0.1213  0.1109
 3060DPPC   GL258408  27.481  24.065   5.067 -0.1177  0.1875  0.0223
 3060DPPC   C1A58409  27.882  24.051   4.669  0.2881  0.3338  0.0119
 3060DPPC   C2A58410  28.221  24.244   4.553  0.0594 -0.1422 -0.1640
 3060DPPC   C3A58411  28.613  24.473   4.364 -0.0413 -0.1004  0.3421
 3060DPPC   C4A58412  29.077  24.475   4.273 -0.1010 -0.1510  0.1125
 3060DPPC   C1B58413  27.532  23.689   5.173  0.1316 -0.2851 -0.0602
 3060DPPC   C2B58414  27.430  23.238   5.337 -0.2974 -0.3003  0.1450
 3060DPPC   C3B58415  27.452  22.883   5.115 -0.1270 -0.2465 -0.0104
 3060DPPC   C4B58416  27.790  22.550   4.975  0.1580 -0.0853 -0.0133
 3061DPPC   NC358417  23.658  24.973   4.474 -0.0116 -0.1184  0.1488
 3061DPPC   PO458418  23.966  24.780   4.258  0.1827 -0.2920 -0.3895
 3061DPPC   GL158419  23.836  24.524   4.558 -0.0319 -0.1225 -0.2739
 3061DPPC   GL258420  23.686  24.627   4.900 -0.1835  0.4200  0.0218
 3061DPPC   C1A58421  23.958  24.098   4.844 -0.0668  0.2463  0.0444
 3061DPPC   C2A58422  23.581  23.939   5.194 -0.1437 -0.1320  0.3368
 3061DPPC   C3A58423  23.462  23.896   5.626  0.3232  0.1958  0.2825
 3061DPPC   C4A58424  23.255  23.729   5.976 -0.1984 -0.1401  0.1131
 3061DPPC   C1B58425  23.661  24.599   5.295 -0.0151 -0.0940 -0.0481
 3061DPPC   C2B58426  23.596  24.349   5.647  0.0441 -0.1203  0.0638
 3061DPPC   C3B58427  23.643  24.248   6.021 -0.2863  0.2449 -0.0910
 3061DPPC   C4B58428  23.400  24.138   6.451  0.0138 -0.4063 -0.2918
 3062DPPC   NC358429  19.483  21.646  20.611 -0.0417 -0.2930 -0.0548
 3062DPPC   PO458430  19.675  21.499  20.214  0.1173 -0.0231  0.2154
 3062DPPC   GL158431  19.286  21.233  20.472  0.1553 -0.3560  0.3376
 3062DPPC   GL258432  19.066  21.028  20.260  0.1730  0.2332  0.0710
 3062DPPC   C1A58433  19.141  20.783  20.763 -0.1545 -0.1085  0.2331
 3062DPPC   C2A58434  18.792  20.551  20.978 -0.3280 -0.2195  0.2050
 3062DPPC   C3A58435  18.292  20.540  20.907 -0.1500 -0.4535 -0.0124
 3062DPPC   C4A58436  17.842  20.573  20.782  0.2022  0.1032 -0.0652
 3062DPPC   C1B58437  18.819  20.895  19.964  0.0157  0.2228  0.1612
 3062DPPC   C2B58438  18.432  20.605  19.944 -0.0121  0.0093 -0.3208
 3062DPPC   C3B58439  18.217  20.240  20.086 -0.2287 -0.2583 -0.2804
 3062DPPC   C4B58440  17.983  19.916  20.151 -0.2452  0.0589  0.2076
 3063DPPC   NC358441  16.832  29.127  25.419 -0.0605  0.0448  0.2373
 3063DPPC   PO458442  16.628  29.020  25.054  0.0822 -0.1892 -0.1638
 3063DPPC   GL158443  16.410  28.795  25.324  0.1582 -0.1113 -0.0900
 3063DPPC   GL258444  16.399  28.525  25.439 -0.0356  0.1168 -0.1052
 3063DPPC   C1A58445  16.008  28.736  25.402 -0.0456  0.3659  0.3811
 3063DPPC   C2A58446  15.652  28.611  25.608 -0.1034 -0.0374  0.1547
 3063DPPC   C3A58447  15.390  28.165  25.694 -0.0862  0.0699 -0.2121
 3063DPPC   C4A58448  15.436  27.863  26.061 -0.0938 -0.0243  0.3341
 3063DPPC   C1B58449  16.085  28.538  25.840  0.1460 -0.0559 -0.3128
 3063DPPC   C2B58450  15.749  28.338  25.993  0.4891 -0.2930 -0.0281
 3063DPPC   C3B58451  15.511  28.301  26.358  0.2582 -0.0491  0.1994
 3063DPPC   C4B58452  15.405  28.220  26.792 -0.1116 -0.3257 -0.2576
 3064DPPC   NC358453  17.779  28.813  23.772 -0.0929 -0.3234  0.0388
 3064DPPC   PO458454  18.143  28.624  23.758  0.2207 -0.0833 -0.0935
 3064DPPC   GL158455  18.286  28.985  23.790 -0.3887  0.2405  0.2499
 3064DPPC   GL258456  18.154  28.979  24.118 -0.1496 -0.3190  0.0067
 3064DPPC   C1A58457  18.552  29.366  23.753  0.3193  0.2653  0.1714
 3064DPPC   C2A58458  18.891  29.610  23.657  0.1691 -0.2758 -0.0656
 3064DPPC   C3A58459  19.247  29.632  23.944 -0.1661  0.2408 -0.3829
 3064DPPC   C4A58460  19.653  29.465  24.049  0.1208 -0.2745 -0.1432
 3064DPPC   C1B58461  18.272  29.463  24.180  0.3373  0.0938  0.1322
 3064DPPC   C2B58462  18.411  29.856  23.851  0.1047 -0.0307  0.1213
 3064DPPC   C3B58463  18.639  30.034  23.505  0.2568 -0.2312 -0.0649
 3064DPPC   C4B58464  18.321  30.420  23.392  0.4117 -0.2744  0.1215
 3065DPPC   NC358465  18.074  25.415  25.662 -0.2127 -0.3304  0.1506
 3065DPPC   PO458466  17.997  24.972  25.583 -0.0251  0.1095  0.0179
 3065DPPC   GL158467  17.544  24.872  25.422  0.0030 -0.2040  0.0993
 3065DPPC   GL258468  17.618  24.536  25.267 -0.1608 -0.1224  0.4837
 3065DPPC   C1A58469  17.069  24.973  25.518  0.2228 -0.2376 -0.0242
 3065DPPC   C2A58470  16.737  24.727  25.636 -0.1197  0.1899  0.2919
 3065DPPC   C3A58471  16.614  24.457  25.386  0.1840 -0.0952 -0.0892
 3065DPPC   C4A58472  16.258  24.299  25.592 -0.0539 -0.6247  0.0653
 3065DPPC   C1B58473  17.774  24.177  25.393 -0.0583  0.0886 -0.4681
 3065DPPC   C2B58474  17.783  23.743  25.379 -0.1071  0.3731 -0.3277
 3065DPPC   C3B58475  17.699  23.318  25.509 -0.1643  0.0250 -0.0881
 3065DPPC   C4B58476  17.566  22.952  25.802  0.0995  0.1322 -0.3468
 3066DPPC   NC358477  17.483  25.631  20.573  0.0053  0.2256  0.0976
 3066DPPC   PO458478  17.367  25.185  20.750  0.1025  0.0357  0.3517
 3066DPPC   GL158479  17.095  25.213  20.496  0.1762  0.2079 -0.0448
 3066DPPC   GL258480  16.840  25.145  20.819 -0.0148 -0.2193 -0.1127
 3066DPPC   C1A58481  16.838  25.143  20.088  0.1814  0.2243 -0.1292
 3066DPPC   C2A58482  16.609  25.089  19.729  0.0215  0.1438 -0.1600
 3066DPPC   C3A58483  16.451  25.042  19.252 -0.2364  0.0719 -0.0205
 3066DPPC   C4A58484  16.509  24.803  18.860  0.1402  0.2085  0.1110
 3066DPPC   C1B58485  16.524  25.135  20.632 -0.0052  0.1869 -0.1391
 3066DPPC   C2B58486  16.051  25.190  20.548 -0.2297 -0.1964  0.0851
 3066DPPC   C3B58487  15.754  24.823  20.347  0.0763  0.2603 -0.1641
 3066DPPC   C4B58488  15.645  24.338  20.376 -0.2073 -0.1450  0.1575
 3067DPPC   NC358489  17.135  26.721  25.425  0.0028  0.0390 -0.1667
 3067DPPC   PO458490  16.955  27.092  25.133 -0.0271  0.1539  0.0688
 3067DPPC   GL158491  16.619  27.193  25.365 -0.0200 -0.1034  0.0638
 3067DPPC   GL258492  16.361  26.885  25.485 -0.0104 -0.0668  0.0868
 3067DPPC   C1A58493  16.238  27.343  25.622  0.1595  0.1800  0.0171
 3067DPPC   C2A58494  15.945  27.130  25.655 -0.0860  0.1444 -0.1720
 3067DPPC   C3A58495  15.717  26.665  25.714  0.0193 -0.6870  0.2902
 3067DPPC   C4A58496  15.355  26.454  25.817  0.0923 -0.0810  0.0563
 3067DPPC   C1B58497  16.118  26.582  25.380  0.2503  0.1919 -0.0371
 3067DPPC   C2B58498  16.139  26.183  25.543 -0.0854 -0.1765 -0.0058
 3067DPPC   C3B58499  16.185  25.816  25.847 -0.1578 -0.2012  0.1140
 3067DPPC   C4B58500  16.044  25.338  25.886  0.1664 -0.0515 -0.1091
 3068DPPC   NC358501  23.973  19.212  23.636  0.0933  0.0778 -0.1123
 3068DPPC   PO458502  24.193  18.794  23.452 -0.3071 -0.1844 -0.1009
 3068DPPC   GL158503  24.359  18.396  23.422 -0.1854  0.3339 -0.0297
 3068DPPC   GL258504  24.262  18.292  23.143 -0.0996 -0.1836  0.0806
 3068DPPC   C1A58505  24.602  17.967  23.409 -0.1750 -0.2006 -0.0357
 3068DPPC   C2A58506  24.811  17.846  23.792 -0.2544 -0.1214 -0.1076
 3068DPPC   C3A58507  24.992  17.599  24.054 -0.1971 -0.1543  0.3414
 3068DPPC   C4A58508  24.980  17.267  24.284  0.0317 -0.4039 -0.0169
 3068DPPC   C1B58509  24.279  17.898  22.946  0.0741 -0.0874  0.0000
 3068DPPC   C2B58510  24.352  17.605  22.621 -0.0907 -0.0511 -0.0277
 3068DPPC   C3B58511  24.566  17.814  22.352  0.0064 -0.0244 -0.0746
 3068DPPC   C4B58512  24.897  17.912  22.062  0.1153 -0.1976  0.1387
 3069DPPC   NC358513  24.338  19.147  24.586  0.1514  0.0334  0.1107
 3069DPPC   PO458514  24.357  19.357  25.110 -0.2723  0.1224 -0.0924
 3069DPPC   GL158515  24.016  18.978  25.000  0.2080  0.0905  0.0038
 3069DPPC   GL258516  23.910  18.920  24.795 -0.0880 -0.0272  0.2753
 3069DPPC   C1A58517  23.776  18.601  25.260  0.5662 -0.1710  0.3014
 3069DPPC   C2A58518  23.698  18.196  25.218 -0.1281 -0.1274  0.0863
 3069DPPC   C3A58519  23.948  17.859  25.282 -0.1037  0.1129 -0.2971
 3069DPPC   C4A58520  24.230  17.727  25.412  0.1694  0.1142  0.0953
 3069DPPC   C1B58521  23.539  18.882  24.915  0.0199 -0.0922 -0.0313
 3069DPPC   C2B58522  23.069  18.779  25.085 -0.3229  0.2819  0.1021
 3069DPPC   C3B58523  22.787  18.682  25.437 -0.2444 -0.0868 -0.0137
 3069DPPC   C4B58524  22.372  18.464  25.699 -0.1185  0.0246  0.1909
 3070DPPC   NC358525  22.261  19.114  21.064  0.3680 -0.0833  0.1525
 3070DPPC   PO458526  22.586  19.065  20.848 -0.2215 -0.0991 -0.2773
 3070DPPC   GL158527  22.660  18.664  20.757  0.1099 -0.0368 -0.1332
 3070DPPC   GL258528  23.011  18.753  20.632  0.1798  0.3179  0.2709
 3070DPPC   C1A58529  22.425  18.302  20.740 -0.0540 -0.0137  0.2869
 3070DPPC   C2A58530  22.349  17.946  20.460  0.1233  0.0230  0.0986
 3070DPPC   C3A58531  22.429  17.930  20.067  0.4094 -0.2400 -0.2046
 3070DPPC   C4A58532  22.695  17.922  19.730 -0.2575  0.2170 -0.0019
 3070DPPC   C1B58533  23.106  18.354  20.703 -0.1133 -0.1121  0.0244
 3070DPPC   C2B58534  22.944  18.044  20.694  0.3229 -0.4202  0.1777
 3070DPPC   C3B58535  23.000  17.736  20.919 -0.0278 -0.2443  0.2696
 3070DPPC   C4B58536  23.144  17.447  21.087  0.1959  0.1831 -0.1225
 3071DPPC   NC358537  16.690  28.055  23.027  0.4150 -0.1999 -0.1157
 3071DPPC   PO458538  16.475  28.294  23.350 -0.1449 -0.3825 -0.1247
 3071DPPC   GL158539  16.070  28.357  23.568  0.0006  0.0665  0.0078
 3071DPPC   GL258540  15.954  28.369  23.907  0.1363  0.2026 -0.1245
 3071DPPC   C1A58541  15.792  28.527  23.409 -0.2858  0.3307  0.1935
 3071DPPC   C2A58542  15.413  28.703  23.262  0.0537 -0.3228 -0.4880
 3071DPPC   C3A58543  15.174  29.041  23.131 -0.0065 -0.1276  0.1043
 3071DPPC   C4A58544  15.132  29.406  22.852 -0.5489  0.1748  0.0919
 3071DPPC   C1B58545  15.551  28.314  23.773 -0.0385  0.0084  0.1174
 3071DPPC   C2B58546  15.132  28.330  23.554  0.0471  0.0461 -0.0722
 3071DPPC   C3B58547  14.813  28.097  23.711 -0.2785  0.2131  0.1116
 3071DPPC   C4B58548  14.416  27.870  23.657 -0.1713 -0.1793 -0.0682
 3072DPPC   NC358549  27.288  20.596   0.655  0.0721 -0.2108 -0.1978
 3072DPPC   PO458550  27.397  20.257   0.348 -0.2691  0.0097 -0.1461
 3072DPPC   GL158551  27.671  20.268   0.763  0.2693 -0.1811  0.2832
 3072DPPC   GL258552  27.571  20.136   0.984 -0.0941  0.0130  0.4630
 3072DPPC   C1A58553  28.107  20.163   0.864 -0.0801 -0.0100 -0.1345
 3072DPPC   C2A58554  28.467  20.328   1.146  0.0115 -0.2097 -0.2600
 3072DPPC   C3A58555  28.914  20.424   1.366  0.1276  0.0539  0.1955
 3072DPPC   C4A58556  29.402  20.406   1.365 -0.0529  0.0799 -0.0176
 3072DPPC   C1B58557  27.676  19.827   1.186 -0.0946 -0.2132 -0.3257
 3072DPPC   C2B58558  27.871  19.661   1.547 -0.1276  0.0537  0.0410
 3072DPPC   C3B58559  27.928  19.583   2.035 -0.0949 -0.1691 -0.1629
 3072DPPC   C4B58560  28.090  19.367   2.386  0.0625  0.0027  0.1611
 3073DPPC   NC358561  17.549  27.874  26.374 -0.1411  0.1709  0.1843
 3073DPPC   PO458562  17.371  27.529  26.475 -0.0830 -0.0316  0.1645
 3073DPPC   GL158563  17.320  27.469  26.800  0.0393 -0.0480 -0.2080
 3073DPPC   GL258564  17.249  27.161  26.785 -0.0701 -0.4536 -0.0290
 3073DPPC   C1A58565  16.980  27.456   0.211 -0.0989  0.0269 -0.1966
 3073DPPC   C2A58566  16.852  27.839   0.519  0.1994  0.0585  0.0271
 3073DPPC   C3A58567  16.753  28.085   0.897 -0.2501  0.1088  0.0681
 3073DPPC   C4A58568  16.918  28.345   1.243 -0.3778  0.2279 -0.0937
 3073DPPC   C1B58569  16.784  27.034  26.871  0.0227 -0.0255 -0.0216
 3073DPPC   C2B58570  16.414  26.911  26.810 -0.0543 -0.0710 -0.0891
 3073DPPC   C3B58571  16.306  26.474   0.008  0.0739  0.1846  0.1011
 3073DPPC   C4B58572  16.139  26.088  26.767  0.0243 -0.1013 -0.1361
 3074DPPC   NC358573  21.459  21.752  25.521  0.1058 -0.1895  0.0433
 3074DPPC   PO458574  21.171  22.044  25.690 -0.0036 -0.0454 -0.1052
 3074DPPC   GL158575  20.929  21.702  25.914 -0.1706 -0.1112  0.0354
 3074DPPC   GL258576  21.147  21.479  26.054  0.2114 -0.1879  0.0428
 3074DPPC   C1A58577  20.792  21.618  26.428  0.2275 -0.2922  0.1480
 3074DPPC   C2A58578  20.783  21.461  26.848  0.1060 -0.4091  0.0794
 3074DPPC   C3A58579  20.443  21.321   0.105  0.1344  0.0785  0.2270
 3074DPPC   C4A58580  20.154  21.011   0.140 -0.0993  0.0469  0.1841
 3074DPPC   C1B58581  21.049  21.138  26.377 -0.2136  0.2452 -0.2045
 3074DPPC   C2B58582  20.869  20.871  26.574 -0.2409  0.0540  0.1103
 3074DPPC   C3B58583  20.723  20.600  26.828 -0.0460 -0.0221 -0.1416
 3074DPPC   C4B58584  20.513  20.249  26.747  0.1107 -0.1625 -0.0271
 3075DPPC   NC358585  19.905  23.398  18.392 -0.0489 -0.0334 -0.2625
 3075DPPC   PO458586  20.226  23.666  18.313  0.0397 -0.2927  0.0232
 3075DPPC   GL158587  20.373  23.784  18.003 -0.2330 -0.2777 -0.1361
 3075DPPC   GL258588  20.279  24.113  18.111  0.1141 -0.3902 -0.0463
 3075DPPC   C1A58589  20.320  23.776  17.539 -0.0854  0.0235 -0.3167
 3075DPPC   C2A58590  20.528  23.826  17.217 -0.3821  0.2601 -0.0279
 3075DPPC   C3A58591  20.674  23.775  16.873  0.0374  0.1361 -0.3039
 3075DPPC   C4A58592  20.696  23.842  16.474 -0.4448 -0.2209  0.0529
 3075DPPC   C1B58593  20.623  24.199  18.123 -0.4255  0.0817  0.0987
 3075DPPC   C2B58594  20.947  24.005  18.271 -0.1339 -0.1023 -0.2001
 3075DPPC   C3B58595  21.306  23.993  18.694 -0.0410 -0.0682  0.2302
 3075DPPC   C4B58596  21.716  24.130  19.063 -0.1287  0.1157  0.0125
 3076DPPC   NC358597  22.308  23.343  26.634 -0.0076 -0.3008  0.0012
 3076DPPC   PO458598  22.660  23.611  26.691 -0.1402  0.2210  0.4252
 3076DPPC   GL158599  22.663  23.888  26.455  0.4027  0.0927  0.0275
 3076DPPC   GL258600  23.024  23.751  26.428  0.2136 -0.1153 -0.1164
 3076DPPC   C1A58601  22.810  24.260  26.161  0.1404 -0.0230 -0.0086
 3076DPPC   C2A58602  22.919  24.317  25.767 -0.0436  0.0531  0.1410
 3076DPPC   C3A58603  23.059  24.365  25.327  0.0964  0.1791 -0.4623
 3076DPPC   C4A58604  23.361  24.293  24.969 -0.0431 -0.1466  0.2303
 3076DPPC   C1B58605  23.220  23.945  26.067 -0.0200 -0.0964  0.1910
 3076DPPC   C2B58606  23.402  24.229  25.792  0.3434 -0.0760 -0.0102
 3076DPPC   C3B58607  23.672  24.602  25.819 -0.2797 -0.2611  0.0518
 3076DPPC   C4B58608  24.013  25.060  25.767  0.3192 -0.0420 -0.1054
 3077DPPC   NC358609  21.546  24.228   2.765 -0.0432 -0.0988  0.1371
 3077DPPC   PO458610  21.647  24.672   2.912  0.2445 -0.1628 -0.2106
 3077DPPC   GL158611  21.321  24.505   3.234  0.0134 -0.0532 -0.1871
 3077DPPC   GL258612  21.278  24.225   3.204  0.1877 -0.0896 -0.1052
 3077DPPC   C1A58613  21.097  24.465   3.557 -0.3417 -0.1749 -0.4888
 3077DPPC   C2A58614  21.032  24.187   3.926  0.0548 -0.0510  0.1121
 3077DPPC   C3A58615  20.617  24.084   4.111 -0.1297  0.1371  0.3110
 3077DPPC   C4A58616  20.280  23.781   4.238 -0.5093  0.0988 -0.1721
 3077DPPC   C1B58617  20.975  23.980   3.242 -0.0440 -0.2884 -0.0863
 3077DPPC   C2B58618  20.759  23.706   3.465 -0.2796 -0.1649 -0.1739
 3077DPPC   C3B58619  20.628  23.637   3.904 -0.0221  0.1765  0.2019
 3077DPPC   C4B58620  20.658  23.322   4.179 -0.0283  0.0884  0.1009
 3078DPPC   NC358621  27.444  20.918   1.973 -0.2864  0.2638  0.0019
 3078DPPC   PO458622  27.780  21.237   1.846  0.0448  0.1682  0.0195
 3078DPPC   GL158623  28.083  21.205   1.588 -0.0142  0.3111 -0.0927
 3078DPPC   GL258624  28.325  21.184   1.890  0.0761  0.1428 -0.0157
 3078DPPC   C1A58625  28.501  21.288   1.310  0.2725  0.0310 -0.2684
 3078DPPC   C2A58626  28.863  21.536   1.177  0.1900  0.0730 -0.0143
 3078DPPC   C3A58627  29.124  21.217   0.951  0.1774 -0.2868 -0.1350
 3078DPPC   C4A58628  29.146  21.223   0.469  0.2575  0.0467 -0.0381
 3078DPPC   C1B58629  28.770  21.326   1.891  0.1369 -0.3193 -0.4123
 3078DPPC   C2B58630  29.223  21.264   1.877 -0.4301  0.1920  0.0923
 3078DPPC   C3B58631  29.574  21.290   1.787  0.2449 -0.1112  0.1151
 3078DPPC   C4B58632  29.808  21.379   1.488  0.1437 -0.0118 -0.2875
 3079DPPC   NC358633  23.616  28.233   4.901  0.1041  0.3361  0.0874
 3079DPPC   PO458634  23.460  28.530   4.456  0.0771  0.3585  0.3299
 3079DPPC   GL158635  23.742  28.745   4.326 -0.0778  0.1142 -0.0987
 3079DPPC   GL258636  23.806  28.751   4.751  0.0414  0.0888 -0.0896
 3079DPPC   C1A58637  23.844  29.154   4.373  0.0980 -0.0652  0.3175
 3079DPPC   C2A58638  24.074  29.588   4.412 -0.3126  0.1174  0.2617
 3079DPPC   C3A58639  24.347  29.720   3.979 -0.0692 -0.0712 -0.1405
 3079DPPC   C4A58640  24.828  29.688   3.745  0.0365 -0.0590 -0.1940
 3079DPPC   C1B58641  23.848  29.066   5.029 -0.3998 -0.1131 -0.0604
 3079DPPC   C2B58642  23.519  29.183   5.284  0.1267 -0.0722  0.3616
 3079DPPC   C3B58643  23.476  29.201   5.763 -0.1608 -0.0865  0.1250
 3079DPPC   C4B58644  23.220  29.596   5.859  0.0376  0.4821  0.0226
 3080DPPC   NC358645  25.264  25.624   3.969  0.0397 -0.0376  0.0224
 3080DPPC   PO458646  25.059  25.671   3.498 -0.2073  0.3782  0.4572
 3080DPPC   GL158647  25.209  25.745   3.121  0.1165  0.2863  0.2482
 3080DPPC   GL258648  25.520  25.585   3.157  0.0891  0.1263 -0.5333
 3080DPPC   C1A58649  25.349  25.852   2.703 -0.0526 -0.1447 -0.1251
 3080DPPC   C2A58650  25.195  26.077   2.288 -0.4044  0.0466 -0.2204
 3080DPPC   C3A58651  25.079  26.485   1.987 -0.1431  0.1606 -0.0623
 3080DPPC   C4A58652  25.236  26.896   1.851 -0.1408 -0.0538  0.2601
 3080DPPC   C1B58653  25.828  25.335   2.899 -0.1301 -0.1648 -0.0569
 3080DPPC   C2B58654  26.296  25.410   2.638  0.1726 -0.4764  0.0678
 3080DPPC   C3B58655  26.705  25.710   2.520  0.0800  0.2072 -0.0210
 3080DPPC   C4B58656  26.871  26.139   2.594  0.0245 -0.0178 -0.1130
 3081DPPC   NC358657  24.783  24.737   4.656 -0.1630  0.1266  0.0018
 3081DPPC   PO458658  24.508  24.861   4.984  0.0089  0.0951 -0.1416
 3081DPPC   GL158659  24.280  24.527   5.162 -0.3340  0.0068  0.3264
 3081DPPC   GL258660  24.440  24.537   5.376  0.0002 -0.0012  0.0733
 3081DPPC   C1A58661  24.042  24.220   5.397 -0.2835  0.1426  0.0571
 3081DPPC   C2A58662  24.013  23.842   5.603 -0.1972 -0.1633  0.2853
 3081DPPC   C3A58663  23.793  23.749   6.035  0.0755 -0.0047 -0.2194
 3081DPPC   C4A58664  23.811  23.910   6.438  0.3946  0.6032 -0.1061
 3081DPPC   C1B58665  24.592  24.554   5.851 -0.0214 -0.3230  0.2040
 3081DPPC   C2B58666  24.573  24.383   6.155  0.0518 -0.2673 -0.0346
 3081DPPC   C3B58667  24.293  24.173   6.510  0.3508 -0.0813 -0.1792
 3081DPPC   C4B58668  24.141  23.997   6.900 -0.0361 -0.0256  0.1878
 3082DPPC   NC358669  26.576  20.382   1.357 -0.0991  0.0046  0.1451
 3082DPPC   PO458670  26.974  20.248   1.320  0.0275  0.0038 -0.0922
 3082DPPC   GL158671  26.981  19.772   1.228  0.0764  0.1111  0.0670
 3082DPPC   GL258672  27.199  19.717   0.968 -0.0749 -0.1560  0.2832
 3082DPPC   C1A58673  26.876  19.362   1.372 -0.2356 -0.2861 -0.1145
 3082DPPC   C2A58674  27.014  19.225   1.749  0.1538  0.1538 -0.0566
 3082DPPC   C3A58675  27.115  19.184   2.210 -0.0908  0.1195 -0.4493
 3082DPPC   C4A58676  27.118  18.969   2.531  0.0016 -0.1748 -0.1094
 3082DPPC   C1B58677  27.357  19.585   1.443 -0.0456 -0.1395 -0.2717
 3082DPPC   C2B58678  27.266  19.717   1.816 -0.0120  0.0431  0.0841
 3082DPPC   C3B58679  26.827  19.698   1.876  0.0362  0.0409 -0.2353
 3082DPPC   C4B58680  26.405  19.860   1.800  0.0655 -0.1565  0.2659
 3083DPPC   NC358681  22.204  26.535   4.208  0.1155 -0.4366 -0.1105
 3083DPPC   PO458682  21.888  26.648   4.067 -0.1928  0.1055 -0.1333
 3083DPPC   GL158683  21.593  26.383   4.252  0.0491  0.0026 -0.3085
 3083DPPC   GL258684  21.640  26.235   4.552  0.0285  0.3121 -0.2086
 3083DPPC   C1A58685  21.181  26.326   4.537  0.2869  0.0063  0.3443
 3083DPPC   C2A58686  20.951  26.348   4.893 -0.0326 -0.2095  0.0803
 3083DPPC   C3A58687  20.734  26.479   5.306 -0.1783 -0.0383  0.1677
 3083DPPC   C4A58688  20.711  26.834   5.564  0.4733  0.3264  0.2828
 3083DPPC   C1B58689  21.662  26.409   4.926 -0.1075  0.3668  0.2841
 3083DPPC   C2B58690  21.469  26.321   5.267  0.5822 -0.0166  0.2075
 3083DPPC   C3B58691  21.245  26.356   5.667  0.0879 -0.3964 -0.2077
 3083DPPC   C4B58692  20.819  26.156   5.682 -0.0199 -0.1980  0.0062
 3084DPPC   NC358693  20.394  21.354  22.055  0.2711  0.1266 -0.2097
 3084DPPC   PO458694  20.379  20.966  22.243  0.0941 -0.3121 -0.2918
 3084DPPC   GL158695  19.912  20.873  22.429  0.1075  0.0761 -0.3034
 3084DPPC   GL258696  19.720  21.007  22.644 -0.1256 -0.1230 -0.0581
 3084DPPC   C1A58697  19.680  20.507  22.388  0.0824  0.1748  0.1513
 3084DPPC   C2A58698  19.267  20.454  22.239 -0.0191  0.2315 -0.1652
 3084DPPC   C3A58699  18.821  20.405  22.195  0.1261  0.2599 -0.0044
 3084DPPC   C4A58700  18.558  20.047  22.159 -0.0732 -0.2782  0.1016
 3084DPPC   C1B58701  19.396  20.713  22.702 -0.0500  0.2627 -0.2817
 3084DPPC   C2B58702  19.315  20.411  23.059 -0.0808 -0.0647  0.0944
 3084DPPC   C3B58703  19.307  19.956  23.101 -0.2373 -0.0531  0.0876
 3084DPPC   C4B58704  18.893  19.876  23.084  0.0790 -0.1562  0.3201
 3085DPPC   NC358705  20.416  21.005  18.916  0.0670  0.1510  0.0276
 3085DPPC   PO458706  20.124  21.138  19.364  0.1496  0.1256  0.1723
 3085DPPC   GL158707  20.085  20.778  19.275  0.1284 -0.0242  0.3558
 3085DPPC   GL258708  19.735  20.766  19.194  0.1159  0.0186  0.0645
 3085DPPC   C1A58709  20.020  20.371  19.212  0.0187 -0.2567  0.1283
 3085DPPC   C2A58710  19.697  20.105  19.100  0.0257  0.2495 -0.2334
 3085DPPC   C3A58711  19.436  19.836  18.815  0.1874 -0.1893 -0.0028
 3085DPPC   C4A58712  19.479  19.770  18.501 -0.2553 -0.1200  0.3410
 3085DPPC   C1B58713  19.591  20.564  18.836 -0.1685  0.2187  0.2090
 3085DPPC   C2B58714  19.347  20.391  18.510  0.1736 -0.2930  0.0516
 3085DPPC   C3B58715  19.202  20.103  18.226  0.0457 -0.3533  0.0768
 3085DPPC   C4B58716  19.249  19.723  18.039 -0.1383  0.1775 -0.2288
 3086DPPC   NC358717  28.157  23.066   3.252  0.1921  0.0023  0.1284
 3086DPPC   PO458718  28.042  22.666   3.461  0.2125 -0.5166 -0.2476
 3086DPPC   GL158719  28.440  22.453   3.291  0.0268 -0.0353  0.2247
 3086DPPC   GL258720  28.669  22.256   3.487 -0.2394  0.1343  0.0814
 3086DPPC   C1A58721  28.709  22.469   2.928 -0.0019  0.0715 -0.0515
 3086DPPC   C2A58722  29.011  22.544   2.664  0.0942  0.0074 -0.1203
 3086DPPC   C3A58723  29.052  22.853   2.361 -0.1184  0.2287  0.0558
 3086DPPC   C4A58724  28.812  23.005   2.137 -0.0724  0.2608 -0.0162
 3086DPPC   C1B58725  29.051  22.317   3.268  0.0301 -0.2108 -0.2304
 3086DPPC   C2B58726  29.198  22.117   2.903 -0.3650  0.1882 -0.1453
 3086DPPC   C3B58727  29.207  21.853   2.566  0.1516 -0.3743 -0.2647
 3086DPPC   C4B58728  29.602  21.658   2.453  0.0425  0.1153 -0.2696
 3087DPPC   NC358729  25.214  26.295   3.808  0.2004 -0.0566 -0.0569
 3087DPPC   PO458730  25.563  26.100   4.106  0.1406  0.0693  0.0018
 3087DPPC   GL158731  25.754  26.335   3.690  0.1328  0.1115 -0.0966
 3087DPPC   GL258732  25.637  26.543   3.645 -0.3233 -0.3007  0.0364
 3087DPPC   C1A58733  26.110  26.422   3.467 -0.2738  0.0825  0.1550
 3087DPPC   C2A58734  26.382  26.499   3.065 -0.0378 -0.1892 -0.0764
 3087DPPC   C3A58735  26.560  26.539   2.639 -0.1657 -0.0483 -0.2411
 3087DPPC   C4A58736  26.894  26.506   2.240 -0.0730  0.2292  0.1038
 3087DPPC   C1B58737  25.783  26.949   3.518 -0.3405 -0.0617  0.2611
 3087DPPC   C2B58738  26.200  26.971   3.491  0.1359  0.0384 -0.3196
 3087DPPC   C3B58739  26.535  26.622   3.643  0.3800 -0.0150  0.2594
 3087DPPC   C4B58740  26.991  26.563   3.561  0.3472 -0.0699  0.0049
 3088DPPC   NC358741  19.563  27.848   0.681 -0.0805 -0.1540 -0.0286
 3088DPPC   PO458742  19.551  28.290   0.975  0.2089  0.5323  0.1233
 3088DPPC   GL158743  19.875  28.339   0.738  0.1222  0.0461 -0.0975
 3088DPPC   GL258744  20.271  28.288   0.884 -0.3530  0.3049  0.1460
 3088DPPC   C1A58745  20.016  28.749   0.470  0.0309 -0.2649  0.0350
 3088DPPC   C2A58746  20.339  29.117   0.349  0.0076  0.2137 -0.2493
 3088DPPC   C3A58747  20.604  29.395   0.472  0.1641  0.0891  0.1066
 3088DPPC   C4A58748  20.787  29.934   0.516 -0.2228  0.0467 -0.2048
 3088DPPC   C1B58749  20.495  28.566   0.696 -0.0535 -0.0508 -0.0735
 3088DPPC   C2B58750  20.766  28.888   0.484  0.2166 -0.0278 -0.1980
 3088DPPC   C3B58751  21.003  29.190   0.224 -0.0621  0.2479 -0.2193
 3088DPPC   C4B58752  20.841  29.525  26.879  0.0446 -0.1179  0.1789
 3089DPPC   NC358753  20.488  24.521   0.798 -0.2189 -0.1931  0.2305
 3089DPPC   PO458754  20.341  24.224   0.429  0.1316  0.3198  0.2190
 3089DPPC   GL158755  20.064  24.196   0.826  0.3314  0.1517 -0.1139
 3089DPPC   GL258756  20.186  24.050   1.138  0.2166  0.3203 -0.4443
 3089DPPC   C1A58757  19.767  23.812   0.975 -0.1262  0.2358 -0.1272
 3089DPPC   C2A58758  19.384  23.667   1.175 -0.0864  0.2815 -0.0579
 3089DPPC   C3A58759  19.316  23.337   1.504  0.4187  0.2340 -0.2239
 3089DPPC   C4A58760  19.235  23.028   1.797 -0.1276 -0.0216  0.0815
 3089DPPC   C1B58761  19.949  23.814   1.460  0.0219  0.0098 -0.1545
 3089DPPC   C2B58762  19.647  23.733   1.617  0.0303  0.1170 -0.0698
 3089DPPC   C3B58763  19.624  23.413   1.933  0.1298  0.1195 -0.1094
 3089DPPC   C4B58764  19.161  23.492   2.031  0.1815  0.2196 -0.1021
 3090DPPC   NC358765  21.655  19.220  20.891 -0.1908  0.0817  0.3450
 3090DPPC   PO458766  21.425  19.609  20.957 -0.2596  0.0262  0.0191
 3090DPPC   GL158767  21.154  19.178  20.755 -0.0718  0.0428 -0.0820
 3090DPPC   GL258768  21.387  18.854  20.678 -0.4752 -0.1774 -0.1213
 3090DPPC   C1A58769  20.764  18.954  20.749 -0.1943 -0.1650 -0.0386
 3090DPPC   C2A58770  20.553  18.630  20.586  0.0973 -0.1374 -0.3307
 3090DPPC   C3A58771  20.178  18.368  20.712 -0.0868 -0.2770 -0.0830
 3090DPPC   C4A58772  19.695  18.230  20.617 -0.3079 -0.2269  0.1222
 3090DPPC   C1B58773  21.440  18.739  20.307 -0.2134 -0.0735  0.2828
 3090DPPC   C2B58774  21.475  18.267  20.240  0.1799  0.0887 -0.0095
 3090DPPC   C3B58775  21.668  17.868  20.372 -0.1048 -0.2471  0.0016
 3090DPPC   C4B58776  21.367  17.598  20.146  0.0743 -0.3464  0.0406
 3091DPPC   NC358777  21.564  21.581  23.252 -0.1087 -0.2816  0.0095
 3091DPPC   PO458778  21.474  21.781  23.604  0.0133 -0.0737 -0.0175
 3091DPPC   GL158779  21.673  22.089  23.329 -0.2983 -0.1114 -0.0871
 3091DPPC   GL258780  21.956  21.929  23.275 -0.2115 -0.1838 -0.0151
 3091DPPC   C1A58781  21.918  22.476  23.261 -0.1316 -0.0149  0.0201
 3091DPPC   C2A58782  22.057  22.913  23.406 -0.4216  0.0145  0.3634
 3091DPPC   C3A58783  22.279  23.228  23.390  0.4606 -0.3143 -0.5237
 3091DPPC   C4A58784  22.226  23.547  23.071  0.0473  0.0681 -0.2857
 3091DPPC   C1B58785  22.356  22.120  23.217  0.0344  0.1959 -0.3357
 3091DPPC   C2B58786  22.810  22.248  23.137 -0.0419 -0.1859 -0.0456
 3091DPPC   C3B58787  23.057  22.585  22.990  0.2608 -0.0730  0.1378
 3091DPPC   C4B58788  23.417  22.805  22.832 -0.1121 -0.0818 -0.0163
 3092DPPC   NC358789  23.775  22.536   2.275  0.1734  0.0345 -0.1468
 3092DPPC   PO458790  23.665  22.775   2.611 -0.2150  0.0591  0.0483
 3092DPPC   GL158791  23.420  22.387   2.605  0.0072 -0.0951  0.0884
 3092DPPC   GL258792  23.576  22.112   2.398 -0.0334 -0.3388 -0.2931
 3092DPPC   C1A58793  23.137  22.158   2.624 -0.0822 -0.0355  0.0900
 3092DPPC   C2A58794  22.872  21.938   2.911 -0.1721  0.0089  0.0926
 3092DPPC   C3A58795  22.612  21.796   3.196  0.0241  0.2382 -0.2439
 3092DPPC   C4A58796  22.467  21.668   3.516  0.0738  0.0653 -0.1883
 3092DPPC   C1B58797  23.381  21.735   2.507 -0.1755 -0.0329 -0.3691
 3092DPPC   C2B58798  23.041  21.665   2.540 -0.1010 -0.0058  0.3229
 3092DPPC   C3B58799  22.748  21.363   2.856 -0.1498 -0.5498 -0.2815
 3092DPPC   C4B58800  22.891  21.362   3.340 -0.1682  0.0124  0.1088
 3093DPPC   NC358801  26.403  22.057   2.407 -0.1547 -0.1033 -0.1305
 3093DPPC   PO458802  26.700  21.797   2.479 -0.4321  0.0306  0.0257
 3093DPPC   GL158803  26.679  21.472   2.999 -0.1076  0.1191  0.1020
 3093DPPC   GL258804  26.567  21.122   2.982  0.0709 -0.2414  0.0926
 3093DPPC   C1A58805  26.594  21.441   3.437 -0.2789 -0.0210  0.1786
 3093DPPC   C2A58806  26.373  21.035   3.651 -0.0771 -0.1323 -0.3285
 3093DPPC   C3A58807  26.284  20.899   4.040 -0.1165 -0.3003  0.2078
 3093DPPC   C4A58808  26.038  20.596   4.364  0.4166 -0.1449 -0.1673
 3093DPPC   C1B58809  26.471  20.780   3.204  0.1081  0.1317 -0.0678
 3093DPPC   C2B58810  26.508  20.499   3.500 -0.1812 -0.2678 -0.1381
 3093DPPC   C3B58811  26.417  20.117   3.584 -0.1583 -0.0412  0.1130
 3093DPPC   C4B58812  26.032  19.880   3.513 -0.0829  0.0325  0.0704
 3094DPPC   NC358813  23.061  23.819   2.677  0.3355 -0.0039 -0.0362
 3094DPPC   PO458814  23.188  23.675   3.071 -0.1502  0.2773  0.0613
 3094DPPC   GL158815  23.137  23.260   3.289 -0.0275  0.2438 -0.1914
 3094DPPC   GL258816  23.067  22.890   3.266 -0.0179 -0.1310  0.3836
 3094DPPC   C1A58817  23.222  23.054   3.757  0.0999  0.1609 -0.2462
 3094DPPC   C2A58818  23.024  22.776   4.100 -0.3942 -0.0072  0.3249
 3094DPPC   C3A58819  22.723  22.871   4.419 -0.1530  0.0442  0.1545
 3094DPPC   C4A58820  22.425  23.086   4.440  0.1545  0.0219 -0.0605
 3094DPPC   C1B58821  23.061  22.569   3.598  0.0693 -0.0692  0.3279
 3094DPPC   C2B58822  22.868  22.308   3.973 -0.0543  0.1830 -0.4096
 3094DPPC   C3B58823  22.845  22.005   4.353  0.1639 -0.0767  0.1904
 3094DPPC   C4B58824  22.942  22.102   4.841 -0.1685 -0.0366 -0.0604
 3095DPPC   NC358825  26.021  20.959   2.488 -0.0887 -0.0709 -0.0350
 3095DPPC   PO458826  26.102  20.767   2.145 -0.2945  0.0511  0.1697
 3095DPPC   GL158827  26.373  20.562   2.534  0.2193 -0.1393  0.1850
 3095DPPC   GL258828  26.207  20.500   2.760  0.2205  0.2390 -0.0235
 3095DPPC   C1A58829  26.640  20.197   2.681 -0.1003  0.0360 -0.0934
 3095DPPC   C2A58830  26.803  19.801   2.647  0.0484 -0.1139 -0.4603
 3095DPPC   C3A58831  27.079  19.651   2.368  0.2341 -0.0980 -0.1107
 3095DPPC   C4A58832  27.464  19.642   2.243  0.2434  0.1672  0.1855
 3095DPPC   C1B58833  26.064  20.500   3.071 -0.1905 -0.1390 -0.1714
 3095DPPC   C2B58834  26.010  20.558   3.486  0.3189 -0.0031 -0.1976
 3095DPPC   C3B58835  26.133  20.394   3.894 -0.1035  0.0064  0.0333
 3095DPPC   C4B58836  25.896  20.121   4.304 -0.0381 -0.2454 -0.0447
 3096DPPC   NC358837  24.090  28.394   5.035  0.1102  0.1199  0.0331
 3096DPPC   PO458838  23.981  28.346   4.586 -0.3047  0.0541 -0.3008
 3096DPPC   GL158839  24.268  28.635   4.651 -0.0155 -0.1728 -0.2729
 3096DPPC   GL258840  24.547  28.565   4.818  0.0747  0.1894 -0.0698
 3096DPPC   C1A58841  24.207  29.065   4.648 -0.2211 -0.2514 -0.1044
 3096DPPC   C2A58842  24.196  29.426   4.891  0.1996  0.0964  0.1129
 3096DPPC   C3A58843  23.849  29.621   5.251  0.0267  0.2126  0.1907
 3096DPPC   C4A58844  23.767  29.645   5.718  0.0370 -0.3737 -0.1878
 3096DPPC   C1B58845  24.672  28.953   4.856  0.3058  0.1469  0.0793
 3096DPPC   C2B58846  24.726  29.427   4.812 -0.1064  0.0437 -0.1929
 3096DPPC   C3B58847  24.527  29.710   5.133 -0.0327 -0.2630  0.2179
 3096DPPC   C4B58848  24.249  30.121   5.131 -0.1486 -0.0351  0.2524
 3097DPPC   NC358849  20.266  28.437   1.953  0.0289 -0.1585 -0.0275
 3097DPPC   PO458850  20.327  28.823   2.229 -0.0528 -0.1814  0.0490
 3097DPPC   GL158851  20.620  29.185   2.136 -0.0019  0.0776 -0.0723
 3097DPPC   GL258852  20.727  29.219   1.831  0.1130  0.0091 -0.3033
 3097DPPC   C1A58853  20.487  29.631   2.136  0.0102 -0.3471 -0.1256
 3097DPPC   C2A58854  20.860  29.743   2.275 -0.1398  0.0510  0.0248
 3097DPPC   C3A58855  20.989  30.101   2.511 -0.2056 -0.0366  0.1401
 3097DPPC   C4A58856  20.988  30.538   2.608 -0.2536 -0.0399  0.0132
 3097DPPC   C1B58857  20.810  29.636   1.617  0.1493 -0.3228  0.0383
 3097DPPC   C2B58858  20.957  29.922   1.732 -0.1014  0.1017 -0.0632
 3097DPPC   C3B58859  21.107  30.238   1.869  0.3055  0.0725  0.2251
 3097DPPC   C4B58860  21.310  30.507   2.220  0.1264 -0.0700  0.0909
 3098DPPC   NC358861  20.728  23.827  24.748 -0.1158  0.1281  0.2888
 3098DPPC   PO458862  20.638  23.938  24.314  0.0983 -0.2002 -0.1723
 3098DPPC   GL158863  20.956  24.263  24.451 -0.2140 -0.0250 -0.2360
 3098DPPC   GL258864  21.132  24.092  24.747  0.0689 -0.1766  0.1168
 3098DPPC   C1A58865  21.197  24.679  24.388  0.0704 -0.1175  0.0042
 3098DPPC   C2A58866  21.526  24.676  24.078  0.0627 -0.1963 -0.0494
 3098DPPC   C3A58867  21.684  24.755  23.829  0.0983 -0.0396 -0.0025
 3098DPPC   C4A58868  21.981  24.992  23.592 -0.1642 -0.0638  0.1183
 3098DPPC   C1B58869  21.492  24.431  24.677 -0.1090 -0.1171 -0.1117
 3098DPPC   C2B58870  21.776  24.690  24.585 -0.1838 -0.1012 -0.2111
 3098DPPC   C3B58871  21.854  25.007  24.239  0.3248 -0.1701 -0.0194
 3098DPPC   C4B58872  22.191  25.246  24.361  0.1758  0.0091 -0.2559
 3099DPPC   NC358873  27.798  23.607   3.546  0.2698 -0.0890 -0.0696
 3099DPPC   PO458874  28.004  23.540   3.242  0.2046 -0.2682 -0.5883
 3099DPPC   GL158875  28.327  23.473   3.555  0.0971 -0.3171 -0.1059
 3099DPPC   GL258876  28.186  23.572   3.939  0.0555 -0.3916  0.0134
 3099DPPC   C1A58877  28.826  23.329   3.662  0.2405  0.0470 -0.1033
 3099DPPC   C2A58878  29.170  23.232   3.621 -0.0161 -0.1205  0.1486
 3099DPPC   C3A58879  29.633  23.097   3.563  0.1183  0.4429 -0.1282
 3099DPPC   C4A58880  29.796  22.780   3.868  0.2779  0.0104 -0.0987
 3099DPPC   C1B58881  28.560  23.597   4.013  0.3048 -0.3471  0.1441
 3099DPPC   C2B58882  28.981  23.532   4.121 -0.0968 -0.0084  0.1537
 3099DPPC   C3B58883  29.357  23.557   4.337  0.1441 -0.2639  0.0506
 3099DPPC   C4B58884  29.525  23.867   4.287  0.2304  0.0920 -0.2207
 3100DPPC   NC358885  26.321  25.681   4.137  0.2554 -0.0503 -0.2857
 3100DPPC   PO458886  26.602  25.576   3.881 -0.2565  0.1592 -0.3024
 3100DPPC   GL158887  26.871  25.764   3.510 -0.0459  0.1430 -0.2986
 3100DPPC   GL258888  26.893  25.512   3.297 -0.1123 -0.1921 -0.0925
 3100DPPC   C1A58889  27.202  26.036   3.549 -0.2474  0.2421 -0.0040
 3100DPPC   C2A58890  27.434  26.169   3.800  0.1046 -0.2340  0.3045
 3100DPPC   C3A58891  27.416  26.613   4.082 -0.0448  0.1534 -0.1244
 3100DPPC   C4A58892  27.270  26.883   4.179  0.1749  0.3504  0.0677
 3100DPPC   C1B58893  26.940  25.653   2.972  0.1942  0.1217 -0.0980
 3100DPPC   C2B58894  27.369  25.884   2.877 -0.0982  0.1671 -0.3387
 3100DPPC   C3B58895  27.663  26.170   2.907  0.0609  0.0523 -0.2308
 3100DPPC   C4B58896  27.699  26.631   2.869 -0.0509 -0.0497  0.1450
 3101DPPC   NC358897  16.680  28.484  25.017 -0.1364  0.0141 -0.1096
 3101DPPC   PO458898  16.655  28.212  24.556  0.0238 -0.2889 -0.0739
 3101DPPC   GL158899  16.270  28.128  24.556 -0.0665  0.1269 -0.1902
 3101DPPC   GL258900  16.107  28.080  24.263 -0.1123  0.2436 -0.0388
 3101DPPC   C1A58901  15.876  28.050  24.823  0.1047 -0.0406 -0.1711
 3101DPPC   C2A58902  15.557  27.932  25.146 -0.0534  0.0503 -0.2676
 3101DPPC   C3A58903  15.298  27.730  25.427  0.0486  0.0244 -0.0026
 3101DPPC   C4A58904  15.057  27.360  25.367  0.2961 -0.3065  0.2539
 3101DPPC   C1B58905  15.684  28.271  24.366  0.0566 -0.1544  0.2528
 3101DPPC   C2B58906  15.393  27.932  24.593 -0.1983 -0.0802  0.0087
 3101DPPC   C3B58907  15.089  27.730  24.985 -0.1732 -0.3688 -0.2024
 3101DPPC   C4B58908  14.706  27.863  25.312 -0.3736  0.0443 -0.0648
 3102DPPC   NC358909  23.723  19.967  24.760 -0.3741  0.1856  0.0731
 3102DPPC   PO458910  23.616  20.200  24.379 -0.0101 -0.2505  0.2554
 3102DPPC   GL158911  23.277  19.850  24.492 -0.0982 -0.0377 -0.0865
 3102DPPC   GL258912  23.001  19.959  24.647  0.1076 -0.0014  0.1110
 3102DPPC   C1A58913  22.963  19.482  24.617  0.0177 -0.0527 -0.0441
 3102DPPC   C2A58914  22.683  19.199  24.958  0.0352  0.0310  0.2886
 3102DPPC   C3A58915  22.514  18.865  25.058  0.0368  0.1632 -0.1967
 3102DPPC   C4A58916  22.254  18.519  25.243 -0.5282 -0.1500 -0.0697
 3102DPPC   C1B58917  22.615  19.775  24.821 -0.1448  0.1565  0.2174
 3102DPPC   C2B58918  22.306  19.548  25.063 -0.1374 -0.1326 -0.0648
 3102DPPC   C3B58919  22.165  19.176  25.248 -0.0712  0.7267  0.0829
 3102DPPC   C4B58920  22.407  18.938  25.574  0.0454  0.0860 -0.1246
 3103DPPC   NC358921  20.026  21.019  23.079 -0.2079 -0.2087  0.0757
 3103DPPC   PO458922  20.255  20.774  22.788 -0.1941  0.1208  0.3563
 3103DPPC   GL158923  20.120  20.467  22.845 -0.1083 -0.0037  0.1898
 3103DPPC   GL258924  19.805  20.518  22.877 -0.3092 -0.0966 -0.3307
 3103DPPC   C1A58925  20.078  20.190  23.228 -0.0263  0.0043  0.0011
 3103DPPC   C2A58926  19.791  19.848  23.408  0.1387 -0.1774 -0.3483
 3103DPPC   C3A58927  19.505  19.499  23.524  0.0430 -0.1125 -0.2618
 3103DPPC   C4A58928  19.318  19.288  23.719  0.0860 -0.0338  0.1099
 3103DPPC   C1B58929  19.611  20.115  22.778 -0.0393  0.0495  0.1832
 3103DPPC   C2B58930  19.854  19.868  22.456  0.0139  0.0531 -0.0034
 3103DPPC   C3B58931  19.836  19.388  22.427  0.0474 -0.1351 -0.0598
 3103DPPC   C4B58932  19.833  18.898  22.297 -0.2029  0.0886 -0.1889
 3104DPPC   NC358933  21.535  27.856   4.337  0.0821 -0.1673 -0.0824
 3104DPPC   PO458934  22.019  27.677   4.211 -0.1295 -0.2127 -0.2623
 3104DPPC   GL158935  21.776  27.554   4.673 -0.0072  0.2915 -0.0626
 3104DPPC   GL258936  21.704  27.172   4.692  0.3509  0.2080 -0.0781
 3104DPPC   C1A58937  21.523  27.589   5.108  0.2551 -0.0867 -0.0677
 3104DPPC   C2A58938  21.259  27.865   5.341  0.1435  0.0586 -0.0120
 3104DPPC   C3A58939  20.958  28.101   5.547 -0.1036 -0.0137 -0.0171
 3104DPPC   C4A58940  20.663  28.382   5.750 -0.0330  0.3295 -0.2411
 3104DPPC   C1B58941  21.608  26.854   5.064 -0.0475  0.4123  0.3220
 3104DPPC   C2B58942  21.671  26.743   5.508  0.1638  0.0499 -0.1867
 3104DPPC   C3B58943  21.670  26.533   5.808 -0.0974 -0.3794  0.0874
 3104DPPC   C4B58944  21.871  26.555   6.142 -0.0862  0.0508 -0.0954
 3105DPPC   NC358945  17.029  27.726  20.518  0.3323  0.2349  0.2553
 3105DPPC   PO458946  16.902  27.793  20.972 -0.0938 -0.0462  0.1109
 3105DPPC   GL158947  16.751  28.226  20.748  0.1020 -0.0378 -0.2457
 3105DPPC   GL258948  16.793  28.153  20.439 -0.0889 -0.2275 -0.1569
 3105DPPC   C1A58949  16.286  28.299  20.604  0.1086 -0.0934  0.0106
 3105DPPC   C2A58950  15.908  28.193  20.783  0.1001 -0.0122 -0.0404
 3105DPPC   C3A58951  15.781  27.792  20.726  0.0680  0.1355 -0.2713
 3105DPPC   C4A58952  15.855  27.536  20.439 -0.2017  0.0031 -0.0167
 3105DPPC   C1B58953  16.820  28.506  20.072  0.0126 -0.1631  0.0969
 3105DPPC   C2B58954  16.993  28.935  19.867  0.3130  0.1994  0.1810
 3105DPPC   C3B58955  17.195  29.197  19.691  0.1040 -0.1383 -0.0030
 3105DPPC   C4B58956  17.404  29.662  19.918 -0.3051  0.1813  0.0177
 3106DPPC   NC358957  22.191  25.612   1.845 -0.1856  0.0787  0.2915
 3106DPPC   PO458958  22.495  25.243   1.727  0.0575 -0.1541 -0.0297
 3106DPPC   GL158959  22.813  25.443   1.472 -0.1456  0.0297  0.1215
 3106DPPC   GL258960  23.159  25.274   1.329 -0.1936 -0.2610 -0.1874
 3106DPPC   C1A58961  22.965  25.751   1.256 -0.0478  0.1300 -0.0494
 3106DPPC   C2A58962  23.088  26.151   1.188  0.1286 -0.0903 -0.0563
 3106DPPC   C3A58963  23.176  26.566   1.175  0.0672 -0.2500  0.2675
 3106DPPC   C4A58964  23.449  26.981   1.123  0.0111  0.1109 -0.1874
 3106DPPC   C1B58965  23.473  25.490   1.144 -0.2668 -0.2128 -0.0641
 3106DPPC   C2B58966  23.493  25.872   0.957  0.1923 -0.0351 -0.0389
 3106DPPC   C3B58967  23.386  26.305   0.805  0.2661  0.0494  0.2757
 3106DPPC   C4B58968  23.375  26.700   0.640  0.3679  0.2391  0.1426
 3107DPPC   NC358969  19.258  28.413   0.590 -0.0534 -0.2077  0.1388
 3107DPPC   PO458970  19.258  28.047   0.289 -0.4297  0.0316  0.1088
 3107DPPC   GL158971  19.575  28.373   0.119 -0.0607 -0.1728  0.0211
 3107DPPC   GL258972  19.748  28.369   0.246 -0.2038  0.2297  0.2125
 3107DPPC   C1A58973  19.564  28.856   0.114  0.4081  0.3788 -0.0564
 3107DPPC   C2A58974  19.902  29.176  26.910 -0.0754 -0.1455  0.1731
 3107DPPC   C3A58975  20.267  29.276  26.820  0.1130 -0.3839  0.2032
 3107DPPC   C4A58976  20.622  29.317  26.511 -0.1127  0.3117  0.2422
 3107DPPC   C1B58977  20.133  28.288   0.310 -0.0699 -0.0773 -0.0176
 3107DPPC   C2B58978  20.620  28.384   0.137 -0.0888  0.0496  0.4134
 3107DPPC   C3B58979  20.958  28.642   0.029 -0.3575  0.1118 -0.1927
 3107DPPC   C4B58980  21.178  28.939  26.602  0.0588 -0.3854 -0.0870
 3108DPPC   NC358981  26.773  20.434  26.761 -0.0002  0.2054 -0.1309
 3108DPPC   PO458982  26.804  20.844  26.561  0.1228  0.0852  0.0869
 3108DPPC   GL158983  27.151  21.084  26.630 -0.0745 -0.0101 -0.2728
 3108DPPC   GL258984  27.464  20.949  26.654  0.2309  0.2213  0.0894
 3108DPPC   C1A58985  27.436  21.402  26.364 -0.0947  0.2563 -0.0637
 3108DPPC   C2A58986  27.698  21.625  26.117 -0.0502  0.0141 -0.1309
 3108DPPC   C3A58987  27.598  21.931  25.820 -0.0504 -0.0085 -0.0691
 3108DPPC   C4A58988  27.225  22.103  25.643 -0.0262  0.5356 -0.0557
 3108DPPC   C1B58989  27.803  21.285  26.706 -0.0132  0.1843 -0.0600
 3108DPPC   C2B58990  27.917  21.398   0.178 -0.3065  0.2269 -0.1065
 3108DPPC   C3B58991  28.038  21.222   0.596  0.4214  0.1529 -0.0803
 3108DPPC   C4B58992  28.344  20.813   0.771 -0.0223 -0.1727 -0.1566
 3109DPPC   NC358993  19.244  24.724  19.209 -0.0608  0.0411 -0.0369
 3109DPPC   PO458994  19.329  24.481  19.623 -0.3287  0.2606  0.3164
 3109DPPC   GL158995  19.505  24.857  19.770  0.0189  0.1149 -0.1289
 3109DPPC   GL258996  19.518  25.000  19.538  0.0279 -0.0959  0.3154
 3109DPPC   C1A58997  19.833  24.926  19.992  0.1292 -0.1300 -0.3706
 3109DPPC   C2A58998  20.114  24.831  20.347 -0.1631 -0.0620 -0.0439
 3109DPPC   C3A58999  20.226  25.042  20.666 -0.0163  0.0608  0.1722
 3109DPPC   C4A59000  20.467  25.230  20.816 -0.1788  0.0153 -0.3668
 3109DPPC   C1B59001  19.591  25.294  19.253 -0.1534  0.1664  0.0362
 3109DPPC   C2B59002  19.643  25.694  18.945  0.2636 -0.1074  0.1634
 3109DPPC   C3B59003  19.622  26.058  19.142  0.3813  0.3285  0.2719
 3109DPPC   C4B59004  19.738  26.452  19.436 -0.1424  0.2581 -0.0778
 3110DPPC   NC359005  21.947  23.424   1.193  0.0218 -0.0036  0.2297
 3110DPPC   PO459006  22.098  22.964   1.073  0.2361  0.2152  0.1269
 3110DPPC   GL159007  21.998  22.750   1.464  0.2706 -0.0061  0.4654
 3110DPPC   GL259008  21.771  22.960   1.504  0.0067 -0.1894 -0.2920
 3110DPPC   C1A59009  21.716  22.445   1.649 -0.0846  0.3004  0.0230
 3110DPPC   C2A59010  21.332  22.384   1.891  0.2518  0.0224 -0.0143
 3110DPPC   C3A59011  21.059  22.038   2.170  0.1338  0.0388 -0.2921
 3110DPPC   C4A59012  21.094  21.649   2.348  0.0030 -0.1298 -0.0672
 3110DPPC   C1B59013  21.387  22.784   1.535 -0.1550  0.1014 -0.0009
 3110DPPC   C2B59014  21.116  22.463   1.386 -0.0281  0.4172 -0.2832
 3110DPPC   C3B59015  20.913  22.220   1.665 -0.1767 -0.2797 -0.1527
 3110DPPC   C4B59016  20.577  21.925   1.790 -0.1385  0.1662  0.1430
 3111DPPC   NC359017  20.535  25.907  25.807  0.2098  0.0870  0.0673
 3111DPPC   PO459018  20.675  25.716  26.179 -0.2416  0.2579 -0.0728
 3111DPPC   GL159019  21.084  25.682  25.890  0.1308 -0.0479 -0.2670
 3111DPPC   GL259020  21.376  25.557  26.064 -0.0723  0.3074  0.0635
 3111DPPC   C1A59021  21.269  25.990  25.738  0.0005 -0.1624  0.0457
 3111DPPC   C2A59022  21.406  26.415  25.792 -0.2371 -0.1273 -0.0087
 3111DPPC   C3A59023  21.743  26.638  25.729  0.0746 -0.2234 -0.3005
 3111DPPC   C4A59024  21.812  26.827  25.424 -0.0536 -0.0939 -0.3985
 3111DPPC   C1B59025  21.689  25.800  25.861  0.0246  0.0200 -0.0309
 3111DPPC   C2B59026  21.914  26.074  25.734 -0.3614  0.0993 -0.2314
 3111DPPC   C3B59027  22.227  26.396  25.777  0.1021 -0.2762  0.1084
 3111DPPC   C4B59028  22.438  26.843  25.839 -0.0108 -0.2745 -0.0084
 3112DPPC   NC359029  19.947  22.978  19.697  0.1116 -0.0414 -0.0930
 3112DPPC   PO459030  20.135  22.855  19.249  0.2373 -0.0092  0.3241
 3112DPPC   GL159031  20.522  23.015  19.129 -0.0495  0.1736 -0.1386
 3112DPPC   GL259032  20.553  23.263  18.853 -0.2724 -0.1483 -0.0630
 3112DPPC   C1A59033  20.881  23.222  19.246  0.0105  0.0841  0.0287
 3112DPPC   C2A59034  21.380  23.203  19.414  0.1010 -0.0377  0.0342
 3112DPPC   C3A59035  21.781  23.410  19.590 -0.3075  0.3188 -0.0642
 3112DPPC   C4A59036  22.100  23.681  19.827  0.0531 -0.3983 -0.0985
 3112DPPC   C1B59037  20.625  23.699  19.190 -0.3988  0.0974  0.0857
 3112DPPC   C2B59038  20.892  24.094  19.272 -0.0777 -0.1086  0.1475
 3112DPPC   C3B59039  21.294  24.378  19.128  0.1558  0.4113 -0.1333
 3112DPPC   C4B59040  21.622  24.669  19.132  0.2209  0.1961  0.5069
 3113DPPC   NC359041  19.868  22.194  17.695 -0.2339  0.0367  0.1648
 3113DPPC   PO459042  19.655  22.525  17.647  0.0224 -0.2552 -0.1639
 3113DPPC   GL159043  19.635  22.755  17.286 -0.4270 -0.4811  0.0936
 3113DPPC   GL259044  19.873  22.968  17.245 -0.1432  0.0487 -0.0208
 3113DPPC   C1A59045  19.843  22.563  16.890 -0.3860  0.2242  0.2254
 3113DPPC   C2A59046  20.208  22.302  16.883 -0.0817 -0.4508 -0.0253
 3113DPPC   C3A59047  20.635  22.506  16.983 -0.3165  0.0365  0.0310
 3113DPPC   C4A59048  20.809  22.865  16.730 -0.0597  0.0466  0.0531
 3113DPPC   C1B59049  19.869  23.087  16.723 -0.0829  0.0725  0.1609
 3113DPPC   C2B59050  19.904  23.361  16.374 -0.2944 -0.0500 -0.0516
 3113DPPC   C3B59051  19.778  23.297  15.930 -0.1812  0.2671 -0.2470
 3113DPPC   C4B59052  19.541  23.327  15.490  0.2293 -0.0647  0.3253
 3114DPPC   NC359053  24.546  19.107  21.372 -0.1457  0.0247  0.0122
 3114DPPC   PO459054  24.107  19.177  21.213  0.1608 -0.0961 -0.3141
 3114DPPC   GL159055  24.346  19.157  20.881 -0.0129 -0.0601  0.1173
 3114DPPC   GL259056  24.532  18.894  20.878  0.2262  0.0956 -0.0819
 3114DPPC   C1A59057  24.541  19.122  20.459  0.2180  0.2092  0.3635
 3114DPPC   C2A59058  24.900  19.234  20.235  0.2774  0.0646 -0.1283
 3114DPPC   C3A59059  25.026  19.562  20.114  0.3715 -0.0294  0.0939
 3114DPPC   C4A59060  25.109  19.858  19.885 -0.1079 -0.1794  0.0471
 3114DPPC   C1B59061  24.317  18.483  20.999 -0.0894  0.1102 -0.3178
 3114DPPC   C2B59062  24.440  18.088  21.047 -0.2405 -0.0985  0.2288
 3114DPPC   C3B59063  24.443  17.825  21.241 -0.0360 -0.0500 -0.1423
 3114DPPC   C4B59064  24.535  17.613  21.559  0.1599  0.2085  0.0566
 3115DPPC   NC359065  24.958  23.230   1.833 -0.1044 -0.2233 -0.1563
 3115DPPC   PO459066  25.075  23.543   2.096 -0.0505 -0.0723 -0.0201
 3115DPPC   GL159067  25.308  23.724   1.735  0.1031  0.1612 -0.0183
 3115DPPC   GL259068  25.042  23.731   1.562 -0.0742  0.1731 -0.2622
 3115DPPC   C1A59069  25.558  24.044   1.572  0.1642  0.0155  0.1818
 3115DPPC   C2A59070  25.838  24.077   1.269 -0.0850  0.2766  0.0720
 3115DPPC   C3A59071  26.270  24.210   1.328 -0.0490  0.1902  0.0561
 3115DPPC   C4A59072  26.538  24.618   1.536  0.1067 -0.2481  0.1941
 3115DPPC   C1B59073  25.424  23.720   1.252 -0.1367  0.2703 -0.3017
 3115DPPC   C2B59074  25.675  23.772   0.894  0.3111 -0.3365  0.0577
 3115DPPC   C3B59075  26.011  24.123   0.834 -0.1401 -0.0577  0.2033
 3115DPPC   C4B59076  26.450  24.234   0.627 -0.1524  0.0038 -0.0564
 3116DPPC   NC359077  22.445  23.677   0.692  0.1797  0.0388  0.3850
 3116DPPC   PO459078  22.822  23.669   0.515 -0.0366 -0.0844  0.0839
 3116DPPC   GL159079  23.274  23.905   0.371 -0.0714  0.0852  0.1278
 3116DPPC   GL259080  23.495  23.770   0.504  0.2435 -0.2557 -0.1026
 3116DPPC   C1A59081  23.407  24.023   0.006 -0.0891  0.0898 -0.0752
 3116DPPC   C2A59082  23.700  24.295  26.800  0.0365  0.3210  0.0405
 3116DPPC   C3A59083  24.126  24.369  26.686 -0.1842 -0.0923 -0.3115
 3116DPPC   C4A59084  24.301  24.124  26.419 -0.0672 -0.3970  0.1184
 3116DPPC   C1B59085  23.812  24.099   0.427 -0.0823  0.1628  0.0999
 3116DPPC   C2B59086  24.001  24.469   0.223 -0.2463 -0.0826  0.4244
 3116DPPC   C3B59087  24.281  24.811  26.924  0.1442  0.0309  0.0724
 3116DPPC   C4B59088  24.537  25.005  26.715  0.3101  0.0014  0.0460
 3117DPPC   NC359089  22.746  25.321   2.331  0.0988 -0.0334 -0.3097
 3117DPPC   PO459090  22.450  25.668   2.286 -0.1581  0.1385 -0.1292
 3117DPPC   GL159091  22.721  25.659   2.004 -0.1752 -0.2140  0.2433
 3117DPPC   GL259092  22.639  25.846   1.660 -0.2203  0.3330  0.0817
 3117DPPC   C1A59093  23.139  25.807   1.800 -0.0905 -0.0773 -0.0699
 3117DPPC   C2A59094  23.524  25.879   1.684 -0.1519  0.0689  0.0903
 3117DPPC   C3A59095  23.790  25.804   1.396  0.1002 -0.1132  0.1333
 3117DPPC   C4A59096  24.015  26.224   1.295 -0.0034 -0.3657 -0.0509
 3117DPPC   C1B59097  22.582  26.098   1.269  0.2799 -0.4348 -0.1977
 3117DPPC   C2B59098  22.701  26.369   0.928  0.0503 -0.1763 -0.0633
 3117DPPC   C3B59099  22.797  26.764   0.728 -0.0433  0.3671  0.1624
 3117DPPC   C4B59100  23.040  27.021   0.467 -0.3454 -0.3173 -0.0668
 3118DPPC   NC359101  18.479  27.649  24.923  0.0275  0.2391 -0.1449
 3118DPPC   PO459102  18.618  27.500  25.294  0.2272  0.0721 -0.2290
 3118DPPC   GL159103  18.935  27.732  25.082 -0.2091  0.0081 -0.1736
 3118DPPC   GL259104  18.987  27.522  24.825 -0.1666  0.1551 -0.3093
 3118DPPC   C1A59105  19.207  28.143  25.024  0.1855  0.0210  0.0737
 3118DPPC   C2A59106  19.391  28.579  25.132 -0.0014 -0.1983  0.0820
 3118DPPC   C3A59107  19.330  28.993  24.953  0.2941 -0.4732 -0.0464
 3118DPPC   C4A59108  19.479  29.234  24.676 -0.0661 -0.0197  0.0881
 3118DPPC   C1B59109  19.293  27.845  24.511  0.0616 -0.0498  0.1362
 3118DPPC   C2B59110  19.650  28.135  24.288  0.0347  0.0756 -0.1669
 3118DPPC   C3B59111  20.015  28.128  24.263  0.0203  0.2108 -0.0742
 3118DPPC   C4B59112  20.420  28.074  24.424  0.0464 -0.3192  0.0729
 3119DPPC   NC359113  20.377  22.359  23.591  0.1323 -0.1409 -0.2071
 3119DPPC   PO459114  19.971  22.313  23.645  0.1753 -0.4154  0.1159
 3119DPPC   GL159115  19.707  21.938  23.861 -0.1386  0.0797  0.1425
 3119DPPC   GL259116  19.780  21.648  23.853 -0.2642 -0.2745  0.2135
 3119DPPC   C1A59117  19.257  21.836  24.085  0.4099  0.2481 -0.2248
 3119DPPC   C2A59118  18.853  21.553  24.288  0.0635  0.0082 -0.0613
 3119DPPC   C3A59119  18.699  21.179  24.267  0.0648  0.0830 -0.0026
 3119DPPC   C4A59120  18.641  20.809  23.941 -0.1307 -0.2069 -0.1324
 3119DPPC   C1B59121  19.442  21.382  23.980 -0.0605 -0.1050  0.0909
 3119DPPC   C2B59122  19.130  21.173  24.137 -0.1117 -0.0191  0.1764
 3119DPPC   C3B59123  19.140  20.781  24.111 -0.1465  0.1286  0.2317
 3119DPPC   C4B59124  18.949  20.381  23.956 -0.1301  0.0789 -0.1410
 3120DPPC   NC359125  18.519  27.983  25.974  0.0616 -0.1263 -0.2665
 3120DPPC   PO459126  18.806  28.306  26.046 -0.1035 -0.0424  0.1309
 3120DPPC   GL159127  19.124  28.579  26.043 -0.1636 -0.2549  0.1793
 3120DPPC   GL259128  19.120  28.547  26.438 -0.1192  0.0087 -0.1625
 3120DPPC   C1A59129  19.286  28.907  25.736 -0.3000  0.1281  0.4737
 3120DPPC   C2A59130  19.618  28.971  25.344 -0.2349  0.2005  0.1922
 3120DPPC   C3A59131  20.170  28.931  25.354  0.2142 -0.2397  0.0797
 3120DPPC   C4A59132  20.611  28.988  25.332  0.3984 -0.1524 -0.3630
 3120DPPC   C1B59133  19.534  28.579  26.547 -0.2697 -0.0813 -0.1223
 3120DPPC   C2B59134  19.990  28.521  26.694  0.1698 -0.4582 -0.3234
 3120DPPC   C3B59135  20.314  28.747   0.018 -0.1878  0.1283  0.0367
 3120DPPC   C4B59136  20.658  28.953  26.802 -0.1755  0.1305  0.0420
 3121DPPC   NC359137  24.973  24.628   2.668  0.2388  0.0328  0.4717
 3121DPPC   PO459138  25.186  24.404   2.957 -0.1791  0.0190 -0.0530
 3121DPPC   GL159139  25.491  24.519   2.691  0.0673  0.0036  0.2537
 3121DPPC   GL259140  25.741  24.414   2.621  0.2272 -0.1187 -0.4045
 3121DPPC   C1A59141  25.474  24.885   2.356  0.1695 -0.1806  0.0624
 3121DPPC   C2A59142  25.168  25.165   2.265  0.2003  0.2003  0.1452
 3121DPPC   C3A59143  25.063  25.604   2.323 -0.0103  0.0948 -0.2295
 3121DPPC   C4A59144  24.789  25.816   2.504 -0.0177  0.0419 -0.0552
 3121DPPC   C1B59145  25.873  24.509   2.281 -0.0152 -0.0942  0.0683
 3121DPPC   C2B59146  26.182  24.743   2.011  0.0444  0.1022  0.1222
 3121DPPC   C3B59147  26.314  25.015   1.752  0.1528  0.2222  0.0483
 3121DPPC   C4B59148  26.396  25.134   1.297  0.1533  0.1127 -0.0355
 3122DPPC   NC359149  19.761  26.704   0.568 -0.2207 -0.2612  0.1595
 3122DPPC   PO459150  19.675  27.113   0.305 -0.1877  0.3623  0.2854
 3122DPPC   GL159151  20.022  27.357   0.340 -0.1274  0.5049 -0.0750
 3122DPPC   GL259152  20.359  27.310   0.219  0.0071 -0.0818  0.2444
 3122DPPC   C1A59153  20.157  27.783   0.270  0.1504 -0.0082  0.1617
 3122DPPC   C2A59154  20.512  27.892   0.067 -0.0570  0.2359  0.2790
 3122DPPC   C3A59155  20.881  27.986  26.863 -0.1109 -0.0027  0.0449
 3122DPPC   C4A59156  21.154  28.198  26.493  0.2260  0.2003 -0.2595
 3122DPPC   C1B59157  20.712  27.481   0.229 -0.0593 -0.1187  0.1439
 3122DPPC   C2B59158  21.117  27.538  26.915 -0.0492  0.0809 -0.0954
 3122DPPC   C3B59159  21.493  27.638  26.840 -0.1104  0.0138 -0.2439
 3122DPPC   C4B59160  21.758  27.892  26.697 -0.1531  0.1343  0.1982
 3123DPPC   NC359161  21.464  21.223  24.730 -0.2837 -0.0073 -0.6242
 3123DPPC   PO459162  21.192  20.990  24.671 -0.3447  0.1125  0.0540
 3123DPPC   GL159163  20.939  20.855  24.858  0.2199  0.3026 -0.0031
 3123DPPC   GL259164  20.902  20.776  25.193  0.1614 -0.2522  0.0079
 3123DPPC   C1A59165  20.714  20.451  24.709 -0.1162 -0.0349 -0.2761
 3123DPPC   C2A59166  20.428  20.257  24.730 -0.0452 -0.0986 -0.0311
 3123DPPC   C3A59167  20.098  20.050  24.807 -0.0875 -0.1760 -0.1227
 3123DPPC   C4A59168  19.755  20.153  25.068  0.2257 -0.2105  0.1379
 3123DPPC   C1B59169  20.709  20.377  25.246 -0.2187 -0.0806 -0.1515
 3123DPPC   C2B59170  20.298  19.996  25.252  0.1467  0.1756 -0.4314
 3123DPPC   C3B59171  20.022  19.617  25.252 -0.0687 -0.3496 -0.1068
 3123DPPC   C4B59172  19.632  19.601  25.004 -0.1967 -0.1106  0.1005
 3124DPPC   NC359173  27.534  21.736   3.246  0.0506  0.0281 -0.1391
 3124DPPC   PO459174  27.987  21.691   2.993 -0.0581 -0.2258 -0.2418
 3124DPPC   GL159175  28.366  21.474   2.874  0.0143 -0.0175  0.2341
 3124DPPC   GL259176  28.446  21.282   3.165 -0.2494  0.2612 -0.0026
 3124DPPC   C1A59177  28.802  21.425   2.796  0.0719  0.0467  0.1432
 3124DPPC   C2A59178  29.279  21.409   2.803 -0.2951 -0.2278 -0.2669
 3124DPPC   C3A59179  29.498  21.662   3.005 -0.1030 -0.1625 -0.1708
 3124DPPC   C4A59180  29.413  21.982   3.333  0.5145  0.0590 -0.1035
 3124DPPC   C1B59181  28.097  20.924   3.360 -0.1417  0.0074 -0.1167
 3124DPPC   C2B59182  27.878  20.671   3.204 -0.2426  0.1570 -0.0637
 3124DPPC   C3B59183  28.011  20.596   2.785  0.0818  0.0335  0.0703
 3124DPPC   C4B59184  28.167  20.311   2.495  0.2157  0.0509 -0.1679
 3125DPPC   NC359185  21.958  24.323   2.532 -0.1261  0.1504  0.1985
 3125DPPC   PO459186  22.114  23.943   2.427  0.0876 -0.1027 -0.0583
 3125DPPC   GL159187  21.895  23.562   2.657 -0.4724 -0.2127 -0.0265
 3125DPPC   GL259188  21.891  23.584   2.973 -0.3493  0.1669 -0.0579
 3125DPPC   C1A59189  21.440  23.333   2.776  0.2628  0.1741  0.2097
 3125DPPC   C2A59190  21.418  23.138   3.112 -0.0825  0.1541 -0.0432
 3125DPPC   C3A59191  21.238  23.218   3.506  0.2146 -0.0497  0.1427
 3125DPPC   C4A59192  21.013  23.290   3.768  0.2020  0.0855  0.0720
 3125DPPC   C1B59193  21.550  23.698   3.219  0.1919  0.0067 -0.0235
 3125DPPC   C2B59194  21.297  23.698   3.636 -0.2896 -0.0256  0.2002
 3125DPPC   C3B59195  21.115  23.690   4.059 -0.3059 -0.1557 -0.2079
 3125DPPC   C4B59196  21.302  23.464   4.363 -0.0345  0.2336  0.1766
 3126DPPC   NC359197  23.625  22.545  26.807  0.4375 -0.0243  0.1306
 3126DPPC   PO459198  23.619  22.983   0.035  0.0640 -0.0022  0.2144
 3126DPPC   GL159199  23.784  22.979  26.660  0.0811 -0.0686 -0.0612
 3126DPPC   GL259200  23.827  22.838  26.410  0.0578 -0.0366 -0.1896
 3126DPPC   C1A59201  23.697  23.390  26.445  0.2589 -0.0464 -0.0402
 3126DPPC   C2A59202  23.616  23.843  26.408 -0.2153  0.1408  0.1760
 3126DPPC   C3A59203  23.810  24.223  26.142 -0.2101 -0.0139  0.2035
 3126DPPC   C4A59204  24.163  24.608  26.049  0.1298  0.2654  0.0727
 3126DPPC   C1B59205  24.107  23.092  26.260 -0.0847 -0.1674  0.1919
 3126DPPC   C2B59206  24.001  23.245  25.915  0.1168 -0.0298  0.2764
 3126DPPC   C3B59207  23.855  23.315  25.480 -0.3987 -0.1834 -0.2885
 3126DPPC   C4B59208  23.685  23.219  25.094 -0.1556 -0.1769  0.1894
 3127DPPC   NC359209  25.570  19.450  26.228  0.4444 -0.1432  0.0374
 3127DPPC   PO459210  25.961  19.392  26.316  0.0223 -0.1865  0.2308
 3127DPPC   GL159211  26.080  19.026  26.470  0.1135 -0.1021 -0.3233
 3127DPPC   GL259212  26.417  18.907  26.411 -0.2502 -0.1026 -0.0662
 3127DPPC   C1A59213  25.931  18.846  26.849 -0.1378  0.0086  0.1808
 3127DPPC   C2A59214  25.778  18.734   0.299 -0.2910 -0.0306  0.2763
 3127DPPC   C3A59215  25.474  18.634   0.764  0.2128 -0.0728  0.1740
 3127DPPC   C4A59216  25.658  18.333   0.968 -0.0543  0.2236 -0.1589
 3127DPPC   C1B59217  26.308  18.462  26.511 -0.1016  0.1003  0.3225
 3127DPPC   C2B59218  26.065  17.995  26.448 -0.0039  0.0879 -0.0378
 3127DPPC   C3B59219  25.646  17.741  26.504 -0.0800  0.3234 -0.0506
 3127DPPC   C4B59220  25.262  17.909  26.547 -0.0126  0.5495 -0.1699
 3128DPPC   NC359221  22.422  21.513  25.744 -0.0866 -0.0366  0.2844
 3128DPPC   PO459222  22.760  21.161  25.970 -0.0158 -0.3579  0.0426
 3128DPPC   GL159223  22.385  21.003  26.173  0.3182 -0.2861 -0.0101
 3128DPPC   GL259224  22.371  20.832  26.394 -0.0394 -0.3246  0.2782
 3128DPPC   C1A59225  21.916  20.887  26.274 -0.0343  0.0175 -0.1746
 3128DPPC   C2A59226  21.687  20.531  26.432 -0.3794 -0.2764  0.0391
 3128DPPC   C3A59227  21.532  20.131  26.526 -0.2404 -0.5029 -0.0733
 3128DPPC   C4A59228  21.329  19.886  26.271 -0.0120 -0.3286  0.3305
 3128DPPC   C1B59229  22.372  20.523  26.706 -0.2586  0.0073 -0.3346
 3128DPPC   C2B59230  22.296  20.522   0.190  0.0389 -0.2249  0.3004
 3128DPPC   C3B59231  22.090  20.359   0.457  0.0901 -0.0909  0.1195
 3128DPPC   C4B59232  21.950  19.852   0.418 -0.0191  0.0540  0.1099
 3129DPPC   NC359233  25.232  27.685   4.813 -0.0044  0.3570  0.0372
 3129DPPC   PO459234  25.002  27.917   5.175  0.0847  0.3618  0.0935
 3129DPPC   GL159235  25.264  28.200   5.271  0.3842  0.0111 -0.0187
 3129DPPC   GL259236  25.050  28.310   5.559 -0.0307 -0.3389 -0.1870
 3129DPPC   C1A59237  25.461  28.509   5.041  0.0813 -0.4734  0.0324
 3129DPPC   C2A59238  25.572  28.993   5.083  0.0984  0.1540  0.4633
 3129DPPC   C3A59239  25.500  29.385   5.015 -0.1421  0.1037 -0.2748
 3129DPPC   C4A59240  25.150  29.562   4.665 -0.2596  0.0092  0.2084
 3129DPPC   C1B59241  25.374  28.610   5.541 -0.0952 -0.2513  0.2159
 3129DPPC   C2B59242  25.849  28.705   5.527  0.0973 -0.1042 -0.0394
 3129DPPC   C3B59243  26.288  28.530   5.449  0.0039  0.0876 -0.1331
 3129DPPC   C4B59244  26.671  28.381   5.608  0.2312 -0.0391 -0.0217
 3130DPPC   NC359245  27.486  22.371   1.994  0.0732 -0.3664  0.0818
 3130DPPC   PO459246  27.944  22.485   2.057 -0.2367  0.0723 -0.0520
 3130DPPC   GL159247  28.317  22.527   2.030 -0.2565  0.0742 -0.0111
 3130DPPC   GL259248  28.490  22.672   2.382  0.0246 -0.0669  0.0510
 3130DPPC   C1A59249  28.721  22.579   1.902  0.4645 -0.1731  0.0652
 3130DPPC   C2A59250  29.136  22.744   1.796  0.2554  0.1603  0.0144
 3130DPPC   C3A59251  29.440  23.013   2.087  0.1820  0.1868  0.0246
 3130DPPC   C4A59252  29.647  23.403   2.364 -0.2679 -0.0946 -0.2158
 3130DPPC   C1B59253  28.384  23.155   2.368  0.0316  0.4582  0.3958
 3130DPPC   C2B59254  28.391  23.427   1.948 -0.0520 -0.3930  0.0406
 3130DPPC   C3B59255  28.568  23.899   1.971 -0.1629  0.0710 -0.1257
 3130DPPC   C4B59256  28.471  24.123   1.722  0.0973 -0.2247  0.0808
 3131DPPC   NC359257  19.302  26.593   0.255  0.1017 -0.0863 -0.1256
 3131DPPC   PO459258  19.316  26.938  26.923 -0.0023 -0.0329  0.1495
 3131DPPC   GL159259  19.546  27.243  26.719  0.1267 -0.0211 -0.2200
 3131DPPC   GL259260  19.729  26.949  26.573  0.2604 -0.0544  0.0765
 3131DPPC   C1A59261  19.914  27.544  26.644  0.0348  0.1619  0.1884
 3131DPPC   C2A59262  20.355  27.417  26.670  0.2248 -0.2011  0.0713
 3131DPPC   C3A59263  20.816  27.557  26.527  0.2448  0.7237 -0.2095
 3131DPPC   C4A59264  21.157  27.658  26.444  0.0784  0.0666  0.1298
 3131DPPC   C1B59265  20.048  27.146  26.392 -0.4191  0.2537  0.1162
 3131DPPC   C2B59266  20.456  27.306  26.159  0.0849  0.0685 -0.2558
 3131DPPC   C3B59267  20.744  27.587  26.016 -0.3445  0.0653 -0.0989
 3131DPPC   C4B59268  21.000  27.992  26.031 -0.1439 -0.3480 -0.0571
 3132DPPC   NC359269  24.626  27.041   3.884  0.1960  0.0216 -0.0643
 3132DPPC   PO459270  24.579  26.633   3.582 -0.2157  0.2841 -0.2769
 3132DPPC   GL159271  24.865  26.622   3.360 -0.1668 -0.1615 -0.0351
 3132DPPC   GL259272  25.105  26.720   3.610 -0.1664  0.3394  0.1379
 3132DPPC   C1A59273  25.163  26.697   2.996  0.3947  0.2850  0.0025
 3132DPPC   C2A59274  25.197  27.105   2.756 -0.2233  0.1883 -0.0372
 3132DPPC   C3A59275  25.319  27.565   2.782 -0.2816  0.1989 -0.1654
 3132DPPC   C4A59276  25.138  27.873   2.687 -0.0288  0.0773  0.0887
 3132DPPC   C1B59277  25.018  27.123   3.294  0.2644  0.2199  0.1075
 3132DPPC   C2B59278  24.873  27.518   3.149 -0.2813  0.4954 -0.0736
 3132DPPC   C3B59279  24.759  27.996   3.033  0.2054  0.3214 -0.0825
 3132DPPC   C4B59280  24.621  28.300   3.246  0.0124  0.2551 -0.0122
 3133DPPC   NC359281  24.755  21.466  26.372 -0.0946 -0.0352 -0.1451
 3133DPPC   PO459282  24.890  21.031  26.105 -0.3475  0.4402  0.0163
 3133DPPC   GL159283  24.979  21.412  25.927  0.2038 -0.1769 -0.1133
 3133DPPC   GL259284  25.075  21.724  26.021 -0.2802  0.0616 -0.0016
 3133DPPC   C1A59285  24.926  21.691  25.570  0.0501 -0.2698 -0.0703
 3133DPPC   C2A59286  25.163  22.124  25.403  0.1027  0.0318  0.1001
 3133DPPC   C3A59287  25.174  22.539  25.351  0.0563 -0.1171  0.1034
 3133DPPC   C4A59288  25.433  23.017  25.358  0.1986  0.1766  0.1235
 3133DPPC   C1B59289  25.420  21.758  25.665  0.4201 -0.3125 -0.1035
 3133DPPC   C2B59290  25.760  22.125  25.449 -0.0595  0.2386 -0.0544
 3133DPPC   C3B59291  25.619  22.431  25.132  0.1400  0.0729 -0.1812
 3133DPPC   C4B59292  25.305  22.555  24.823 -0.2635 -0.4474  0.2837
 3134DPPC   NC359293  18.910  27.841   2.443 -0.1112 -0.2220  0.0693
 3134DPPC   PO459294  19.188  28.110   2.347 -0.0720 -0.3348  0.0115
 3134DPPC   GL159295  19.107  28.151   2.862  0.1886  0.0827 -0.0184
 3134DPPC   GL259296  18.966  27.799   2.928  0.0172 -0.4962  0.0581
 3134DPPC   C1A59297  18.907  28.446   3.058  0.3129 -0.1128  0.3366
 3134DPPC   C2A59298  18.795  28.871   3.122 -0.1918  0.0362  0.3914
 3134DPPC   C3A59299  18.828  29.090   3.462 -0.2308  0.2047  0.1231
 3134DPPC   C4A59300  19.111  29.408   3.762 -0.0947  0.1171 -0.1398
 3134DPPC   C1B59301  18.664  28.069   3.265 -0.0253  0.0473 -0.2619
 3134DPPC   C2B59302  18.438  28.457   3.196 -0.2138  0.3168  0.2126
 3134DPPC   C3B59303  18.373  28.961   3.310 -0.1853 -0.1611  0.1055
 3134DPPC   C4B59304  18.353  29.344   3.457  0.0332 -0.0797 -0.0055
 3135DPPC   NC359305  17.368  25.461  24.047  0.0056  0.0157 -0.2117
 3135DPPC   PO459306  17.581  24.995  23.872 -0.0889  0.1146 -0.0667
 3135DPPC   GL159307  17.381  24.515  23.926 -0.0783 -0.1973  0.1018
 3135DPPC   GL259308  17.223  24.376  24.112  0.0898 -0.0345 -0.1204
 3135DPPC   C1A59309  16.974  24.100  23.809  0.2590 -0.3474 -0.3818
 3135DPPC   C2A59310  16.610  23.903  23.917  0.0193  0.0189 -0.1669
 3135DPPC   C3A59311  16.236  23.774  24.263 -0.0160  0.0043  0.2449
 3135DPPC   C4A59312  15.883  23.639  24.436 -0.2671 -0.1037 -0.0307
 3135DPPC   C1B59313  16.815  24.453  24.123  0.2376 -0.1103 -0.1840
 3135DPPC   C2B59314  16.410  24.352  23.946 -0.1399 -0.3031 -0.1027
 3135DPPC   C3B59315  16.097  24.223  23.753  0.0128 -0.0875  0.0940
 3135DPPC   C4B59316  15.809  24.093  23.330 -0.0022 -0.0254 -0.1038
 3136DPPC   NC359317  23.097  24.763   1.788 -0.0981 -0.2999  0.0755
 3136DPPC   PO459318  22.808  24.941   1.455  0.1037 -0.0006 -0.1627
 3136DPPC   GL159319  22.955  24.875   0.966 -0.1616  0.0904  0.0029
 3136DPPC   GL259320  23.269  24.776   0.970  0.0936 -0.1343  0.0360
 3136DPPC   C1A59321  23.099  25.037   0.494  0.2260  0.3505 -0.0552
 3136DPPC   C2A59322  23.140  25.305   0.124  0.2378 -0.0936  0.0267
 3136DPPC   C3A59323  23.199  25.606  26.767  0.1779  0.2600 -0.1591
 3136DPPC   C4A59324  23.424  25.865  26.491  0.0768 -0.4968  0.4544
 3136DPPC   C1B59325  23.484  25.113   0.761 -0.0292 -0.0653  0.1227
 3136DPPC   C2B59326  23.730  25.357   0.590 -0.2021  0.1637  0.0327
 3136DPPC   C3B59327  24.129  25.485   0.578 -0.0979 -0.0376  0.0317
 3136DPPC   C4B59328  24.232  25.738   0.249 -0.0560  0.3029 -0.0717
 3137DPPC   NC359329  24.877  21.802   2.345  0.0821 -0.1371 -0.0511
 3137DPPC   PO459330  24.549  21.762   2.051 -0.2823 -0.1666  0.0875
 3137DPPC   GL159331  24.477  21.433   2.330  0.2461 -0.0755 -0.0185
 3137DPPC   GL259332  24.171  21.318   2.292  0.2543  0.1827 -0.1664
 3137DPPC   C1A59333  24.549  21.323   2.724  0.0449 -0.0256  0.0536
 3137DPPC   C2A59334  24.785  21.089   3.090  0.3314  0.2032 -0.1063
 3137DPPC   C3A59335  24.647  20.735   3.360  0.0146  0.1206  0.1235
 3137DPPC   C4A59336  24.540  20.363   3.380 -0.1295  0.2144 -0.0943
 3137DPPC   C1B59337  24.037  21.203   2.751 -0.2153 -0.0054 -0.2742
 3137DPPC   C2B59338  23.848  21.019   3.124  0.0728  0.0923 -0.0884
 3137DPPC   C3B59339  23.375  21.139   3.240 -0.0516  0.1019  0.0153
 3137DPPC   C4B59340  23.248  21.145   3.693 -0.0115 -0.1407 -0.4870
 3138DPPC   NC359341  20.916  21.799  24.468 -0.0150  0.1535 -0.3112
 3138DPPC   PO459342  21.111  21.573  24.816 -0.2174 -0.0959  0.2080
 3138DPPC   GL159343  20.677  21.479  24.933 -0.1303 -0.3112 -0.1578
 3138DPPC   GL259344  20.560  21.166  24.850 -0.1322 -0.4532  0.2394
 3138DPPC   C1A59345  20.288  21.420  25.185 -0.0477 -0.1310  0.1049
 3138DPPC   C2A59346  20.152  21.066  25.314 -0.0396  0.1302  0.0702
 3138DPPC   C3A59347  20.086  20.810  25.662  0.1716 -0.0986 -0.1694
 3138DPPC   C4A59348  20.096  20.546  26.041 -0.1139  0.1177 -0.2868
 3138DPPC   C1B59349  20.417  20.778  24.963 -0.2675 -0.0651  0.1310
 3138DPPC   C2B59350  20.224  20.454  25.234  0.2759  0.1744  0.2642
 3138DPPC   C3B59351  19.942  20.266  25.548 -0.0172  0.2147  0.3627
 3138DPPC   C4B59352  19.614  20.236  25.870 -0.0183 -0.0653 -0.0773
 3139DPPC   NC359353  19.952  28.254   1.262  0.0039  0.0362  0.0196
 3139DPPC   PO459354  20.275  28.364   1.457  0.0728  0.2109 -0.2348
 3139DPPC   GL159355  20.572  28.556   1.232  0.2320 -0.1797  0.1031
 3139DPPC   GL259356  20.752  28.836   1.463 -0.1716  0.0576  0.1455
 3139DPPC   C1A59357  20.594  29.008   0.957 -0.2034 -0.1589  0.0893
 3139DPPC   C2A59358  20.827  29.512   1.087  0.1243 -0.0239  0.2404
 3139DPPC   C3A59359  21.134  29.831   0.980  0.1668  0.0780  0.1084
 3139DPPC   C4A59360  21.479  30.145   0.961 -0.0724 -0.0099 -0.0368
 3139DPPC   C1B59361  21.023  29.239   1.449 -0.1163  0.1872  0.0668
 3139DPPC   C2B59362  21.285  29.574   1.388 -0.1000 -0.0848 -0.3263
 3139DPPC   C3B59363  21.390  30.036   1.481 -0.0149 -0.3278 -0.1284
 3139DPPC   C4B59364  21.615  30.212   1.735 -0.0961 -0.1372 -0.3081
 3140DPPC   NC359365  25.889  18.643  24.591 -0.1023  0.2265  0.2912
 3140DPPC   PO459366  26.228  18.800  24.890  0.0819  0.1889 -0.0753
 3140DPPC   GL159367  26.615  18.874  24.892  0.3786  0.1736  0.0824
 3140DPPC   GL259368  26.918  19.139  24.843 -0.0851  0.0478 -0.0714
 3140DPPC   C1A59369  26.943  18.724  24.624 -0.2559 -0.0283  0.3298
 3140DPPC   C2A59370  27.433  18.812  24.564  0.1334  0.2425 -0.1782
 3140DPPC   C3A59371  27.836  19.024  24.388 -0.2233  0.4498 -0.1588
 3140DPPC   C4A59372  28.033  18.980  24.018 -0.0202 -0.1386 -0.1740
 3140DPPC   C1B59373  27.237  19.261  24.441 -0.2766  0.2296  0.1132
 3140DPPC   C2B59374  27.195  19.530  24.058  0.3352  0.1762 -0.1630
 3140DPPC   C3B59375  27.156  19.737  23.659 -0.0305 -0.1485 -0.2180
 3140DPPC   C4B59376  27.039  20.160  23.478 -0.0933 -0.0148  0.0759
 3141DPPC   NC359377  17.893  27.568  23.212  0.2429  0.0229  0.3483
 3141DPPC   PO459378  18.373  27.238  23.165 -0.1050 -0.1528 -0.1996
 3141DPPC   GL159379  18.629  27.361  22.806  0.1426  0.1686  0.0706
 3141DPPC   GL259380  18.796  27.219  22.649 -0.3383  0.0381 -0.2034
 3141DPPC   C1A59381  18.872  27.727  22.587 -0.0554  0.0867  0.1541
 3141DPPC   C2A59382  19.157  28.076  22.543 -0.1571  0.0148  0.1809
 3141DPPC   C3A59383  19.337  28.461  22.297 -0.2032 -0.0059 -0.3316
 3141DPPC   C4A59384  19.331  28.735  21.974 -0.1652  0.1842  0.0261
 3141DPPC   C1B59385  19.175  27.359  22.427  0.0020 -0.0312  0.1649
 3141DPPC   C2B59386  19.363  27.316  22.043 -0.0222 -0.2634  0.0952
 3141DPPC   C3B59387  19.659  27.349  21.776  0.1410  0.1296  0.1108
 3141DPPC   C4B59388  20.019  27.597  21.601  0.2594  0.0404 -0.1407
 3142DPPC   NC359389  20.261  20.503  22.396  0.1595 -0.1613 -0.2200
 3142DPPC   PO459390  20.397  20.480  21.992 -0.0581  0.1402  0.1376
 3142DPPC   GL159391  20.200  20.131  21.997 -0.2264  0.1950  0.0861
 3142DPPC   GL259392  19.904  20.250  22.067 -0.1221 -0.3495 -0.2070
 3142DPPC   C1A59393  19.960  19.771  21.965  0.1002 -0.1424 -0.1170
 3142DPPC   C2A59394  19.816  19.394  21.846  0.0003  0.0621 -0.0322
 3142DPPC   C3A59395  19.680  19.038  21.894  0.2410  0.1828 -0.4151
 3142DPPC   C4A59396  19.480  18.726  21.740 -0.1898 -0.1396 -0.1993
 3142DPPC   C1B59397  19.545  20.101  22.063  0.0070  0.0956  0.0005
 3142DPPC   C2B59398  19.465  19.708  22.094  0.0140  0.1769  0.1263
 3142DPPC   C3B59399  19.303  19.345  22.298  0.2360 -0.3347  0.0033
 3142DPPC   C4B59400  19.512  19.034  22.618 -0.3781 -0.1481 -0.0902
 3143DPPC   NC359401  23.949  24.305   2.308 -0.3807  0.0505 -0.2130
 3143DPPC   PO459402  23.759  24.399   1.886  0.0826 -0.1815  0.1080
 3143DPPC   GL159403  23.998  24.691   1.669 -0.1609 -0.2340 -0.0221
 3143DPPC   GL259404  24.116  24.459   1.482  0.0150  0.0228 -0.0177
 3143DPPC   C1A59405  24.360  24.959   1.459 -0.1300 -0.1063  0.1770
 3143DPPC   C2A59406  24.653  25.254   1.194 -0.1871 -0.0148 -0.2808
 3143DPPC   C3A59407  25.031  25.359   1.041 -0.1276 -0.2107 -0.0071
 3143DPPC   C4A59408  25.362  25.668   0.865  0.0458 -0.0964 -0.0817
 3143DPPC   C1B59409  24.103  24.692   1.106 -0.0572  0.0621  0.3477
 3143DPPC   C2B59410  24.389  25.026   0.817 -0.0900  0.0198 -0.1586
 3143DPPC   C3B59411  24.606  25.307   0.618 -0.0910 -0.1148 -0.3231
 3143DPPC   C4B59412  25.059  25.414   0.568 -0.1354 -0.0078  0.1540
 3144DPPC   NC359413  20.840  23.365  26.831  0.4287  0.0790  0.0120
 3144DPPC   PO459414  20.532  23.007  26.881 -0.2766  0.0287  0.1258
 3144DPPC   GL159415  20.165  22.906   0.198 -0.0260  0.1666 -0.0168
 3144DPPC   GL259416  20.172  23.099   0.389 -0.1992  0.1423  0.0715
 3144DPPC   C1A59417  20.122  22.665   0.537  0.5375 -0.0586  0.3995
 3144DPPC   C2A59418  19.893  22.374   0.879  0.2814  0.0128  0.0916
 3144DPPC   C3A59419  19.674  22.166   1.100 -0.3752 -0.1270 -0.1885
 3144DPPC   C4A59420  19.313  22.139   1.396 -0.2561 -0.2495 -0.1768
 3144DPPC   C1B59421  20.105  23.016   0.896 -0.1717 -0.2644 -0.1881
 3144DPPC   C2B59422  19.804  22.845   1.095 -0.1399 -0.1189  0.2715
 3144DPPC   C3B59423  19.480  22.660   1.293  0.0959 -0.1131 -0.0667
 3144DPPC   C4B59424  19.076  22.795   1.417  0.1655  0.0160  0.0663
 3145DPPC   NC359425  17.075  28.982  22.403 -0.2628 -0.2434 -0.0060
 3145DPPC   PO459426  16.748  28.784  22.567  0.2380 -0.0466  0.2107
 3145DPPC   GL159427  16.295  28.801  22.735 -0.1132  0.0168  0.0777
 3145DPPC   GL259428  16.208  28.902  23.136  0.1232  0.0253 -0.0535
 3145DPPC   C1A59429  15.902  28.723  22.555  0.0269 -0.3190  0.0594
 3145DPPC   C2A59430  15.604  28.970  22.245 -0.0657  0.0931  0.3935
 3145DPPC   C3A59431  15.380  28.928  21.918  0.0434  0.0936  0.0403
 3145DPPC   C4A59432  15.219  29.071  21.533 -0.1661  0.2566 -0.1315
 3145DPPC   C1B59433  15.803  28.865  23.012  0.2773 -0.0837  0.0780
 3145DPPC   C2B59434  15.620  29.199  22.770  0.1052  0.0585 -0.0525
 3145DPPC   C3B59435  15.642  29.684  22.683 -0.0380 -0.1005  0.1124
 3145DPPC   C4B59436  15.344  29.937  22.921  0.3049 -0.0563  0.2176
 3146DPPC   NC359437  21.437  28.515   2.651  0.1895  0.2961  0.1972
 3146DPPC   PO459438  21.071  28.501   2.351  0.1627  0.0884 -0.0997
 3146DPPC   GL159439  21.230  28.980   2.382 -0.0624 -0.0914  0.4728
 3146DPPC   GL259440  21.547  28.890   2.326  0.3551 -0.0687  0.0570
 3146DPPC   C1A59441  21.232  29.419   2.447 -0.2804 -0.0955  0.3070
 3146DPPC   C2A59442  21.315  29.731   2.746  0.0234 -0.1401  0.0977
 3146DPPC   C3A59443  21.492  30.178   2.618 -0.1300 -0.0865 -0.0926
 3146DPPC   C4A59444  21.473  30.540   2.695  0.1188 -0.2085 -0.0971
 3146DPPC   C1B59445  21.612  29.206   2.063  0.0773  0.0396 -0.1832
 3146DPPC   C2B59446  21.555  29.216   1.607  0.0066  0.0180 -0.3310
 3146DPPC   C3B59447  21.760  29.534   1.224 -0.1562 -0.0998 -0.1208
 3146DPPC   C4B59448  22.018  29.852   1.033  0.1169 -0.3001  0.0939
 3147DPPC   NC359449  22.406  25.273   1.240 -0.0255 -0.0019  0.0306
 3147DPPC   PO459450  22.140  25.527   1.341  0.0499  0.3136  0.0393
 3147DPPC   GL159451  22.276  25.776   1.064 -0.1208 -0.3276 -0.3451
 3147DPPC   GL259452  22.252  26.149   0.832  0.0772  0.1404 -0.0636
 3147DPPC   C1A59453  22.611  25.793   0.830 -0.1160 -0.0546 -0.0060
 3147DPPC   C2A59454  22.985  26.040   0.674  0.1120  0.3977 -0.2238
 3147DPPC   C3A59455  22.964  26.385   0.441 -0.0753  0.1673 -0.0381
 3147DPPC   C4A59456  23.166  26.670   0.127 -0.1028 -0.2026  0.1844
 3147DPPC   C1B59457  22.549  26.093   0.428  0.1087  0.0248  0.4747
 3147DPPC   C2B59458  22.658  26.145  26.905  0.1366  0.2261 -0.3509
 3147DPPC   C3B59459  22.763  26.584  26.608 -0.2392 -0.2339 -0.5648
 3147DPPC   C4B59460  22.974  26.542  26.158 -0.1834 -0.0031 -0.1321
 3148DPPC   NC359461  23.672  24.387   4.104  0.2366 -0.2056 -0.1502
 3148DPPC   PO459462  23.295  24.476   3.818  0.1461 -0.2451  0.0768
 3148DPPC   GL159463  23.213  24.181   4.198 -0.2553 -0.3135 -0.0858
 3148DPPC   GL259464  22.843  24.259   4.329 -0.0901  0.0864  0.1197
 3148DPPC   C1A59465  23.029  23.764   4.521  0.0756 -0.3087 -0.1844
 3148DPPC   C2A59466  22.935  23.419   4.744  0.0153 -0.4001 -0.1399
 3148DPPC   C3A59467  22.686  23.086   4.871 -0.2511 -0.0855  0.0647
 3148DPPC   C4A59468  22.684  22.605   4.826 -0.0176 -0.1324 -0.2207
 3148DPPC   C1B59469  22.509  24.494   4.480 -0.3165 -0.0317  0.1289
 3148DPPC   C2B59470  22.440  24.442   4.921 -0.2419  0.4135  0.0518
 3148DPPC   C3B59471  22.681  24.375   5.286  0.3615  0.3062 -0.1004
 3148DPPC   C4B59472  22.807  24.490   5.687  0.0908  0.1204 -0.1049
 3149DPPC   NC359473  19.966  25.778   2.846  0.0854  0.0211 -0.1219
 3149DPPC   PO459474  19.651  26.010   2.595 -0.2414 -0.0389 -0.1265
 3149DPPC   GL159475  19.510  25.531   2.745 -0.1730 -0.1385 -0.0758
 3149DPPC   GL259476  19.636  25.411   3.103  0.2934 -0.0467  0.1318
 3149DPPC   C1A59477  19.135  25.417   2.916  0.3360  0.1169 -0.3601
 3149DPPC   C2A59478  18.839  25.170   3.219 -0.0096 -0.0642  0.0169
 3149DPPC   C3A59479  18.462  25.313   3.397 -0.2020 -0.2969  0.3271
 3149DPPC   C4A59480  18.139  25.414   3.256 -0.1667  0.1684 -0.3150
 3149DPPC   C1B59481  19.387  25.324   3.396  0.1550  0.1373 -0.1165
 3149DPPC   C2B59482  18.921  25.361   3.729 -0.2978 -0.1642  0.0785
 3149DPPC   C3B59483  18.717  25.550   4.086 -0.3751 -0.2914 -0.1821
 3149DPPC   C4B59484  18.750  25.761   4.473 -0.1662  0.1077  0.2461
 3150DPPC   NC359485  24.639  24.262   3.988 -0.0268 -0.2998 -0.1626
 3150DPPC   PO459486  24.805  23.862   4.025  0.1679 -0.2403  0.1214
 3150DPPC   GL159487  24.657  23.519   4.333  0.0335 -0.0447  0.1569
 3150DPPC   GL259488  24.878  23.240   4.341  0.1341  0.2176  0.2281
 3150DPPC   C1A59489  24.485  23.145   4.522  0.0139  0.0343  0.1413
 3150DPPC   C2A59490  24.229  22.882   4.855  0.0773 -0.1609 -0.2199
 3150DPPC   C3A59491  23.994  22.594   4.978 -0.0478  0.0673  0.2838
 3150DPPC   C4A59492  23.880  22.209   4.919 -0.3057  0.0392  0.1512
 3150DPPC   C1B59493  24.918  23.093   4.699  0.0100 -0.0915  0.0133
 3150DPPC   C2B59494  24.736  23.059   5.096  0.1820  0.2071 -0.0865
 3150DPPC   C3B59495  24.606  22.873   5.429  0.0848  0.0334  0.0820
 3150DPPC   C4B59496  24.544  22.474   5.646 -0.0556  0.0839 -0.0011
 3151DPPC   NC359497  19.748  26.800   3.133 -0.1179 -0.1415  0.0111
 3151DPPC   PO459498  20.128  26.778   3.352 -0.2264  0.2466  0.1224
 3151DPPC   GL159499  19.827  26.620   3.660 -0.0169 -0.0113 -0.0357
 3151DPPC   GL259500  19.663  26.331   3.518  0.2769  0.0423 -0.2022
 3151DPPC   C1A59501  19.762  26.755   4.075 -0.2308  0.0083  0.0171
 3151DPPC   C2A59502  19.571  26.618   4.439  0.2482  0.0177  0.0057
 3151DPPC   C3A59503  19.329  26.637   4.851  0.0611  0.1126 -0.0306
 3151DPPC   C4A59504  19.342  26.302   5.133 -0.2049 -0.0801 -0.2016
 3151DPPC   C1B59505  19.198  26.376   3.660 -0.1789  0.2030 -0.3838
 3151DPPC   C2B59506  18.846  26.587   3.832 -0.0870 -0.0506  0.0612
 3151DPPC   C3B59507  18.472  26.684   3.794  0.0094 -0.0574  0.0949
 3151DPPC   C4B59508  18.182  26.961   4.047 -0.1370 -0.1456  0.1745
 3152DPPC   NC359509  26.162  23.059   1.886  0.0768  0.1221 -0.0915
 3152DPPC   PO459510  26.125  22.569   1.701  0.2276 -0.1054 -0.0604
 3152DPPC   GL159511  26.486  22.796   1.553  0.2273 -0.0735 -0.1935
 3152DPPC   GL259512  26.576  22.626   1.378 -0.2373 -0.0615  0.1133
 3152DPPC   C1A59513  26.791  23.040   1.483  0.0854  0.1599 -0.3450
 3152DPPC   C2A59514  27.206  23.137   1.670  0.0080 -0.0153 -0.1425
 3152DPPC   C3A59515  27.402  23.515   1.405  0.2065 -0.0301  0.0696
 3152DPPC   C4A59516  27.585  23.927   1.439 -0.3149 -0.0410  0.0004
 3152DPPC   C1B59517  26.807  22.816   1.006  0.1745 -0.0410  0.0268
 3152DPPC   C2B59518  27.079  23.222   1.055 -0.1628  0.0772 -0.2108
 3152DPPC   C3B59519  27.456  23.423   0.903 -0.1395  0.0257  0.4843
 3152DPPC   C4B59520  27.887  23.550   1.130  0.3441 -0.2750 -0.1341
 3153DPPC   NC359521  22.589  19.422  23.634 -0.2340  0.1999 -0.0965
 3153DPPC   PO459522  22.938  19.251  23.288 -0.3639 -0.0994 -0.1700
 3153DPPC   GL159523  22.613  18.953  23.507  0.2345 -0.0215  0.0344
 3153DPPC   GL259524  22.374  18.924  23.362 -0.1408 -0.1210  0.3324
 3153DPPC   C1A59525  22.492  18.663  23.747 -0.0849  0.1010  0.1293
 3153DPPC   C2A59526  22.736  18.373  23.906  0.1296 -0.2387 -0.1515
 3153DPPC   C3A59527  22.625  18.020  24.104  0.0616  0.0247 -0.0987
 3153DPPC   C4A59528  22.408  17.676  24.020  0.0587  0.1401  0.1341
 3153DPPC   C1B59529  22.062  18.581  23.511 -0.3265 -0.0327 -0.1416
 3153DPPC   C2B59530  21.664  18.421  23.474 -0.2674 -0.1873 -0.4230
 3153DPPC   C3B59531  21.343  18.164  23.453  0.1743 -0.0065 -0.2090
 3153DPPC   C4B59532  21.284  17.701  23.593 -0.2626 -0.0905  0.0123
 3154DPPC   NC359533  25.184  21.286   0.204 -0.0806  0.3276 -0.3885
 3154DPPC   PO459534  25.276  21.693   0.340 -0.0364  0.0125 -0.2326
 3154DPPC   GL159535  25.583  21.930   0.042  0.1442  0.3355 -0.1075
 3154DPPC   GL259536  25.649  21.871  26.692  0.1417 -0.0046 -0.3546
 3154DPPC   C1A59537  26.007  22.084   0.060  0.1821  0.0334  0.0874
 3154DPPC   C2A59538  26.366  22.250   0.296  0.3202 -0.1809 -0.1980
 3154DPPC   C3A59539  26.807  22.251   0.182  0.2419  0.2523  0.0004
 3154DPPC   C4A59540  27.211  22.458   0.131 -0.0544 -0.2696  0.3295
 3154DPPC   C1B59541  25.997  22.090  26.492 -0.1315  0.0364 -0.1793
 3154DPPC   C2B59542  26.290  22.382  26.243 -0.0111 -0.3208 -0.4448
 3154DPPC   C3B59543  26.450  22.762  26.439 -0.0141 -0.0319  0.4999
 3154DPPC   C4B59544  26.727  23.083  26.554 -0.0723 -0.0618  0.2543
 3155DPPC   NC359545  23.408  22.194  25.943 -0.3336  0.0452  0.0384
 3155DPPC   PO459546  23.513  22.468  26.289  0.4340 -0.1972  0.2231
 3155DPPC   GL159547  23.838  22.416  26.054  0.0805  0.0914 -0.0277
 3155DPPC   GL259548  24.184  22.105  26.061  0.2560 -0.0728 -0.0100
 3155DPPC   C1A59549  24.076  22.768  25.717  0.0863 -0.3396 -0.0052
 3155DPPC   C2A59550  24.358  23.065  25.422  0.1028  0.4040  0.0076
 3155DPPC   C3A59551  24.764  23.212  25.397  0.0905 -0.0111  0.0555
 3155DPPC   C4A59552  24.932  23.617  25.692 -0.0069 -0.0599 -0.1002
 3155DPPC   C1B59553  24.403  22.440  25.835  0.1579 -0.0390 -0.2915
 3155DPPC   C2B59554  24.590  22.694  25.574 -0.1533 -0.2470 -0.3037
 3155DPPC   C3B59555  24.699  22.796  25.114  0.1348  0.0669 -0.0694
 3155DPPC   C4B59556  25.097  22.983  24.939 -0.1539 -0.2238 -0.3611
 3156DPPC   NC359557  26.370  23.264   3.173 -0.0647  0.2054 -0.1033
 3156DPPC   PO459558  26.598  23.483   2.833  0.3448 -0.2854  0.0643
 3156DPPC   GL159559  26.542  23.912   2.639  0.1707  0.1772 -0.1507
 3156DPPC   GL259560  26.580  24.267   2.688 -0.0120 -0.3292  0.0701
 3156DPPC   C1A59561  26.837  24.085   2.268 -0.1178 -0.1015 -0.0322
 3156DPPC   C2A59562  26.744  24.439   2.088  0.1746  0.1090 -0.1219
 3156DPPC   C3A59563  26.697  24.857   1.949 -0.1022 -0.1442  0.2714
 3156DPPC   C4A59564  26.834  25.127   1.507 -0.0036 -0.2014  0.0937
 3156DPPC   C1B59565  26.815  24.482   2.648 -0.1459  0.1110 -0.1261
 3156DPPC   C2B59566  27.030  24.750   2.343  0.1928 -0.0464 -0.1428
 3156DPPC   C3B59567  27.205  24.796   1.871  0.0764 -0.0402  0.1055
 3156DPPC   C4B59568  27.331  25.093   1.571 -0.0814 -0.0606 -0.0695
 3157DPPC   NC359569  23.235  26.823   3.635 -0.0953  0.3216  0.0833
 3157DPPC   PO459570  23.591  26.593   3.337  0.1271  0.5175 -0.0930
 3157DPPC   GL159571  23.842  26.884   3.113 -0.1262  0.0585 -0.0818
 3157DPPC   GL259572  24.125  26.912   3.306  0.4143 -0.1627  0.5848
 3157DPPC   C1A59573  23.908  26.966   2.701  0.0775 -0.1021  0.0342
 3157DPPC   C2A59574  24.221  27.301   2.468 -0.1522  0.0285  0.2389
 3157DPPC   C3A59575  24.430  27.556   2.287 -0.1566  0.2975 -0.1893
 3157DPPC   C4A59576  24.475  28.075   2.219  0.1298 -0.1334  0.1901
 3157DPPC   C1B59577  24.561  27.056   3.134 -0.4283 -0.0155  0.1145
 3157DPPC   C2B59578  24.642  27.179   2.809  0.0094  0.0633  0.1614
 3157DPPC   C3B59579  24.844  27.491   2.607 -0.2154 -0.0214  0.0437
 3157DPPC   C4B59580  25.044  27.298   2.257 -0.0733 -0.0147 -0.0788
 3158DPPC   NC359581  19.057  22.540  20.611 -0.0261  0.1393  0.1378
 3158DPPC   PO459582  18.847  22.635  20.306 -0.1813  0.1765 -0.0142
 3158DPPC   GL159583  18.477  22.364  20.313 -0.0411  0.3655  0.1299
 3158DPPC   GL259584  18.435  22.472  20.043 -0.0275 -0.3322  0.3228
 3158DPPC   C1A59585  18.334  21.994  20.281  0.1376  0.3428 -0.1193
 3158DPPC   C2A59586  18.123  21.595  20.286 -0.0682  0.0369  0.0363
 3158DPPC   C3A59587  18.149  21.204  20.378 -0.3769 -0.0703  0.1574
 3158DPPC   C4A59588  17.918  21.052  20.728 -0.0846  0.2837 -0.1838
 3158DPPC   C1B59589  18.012  22.363  20.155 -0.1411 -0.3378  0.0260
 3158DPPC   C2B59590  17.753  22.080  20.186 -0.3093 -0.3078 -0.1493
 3158DPPC   C3B59591  17.407  22.108  20.211  0.0128  0.0800  0.1081
 3158DPPC   C4B59592  16.981  21.964  20.179  0.0698  0.0427  0.1779
 3159DPPC   NC359593  25.915  20.890  26.916  0.0952 -0.1238  0.0761
 3159DPPC   PO459594  26.401  21.076  26.779 -0.0868  0.1025  0.0016
 3159DPPC   GL159595  26.627  21.408  26.541  0.0485  0.1809  0.4663
 3159DPPC   GL259596  26.929  21.565  26.708  0.2483 -0.2636 -0.1034
 3159DPPC   C1A59597  26.705  21.532  26.181  0.0211 -0.3012  0.3137
 3159DPPC   C2A59598  27.246  21.581  25.923  0.2616  0.2602  0.0053
 3159DPPC   C3A59599  27.402  21.499  25.566 -0.0443 -0.1544  0.0314
 3159DPPC   C4A59600  27.569  21.236  25.294  0.1317  0.1174  0.1739
 3159DPPC   C1B59601  27.090  21.808  26.373 -0.2190 -0.2038  0.0597
 3159DPPC   C2B59602  27.195  22.127  26.163 -0.1034  0.1174 -0.1004
 3159DPPC   C3B59603  27.375  22.472  26.078 -0.2218  0.3003  0.0776
 3159DPPC   C4B59604  27.476  22.849  26.029  0.3684  0.1485 -0.0309
 3160DPPC   NC359605  20.641  22.853  25.723 -0.1065 -0.2550 -0.1936
 3160DPPC   PO459606  20.441  22.704  25.473  0.3267 -0.1111 -0.0025
 3160DPPC   GL159607  20.231  22.470  25.744 -0.2265  0.1371  0.0962
 3160DPPC   GL259608  20.104  22.643  25.965 -0.2376 -0.1295 -0.0360
 3160DPPC   C1A59609  20.008  22.090  25.869  0.1264 -0.1648 -0.0400
 3160DPPC   C2A59610  19.779  21.667  25.942 -0.2403 -0.0295 -0.0751
 3160DPPC   C3A59611  19.611  21.259  25.860 -0.0099  0.1058 -0.3428
 3160DPPC   C4A59612  19.309  20.984  25.909  0.1409  0.0485 -0.1345
 3160DPPC   C1B59613  19.817  22.536  26.264 -0.1324 -0.1332 -0.0758
 3160DPPC   C2B59614  19.589  22.490  26.654 -0.0517  0.0977 -0.0269
 3160DPPC   C3B59615  19.686  22.052  26.886  0.1366 -0.3477 -0.0466
 3160DPPC   C4B59616  19.673  21.645   0.327  0.0512 -0.3354 -0.1219
 3161DPPC   NC359617  18.783  23.134  22.362  0.0630  0.0429 -0.0446
 3161DPPC   PO459618  18.340  23.270  22.212  0.2500 -0.0177  0.0715
 3161DPPC   GL159619  18.002  23.138  22.191 -0.0011 -0.2605  0.1949
 3161DPPC   GL259620  17.893  23.327  22.426 -0.0607 -0.1257 -0.0847
 3161DPPC   C1A59621  17.648  22.879  22.301  0.2052  0.0156  0.2078
 3161DPPC   C2A59622  17.325  22.735  22.634 -0.1137 -0.2374 -0.1068
 3161DPPC   C3A59623  17.217  22.280  22.855  0.1162 -0.0541 -0.1057
 3161DPPC   C4A59624  17.140  21.826  22.756  0.0646 -0.1580  0.3128
 3161DPPC   C1B59625  17.486  23.240  22.644  0.0388  0.0950  0.2250
 3161DPPC   C2B59626  17.212  23.076  22.984  0.2160 -0.1958  0.2042
 3161DPPC   C3B59627  16.943  22.685  23.013  0.0663  0.2402  0.0362
 3161DPPC   C4B59628  16.725  22.373  22.856  0.0943  0.2316  0.1308
 3162DPPC   NC359629  23.009  22.784   1.502 -0.1306  0.2995 -0.0715
 3162DPPC   PO459630  22.793  22.339   1.682  0.3599  0.1888 -0.1833
 3162DPPC   GL159631  22.889  22.004   1.838  0.0015  0.3303  0.2041
 3162DPPC   GL259632  23.138  22.165   2.135  0.4926  0.0946 -0.0937
 3162DPPC   C1A59633  22.818  21.663   2.093  0.2718 -0.0230  0.0087
 3162DPPC   C2A59634  22.610  21.446   2.369  0.1187  0.0267  0.3255
 3162DPPC   C3A59635  22.515  21.039   2.326  0.0657 -0.2246  0.4177
 3162DPPC   C4A59636  22.172  20.557   2.266 -0.2518 -0.0255  0.1048
 3162DPPC   C1B59637  22.741  22.077   2.345  0.2249  0.0137 -0.2834
 3162DPPC   C2B59638  22.461  21.844   2.629  0.0282  0.0781  0.3198
 3162DPPC   C3B59639  22.284  21.636   2.812  0.0223 -0.0285 -0.0308
 3162DPPC   C4B59640  22.142  21.355   3.150 -0.0006 -0.0349  0.3659
 3163DPPC   NC359641  26.918  20.821   1.465 -0.0582 -0.0960  0.3012
 3163DPPC   PO459642  27.135  20.585   1.750  0.0769 -0.2530  0.3609
 3163DPPC   GL159643  27.483  20.276   1.691  0.0505  0.2376 -0.1044
 3163DPPC   GL259644  27.597  20.280   1.426  0.0311 -0.2707 -0.2438
 3163DPPC   C1A59645  27.864  20.119   1.839  0.2441 -0.0406 -0.1661
 3163DPPC   C2A59646  28.180  20.183   1.969 -0.3320  0.0025  0.2074
 3163DPPC   C3A59647  28.522  20.164   2.006  0.1457  0.1198 -0.3544
 3163DPPC   C4A59648  29.028  20.273   1.833  0.1928  0.0145 -0.0257
 3163DPPC   C1B59649  28.086  20.403   1.507 -0.1656 -0.2602  0.0149
 3163DPPC   C2B59650  28.462  20.485   1.615  0.1061 -0.2100 -0.0725
 3163DPPC   C3B59651  28.629  20.881   1.614 -0.1963  0.1844 -0.0768
 3163DPPC   C4B59652  28.969  21.138   1.442  0.0739  0.1348  0.2097
 3164DPPC   NC359653  17.914  27.788  20.813  0.0336 -0.6741  0.1407
 3164DPPC   PO459654  17.721  27.427  20.673  0.1004  0.1436  0.1942
 3164DPPC   GL159655  17.975  27.525  20.256  0.2854 -0.2339 -0.0749
 3164DPPC   GL259656  18.153  27.252  19.992 -0.2375  0.1465  0.3317
 3164DPPC   C1A59657  18.326  27.774  19.970  0.1537 -0.0097 -0.1430
 3164DPPC   C2A59658  18.582  27.793  19.581 -0.1716 -0.1715  0.0849
 3164DPPC   C3A59659  18.574  27.627  19.268  0.1172 -0.0181 -0.1244
 3164DPPC   C4A59660  18.545  27.772  18.810  0.0001 -0.2219 -0.0675
 3164DPPC   C1B59661  18.339  27.276  19.583 -0.2197  0.0001 -0.0331
 3164DPPC   C2B59662  18.145  27.407  19.206  0.1946  0.2293 -0.2316
 3164DPPC   C3B59663  17.982  27.730  18.969  0.0091  0.0240 -0.2027
 3164DPPC   C4B59664  18.042  27.683  18.577  0.1828 -0.0529  0.1037
 3165DPPC   NC359665  18.533  27.281  26.924 -0.0521 -0.0627 -0.0312
 3165DPPC   PO459666  18.090  27.316   0.067 -0.0530  0.1296  0.0107
 3165DPPC   GL159667  17.629  27.301   0.281 -0.4800  0.0147  0.2546
 3165DPPC   GL259668  17.428  27.564   0.368  0.2481 -0.2174 -0.0459
 3165DPPC   C1A59669  17.291  27.081   0.371  0.0819 -0.2630  0.1192
 3165DPPC   C2A59670  16.802  26.982   0.410  0.3222  0.4473  0.0730
 3165DPPC   C3A59671  16.333  26.874   0.393 -0.2950  0.1221 -0.0025
 3165DPPC   C4A59672  16.245  27.179   0.742  0.0866 -0.0130 -0.0188
 3165DPPC   C1B59673  17.111  27.390   0.676  0.0510 -0.0268 -0.1291
 3165DPPC   C2B59674  16.707  27.210   0.841  0.1161 -0.0442 -0.2007
 3165DPPC   C3B59675  16.370  27.036   1.241 -0.0421 -0.0899 -0.2334
 3165DPPC   C4B59676  16.235  26.791   1.679 -0.0363  0.0793  0.5327
 3166DPPC   NC359677  16.827  27.836  25.656  0.0008  0.0303  0.0470
 3166DPPC   PO459678  16.801  28.160  25.402 -0.1706 -0.1020 -0.1553
 3166DPPC   GL159679  16.614  28.260  25.814  0.2527  0.2778 -0.0703
 3166DPPC   GL259680  16.655  28.152  26.121  0.1511  0.0722  0.1422
 3166DPPC   C1A59681  16.193  28.000  25.926 -0.4009  0.1640 -0.2177
 3166DPPC   C2A59682  15.937  27.959  26.259  0.3387  0.3870  0.0064
 3166DPPC   C3A59683  15.570  27.810  26.504  0.4658 -0.2211 -0.1189
 3166DPPC   C4A59684  15.248  27.769  26.515 -0.1731  0.0298  0.0763
 3166DPPC   C1B59685  16.309  28.416  26.271 -0.1341 -0.2130  0.2515
 3166DPPC   C2B59686  16.016  28.459  26.426 -0.1557  0.0776  0.0120
 3166DPPC   C3B59687  15.754  28.604  26.668 -0.1729 -0.5312 -0.0565
 3166DPPC   C4B59688  15.523  28.693   0.121 -0.2252 -0.0804  0.1881
 3167DPPC   NC359689  17.661  24.774  20.776 -0.0217  0.0059 -0.0305
 3167DPPC   PO459690  17.851  24.450  20.553 -0.4753  0.0804 -0.2671
 3167DPPC   GL159691  17.484  24.483  20.405  0.0192  0.1970 -0.0089
 3167DPPC   GL259692  17.123  24.577  20.488  0.0019 -0.0495 -0.0882
 3167DPPC   C1A59693  17.226  24.168  20.241 -0.0412  0.3987 -0.4553
 3167DPPC   C2A59694  16.949  24.002  19.923 -0.1099 -0.0193 -0.1477
 3167DPPC   C3A59695  16.755  24.126  19.627  0.1140 -0.4295 -0.1366
 3167DPPC   C4A59696  16.296  24.147  19.637 -0.1464 -0.1668 -0.0710
 3167DPPC   C1B59697  16.780  24.205  20.470  0.2900  0.0231  0.0803
 3167DPPC   C2B59698  16.431  24.238  20.544 -0.2897 -0.0578  0.1577
 3167DPPC   C3B59699  16.103  24.405  20.211  0.1544  0.4565  0.3695
 3167DPPC   C4B59700  15.861  24.363  19.771 -0.0387 -0.0843  0.0358
 3168DPPC   NC359701  25.013  20.063  26.850  0.1932 -0.1214  0.0198
 3168DPPC   PO459702  24.729  19.799  26.508  0.1259 -0.2531  0.1347
 3168DPPC   GL159703  24.632  19.332  26.490  0.3393 -0.0190  0.1933
 3168DPPC   GL259704  24.320  19.429  26.726  0.3713 -0.0467 -0.0056
 3168DPPC   C1A59705  24.541  18.912  26.663  0.1864  0.0810  0.0836
 3168DPPC   C2A59706  24.601  18.397  26.638  0.3207 -0.0137  0.2387
 3168DPPC   C3A59707  24.460  17.899  26.619 -0.1766  0.0482  0.0023
 3168DPPC   C4A59708  24.335  17.580  26.666 -0.1515  0.2763  0.1286
 3168DPPC   C1B59709  24.023  19.170  26.685  0.0397  0.0055  0.0409
 3168DPPC   C2B59710  23.736  18.931   0.045 -0.1335 -0.3036  0.1726
 3168DPPC   C3B59711  23.690  18.517   0.048 -0.1560  0.2004 -0.1666
 3168DPPC   C4B59712  23.583  18.104   0.240  0.1464 -0.0466 -0.2471
 3169DPPC   NC359713  19.437  24.117  23.051 -0.0662  0.1808 -0.2894
 3169DPPC   PO459714  19.677  24.436  23.178 -0.1330 -0.1329 -0.1933
 3169DPPC   GL159715  20.071  24.528  23.180 -0.1407  0.0223 -0.3337
 3169DPPC   GL259716  20.280  24.434  22.973  0.0853  0.2666  0.1032
 3169DPPC   C1A59717  20.450  24.896  23.346 -0.0850  0.2143 -0.3987
 3169DPPC   C2A59718  20.956  24.952  23.177 -0.1168  0.3166 -0.0429
 3169DPPC   C3A59719  21.188  25.184  22.911  0.1385  0.2035 -0.1085
 3169DPPC   C4A59720  21.318  25.646  23.038 -0.1464  0.3326  0.0759
 3169DPPC   C1B59721  20.612  24.630  22.886 -0.0253  0.1458 -0.1194
 3169DPPC   C2B59722  20.780  25.011  22.714 -0.1000  0.1516 -0.0792
 3169DPPC   C3B59723  21.029  25.239  22.317  0.1698  0.0595  0.0858
 3169DPPC   C4B59724  21.384  25.271  22.052 -0.1717 -0.0282 -0.0377
 3170DPPC   NC359725  27.580  24.872   4.120 -0.1790 -0.1343 -0.1211
 3170DPPC   PO459726  27.181  24.480   4.292 -0.1718 -0.6751 -0.1387
 3170DPPC   GL159727  27.583  24.388   4.460 -0.0148 -0.0776 -0.2728
 3170DPPC   GL259728  27.821  24.336   4.228  0.1817  0.0732  0.0829
 3170DPPC   C1A59729  27.925  24.683   4.637  0.0276 -0.0557 -0.0644
 3170DPPC   C2A59730  28.275  24.767   4.892 -0.0063  0.0686  0.2416
 3170DPPC   C3A59731  28.545  24.566   5.182 -0.1408  0.1336  0.1016
 3170DPPC   C4A59732  28.785  24.576   5.484 -0.0152  0.0812 -0.0437
 3170DPPC   C1B59733  28.152  24.528   4.126 -0.3276  0.3245  0.0132
 3170DPPC   C2B59734  28.468  24.545   3.818 -0.0709 -0.2327  0.0050
 3170DPPC   C3B59735  28.825  24.376   3.876 -0.1930 -0.0560 -0.0523
 3170DPPC   C4B59736  29.120  24.042   4.060  0.0802 -0.0842  0.1805
 3171DPPC   NC359737  18.712  23.819  20.956 -0.1502 -0.1998  0.0213
 3171DPPC   PO459738  18.522  23.276  21.009 -0.0873 -0.3493  0.0652
 3171DPPC   GL159739  18.248  23.012  20.888  0.0287 -0.0468 -0.0514
 3171DPPC   GL259740  17.908  23.118  20.924 -0.0671 -0.2039  0.1439
 3171DPPC   C1A59741  18.143  22.670  21.068  0.0782 -0.1418  0.3200
 3171DPPC   C2A59742  17.785  22.405  21.071  0.2463 -0.1580  0.1435
 3171DPPC   C3A59743  17.528  22.074  21.189  0.0235  0.0094 -0.1241
 3171DPPC   C4A59744  17.343  21.683  21.395  0.0963 -0.1452 -0.2641
 3171DPPC   C1B59745  17.663  22.908  20.728 -0.0247  0.1343 -0.2629
 3171DPPC   C2B59746  17.721  22.480  20.567  0.0823 -0.0093  0.0184
 3171DPPC   C3B59747  17.424  22.151  20.709  0.0536 -0.4293 -0.0508
 3171DPPC   C4B59748  17.279  21.772  20.858 -0.3625  0.1008  0.1334
 3172DPPC   NC359749  21.522  21.631  22.553  0.2208  0.1109 -0.0977
 3172DPPC   PO459750  21.262  21.771  22.825 -0.0040  0.1132  0.0798
 3172DPPC   GL159751  21.646  21.996  22.832 -0.0827  0.1480  0.0683
 3172DPPC   GL259752  21.651  22.350  22.798 -0.2239 -0.3671 -0.3910
 3172DPPC   C1A59753  22.043  22.041  22.826  0.4742  0.1174  0.0476
 3172DPPC   C2A59754  22.317  22.436  22.849 -0.1677 -0.2360  0.0772
 3172DPPC   C3A59755  22.655  22.701  22.681 -0.3404 -0.2450  0.1185
 3172DPPC   C4A59756  22.986  22.993  22.669  0.2455 -0.0182  0.4664
 3172DPPC   C1B59757  21.924  22.438  22.536 -0.2384  0.0556  0.1319
 3172DPPC   C2B59758  22.140  22.686  22.425  0.1382 -0.0124  0.0892
 3172DPPC   C3B59759  22.395  22.929  22.200 -0.4438 -0.0282 -0.0892
 3172DPPC   C4B59760  22.624  23.280  22.063 -0.0761 -0.2483  0.1596
 3173DPPC   NC359761  26.086  25.317   3.646  0.0541 -0.0035  0.1814
 3173DPPC   PO459762  26.263  24.905   3.617  0.1516  0.2670  0.0544
 3173DPPC   GL159763  26.249  25.003   3.197  0.2141 -0.0517 -0.2658
 3173DPPC   GL259764  26.572  25.190   3.347 -0.2230 -0.0215 -0.1355
 3173DPPC   C1A59765  26.432  24.975   2.841  0.0277  0.4617  0.0766
 3173DPPC   C2A59766  26.784  25.263   2.671 -0.2913 -0.3238  0.0868
 3173DPPC   C3A59767  27.214  25.496   2.538  0.1854 -0.1029 -0.1182
 3173DPPC   C4A59768  27.568  25.683   2.255  0.0459 -0.2113 -0.0920
 3173DPPC   C1B59769  26.381  25.467   3.131 -0.2463 -0.5280  0.1051
 3173DPPC   C2B59770  26.458  25.905   2.941 -0.0002  0.0128  0.2278
 3173DPPC   C3B59771  26.340  26.032   2.664  0.0324  0.4417 -0.1561
 3173DPPC   C4B59772  26.056  25.874   2.317  0.2319  0.1823  0.1310
 3174DPPC   NC359773  21.754  22.369  24.462  0.0723 -0.1858  0.3653
 3174DPPC   PO459774  21.820  22.594  24.871 -0.0026  0.0092 -0.0446
 3174DPPC   GL159775  22.186  22.799  24.884  0.0041 -0.1982 -0.0994
 3174DPPC   GL259776  22.461  22.696  24.921 -0.0096 -0.1197 -0.2723
 3174DPPC   C1A59777  22.323  23.131  24.611  0.3136  0.1866  0.2952
 3174DPPC   C2A59778  22.434  23.461  24.284 -0.0698 -0.1964  0.1453
 3174DPPC   C3A59779  22.703  23.808  24.088  0.1953  0.3780 -0.0478
 3174DPPC   C4A59780  23.051  24.010  23.993  0.0918 -0.3510  0.2112
 3174DPPC   C1B59781  22.802  22.865  24.993  0.0301 -0.2775 -0.0680
 3174DPPC   C2B59782  23.194  23.088  24.823 -0.1972 -0.2943  0.0111
 3174DPPC   C3B59783  23.555  23.519  24.687 -0.0234  0.1852 -0.0653
 3174DPPC   C4B59784  23.752  23.668  24.331  0.3396 -0.0534  0.1974
 3175DPPC   NC359785  21.210  28.521   4.077 -0.2727 -0.1586  0.1967
 3175DPPC   PO459786  21.406  28.786   4.368  0.1798 -0.1553 -0.3194
 3175DPPC   GL159787  21.703  29.067   4.514 -0.0019 -0.1182 -0.0482
 3175DPPC   GL259788  21.981  29.170   4.453  0.0707 -0.2503 -0.0630
 3175DPPC   C1A59789  21.694  29.483   4.703  0.2977 -0.0509  0.3943
 3175DPPC   C2A59790  21.594  29.863   4.519  0.2763 -0.0095 -0.2476
 3175DPPC   C3A59791  21.372  30.087   4.174  0.1425  0.2591  0.0072
 3175DPPC   C4A59792  21.201  29.797   3.871 -0.1444 -0.3852 -0.0515
 3175DPPC   C1B59793  22.166  29.636   4.371 -0.4596  0.0238 -0.0803
 3175DPPC   C2B59794  22.468  30.038   4.309  0.1203 -0.0619 -0.0045
 3175DPPC   C3B59795  22.773  30.365   4.043 -0.2254  0.2617  0.1562
 3175DPPC   C4B59796  22.855  30.565   3.706 -0.0070 -0.0756 -0.0496
 3176DPPC   NC359797  27.654  21.513   1.439  0.0863  0.0217 -0.1585
 3176DPPC   PO459798  27.323  21.542   1.182 -0.1227 -0.3491  0.1159
 3176DPPC   GL159799  27.750  21.566   0.936  0.0666 -0.1356 -0.1775
 3176DPPC   GL259800  27.620  21.431   0.723 -0.2353 -0.2133  0.0920
 3176DPPC   C1A59801  28.227  21.503   0.961 -0.3199  0.0374 -0.0421
 3176DPPC   C2A59802  28.629  21.284   0.821  0.0898  0.0431 -0.1990
 3176DPPC   C3A59803  28.590  21.118   0.468  0.5346  0.1771 -0.1409
 3176DPPC   C4A59804  28.323  21.105   0.173  0.0656 -0.0048  0.0301
 3176DPPC   C1B59805  27.825  21.765   0.462 -0.0991 -0.0488 -0.5269
 3176DPPC   C2B59806  27.997  22.205   0.256  0.3135 -0.1343  0.3817
 3176DPPC   C3B59807  27.651  22.345  26.830  0.3356 -0.0449 -0.1688
 3176DPPC   C4B59808  27.553  22.645  26.567 -0.2598  0.1487 -0.0256
 3177DPPC   NC359809  18.744  24.565  18.575 -0.1237  0.2271  0.0834
 3177DPPC   PO459810  18.692  24.258  18.337 -0.0244 -0.1180 -0.2960
 3177DPPC   GL159811  18.695  24.393  17.992  0.1555 -0.0879  0.0486
 3177DPPC   GL259812  18.552  24.647  17.985  0.1035 -0.4348 -0.3754
 3177DPPC   C1A59813  18.516  24.520  17.542  0.2113  0.0544  0.3390
 3177DPPC   C2A59814  18.243  24.595  17.203 -0.0475  0.0977 -0.1040
 3177DPPC   C3A59815  17.814  24.739  16.997  0.0364  0.3217  0.0076
 3177DPPC   C4A59816  17.360  24.741  16.824 -0.0560 -0.1210 -0.0491
 3177DPPC   C1B59817  18.112  24.715  17.793  0.1514  0.2533  0.0772
 3177DPPC   C2B59818  17.687  24.796  17.466 -0.0838 -0.0223 -0.1212
 3177DPPC   C3B59819  17.344  24.954  17.311  0.6397 -0.2747  0.0080
 3177DPPC   C4B59820  16.946  25.035  17.107 -0.2193  0.0398  0.1044
 3178DPPC   NC359821  17.525  27.010  26.236 -0.1029  0.0375  0.1593
 3178DPPC   PO459822  17.450  26.962  25.761 -0.0617 -0.1258 -0.2506
 3178DPPC   GL159823  17.132  26.752  25.930  0.0889 -0.0742 -0.0167
 3178DPPC   GL259824  16.794  26.923  25.738  0.3509 -0.1926 -0.2627
 3178DPPC   C1A59825  16.972  26.356  26.007  0.1576 -0.1476 -0.3502
 3178DPPC   C2A59826  16.831  26.080  26.375 -0.1329  0.3982 -0.2175
 3178DPPC   C3A59827  16.618  25.792  26.579 -0.1443  0.1614 -0.0772
 3178DPPC   C4A59828  16.317  25.533  26.801  0.1206  0.0543 -0.0037
 3178DPPC   C1B59829  16.499  26.892  25.986  0.2605  0.0700 -0.1599
 3178DPPC   C2B59830  16.228  26.722  25.978  0.0569 -0.2826  0.2740
 3178DPPC   C3B59831  15.895  26.292  25.959 -0.0301  0.4210 -0.1690
 3178DPPC   C4B59832  15.551  26.058  26.050  0.3120 -0.2227 -0.0024
 3179DPPC   NC359833  21.849  22.626   0.119  0.0900  0.2349 -0.0820
 3179DPPC   PO459834  21.664  22.225   0.043 -0.0747 -0.1630  0.5245
 3179DPPC   GL159835  21.501  21.832   0.256  0.0424  0.1060 -0.0384
 3179DPPC   GL259836  21.268  21.957   0.527 -0.2457 -0.1518  0.0923
 3179DPPC   C1A59837  21.699  21.700   0.705  0.0077 -0.0904 -0.0957
 3179DPPC   C2A59838  21.626  21.650   1.157  0.1587 -0.1767 -0.3528
 3179DPPC   C3A59839  21.587  21.538   1.566  0.2086 -0.0176  0.1398
 3179DPPC   C4A59840  21.927  21.451   1.759  0.1509  0.2035 -0.1340
 3179DPPC   C1B59841  21.259  21.647   0.890  0.0133  0.0792 -0.2988
 3179DPPC   C2B59842  21.331  21.218   1.194  0.2464 -0.0392  0.5708
 3179DPPC   C3B59843  21.141  20.806   1.370 -0.0817 -0.2052 -0.0512
 3179DPPC   C4B59844  20.932  20.515   1.616  0.1724 -0.1063 -0.4207
 3180DPPC   NC359845  21.719  28.838   3.909 -0.2313  0.1084  0.0804
 3180DPPC   PO459846  21.631  29.058   3.522 -0.2060  0.0311  0.0099
 3180DPPC   GL159847  21.470  29.344   3.564  0.2945 -0.0340  0.1476
 3180DPPC   GL259848  21.147  29.398   3.606  0.0588 -0.0038 -0.0913
 3180DPPC   C1A59849  21.595  29.787   3.565 -0.0512  0.1647  0.0367
 3180DPPC   C2A59850  21.520  30.208   3.691  0.0827  0.0582 -0.1137
 3180DPPC   C3A59851  21.411  30.602   3.732  0.0112  0.0133 -0.1232
 3180DPPC   C4A59852  21.274  30.921   3.688 -0.0021  0.0997 -0.2474
 3180DPPC   C1B59853  20.806  29.744   3.573 -0.0145  0.2919  0.0897
 3180DPPC   C2B59854  20.634  30.042   3.433  0.1835 -0.0333 -0.3668
 3180DPPC   C3B59855  20.625  30.388   3.394  0.2639 -0.1620  0.0567
 3180DPPC   C4B59856  20.550  30.661   3.048  0.0584  0.0756  0.2067
 3181DPPC   NC359857  21.082  25.144  26.064 -0.1639 -0.0801  0.0918
 3181DPPC   PO459858  21.439  25.173  26.432 -0.3464  0.0560 -0.4430
 3181DPPC   GL159859  21.442  25.671  26.567  0.3036 -0.0304  0.1078
 3181DPPC   GL259860  21.167  25.855  26.434 -0.3968 -0.0526 -0.1432
 3181DPPC   C1A59861  21.862  25.844  26.334 -0.1574  0.0695  0.0380
 3181DPPC   C2A59862  22.186  25.909  26.115  0.1213 -0.0183  0.2607
 3181DPPC   C3A59863  22.458  25.669  26.191  0.0451 -0.2192 -0.1034
 3181DPPC   C4A59864  22.715  25.548  25.946  0.1182  0.0510 -0.2729
 3181DPPC   C1B59865  21.415  26.131  26.218 -0.0267  0.1320  0.3667
 3181DPPC   C2B59866  21.803  26.471  26.326  0.3408 -0.1134  0.1199
 3181DPPC   C3B59867  22.061  26.820  26.197  0.3130  0.2348 -0.2367
 3181DPPC   C4B59868  22.251  27.321  26.164  0.2604 -0.1724 -0.0476
 3182DPPC   NC359869  19.100  28.146   1.742  0.0404 -0.0209 -0.0994
 3182DPPC   PO459870  18.722  28.214   2.118  0.3201  0.0438 -0.1958
 3182DPPC   GL159871  18.441  28.189   2.450 -0.1406  0.1575 -0.4237
 3182DPPC   GL259872  18.544  28.109   2.787 -0.1093  0.0434  0.0691
 3182DPPC   C1A59873  18.266  28.485   2.680  0.0170  0.0064 -0.2894
 3182DPPC   C2A59874  18.397  29.002   2.801  0.2684  0.1712  0.3105
 3182DPPC   C3A59875  18.755  29.019   2.657 -0.1493  0.3933 -0.0902
 3182DPPC   C4A59876  19.106  29.190   2.481 -0.1302 -0.2559 -0.0437
 3182DPPC   C1B59877  18.103  28.137   3.019 -0.0215 -0.1517  0.1828
 3182DPPC   C2B59878  18.036  28.216   3.419 -0.1380  0.3060  0.1426
 3182DPPC   C3B59879  18.100  28.617   3.575 -0.1001  0.0650 -0.0733
 3182DPPC   C4B59880  18.412  28.897   3.784 -0.0035 -0.1023  0.3391
 3183DPPC   NC359881  18.312  27.676  22.973  0.1299  0.1801  0.0928
 3183DPPC   PO459882  18.142  28.048  23.194 -0.0959  0.4228  0.1677
 3183DPPC   GL159883  18.547  28.116  23.219 -0.0333  0.0004  0.4623
 3183DPPC   GL259884  18.622  28.029  22.875  0.1153  0.1836 -0.3320
 3183DPPC   C1A59885  18.833  28.366  23.277 -0.1127 -0.1054 -0.2575
 3183DPPC   C2A59886  18.936  28.812  23.092  0.2790  0.0396  0.1786
 3183DPPC   C3A59887  19.244  29.053  23.149  0.1595  0.1867  0.0628
 3183DPPC   C4A59888  19.253  29.495  23.062  0.0619 -0.0182  0.1587
 3183DPPC   C1B59889  18.841  28.425  22.774  0.0141  0.0800  0.3650
 3183DPPC   C2B59890  18.904  28.700  22.368 -0.2229 -0.1866  0.5304
 3183DPPC   C3B59891  18.947  29.055  22.107  0.3975 -0.0586 -0.0789
 3183DPPC   C4B59892  18.969  29.497  21.976  0.2546 -0.1320  0.0473
 3184DPPC   NC359893  24.380  22.978   1.246  0.0827 -0.4114 -0.0203
 3184DPPC   PO459894  24.560  23.239   1.512 -0.2756  0.0611 -0.0060
 3184DPPC   GL159895  24.844  23.330   1.294 -0.2972  0.1632  0.0738
 3184DPPC   GL259896  24.662  23.300   1.027  0.1433  0.2906  0.1508
 3184DPPC   C1A59897  25.232  23.287   1.136 -0.0244 -0.3601  0.1690
 3184DPPC   C2A59898  25.409  23.139   0.748 -0.1493  0.0840 -0.1432
 3184DPPC   C3A59899  25.622  23.402   0.557 -0.2628 -0.3456 -0.2696
 3184DPPC   C4A59900  25.678  23.818   0.375  0.0566 -0.1827 -0.2431
 3184DPPC   C1B59901  24.948  23.659   0.918  0.2558  0.0868  0.1868
 3184DPPC   C2B59902  25.204  23.927   0.632 -0.1226 -0.2326 -0.1006
 3184DPPC   C3B59903  25.240  24.060   0.274 -0.0958 -0.1379 -0.1388
 3184DPPC   C4B59904  25.576  24.321   0.151  0.0145  0.1829  0.1719
 3185DPPC   NC359905  17.383  25.446  22.308 -0.1350 -0.0931  0.0967
 3185DPPC   PO459906  17.089  25.542  21.916 -0.1140 -0.0191  0.0804
 3185DPPC   GL159907  16.909  25.235  21.431 -0.2033  0.0189 -0.1812
 3185DPPC   GL259908  16.697  25.407  21.200  0.1009  0.4443  0.3499
 3185DPPC   C1A59909  16.764  24.895  21.230  0.1044  0.1368 -0.0069
 3185DPPC   C2A59910  16.446  24.972  21.088  0.2695 -0.0662 -0.1317
 3185DPPC   C3A59911  16.138  24.860  20.858  0.0298  0.0979 -0.0399
 3185DPPC   C4A59912  15.642  24.797  20.872  0.0701  0.1189 -0.0057
 3185DPPC   C1B59913  16.312  25.366  21.362  0.0456  0.2116 -0.0452
 3185DPPC   C2B59914  15.945  25.108  21.367  0.1558 -0.4549 -0.0862
 3185DPPC   C3B59915  15.530  24.978  21.347 -0.0391  0.1252  0.1171
 3185DPPC   C4B59916  15.228  24.903  21.702  0.1127  0.1182  0.0915
 3186DPPC   NC359917  18.303  26.613  24.818 -0.1812 -0.1405 -0.0265
 3186DPPC   PO459918  18.407  27.077  24.928  0.1742 -0.1625 -0.1395
 3186DPPC   GL159919  18.639  27.296  24.588 -0.1268  0.2704  0.0026
 3186DPPC   GL259920  18.927  27.065  24.414  0.0277 -0.1051 -0.0777
 3186DPPC   C1A59921  18.848  27.665  24.352  0.1492 -0.0041 -0.0936
 3186DPPC   C2A59922  19.087  27.685  24.022 -0.4791  0.2196  0.1256
 3186DPPC   C3A59923  19.413  27.912  23.938 -0.0884 -0.0139 -0.2038
 3186DPPC   C4A59924  19.800  27.969  23.777  0.0625  0.1409 -0.0232
 3186DPPC   C1B59925  19.292  27.362  24.411  0.1927  0.0759  0.2236
 3186DPPC   C2B59926  19.642  27.611  24.259 -0.2575 -0.0102  0.1267
 3186DPPC   C3B59927  20.090  27.667  24.030  0.0471 -0.1261  0.2617
 3186DPPC   C4B59928  20.564  27.683  23.956  0.0368  0.1144 -0.2873
 3187DPPC   NC359929  18.993  23.568  24.273  0.1880 -0.2476 -0.0589
 3187DPPC   PO459930  18.549  23.616  24.146 -0.3517 -0.1416  0.2718
 3187DPPC   GL159931  18.192  23.446  24.007  0.4732  0.0763 -0.0933
 3187DPPC   GL259932  18.135  23.175  23.953  0.1666 -0.1181 -0.4166
 3187DPPC   C1A59933  17.761  23.513  24.119 -0.1040  0.0940 -0.0340
 3187DPPC   C2A59934  17.454  23.312  24.049 -0.0302  0.1267  0.0192
 3187DPPC   C3A59935  17.310  22.842  23.966  0.1231  0.4543 -0.3889
 3187DPPC   C4A59936  17.152  22.509  24.257  0.0208  0.1282  0.1379
 3187DPPC   C1B59937  17.743  22.934  24.159  0.1207  0.0304  0.0233
 3187DPPC   C2B59938  17.421  22.874  24.413  0.0089  0.1923 -0.0027
 3187DPPC   C3B59939  17.019  23.030  24.314 -0.0779 -0.0869  0.0478
 3187DPPC   C4B59940  16.812  23.218  23.905 -0.0116 -0.2743 -0.1917
 3188DPPC   NC359941  23.689  21.500   1.096  0.0660  0.1808 -0.0883
 3188DPPC   PO459942  23.698  21.667   1.564  0.0735 -0.0856 -0.1366
 3188DPPC   GL159943  23.744  21.159   1.725 -0.2576 -0.1483  0.2775
 3188DPPC   GL259944  23.963  21.118   1.809  0.5783 -0.0774 -0.3745
 3188DPPC   C1A59945  23.592  20.732   1.803 -0.3298 -0.2817 -0.2431
 3188DPPC   C2A59946  23.585  20.468   2.132  0.0733  0.2728 -0.2815
 3188DPPC   C3A59947  23.728  20.242   2.517  0.3340 -0.1693 -0.4185
 3188DPPC   C4A59948  23.739  20.166   3.039  0.2681 -0.1285  0.1742
 3188DPPC   C1B59949  23.921  20.910   2.147  0.3972  0.5127 -0.2558
 3188DPPC   C2B59950  23.851  20.781   2.513  0.1454  0.1297 -0.0551
 3188DPPC   C3B59951  23.784  20.625   2.793 -0.0307 -0.3315  0.0268
 3188DPPC   C4B59952  23.411  20.727   3.044  0.0301 -0.0219 -0.2430
 3189DPPC   NC359953  16.579  27.108  22.574  0.3041 -0.0577 -0.4309
 3189DPPC   PO459954  16.566  27.086  23.015  0.2334 -0.0762 -0.1400
 3189DPPC   GL159955  16.181  27.099  22.945 -0.0527 -0.2588  0.2391
 3189DPPC   GL259956  16.166  27.356  23.094  0.0026 -0.1043  0.0051
 3189DPPC   C1A59957  15.806  26.868  22.898  0.0066 -0.3114  0.3138
 3189DPPC   C2A59958  15.502  26.631  23.006  0.3516  0.1480  0.1188
 3189DPPC   C3A59959  15.172  26.379  22.848 -0.0341 -0.1143  0.0209
 3189DPPC   C4A59960  14.846  26.101  23.015 -0.1070 -0.0988 -0.0583
 3189DPPC   C1B59961  15.970  27.453  23.447 -0.2262  0.2086  0.0040
 3189DPPC   C2B59962  15.549  27.391  23.650  0.0403  0.1157 -0.0070
 3189DPPC   C3B59963  15.160  27.374  23.859  0.2027  0.0847  0.1956
 3189DPPC   C4B59964  15.011  27.765  24.031 -0.0713 -0.0609  0.1792
 3190DPPC   NC359965  26.116  20.028  25.646 -0.4520  0.3487  0.2083
 3190DPPC   PO459966  26.585  19.876  25.734  0.3697  0.0131  0.2677
 3190DPPC   GL159967  27.078  19.736  25.725 -0.1839 -0.2463  0.1564
 3190DPPC   GL259968  27.231  19.901  26.020  0.2893  0.0046 -0.0063
 3190DPPC   C1A59969  27.451  19.555  25.840  0.3272 -0.0664  0.0930
 3190DPPC   C2A59970  27.832  19.578  26.084  0.0779 -0.0379 -0.1277
 3190DPPC   C3A59971  28.157  19.782  26.025  0.0567  0.1277 -0.0604
 3190DPPC   C4A59972  28.594  19.866  26.009 -0.1676  0.2888 -0.2105
 3190DPPC   C1B59973  27.607  20.049  25.805 -0.2092  0.3160  0.1822
 3190DPPC   C2B59974  27.747  20.285  25.436  0.0071 -0.1208  0.1846
 3190DPPC   C3B59975  27.640  20.167  25.013  0.0107  0.0358 -0.1407
 3190DPPC   C4B59976  27.727  20.048  24.609 -0.0344 -0.0862  0.0583
 3191DPPC   NC359977  24.665  26.274   5.285 -0.2363 -0.1249  0.1165
 3191DPPC   PO459978  24.317  26.291   4.996 -0.0657 -0.1309 -0.0528
 3191DPPC   GL159979  24.250  26.048   5.451  0.1154 -0.2017  0.2334
 3191DPPC   GL259980  23.964  25.998   5.603  0.0721 -0.0009 -0.0067
 3191DPPC   C1A59981  24.446  25.901   5.849 -0.0452  0.0555 -0.3481
 3191DPPC   C2A59982  24.437  25.570   6.197  0.1521  0.0507 -0.1847
 3191DPPC   C3A59983  24.540  25.102   6.190 -0.2495  0.1560 -0.0733
 3191DPPC   C4A59984  24.266  24.849   6.270  0.0277 -0.1317  0.1414
 3191DPPC   C1B59985  23.943  25.712   5.846 -0.0267 -0.0582 -0.0157
 3191DPPC   C2B59986  23.573  25.385   5.978 -0.2558  0.0024 -0.0266
 3191DPPC   C3B59987  23.370  25.034   6.234  0.0772 -0.0495 -0.0842
 3191DPPC   C4B59988  23.383  24.650   6.526  0.1577  0.0784 -0.0724
 3192DPPC   NC359989  18.990  22.744  21.244 -0.0576  0.4881 -0.0417
 3192DPPC   PO459990  18.786  22.567  21.571 -0.0396  0.0367 -0.0384
 3192DPPC   GL159991  18.337  22.462  21.482  0.1317 -0.0412 -0.1944
 3192DPPC   GL259992  18.131  22.564  21.744 -0.0297  0.0334 -0.2593
 3192DPPC   C1A59993  17.852  22.223  21.526  0.0058  0.1272  0.2001
 3192DPPC   C2A59994  17.563  22.036  21.725  0.3460  0.4585 -0.2462
 3192DPPC   C3A59995  17.379  21.608  21.948  0.0353 -0.0394 -0.0206
 3192DPPC   C4A59996  17.196  21.170  21.999 -0.0402 -0.0534  0.0981
 3192DPPC   C1B59997  17.649  22.496  21.916 -0.2377 -0.1904 -0.2811
 3192DPPC   C2B59998  17.285  22.471  22.124 -0.0817 -0.3784 -0.1100
 3192DPPC   C3B59999  16.942  22.503  22.395  0.1311 -0.0734 -0.0424
 3192DPPC   C4B60000  16.421  22.500  22.410 -0.0599  0.0116  0.4280
 3193DPPC   NC360001  25.920  20.999   1.349  0.1970  0.2299 -0.1290
 3193DPPC   PO460002  26.159  20.801   1.558 -0.2304  0.0999  0.1964
 3193DPPC   GL160003  26.177  20.445   1.784  0.0090  0.1851 -0.1787
 3193DPPC   GL260004  26.109  20.196   1.546 -0.0893  0.0924 -0.0046
 3193DPPC   C1A60005  26.001  20.018   2.032 -0.0198 -0.1102  0.0090
 3193DPPC   C2A60006  26.035  19.560   2.113  0.0502  0.2350 -0.2912
 3193DPPC   C3A60007  26.157  19.330   2.405 -0.0230 -0.2956 -0.0141
 3193DPPC   C4A60008  26.023  19.049   2.786  0.1735 -0.3078  0.0527
 3193DPPC   C1B60009  25.961  19.756   1.544 -0.0968 -0.0721 -0.4930
 3193DPPC   C2B60010  25.605  19.512   1.796  0.0534 -0.4033 -0.3030
 3193DPPC   C3B60011  25.431  19.532   2.212  0.3021 -0.2083  0.0618
 3193DPPC   C4B60012  25.338  19.771   2.561  0.0103  0.0373  0.2044
 3194DPPC   NC360013  17.140  27.460  24.775 -0.0836  0.0416  0.0775
 3194DPPC   PO460014  16.862  27.634  24.532 -0.0741  0.1201  0.1688
 3194DPPC   GL160015  16.560  27.667  24.738 -0.0001 -0.1646  0.0566
 3194DPPC   GL260016  16.557  27.323  24.802 -0.3047  0.0187  0.2159
 3194DPPC   C1A60017  16.145  27.649  24.650  0.3525 -0.1864 -0.1075
 3194DPPC   C2A60018  15.756  27.694  24.421  0.0958  0.0092 -0.0240
 3194DPPC   C3A60019  15.660  27.838  23.970  0.3173  0.1241 -0.0577
 3194DPPC   C4A60020  15.361  27.904  23.606  0.2591 -0.1153  0.0418
 3194DPPC   C1B60021  16.209  27.134  24.883  0.0170  0.3292 -0.0290
 3194DPPC   C2B60022  15.909  27.027  25.118  0.0663  0.1057  0.1149
 3194DPPC   C3B60023  15.516  26.849  24.992  0.1445  0.0040  0.0163
 3194DPPC   C4B60024  15.196  26.752  25.318  0.0006 -0.0561  0.0737
 3195DPPC   NC360025  17.182  26.006  19.894  0.2713 -0.0025  0.3319
 3195DPPC   PO460026  17.129  25.818  20.251  0.2375 -0.2233 -0.1419
 3195DPPC   GL160027  16.830  25.700  19.960  0.4052 -0.0268 -0.3033
 3195DPPC   GL260028  17.042  25.477  19.789 -0.0756 -0.2011  0.0278
 3195DPPC   C1A60029  16.404  25.590  19.858  0.1122  0.0081  0.1525
 3195DPPC   C2A60030  16.152  25.208  19.787 -0.0473  0.2750  0.1408
 3195DPPC   C3A60031  15.821  24.838  19.852 -0.0169  0.0712  0.1997
 3195DPPC   C4A60032  15.437  24.644  19.757  0.2103  0.0898  0.0412
 3195DPPC   C1B60033  16.732  25.554  19.396  0.0984 -0.0225  0.3579
 3195DPPC   C2B60034  16.251  25.425  19.382  0.0210  0.0381 -0.1176
 3195DPPC   C3B60035  15.950  25.223  19.186  0.3787 -0.1104 -0.2944
 3195DPPC   C4B60036  16.008  25.160  18.833 -0.1698 -0.3844 -0.0797
 3196DPPC   NC360037  22.417  21.783  24.288  0.1501 -0.0469  0.0432
 3196DPPC   PO460038  22.071  22.015  24.314 -0.3118  0.1774  0.1906
 3196DPPC   GL160039  22.269  22.459  24.283  0.2864  0.2229  0.4393
 3196DPPC   GL260040  22.545  22.656  24.395  0.1044  0.1496 -0.2878
 3196DPPC   C1A60041  22.337  22.937  24.134 -0.0042  0.1574 -0.1824
 3196DPPC   C2A60042  22.503  23.308  23.793  0.0015  0.1433 -0.2158
 3196DPPC   C3A60043  22.668  23.507  23.378  0.1275 -0.1322  0.2252
 3196DPPC   C4A60044  22.756  23.746  23.024 -0.0062 -0.1336 -0.1044
 3196DPPC   C1B60045  22.789  22.978  24.447  0.3817  0.1625  0.0546
 3196DPPC   C2B60046  22.951  23.158  24.091 -0.0406 -0.1198  0.0531
 3196DPPC   C3B60047  22.973  23.488  23.798 -0.1705 -0.0158 -0.2998
 3196DPPC   C4B60048  23.070  23.853  23.511  0.0688  0.2941 -0.1584
 3197DPPC   NC360049  21.637  25.725   3.772  0.2687 -0.1176 -0.3993
 3197DPPC   PO460050  21.547  26.201   3.765 -0.1609  0.1638 -0.0102
 3197DPPC   GL160051  21.359  25.950   4.138 -0.0536  0.1137 -0.3169
 3197DPPC   GL260052  21.050  25.934   4.200  0.0566 -0.1671 -0.1311
 3197DPPC   C1A60053  21.261  25.610   4.486  0.2260 -0.0472  0.0199
 3197DPPC   C2A60054  20.992  25.310   4.500  0.1520 -0.2786 -0.0016
 3197DPPC   C3A60055  20.926  24.922   4.294  0.0023  0.2029 -0.4178
 3197DPPC   C4A60056  20.628  24.581   4.345  0.2442  0.3816 -0.0060
 3197DPPC   C1B60057  20.889  25.954   4.522  0.2464  0.1900  0.0887
 3197DPPC   C2B60058  20.955  25.768   4.922  0.1701  0.1418  0.1242
 3197DPPC   C3B60059  21.005  25.979   5.266  0.0602  0.1099 -0.1459
 3197DPPC   C4B60060  21.347  25.893   5.499 -0.0325  0.1640  0.2075
 3198DPPC   NC360061  17.926  28.101  26.776 -0.1897  0.1045  0.0724
 3198DPPC   PO460062  17.484  27.977   0.017 -0.0353  0.3693  0.1024
 3198DPPC   GL160063  17.069  27.965   0.041  0.0649 -0.1968  0.0037
 3198DPPC   GL260064  16.943  28.345   0.074  0.3124 -0.0097 -0.0759
 3198DPPC   C1A60065  16.588  27.952   0.150 -0.1261 -0.0931 -0.0316
 3198DPPC   C2A60066  16.200  27.912   0.290 -0.1868 -0.2297 -0.2574
 3198DPPC   C3A60067  15.985  27.762   0.643 -0.0619  0.2210 -0.0291
 3198DPPC   C4A60068  15.938  27.520   0.947  0.1352  0.2352 -0.1427
 3198DPPC   C1B60069  16.810  28.335   0.422 -0.1512 -0.1695  0.0774
 3198DPPC   C2B60070  16.372  28.253   0.620  0.0307  0.0683  0.1339
 3198DPPC   C3B60071  16.200  28.169   1.039 -0.0269  0.0061 -0.2557
 3198DPPC   C4B60072  16.000  27.932   1.375  0.0542 -0.0174 -0.0693
 3199DPPC   NC360073  20.618  22.122  20.133 -0.0108  0.1512  0.1220
 3199DPPC   PO460074  20.967  21.777  20.212  0.0384  0.0904 -0.1692
 3199DPPC   GL160075  21.130  22.096  20.201 -0.0714 -0.3538  0.2273
 3199DPPC   GL260076  21.065  22.284  20.372 -0.2034  0.1582  0.2859
 3199DPPC   C1A60077  21.428  22.215  19.960 -0.0347 -0.1213  0.1496
 3199DPPC   C2A60078  21.489  22.346  19.468 -0.1682 -0.2200  0.1585
 3199DPPC   C3A60079  21.661  22.532  19.054 -0.1171 -0.3419  0.0824
 3199DPPC   C4A60080  22.001  22.699  18.817  0.2492 -0.3818 -0.1255
 3199DPPC   C1B60081  21.523  22.389  20.403 -0.0098  0.0540 -0.0029
 3199DPPC   C2B60082  21.995  22.274  20.475  0.0955  0.0394 -0.3722
 3199DPPC   C3B60083  22.225  21.945  20.640  0.1593  0.0093  0.0134
 3199DPPC   C4B60084  22.576  21.668  20.524 -0.2000  0.4657  0.0615
 3200DPPC   NC360085  23.454  20.133  21.149  0.0707 -0.0582 -0.2093
 3200DPPC   PO460086  23.352  20.427  21.024  0.1524 -0.2163 -0.0024
 3200DPPC   GL160087  23.821  20.459  20.856  0.3513  0.2762 -0.0223
 3200DPPC   GL260088  23.990  20.277  21.081  0.0766  0.1316 -0.2874
 3200DPPC   C1A60089  24.055  20.469  20.535  0.0224 -0.0310  0.2314
 3200DPPC   C2A60090  24.340  20.336  20.271  0.1380 -0.1893 -0.0410
 3200DPPC   C3A60091  24.395  20.300  19.863 -0.2283  0.0923 -0.2713
 3200DPPC   C4A60092  24.611  20.423  19.551 -0.0385 -0.3774 -0.0267
 3200DPPC   C1B60093  24.283  20.176  20.838  0.3051 -0.4754 -0.0456
 3200DPPC   C2B60094  24.632  20.320  20.658 -0.2927  0.1458  0.1033
 3200DPPC   C3B60095  24.854  20.565  20.259 -0.1932 -0.1857 -0.0956
 3200DPPC   C4B60096  24.964  20.389  19.905  0.2104  0.0885  0.4107
 3201DPPC   NC360097  19.522  23.636  20.929  0.3254 -0.2191 -0.3636
 3201DPPC   PO460098  19.238  24.063  20.784  0.2643 -0.0075 -0.4176
 3201DPPC   GL160099  19.639  24.360  20.805 -0.1553 -0.1619  0.1573
 3201DPPC   GL260100  19.644  24.460  20.523  0.0898 -0.3707  0.3991
 3201DPPC   C1A60101  20.079  24.429  20.830 -0.0653 -0.1847  0.2295
 3201DPPC   C2A60102  20.559  24.603  20.710  0.1987 -0.1698  0.1967
 3201DPPC   C3A60103  20.770  24.963  20.617  0.3916 -0.1617 -0.0197
 3201DPPC   C4A60104  21.056  25.213  20.446  0.0330  0.1650 -0.0949
 3201DPPC   C1B60105  19.767  24.479  20.138 -0.0759 -0.2076 -0.1383
 3201DPPC   C2B60106  20.119  24.409  19.877 -0.0039 -0.2248  0.2183
 3201DPPC   C3B60107  20.489  24.390  19.642 -0.0840  0.2661 -0.2097
 3201DPPC   C4B60108  20.953  24.436  19.659 -0.0397 -0.1522  0.1441
 3202DPPC   NC360109  25.521  26.422   5.037 -0.1675  0.2453  0.0214
 3202DPPC   PO460110  25.168  26.174   5.184  0.1543  0.2366 -0.0232
 3202DPPC   GL160111  25.024  26.047   5.578 -0.4709 -0.0044 -0.1149
 3202DPPC   GL260112  24.846  25.837   5.573  0.2541  0.1012 -0.1340
 3202DPPC   C1A60113  24.985  25.960   6.053  0.0808  0.0778 -0.0397
 3202DPPC   C2A60114  24.806  25.866   6.494 -0.0963  0.3988  0.1231
 3202DPPC   C3A60115  24.621  25.572   6.840 -0.0272  0.1808 -0.2891
 3202DPPC   C4A60116  24.574  25.130   7.003  0.0230 -0.0895  0.3827
 3202DPPC   C1B60117  24.791  25.510   5.899 -0.3188  0.2647 -0.3276
 3202DPPC   C2B60118  24.979  25.271   6.273  0.1416  0.3309  0.3436
 3202DPPC   C3B60119  25.087  25.423   6.729  0.3027 -0.1905  0.0159
 3202DPPC   C4B60120  25.085  25.761   7.052  0.2972  0.2417  0.0711
 3203DPPC   NC360121  22.927  19.255  20.534 -0.0675  0.0643 -0.2317
 3203DPPC   PO460122  23.246  19.464  20.327 -0.0899  0.0997  0.2627
 3203DPPC   GL160123  23.530  19.270  20.018 -0.3259 -0.1981  0.1179
 3203DPPC   GL260124  23.796  19.283  19.977 -0.3600 -0.0733 -0.0131
 3203DPPC   C1A60125  23.395  18.887  19.815  0.0647  0.0639 -0.4081
 3203DPPC   C2A60126  22.986  18.696  19.610  0.3546 -0.2544  0.3970
 3203DPPC   C3A60127  22.877  18.849  19.195  0.0117  0.0554 -0.4252
 3203DPPC   C4A60128  23.009  18.644  18.814 -0.3567  0.0722 -0.1657
 3203DPPC   C1B60129  23.706  19.140  19.557 -0.1156  0.0801  0.0313
 3203DPPC   C2B60130  23.885  18.907  19.187 -0.1187  0.0610  0.1042
 3203DPPC   C3B60131  24.114  18.435  19.146 -0.2037 -0.0717  0.0086
 3203DPPC   C4B60132  24.013  18.067  18.989  0.2646  0.2108 -0.3830
 3204DPPC   NC360133  26.364  19.201  26.049  0.0072 -0.4128 -0.1377
 3204DPPC   PO460134  26.665  19.365  25.721  0.3923 -0.0491 -0.1321
 3204DPPC   GL160135  26.852  19.169  25.971  0.1413 -0.3128  0.1138
 3204DPPC   GL260136  26.798  18.886  26.132 -0.1296  0.2446  0.0195
 3204DPPC   C1A60137  27.253  19.041  25.859  0.2481 -0.0663  0.0622
 3204DPPC   C2A60138  27.608  19.086  25.946  0.1134 -0.1524  0.1300
 3204DPPC   C3A60139  28.101  19.233  25.715  0.1429 -0.2393 -0.0524
 3204DPPC   C4A60140  28.468  19.533  25.680 -0.3936  0.0452 -0.0667
 3204DPPC   C1B60141  26.669  18.459  26.119 -0.1747 -0.1309  0.2424
 3204DPPC   C2B60142  26.512  18.103  26.259  0.1604  0.2272 -0.2297
 3204DPPC   C3B60143  26.643  17.704  26.128 -0.0603 -0.2802 -0.1625
 3204DPPC   C4B60144  26.938  17.666  25.828  0.1176 -0.2964 -0.1315
 3205DPPC   NC360145  20.770  26.375   0.797  0.3563  0.2082  0.0541
 3205DPPC   PO460146  20.988  26.480   1.093  0.0814  0.0899  0.1793
 3205DPPC   GL160147  21.152  26.767   0.915 -0.2469 -0.0275 -0.0753
 3205DPPC   GL260148  21.115  26.973   1.206  0.0085  0.0891  0.2530
 3205DPPC   C1A60149  21.443  26.868   0.618  0.0317  0.1110 -0.0250
 3205DPPC   C2A60150  21.854  27.177   0.525 -0.0331 -0.0110 -0.2020
 3205DPPC   C3A60151  22.034  27.592   0.213  0.0751 -0.1572 -0.2044
 3205DPPC   C4A60152  22.298  27.568  26.770  0.0876 -0.0809  0.1573
 3205DPPC   C1B60153  21.033  27.254   0.779  0.0666 -0.4309  0.1828
 3205DPPC   C2B60154  21.268  27.279   0.335  0.2061  0.1612 -0.1644
 3205DPPC   C3B60155  21.580  27.167   0.008  0.0257 -0.1974  0.0557
 3205DPPC   C4B60156  21.975  27.133  26.710 -0.0378  0.1583  0.1696
 3206DPPC   NC360157  20.970  22.128  22.689 -0.2614 -0.1424 -0.0532
 3206DPPC   PO460158  21.183  22.525  22.594  0.2511  0.3305 -0.2101
 3206DPPC   GL160159  21.355  22.574  22.312  0.0304 -0.0555 -0.0295
 3206DPPC   GL260160  21.565  22.851  22.524 -0.0709  0.2394  0.3007
 3206DPPC   C1A60161  21.731  22.657  22.110 -0.2463  0.2071  0.0929
 3206DPPC   C2A60162  22.085  22.686  21.894 -0.1628  0.0025  0.0916
 3206DPPC   C3A60163  22.443  22.896  21.726  0.0011  0.2554 -0.0028
 3206DPPC   C4A60164  22.443  23.294  21.444 -0.1995 -0.0919 -0.1503
 3206DPPC   C1B60165  21.858  23.085  22.359  0.0991 -0.0978  0.1599
 3206DPPC   C2B60166  22.241  23.397  22.421 -0.2833  0.3494 -0.2000
 3206DPPC   C3B60167  22.627  23.713  22.237 -0.0146  0.0437  0.1834
 3206DPPC   C4B60168  23.043  23.649  21.889  0.0479 -0.0918 -0.1667
 3207DPPC   NC360169  19.326  24.798  23.028  0.2379  0.3399  0.2548
 3207DPPC   PO460170  19.486  25.094  22.673  0.0284  0.0206 -0.2017
 3207DPPC   GL160171  19.697  25.260  22.371 -0.1094 -0.1425 -0.0853
 3207DPPC   GL260172  19.896  25.059  22.200  0.1377  0.1933  0.0228
 3207DPPC   C1A60173  20.128  25.364  22.464 -0.1865  0.1867 -0.2370
 3207DPPC   C2A60174  20.575  25.371  22.377 -0.1389 -0.2385  0.5222
 3207DPPC   C3A60175  20.814  25.735  22.338  0.0109  0.0167  0.1635
 3207DPPC   C4A60176  20.628  26.179  22.243  0.0062  0.2485 -0.0226
 3207DPPC   C1B60177  20.262  25.226  22.000  0.3938  0.0311  0.1064
 3207DPPC   C2B60178  20.575  25.304  21.694  0.1880 -0.0650  0.0896
 3207DPPC   C3B60179  20.992  25.313  21.613  0.1871  0.3400  0.0847
 3207DPPC   C4B60180  21.379  25.447  21.541  0.0457 -0.2882  0.0215
 3208DPPC   NC360181  17.499  28.860  24.743  0.3037  0.1523  0.0163
 3208DPPC   PO460182  17.441  29.379  24.607  0.0261  0.0801  0.1946
 3208DPPC   GL160183  17.796  29.733  24.530 -0.0662  0.0715 -0.1321
 3208DPPC   GL260184  17.876  29.969  24.710  0.1717  0.0561  0.0696
 3208DPPC   C1A60185  18.035  29.916  24.213 -0.1427  0.5267 -0.2881
 3208DPPC   C2A60186  18.252  30.273  24.408  0.0244  0.2855  0.0793
 3208DPPC   C3A60187  18.629  30.344  24.662 -0.3562  0.0365 -0.0109
 3208DPPC   C4A60188  18.965  30.543  24.609  0.1173  0.0810 -0.1044
 3208DPPC   C1B60189  17.712  30.249  24.539  0.2438  0.0803  0.1072
 3208DPPC   C2B60190  17.843  30.466  24.202  0.1247  0.0399  0.0003
 3208DPPC   C3B60191  18.135  30.690  24.051 -0.2765  0.3214 -0.1149
 3208DPPC   C4B60192  18.419  30.762  23.755 -0.0574  0.1737 -0.0583
 3209DPPC   NC360193  21.014  23.932  25.197 -0.3014 -0.0925 -0.0644
 3209DPPC   PO460194  20.803  24.304  25.063  0.0678  0.2518  0.4506
 3209DPPC   GL160195  21.171  24.598  25.101  0.2319 -0.1080  0.0061
 3209DPPC   GL260196  21.276  24.722  25.356  0.2472 -0.0774  0.0538
 3209DPPC   C1A60197  21.335  24.864  24.826 -0.2129  0.0467  0.0731
 3209DPPC   C2A60198  21.482  25.142  24.568  0.0933 -0.2475  0.2565
 3209DPPC   C3A60199  21.662  25.518  24.262 -0.2679  0.3641 -0.0571
 3209DPPC   C4A60200  22.093  25.776  24.050 -0.0405 -0.0979 -0.1592
 3209DPPC   C1B60201  21.671  24.958  25.237  0.0509 -0.0684  0.3250
 3209DPPC   C2B60202  21.974  25.125  24.886  0.3191  0.1340  0.0892
 3209DPPC   C3B60203  22.056  25.544  24.719 -0.0063 -0.1216 -0.1672
 3209DPPC   C4B60204  22.059  25.907  24.581 -0.3329  0.2001 -0.1907
 3210DPPC   NC360205  20.844  22.216  25.375  0.0696 -0.1486  0.0617
 3210DPPC   PO460206  20.729  22.121  24.833 -0.2797  0.1636  0.1609
 3210DPPC   GL160207  20.325  21.958  25.070  0.0528  0.0436 -0.0900
 3210DPPC   GL260208  20.354  22.158  25.362 -0.2125 -0.2570  0.2451
 3210DPPC   C1A60209  19.896  21.747  25.393  0.0053  0.0858  0.3356
 3210DPPC   C2A60210  19.409  21.583  25.556 -0.0404 -0.1287 -0.2137
 3210DPPC   C3A60211  19.046  21.531  25.720 -0.3166 -0.1420 -0.2279
 3210DPPC   C4A60212  18.696  21.647  25.690 -0.0437  0.0630 -0.0996
 3210DPPC   C1B60213  20.322  21.694  25.633 -0.0282  0.2681  0.3282
 3210DPPC   C2B60214  20.090  21.366  25.739  0.1786 -0.1147  0.2250
 3210DPPC   C3B60215  20.012  21.071  26.078 -0.2311 -0.0876 -0.0348
 3210DPPC   C4B60216  19.700  20.739  26.224 -0.4150 -0.0735 -0.1681
 3211DPPC   NC360217  21.594  22.304  26.009  0.1496  0.1548 -0.0478
 3211DPPC   PO460218  21.586  22.267  26.411 -0.0529 -0.2238  0.0649
 3211DPPC   GL160219  21.371  22.063  26.600  0.1711 -0.1208  0.0952
 3211DPPC   GL260220  21.307  21.658  26.549 -0.0430 -0.0825  0.0201
 3211DPPC   C1A60221  21.058  21.868  26.922  0.1477 -0.0815  0.0034
 3211DPPC   C2A60222  20.801  21.910   0.346  0.2826  0.2367  0.0766
 3211DPPC   C3A60223  20.760  21.775   0.780 -0.1150  0.1421  0.2091
 3211DPPC   C4A60224  20.404  21.532   0.853 -0.0570 -0.0042 -0.1236
 3211DPPC   C1B60225  21.359  21.366  26.798 -0.1175  0.2176  0.2318
 3211DPPC   C2B60226  21.158  21.458   0.335  0.1053 -0.1425 -0.0168
 3211DPPC   C3B60227  21.068  21.190   0.644 -0.0205 -0.2679  0.1063
 3211DPPC   C4B60228  20.793  21.257   1.062 -0.1932 -0.0022 -0.0388
 3212DPPC   NC360229  20.189  25.915   1.093  0.1804  0.0142  0.1335
 3212DPPC   PO460230  19.819  25.677   1.096  0.1509  0.3369  0.1657
 3212DPPC   GL160231  19.635  25.523   1.430  0.1576 -0.0145  0.0687
 3212DPPC   GL260232  19.838  25.428   1.610  0.0332  0.2102  0.1156
 3212DPPC   C1A60233  19.301  25.497   1.772  0.0765 -0.0808 -0.0625
 3212DPPC   C2A60234  19.029  25.278   1.947 -0.1057  0.0493 -0.0735
 3212DPPC   C3A60235  18.657  25.080   2.060 -0.0042  0.0593 -0.1552
 3212DPPC   C4A60236  18.358  24.843   2.238  0.0140  0.0259  0.1884
 3212DPPC   C1B60237  19.665  25.177   1.877  0.3402 -0.1156 -0.0418
 3212DPPC   C2B60238  19.300  24.871   2.097  0.3041  0.0371  0.2746
 3212DPPC   C3B60239  18.922  24.687   2.283  0.2201 -0.2233 -0.1675
 3212DPPC   C4B60240  18.572  24.399   2.560  0.2033 -0.2234 -0.1053
 3213DPPC   NC360241  24.057  26.685   3.713 -0.0376  0.1837  0.0505
 3213DPPC   PO460242  24.174  27.018   3.782 -0.2525  0.0723 -0.3691
 3213DPPC   GL160243  24.177  27.471   3.579  0.3244 -0.0018 -0.2118
 3213DPPC   GL260244  24.433  27.456   3.382 -0.1029 -0.2584  0.3518
 3213DPPC   C1A60245  24.291  27.905   3.341 -0.1125  0.0070 -0.3865
 3213DPPC   C2A60246  24.161  28.235   3.042 -0.3800 -0.1605  0.0917
 3213DPPC   C3A60247  24.495  28.340   2.712 -0.2704  0.1960 -0.2389
 3213DPPC   C4A60248  24.914  28.268   2.434 -0.1079  0.1994 -0.0440
 3213DPPC   C1B60249  24.378  27.591   2.944  0.0915  0.0040  0.0455
 3213DPPC   C2B60250  24.268  27.888   2.668 -0.2961 -0.0066  0.0929
 3213DPPC   C3B60251  24.047  28.230   2.415  0.1565  0.0676  0.1579
 3213DPPC   C4B60252  24.049  28.213   1.970  0.1455 -0.1309 -0.6123
 3214DPPC   NC360253  24.506  27.173   5.641  0.1707 -0.2632 -0.0333
 3214DPPC   PO460254  24.320  27.562   5.502 -0.2289  0.1097 -0.3793
 3214DPPC   GL160255  24.297  27.945   5.746  0.1622  0.3636  0.3508
 3214DPPC   GL260256  24.504  27.899   6.025 -0.1432  0.0893 -0.1666
 3214DPPC   C1A60257  24.001  28.215   6.109 -0.0482  0.0558  0.1709
 3214DPPC   C2A60258  23.687  28.490   6.167  0.1689 -0.0490  0.0041
 3214DPPC   C3A60259  23.497  28.952   6.219 -0.0619  0.0553 -0.1409
 3214DPPC   C4A60260  23.125  28.923   6.542 -0.0136 -0.2374 -0.1618
 3214DPPC   C1B60261  24.446  27.611   6.400 -0.2757 -0.0329  0.2834
 3214DPPC   C2B60262  24.585  27.681   6.840  0.1490  0.0985 -0.0097
 3214DPPC   C3B60263  24.725  27.886   7.238  0.1990  0.3225 -0.2254
 3214DPPC   C4B60264  24.990  28.060   7.604  0.2211 -0.0625  0.2228
 3215DPPC   NC360265  19.515  25.401  24.156  0.0987 -0.4241  0.0088
 3215DPPC   PO460266  19.500  25.791  24.366  0.0300 -0.1368 -0.4104
 3215DPPC   GL160267  19.860  25.970  24.232  0.2647  0.1749 -0.0287
 3215DPPC   GL260268  19.943  25.719  23.962  0.0419 -0.2691 -0.0008
 3215DPPC   C1A60269  20.271  26.199  24.252  0.2133 -0.0063  0.2303
 3215DPPC   C2A60270  20.658  26.472  24.152  0.0360 -0.0432  0.3352
 3215DPPC   C3A60271  20.913  26.815  23.960  0.0393  0.2857 -0.2624
 3215DPPC   C4A60272  21.299  26.814  23.733 -0.2925 -0.3473  0.0877
 3215DPPC   C1B60273  20.387  25.727  24.175  0.0453 -0.0649 -0.0916
 3215DPPC   C2B60274  20.700  25.989  24.021 -0.0979 -0.0112  0.4003
 3215DPPC   C3B60275  20.950  26.145  23.830 -0.0673  0.0948 -0.1519
 3215DPPC   C4B60276  21.057  26.408  23.537 -0.1819 -0.5245 -0.1254
 3216DPPC   NC360277  21.134  27.627   4.036  0.3668  0.0228  0.1367
 3216DPPC   PO460278  21.111  27.996   4.241  0.2949  0.0169 -0.2478
 3216DPPC   GL160279  20.827  27.915   4.533 -0.2026  0.0213 -0.1364
 3216DPPC   GL260280  21.049  28.009   4.767  0.0257  0.1779  0.1220
 3216DPPC   C1A60281  20.526  27.701   4.785  0.2139  0.1772 -0.0020
 3216DPPC   C2A60282  20.323  27.764   5.088  0.2072 -0.1711 -0.0591
 3216DPPC   C3A60283  20.213  27.746   5.559  0.1720 -0.0598 -0.1372
 3216DPPC   C4A60284  19.993  27.386   5.883  0.1131  0.1535 -0.1585
 3216DPPC   C1B60285  20.836  28.014   5.060 -0.0779  0.0378  0.2328
 3216DPPC   C2B60286  20.534  28.132   5.336  0.0677  0.0410 -0.1970
 3216DPPC   C3B60287  20.138  28.214   5.311 -0.0052 -0.0513  0.0885
 3216DPPC   C4B60288  19.837  28.545   5.087  0.0287  0.0046  0.2648
 3217DPPC   NC360289  24.547  23.600   1.821  0.0420 -0.2482  0.3838
 3217DPPC   PO460290  24.335  23.863   1.979 -0.2073 -0.0248  0.1518
 3217DPPC   GL160291  24.599  24.071   1.556 -0.0055 -0.1399  0.0394
 3217DPPC   GL260292  24.606  23.787   1.238 -0.2952 -0.1298  0.0629
 3217DPPC   C1A60293  24.498  24.308   1.159 -0.1319 -0.1145  0.0573
 3217DPPC   C2A60294  24.637  24.622   0.930  0.1343 -0.3864 -0.3766
 3217DPPC   C3A60295  24.895  24.928   0.742 -0.0451  0.3893 -0.2045
 3217DPPC   C4A60296  25.222  24.902   0.517  0.4692 -0.0581 -0.0679
 3217DPPC   C1B60297  24.948  24.095   1.164  0.1696  0.3913  0.0224
 3217DPPC   C2B60298  25.402  24.223   1.162  0.0700  0.1897 -0.2418
 3217DPPC   C3B60299  25.757  24.529   1.017 -0.2647  0.0329  0.0610
 3217DPPC   C4B60300  26.245  24.703   1.036 -0.3597 -0.0891  0.1567
 3218DPPC   NC360301  23.135  23.230   0.183  0.3773  0.2429  0.2455
 3218DPPC   PO460302  23.517  23.237   0.543  0.1030 -0.3297  0.2496
 3218DPPC   GL160303  23.822  23.374   0.428  0.1990 -0.2928 -0.1111
 3218DPPC   GL260304  24.040  23.231   0.191 -0.2669  0.3510 -0.1185
 3218DPPC   C1A60305  24.142  23.701   0.387  0.0945 -0.4137  0.0459
 3218DPPC   C2A60306  24.363  24.054   0.269  0.1761 -0.2322 -0.1142
 3218DPPC   C3A60307  24.586  24.320   0.106 -0.3251 -0.3807  0.1640
 3218DPPC   C4A60308  24.630  24.442  26.688  0.2378 -0.1217 -0.0360
 3218DPPC   C1B60309  24.096  23.385  26.711 -0.1897  0.1149 -0.2555
 3218DPPC   C2B60310  24.108  23.600  26.253  0.1940 -0.2838 -0.0207
 3218DPPC   C3B60311  24.135  23.755  25.909  0.0644 -0.1168 -0.0438
 3218DPPC   C4B60312  24.150  24.199  25.674 -0.0344  0.1017  0.2927
 3219DPPC   NC360313  18.309  26.780  23.334 -0.0878 -0.1025 -0.1442
 3219DPPC   PO460314  18.629  26.890  23.563 -0.0436  0.0481 -0.0801
 3219DPPC   GL160315  19.032  26.982  23.646  0.2354  0.2100 -0.0020
 3219DPPC   GL260316  19.000  27.142  23.886  0.1953 -0.0269 -0.2840
 3219DPPC   C1A60317  19.375  27.004  23.380  0.0392 -0.1956 -0.0762
 3219DPPC   C2A60318  19.799  27.183  23.293 -0.1736  0.0930 -0.2487
 3219DPPC   C3A60319  20.139  27.302  23.127 -0.1491  0.5665 -0.1695
 3219DPPC   C4A60320  20.590  27.344  23.172  0.5152 -0.2160  0.0767
 3219DPPC   C1B60321  19.394  27.236  23.897  0.0064 -0.1000 -0.1762
 3219DPPC   C2B60322  19.736  27.495  23.664 -0.0488 -0.0818  0.0766
 3219DPPC   C3B60323  19.981  27.706  23.396 -0.0921  0.2065 -0.1610
 3219DPPC   C4B60324  20.219  27.774  23.057  0.3160 -0.0939 -0.0296
 3220DPPC   NC360325  20.917  23.598   0.698 -0.0474 -0.2903  0.0112
 3220DPPC   PO460326  21.113  23.633   1.080 -0.1749 -0.1657 -0.2809
 3220DPPC   GL160327  20.856  23.382   1.378  0.0866  0.2418 -0.0523
 3220DPPC   GL260328  20.926  23.008   1.353 -0.0051  0.0635  0.0479
 3220DPPC   C1A60329  20.669  23.122   1.739 -0.1166  0.1589  0.1498
 3220DPPC   C2A60330  20.599  22.993   2.148 -0.2013  0.1100 -0.0926
 3220DPPC   C3A60331  20.529  22.861   2.522  0.0258  0.2284 -0.1777
 3220DPPC   C4A60332  20.651  22.499   2.791  0.1018  0.2482  0.1830
 3220DPPC   C1B60333  20.685  22.644   1.387  0.0261  0.0965 -0.0334
 3220DPPC   C2B60334  20.583  22.253   1.315 -0.2098 -0.1602 -0.3149
 3220DPPC   C3B60335  20.657  21.846   1.323 -0.2582 -0.1698  0.0128
 3220DPPC   C4B60336  20.730  21.516   1.478  0.1549  0.2214 -0.0773
 3221DPPC   NC360337  19.299  23.927  22.037 -0.2387  0.0896  0.0222
 3221DPPC   PO460338  19.632  23.986  21.730 -0.1264 -0.1707  0.1547
 3221DPPC   GL160339  19.998  23.950  21.638 -0.2119  0.2794  0.1402
 3221DPPC   GL260340  20.214  23.779  21.932 -0.1483  0.1028  0.1112
 3221DPPC   C1A60341  20.406  24.119  21.584 -0.3118  0.4036 -0.0333
 3221DPPC   C2A60342  20.613  24.407  21.336  0.0384 -0.0762 -0.2763
 3221DPPC   C3A60343  20.864  24.532  21.069  0.2694  0.2096 -0.0743
 3221DPPC   C4A60344  21.131  24.695  20.899 -0.2392 -0.0756 -0.2345
 3221DPPC   C1B60345  20.605  24.029  22.164  0.0214 -0.0638  0.1894
 3221DPPC   C2B60346  20.999  24.126  22.208 -0.0517  0.0295  0.0167
 3221DPPC   C3B60347  21.392  24.407  22.302 -0.0027  0.0457 -0.0989
 3221DPPC   C4B60348  21.844  24.666  22.305 -0.0584 -0.2153 -0.0234
 3222DPPC   NC360349  20.712  22.848  18.574 -0.2263  0.3297 -0.0797
 3222DPPC   PO460350  20.582  22.342  18.709 -0.2126 -0.3285 -0.0393
 3222DPPC   GL160351  20.892  22.356  18.543  0.0838 -0.0908 -0.2046
 3222DPPC   GL260352  21.022  22.557  18.261 -0.0709  0.0311 -0.2834
 3222DPPC   C1A60353  21.340  22.563  18.678 -0.1200  0.2587  0.0014
 3222DPPC   C2A60354  21.588  22.856  18.602  0.0281 -0.2547  0.0899
 3222DPPC   C3A60355  21.541  23.254  18.430  0.3913 -0.2280  0.0402
 3222DPPC   C4A60356  21.297  23.610  18.267 -0.1220 -0.2874  0.0864
 3222DPPC   C1B60357  21.464  22.779  18.133 -0.1520 -0.3427 -0.2734
 3222DPPC   C2B60358  21.715  23.045  17.792  0.2784 -0.0441  0.1291
 3222DPPC   C3B60359  21.880  23.143  17.466  0.2495  0.1160 -0.1103
 3222DPPC   C4B60360  21.940  23.434  17.280 -0.2240  0.2053 -0.1215
 3223DPPC   NC360361  26.632  26.029   4.068  0.1120  0.0939  0.0385
 3223DPPC   PO460362  26.762  25.816   4.467  0.1107 -0.1852 -0.1013
 3223DPPC   GL160363  27.231  26.028   4.393  0.0546  0.0008 -0.0162
 3223DPPC   GL260364  27.367  26.107   4.659 -0.1720 -0.0501 -0.0963
 3223DPPC   C1A60365  27.659  25.957   4.206 -0.2610  0.0821  0.2546
 3223DPPC   C2A60366  28.038  26.031   4.218  0.0219 -0.0530 -0.1682
 3223DPPC   C3A60367  28.453  26.154   4.281  0.0963 -0.2020 -0.1391
 3223DPPC   C4A60368  28.737  26.319   4.739 -0.1039 -0.2457  0.2798
 3223DPPC   C1B60369  27.667  26.382   4.509  0.0419 -0.3271 -0.0269
 3223DPPC   C2B60370  28.165  26.480   4.515 -0.2500  0.0455 -0.2196
 3223DPPC   C3B60371  28.564  26.683   4.429 -0.0951  0.2950  0.1177
 3223DPPC   C4B60372  28.953  26.787   4.653  0.1347  0.2434 -0.2803
 3224DPPC   NC360373  20.260  20.455  21.483 -0.1806  0.0600  0.1906
 3224DPPC   PO460374  19.797  20.641  21.431 -0.1963 -0.1398 -0.4823
 3224DPPC   GL160375  19.750  20.239  21.592  0.1350 -0.1580  0.0324
 3224DPPC   GL260376  19.815  20.125  21.260 -0.4368 -0.4008  0.0361
 3224DPPC   C1A60377  19.602  19.822  21.607  0.2123  0.0340  0.3329
 3224DPPC   C2A60378  19.331  19.450  21.620  0.0069 -0.0287  0.0141
 3224DPPC   C3A60379  19.031  19.133  21.495  0.1874 -0.0263  0.0292
 3224DPPC   C4A60380  18.729  19.156  21.068 -0.0367 -0.0578  0.3577
 3224DPPC   C1B60381  19.382  20.039  21.235  0.4707  0.0121 -0.2732
 3224DPPC   C2B60382  19.074  19.883  21.447 -0.0613  0.1094  0.1079
 3224DPPC   C3B60383  18.777  19.557  21.392  0.3143  0.1774  0.1653
 3224DPPC   C4B60384  18.511  19.218  21.558 -0.0273 -0.2436  0.0737
 3225DPPC   NC360385  25.837  19.108  23.705  0.3126  0.3203  0.1909
 3225DPPC   PO460386  26.093  19.433  23.689  0.1290  0.0961  0.0151
 3225DPPC   GL160387  26.386  19.606  23.462 -0.1550  0.0322  0.2413
 3225DPPC   GL260388  26.590  19.340  23.415  0.0851 -0.1263 -0.4855
 3225DPPC   C1A60389  26.759  19.701  23.157 -0.0214 -0.0037  0.3291
 3225DPPC   C2A60390  27.184  19.538  23.163 -0.0093 -0.1026 -0.0818
 3225DPPC   C3A60391  27.362  19.278  23.366 -0.1627 -0.1995 -0.1733
 3225DPPC   C4A60392  27.660  18.979  23.476  0.0165  0.1001 -0.1665
 3225DPPC   C1B60393  26.873  19.180  23.028  0.0371 -0.0570  0.1356
 3225DPPC   C2B60394  27.022  18.746  22.854 -0.0488  0.1596  0.0559
 3225DPPC   C3B60395  27.123  18.353  22.918 -0.1931  0.1592 -0.0528
 3225DPPC   C4B60396  27.360  17.984  23.027 -0.0076  0.4598 -0.1440
 3226DPPC   NC360397  16.789  27.271  24.147  0.1182 -0.1198 -0.0786
 3226DPPC   PO460398  16.989  27.122  24.505 -0.1069 -0.1746 -0.1174
 3226DPPC   GL160399  16.703  26.828  24.514  0.1215 -0.1760  0.2153
 3226DPPC   GL260400  16.465  26.862  24.249  0.1024  0.4986 -0.3471
 3226DPPC   C1A60401  16.367  26.727  24.710 -0.1411 -0.2377  0.2198
 3226DPPC   C2A60402  16.001  26.595  24.920  0.0276 -0.0156  0.1725
 3226DPPC   C3A60403  15.736  26.328  25.032  0.0009 -0.1774 -0.0963
 3226DPPC   C4A60404  15.364  25.933  25.011  0.1474 -0.3280 -0.0198
 3226DPPC   C1B60405  16.063  26.671  24.148 -0.0213  0.0125  0.0702
 3226DPPC   C2B60406  15.736  26.571  24.430  0.2332 -0.0214  0.0552
 3226DPPC   C3B60407  15.366  26.555  24.522 -0.0830  0.0193  0.1402
 3226DPPC   C4B60408  14.934  26.565  24.370 -0.2261 -0.0849  0.0070
 3227DPPC   NC360409  20.126  21.963  21.273  0.1028  0.5858  0.1123
 3227DPPC   PO460410  20.311  22.105  20.894  0.0297  0.0272  0.0845
 3227DPPC   GL160411  20.588  22.447  20.786 -0.1649  0.0212 -0.0482
 3227DPPC   GL260412  20.556  22.567  20.469  0.2184 -0.2879  0.0539
 3227DPPC   C1A60413  21.002  22.638  20.696 -0.1407 -0.3488 -0.3270
 3227DPPC   C2A60414  21.180  23.032  20.653  0.2260  0.1551 -0.0073
 3227DPPC   C3A60415  21.307  23.405  20.563  0.4005 -0.2719 -0.2120
 3227DPPC   C4A60416  21.631  23.661  20.497 -0.1762 -0.0404  0.1533
 3227DPPC   C1B60417  20.912  22.742  20.229 -0.2076  0.1855 -0.0948
 3227DPPC   C2B60418  21.349  22.792  20.138 -0.1661 -0.1953 -0.3617
 3227DPPC   C3B60419  21.698  22.808  19.847 -0.1065  0.1733 -0.0752
 3227DPPC   C4B60420  21.872  22.937  19.491 -0.2779 -0.2084 -0.2249
 3228DPPC   NC360421  17.775  27.097  26.650  0.3094 -0.0392  0.0925
 3228DPPC   PO460422  17.829  26.665  26.524 -0.1471 -0.0199  0.1275
 3228DPPC   GL160423  17.443  26.709  26.641 -0.0098  0.0018 -0.1719
 3228DPPC   GL260424  17.293  26.542  26.436  0.1630 -0.0255 -0.1169
 3228DPPC   C1A60425  17.170  26.704   0.057  0.1992 -0.2314 -0.2518
 3228DPPC   C2A60426  17.037  26.568   0.401 -0.1683 -0.0811 -0.0437
 3228DPPC   C3A60427  17.203  26.364   0.811  0.1109  0.2341 -0.1062
 3228DPPC   C4A60428  16.854  26.228   1.117  0.0976  0.0026 -0.0212
 3228DPPC   C1B60429  17.159  26.267  26.685  0.0481 -0.0076  0.1206
 3228DPPC   C2B60430  16.764  26.170   0.017  0.0545 -0.0858 -0.0333
 3228DPPC   C3B60431  16.434  25.876   0.184  0.0981 -0.2467 -0.3335
 3228DPPC   C4B60432  16.333  25.771   0.575 -0.1346 -0.3483  0.0097
 3229DPPC   NC360433  22.597  24.445   1.113  0.0455 -0.3376  0.0927
 3229DPPC   PO460434  22.981  24.474   1.322  0.3469  0.0710  0.3200
 3229DPPC   GL160435  23.430  24.567   1.437 -0.1401  0.0272  0.1711
 3229DPPC   GL260436  23.542  24.399   1.233 -0.0050 -0.0122  0.1516
 3229DPPC   C1A60437  23.621  24.897   1.263 -0.2499  0.1733 -0.1919
 3229DPPC   C2A60438  23.965  25.144   1.042  0.1171  0.0516  0.1785
 3229DPPC   C3A60439  24.033  25.644   1.016 -0.0447 -0.0064 -0.1742
 3229DPPC   C4A60440  24.130  26.048   0.808 -0.1283 -0.0788  0.0451
 3229DPPC   C1B60441  23.675  24.602   0.776  0.2743 -0.0958 -0.0356
 3229DPPC   C2B60442  24.003  24.820   0.576 -0.1275 -0.1326 -0.2630
 3229DPPC   C3B60443  24.118  25.090   0.361 -0.3706 -0.0337  0.1102
 3229DPPC   C4B60444  24.502  25.374   0.167  0.3440  0.1979 -0.2684
 3230DPPC   NC360445  16.691  28.131  21.278 -0.0754 -0.1140  0.2513
 3230DPPC   PO460446  16.380  27.910  21.578 -0.5562 -0.0718 -0.2285
 3230DPPC   GL160447  16.093  28.142  21.331  0.0038 -0.0911  0.1987
 3230DPPC   GL260448  16.286  28.454  21.139 -0.0524  0.0411  0.0334
 3230DPPC   C1A60449  15.893  28.551  21.476  0.3348 -0.2712 -0.0011
 3230DPPC   C2A60450  16.179  28.967  21.263 -0.2830  0.0636  0.0350
 3230DPPC   C3A60451  16.131  29.156  20.978  0.3941  0.2983 -0.0088
 3230DPPC   C4A60452  15.867  29.524  20.698  0.1943 -0.0426  0.0806
 3230DPPC   C1B60453  16.321  28.765  20.742 -0.2980  0.0704  0.0088
 3230DPPC   C2B60454  16.479  28.898  20.302  0.2413  0.2317  0.2102
 3230DPPC   C3B60455  16.591  29.203  19.948 -0.1149  0.0853  0.0099
 3230DPPC   C4B60456  16.658  29.133  19.608  0.0567  0.0616  0.0397
 3231DPPC   NC360457  18.646  24.769  24.964  0.1138 -0.0497  0.3137
 3231DPPC   PO460458  18.479  24.326  24.952  0.1120  0.3804 -0.2507
 3231DPPC   GL160459  18.056  24.022  24.946 -0.0011  0.0619  0.0432
 3231DPPC   GL260460  17.884  24.310  24.843  0.2266  0.1637  0.0039
 3231DPPC   C1A60461  17.753  23.729  24.855 -0.0423 -0.1269 -0.0477
 3231DPPC   C2A60462  17.440  23.554  24.563 -0.2527 -0.1234  0.0856
 3231DPPC   C3A60463  17.057  23.395  24.649  0.0127  0.4862 -0.1183
 3231DPPC   C4A60464  16.769  23.113  24.910  0.1485  0.2473 -0.2270
 3231DPPC   C1B60465  17.436  24.126  24.957  0.1324  0.0083  0.0091
 3231DPPC   C2B60466  17.113  23.899  24.917  0.2087  0.1506 -0.1736
 3231DPPC   C3B60467  16.905  23.590  25.071 -0.1313 -0.4789  0.0678
 3231DPPC   C4B60468  16.769  23.334  25.380 -0.1664 -0.1613 -0.2075
 3232DPPC   NC360469  19.365  24.820  22.290  0.1181 -0.2572 -0.1926
 3232DPPC   PO460470  19.484  24.477  22.634 -0.1158  0.0895  0.1815
 3232DPPC   GL160471  19.867  24.713  22.734  0.1549 -0.0744  0.1230
 3232DPPC   GL260472  20.057  24.660  22.476  0.0719  0.0977 -0.7112
 3232DPPC   C1A60473  20.227  24.970  22.846 -0.0334  0.1092  0.2004
 3232DPPC   C2A60474  20.333  25.457  22.976  0.1362  0.3622  0.1822
 3232DPPC   C3A60475  20.413  25.809  23.148  0.0707  0.2825  0.2940
 3232DPPC   C4A60476  20.622  25.966  23.451 -0.1025 -0.1972 -0.2203
 3232DPPC   C1B60477  20.390  24.937  22.395  0.4374 -0.0555  0.0547
 3232DPPC   C2B60478  20.664  24.889  22.116  0.1718 -0.0204 -0.0381
 3232DPPC   C3B60479  21.117  24.755  22.014 -0.2793  0.4466  0.0088
 3232DPPC   C4B60480  21.539  24.791  21.958  0.0476  0.1086 -0.2879
 3233DPPC   NC360481  19.139  29.521   0.641 -0.1208 -0.0999 -0.4193
 3233DPPC   PO460482  19.171  29.096   0.653 -0.0482  0.1147  0.1584
 3233DPPC   GL160483  19.572  29.245   0.620 -0.0657  0.2738 -0.0522
 3233DPPC   GL260484  19.682  29.571   0.626 -0.0051  0.1156  0.0992
 3233DPPC   C1A60485  20.022  29.192   0.699 -0.1825 -0.0854  0.1512
 3233DPPC   C2A60486  20.352  29.471   0.867  0.2110 -0.3994 -0.1184
 3233DPPC   C3A60487  20.093  29.828   0.819 -0.1874  0.2332  0.1337
 3233DPPC   C4A60488  20.094  30.221   0.871  0.0510  0.0283  0.3872
 3233DPPC   C1B60489  19.823  29.947   0.427  0.0217 -0.0690  0.0842
 3233DPPC   C2B60490  20.070  30.337   0.331  0.0335  0.0672 -0.0020
 3233DPPC   C3B60491  19.881  30.664   0.353  0.0881  0.2136  0.1162
 3233DPPC   C4B60492  19.840  30.970   0.173 -0.2262  0.0953 -0.1130
 3234DPPC   NC360493  20.648  24.876  25.247  0.0843 -0.2257 -0.0503
 3234DPPC   PO460494  20.883  24.969  25.630 -0.4254  0.1019 -0.4769
 3234DPPC   GL160495  21.108  25.283  25.498  0.3463 -0.1777 -0.1581
 3234DPPC   GL260496  21.338  25.139  25.619  0.1793  0.1085  0.3358
 3234DPPC   C1A60497  21.305  25.694  25.351  0.2042  0.0793  0.0142
 3234DPPC   C2A60498  21.425  25.924  25.085 -0.0720 -0.1301  0.3012
 3234DPPC   C3A60499  21.760  26.169  24.869 -0.0523  0.0680 -0.0451
 3234DPPC   C4A60500  21.966  26.540  24.951  0.3695 -0.0544  0.2270
 3234DPPC   C1B60501  21.704  25.278  25.644  0.0129 -0.1749  0.0083
 3234DPPC   C2B60502  22.074  25.557  25.728 -0.1036 -0.0474  0.2896
 3234DPPC   C3B60503  22.383  25.718  25.550  0.0667 -0.1986  0.2316
 3234DPPC   C4B60504  22.752  25.837  25.529 -0.0079 -0.1403  0.4894
 3235DPPC   NC360505  18.380  23.954  21.721 -0.1672 -0.3979 -0.3307
 3235DPPC   PO460506  18.190  23.585  21.794 -0.2082 -0.0747 -0.1348
 3235DPPC   GL160507  17.773  23.495  21.904  0.1680 -0.0731  0.0729
 3235DPPC   GL260508  17.596  23.589  21.709 -0.0439  0.0054 -0.0534
 3235DPPC   C1A60509  17.505  23.275  22.120  0.0546 -0.1759  0.1048
 3235DPPC   C2A60510  17.182  23.007  22.244 -0.0529 -0.0403  0.1085
 3235DPPC   C3A60511  16.857  23.002  22.544  0.0131  0.1977  0.0046
 3235DPPC   C4A60512  16.555  22.845  22.707  0.0970 -0.0063  0.0338
 3235DPPC   C1B60513  17.198  23.370  21.605 -0.1152  0.1536 -0.1430
 3235DPPC   C2B60514  16.879  23.144  21.329  0.4698  0.0809 -0.0060
 3235DPPC   C3B60515  16.656  22.724  21.489  0.6772  0.0451 -0.0603
 3235DPPC   C4B60516  16.703  22.492  21.821 -0.2938 -0.2541  0.0244
 3236DPPC   NC360517  20.482  21.983  18.284 -0.1403 -0.1626  0.0015
 3236DPPC   PO460518  20.884  22.068  18.119 -0.1005 -0.1326  0.0824
 3236DPPC   GL160519  20.907  22.119  17.654 -0.0888  0.1004 -0.1822
 3236DPPC   GL260520  21.172  22.074  17.546  0.1349 -0.1627 -0.3480
 3236DPPC   C1A60521  21.041  22.418  17.235  0.0886 -0.0823  0.1065
 3236DPPC   C2A60522  21.134  22.456  16.799 -0.1650 -0.2843 -0.4144
 3236DPPC   C3A60523  21.182  22.601  16.451  0.1718 -0.1456  0.0314
 3236DPPC   C4A60524  20.999  22.982  16.289  0.1612  0.0806  0.2198
 3236DPPC   C1B60525  21.445  22.270  17.773 -0.0685  0.3283 -0.1684
 3236DPPC   C2B60526  21.445  22.280  18.141  0.2383 -0.0763 -0.1524
 3236DPPC   C3B60527  21.858  22.404  18.329 -0.0786  0.4888  0.0256
 3236DPPC   C4B60528  22.241  22.379  18.027  0.0183 -0.0359  0.0493
 3237DPPC   NC360529  19.891  22.810  22.282  0.0608 -0.3208  0.1841
 3237DPPC   PO460530  20.363  22.845  22.292  0.0157 -0.3353  0.0067
 3237DPPC   GL160531  20.638  23.173  22.448  0.0875  0.1683  0.0610
 3237DPPC   GL260532  20.500  23.547  22.430 -0.3238 -0.0708 -0.1261
 3237DPPC   C1A60533  21.120  23.141  22.477  0.3720 -0.1281  0.0615
 3237DPPC   C2A60534  21.497  23.375  22.538 -0.0488 -0.2709 -0.3149
 3237DPPC   C3A60535  21.775  23.520  22.145  0.0845 -0.0019 -0.0555
 3237DPPC   C4A60536  22.187  23.422  21.910  0.2259  0.1958  0.4205
 3237DPPC   C1B60537  20.871  23.581  22.339 -0.4219 -0.0935  0.1276
 3237DPPC   C2B60538  21.200  23.522  22.143 -0.1210  0.1997  0.1627
 3237DPPC   C3B60539  21.318  23.569  21.711  0.0080 -0.0379  0.2096
 3237DPPC   C4B60540  21.701  23.519  21.561 -0.1426  0.1417  0.0062
 3238DPPC   NC360541  20.488  20.651  23.188  0.1101  0.0102  0.2319
 3238DPPC   PO460542  20.634  20.594  23.559 -0.4239 -0.0386 -0.3202
 3238DPPC   GL160543  20.736  20.190  23.465 -0.1715 -0.4247 -0.3329
 3238DPPC   GL260544  20.458  20.110  23.595  0.1456 -0.1538 -0.1320
 3238DPPC   C1A60545  20.847  19.730  23.423 -0.0581  0.4344 -0.2685
 3238DPPC   C2A60546  20.626  19.392  23.280  0.1190  0.0445  0.2129
 3238DPPC   C3A60547  20.305  19.135  22.975 -0.0504  0.1825 -0.0918
 3238DPPC   C4A60548  19.832  18.981  22.911 -0.2898 -0.1342 -0.0318
 3238DPPC   C1B60549  20.204  20.174  23.753  0.0126  0.0939  0.1421
 3238DPPC   C2B60550  19.841  20.027  23.921 -0.1059  0.3954 -0.1092
 3238DPPC   C3B60551  19.576  19.758  24.143 -0.0782  0.2908 -0.1198
 3238DPPC   C4B60552  19.120  19.741  24.106  0.1215 -0.4029 -0.0636
 3239DPPC   NC360553  18.840  26.780   1.449  0.1358 -0.2242  0.0071
 3239DPPC   PO460554  18.477  26.986   1.294  0.1696 -0.0048  0.0227
 3239DPPC   GL160555  18.114  27.101   1.477  0.1656 -0.1301  0.0439
 3239DPPC   GL260556  18.156  26.902   1.735  0.0653  0.0382 -0.1832
 3239DPPC   C1A60557  17.774  27.244   1.580 -0.1346 -0.2419  0.0150
 3239DPPC   C2A60558  17.376  27.402   1.551 -0.0220  0.1184  0.0527
 3239DPPC   C3A60559  16.981  27.432   1.755  0.2399  0.0839 -0.0531
 3239DPPC   C4A60560  16.569  27.359   1.611  0.0264  0.1487 -0.2728
 3239DPPC   C1B60561  17.837  27.034   2.036 -0.0555 -0.4478 -0.0543
 3239DPPC   C2B60562  17.524  27.368   2.094 -0.1565 -0.1237  0.1137
 3239DPPC   C3B60563  17.158  27.477   2.245  0.1888  0.1190 -0.0771
 3239DPPC   C4B60564  16.780  27.624   2.541  0.1276 -0.0150  0.2704
 3240DPPC   NC360565  25.041  20.508  25.895 -0.0832  0.3066  0.0457
 3240DPPC   PO460566  24.906  20.700  25.506 -0.0658  0.2236 -0.1127
 3240DPPC   GL160567  25.151  21.075  25.411  0.0797  0.0588  0.0642
 3240DPPC   GL260568  25.429  21.230  25.526  0.1607 -0.2573  0.3175
 3240DPPC   C1A60569  25.257  21.447  25.149 -0.2018  0.1441  0.0802
 3240DPPC   C2A60570  25.455  21.518  24.660 -0.1490 -0.0622 -0.1128
 3240DPPC   C3A60571  25.763  21.753  24.403 -0.0182  0.3549  0.3440
 3240DPPC   C4A60572  25.946  22.113  24.411 -0.1626  0.2523 -0.1706
 3240DPPC   C1B60573  25.710  21.509  25.353 -0.2472 -0.1918 -0.1896
 3240DPPC   C2B60574  26.039  21.718  25.394 -0.2776  0.1623 -0.2899
 3240DPPC   C3B60575  26.301  21.673  25.006  0.0945  0.0869  0.1798
 3240DPPC   C4B60576  26.289  21.745  24.593  0.3156  0.2866  0.0998
 3241DPPC   NC360577  17.848  27.453   0.692 -0.2061 -0.1332 -0.0203
 3241DPPC   PO460578  17.939  27.051   0.580 -0.3866  0.0817  0.0168
 3241DPPC   GL160579  17.617  27.003   0.849  0.0695  0.0447 -0.1893
 3241DPPC   GL260580  17.586  27.220   1.059  0.1891  0.1596  0.1613
 3241DPPC   C1A60581  17.215  26.833   0.846  0.3237  0.1033 -0.1478
 3241DPPC   C2A60582  16.873  26.757   1.019 -0.0157  0.0969 -0.1788
 3241DPPC   C3A60583  16.591  26.614   0.835 -0.3284 -0.1495 -0.0073
 3241DPPC   C4A60584  16.213  26.627   0.820  0.1420 -0.0456 -0.4119
 3241DPPC   C1B60585  17.393  26.976   1.274 -0.0597  0.0742  0.1803
 3241DPPC   C2B60586  17.293  27.008   1.778  0.0426  0.1217  0.0206
 3241DPPC   C3B60587  17.119  26.923   2.154  0.1567 -0.0063  0.1262
 3241DPPC   C4B60588  16.842  27.094   2.469 -0.3509 -0.0454 -0.2675
 3242DPPC   NC360589  17.608  25.094  21.880  0.1471 -0.1432  0.1042
 3242DPPC   PO460590  17.379  25.096  21.566 -0.1599  0.1067 -0.0741
 3242DPPC   GL160591  17.097  24.837  21.644  0.3829  0.1627  0.1679
 3242DPPC   GL260592  16.972  25.052  21.909  0.0865 -0.0474 -0.0793
 3242DPPC   C1A60593  16.809  24.587  21.659 -0.0135 -0.0451 -0.1972
 3242DPPC   C2A60594  16.598  24.465  21.305 -0.0693  0.3507  0.5415
 3242DPPC   C3A60595  16.289  24.430  21.045 -0.2174 -0.1098 -0.0726
 3242DPPC   C4A60596  15.965  24.389  20.779  0.2271  0.0627  0.0747
 3242DPPC   C1B60597  16.525  24.972  21.649  0.0612 -0.1486  0.0501
 3242DPPC   C2B60598  16.180  24.732  21.450 -0.1838 -0.2462 -0.1663
 3242DPPC   C3B60599  15.844  24.418  21.389 -0.0660  0.0516  0.2128
 3242DPPC   C4B60600  15.542  24.104  21.528  0.0930  0.1920  0.2177
 3243DPPC   NC360601  24.691  23.542   3.447  0.0827  0.2589  0.4040
 3243DPPC   PO460602  24.502  23.799   3.634  0.1076  0.0322  0.3689
 3243DPPC   GL160603  24.246  23.576   4.004  0.0541  0.1464  0.2091
 3243DPPC   GL260604  24.068  23.705   4.155 -0.3156 -0.0371 -0.1401
 3243DPPC   C1A60605  24.076  23.139   4.226 -0.0515 -0.0526  0.1793
 3243DPPC   C2A60606  23.839  22.932   4.414  0.1431  0.1166  0.0796
 3243DPPC   C3A60607  23.673  22.956   4.792  0.1727 -0.1674  0.0597
 3243DPPC   C4A60608  23.487  22.659   4.983 -0.2287  0.1408 -0.0768
 3243DPPC   C1B60609  24.172  23.686   4.628  0.2184 -0.1154 -0.0669
 3243DPPC   C2B60610  24.012  23.351   4.735 -0.0564 -0.1953  0.2891
 3243DPPC   C3B60611  23.973  23.120   5.185  0.2160 -0.3286 -0.1042
 3243DPPC   C4B60612  24.040  22.854   5.559  0.1333 -0.2497 -0.1279
 3244DPPC   NC360613  16.532  26.212  20.985 -0.1350  0.0512  0.1148
 3244DPPC   PO460614  16.696  25.901  21.093 -0.0046  0.0621  0.0303
 3244DPPC   GL160615  16.198  25.898  21.102 -0.0580  0.0960 -0.4562
 3244DPPC   GL260616  16.032  26.138  21.066  0.0451 -0.1497  0.0273
 3244DPPC   C1A60617  15.901  25.678  21.381  0.0488  0.1251 -0.3247
 3244DPPC   C2A60618  15.468  25.527  21.454  0.0563  0.1375 -0.1970
 3244DPPC   C3A60619  15.199  25.348  21.854  0.1333 -0.1000  0.0845
 3244DPPC   C4A60620  14.982  25.131  22.233 -0.2663  0.0857 -0.0969
 3244DPPC   C1B60621  15.902  25.840  20.728  0.2107 -0.1635  0.1246
 3244DPPC   C2B60622  15.880  25.941  20.282  0.3029 -0.1174 -0.1559
 3244DPPC   C3B60623  16.031  25.973  19.920 -0.1267  0.0910 -0.1835
 3244DPPC   C4B60624  16.247  25.951  19.459 -0.0143  0.2448 -0.2396
 3245DPPC   NC360625  17.762  26.685  22.700 -0.0290  0.1891  0.0059
 3245DPPC   PO460626  18.095  26.764  22.382  0.1467  0.0141 -0.1481
 3245DPPC   GL160627  18.556  26.741  22.313 -0.0555 -0.0656 -0.1083
 3245DPPC   GL260628  18.830  26.650  22.566 -0.4313  0.2947 -0.1940
 3245DPPC   C1A60629  18.955  26.971  22.098 -0.2139  0.0958 -0.2586
 3245DPPC   C2A60630  19.426  26.898  21.805  0.1976  0.0205  0.0243
 3245DPPC   C3A60631  19.481  26.943  21.393  0.0411  0.1341  0.0746
 3245DPPC   C4A60632  19.786  26.941  21.058  0.2709 -0.1677  0.3530
 3245DPPC   C1B60633  19.250  26.864  22.545  0.2087 -0.1232  0.5148
 3245DPPC   C2B60634  19.553  27.125  22.626  0.2116 -0.2055 -0.1953
 3245DPPC   C3B60635  19.718  27.416  22.324  0.2215  0.0903  0.0132
 3245DPPC   C4B60636  20.086  27.252  22.110 -0.0120 -0.0160  0.0653
 3246DPPC   NC360637  22.926  20.656  22.976 -0.2275  0.2926 -0.2658
 3246DPPC   PO460638  22.772  21.040  22.779  0.1265  0.1438  0.1143
 3246DPPC   GL160639  22.929  21.438  22.714  0.0250 -0.2108 -0.0820
 3246DPPC   GL260640  23.033  21.486  23.047 -0.0037 -0.4910  0.0211
 3246DPPC   C1A60641  23.307  21.458  22.609 -0.0956  0.0466  0.0941
 3246DPPC   C2A60642  23.598  21.730  22.457 -0.1224 -0.0087 -0.1718
 3246DPPC   C3A60643  23.957  21.936  22.264  0.0104  0.0553  0.1828
 3246DPPC   C4A60644  24.401  21.841  22.103 -0.1197 -0.3797  0.0464
 3246DPPC   C1B60645  23.078  21.861  22.893  0.0473  0.2733  0.0961
 3246DPPC   C2B60646  23.341  22.136  22.802 -0.1985 -0.1021 -0.0490
 3246DPPC   C3B60647  23.694  22.387  22.672 -0.0061  0.2393 -0.2338
 3246DPPC   C4B60648  24.046  22.347  22.561 -0.0373 -0.1021  0.0007
 3247DPPC   NC360649  17.982  29.111  26.798  0.1690  0.1654  0.3102
 3247DPPC   PO460650  17.913  29.469   0.134 -0.2666 -0.0105 -0.3272
 3247DPPC   GL160651  17.613  29.375   0.367 -0.1027 -0.0168  0.0636
 3247DPPC   GL260652  17.679  29.423   0.620 -0.0014  0.0194  0.1509
 3247DPPC   C1A60653  17.207  29.330   0.583  0.1666  0.3661 -0.1345
 3247DPPC   C2A60654  16.751  29.521   0.716 -0.2670  0.1243 -0.1142
 3247DPPC   C3A60655  16.369  29.200   0.733 -0.2400  0.1548  0.0843
 3247DPPC   C4A60656  16.035  28.939   0.915  0.2050  0.0582  0.3645
 3247DPPC   C1B60657  17.409  29.731   0.754  0.0251 -0.4157  0.3424
 3247DPPC   C2B60658  17.080  29.975   0.866 -0.1315 -0.1435 -0.1640
 3247DPPC   C3B60659  17.107  30.233   1.170  0.3719 -0.0887 -0.1096
 3247DPPC   C4B60660  17.296  30.325   1.432  0.1180 -0.3662  0.1116
 3248DPPC   NC360661  23.646  22.904   3.155  0.1004  0.0890 -0.1403
 3248DPPC   PO460662  23.675  23.369   3.219 -0.0010 -0.3917 -0.3408
 3248DPPC   GL160663  23.741  23.226   3.675 -0.1415  0.0776  0.0682
 3248DPPC   GL260664  23.732  22.957   3.689 -0.1461  0.0372 -0.3004
 3248DPPC   C1A60665  23.614  23.202   4.067  0.0282  0.2219  0.0531
 3248DPPC   C2A60666  23.491  23.363   4.527  0.2479  0.0978  0.2377
 3248DPPC   C3A60667  23.644  23.768   4.638  0.2814  0.4370 -0.2574
 3248DPPC   C4A60668  23.396  24.213   4.683  0.0182  0.2780 -0.0142
 3248DPPC   C1B60669  23.593  22.643   3.985 -0.2595  0.3857 -0.2113
 3248DPPC   C2B60670  23.369  22.424   3.992 -0.2387 -0.0353 -0.0867
 3248DPPC   C3B60671  23.307  22.097   4.115 -0.0710  0.1557 -0.1271
 3248DPPC   C4B60672  23.372  21.997   4.513  0.2322  0.0560  0.0015
 3249DPPC   NC360673  19.722  24.511  26.211 -0.0559 -0.0451  0.1037
 3249DPPC   PO460674  19.502  24.089  26.193  0.1251 -0.3566  0.0306
 3249DPPC   GL160675  19.454  23.901  26.657 -0.2341  0.4910  0.2459
 3249DPPC   GL260676  19.713  23.742  26.599 -0.0783 -0.0326  0.2664
 3249DPPC   C1A60677  19.256  23.570   0.158  0.0333  0.0355 -0.2136
 3249DPPC   C2A60678  18.872  23.475   0.407  0.4616 -0.0863  0.0941
 3249DPPC   C3A60679  18.913  23.364   0.868  0.2076 -0.1883  0.1083
 3249DPPC   C4A60680  18.851  23.175   1.248 -0.0771 -0.0749  0.0834
 3249DPPC   C1B60681  19.514  23.399  26.710  0.1060  0.2503 -0.1444
 3249DPPC   C2B60682  19.313  23.068  26.856  0.1887 -0.4427  0.0862
 3249DPPC   C3B60683  19.192  22.700  26.868  0.1072 -0.0130  0.0475
 3249DPPC   C4B60684  19.061  22.293   0.055 -0.2477 -0.1394 -0.1585
 3250DPPC   NC360685  19.999  23.489  26.298 -0.2074  0.0106  0.2984
 3250DPPC   PO460686  19.859  23.574  25.797  0.0420 -0.0377  0.3744
 3250DPPC   GL160687  19.540  23.444  26.164  0.1710  0.1939 -0.3259
 3250DPPC   GL260688  19.286  23.608  26.200  0.1371 -0.0883 -0.1612
 3250DPPC   C1A60689  19.199  23.181  26.333 -0.2187 -0.0529  0.0313
 3250DPPC   C2A60690  18.944  22.776  26.483  0.1667  0.2939 -0.0111
 3250DPPC   C3A60691  18.683  22.406  26.461  0.1557 -0.2542 -0.2333
 3250DPPC   C4A60692  18.535  22.081  26.749 -0.0927 -0.0403 -0.2197
 3250DPPC   C1B60693  19.024  23.556  26.674  0.1545  0.0333 -0.1371
 3250DPPC   C2B60694  18.876  23.194   0.002  0.2696 -0.0262 -0.0901
 3250DPPC   C3B60695  18.740  22.728   0.118  0.0978  0.1222  0.0630
 3250DPPC   C4B60696  18.500  22.615   0.521  0.0706  0.1308  0.1948
 3251DPPC   NC360697  18.050  24.645  25.145 -0.1068 -0.1512 -0.1534
 3251DPPC   PO460698  18.371  24.732  25.434  0.0477 -0.0184  0.6463
 3251DPPC   GL160699  18.133  24.392  25.634  0.1209 -0.0556 -0.3438
 3251DPPC   GL260700  17.911  24.545  25.746  0.3678 -0.0454 -0.1622
 3251DPPC   C1A60701  17.964  24.053  25.820 -0.1701 -0.1019 -0.3014
 3251DPPC   C2A60702  17.637  23.817  25.923  0.1522  0.0766 -0.0870
 3251DPPC   C3A60703  17.409  23.543  25.920  0.2517  0.0448 -0.0326
 3251DPPC   C4A60704  17.194  23.218  25.683  0.1500  0.2791  0.2135
 3251DPPC   C1B60705  17.531  24.292  25.795  0.0194 -0.0389  0.1863
 3251DPPC   C2B60706  17.131  23.961  25.906  0.0034 -0.1789  0.0927
 3251DPPC   C3B60707  16.920  23.603  25.997 -0.3363 -0.0190 -0.0023
 3251DPPC   C4B60708  16.692  23.461  26.333 -0.0925  0.2702  0.1945
 3252DPPC   NC360709  21.230  20.437  19.462 -0.0867  0.1095  0.1019
 3252DPPC   PO460710  21.613  20.242  19.340  0.1185  0.1097 -0.0255
 3252DPPC   GL160711  21.529  20.093  18.953  0.1060  0.1326 -0.0618
 3252DPPC   GL260712  21.607  19.810  18.967  0.0849 -0.1121  0.1122
 3252DPPC   C1A60713  21.651  20.043  18.543  0.1175  0.2115 -0.1706
 3252DPPC   C2A60714  22.030  20.200  18.265  0.0274 -0.2410 -0.1113
 3252DPPC   C3A60715  21.902  20.387  17.793  0.1005  0.0243 -0.2932
 3252DPPC   C4A60716  21.584  20.417  17.426  0.2415 -0.1156 -0.1370
 3252DPPC   C1B60717  21.559  19.536  18.734 -0.1056 -0.2803 -0.1869
 3252DPPC   C2B60718  21.335  19.278  18.540 -0.1193  0.1565  0.0741
 3252DPPC   C3B60719  21.120  19.014  18.345 -0.0676 -0.1915 -0.0183
 3252DPPC   C4B60720  21.295  18.752  18.065  0.2895 -0.2501  0.1177
 3253DPPC   NC360721  22.278  22.898  25.940  0.1184 -0.1396 -0.1087
 3253DPPC   PO460722  22.376  22.793  26.375 -0.2148 -0.1315 -0.1832
 3253DPPC   GL160723  22.722  23.085  26.218 -0.2156 -0.3293  0.0569
 3253DPPC   GL260724  22.823  23.347  26.261 -0.0717 -0.3018  0.1559
 3253DPPC   C1A60725  23.005  23.189  25.831  0.0484  0.0491  0.2375
 3253DPPC   C2A60726  23.351  23.269  25.729  0.1571  0.0430  0.0400
 3253DPPC   C3A60727  23.378  23.469  25.485  0.1879  0.4125 -0.0328
 3253DPPC   C4A60728  23.250  23.682  25.057  0.1067  0.2182 -0.0472
 3253DPPC   C1B60729  23.316  23.464  26.167 -0.2013 -0.1103  0.1901
 3253DPPC   C2B60730  23.637  23.629  25.920  0.3277  0.0367  0.0084
 3253DPPC   C3B60731  23.830  23.874  25.543 -0.2669  0.0282  0.0340
 3253DPPC   C4B60732  23.711  23.724  25.109 -0.1089 -0.1659 -0.0667
 3254DPPC   NC360733  21.681  21.130  19.992 -0.2682  0.2163  0.2849
 3254DPPC   PO460734  21.305  21.241  19.660 -0.0273 -0.1254 -0.3095
 3254DPPC   GL160735  21.438  21.666  19.591  0.0630 -0.2128 -0.0230
 3254DPPC   GL260736  21.302  21.919  19.365 -0.1243  0.0029  0.0763
 3254DPPC   C1A60737  21.868  21.808  19.682  0.2406  0.2857  0.0927
 3254DPPC   C2A60738  22.273  21.656  19.551  0.1287  0.1156 -0.1541
 3254DPPC   C3A60739  22.744  21.516  19.516  0.0836  0.1030  0.1193
 3254DPPC   C4A60740  23.029  21.577  19.261  0.1057 -0.2929 -0.1832
 3254DPPC   C1B60741  21.756  21.968  19.196 -0.0085 -0.3104 -0.1401
 3254DPPC   C2B60742  22.040  22.083  18.798 -0.0751 -0.0892  0.0106
 3254DPPC   C3B60743  22.377  22.265  18.532  0.1517  0.1336  0.1506
 3254DPPC   C4B60744  22.838  22.096  18.437  0.2212  0.1568 -0.2033
 3255DPPC   NC360745  23.411  19.247  22.406  0.1369  0.3766  0.2744
 3255DPPC   PO460746  23.667  19.046  22.133  0.0897 -0.1431 -0.3632
 3255DPPC   GL160747  23.371  18.773  22.115 -0.3665  0.0698  0.1406
 3255DPPC   GL260748  23.545  18.416  21.880 -0.2378  0.0675  0.3302
 3255DPPC   C1A60749  23.312  18.409  22.357  0.1729  0.3025 -0.0844
 3255DPPC   C2A60750  23.169  18.015  22.483 -0.0224  0.1853  0.3819
 3255DPPC   C3A60751  23.444  17.706  22.666 -0.1019 -0.0851  0.2430
 3255DPPC   C4A60752  23.882  17.503  22.659  0.2959 -0.1872  0.1922
 3255DPPC   C1B60753  23.589  18.023  22.159  0.1027  0.0983 -0.0928
 3255DPPC   C2B60754  23.608  17.592  22.186 -0.1051  0.1318  0.1950
 3255DPPC   C3B60755  23.383  17.215  21.926 -0.2022 -0.0240 -0.2821
 3255DPPC   C4B60756  23.164  16.943  22.069  0.0571  0.1029  0.2724
 3256DPPC   NC360757  19.227  24.389  21.188  0.0945  0.0734 -0.1502
 3256DPPC   PO460758  19.148  24.558  20.758 -0.0600  0.2505 -0.2351
 3256DPPC   GL160759  19.478  24.937  20.790  0.1328  0.2888 -0.0100
 3256DPPC   GL260760  19.609  25.251  20.991  0.0898 -0.1536  0.1385
 3256DPPC   C1A60761  19.705  25.145  20.483 -0.1307 -0.1150 -0.0515
 3256DPPC   C2A60762  19.870  25.547  20.507 -0.1940  0.1089 -0.2518
 3256DPPC   C3A60763  20.158  25.928  20.353 -0.2377  0.0414 -0.0033
 3256DPPC   C4A60764  20.269  26.350  20.463 -0.1897 -0.1061  0.3558
 3256DPPC   C1B60765  19.920  25.340  21.005 -0.0659 -0.2467  0.1474
 3256DPPC   C2B60766  20.204  25.661  20.918  0.1046 -0.0163 -0.2015
 3256DPPC   C3B60767  20.493  26.004  20.773 -0.1949  0.0712  0.0036
 3256DPPC   C4B60768  20.959  26.038  20.753 -0.3108 -0.0455 -0.2232
 3257DPPC   NC360769  22.021  23.722  26.521 -0.0336 -0.2740 -0.2124
 3257DPPC   PO460770  21.935  23.593  26.144 -0.2468  0.0686  0.3138
 3257DPPC   GL160771  22.389  23.680  25.991 -0.0117  0.2344 -0.0964
 3257DPPC   GL260772  22.183  23.750  25.699  0.1451 -0.2335 -0.1723
 3257DPPC   C1A60773  22.811  23.686  25.956  0.2208 -0.2388  0.2308
 3257DPPC   C2A60774  23.053  23.858  25.602 -0.0752  0.2941  0.0553
 3257DPPC   C3A60775  23.393  23.985  25.394 -0.0385  0.3003 -0.0992
 3257DPPC   C4A60776  23.702  24.268  25.286 -0.0376  0.0822  0.1931
 3257DPPC   C1B60777  22.454  24.129  25.707  0.0429  0.1035  0.1337
 3257DPPC   C2B60778  22.554  24.503  25.487 -0.2983 -0.0190 -0.2564
 3257DPPC   C3B60779  22.703  24.736  25.341 -0.3016  0.2429  0.0945
 3257DPPC   C4B60780  23.014  24.773  25.029 -0.3149 -0.1066  0.2977
 3258DPPC   NC360781  23.297  27.056   3.178  0.2322  0.0913 -0.2071
 3258DPPC   PO460782  23.183  27.391   3.449  0.1167 -0.1875  0.1187
 3258DPPC   GL160783  23.376  27.620   3.090  0.0374  0.0664 -0.1185
 3258DPPC   GL260784  23.387  27.989   3.103  0.1590  0.2981 -0.1740
 3258DPPC   C1A60785  23.682  27.508   2.726 -0.0425  0.0068  0.0384
 3258DPPC   C2A60786  23.880  27.728   2.421 -0.1978  0.2531 -0.0556
 3258DPPC   C3A60787  23.882  27.720   2.002  0.0314  0.2139  0.1411
 3258DPPC   C4A60788  23.863  27.637   1.562 -0.1984 -0.0202 -0.1152
 3258DPPC   C1B60789  23.648  28.086   2.777  0.1945 -0.5342 -0.4078
 3258DPPC   C2B60790  23.893  28.573   2.681  0.2503 -0.2479 -0.0957
 3258DPPC   C3B60791  24.262  28.753   2.852  0.1222 -0.1113  0.3045
 3258DPPC   C4B60792  24.434  29.138   2.839 -0.0686 -0.0656  0.1480
 3259DPPC   NC360793  22.852  28.476   4.094  0.2595  0.1616 -0.3510
 3259DPPC   PO460794  22.706  28.807   3.896 -0.0580  0.2045  0.0847
 3259DPPC   GL160795  23.006  29.088   4.153  0.0420 -0.2428 -0.1202
 3259DPPC   GL260796  23.031  29.115   3.835  0.2157 -0.1955 -0.0790
 3259DPPC   C1A60797  23.062  29.473   4.401 -0.0336 -0.1290  0.1304
 3259DPPC   C2A60798  22.754  29.728   4.667  0.0506 -0.2921  0.2598
 3259DPPC   C3A60799  22.453  29.903   4.815 -0.0578 -0.3488 -0.0599
 3259DPPC   C4A60800  22.140  30.089   4.610  0.2280  0.0934  0.0186
 3259DPPC   C1B60801  23.340  29.184   3.483  0.1910  0.0412 -0.1593
 3259DPPC   C2B60802  23.444  29.575   3.162 -0.2141  0.1266  0.0986
 3259DPPC   C3B60803  23.507  29.774   2.778 -0.2059 -0.0783  0.2315
 3259DPPC   C4B60804  23.427  29.637   2.369 -0.0412  0.2144  0.2074
 3260DPPC   NC360805  17.786  24.255  23.741  0.2126  0.5604 -0.0556
 3260DPPC   PO460806  18.024  23.923  23.460  0.0606  0.1417 -0.3073
 3260DPPC   GL160807  17.845  23.620  23.568  0.2858  0.0443 -0.2231
 3260DPPC   GL260808  17.557  23.699  23.670  0.1789  0.2237  0.1608
 3260DPPC   C1A60809  17.655  23.224  23.601  0.3697  0.3070 -0.0030
 3260DPPC   C2A60810  17.299  22.982  23.521  0.4109 -0.0322  0.4136
 3260DPPC   C3A60811  16.896  23.035  23.456  0.1225  0.1026  0.1145
 3260DPPC   C4A60812  16.599  22.983  23.218  0.2645  0.1677  0.2076
 3260DPPC   C1B60813  17.070  23.631  23.707  0.5717  0.0007 -0.0942
 3260DPPC   C2B60814  16.661  23.550  23.452  0.0945 -0.0021  0.0684
 3260DPPC   C3B60815  16.371  23.414  23.402  0.1339 -0.0383 -0.1672
 3260DPPC   C4B60816  16.031  23.116  23.287 -0.1951 -0.2850  0.2173
 3261DPPC   NC360817  19.029  25.048  20.481 -0.2469  0.1399  0.3369
 3261DPPC   PO460818  18.696  25.108  20.227 -0.0858  0.1936 -0.1568
 3261DPPC   GL160819  19.101  25.325  20.004 -0.1017  0.1208 -0.0166
 3261DPPC   GL260820  19.340  25.252  20.155 -0.0583 -0.1674  0.0052
 3261DPPC   C1A60821  19.195  25.655  19.842 -0.0320 -0.0127  0.1877
 3261DPPC   C2A60822  19.480  25.858  19.567 -0.1523  0.1853 -0.3842
 3261DPPC   C3A60823  19.844  25.657  19.464 -0.0626 -0.4037  0.0868
 3261DPPC   C4A60824  19.957  25.157  19.525 -0.3765 -0.2475  0.1500
 3261DPPC   C1B60825  19.712  25.358  19.856  0.1886  0.1545  0.0371
 3261DPPC   C2B60826  20.109  25.333  20.147  0.0659 -0.0236 -0.2880
 3261DPPC   C3B60827  20.513  25.507  20.265 -0.3267 -0.1594 -0.0018
 3261DPPC   C4B60828  20.777  25.579  20.632 -0.1688 -0.0196 -0.1688
 3262DPPC   NC360829  18.708  29.157  26.620 -0.1800 -0.1388 -0.1381
 3262DPPC   PO460830  18.869  28.742  26.798 -0.0283  0.1622 -0.0583
 3262DPPC   GL160831  19.167  29.075  26.767  0.1117  0.0395  0.1781
 3262DPPC   GL260832  19.239  29.232   0.157  0.3697  0.2421 -0.1408
 3262DPPC   C1A60833  19.520  29.135  26.582  0.2116 -0.1057 -0.1634
 3262DPPC   C2A60834  19.867  29.386  26.429  0.1981 -0.2433  0.3529
 3262DPPC   C3A60835  20.238  29.264  26.191  0.1965 -0.0430  0.0412
 3262DPPC   C4A60836  20.336  29.273  25.814 -0.0468  0.2836 -0.3840
 3262DPPC   C1B60837  19.529  29.519  26.875  0.3307  0.2289  0.0304
 3262DPPC   C2B60838  19.887  29.697  26.881  0.0913 -0.1832  0.2170
 3262DPPC   C3B60839  20.035  30.134  26.771 -0.2852 -0.0340 -0.1659
 3262DPPC   C4B60840  19.986  30.492  26.679  0.0645 -0.2195  0.0164
 3263DPPC   NC360841  19.202  29.098   1.513  0.3357 -0.2368  0.2462
 3263DPPC   PO460842  18.788  29.305   1.526 -0.0185 -0.1090 -0.0864
 3263DPPC   GL160843  18.740  29.629   1.779  0.1061 -0.0413 -0.0821
 3263DPPC   GL260844  18.531  29.783   1.641  0.0883 -0.1973  0.0055
 3263DPPC   C1A60845  19.108  29.938   1.934  0.2211 -0.0558 -0.1055
 3263DPPC   C2A60846  19.222  30.211   2.184 -0.2254  0.2123 -0.0915
 3263DPPC   C3A60847  19.341  30.209   2.655 -0.0015  0.1639 -0.1432
 3263DPPC   C4A60848  19.149  30.423   2.990 -0.1896  0.0759  0.1017
 3263DPPC   C1B60849  18.301  30.041   1.849  0.1893  0.2887 -0.1896
 3263DPPC   C2B60850  17.966  30.035   2.008  0.3434  0.4510 -0.0133
 3263DPPC   C3B60851  17.734  30.150   2.426  0.0663  0.2226 -0.2628
 3263DPPC   C4B60852  17.680  30.068   2.816 -0.1106  0.4702 -0.1271
 3264DPPC   NC360853  20.974  21.511  18.558 -0.0448 -0.2160  0.2034
 3264DPPC   PO460854  20.816  21.287  18.874  0.0252 -0.0467  0.2994
 3264DPPC   GL160855  20.678  21.086  18.511  0.0236  0.0338  0.3141
 3264DPPC   GL260856  20.916  20.951  18.409 -0.2591 -0.1210  0.0634
 3264DPPC   C1A60857  20.552  20.994  18.014  0.0069  0.0177 -0.4049
 3264DPPC   C2A60858  20.519  20.636  17.794  0.0177  0.0271  0.0900
 3264DPPC   C3A60859  20.390  20.300  17.527 -0.1785  0.2868 -0.2824
 3264DPPC   C4A60860  20.106  20.033  17.637  0.0025  0.0569  0.0967
 3264DPPC   C1B60861  20.926  20.572  18.083 -0.0720  0.2870 -0.2331
 3264DPPC   C2B60862  21.007  20.236  17.879 -0.3691 -0.1265  0.0485
 3264DPPC   C3B60863  21.083  19.853  17.990 -0.0763 -0.3346  0.0912
 3264DPPC   C4B60864  21.372  19.662  18.258  0.3106  0.0158  0.2713
 3265DPPC   NC360865  17.493  27.112  21.011  0.1222  0.0533  0.2470
 3265DPPC   PO460866  17.753  27.313  21.276  0.0501 -0.1763 -0.1101
 3265DPPC   GL160867  18.162  27.209  21.006  0.1706 -0.1751  0.0629
 3265DPPC   GL260868  18.409  27.042  21.183  0.0516  0.0065  0.2300
 3265DPPC   C1A60869  18.541  27.403  20.893  0.3373 -0.0771 -0.1456
 3265DPPC   C2A60870  18.957  27.506  21.120  0.0224 -0.0972  0.2211
 3265DPPC   C3A60871  19.292  27.820  21.186  0.0630 -0.2068  0.0934
 3265DPPC   C4A60872  19.739  27.848  21.263  0.1133  0.0755  0.1352
 3265DPPC   C1B60873  18.929  26.955  21.189 -0.0745  0.0432 -0.1674
 3265DPPC   C2B60874  19.323  27.180  20.943 -0.0786  0.0740 -0.0251
 3265DPPC   C3B60875  19.602  27.428  20.759  0.4085 -0.1106  0.2085
 3265DPPC   C4B60876  20.034  27.680  20.680 -0.0942  0.1400 -0.1100
 3266DPPC   NC360877  23.922  20.333  23.273 -0.0965  0.0927  0.0199
 3266DPPC   PO460878  24.210  20.059  23.126  0.1959  0.1927 -0.1205
 3266DPPC   GL160879  24.505  20.364  23.089 -0.2711  0.2266  0.0656
 3266DPPC   GL260880  24.476  20.393  23.410  0.0333  0.1987  0.1708
 3266DPPC   C1A60881  24.692  20.677  22.828 -0.3207 -0.0699 -0.0346
 3266DPPC   C2A60882  24.855  20.938  22.619  0.1668  0.0302  0.2182
 3266DPPC   C3A60883  25.103  21.325  22.687 -0.1930  0.2770  0.0155
 3266DPPC   C4A60884  25.380  21.698  22.754  0.1959 -0.0109 -0.1829
 3266DPPC   C1B60885  24.351  20.807  23.202  0.0329  0.2603 -0.1310
 3266DPPC   C2B60886  24.278  21.041  22.803 -0.0566  0.1261  0.0192
 3266DPPC   C3B60887  24.428  20.891  22.399  0.2204 -0.1983 -0.1618
 3266DPPC   C4B60888  24.524  20.865  21.968 -0.2144  0.0043  0.2456
 3267DPPC   NC360889  23.689  24.071   1.544  0.0790  0.0776 -0.2782
 3267DPPC   PO460890  23.726  23.692   1.308  0.2304  0.1791 -0.0937
 3267DPPC   GL160891  24.108  23.963   1.236  0.1119 -0.0136 -0.0115
 3267DPPC   GL260892  23.986  24.140   1.006  0.4003  0.1626 -0.2236
 3267DPPC   C1A60893  24.329  23.891   0.868 -0.2531  0.0757  0.1156
 3267DPPC   C2A60894  24.713  24.007   0.722  0.1173 -0.0511 -0.1707
 3267DPPC   C3A60895  24.887  24.360   0.595 -0.1682  0.2765  0.0505
 3267DPPC   C4A60896  25.073  24.520   0.276 -0.0612  0.0821  0.1459
 3267DPPC   C1B60897  24.255  24.398   0.721 -0.0380 -0.1721 -0.2345
 3267DPPC   C2B60898  24.522  24.739   0.454  0.0438  0.1187 -0.0413
 3267DPPC   C3B60899  24.785  24.991   0.246  0.1915  0.0478  0.2079
 3267DPPC   C4B60900  25.149  25.183   0.043 -0.1651  0.1354  0.3850
 3268DPPC   NC360901  20.971  20.313  19.091 -0.0340 -0.0910  0.0826
 3268DPPC   PO460902  20.870  20.752  18.862  0.0372 -0.4563  0.1991
 3268DPPC   GL160903  20.941  20.429  18.592 -0.0141  0.1937  0.5700
 3268DPPC   GL260904  20.722  20.284  18.603 -0.0409 -0.2514  0.1255
 3268DPPC   C1A60905  21.196  20.144  18.428  0.4197  0.4076 -0.2660
 3268DPPC   C2A60906  21.177  19.847  18.683  0.2110  0.2889  0.1278
 3268DPPC   C3A60907  20.894  19.497  18.831 -0.2351  0.2687 -0.1902
 3268DPPC   C4A60908  20.600  19.036  18.763 -0.6793  0.0579 -0.0731
 3268DPPC   C1B60909  20.729  19.953  18.472  0.2158  0.2383  0.1325
 3268DPPC   C2B60910  20.804  19.538  18.283 -0.0186 -0.1884 -0.1372
 3268DPPC   C3B60911  20.613  19.192  18.185 -0.0672 -0.1451  0.1582
 3268DPPC   C4B60912  20.348  18.955  18.325  0.3142 -0.1362  0.3387
 3269DPPC   NC360913  25.953  25.958   4.391  0.2051  0.2742 -0.2296
 3269DPPC   PO460914  26.151  26.149   4.035  0.1289  0.4560  0.0595
 3269DPPC   GL160915  26.458  26.471   4.301 -0.4289  0.0989  0.0640
 3269DPPC   GL260916  26.791  26.292   4.512  0.2469  0.1881 -0.0170
 3269DPPC   C1A60917  26.535  26.952   4.308  0.1345  0.0782  0.4618
 3269DPPC   C2A60918  26.507  27.415   4.511 -0.2901  0.1842 -0.0099
 3269DPPC   C3A60919  26.723  27.764   4.473 -0.3411 -0.5243  0.0369
 3269DPPC   C4A60920  26.497  28.176   4.509  0.1615  0.1715 -0.0319
 3269DPPC   C1B60921  27.053  26.540   4.509  0.0115 -0.1761 -0.2363
 3269DPPC   C2B60922  27.398  26.789   4.651 -0.1153  0.0016  0.2606
 3269DPPC   C3B60923  27.441  27.225   4.709  0.1008 -0.0817 -0.1768
 3269DPPC   C4B60924  27.318  27.567   4.637  0.1569 -0.0683 -0.1815
 3270DPPC   NC360925  22.888  19.317  22.798 -0.3521  0.1956 -0.2127
 3270DPPC   PO460926  23.327  19.122  22.914 -0.1778 -0.0648 -0.1382
 3270DPPC   GL160927  23.218  18.860  23.281  0.2068 -0.0473  0.0532
 3270DPPC   GL260928  23.323  18.682  23.224  0.3544 -0.1120  0.0686
 3270DPPC   C1A60929  23.319  18.416  23.685  0.0483 -0.1798 -0.2086
 3270DPPC   C2A60930  23.437  18.012  23.658  0.1564 -0.1851 -0.1471
 3270DPPC   C3A60931  23.472  17.644  23.507 -0.2811  0.0983 -0.2693
 3270DPPC   C4A60932  23.746  17.318  23.439 -0.3652 -0.0864  0.0052
 3270DPPC   C1B60933  23.057  18.455  22.895 -0.1471  0.0441  0.0316
 3270DPPC   C2B60934  22.791  18.120  22.845 -0.2849  0.2683  0.1941
 3270DPPC   C3B60935  22.648  17.823  23.085  0.1609  0.0452 -0.1711
 3270DPPC   C4B60936  22.311  17.650  23.286 -0.1091 -0.1662 -0.0425
 3271DPPC   NC360937  22.024  26.900   2.341  0.0485 -0.1456 -0.1824
 3271DPPC   PO460938  22.124  26.434   2.517  0.4117 -0.1266  0.0776
 3271DPPC   GL160939  22.440  26.374   2.239 -0.1356  0.0737  0.0973
 3271DPPC   GL260940  22.466  26.114   2.042 -0.3426  0.0967 -0.2889
 3271DPPC   C1A60941  22.708  26.713   2.119 -0.1189 -0.0098  0.1415
 3271DPPC   C2A60942  22.918  26.824   1.764  0.2169 -0.1702  0.1286
 3271DPPC   C3A60943  23.173  26.961   1.572  0.2642  0.2171  0.0047
 3271DPPC   C4A60944  23.226  27.340   1.304 -0.0823  0.2897 -0.0852
 3271DPPC   C1B60945  22.789  26.242   1.873 -0.0889  0.1336 -0.1999
 3271DPPC   C2B60946  23.159  26.369   1.679 -0.0487 -0.1974 -0.2153
 3271DPPC   C3B60947  23.518  26.365   1.495  0.0473 -0.0063 -0.1090
 3271DPPC   C4B60948  23.658  26.508   1.212  0.2543 -0.1619 -0.0771
 3272DPPC   NC360949  24.620  18.772  23.768 -0.0137  0.1539 -0.0287
 3272DPPC   PO460950  25.016  18.925  23.499 -0.1855 -0.0243 -0.2764
 3272DPPC   GL160951  25.111  18.559  23.288  0.3127 -0.1705  0.1443
 3272DPPC   GL260952  25.056  18.433  22.962  0.3138 -0.1097  0.1757
 3272DPPC   C1A60953  25.175  18.119  23.351  0.0580 -0.0524 -0.0657
 3272DPPC   C2A60954  24.991  17.648  23.358 -0.0694  0.1735 -0.1313
 3272DPPC   C3A60955  24.902  17.297  23.625  0.2010 -0.0650 -0.3676
 3272DPPC   C4A60956  24.847  16.936  23.595 -0.0313  0.2111  0.2648
 3272DPPC   C1B60957  25.464  18.190  22.856  0.0309 -0.3998  0.3083
 3272DPPC   C2B60958  25.840  18.053  22.779  0.1315  0.1922  0.1055
 3272DPPC   C3B60959  26.200  18.000  22.416  0.0036  0.4857 -0.0956
 3272DPPC   C4B60960  26.430  18.080  22.196 -0.0224  0.0579  0.0592
 3273DPPC   NC360961  22.886  20.536  21.212 -0.0921  0.1336 -0.3439
 3273DPPC   PO460962  23.173  20.384  21.531 -0.3514 -0.0278 -0.2651
 3273DPPC   GL160963  23.458  20.759  21.446  0.0493  0.0850 -0.2647
 3273DPPC   GL260964  23.685  20.578  21.425 -0.0713 -0.0870  0.2694
 3273DPPC   C1A60965  23.611  21.105  21.193 -0.1046  0.1859 -0.0187
 3273DPPC   C2A60966  23.862  21.416  21.104  0.0098  0.0210  0.1299
 3273DPPC   C3A60967  24.081  21.737  21.295  0.2209  0.2210 -0.0340
 3273DPPC   C4A60968  24.273  22.019  21.552  0.5595  0.0041 -0.1033
 3273DPPC   C1B60969  24.012  20.843  21.407  0.1708 -0.0547 -0.0149
 3273DPPC   C2B60970  24.401  21.044  21.385 -0.0504 -0.0937 -0.1772
 3273DPPC   C3B60971  24.726  20.897  21.186  0.2383 -0.5652 -0.1952
 3273DPPC   C4B60972  25.033  20.789  20.770 -0.1567 -0.1226  0.3887
 3274DPPC   NC360973  17.351  26.219  24.282  0.1053 -0.2124 -0.4776
 3274DPPC   PO460974  17.188  26.090  24.594  0.1730  0.0119  0.0918
 3274DPPC   GL160975  16.720  26.046  24.543  0.2006  0.1037  0.1166
 3274DPPC   GL260976  16.551  26.299  24.576  0.2391 -0.3374  0.2785
 3274DPPC   C1A60977  16.407  25.793  24.612 -0.3673 -0.1134  0.3316
 3274DPPC   C2A60978  15.993  25.666  24.717  0.0952 -0.0291  0.0871
 3274DPPC   C3A60979  15.687  25.413  24.975 -0.0443 -0.0535  0.0840
 3274DPPC   C4A60980  15.458  25.559  25.301  0.1726  0.0194 -0.0472
 3274DPPC   C1B60981  16.113  26.228  24.628  0.2604  0.1393  0.3270
 3274DPPC   C2B60982  15.664  26.049  24.615 -0.2403  0.0697  0.1365
 3274DPPC   C3B60983  15.289  25.692  24.518  0.4628  0.4183  0.0064
 3274DPPC   C4B60984  14.901  25.632  24.604 -0.0229 -0.4769  0.1187
 3275DPPC   NC360985  22.548  28.651   3.467 -0.1495 -0.2661  0.2123
 3275DPPC   PO460986  22.342  28.501   3.308 -0.0788  0.0214  0.0036
 3275DPPC   GL160987  22.323  28.769   3.008  0.5650  0.0562 -0.1863
 3275DPPC   GL260988  22.039  28.917   3.219 -0.0877 -0.2647 -0.1715
 3275DPPC   C1A60989  22.549  29.135   2.942  0.1409 -0.0287 -0.1654
 3275DPPC   C2A60990  22.687  29.543   2.954 -0.0461 -0.1883  0.1152
 3275DPPC   C3A60991  23.038  29.823   3.022 -0.2445 -0.0596  0.0113
 3275DPPC   C4A60992  23.371  30.075   3.248  0.1105 -0.0831  0.2864
 3275DPPC   C1B60993  22.104  29.384   3.120 -0.1441  0.0804 -0.3041
 3275DPPC   C2B60994  22.172  29.771   3.180  0.2172 -0.0805 -0.1443
 3275DPPC   C3B60995  21.987  30.115   2.859 -0.2863  0.1257 -0.2894
 3275DPPC   C4B60996  22.002  30.440   2.661  0.2217  0.2273 -0.2994
 3276DPPC   NC360997  24.908  20.019  23.049  0.1218 -0.0274  0.2437
 3276DPPC   PO460998  24.996  19.632  22.764 -0.2005  0.1755  0.1208
 3276DPPC   GL160999  25.227  19.651  22.431 -0.2785 -0.0512  0.0671
 3276DPPC   GL261000  25.512  19.516  22.425 -0.0669 -0.3659 -0.1313
 3276DPPC   C1A61001  25.482  19.855  22.108 -0.0972  0.4869  0.2405
 3276DPPC   C2A61002  25.878  19.881  21.836 -0.1902  0.1360  0.1544
 3276DPPC   C3A61003  26.044  20.004  21.422 -0.4289 -0.1679 -0.0489
 3276DPPC   C4A61004  25.963  19.905  21.003 -0.3834 -0.0864 -0.0260
 3276DPPC   C1B61005  25.809  19.243  22.148  0.1020 -0.2089  0.2356
 3276DPPC   C2B61006  26.106  18.954  21.906 -0.2990  0.1313  0.2839
 3276DPPC   C3B61007  26.396  18.683  21.737  0.2340  0.1958  0.1076
 3276DPPC   C4B61008  26.421  18.355  21.774  0.0536 -0.0874  0.2190
 3277DPPC   NC361009  19.003  25.127  21.609 -0.0228  0.1874  0.1569
 3277DPPC   PO461010  19.190  24.744  21.757  0.0835 -0.1850  0.1838
 3277DPPC   GL161011  19.571  24.550  21.495  0.2959 -0.3825  0.0530
 3277DPPC   GL261012  19.669  24.518  21.695 -0.4189  0.3273 -0.1254
 3277DPPC   C1A61013  19.773  24.739  21.161 -0.0143  0.3176 -0.1154
 3277DPPC   C2A61014  20.270  24.827  21.104 -0.1191  0.1155 -0.0016
 3277DPPC   C3A61015  20.700  25.014  21.180  0.0257 -0.2390  0.0484
 3277DPPC   C4A61016  21.058  25.207  20.930 -0.3653  0.0949  0.1237
 3277DPPC   C1B61017  20.035  24.370  21.378 -0.0867 -0.3106  0.2787
 3277DPPC   C2B61018  20.298  24.087  21.115 -0.1944 -0.1019  0.4316
 3277DPPC   C3B61019  20.590  23.745  21.231  0.1888 -0.1534  0.0648
 3277DPPC   C4B61020  20.629  23.382  21.463 -0.3891  0.0532  0.2108
 3278DPPC   NC361021  20.223  24.633  24.925  0.0969  0.1186  0.1511
 3278DPPC   PO461022  20.161  24.979  25.241  0.0633 -0.1338 -0.3926
 3278DPPC   GL161023  20.454  25.154  24.895 -0.2109 -0.4618  0.1205
 3278DPPC   GL261024  20.478  25.444  24.689 -0.0896  0.0961 -0.1571
 3278DPPC   C1A61025  20.924  25.196  24.773  0.1283  0.1040 -0.0371
 3278DPPC   C2A61026  21.261  25.326  25.042 -0.2985  0.0336  0.1715
 3278DPPC   C3A61027  21.772  25.460  25.187  0.2266 -0.3651 -0.0905
 3278DPPC   C4A61028  21.934  25.809  25.350  0.2216  0.2177 -0.0291
 3278DPPC   C1B61029  20.798  25.562  24.463 -0.0635 -0.2118  0.0033
 3278DPPC   C2B61030  21.065  25.691  24.229 -0.1546  0.3356  0.2670
 3278DPPC   C3B61031  21.392  25.870  23.942 -0.0217 -0.2207 -0.2539
 3278DPPC   C4B61032  21.627  25.782  23.666  0.0521  0.1977  0.0860
 3279DPPC   NC361033  17.368  25.431  20.148 -0.0793  0.0825 -0.0089
 3279DPPC   PO461034  17.702  25.299  19.901  0.0996 -0.2381 -0.1060
 3279DPPC   GL161035  17.541  25.231  19.458 -0.0011  0.1552 -0.2122
 3279DPPC   GL261036  17.519  24.932  19.130 -0.1656 -0.1870  0.1722
 3279DPPC   C1A61037  17.531  25.438  18.989  0.0994 -0.0619 -0.0573
 3279DPPC   C2A61038  17.601  25.866  18.764 -0.1815  0.1067  0.2350
 3279DPPC   C3A61039  17.914  25.849  18.406 -0.0130  0.1516 -0.0828
 3279DPPC   C4A61040  18.200  26.226  18.238 -0.2514  0.3474  0.1114
 3279DPPC   C1B61041  17.203  24.661  18.966 -0.1321  0.0373  0.0711
 3279DPPC   C2B61042  17.163  24.589  18.517 -0.3677  0.2928 -0.1352
 3279DPPC   C3B61043  17.412  24.274  18.265  0.0831  0.1132  0.0454
 3279DPPC   C4B61044  17.557  23.883  18.391  0.1705 -0.2049  0.2276
 3280DPPC   NC361045  17.607  26.098  23.045  0.1759  0.0455  0.1461
 3280DPPC   PO461046  17.124  26.165  23.100 -0.0523 -0.2907  0.4881
 3280DPPC   GL161047  16.673  26.144  22.877 -0.1287  0.1565  0.2264
 3280DPPC   GL261048  16.565  26.139  23.136  0.3216 -0.0356  0.3396
 3280DPPC   C1A61049  16.236  26.119  22.643  0.2223 -0.0848  0.1817
 3280DPPC   C2A61050  16.022  25.729  22.388  0.2995  0.1184 -0.0369
 3280DPPC   C3A61051  15.592  25.617  22.059  0.3190  0.0760 -0.3262
 3280DPPC   C4A61052  15.316  25.870  21.750 -0.1631 -0.0387 -0.2644
 3280DPPC   C1B61053  16.118  26.100  23.217  0.5667 -0.1018  0.1819
 3280DPPC   C2B61054  15.684  26.000  23.425 -0.1126  0.0444 -0.1158
 3280DPPC   C3B61055  15.200  25.861  23.220  0.3240  0.0035 -0.0753
 3280DPPC   C4B61056  15.262  25.442  22.991 -0.0220 -0.0807  0.0126
 3281DPPC   NC361057  22.541  24.127   3.448  0.1706  0.1516  0.4154
 3281DPPC   PO461058  22.901  24.069   3.149  0.2547 -0.0733 -0.1932
 3281DPPC   GL161059  22.857  23.784   3.479 -0.1253  0.2754  0.1616
 3281DPPC   GL261060  22.586  23.667   3.644  0.3571 -0.1352 -0.0691
 3281DPPC   C1A61061  22.875  23.332   3.657 -0.0280 -0.0166  0.3488
 3281DPPC   C2A61062  22.713  22.950   3.840  0.1722 -0.2620 -0.4025
 3281DPPC   C3A61063  22.396  22.642   4.009  0.3130  0.0827  0.2562
 3281DPPC   C4A61064  22.492  22.404   4.401 -0.0443 -0.0893 -0.1127
 3281DPPC   C1B61065  22.343  23.288   3.850 -0.1817  0.0125  0.0539
 3281DPPC   C2B61066  21.973  23.042   4.067 -0.3917  0.2128  0.0241
 3281DPPC   C3B61067  22.025  22.737   4.376  0.1398  0.0530  0.0400
 3281DPPC   C4B61068  21.670  22.550   4.632  0.0944  0.1416  0.1862
 3282DPPC   NC361069  19.087  26.149  24.768  0.0253 -0.0788  0.1533
 3282DPPC   PO461070  19.031  26.279  25.284 -0.0573  0.1112  0.0248
 3282DPPC   GL161071  19.236  26.557  24.972 -0.1039  0.2455  0.0307
 3282DPPC   GL261072  19.612  26.571  25.105  0.0470 -0.0069 -0.0308
 3282DPPC   C1A61073  19.370  26.860  24.648  0.1335 -0.0522 -0.2243
 3282DPPC   C2A61074  19.730  27.099  24.351  0.0853 -0.1532 -0.1008
 3282DPPC   C3A61075  20.150  27.241  24.265  0.1612  0.1564  0.2317
 3282DPPC   C4A61076  20.494  27.454  24.556  0.1512  0.3752 -0.5414
 3282DPPC   C1B61077  19.848  26.809  24.747  0.0029 -0.2009 -0.3949
 3282DPPC   C2B61078  19.938  27.271  24.726  0.1510 -0.1394 -0.3742
 3282DPPC   C3B61079  20.066  27.753  24.648 -0.0023 -0.2274  0.0427
 3282DPPC   C4B61080  20.167  28.256  24.849 -0.0678  0.0646  0.1520
 3283DPPC   NC361081  24.423  21.254   1.878  0.0448 -0.2365 -0.5439
 3283DPPC   PO461082  24.889  21.281   2.125  0.3754 -0.1023 -0.1831
 3283DPPC   GL161083  24.809  20.950   2.257 -0.2192 -0.0808 -0.0672
 3283DPPC   GL261084  24.433  20.902   2.285  0.0507 -0.3187  0.3347
 3283DPPC   C1A61085  24.688  20.523   2.487  0.2002  0.1039  0.1205
 3283DPPC   C2A61086  24.642  20.418   2.860  0.1330 -0.2009 -0.2344
 3283DPPC   C3A61087  24.763  20.073   3.054 -0.0253  0.1038 -0.5633
 3283DPPC   C4A61088  24.746  19.713   3.054 -0.0808  0.1353 -0.3112
 3283DPPC   C1B61089  24.396  20.843   2.754  0.1868 -0.0568 -0.0354
 3283DPPC   C2B61090  24.196  20.695   3.075  0.2386  0.2514 -0.2648
 3283DPPC   C3B61091  23.979  20.513   3.387 -0.1408  0.1160  0.0084
 3283DPPC   C4B61092  24.045  20.174   3.611  0.0729  0.1300 -0.3475
 3284DPPC   NC361093  27.053  25.722   4.066  0.4549 -0.4590 -0.1089
 3284DPPC   PO461094  27.216  25.538   4.363 -0.0495  0.0431 -0.1030
 3284DPPC   GL161095  27.537  25.499   4.071 -0.1586  0.0576  0.2032
 3284DPPC   GL261096  27.310  25.402   3.787  0.0725  0.2039 -0.2743
 3284DPPC   C1A61097  28.026  25.378   3.951 -0.1659 -0.1278 -0.3614
 3284DPPC   C2A61098  28.495  25.577   4.196 -0.0585  0.1074 -0.0700
 3284DPPC   C3A61099  28.772  25.741   4.496 -0.1943 -0.1362  0.0147
 3284DPPC   C4A61100  28.851  25.840   4.874 -0.0911  0.1933  0.0400
 3284DPPC   C1B61101  27.394  25.646   3.367 -0.0054  0.2238  0.0213
 3284DPPC   C2B61102  27.829  25.789   3.274  0.1481 -0.2688 -0.0373
 3284DPPC   C3B61103  28.177  26.068   3.208 -0.2214 -0.1857 -0.2074
 3284DPPC   C4B61104  28.556  26.217   3.129 -0.2804  0.0095 -0.0088
 3285DPPC   NC361105  17.631  24.599  21.942  0.1263  0.0933  0.0847
 3285DPPC   PO461106  17.962  24.319  21.754 -0.1236 -0.2634 -0.2846
 3285DPPC   GL161107  17.521  24.112  21.728  0.0564  0.1170  0.0714
 3285DPPC   GL261108  17.332  24.327  21.669  0.0456 -0.0654  0.1085
 3285DPPC   C1A61109  17.179  23.867  21.642 -0.4353  0.1763 -0.0610
 3285DPPC   C2A61110  16.825  23.734  21.426 -0.0138 -0.0246  0.1091
 3285DPPC   C3A61111  16.408  23.546  21.355  0.1653 -0.0282  0.0860
 3285DPPC   C4A61112  16.042  23.557  21.080  0.1079 -0.1747 -0.2352
 3285DPPC   C1B61113  17.091  24.109  21.269  0.0643 -0.2430  0.2426
 3285DPPC   C2B61114  16.642  24.028  21.061  0.2570  0.2412 -0.1245
 3285DPPC   C3B61115  16.398  23.785  20.823 -0.3040 -0.4061  0.0519
 3285DPPC   C4B61116  16.288  23.432  20.415  0.0295  0.2118  0.1357
 3286DPPC   NC361117  16.908  28.668  25.536 -0.0922 -0.0572  0.0005
 3286DPPC   PO461118  17.022  28.992  25.841 -0.1808  0.0598  0.1514
 3286DPPC   GL161119  16.643  29.243  25.954  0.0638  0.0524 -0.3888
 3286DPPC   GL261120  16.519  29.444  25.673 -0.3246 -0.1819  0.1916
 3286DPPC   C1A61121  16.296  29.410  26.192  0.2288 -0.3276  0.2523
 3286DPPC   C2A61122  16.134  29.751  26.532  0.1151  0.1891  0.0780
 3286DPPC   C3A61123  16.157  29.856   0.074 -0.1259  0.2408 -0.1559
 3286DPPC   C4A61124  16.266  29.703   0.589  0.1251  0.1005  0.1386
 3286DPPC   C1B61125  16.565  29.945  25.598  0.0702  0.0042 -0.0925
 3286DPPC   C2B61126  16.673  30.010  25.172  0.1186 -0.0395 -0.1015
 3286DPPC   C3B61127  16.696  30.067  24.817 -0.3308 -0.1810 -0.0161
 3286DPPC   C4B61128  16.757  30.227  24.428  0.1549  0.2824  0.1039
 3287DPPC   NC361129  20.289  22.274  24.652 -0.0481 -0.0976  0.0864
 3287DPPC   PO461130  19.910  22.076  24.786  0.3141  0.0163 -0.1830
 3287DPPC   GL161131  19.632  21.841  24.808 -0.1487  0.3652  0.6596
 3287DPPC   GL261132  19.847  21.539  24.902 -0.0488  0.1276  0.2007
 3287DPPC   C1A61133  19.308  21.620  25.064 -0.3536 -0.0832 -0.0141
 3287DPPC   C2A61134  18.985  21.540  25.238  0.2535  0.1660  0.0579
 3287DPPC   C3A61135  18.583  21.304  25.341 -0.0863  0.3624  0.1025
 3287DPPC   C4A61136  18.195  21.491  25.514 -0.0265  0.0325  0.1290
 3287DPPC   C1B61137  19.733  21.326  25.333 -0.0598  0.2317 -0.2986
 3287DPPC   C2B61138  19.318  21.145  25.412 -0.0913  0.2425 -0.0496
 3287DPPC   C3B61139  18.883  20.932  25.158 -0.0425  0.1342 -0.1122
 3287DPPC   C4B61140  18.569  20.981  24.819  0.3744  0.0179 -0.4390
 3288DPPC   NC361141  18.516  25.944  23.468 -0.1401 -0.0072  0.2858
 3288DPPC   PO461142  18.862  26.006  23.158  0.0436  0.0939  0.0919
 3288DPPC   GL161143  19.248  26.187  23.398  0.1776 -0.1769  0.1126
 3288DPPC   GL261144  19.391  26.515  23.519  0.0374  0.1243 -0.2279
 3288DPPC   C1A61145  19.657  26.060  23.436 -0.1953  0.0191 -0.0101
 3288DPPC   C2A61146  20.120  26.223  23.328  0.0508  0.0647 -0.2345
 3288DPPC   C3A61147  20.528  26.292  23.117  0.0295 -0.0424  0.1146
 3288DPPC   C4A61148  20.979  26.553  23.017  0.0889  0.2310 -0.3248
 3288DPPC   C1B61149  19.772  26.582  23.427  0.0839 -0.1668  0.0723
 3288DPPC   C2B61150  20.149  26.770  23.364  0.0591  0.2137  0.1301
 3288DPPC   C3B61151  20.506  26.818  23.016  0.1965 -0.1595  0.0453
 3288DPPC   C4B61152  20.739  26.951  22.754  0.2411  0.1481 -0.0542
 3289DPPC   NC361153  17.771  27.073  20.281 -0.0179  0.2784 -0.0292
 3289DPPC   PO461154  17.797  26.927  19.817  0.3849 -0.1108 -0.0206
 3289DPPC   GL161155  17.806  27.293  19.534 -0.0275 -0.1235 -0.3193
 3289DPPC   GL261156  17.871  27.533  19.657 -0.2751 -0.4390  0.0761
 3289DPPC   C1A61157  17.526  27.526  19.119 -0.2499  0.2591  0.1878
 3289DPPC   C2A61158  17.312  27.923  19.017  0.1301 -0.0116  0.0558
 3289DPPC   C3A61159  16.869  28.059  18.904  0.0177  0.5531 -0.0326
 3289DPPC   C4A61160  16.501  28.295  18.871  0.1728 -0.2205 -0.0611
 3289DPPC   C1B61161  18.066  27.870  19.472  0.4710  0.0873 -0.1596
 3289DPPC   C2B61162  18.379  28.090  19.194  0.2012  0.2948 -0.0505
 3289DPPC   C3B61163  18.800  28.235  19.438  0.0449 -0.0516 -0.0216
 3289DPPC   C4B61164  19.057  28.458  19.161  0.2676 -0.3787 -0.1614
 3290DPPC   NC361165  18.177  27.854   0.887 -0.0239  0.1326  0.0475
 3290DPPC   PO461166  18.307  28.058   1.290 -0.2945  0.2018  0.2139
 3290DPPC   GL161167  17.962  28.150   1.481 -0.1192 -0.0782 -0.0868
 3290DPPC   GL261168  17.782  28.197   1.231  0.0495 -0.0186 -0.2157
 3290DPPC   C1A61169  17.718  28.362   1.715  0.1109  0.1766 -0.3010
 3290DPPC   C2A61170  17.551  28.568   2.119 -0.0101 -0.2750 -0.1116
 3290DPPC   C3A61171  17.411  28.535   2.474  0.0206 -0.3367  0.0495
 3290DPPC   C4A61172  17.123  28.479   2.797  0.2410 -0.1312 -0.1112
 3290DPPC   C1B61173  17.422  27.970   1.296  0.0449 -0.1027  0.0757
 3290DPPC   C2B61174  17.008  27.931   1.491 -0.0555 -0.1736  0.0738
 3290DPPC   C3B61175  16.677  28.110   1.636  0.0342  0.2955 -0.3669
 3290DPPC   C4B61176  16.330  28.275   1.519  0.3495 -0.1653  0.1600
 3291DPPC   NC361177  21.424  21.388  19.125  0.1143  0.0178 -0.0227
 3291DPPC   PO461178  21.452  21.529  18.788  0.1086  0.1511  0.0996
 3291DPPC   GL161179  21.495  21.380  18.376  0.4912  0.0423 -0.0122
 3291DPPC   GL261180  21.477  21.071  18.243  0.2781 -0.2867  0.1348
 3291DPPC   C1A61181  21.610  21.292  17.849 -0.1756 -0.1054  0.3135
 3291DPPC   C2A61182  21.980  21.380  17.572  0.1134  0.0715 -0.1504
 3291DPPC   C3A61183  22.159  21.676  17.576 -0.0291  0.1878 -0.5334
 3291DPPC   C4A61184  22.544  21.847  17.611  0.0140  0.1652  0.0219
 3291DPPC   C1B61185  21.253  20.992  17.904 -0.1134 -0.1954  0.0189
 3291DPPC   C2B61186  21.046  21.078  17.596  0.3715 -0.0003  0.0809
 3291DPPC   C3B61187  20.570  21.072  17.518  0.1228  0.1122 -0.2280
 3291DPPC   C4B61188  20.112  20.830  17.511 -0.1724  0.0049 -0.1854
 3292DPPC   NC361189  23.321  22.746   2.218  0.0415  0.1408 -0.2888
 3292DPPC   PO461190  23.256  23.150   2.393 -0.0013 -0.1518  0.1427
 3292DPPC   GL161191  23.178  22.824   2.737  0.2978 -0.0594  0.1641
 3292DPPC   GL261192  22.935  22.748   2.575  0.2530 -0.0137 -0.0512
 3292DPPC   C1A61193  23.081  22.445   3.012  0.3148 -0.2521 -0.2168
 3292DPPC   C2A61194  22.964  22.114   3.353  0.1780 -0.0299  0.0439
 3292DPPC   C3A61195  22.877  21.886   3.701 -0.0274 -0.0800  0.2296
 3292DPPC   C4A61196  22.774  21.397   3.841 -0.3951 -0.0185 -0.0779
 3292DPPC   C1B61197  22.704  22.437   2.747  0.1315  0.3180 -0.2609
 3292DPPC   C2B61198  22.349  22.190   2.947 -0.1768  0.1881  0.2635
 3292DPPC   C3B61199  22.128  21.947   3.234 -0.0897 -0.1113  0.2536
 3292DPPC   C4B61200  21.812  21.693   3.392 -0.1988  0.0745  0.1892
 3293DPPC   NC361201  22.227  20.955  20.054  0.0084 -0.1808 -0.1469
 3293DPPC   PO461202  21.978  20.760  19.752 -0.2559 -0.0307 -0.0563
 3293DPPC   GL161203  22.133  20.890  19.247  0.0499  0.2129  0.1028
 3293DPPC   GL261204  22.320  20.632  19.034  0.0890  0.0972  0.3266
 3293DPPC   C1A61205  22.477  21.257  19.110  0.3513 -0.0184 -0.2643
 3293DPPC   C2A61206  22.883  21.300  18.855 -0.1208  0.2502 -0.2142
 3293DPPC   C3A61207  23.311  21.401  18.786 -0.0019 -0.1203 -0.0443
 3293DPPC   C4A61208  23.482  21.636  19.116 -0.3285  0.3053 -0.2462
 3293DPPC   C1B61209  22.270  20.979  18.688 -0.2777 -0.1859  0.2294
 3293DPPC   C2B61210  22.520  21.253  18.535  0.0278  0.0304 -0.1558
 3293DPPC   C3B61211  22.720  21.583  18.473  0.4644  0.1941  0.0664
 3293DPPC   C4B61212  22.333  21.779  18.554 -0.0862  0.0521 -0.2586
 3294DPPC   NC361213  26.925  23.638   4.169  0.1627  0.0475 -0.1598
 3294DPPC   PO461214  27.275  23.540   4.307 -0.4940 -0.3416 -0.2792
 3294DPPC   GL161215  27.739  23.654   4.363  0.0124 -0.0035  0.0582
 3294DPPC   GL261216  27.749  23.510   4.092  0.0736  0.0997  0.1889
 3294DPPC   C1A61217  28.204  23.748   4.400  0.1113  0.3234 -0.0759
 3294DPPC   C2A61218  28.501  23.851   4.614 -0.0473  0.3470 -0.0120
 3294DPPC   C3A61219  28.654  24.151   4.855 -0.1093  0.2026 -0.0313
 3294DPPC   C4A61220  28.962  24.261   5.141 -0.0183 -0.0679 -0.1135
 3294DPPC   C1B61221  28.084  23.242   4.329 -0.0257  0.0872 -0.0802
 3294DPPC   C2B61222  28.404  23.313   4.610  0.1549  0.2811 -0.0804
 3294DPPC   C3B61223  28.917  23.506   4.612 -0.2842 -0.1392  0.1625
 3294DPPC   C4B61224  29.382  23.499   4.797  0.0836 -0.1427 -0.2439
 3295DPPC   NC361225  17.174  25.530  21.123 -0.0820  0.2188 -0.4263
 3295DPPC   PO461226  17.074  25.739  20.807 -0.1789  0.1222 -0.0921
 3295DPPC   GL161227  16.637  25.671  20.624  0.1355  0.0793 -0.2733
 3295DPPC   GL261228  16.383  25.947  20.570  0.5635 -0.0867 -0.0515
 3295DPPC   C1A61229  16.280  25.511  20.866  0.2638 -0.3924 -0.1447
 3295DPPC   C2A61230  15.873  25.343  20.982  0.0738  0.0313 -0.0392
 3295DPPC   C3A61231  15.531  25.290  20.627 -0.0839 -0.0034 -0.1005
 3295DPPC   C4A61232  15.216  25.028  20.578  0.0694  0.0298  0.0692
 3295DPPC   C1B61233  16.229  25.587  20.350  0.0320  0.3714  0.1438
 3295DPPC   C2B61234  15.818  25.395  20.193  0.3526 -0.0837 -0.2292
 3295DPPC   C3B61235  15.441  25.109  20.040  0.2514  0.2755 -0.3768
 3295DPPC   C4B61236  15.103  24.985  19.850 -0.1965  0.2593  0.0260
 3296DPPC   NC361237  18.185  23.499  19.683  0.2920 -0.1023 -0.2281
 3296DPPC   PO461238  18.590  23.209  19.505  0.2659 -0.0797 -0.0572
 3296DPPC   GL161239  18.180  23.173  19.245 -0.1885  0.0259  0.1152
 3296DPPC   GL261240  18.275  22.833  19.158 -0.2762 -0.1672 -0.1213
 3296DPPC   C1A61241  17.755  23.141  19.043  0.0450  0.1068  0.3493
 3296DPPC   C2A61242  17.406  22.935  18.865 -0.0734  0.0799  0.2966
 3296DPPC   C3A61243  17.531  22.996  18.445  0.0625  0.0948 -0.0721
 3296DPPC   C4A61244  17.724  22.855  18.021  0.1897 -0.0472 -0.5550
 3296DPPC   C1B61245  17.935  22.662  19.199 -0.1031 -0.1002  0.0603
 3296DPPC   C2B61246  17.750  22.208  19.221 -0.3069  0.0824 -0.1476
 3296DPPC   C3B61247  17.332  22.047  19.345 -0.0099 -0.2101  0.0352
 3296DPPC   C4B61248  17.197  21.922  19.738  0.2577 -0.2511  0.2402
 3297DPPC   NC361249  19.685  28.077   2.309 -0.2279  0.0156  0.0141
 3297DPPC   PO461250  19.922  27.985   2.654  0.2043  0.2566  0.0180
 3297DPPC   GL161251  19.673  27.905   3.040  0.1774  0.2213  0.1992
 3297DPPC   GL261252  19.780  27.778   3.337  0.0569 -0.1830  0.1564
 3297DPPC   C1A61253  19.296  27.953   3.266 -0.2160 -0.4709 -0.2686
 3297DPPC   C2A61254  19.027  28.050   3.603 -0.0055 -0.0341 -0.1179
 3297DPPC   C3A61255  18.768  27.869   3.880  0.2142  0.0094  0.0474
 3297DPPC   C4A61256  18.383  27.647   4.098  0.0939  0.0430 -0.1131
 3297DPPC   C1B61257  19.511  27.824   3.689  0.1310 -0.0038 -0.4602
 3297DPPC   C2B61258  19.263  28.037   4.077  0.0236  0.1861 -0.0672
 3297DPPC   C3B61259  19.057  28.330   4.089  0.1366  0.2124  0.1370
 3297DPPC   C4B61260  18.957  28.863   4.090  0.0976  0.5329 -0.0491
 3298DPPC   NC361261  24.811  23.975   2.105 -0.0208  0.0622  0.0540
 3298DPPC   PO461262  24.595  24.178   2.394 -0.0700  0.0864 -0.1584
 3298DPPC   GL161263  24.885  24.456   2.033 -0.2158 -0.1253  0.0310
 3298DPPC   GL261264  25.124  24.464   2.182 -0.2365  0.2124 -0.1506
 3298DPPC   C1A61265  25.118  24.312   1.641  0.1450  0.1173  0.2492
 3298DPPC   C2A61266  25.447  24.668   1.473 -0.2208  0.1319 -0.0287
 3298DPPC   C3A61267  25.587  24.913   1.207 -0.1211  0.3163  0.4148
 3298DPPC   C4A61268  25.460  25.153   0.909  0.2849  0.1373  0.0181
 3298DPPC   C1B61269  25.465  24.542   1.992 -0.0382  0.2086  0.0740
 3298DPPC   C2B61270  25.737  24.883   1.869 -0.2794  0.2075  0.1708
 3298DPPC   C3B61271  25.543  25.298   1.961  0.0239  0.0953 -0.0882
 3298DPPC   C4B61272  25.295  25.580   1.847  0.0524  0.3158  0.1739
 3299DPPC   NC361273  19.383  22.612  18.487 -0.2121 -0.0891 -0.1411
 3299DPPC   PO461274  19.028  22.379  18.566 -0.1141 -0.4082  0.3302
 3299DPPC   GL161275  18.732  22.532  18.228  0.0219 -0.0795  0.3193
 3299DPPC   GL261276  18.771  22.855  18.012 -0.0740  0.0010  0.2673
 3299DPPC   C1A61277  18.562  22.386  17.830 -0.0807 -0.0984  0.1188
 3299DPPC   C2A61278  18.279  22.079  17.745 -0.1564 -0.0153 -0.3803
 3299DPPC   C3A61279  18.253  21.748  18.064 -0.0055  0.1420 -0.0742
 3299DPPC   C4A61280  18.178  21.670  18.539 -0.1121 -0.0412 -0.1558
 3299DPPC   C1B61281  18.390  22.972  17.771  0.0738 -0.0950 -0.1793
 3299DPPC   C2B61282  18.002  23.164  17.700  0.0939  0.2794  0.2959
 3299DPPC   C3B61283  17.659  23.440  17.691  0.1477 -0.1629 -0.2646
 3299DPPC   C4B61284  17.286  23.616  17.501  0.2210  0.1450  0.1286
 3300DPPC   NC361285  23.069  20.148  20.278  0.4574 -0.2194 -0.1111
 3300DPPC   PO461286  23.379  20.242  19.884  0.2805 -0.0220  0.3767
 3300DPPC   GL161287  23.542  20.514  19.675  0.2256  0.0542  0.1945
 3300DPPC   GL261288  23.235  20.701  19.579 -0.0285  0.2392 -0.0713
 3300DPPC   C1A61289  23.642  20.597  19.303 -0.0666  0.0978 -0.1609
 3300DPPC   C2A61290  23.685  20.649  18.899 -0.2195 -0.0978  0.2503
 3300DPPC   C3A61291  23.382  20.338  18.723 -0.0465 -0.0424 -0.1951
 3300DPPC   C4A61292  23.070  20.423  18.518 -0.2903  0.1792 -0.2564
 3300DPPC   C1B61293  23.635  21.011  19.616 -0.0634  0.0341 -0.1274
 3300DPPC   C2B61294  24.025  21.345  19.342 -0.4748  0.1855  0.0318
 3300DPPC   C3B61295  23.927  21.603  18.968  0.0450 -0.1494  0.2079
 3300DPPC   C4B61296  23.666  21.773  18.684 -0.1476  0.0287  0.4525
 3301DPPC   NC361297  22.247  28.849   4.205  0.0483 -0.0416 -0.0707
 3301DPPC   PO461298  22.573  28.828   4.377  0.2477  0.0063  0.0221
 3301DPPC   GL161299  22.698  28.912   4.714 -0.1168 -0.1645  0.0533
 3301DPPC   GL261300  23.014  28.779   4.705 -0.1417  0.0885  0.3187
 3301DPPC   C1A61301  22.870  29.276   4.885  0.0436 -0.1583 -0.0090
 3301DPPC   C2A61302  23.209  29.675   4.933  0.0007 -0.0846  0.1803
 3301DPPC   C3A61303  23.341  29.918   4.713 -0.0190 -0.0816  0.2586
 3301DPPC   C4A61304  23.637  30.078   4.355  0.1036 -0.2793 -0.2524
 3301DPPC   C1B61305  23.370  29.077   4.811  0.2664 -0.0517  0.1759
 3301DPPC   C2B61306  23.671  29.501   4.727 -0.1287  0.3321 -0.0997
 3301DPPC   C3B61307  23.872  29.926   4.761 -0.3430  0.0935  0.1108
 3301DPPC   C4B61308  23.889  30.378   4.766  0.1234 -0.2933  0.2215
 3302DPPC   NC361309  22.270  20.481  20.021  0.4062  0.0093 -0.0557
 3302DPPC   PO461310  22.615  20.692  20.254 -0.0043  0.0939  0.1429
 3302DPPC   GL161311  23.113  20.830  20.245 -0.0142  0.5473 -0.1347
 3302DPPC   GL261312  23.188  21.097  20.296  0.2058  0.1997  0.2093
 3302DPPC   C1A61313  23.541  20.802  20.070 -0.0993  0.2563  0.1512
 3302DPPC   C2A61314  24.000  20.789  20.111  0.0767  0.0934 -0.2994
 3302DPPC   C3A61315  24.444  20.764  20.079 -0.2332  0.1557 -0.0887
 3302DPPC   C4A61316  24.839  20.913  19.803 -0.1441  0.1744 -0.2106
 3302DPPC   C1B61317  23.530  21.327  20.115 -0.3679 -0.1259 -0.0618
 3302DPPC   C2B61318  23.943  21.302  19.889 -0.0806 -0.2244 -0.2889
 3302DPPC   C3B61319  24.352  21.175  19.720  0.0104  0.2250 -0.0583
 3302DPPC   C4B61320  24.522  21.224  19.384  0.0689 -0.1749  0.2810
 3303DPPC   NC361321  22.558  19.702  22.470  0.3247 -0.1327 -0.2298
 3303DPPC   PO461322  22.104  19.567  22.367  0.0067  0.1494 -0.2347
 3303DPPC   GL161323  21.760  19.261  22.315 -0.0387 -0.1044  0.1542
 3303DPPC   GL261324  21.889  18.962  22.034 -0.2548  0.0112 -0.0073
 3303DPPC   C1A61325  21.697  18.779  22.596 -0.0975  0.1368  0.0472
 3303DPPC   C2A61326  21.360  18.532  22.743 -0.0514  0.0348  0.1931
 3303DPPC   C3A61327  20.920  18.365  22.712 -0.0563 -0.0228 -0.1303
 3303DPPC   C4A61328  20.530  18.173  22.763 -0.5562 -0.2126  0.0002
 3303DPPC   C1B61329  21.874  18.585  21.937  0.0126  0.1783  0.1542
 3303DPPC   C2B61330  21.897  18.179  21.936  0.1205  0.3515 -0.3346
 3303DPPC   C3B61331  21.886  17.754  21.855  0.1258 -0.0717  0.1706
 3303DPPC   C4B61332  21.610  17.586  21.693  0.3046  0.2498 -0.5222
 3304DPPC   NC361333  18.562  24.142  19.258  0.0380 -0.1680  0.2826
 3304DPPC   PO461334  18.591  24.094  18.786  0.1775  0.0586  0.2034
 3304DPPC   GL161335  18.301  23.914  18.809 -0.2707 -0.0668 -0.0051
 3304DPPC   GL261336  18.043  24.210  18.893  0.0363 -0.1311  0.0474
 3304DPPC   C1A61337  18.020  23.821  18.544  0.5151 -0.3227  0.0639
 3304DPPC   C2A61338  17.659  23.414  18.590  0.2548 -0.0061  0.0148
 3304DPPC   C3A61339  17.264  23.500  18.689 -0.3205 -0.0105 -0.1734
 3304DPPC   C4A61340  16.982  23.839  18.653  0.0420  0.1204  0.0106
 3304DPPC   C1B61341  18.066  24.277  18.483  0.1952 -0.0344  0.0263
 3304DPPC   C2B61342  17.905  24.339  18.115 -0.2952  0.3189 -0.1601
 3304DPPC   C3B61343  18.061  24.208  17.662 -0.0518  0.0847  0.0689
 3304DPPC   C4B61344  17.883  24.349  17.363 -0.2469 -0.1314 -0.0412
 3305DPPC   NC361345  24.910  20.729   1.360  0.0099  0.0423 -0.2838
 3305DPPC   PO461346  25.188  20.408   1.130  0.1043  0.1880  0.1602
 3305DPPC   GL161347  25.394  20.192   1.366  0.0162 -0.0985  0.1902
 3305DPPC   GL261348  25.648  20.051   1.325 -0.0456  0.1646  0.1797
 3305DPPC   C1A61349  25.283  19.730   1.557  0.2516  0.1501 -0.3545
 3305DPPC   C2A61350  25.075  19.385   1.805  0.0257 -0.1629  0.0845
 3305DPPC   C3A61351  25.227  19.077   1.862 -0.3483  0.0058  0.0252
 3305DPPC   C4A61352  25.505  18.739   2.009 -0.0153 -0.0759 -0.1078
 3305DPPC   C1B61353  25.616  20.040   1.773  0.3019 -0.3479  0.2227
 3305DPPC   C2B61354  25.435  20.022   2.094  0.1046 -0.2927 -0.0372
 3305DPPC   C3B61355  25.100  19.837   2.033  0.3547 -0.0150 -0.1573
 3305DPPC   C4B61356  24.854  19.672   2.278  0.0098 -0.0079  0.0528
 3306DPPC   NC361357  17.394  28.195  22.003  0.1266 -0.4901  0.1393
 3306DPPC   PO461358  17.429  28.559  22.282  0.1317  0.1386 -0.0970
 3306DPPC   GL161359  17.575  28.997  22.122 -0.1996 -0.0566 -0.0325
 3306DPPC   GL261360  17.555  29.253  22.192 -0.4916  0.0211 -0.3255
 3306DPPC   C1A61361  17.929  29.035  21.840 -0.0916 -0.0482  0.1253
 3306DPPC   C2A61362  18.183  28.851  21.480 -0.1171  0.0388  0.0397
 3306DPPC   C3A61363  18.647  28.841  21.333  0.0247  0.2032 -0.0027
 3306DPPC   C4A61364  18.824  28.595  21.042 -0.4044  0.0393 -0.1586
 3306DPPC   C1B61365  17.437  29.390  21.790 -0.1100 -0.2150  0.1421
 3306DPPC   C2B61366  17.454  29.585  21.328 -0.4227 -0.3818 -0.0224
 3306DPPC   C3B61367  17.450  29.793  20.911  0.2581  0.2434 -0.2419
 3306DPPC   C4B61368  17.180  30.056  20.673  0.5014  0.0337 -0.2032
 3307DPPC   NC361369  27.736  21.794   2.559 -0.0887 -0.0894 -0.1635
 3307DPPC   PO461370  27.798  22.035   2.268  0.0673 -0.2446 -0.0077
 3307DPPC   GL161371  28.169  21.959   1.946 -0.1165  0.1000  0.1761
 3307DPPC   GL261372  28.144  21.696   1.746  0.1321 -0.0124  0.2025
 3307DPPC   C1A61373  28.541  22.093   1.972 -0.0727  0.1857 -0.0287
 3307DPPC   C2A61374  29.023  22.193   1.767 -0.0210  0.0786  0.0939
 3307DPPC   C3A61375  29.315  22.247   1.570  0.0104  0.1097 -0.0315
 3307DPPC   C4A61376  29.631  21.946   1.497  0.1383  0.2133 -0.1983
 3307DPPC   C1B61377  28.610  21.761   1.633 -0.0988  0.2123 -0.0816
 3307DPPC   C2B61378  29.043  21.645   1.600 -0.1178 -0.2018  0.1731
 3307DPPC   C3B61379  29.363  21.526   1.329  0.0577  0.1925  0.0786
 3307DPPC   C4B61380  29.660  21.007   1.271  0.0808 -0.0780 -0.0978
 3308DPPC   NC361381  19.462  22.217  19.727  0.1334 -0.2361  0.1203
 3308DPPC   PO461382  19.540  22.003  19.279  0.2556 -0.1030 -0.1478
 3308DPPC   GL161383  19.095  21.812  19.220 -0.0168  0.0547 -0.3028
 3308DPPC   GL261384  19.004  21.448  19.257 -0.2111 -0.1180 -0.0486
 3308DPPC   C1A61385  18.646  21.808  19.399 -0.2108 -0.0892  0.0284
 3308DPPC   C2A61386  18.249  21.514  19.564  0.1353  0.0718  0.1981
 3308DPPC   C3A61387  17.912  21.283  19.708 -0.0719  0.2027 -0.2741
 3308DPPC   C4A61388  17.462  21.180  19.674  0.0925  0.2089 -0.2931
 3308DPPC   C1B61389  18.620  21.347  19.219 -0.0978  0.2737 -0.2604
 3308DPPC   C2B61390  18.424  21.321  18.813 -0.0923  0.1292  0.1693
 3308DPPC   C3B61391  18.182  21.208  18.329  0.0023 -0.1877 -0.1076
 3308DPPC   C4B61392  18.025  20.876  18.008 -0.1973  0.1100  0.2052
 3309DPPC   NC361393  18.693  25.828  21.950  0.3166 -0.2381 -0.2590
 3309DPPC   PO461394  18.848  25.778  22.297 -0.0257  0.0159  0.1658
 3309DPPC   GL161395  19.245  25.823  22.376 -0.1096  0.0415  0.0959
 3309DPPC   GL261396  19.426  25.612  22.178 -0.2221  0.2954  0.1162
 3309DPPC   C1A61397  19.559  26.095  22.287 -0.2393 -0.0434 -0.1764
 3309DPPC   C2A61398  19.619  26.479  22.476  0.0298 -0.2166 -0.2309
 3309DPPC   C3A61399  19.657  26.901  22.197 -0.0494 -0.1463 -0.1070
 3309DPPC   C4A61400  19.947  26.935  21.771  0.2878 -0.2162 -0.2134
 3309DPPC   C1B61401  19.894  25.749  22.204  0.0379  0.1993 -0.0260
 3309DPPC   C2B61402  20.346  25.750  22.101  0.0005  0.0664 -0.1497
 3309DPPC   C3B61403  20.837  25.809  21.886  0.0851  0.0945 -0.0690
 3309DPPC   C4B61404  20.812  26.094  21.604 -0.0547 -0.1137 -0.1666
 3310DPPC   NC361405  19.540  22.933  23.127  0.1839 -0.4161  0.1318
 3310DPPC   PO461406  19.189  22.620  23.099  0.4307  0.2410  0.0343
 3310DPPC   GL161407  18.869  22.397  23.098  0.2185 -0.0437 -0.0392
 3310DPPC   GL261408  18.893  22.128  23.062 -0.1443  0.0167  0.2720
 3310DPPC   C1A61409  18.460  22.305  23.323 -0.0102 -0.0236 -0.1720
 3310DPPC   C2A61410  18.096  22.336  23.567 -0.1450  0.0398  0.2565
 3310DPPC   C3A61411  18.051  22.562  23.919  0.1498 -0.4494 -0.0713
 3310DPPC   C4A61412  17.700  22.433  24.249  0.0042  0.1278  0.2601
 3310DPPC   C1B61413  18.496  21.949  22.963  0.2005 -0.1795  0.2365
 3310DPPC   C2B61414  18.153  21.917  23.140  0.2071 -0.2647  0.0122
 3310DPPC   C3B61415  17.878  21.832  23.463  0.2922  0.1297  0.1041
 3310DPPC   C4B61416  17.918  21.472  23.912 -0.3725 -0.1707 -0.0417
 3311DPPC   NC361417  16.989  28.013  24.919  0.0247 -0.4147  0.3178
 3311DPPC   PO461418  16.853  27.628  25.127 -0.2405  0.1063  0.2753
 3311DPPC   GL161419  16.500  27.700  25.248 -0.5162  0.0071 -0.3360
 3311DPPC   GL261420  16.412  28.022  25.029 -0.0889 -0.0836 -0.0634
 3311DPPC   C1A61421  16.049  27.612  25.222 -0.0801 -0.0205  0.1717
 3311DPPC   C2A61422  15.653  27.421  24.958  0.1494  0.1427  0.3227
 3311DPPC   C3A61423  15.272  27.193  24.782 -0.0526 -0.0350  0.0569
 3311DPPC   C4A61424  15.049  26.898  24.694  0.0517  0.3449  0.0223
 3311DPPC   C1B61425  16.041  28.151  25.267  0.1228  0.0958 -0.4752
 3311DPPC   C2B61426  15.809  27.953  25.580 -0.0588  0.2133 -0.1112
 3311DPPC   C3B61427  15.691  27.535  25.607  0.0023  0.0128  0.0612
 3311DPPC   C4B61428  15.516  27.163  25.377 -0.2769 -0.0154 -0.0774
 3312DPPC   NC361429  19.944  28.376   2.998 -0.0415  0.2861  0.2184
 3312DPPC   PO461430  20.196  28.190   3.293 -0.2518  0.2206 -0.1661
 3312DPPC   GL161431  19.921  28.103   3.651  0.2666 -0.1242 -0.0501
 3312DPPC   GL261432  19.710  28.328   3.594 -0.3437 -0.1552  0.0029
 3312DPPC   C1A61433  19.717  28.184   4.034  0.1746  0.1179 -0.2849
 3312DPPC   C2A61434  19.608  28.428   4.219 -0.1233  0.0799 -0.1061
 3312DPPC   C3A61435  19.260  28.739   4.500  0.1465  0.1901 -0.1584
 3312DPPC   C4A61436  18.955  28.940   4.590  0.1366 -0.0773 -0.5880
 3312DPPC   C1B61437  19.374  28.539   3.721 -0.1594 -0.0808  0.2052
 3312DPPC   C2B61438  19.485  28.885   4.010  0.0137  0.0538  0.0130
 3312DPPC   C3B61439  19.790  29.013   4.228 -0.2280 -0.1544 -0.2529
 3312DPPC   C4B61440  19.851  29.383   4.483 -0.2675 -0.0809 -0.0862
 3313DPPC   NC361441  26.792  19.530  26.901  0.3441  0.0311 -0.3152
 3313DPPC   PO461442  26.783  19.244  26.524  0.0566 -0.1189 -0.0480
 3313DPPC   GL161443  26.825  18.950  26.738 -0.0717 -0.4196 -0.1940
 3313DPPC   GL261444  26.814  18.633  26.603  0.0658 -0.1404  0.2250
 3313DPPC   C1A61445  26.890  18.867   0.190  0.2459  0.0079  0.1933
 3313DPPC   C2A61446  26.659  18.950   0.513 -0.0792 -0.0289  0.2306
 3313DPPC   C3A61447  26.560  18.696   0.830 -0.1664 -0.0600 -0.3245
 3313DPPC   C4A61448  26.556  18.481   1.225  0.5047 -0.1499 -0.4570
 3313DPPC   C1B61449  26.868  18.136  26.670  0.0639 -0.0206 -0.1403
 3313DPPC   C2B61450  26.870  17.659  26.608  0.0141 -0.3000  0.0323
 3313DPPC   C3B61451  26.756  17.271  26.413 -0.0959 -0.0558  0.0245
 3313DPPC   C4B61452  26.741  16.827  26.362 -0.1493  0.0228  0.1250
 3314DPPC   NC361453  25.229  24.447   4.900 -0.0410  0.1049  0.0873
 3314DPPC   PO461454  25.611  24.340   5.044 -0.2444  0.2069  0.0988
 3314DPPC   GL161455  25.610  24.270   5.478 -0.3589  0.1615  0.0110
 3314DPPC   GL261456  25.258  24.263   5.431 -0.0616  0.0860  0.0917
 3314DPPC   C1A61457  25.599  24.423   5.798 -0.1089 -0.2771 -0.0012
 3314DPPC   C2A61458  25.498  24.582   6.192 -0.3410 -0.2251 -0.0932
 3314DPPC   C3A61459  25.329  24.823   6.611  0.1787 -0.0993 -0.0159
 3314DPPC   C4A61460  25.193  24.686   6.974  0.1203 -0.2345  0.3483
 3314DPPC   C1B61461  25.065  24.480   5.859  0.0609 -0.0695  0.1377
 3314DPPC   C2B61462  24.925  24.728   6.233 -0.1455 -0.0680 -0.3225
 3314DPPC   C3B61463  24.639  24.847   6.592 -0.1740 -0.1526 -0.0141
 3314DPPC   C4B61464  24.226  24.584   6.801  0.1259  0.3097  0.1186
 3315DPPC   NC361465  23.192  19.980  24.029 -0.0850  0.1652 -0.2727
 3315DPPC   PO461466  22.897  19.913  23.741 -0.0819  0.0803  0.0639
 3315DPPC   GL161467  22.748  19.684  24.065  0.1266 -0.1357 -0.0070
 3315DPPC   GL261468  22.532  19.797  24.269  0.1981  0.1471  0.0727
 3315DPPC   C1A61469  22.680  19.263  24.334 -0.0712  0.1973 -0.1427
 3315DPPC   C2A61470  22.347  18.953  24.546 -0.1041 -0.0455  0.0595
 3315DPPC   C3A61471  22.118  18.737  24.798 -0.2223  0.2266  0.1034
 3315DPPC   C4A61472  21.715  18.778  24.980  0.0664  0.0790 -0.1360
 3315DPPC   C1B61473  22.279  19.491  24.571 -0.0591  0.5235 -0.1244
 3315DPPC   C2B61474  21.953  19.230  24.815 -0.1291  0.1541  0.0402
 3315DPPC   C3B61475  21.638  19.247  25.187  0.1906  0.2504  0.0996
 3315DPPC   C4B61476  21.692  19.069  25.559  0.2467  0.4962  0.2941
 3316DPPC   NC361477  19.936  22.291  24.199 -0.1241 -0.0016 -0.0940
 3316DPPC   PO461478  19.975  21.887  24.287  0.1479  0.1816 -0.1570
 3316DPPC   GL161479  19.728  21.635  24.377  0.1967  0.2326  0.0636
 3316DPPC   GL261480  19.782  21.309  24.330  0.1392  0.4520 -0.2569
 3316DPPC   C1A61481  19.414  21.372  24.609  0.0275  0.1281  0.0447
 3316DPPC   C2A61482  19.074  21.234  24.707 -0.0403 -0.0709 -0.0606
 3316DPPC   C3A61483  18.617  21.443  24.753 -0.1872  0.0225  0.0108
 3316DPPC   C4A61484  18.163  21.335  25.023 -0.0075  0.1157  0.2609
 3316DPPC   C1B61485  19.569  20.915  24.290 -0.2523  0.1403 -0.1404
 3316DPPC   C2B61486  19.474  20.593  24.463  0.0639  0.1861 -0.3490
 3316DPPC   C3B61487  19.049  20.729  24.622  0.3361 -0.1875 -0.2834
 3316DPPC   C4B61488  18.641  20.663  24.435 -0.1177 -0.1408  0.2534
 3317DPPC   NC361489  25.904  24.534   3.573  0.4097  0.0393  0.1681
 3317DPPC   PO461490  25.791  24.485   3.172 -0.0109  0.1450  0.3110
 3317DPPC   GL161491  26.029  24.731   2.894 -0.2760  0.0897 -0.0817
 3317DPPC   GL261492  26.194  24.625   2.606 -0.0874  0.3448  0.1260
 3317DPPC   C1A61493  25.940  25.017   2.487 -0.2902  0.1743  0.1151
 3317DPPC   C2A61494  26.026  25.190   2.235 -0.1952 -0.0945 -0.0404
 3317DPPC   C3A61495  26.071  25.470   2.009  0.1543  0.1020  0.0244
 3317DPPC   C4A61496  26.072  25.639   1.543  0.3779 -0.1893 -0.2443
 3317DPPC   C1B61497  26.463  24.953   2.359 -0.0436  0.1755 -0.0660
 3317DPPC   C2B61498  26.563  25.291   2.194 -0.3831 -0.1036 -0.0357
 3317DPPC   C3B61499  26.958  25.283   2.025 -0.2524 -0.2138  0.0427
 3317DPPC   C4B61500  27.400  25.202   2.115 -0.2766  0.1790  0.1314
 3318DPPC   NC361501  17.791  24.849  19.531  0.0952  0.0606 -0.0448
 3318DPPC   PO461502  18.135  25.108  19.610  0.1100 -0.2532 -0.3615
 3318DPPC   GL161503  18.018  25.107  19.149 -0.0597 -0.1283  0.1435
 3318DPPC   GL261504  18.037  24.813  18.971 -0.1817 -0.0622  0.0685
 3318DPPC   C1A61505  17.859  25.184  18.695  0.1558 -0.2143  0.2595
 3318DPPC   C2A61506  17.645  25.474  18.460 -0.0236  0.0149  0.1152
 3318DPPC   C3A61507  17.426  25.825  18.212 -0.2692  0.0117  0.0066
 3318DPPC   C4A61508  17.003  26.063  18.358 -0.0569 -0.0061  0.1636
 3318DPPC   C1B61509  18.127  24.831  18.507  0.0755 -0.1327 -0.0510
 3318DPPC   C2B61510  18.212  25.062  18.150 -0.0778 -0.1795  0.2559
 3318DPPC   C3B61511  18.416  25.458  17.846  0.1455  0.1808 -0.3633
 3318DPPC   C4B61512  18.277  25.791  17.882 -0.1978  0.1550  0.1230
 3319DPPC   NC361513  18.744  29.839   0.386  0.1203  0.3425  0.1865
 3319DPPC   PO461514  19.168  29.867   0.286  0.2527  0.1275  0.1050
 3319DPPC   GL161515  19.494  30.016   0.010 -0.1781  0.0135  0.2435
 3319DPPC   GL261516  19.518  30.380   0.147  0.0789 -0.0631 -0.1782
 3319DPPC   C1A61517  19.548  30.324  26.568  0.4531 -0.0917 -0.0740
 3319DPPC   C2A61518  19.400  30.825  26.569  0.1108  0.0715 -0.1936
 3319DPPC   C3A61519  19.565  31.216  26.788 -0.2881 -0.1261 -0.1790
 3319DPPC   C4A61520  19.608  31.462   0.267  0.1763 -0.0455  0.0681
 3319DPPC   C1B61521  19.344  30.816   0.153  0.1036 -0.2872 -0.2436
 3319DPPC   C2B61522  19.059  31.111   0.310 -0.3100 -0.1511  0.2911
 3319DPPC   C3B61523  19.060  31.275  26.808  0.1214 -0.0856 -0.0213
 3319DPPC   C4B61524  19.142  31.410  26.452  0.1731 -0.4290  0.1548
 3320DPPC   NC361525  18.935  28.224  26.807 -0.0911 -0.3107 -0.2866
 3320DPPC   PO461526  18.876  27.808  26.680 -0.0111 -0.0042 -0.1770
 3320DPPC   GL161527  19.023  27.983  26.349  0.4749 -0.0880 -0.2185
 3320DPPC   GL261528  18.919  27.798  26.175 -0.2012  0.1330 -0.3026
 3320DPPC   C1A61529  19.420  28.170  26.293 -0.1317 -0.1856 -0.2957
 3320DPPC   C2A61530  19.740  28.332  26.186 -0.4800 -0.0679  0.0590
 3320DPPC   C3A61531  20.247  28.298  26.114  0.0027 -0.1689 -0.1202
 3320DPPC   C4A61532  20.641  28.431  25.989  0.0379  0.1681  0.0615
 3320DPPC   C1B61533  19.218  27.935  25.828  0.0335 -0.0857 -0.1928
 3320DPPC   C2B61534  19.621  27.942  25.819  0.0043  0.2321  0.2252
 3320DPPC   C3B61535  20.001  28.094  25.748 -0.0632  0.2160  0.1818
 3320DPPC   C4B61536  19.765  28.535  25.692 -0.1885  0.1341 -0.1530
 3321DPPC   NC361537  22.354  26.936   3.223 -0.2179 -0.3228 -0.1910
 3321DPPC   PO461538  22.442  27.272   2.863  0.3057  0.1074  0.1673
 3321DPPC   GL161539  22.790  27.406   2.733 -0.2770  0.1664  0.1118
 3321DPPC   GL261540  22.911  27.773   2.873  0.1166 -0.0375  0.1373
 3321DPPC   C1A61541  23.202  27.448   2.550 -0.2082 -0.0234 -0.3049
 3321DPPC   C2A61542  23.421  27.640   2.239  0.1413  0.0064 -0.1120
 3321DPPC   C3A61543  23.457  28.029   2.078 -0.0388 -0.1494  0.1973
 3321DPPC   C4A61544  23.560  28.139   1.790  0.2502 -0.2071  0.3570
 3321DPPC   C1B61545  23.207  27.972   2.596  0.0712 -0.1041 -0.2254
 3321DPPC   C2B61546  23.495  28.405   2.408 -0.1710  0.2146 -0.0974
 3321DPPC   C3B61547  23.498  28.834   2.477 -0.0688 -0.2085  0.0211
 3321DPPC   C4B61548  23.225  29.048   2.324 -0.1128 -0.1106 -0.0419
 3322DPPC   NC361549  22.766  25.995   4.796  0.1321  0.3480  0.2362
 3322DPPC   PO461550  22.987  26.451   4.804 -0.3398  0.1390  0.0813
 3322DPPC   GL161551  22.729  26.378   5.117 -0.1069  0.2779 -0.3029
 3322DPPC   GL261552  22.739  26.669   5.202 -0.2579  0.0515  0.1220
 3322DPPC   C1A61553  22.567  26.207   5.468 -0.0197 -0.0078  0.0148
 3322DPPC   C2A61554  22.786  25.975   5.934  0.3596  0.2950 -0.0947
 3322DPPC   C3A61555  22.623  25.530   6.072  0.0899  0.3188  0.2307
 3322DPPC   C4A61556  22.458  25.100   5.897 -0.0201 -0.2238  0.2215
 3322DPPC   C1B61557  22.869  26.618   5.583  0.0731  0.2617  0.2515
 3322DPPC   C2B61558  22.703  26.538   5.918 -0.3147 -0.0985  0.2376
 3322DPPC   C3B61559  22.442  26.379   6.256  0.2589 -0.1365  0.2732
 3322DPPC   C4B61560  22.276  25.958   6.325  0.2206  0.0137  0.1490
 3323DPPC   NC361561  23.848  22.127   1.486 -0.4385  0.1638 -0.2016
 3323DPPC   PO461562  23.758  22.202   1.842  0.1258 -0.0780 -0.1755
 3323DPPC   GL161563  23.673  21.784   2.030 -0.3081  0.2120  0.0531
 3323DPPC   GL261564  23.367  21.732   2.021  0.2422 -0.0746 -0.2162
 3323DPPC   C1A61565  23.700  21.374   2.306 -0.0176  0.1196  0.0497
 3323DPPC   C2A61566  23.434  20.934   2.252 -0.3168 -0.2805 -0.1754
 3323DPPC   C3A61567  23.330  20.696   2.551  0.1256  0.3781 -0.0946
 3323DPPC   C4A61568  23.315  20.252   2.791  0.2079 -0.0841 -0.1389
 3323DPPC   C1B61569  23.214  21.415   2.141 -0.1415  0.0892 -0.0063
 3323DPPC   C2B61570  22.991  21.102   2.432 -0.0902 -0.2121  0.2908
 3323DPPC   C3B61571  22.942  20.846   2.885  0.0395 -0.0685  0.2046
 3323DPPC   C4B61572  22.773  20.901   3.211 -0.1386  0.3242  0.2137
 3324DPPC   NC361573  25.257  19.707  23.581  0.1437 -0.1775 -0.2187
 3324DPPC   PO461574  25.137  19.453  23.272  0.1387 -0.0765 -0.0690
 3324DPPC   GL161575  25.445  19.558  22.999  0.1106  0.1621 -0.1759
 3324DPPC   GL261576  25.393  19.906  22.917 -0.0320 -0.2860 -0.1130
 3324DPPC   C1A61577  25.864  19.402  22.751  0.1496  0.2493  0.2366
 3324DPPC   C2A61578  26.060  19.545  22.438  0.0810  0.0482 -0.3211
 3324DPPC   C3A61579  26.118  19.911  22.316 -0.0077  0.2445  0.1239
 3324DPPC   C4A61580  26.611  20.021  22.347 -0.2001 -0.0357 -0.0984
 3324DPPC   C1B61581  25.677  20.011  22.584  0.1632  0.2843 -0.0465
 3324DPPC   C2B61582  26.103  20.230  22.655 -0.0206  0.0250 -0.3386
 3324DPPC   C3B61583  26.488  20.422  22.609  0.1660 -0.2607  0.0965
 3324DPPC   C4B61584  26.633  20.756  22.317  0.3493 -0.1817 -0.1926
 3325DPPC   NC361585  19.658  28.718   1.213  0.5159 -0.0528  0.0361
 3325DPPC   PO461586  20.060  28.740   1.184 -0.0100 -0.1957 -0.0761
 3325DPPC   GL161587  20.075  29.244   1.173 -0.2025 -0.1705 -0.1187
 3325DPPC   GL261588  19.845  29.524   1.270  0.0847 -0.1348 -0.0026
 3325DPPC   C1A61589  20.334  29.611   1.383  0.0369 -0.4796 -0.2144
 3325DPPC   C2A61590  20.385  29.952   1.501  0.0783  0.1597 -0.2437
 3325DPPC   C3A61591  20.570  30.305   1.701 -0.0895 -0.2989 -0.1469
 3325DPPC   C4A61592  20.763  30.771   1.743 -0.0452  0.1400  0.0434
 3325DPPC   C1B61593  19.897  29.989   1.269 -0.0613  0.0871 -0.2402
 3325DPPC   C2B61594  19.865  30.203   1.608 -0.2487  0.0188 -0.0934
 3325DPPC   C3B61595  19.901  30.689   1.634 -0.0201  0.1470 -0.1530
 3325DPPC   C4B61596  20.021  30.971   1.923 -0.0298 -0.1577 -0.1757
 3326DPPC   NC361597  18.180  28.350   0.905 -0.2230 -0.0164  0.0091
 3326DPPC   PO461598  18.078  28.650   1.244  0.0481  0.1450  0.0274
 3326DPPC   GL161599  17.894  28.889   1.530 -0.2200  0.0153 -0.1858
 3326DPPC   GL261600  17.654  28.869   1.362  0.0239 -0.0361 -0.0584
 3326DPPC   C1A61601  17.599  29.041   1.860 -0.2066  0.0616  0.1082
 3326DPPC   C2A61602  17.571  29.079   2.305  0.2205 -0.2968  0.0671
 3326DPPC   C3A61603  17.747  28.836   2.675  0.3653 -0.1661 -0.0229
 3326DPPC   C4A61604  17.983  28.749   3.075 -0.0610 -0.0056 -0.0324
 3326DPPC   C1B61605  17.196  29.065   1.528 -0.1846 -0.2709  0.2617
 3326DPPC   C2B61606  16.781  29.172   1.700 -0.0835  0.3418  0.0463
 3326DPPC   C3B61607  16.696  29.035   2.147 -0.1706 -0.0336  0.2076
 3326DPPC   C4B61608  16.833  28.844   2.523  0.2388  0.1333 -0.0899
 3327DPPC   NC361609  17.948  25.595  23.073  0.0003 -0.3393  0.0334
 3327DPPC   PO461610  17.506  25.549  23.135 -0.0471  0.1038 -0.0974
 3327DPPC   GL161611  17.149  25.519  23.112 -0.2261 -0.1983 -0.2815
 3327DPPC   GL261612  16.905  25.698  23.117 -0.2966  0.1774  0.4931
 3327DPPC   C1A61613  16.958  25.264  22.876  0.1212 -0.0537 -0.0455
 3327DPPC   C2A61614  16.656  25.181  22.997 -0.0710  0.1645  0.0971
 3327DPPC   C3A61615  16.367  25.095  22.935  0.1752  0.1041  0.0546
 3327DPPC   C4A61616  16.080  24.798  22.926 -0.2091  0.0562 -0.0825
 3327DPPC   C1B61617  16.517  25.680  23.304  0.1213  0.0319 -0.0331
 3327DPPC   C2B61618  16.043  25.614  23.334  0.1463  0.0622 -0.0238
 3327DPPC   C3B61619  15.786  25.417  23.117  0.0330 -0.0684  0.0337
 3327DPPC   C4B61620  15.568  25.024  23.015 -0.2011  0.1322 -0.0331
 3328DPPC   NC361621  17.932  23.929  22.059  0.2434  0.3678 -0.1212
 3328DPPC   PO461622  17.662  24.228  22.272 -0.0107  0.0368  0.2119
 3328DPPC   GL161623  17.231  24.221  22.267 -0.0835  0.2067  0.1241
 3328DPPC   GL261624  17.234  24.172  22.617  0.0283  0.1118 -0.1166
 3328DPPC   C1A61625  16.905  24.084  21.981  0.0321 -0.1230 -0.1233
 3328DPPC   C2A61626  16.598  24.092  21.667  0.0979  0.0054 -0.3712
 3328DPPC   C3A61627  16.240  23.994  21.288  0.0590  0.1722  0.0491
 3328DPPC   C4A61628  15.973  24.030  21.048 -0.0933  0.0388 -0.2568
 3328DPPC   C1B61629  16.956  23.954  22.595 -0.0898  0.3794  0.0181
 3328DPPC   C2B61630  16.737  23.638  22.475  0.1293  0.4144  0.0714
 3328DPPC   C3B61631  16.503  23.343  22.323  0.4499 -0.1001  0.0018
 3328DPPC   C4B61632  16.240  23.012  22.197 -0.4642 -0.1209  0.2092
 3329DPPC   NC361633  25.279  19.728  25.296  0.0901 -0.0088  0.2064
 3329DPPC   PO461634  25.339  19.562  25.760  0.0713 -0.1108 -0.0347
 3329DPPC   GL161635  25.250  19.215  25.805  0.0072 -0.0307  0.1797
 3329DPPC   GL261636  24.988  19.326  26.106  0.0040  0.1795  0.1278
 3329DPPC   C1A61637  25.148  18.744  25.913  0.1758 -0.1642  0.0385
 3329DPPC   C2A61638  25.408  18.381  26.138 -0.0942  0.3312 -0.0331
 3329DPPC   C3A61639  25.753  18.128  26.127 -0.0570 -0.0263  0.3345
 3329DPPC   C4A61640  26.142  18.261  25.923 -0.0660  0.2117 -0.1599
 3329DPPC   C1B61641  24.821  18.979  26.206 -0.2235 -0.1189  0.1694
 3329DPPC   C2B61642  24.679  18.619  26.178  0.2636 -0.0012 -0.0269
 3329DPPC   C3B61643  24.433  18.241  26.129 -0.1123  0.0977  0.1410
 3329DPPC   C4B61644  24.376  17.820  26.065 -0.2385  0.1136 -0.0169
 3330DPPC   NC361645  27.403  24.004   4.142 -0.1576 -0.0107  0.1988
 3330DPPC   PO461646  27.871  23.933   3.912  0.1147 -0.0333  0.0128
 3330DPPC   GL161647  28.254  24.056   4.051 -0.0326  0.0305 -0.0544
 3330DPPC   GL261648  28.374  24.041   3.862 -0.0674 -0.1343 -0.2180
 3330DPPC   C1A61649  28.698  24.018   4.227  0.1719 -0.2491 -0.2164
 3330DPPC   C2A61650  29.014  24.008   4.523  0.1090 -0.0827  0.0015
 3330DPPC   C3A61651  29.340  24.008   4.770  0.0700  0.1344 -0.1054
 3330DPPC   C4A61652  29.412  24.128   5.268 -0.0441  0.1930  0.0275
 3330DPPC   C1B61653  28.766  23.817   3.670  0.0426  0.0949  0.3703
 3330DPPC   C2B61654  29.224  23.835   3.607 -0.1744  0.2076 -0.1512
 3330DPPC   C3B61655  29.533  23.527   3.837  0.0978 -0.1426  0.0308
 3330DPPC   C4B61656  29.763  23.341   4.133  0.0740  0.0912  0.0354
 3331DPPC   NC361657  18.561  28.489   1.256  0.0756 -0.0498  0.3062
 3331DPPC   PO461658  18.659  28.406   1.628 -0.1677 -0.2202 -0.3453
 3331DPPC   GL161659  18.310  28.281   1.779  0.0631  0.1053  0.0103
 3331DPPC   GL261660  18.200  28.534   1.741 -0.0154  0.2544 -0.2727
 3331DPPC   C1A61661  18.028  28.114   2.070 -0.0960  0.1241 -0.0300
 3331DPPC   C2A61662  17.825  28.280   2.455  0.2821 -0.0802 -0.2170
 3331DPPC   C3A61663  17.648  28.411   2.894  0.3353  0.0918 -0.3227
 3331DPPC   C4A61664  17.470  28.774   3.166  0.0333  0.0082  0.0838
 3331DPPC   C1B61665  18.039  28.645   2.049 -0.0892 -0.3042  0.0069
 3331DPPC   C2B61666  18.113  29.048   2.216  0.0075  0.5132 -0.1600
 3331DPPC   C3B61667  18.016  29.392   2.477  0.1807  0.0972  0.3594
 3331DPPC   C4B61668  17.938  29.725   2.640 -0.3850  0.0154  0.0229
 3332DPPC   NC361669  24.195  22.064   2.173 -0.1227 -0.0622 -0.1837
 3332DPPC   PO461670  24.225  22.340   2.547  0.4419  0.0353 -0.1828
 3332DPPC   GL161671  24.025  22.030   2.668 -0.2938 -0.3437 -0.1433
 3332DPPC   GL261672  23.886  21.717   2.571  0.0931 -0.2140 -0.1484
 3332DPPC   C1A61673  24.222  21.662   2.903 -0.4217 -0.3226  0.2214
 3332DPPC   C2A61674  24.328  21.292   3.190 -0.1832 -0.0573 -0.1328
 3332DPPC   C3A61675  24.114  21.002   3.553  0.2366 -0.1412  0.0634
 3332DPPC   C4A61676  23.680  20.938   3.672 -0.0119 -0.0369 -0.2709
 3332DPPC   C1B61677  23.697  21.653   2.964  0.1426 -0.0051  0.0306
 3332DPPC   C2B61678  23.789  21.436   3.357  0.1940  0.0698  0.0717
 3332DPPC   C3B61679  23.751  21.473   3.653  0.1558  0.1107 -0.2390
 3332DPPC   C4B61680  23.627  21.356   4.057  0.0390 -0.5301  0.3177
 3333DPPC   NC361681  25.831  26.712   4.781 -0.0478 -0.0375 -0.0755
 3333DPPC   PO461682  25.411  26.761   4.736 -0.0353  0.2759  0.1602
 3333DPPC   GL161683  25.645  27.113   4.435 -0.1032  0.0176 -0.2450
 3333DPPC   GL261684  25.797  27.489   4.585 -0.1954 -0.0053 -0.1892
 3333DPPC   C1A61685  25.529  27.471   4.146  0.0950 -0.1653 -0.3240
 3333DPPC   C2A61686  25.575  27.946   4.279  0.0196 -0.0452 -0.0255
 3333DPPC   C3A61687  25.887  28.072   4.547  0.0669  0.1715  0.1600
 3333DPPC   C4A61688  26.157  27.917   4.826 -0.3042 -0.0010  0.0283
 3333DPPC   C1B61689  26.030  27.648   4.249  0.2967 -0.0832 -0.0094
 3333DPPC   C2B61690  26.430  27.666   4.023  0.3390  0.1035 -0.1667
 3333DPPC   C3B61691  26.798  27.505   3.994 -0.2718 -0.0287 -0.1979
 3333DPPC   C4B61692  27.197  27.433   4.030  0.4291 -0.1982  0.1453
 3334DPPC   NC361693  27.054  24.433   3.730  0.0526 -0.0177  0.2305
 3334DPPC   PO461694  26.690  24.591   3.728 -0.0802 -0.2206  0.0497
 3334DPPC   GL161695  26.946  24.764   3.392  0.0535 -0.1740  0.0092
 3334DPPC   GL261696  27.207  25.071   3.320  0.1686 -0.0913 -0.0711
 3334DPPC   C1A61697  27.015  24.867   2.923  0.0273  0.0913  0.0353
 3334DPPC   C2A61698  27.428  24.934   2.705 -0.3537  0.0295 -0.1355
 3334DPPC   C3A61699  27.699  24.801   2.236 -0.1996  0.1090  0.0588
 3334DPPC   C4A61700  27.701  24.846   1.797  0.1061  0.1647  0.0275
 3334DPPC   C1B61701  27.481  25.263   3.095  0.3828 -0.3809  0.2922
 3334DPPC   C2B61702  27.740  25.525   2.865 -0.1864 -0.1460 -0.0146
 3334DPPC   C3B61703  28.018  25.799   2.601  0.0900 -0.0809  0.0178
 3334DPPC   C4B61704  28.396  25.848   2.764 -0.1018  0.0586  0.0834
 3335DPPC   NC361705  18.019  25.674  19.677  0.0838 -0.3215  0.1768
 3335DPPC   PO461706  18.285  25.682  19.862 -0.2620  0.1310  0.1055
 3335DPPC   GL161707  18.619  25.772  19.567  0.0541 -0.0529 -0.1484
 3335DPPC   GL261708  18.861  25.569  19.453 -0.0758 -0.5107 -0.1133
 3335DPPC   C1A61709  18.640  25.774  19.092 -0.3073  0.0520  0.0186
 3335DPPC   C2A61710  18.731  25.689  18.657 -0.1200  0.0331  0.1662
 3335DPPC   C3A61711  18.687  25.702  18.184 -0.2892 -0.2737  0.0784
 3335DPPC   C4A61712  18.836  25.750  17.797  0.4572 -0.0575  0.0597
 3335DPPC   C1B61713  19.007  25.954  19.386  0.1846 -0.4019 -0.0830
 3335DPPC   C2B61714  18.739  26.337  19.214 -0.2073  0.0439 -0.1231
 3335DPPC   C3B61715  18.741  26.560  18.857  0.1946 -0.2685 -0.2045
 3335DPPC   C4B61716  18.731  26.622  18.520 -0.0901 -0.3489  0.2558
 3336DPPC   NC361717  20.888  28.927   4.260  0.2380  0.1591 -0.2362
 3336DPPC   PO461718  21.218  28.953   3.850 -0.1055 -0.0700 -0.0320
 3336DPPC   GL161719  21.472  29.227   4.121  0.3225 -0.2831 -0.2806
 3336DPPC   GL261720  21.189  29.305   4.314  0.0925 -0.3337  0.1930
 3336DPPC   C1A61721  21.689  29.631   4.073  0.0695  0.3771  0.0217
 3336DPPC   C2A61722  21.897  30.002   4.096 -0.1465  0.4387 -0.3512
 3336DPPC   C3A61723  22.141  30.323   4.082 -0.0488  0.5112  0.0306
 3336DPPC   C4A61724  22.410  30.703   3.978 -0.1420 -0.3225  0.0276
 3336DPPC   C1B61725  21.021  29.573   4.613  0.0300 -0.2536  0.0633
 3336DPPC   C2B61726  21.036  30.090   4.621 -0.0766  0.0609 -0.2063
 3336DPPC   C3B61727  21.012  30.533   4.533  0.0700  0.1688 -0.0555
 3336DPPC   C4B61728  21.147  30.645   4.136  0.2876 -0.3287  0.2047
 3337DPPC   NC361729  18.255  26.473  21.971  0.2606  0.2078 -0.2027
 3337DPPC   PO461730  18.542  26.695  21.716 -0.0406  0.0096 -0.1405
 3337DPPC   GL161731  18.755  27.154  21.600 -0.0148  0.1462  0.0561
 3337DPPC   GL261732  18.686  27.378  21.516  0.1073 -0.0871 -0.4136
 3337DPPC   C1A61733  19.260  27.359  21.468 -0.4196 -0.0001  0.2091
 3337DPPC   C2A61734  19.659  27.395  21.245  0.4370  0.0269 -0.3204
 3337DPPC   C3A61735  20.028  27.403  21.116 -0.2727  0.1555  0.0419
 3337DPPC   C4A61736  20.437  27.415  20.853  0.0699  0.3302 -0.2126
 3337DPPC   C1B61737  18.516  27.822  21.266 -0.1798 -0.1157 -0.0930
 3337DPPC   C2B61738  18.696  27.862  20.818  0.0520 -0.3111 -0.5528
 3337DPPC   C3B61739  18.846  27.790  20.302 -0.1056 -0.3217 -0.4019
 3337DPPC   C4B61740  18.729  28.050  19.992  0.0924 -0.0334  0.3322
 3338DPPC   NC361741  23.004  21.347   0.050  0.6285 -0.0799 -0.1837
 3338DPPC   PO461742  23.272  21.051   0.051  0.0402  0.2027 -0.5256
 3338DPPC   GL161743  23.196  20.654   0.087 -0.2412 -0.1554  0.1753
 3338DPPC   GL261744  22.860  20.587   0.084 -0.1883  0.1101 -0.3620
 3338DPPC   C1A61745  23.159  20.195   0.133 -0.1479 -0.0934 -0.7695
 3338DPPC   C2A61746  23.002  19.835   0.330  0.2738 -0.1852 -0.1630
 3338DPPC   C3A61747  22.641  19.710   0.233  0.2515  0.0739 -0.2783
 3338DPPC   C4A61748  22.314  19.487   0.527  0.2193  0.1239 -0.1423
 3338DPPC   C1B61749  22.634  20.208   0.021  0.2344  0.0222  0.0509
 3338DPPC   C2B61750  22.167  20.103  26.899  0.1721 -0.1101  0.2186
 3338DPPC   C3B61751  21.717  20.332   0.052 -0.0365  0.5172  0.1281
 3338DPPC   C4B61752  21.404  20.059   0.325  0.3601  0.1747 -0.1113
 3339DPPC   NC361753  19.920  20.802  20.565 -0.2212  0.0614  0.1716
 3339DPPC   PO461754  19.847  20.919  20.210 -0.2444 -0.0201 -0.0047
 3339DPPC   GL161755  19.516  20.776  20.235  0.0117  0.1715 -0.1956
 3339DPPC   GL261756  19.446  20.652  20.422  0.4075 -0.0258  0.0580
 3339DPPC   C1A61757  19.472  20.300  20.085  0.0270  0.0957  0.0254
 3339DPPC   C2A61758  19.225  20.066  20.228  0.3774  0.1376 -0.1176
 3339DPPC   C3A61759  18.888  19.889  20.406  0.1778  0.0972 -0.4382
 3339DPPC   C4A61760  18.514  19.883  20.527 -0.0984  0.0634 -0.4182
 3339DPPC   C1B61761  18.988  20.550  20.298 -0.4792 -0.0878  0.0580
 3339DPPC   C2B61762  18.599  20.347  20.504  0.0205 -0.1722  0.2589
 3339DPPC   C3B61763  18.126  20.162  20.624  0.0052 -0.1580  0.1629
 3339DPPC   C4B61764  18.032  19.750  20.622 -0.1017  0.2578  0.2678
 3340DPPC   NC361765  24.910  21.994   0.100 -0.1679  0.2006 -0.1270
 3340DPPC   PO461766  25.079  21.651  26.805 -0.1502 -0.1990  0.1970
 3340DPPC   GL161767  24.954  21.942  26.550  0.1280 -0.2450 -0.2049
 3340DPPC   GL261768  25.238  22.190  26.712 -0.1640  0.4159 -0.3978
 3340DPPC   C1A61769  25.329  22.022  26.305 -0.0521  0.0107  0.0651
 3340DPPC   C2A61770  25.380  22.221  25.910 -0.1941  0.5067 -0.2089
 3340DPPC   C3A61771  25.585  22.543  25.638  0.1639  0.2203  0.1516
 3340DPPC   C4A61772  26.030  22.528  25.594  0.0042  0.1714  0.2944
 3340DPPC   C1B61773  25.617  22.383  26.652  0.0235  0.1563  0.0267
 3340DPPC   C2B61774  26.095  22.511  26.804  0.1187  0.0749  0.2097
 3340DPPC   C3B61775  26.475  22.405  26.783 -0.3832 -0.1740 -0.0075
 3340DPPC   C4B61776  26.835  22.701  26.809 -0.4123 -0.2171  0.1284
 3341DPPC   NC361777  22.153  24.979   3.582 -0.0624 -0.0723  0.1512
 3341DPPC   PO461778  21.731  24.896   3.493 -0.1730  0.5561  0.1869
 3341DPPC   GL161779  21.390  24.777   3.742 -0.2428  0.1029 -0.3167
 3341DPPC   GL261780  21.131  24.934   3.832 -0.1104 -0.2501  0.2410
 3341DPPC   C1A61781  21.471  24.535   3.993 -0.1560 -0.1052  0.0001
 3341DPPC   C2A61782  21.147  24.451   4.377  0.0395 -0.2839  0.0279
 3341DPPC   C3A61783  20.877  24.534   4.791 -0.1159  0.0312  0.0065
 3341DPPC   C4A61784  20.825  24.443   5.220  0.0751  0.1157 -0.0157
 3341DPPC   C1B61785  20.754  24.679   3.852 -0.0558  0.2562 -0.0404
 3341DPPC   C2B61786  20.349  24.482   3.940  0.0959  0.1048 -0.0919
 3341DPPC   C3B61787  19.905  24.387   4.040  0.2887 -0.2256 -0.0911
 3341DPPC   C4B61788  19.566  24.167   3.974  0.1482  0.1101  0.0571
 3342DPPC   NC361789  24.342  23.291   3.081 -0.0744 -0.0533 -0.0482
 3342DPPC   PO461790  24.235  23.319   3.587 -0.4533  0.3328  0.0505
 3342DPPC   GL161791  24.278  22.903   3.778 -0.0506  0.2547  0.3462
 3342DPPC   GL261792  24.526  22.930   3.981 -0.0168 -0.0667  0.0534
 3342DPPC   C1A61793  24.102  22.468   3.916  0.0643  0.1464  0.1151
 3342DPPC   C2A61794  23.860  22.306   4.203  0.0250 -0.2486 -0.0581
 3342DPPC   C3A61795  23.570  22.467   4.539 -0.1231  0.0815  0.1634
 3342DPPC   C4A61796  23.141  22.473   4.544  0.1958  0.1840  0.0102
 3342DPPC   C1B61797  24.310  22.700   4.330  0.3776  0.0897 -0.1847
 3342DPPC   C2B61798  24.283  22.442   4.518 -0.3849  0.3490 -0.0488
 3342DPPC   C3B61799  24.443  22.211   4.867  0.0142 -0.2866  0.1555
 3342DPPC   C4B61800  24.390  21.881   5.170 -0.5564 -0.2661 -0.0077
 3343DPPC   NC361801  26.779  19.642  25.344  0.1484 -0.2997  0.2295
 3343DPPC   PO461802  26.579  19.301  25.205 -0.0545  0.0196 -0.2133
 3343DPPC   GL161803  26.835  19.001  25.432  0.3066  0.2142  0.1023
 3343DPPC   GL261804  27.059  19.228  25.437 -0.0264  0.1752  0.3888
 3343DPPC   C1A61805  26.946  18.697  25.683 -0.3017  0.2717  0.0431
 3343DPPC   C2A61806  27.146  18.534  26.017 -0.0811 -0.0030  0.2489
 3343DPPC   C3A61807  27.548  18.513  26.072  0.0971 -0.0973 -0.2744
 3343DPPC   C4A61808  27.993  18.787  26.133  0.1361  0.2782 -0.1528
 3343DPPC   C1B61809  27.443  19.345  25.355  0.2373  0.1581  0.1357
 3343DPPC   C2B61810  27.808  19.368  25.185  0.0660  0.0750 -0.1089
 3343DPPC   C3B61811  27.985  19.771  24.892 -0.2066 -0.0207  0.1346
 3343DPPC   C4B61812  28.230  19.910  24.601  0.0400  0.1368  0.2080
 3344DPPC   NC361813  22.341  25.320   4.297 -0.1762 -0.0043 -0.3865
 3344DPPC   PO461814  22.751  25.596   4.500 -0.0877  0.4362  0.0700
 3344DPPC   GL161815  22.525  25.298   4.778 -0.2480  0.2159  0.2635
 3344DPPC   GL261816  22.331  24.943   4.634 -0.1125  0.1004 -0.3318
 3344DPPC   C1A61817  22.199  25.222   4.980 -0.0124  0.2583  0.4116
 3344DPPC   C2A61818  21.907  25.426   5.111  0.1337 -0.1247 -0.0597
 3344DPPC   C3A61819  21.715  25.882   5.087 -0.1402 -0.1462 -0.1177
 3344DPPC   C4A61820  21.338  26.006   4.834 -0.0338 -0.3925 -0.1745
 3344DPPC   C1B61821  22.052  24.682   4.688 -0.0795  0.2626  0.0229
 3344DPPC   C2B61822  21.846  24.384   4.901 -0.0487 -0.3555  0.1472
 3344DPPC   C3B61823  21.670  24.431   5.311  0.0885  0.0096 -0.0420
 3344DPPC   C4B61824  21.719  24.523   5.718 -0.0631  0.0825 -0.0546
 3345DPPC   NC361825  17.975  29.629  26.549 -0.2817 -0.2316 -0.2049
 3345DPPC   PO461826  17.743  29.293  26.406  0.1962 -0.3147 -0.1629
 3345DPPC   GL161827  17.484  29.645  26.403  0.0253 -0.2920 -0.3877
 3345DPPC   GL261828  17.632  29.960  26.243 -0.1337 -0.2299 -0.0390
 3345DPPC   C1A61829  17.196  29.987  26.528 -0.0489 -0.1285  0.1070
 3345DPPC   C2A61830  16.983  30.224  26.284  0.2049 -0.2868  0.1272
 3345DPPC   C3A61831  16.545  30.378  26.060  0.1907  0.1114 -0.2451
 3345DPPC   C4A61832  16.170  30.309  26.345  0.1732 -0.1384 -0.1429
 3345DPPC   C1B61833  17.475  30.378  26.101  0.0090 -0.1366 -0.3116
 3345DPPC   C2B61834  17.512  30.813  25.890 -0.1668  0.0206  0.1402
 3345DPPC   C3B61835  17.344  31.268  25.717  0.2979 -0.0633  0.1151
 3345DPPC   C4B61836  16.874  31.397  25.550  0.2603  0.1719  0.3459
 3346DPPC   NC361837  27.486  22.785   3.636  0.0002 -0.1683  0.0306
 3346DPPC   PO461838  27.664  23.102   3.392 -0.0599  0.1599  0.3675
 3346DPPC   GL161839  27.928  23.159   3.670  0.3764 -0.2125  0.1478
 3346DPPC   GL261840  27.896  22.983   3.945  0.1751  0.3337 -0.3249
 3346DPPC   C1A61841  28.391  23.048   3.818  0.3184 -0.0081 -0.2313
 3346DPPC   C2A61842  28.651  23.093   4.130  0.2093  0.3697  0.0704
 3346DPPC   C3A61843  28.973  23.051   4.070  0.1495 -0.0525 -0.0016
 3346DPPC   C4A61844  29.366  23.067   4.103 -0.2182 -0.0805  0.1176
 3346DPPC   C1B61845  28.183  22.710   4.141  0.0021  0.0285  0.0315
 3346DPPC   C2B61846  28.551  22.520   4.034  0.1972  0.0816  0.2180
 3346DPPC   C3B61847  28.895  22.411   3.936 -0.3182  0.0229 -0.2085
 3346DPPC   C4B61848  29.144  22.174   3.731  0.2684 -0.0224  0.2506
 3347DPPC   NC361849  17.035  26.716  21.640  0.4789 -0.0975  0.5184
 3347DPPC   PO461850  16.674  26.751  21.502  0.1172  0.0477  0.1545
 3347DPPC   GL161851  16.266  26.806  21.588 -0.1073  0.0178 -0.4145
 3347DPPC   GL261852  16.246  26.549  21.361 -0.0681 -0.1035 -0.0028
 3347DPPC   C1A61853  15.851  27.068  21.678  0.0670  0.1801 -0.0431
 3347DPPC   C2A61854  15.738  27.212  22.048 -0.0285 -0.1930 -0.1623
 3347DPPC   C3A61855  15.641  27.575  22.283 -0.0787  0.2539 -0.0210
 3347DPPC   C4A61856  15.635  27.993  22.284  0.0984  0.1162 -0.3813
 3347DPPC   C1B61857  15.855  26.550  21.533  0.0891  0.1788 -0.0342
 3347DPPC   C2B61858  15.416  26.811  21.428  0.0330  0.3003 -0.1782
 3347DPPC   C3B61859  15.169  26.808  21.659 -0.1697 -0.0998 -0.1880
 3347DPPC   C4B61860  14.831  26.981  21.516 -0.2630  0.3064 -0.1158
 3348DPPC   NC361861  22.362  20.367  24.635  0.0644  0.0498 -0.0327
 3348DPPC   PO461862  22.252  20.217  24.224  0.2904  0.2314 -0.2380
 3348DPPC   GL161863  22.018  19.961  24.443  0.1835 -0.0000 -0.1154
 3348DPPC   GL261864  22.000  19.703  24.220 -0.1495 -0.0177 -0.1832
 3348DPPC   C1A61865  21.868  19.695  24.727  0.1604  0.1374  0.1672
 3348DPPC   C2A61866  21.489  19.612  24.840 -0.2035 -0.1315  0.1228
 3348DPPC   C3A61867  20.973  19.580  24.717  0.2862 -0.0345 -0.1449
 3348DPPC   C4A61868  20.719  19.374  24.393 -0.0641  0.0574 -0.0883
 3348DPPC   C1B61869  21.873  19.247  24.238  0.2014 -0.0981  0.4060
 3348DPPC   C2B61870  21.753  18.880  24.445  0.1550 -0.1213  0.1372
 3348DPPC   C3B61871  21.775  18.499  24.504  0.0098  0.2419 -0.1294
 3348DPPC   C4B61872  21.758  18.125  24.577  0.2300 -0.1642 -0.1185
 3349DPPC   NC361873  24.101  20.949  25.818 -0.0362 -0.2444  0.0500
 3349DPPC   PO461874  23.856  21.185  25.580  0.0343 -0.0112 -0.2248
 3349DPPC   GL161875  24.235  21.325  25.309 -0.2709 -0.2114 -0.3234
 3349DPPC   GL261876  24.240  21.626  25.164  0.0685 -0.2679  0.0554
 3349DPPC   C1A61877  24.741  21.473  25.194  0.2229  0.0877  0.4153
 3349DPPC   C2A61878  24.899  21.853  25.096 -0.0120 -0.1782 -0.0800
 3349DPPC   C3A61879  25.343  21.963  24.996 -0.1223  0.3268 -0.2169
 3349DPPC   C4A61880  25.539  22.183  24.703 -0.1218  0.2945  0.0114
 3349DPPC   C1B61881  24.455  21.984  25.005  0.3576  0.1797 -0.1365
 3349DPPC   C2B61882  24.442  22.260  24.632 -0.1892 -0.1409  0.3306
 3349DPPC   C3B61883  24.607  22.594  24.570 -0.2006 -0.3385 -0.2955
 3349DPPC   C4B61884  24.841  22.844  24.545 -0.0225 -0.2253  0.1257
 3350DPPC   NC361885  26.423  26.341   5.358 -0.2423  0.0173 -0.2668
 3350DPPC   PO461886  26.758  26.097   4.985 -0.2334 -0.0629 -0.1365
 3350DPPC   GL161887  26.875  26.521   5.149  0.1953 -0.1124  0.2524
 3350DPPC   GL261888  26.910  26.779   4.967 -0.3624 -0.0966 -0.0765
 3350DPPC   C1A61889  27.073  26.544   5.540 -0.4191 -0.2451 -0.0753
 3350DPPC   C2A61890  27.274  26.767   5.928 -0.3921  0.1698  0.2236
 3350DPPC   C3A61891  27.661  26.782   6.092 -0.2298  0.1572  0.1079
 3350DPPC   C4A61892  27.897  26.834   6.518 -0.1725 -0.1247 -0.0840
 3350DPPC   C1B61893  27.184  27.023   5.154 -0.0807  0.2067 -0.2284
 3350DPPC   C2B61894  27.216  27.466   5.315 -0.2301 -0.1781  0.1998
 3350DPPC   C3B61895  27.079  27.880   5.242  0.2498 -0.3655  0.3182
 3350DPPC   C4B61896  26.741  28.133   5.029  0.1542 -0.1375  0.1048
 3351DPPC   NC361897  26.819  24.796   5.082 -0.0949  0.0577  0.0225
 3351DPPC   PO461898  26.524  24.655   4.783  0.1762 -0.0462 -0.1220
 3351DPPC   GL161899  26.432  24.467   5.203  0.0110  0.3059 -0.2293
 3351DPPC   GL261900  26.140  24.204   5.269 -0.1007  0.1092  0.3419
 3351DPPC   C1A61901  26.593  24.150   5.488  0.3049  0.0326 -0.0482
 3351DPPC   C2A61902  26.864  24.051   5.846  0.1907 -0.0028  0.0460
 3351DPPC   C3A61903  27.154  23.821   6.122 -0.2527  0.0675  0.0808
 3351DPPC   C4A61904  27.403  23.694   6.489  0.0690  0.2152 -0.1617
 3351DPPC   C1B61905  26.023  24.126   5.690 -0.0930 -0.1338 -0.3700
 3351DPPC   C2B61906  25.798  23.984   6.064  0.1172  0.5096  0.0932
 3351DPPC   C3B61907  25.380  24.028   6.155 -0.0642 -0.0147  0.0328
 3351DPPC   C4B61908  25.014  24.242   6.380  0.1616 -0.2305 -0.0370
 3352DPPC   NC361909  18.637  22.864  19.902 -0.0648 -0.2982  0.1063
 3352DPPC   PO461910  18.220  22.938  19.746 -0.1319  0.2989  0.0587
 3352DPPC   GL161911  17.817  23.026  19.614  0.2663 -0.3585  0.1781
 3352DPPC   GL261912  17.719  23.328  19.749  0.1999 -0.3427  0.2046
 3352DPPC   C1A61913  17.476  22.806  19.390 -0.1232 -0.2105 -0.3147
 3352DPPC   C2A61914  17.074  22.814  19.511 -0.2137 -0.0540 -0.0706
 3352DPPC   C3A61915  16.648  22.645  19.441  0.3995 -0.2944 -0.0396
 3352DPPC   C4A61916  16.226  22.576  19.602 -0.1742 -0.1045 -0.1361
 3352DPPC   C1B61917  17.352  23.154  19.782  0.1858 -0.1090 -0.1910
 3352DPPC   C2B61918  17.069  22.894  19.980  0.2066  0.2695 -0.0348
 3352DPPC   C3B61919  16.667  22.879  19.952 -0.2424  0.2245  0.3339
 3352DPPC   C4B61920  16.324  22.891  20.145 -0.2632 -0.1778 -0.0627
 3353DPPC   NC361921  19.370  21.227  19.945  0.1358  0.1783  0.0371
 3353DPPC   PO461922  19.229  21.712  20.189  0.5625  0.2371  0.2399
 3353DPPC   GL161923  18.882  21.453  20.152 -0.2719  0.4667 -0.1209
 3353DPPC   GL261924  18.892  21.419  19.799  0.1700 -0.0307  0.2499
 3353DPPC   C1A61925  18.487  21.299  20.013  0.0325  0.1794  0.0506
 3353DPPC   C2A61926  18.366  20.988  19.647  0.1596 -0.2204 -0.2810
 3353DPPC   C3A61927  18.246  20.944  19.222  0.2734 -0.1817 -0.1081
 3353DPPC   C4A61928  17.923  20.783  18.925  0.1012  0.1483  0.1065
 3353DPPC   C1B61929  18.960  21.016  19.546 -0.0285 -0.0440 -0.0635
 3353DPPC   C2B61930  18.722  20.682  19.541  0.3023 -0.0163  0.2026
 3353DPPC   C3B61931  18.698  20.270  19.398  0.1535 -0.0848  0.0325
 3353DPPC   C4B61932  18.496  19.978  19.113  0.1875  0.2325 -0.0152
 3354DPPC   NC361933  23.749  18.909  21.070 -0.0348  0.0306 -0.1518
 3354DPPC   PO461934  23.838  19.253  20.795 -0.1613  0.0735 -0.1810
 3354DPPC   GL161935  23.942  19.026  20.491  0.0837 -0.0443 -0.0739
 3354DPPC   GL261936  24.050  18.712  20.592  0.0476  0.0465  0.0093
 3354DPPC   C1A61937  24.170  18.935  20.137 -0.0110  0.4270  0.2319
 3354DPPC   C2A61938  24.572  18.812  19.966  0.0758  0.1969  0.0803
 3354DPPC   C3A61939  24.893  18.731  19.683  0.3854 -0.1951 -0.0153
 3354DPPC   C4A61940  25.004  18.430  19.417  0.0182  0.2986 -0.1214
 3354DPPC   C1B61941  24.371  18.517  20.476  0.0842  0.0843 -0.0651
 3354DPPC   C2B61942  24.802  18.455  20.615  0.0291 -0.2025  0.1248
 3354DPPC   C3B61943  25.267  18.452  20.844 -0.2127 -0.1436  0.2267
 3354DPPC   C4B61944  25.701  18.358  20.963 -0.2818 -0.1421 -0.0228
 3355DPPC   NC361945  26.571  19.413  23.956  0.0387  0.0281  0.1027
 3355DPPC   PO461946  26.573  19.186  24.309  0.1463  0.2724  0.0710
 3355DPPC   GL161947  26.767  18.867  24.052 -0.0194  0.0400  0.0376
 3355DPPC   GL261948  26.859  18.961  23.821  0.1120 -0.0139  0.0620
 3355DPPC   C1A61949  27.136  18.630  24.127 -0.4049 -0.0486  0.1680
 3355DPPC   C2A61950  27.544  18.527  24.164 -0.0111  0.1126  0.3063
 3355DPPC   C3A61951  27.873  18.517  24.562  0.1074  0.0965  0.0707
 3355DPPC   C4A61952  27.851  18.853  24.875 -0.1487  0.3610  0.1208
 3355DPPC   C1B61953  27.278  19.071  23.892  0.1144 -0.0074 -0.0234
 3355DPPC   C2B61954  27.646  19.365  23.903 -0.2142  0.0079 -0.0776
 3355DPPC   C3B61955  27.736  19.680  24.133  0.1185 -0.3717 -0.3321
 3355DPPC   C4B61956  28.017  20.010  24.165 -0.1775  0.1187 -0.1282
 3356DPPC   NC361957  20.262  26.907   0.472 -0.1723 -0.1112 -0.2996
 3356DPPC   PO461958  20.319  27.264   0.784 -0.1158 -0.1924 -0.0440
 3356DPPC   GL161959  20.593  27.577   0.742 -0.1430 -0.0391  0.1808
 3356DPPC   GL261960  20.510  27.769   1.075 -0.0077  0.5424 -0.0545
 3356DPPC   C1A61961  20.600  28.022   0.579 -0.3143 -0.2544  0.2035
 3356DPPC   C2A61962  20.952  28.277   0.513  0.2049  0.2642  0.1499
 3356DPPC   C3A61963  21.150  28.619   0.498  0.0154 -0.1094  0.3977
 3356DPPC   C4A61964  21.403  28.835   0.206  0.0872  0.0594  0.0311
 3356DPPC   C1B61965  20.737  28.164   1.005 -0.0433 -0.1050  0.0054
 3356DPPC   C2B61966  20.953  28.620   0.934 -0.1440 -0.1377  0.3555
 3356DPPC   C3B61967  21.079  29.021   0.950 -0.2389 -0.0813 -0.1164
 3356DPPC   C4B61968  21.119  29.369   0.675  0.0887  0.3783 -0.3182
 3357DPPC   NC361969  17.414  29.390  26.853 -0.0131  0.4415 -0.2850
 3357DPPC   PO461970  17.102  29.102  26.839 -0.1540 -0.0149 -0.1285
 3357DPPC   GL161971  16.693  29.152  26.751  0.0030 -0.1638  0.1335
 3357DPPC   GL261972  16.631  29.164  26.447 -0.1103  0.2001 -0.4068
 3357DPPC   C1A61973  16.319  29.332  26.811 -0.1204 -0.1536 -0.2288
 3357DPPC   C2A61974  15.878  29.361   0.064  0.0861 -0.0106 -0.1031
 3357DPPC   C3A61975  15.687  29.662  26.766  0.3989  0.1433 -0.0899
 3357DPPC   C4A61976  15.816  30.098  26.642 -0.2302  0.0535 -0.0830
 3357DPPC   C1B61977  16.840  29.598  26.593  0.1539 -0.0108 -0.0565
 3357DPPC   C2B61978  16.855  29.978  26.836  0.1668 -0.3477 -0.0574
 3357DPPC   C3B61979  17.202  30.208   0.053  0.0793 -0.0701  0.0673
 3357DPPC   C4B61980  17.346  30.498  26.560  0.2702  0.0022 -0.0407
 3358DPPC   NC361981  24.543  20.152   0.004 -0.1063 -0.1264 -0.1039
 3358DPPC   PO461982  24.759  20.183   0.304 -0.3506  0.2189 -0.1542
 3358DPPC   GL161983  24.331  19.968   0.595  0.0880  0.2607 -0.0729
 3358DPPC   GL261984  24.477  19.858   0.834  0.2050  0.5340 -0.3485
 3358DPPC   C1A61985  24.009  19.719   0.742 -0.0266  0.3222 -0.1784
 3358DPPC   C2A61986  23.868  19.487   1.089 -0.2583 -0.1267 -0.0823
 3358DPPC   C3A61987  23.895  19.111   1.317  0.3492 -0.2328  0.0470
 3358DPPC   C4A61988  23.575  18.819   1.402  0.1556  0.2919 -0.1793
 3358DPPC   C1B61989  24.390  19.622   1.252  0.1700  0.0900  0.1141
 3358DPPC   C2B61990  24.234  19.352   1.624  0.0405 -0.0489  0.0036
 3358DPPC   C3B61991  23.990  19.058   1.869 -0.0212 -0.2640  0.1409
 3358DPPC   C4B61992  23.640  18.750   1.915 -0.2264 -0.3028 -0.1069
 3359DPPC   NC361993  23.983  19.799  21.959  0.2804 -0.0451  0.2325
 3359DPPC   PO461994  23.815  19.967  21.496 -0.1606  0.0923  0.0825
 3359DPPC   GL161995  24.209  20.122  21.587 -0.1234 -0.1429 -0.0135
 3359DPPC   GL261996  24.210  20.486  21.606  0.1341  0.0871 -0.1120
 3359DPPC   C1A61997  24.604  20.123  21.364  0.0534 -0.2838 -0.1551
 3359DPPC   C2A61998  24.957  20.185  21.328 -0.1100 -0.0085 -0.2642
 3359DPPC   C3A61999  25.119  20.567  21.197 -0.3460 -0.0767  0.1251
 3359DPPC   C4A62000  25.395  20.975  20.961  0.2513 -0.1793 -0.1390
 3359DPPC   C1B62001  24.387  20.533  21.260  0.0978  0.4457 -0.2564
 3359DPPC   C2B62002  24.369  20.671  20.912  0.0178 -0.2202 -0.2063
 3359DPPC   C3B62003  24.422  20.798  20.581 -0.0772  0.1730  0.0782
 3359DPPC   C4B62004  24.747  21.013  20.392  0.0413  0.1632  0.1147
 3360DPPC   NC362005  18.984  30.127  26.886  0.0507 -0.0174 -0.1936
 3360DPPC   PO462006  18.545  29.961  26.723  0.3498 -0.0285  0.2669
 3360DPPC   GL162007  18.590  30.266  26.457 -0.1116 -0.2119  0.0353
 3360DPPC   GL262008  18.380  30.338  26.192  0.0797  0.1652 -0.0448
 3360DPPC   C1A62009  18.890  30.445  26.142  0.1839 -0.1383  0.2353
 3360DPPC   C2A62010  19.300  30.508  26.078 -0.2915  0.1428 -0.2649
 3360DPPC   C3A62011  19.750  30.655  26.181  0.1780 -0.0085 -0.0198
 3360DPPC   C4A62012  19.874  30.945  26.467 -0.1358 -0.0936  0.1797
 3360DPPC   C1B62013  18.365  30.386  25.785  0.1334  0.0587  0.1771
 3360DPPC   C2B62014  18.697  30.606  25.604  0.0245  0.0009 -0.1330
 3360DPPC   C3B62015  18.842  30.983  25.339 -0.3443 -0.0638  0.2987
 3360DPPC   C4B62016  19.090  30.918  24.942 -0.4236 -0.3848  0.1091
 3361DPPC   NC362017  19.721  24.599  23.665  0.2395  0.0648 -0.0213
 3361DPPC   PO462018  19.586  24.926  23.842 -0.1356  0.0566  0.0115
 3361DPPC   GL162019  19.787  25.315  23.735  0.0821 -0.0643 -0.2990
 3361DPPC   GL262020  19.730  25.552  23.470 -0.0838  0.0065  0.1311
 3361DPPC   C1A62021  20.142  25.256  23.568 -0.4648  0.0162  0.2611
 3361DPPC   C2A62022  20.523  25.393  23.469 -0.0795  0.0654  0.2421
 3361DPPC   C3A62023  20.868  25.482  23.205 -0.1133 -0.2417 -0.0761
 3361DPPC   C4A62024  20.778  25.592  22.819 -0.1256 -0.1350  0.0411
 3361DPPC   C1B62025  20.149  25.740  23.566  0.1299 -0.3617  0.3268
 3361DPPC   C2B62026  20.245  26.021  23.763 -0.1516  0.2286  0.0036
 3361DPPC   C3B62027  20.508  26.474  23.604 -0.1122 -0.1770  0.1665
 3361DPPC   C4B62028  20.645  26.846  23.478 -0.0814 -0.2433 -0.0686
 3362DPPC   NC362029  18.201  23.373  20.564  0.2499 -0.0225 -0.1693
 3362DPPC   PO462030  18.197  23.820  20.624  0.0092  0.0679  0.3209
 3362DPPC   GL162031  17.741  23.600  20.505  0.0638 -0.0725  0.0562
 3362DPPC   GL262032  17.508  23.823  20.424  0.2612 -0.1269  0.0282
 3362DPPC   C1A62033  17.436  23.333  20.688  0.0610  0.0081 -0.0795
 3362DPPC   C2A62034  17.030  23.007  20.878  0.0993  0.2916  0.1828
 3362DPPC   C3A62035  16.799  22.680  20.883  0.1279  0.0942 -0.1118
 3362DPPC   C4A62036  16.605  22.470  21.104 -0.0720 -0.0333  0.0967
 3362DPPC   C1B62037  17.335  23.533  20.226  0.1328 -0.0797  0.1001
 3362DPPC   C2B62038  16.975  23.184  20.394 -0.1049 -0.2971  0.1609
 3362DPPC   C3B62039  16.766  22.815  20.415  0.0586  0.1737  0.0858
 3362DPPC   C4B62040  16.575  22.447  20.306  0.0968 -0.0729  0.0643
 3363DPPC   NC362041  21.928  23.694   2.019 -0.0918  0.1621 -0.0392
 3363DPPC   PO462042  21.753  23.426   1.748 -0.0228 -0.1438  0.0316
 3363DPPC   GL162043  21.516  23.212   1.960 -0.2429 -0.0147  0.3291
 3363DPPC   GL262044  21.433  23.382   2.176 -0.0998 -0.0732 -0.1322
 3363DPPC   C1A62045  21.377  22.841   2.160 -0.2962 -0.1039 -0.2708
 3363DPPC   C2A62046  21.107  22.524   2.369 -0.2777 -0.0564 -0.0676
 3363DPPC   C3A62047  20.982  22.135   2.649  0.1145 -0.0151  0.2175
 3363DPPC   C4A62048  20.890  21.873   3.000  0.4666 -0.0575 -0.1275
 3363DPPC   C1B62049  21.064  23.158   2.317 -0.0484  0.2598 -0.3248
 3363DPPC   C2B62050  21.063  22.907   2.707 -0.0061  0.0171 -0.2140
 3363DPPC   C3B62051  21.041  22.809   3.066 -0.0016  0.1359 -0.0737
 3363DPPC   C4B62052  20.937  22.827   3.408  0.0191 -0.2764 -0.1371
 3364DPPC   NC362053  24.243  20.097  26.114 -0.3548  0.2696 -0.1165
 3364DPPC   PO462054  24.196  20.019  26.528  0.0316  0.0496  0.1074
 3364DPPC   GL162055  23.878  19.711  26.686 -0.3045 -0.1859 -0.1173
 3364DPPC   GL262056  23.734  19.513  26.409  0.1064  0.0500 -0.0020
 3364DPPC   C1A62057  23.719  19.427   0.061 -0.2344 -0.1232  0.0565
 3364DPPC   C2A62058  23.800  19.273   0.485 -0.2685  0.2060  0.1494
 3364DPPC   C3A62059  23.548  19.187   0.865  0.2027 -0.1802 -0.0391
 3364DPPC   C4A62060  23.454  19.370   1.259 -0.0737  0.0735 -0.4257
 3364DPPC   C1B62061  23.407  19.329  26.635 -0.0292 -0.0282 -0.2537
 3364DPPC   C2B62062  23.291  18.925  26.681 -0.0825  0.3283 -0.6544
 3364DPPC   C3B62063  23.214  18.437  26.758  0.3364  0.1572 -0.0675
 3364DPPC   C4B62064  23.294  17.913  26.754  0.1914 -0.0507  0.1689
 3365DPPC   NC362065  22.047  20.687  24.287 -0.4248 -0.1652  0.0178
 3365DPPC   PO462066  21.996  20.815  24.688  0.0543  0.0770 -0.1604
 3365DPPC   GL162067  21.917  20.519  24.929 -0.0237 -0.0333 -0.1972
 3365DPPC   GL262068  21.719  20.360  25.272  0.0006  0.0391 -0.1144
 3365DPPC   C1A62069  21.585  20.186  24.844 -0.0029  0.3123  0.3887
 3365DPPC   C2A62070  21.190  20.251  24.870  0.0540 -0.0751  0.1101
 3365DPPC   C3A62071  20.854  19.951  24.991  0.2594  0.1440  0.0876
 3365DPPC   C4A62072  20.698  19.554  25.211  0.1658 -0.0515 -0.1997
 3365DPPC   C1B62073  21.549  19.928  25.479 -0.0706 -0.1654  0.1015
 3365DPPC   C2B62074  21.325  19.581  25.278  0.0119 -0.0621 -0.0595
 3365DPPC   C3B62075  21.101  19.227  25.029 -0.3336 -0.1792 -0.0891
 3365DPPC   C4B62076  20.703  18.959  25.305  0.1765 -0.0733 -0.1568
 3366DPPC   NC362077  20.195  22.750  21.827  0.0036  0.0857  0.1476
 3366DPPC   PO462078  20.555  22.448  21.930  0.1889  0.2895 -0.1614
 3366DPPC   GL162079  20.908  22.633  21.684 -0.2310 -0.1016 -0.2095
 3366DPPC   GL262080  21.288  22.621  21.750 -0.0607  0.1689 -0.0505
 3366DPPC   C1A62081  21.025  22.992  21.470  0.1729 -0.2027 -0.0428
 3366DPPC   C2A62082  21.407  23.205  21.363  0.1951  0.0819  0.2841
 3366DPPC   C3A62083  21.644  23.241  20.938 -0.1881  0.0334  0.1426
 3366DPPC   C4A62084  21.951  23.220  20.574 -0.0807 -0.1966 -0.0880
 3366DPPC   C1B62085  21.443  22.689  21.366  0.1563  0.2017  0.0036
 3366DPPC   C2B62086  21.426  22.728  20.976 -0.3069  0.0907 -0.1978
 3366DPPC   C3B62087  21.605  22.852  20.546 -0.0399 -0.1814 -0.0674
 3366DPPC   C4B62088  21.937  22.767  20.266  0.1532 -0.0853 -0.1628
 3367DPPC   NC362089  25.487  25.930   3.616  0.4097 -0.2092  0.1640
 3367DPPC   PO462090  25.892  25.766   3.867  0.0404  0.4823 -0.0797
 3367DPPC   GL162091  26.090  25.844   3.569  0.2123 -0.1266 -0.3549
 3367DPPC   GL262092  26.447  26.004   3.567 -0.0260 -0.1293  0.1939
 3367DPPC   C1A62093  25.978  25.744   3.225  0.0191  0.2668  0.2651
 3367DPPC   C2A62094  25.840  25.803   2.723  0.2223  0.1311 -0.4509
 3367DPPC   C3A62095  25.697  26.180   2.398  0.1403 -0.0202  0.1115
 3367DPPC   C4A62096  25.537  26.419   2.098  0.1876  0.3164  0.0661
 3367DPPC   C1B62097  26.754  26.169   3.258 -0.0252  0.1212  0.0468
 3367DPPC   C2B62098  26.966  26.517   2.962 -0.1921 -0.1035  0.4088
 3367DPPC   C3B62099  27.266  26.419   2.655 -0.0623  0.0800  0.0367
 3367DPPC   C4B62100  27.397  26.152   2.462 -0.3885 -0.0808 -0.1481
 3368DPPC   NC362101  21.947  27.736   2.745  0.2969 -0.1895 -0.0161
 3368DPPC   PO462102  21.837  28.173   2.678  0.0581 -0.0822  0.0136
 3368DPPC   GL162103  21.908  28.548   2.522  0.0935  0.0906  0.2787
 3368DPPC   GL262104  21.892  28.812   2.685  0.0264 -0.3174  0.0938
 3368DPPC   C1A62105  21.964  28.844   2.141 -0.0591 -0.0540 -0.0162
 3368DPPC   C2A62106  22.143  29.070   1.815  0.1835  0.0586 -0.0302
 3368DPPC   C3A62107  22.205  29.448   1.476  0.0970 -0.0378  0.2573
 3368DPPC   C4A62108  22.425  29.819   1.366 -0.0712  0.2059  0.1123
 3368DPPC   C1B62109  22.240  29.047   2.481 -0.1221  0.2860  0.1833
 3368DPPC   C2B62110  22.069  29.358   2.222  0.1717 -0.0526  0.1729
 3368DPPC   C3B62111  21.955  29.580   1.905 -0.0131  0.1483 -0.1256
 3368DPPC   C4B62112  22.076  29.993   1.662 -0.0749 -0.0726 -0.1429
 3369DPPC   NC362113  24.770  26.132   3.495 -0.2020  0.0858  0.1443
 3369DPPC   PO462114  25.117  26.189   3.369  0.1913  0.1793  0.2884
 3369DPPC   GL162115  25.409  26.344   3.253  0.3017 -0.1558 -0.0535
 3369DPPC   GL262116  25.601  26.078   3.146 -0.0431  0.1828  0.4924
 3369DPPC   C1A62117  25.649  26.720   3.104 -0.0013  0.0433  0.0392
 3369DPPC   C2A62118  26.023  26.851   3.042 -0.4064  0.0929 -0.0315
 3369DPPC   C3A62119  26.212  26.961   2.665  0.3787 -0.0779 -0.4884
 3369DPPC   C4A62120  26.318  26.773   2.279 -0.0277  0.0943 -0.0037
 3369DPPC   C1B62121  25.911  26.304   2.952  0.0167  0.1666 -0.1128
 3369DPPC   C2B62122  26.095  26.464   2.574  0.1941  0.0781 -0.1384
 3369DPPC   C3B62123  26.322  26.266   2.193  0.1334  0.1335  0.1308
 3369DPPC   C4B62124  26.163  26.040   1.839 -0.1155  0.0207 -0.1329
 3370DPPC   NC362125  17.322  27.362  20.392 -0.1355  0.0399 -0.2907
 3370DPPC   PO462126  17.500  27.362  19.961 -0.0587  0.1799 -0.0137
 3370DPPC   GL162127  17.341  27.571  19.635 -0.1738  0.2211  0.0601
 3370DPPC   GL262128  17.461  27.834  19.599 -0.0283 -0.3962 -0.1179
 3370DPPC   C1A62129  16.942  27.638  19.338  0.1268  0.0793  0.0399
 3370DPPC   C2A62130  16.666  27.350  19.091  0.2179 -0.0110 -0.0448
 3370DPPC   C3A62131  16.242  27.242  18.917  0.3303 -0.2575 -0.0732
 3370DPPC   C4A62132  15.800  27.379  18.972  0.0455 -0.4732  0.0356
 3370DPPC   C1B62133  17.125  28.097  19.541 -0.1356 -0.4012 -0.0110
 3370DPPC   C2B62134  16.935  28.424  19.291 -0.1365 -0.0596 -0.0822
 3370DPPC   C3B62135  16.957  28.538  18.905  0.0446  0.0173  0.0212
 3370DPPC   C4B62136  17.106  28.809  18.631  0.3606 -0.1487 -0.2477
 3371DPPC   NC362137  22.714  25.471   4.000 -0.1452  0.0176 -0.1597
 3371DPPC   PO462138  22.827  25.065   4.249  0.2199  0.3170  0.0218
 3371DPPC   GL162139  22.921  24.860   4.621  0.0579  0.2602  0.3312
 3371DPPC   GL262140  22.999  24.592   4.712  0.0314 -0.1505 -0.0624
 3371DPPC   C1A62141  22.672  24.824   5.023 -0.1608 -0.0427 -0.2667
 3371DPPC   C2A62142  22.493  24.842   5.457 -0.2087  0.1721  0.0939
 3371DPPC   C3A62143  22.189  24.690   5.745  0.1029  0.0366 -0.1437
 3371DPPC   C4A62144  22.022  24.354   6.062  0.2556 -0.0295  0.2330
 3371DPPC   C1B62145  22.911  24.153   4.875 -0.1608  0.1973 -0.1954
 3371DPPC   C2B62146  22.804  23.850   5.132  0.1238 -0.1833  0.2529
 3371DPPC   C3B62147  22.428  23.877   5.372  0.1892  0.2089  0.1017
 3371DPPC   C4B62148  22.332  23.621   5.744 -0.0479  0.0682 -0.4844
 3372DPPC   NC362149  23.019  19.172  21.009 -0.1159  0.2421 -0.1929
 3372DPPC   PO462150  23.359  19.140  20.785  0.1512 -0.3322  0.1135
 3372DPPC   GL162151  23.425  18.909  20.389  0.2172 -0.0546  0.0939
 3372DPPC   GL262152  23.525  18.654  20.630  0.1488 -0.0327 -0.3019
 3372DPPC   C1A62153  23.755  18.673  20.204 -0.0161 -0.0637  0.0804
 3372DPPC   C2A62154  24.016  18.361  20.106  0.0593  0.2479 -0.0912
 3372DPPC   C3A62155  24.234  17.957  19.953  0.0271 -0.0795  0.2638
 3372DPPC   C4A62156  24.581  18.026  19.671 -0.0039 -0.0172  0.2529
 3372DPPC   C1B62157  23.613  18.334  20.881  0.1174  0.0294 -0.0915
 3372DPPC   C2B62158  23.907  18.140  21.143  0.1942  0.1005  0.3356
 3372DPPC   C3B62159  24.195  18.182  21.470  0.3001  0.0835  0.1252
 3372DPPC   C4B62160  24.519  18.060  21.738 -0.0929 -0.0513  0.0489
 3373DPPC   NC362161  26.140  20.231  26.466  0.2227  0.1063 -0.1526
 3373DPPC   PO462162  25.832  19.869  26.530  0.1140  0.1610 -0.0685
 3373DPPC   GL162163  25.739  19.469  26.776 -0.1689  0.0117  0.1514
 3373DPPC   GL262164  25.920  19.320  26.849 -0.1522  0.1040 -0.1200
 3373DPPC   C1A62165  25.500  19.073  26.744  0.2503  0.1124  0.1310
 3373DPPC   C2A62166  25.479  18.634  26.830 -0.0185  0.2649 -0.1181
 3373DPPC   C3A62167  25.332  18.286  26.897  0.0985  0.1285  0.1398
 3373DPPC   C4A62168  25.471  17.833   0.135 -0.2974 -0.0515  0.2164
 3373DPPC   C1B62169  25.692  19.227   0.268  0.2169 -0.0512 -0.0833
 3373DPPC   C2B62170  25.678  19.109   0.749 -0.0109  0.1290  0.0507
 3373DPPC   C3B62171  25.512  19.064   1.087  0.2034  0.3338  0.3021
 3373DPPC   C4B62172  25.448  19.245   1.403 -0.0564  0.1413  0.1322
 3374DPPC   NC362173  20.900  24.458  25.523  0.0115 -0.0310 -0.1222
 3374DPPC   PO462174  21.303  24.111  25.693 -0.2930 -0.0073 -0.1885
 3374DPPC   GL162175  21.753  24.117  25.457 -0.3026 -0.2956 -0.2210
 3374DPPC   GL262176  22.041  24.342  25.431 -0.3126  0.1176 -0.2609
 3374DPPC   C1A62177  21.807  24.078  24.941 -0.0828  0.1754  0.2756
 3374DPPC   C2A62178  22.142  24.226  24.666 -0.1632  0.0507 -0.2468
 3374DPPC   C3A62179  22.316  24.584  24.506 -0.0180 -0.1537  0.0721
 3374DPPC   C4A62180  22.654  24.908  24.528 -0.2919 -0.0616  0.0330
 3374DPPC   C1B62181  22.154  24.681  25.205 -0.0102  0.0415 -0.0007
 3374DPPC   C2B62182  22.401  24.848  24.943  0.0812 -0.3526 -0.3544
 3374DPPC   C3B62183  22.719  25.121  24.997  0.0382  0.2263  0.4592
 3374DPPC   C4B62184  23.151  25.229  25.348  0.3959 -0.0050 -0.0496
 3375DPPC   NC362185  19.399  28.669   2.370  0.3006  0.0372  0.1077
 3375DPPC   PO462186  19.520  28.348   2.635  0.2770 -0.0243 -0.4007
 3375DPPC   GL162187  19.242  28.762   2.808  0.0980  0.4546 -0.0478
 3375DPPC   GL262188  19.417  28.967   2.905 -0.0254  0.5273  0.0980
 3375DPPC   C1A62189  19.062  29.293   2.970  0.1864  0.1020  0.1799
 3375DPPC   C2A62190  18.717  29.388   3.041 -0.3312 -0.1015  0.2295
 3375DPPC   C3A62191  18.715  29.501   2.652  0.2088 -0.0960  0.1060
 3375DPPC   C4A62192  19.132  29.713   2.545 -0.0601 -0.0210  0.0140
 3375DPPC   C1B62193  19.232  28.830   3.358 -0.1336 -0.2130 -0.2589
 3375DPPC   C2B62194  18.863  28.589   3.610  0.1523 -0.2584 -0.1406
 3375DPPC   C3B62195  18.502  28.325   3.667 -0.0019 -0.3897 -0.0941
 3375DPPC   C4B62196  18.164  28.178   4.013 -0.0045 -0.0911  0.2605
 3376DPPC   NC362197  17.724  27.308  25.677 -0.1029  0.0796  0.2575
 3376DPPC   PO462198  17.342  27.412  25.990 -0.2843  0.2307  0.0808
 3376DPPC   GL162199  17.016  27.140  26.211 -0.0311 -0.0733  0.1995
 3376DPPC   GL262200  17.035  26.901  26.410  0.4128 -0.2438  0.0384
 3376DPPC   C1A62201  16.575  27.220  26.428  0.0348  0.2537  0.2057
 3376DPPC   C2A62202  16.119  27.079  26.315 -0.2777  0.0171  0.0953
 3376DPPC   C3A62203  15.786  26.807  26.198 -0.2543 -0.3286  0.0641
 3376DPPC   C4A62204  15.390  26.562  26.306  0.3008 -0.2031  0.5005
 3376DPPC   C1B62205  16.753  26.571  26.526  0.2409  0.2484  0.0538
 3376DPPC   C2B62206  16.282  26.591  26.440  0.0417 -0.2333  0.1171
 3376DPPC   C3B62207  15.913  26.389  26.457 -0.0786  0.0973  0.1794
 3376DPPC   C4B62208  15.616  26.080  26.511 -0.0597  0.2402 -0.4276
 3377DPPC   NC362209  23.537  18.856  21.654  0.1530 -0.2546 -0.0824
 3377DPPC   PO462210  23.212  19.017  21.430 -0.0595 -0.1525  0.0160
 3377DPPC   GL162211  23.064  18.683  21.634  0.0743  0.1358  0.3523
 3377DPPC   GL262212  23.136  18.382  21.520  0.0016  0.2456 -0.2265
 3377DPPC   C1A62213  22.958  18.417  22.008 -0.1321  0.3265 -0.4139
 3377DPPC   C2A62214  22.796  18.039  22.078  0.0830  0.6050 -0.3378
 3377DPPC   C3A62215  22.656  17.798  22.436 -0.0399  0.0899  0.2743
 3377DPPC   C4A62216  22.305  17.736  22.689 -0.0376  0.1766  0.0649
 3377DPPC   C1B62217  23.293  18.149  21.197  0.1140 -0.1293 -0.1115
 3377DPPC   C2B62218  23.486  17.812  21.021 -0.1012  0.1404 -0.0519
 3377DPPC   C3B62219  23.677  17.452  21.100 -0.0464  0.2228  0.0322
 3377DPPC   C4B62220  23.835  17.109  21.158  0.0292  0.2216 -0.1559
 3378DPPC   NC362221  21.491  24.633   2.384 -0.0393 -0.0980  0.0320
 3378DPPC   PO462222  21.333  24.239   2.298 -0.1756 -0.3769  0.2184
 3378DPPC   GL162223  21.084  24.154   2.664  0.1989  0.1158  0.0727
 3378DPPC   GL262224  21.253  23.866   2.798 -0.0883 -0.2518 -0.0152
 3378DPPC   C1A62225  20.737  24.044   2.811  0.0722 -0.0601  0.0663
 3378DPPC   C2A62226  20.503  23.746   3.059 -0.4328 -0.0196  0.0977
 3378DPPC   C3A62227  20.218  23.576   3.406 -0.0575 -0.1892  0.0484
 3378DPPC   C4A62228  20.126  23.395   3.890 -0.2286 -0.1985  0.4084
 3378DPPC   C1B62229  21.057  23.491   3.050  0.1320 -0.0548  0.0160
 3378DPPC   C2B62230  20.737  23.258   3.251 -0.1004  0.1347  0.0368
 3378DPPC   C3B62231  20.511  23.126   3.682  0.2876  0.2395  0.3370
 3378DPPC   C4B62232  20.123  22.868   3.870 -0.2851  0.2157  0.2566
 3379DPPC   NC362233  19.716  23.345  24.116 -0.0209  0.0530 -0.2204
 3379DPPC   PO462234  19.434  23.216  24.374  0.0883 -0.0663  0.0904
 3379DPPC   GL162235  19.053  23.068  24.399 -0.1455 -0.0393  0.0417
 3379DPPC   GL262236  18.709  23.184  24.479 -0.1001  0.0120 -0.0884
 3379DPPC   C1A62237  18.947  22.843  24.876  0.2912 -0.0843 -0.0075
 3379DPPC   C2A62238  18.542  22.904  25.002 -0.0234 -0.0013 -0.1002
 3379DPPC   C3A62239  18.198  22.693  25.090 -0.1467 -0.0086  0.1425
 3379DPPC   C4A62240  17.915  22.532  25.395  0.3691 -0.1739 -0.1976
 3379DPPC   C1B62241  18.324  23.162  24.580 -0.1560 -0.0399 -0.0935
 3379DPPC   C2B62242  17.845  23.227  24.577  0.1566  0.0685 -0.0480
 3379DPPC   C3B62243  17.451  23.127  24.870  0.1660  0.0143  0.0335
 3379DPPC   C4B62244  17.100  22.753  24.856  0.2516 -0.1095  0.5048
 3380DPPC   NC362245  19.781  26.519   2.402 -0.1618  0.1828 -0.1167
 3380DPPC   PO462246  19.493  26.568   2.177 -0.1259  0.1064  0.0242
 3380DPPC   GL162247  19.249  26.346   2.447  0.0943 -0.2055  0.0111
 3380DPPC   GL262248  19.090  26.554   2.620 -0.0147  0.0004 -0.0820
 3380DPPC   C1A62249  19.013  26.067   2.627 -0.1581 -0.0657  0.2476
 3380DPPC   C2A62250  18.611  25.944   2.848  0.0785 -0.1469 -0.0428
 3380DPPC   C3A62251  18.253  25.934   3.192 -0.3644 -0.1073 -0.1691
 3380DPPC   C4A62252  18.041  25.863   3.515 -0.3303 -0.1961  0.1341
 3380DPPC   C1B62253  18.734  26.470   2.795  0.1714  0.3372  0.0741
 3380DPPC   C2B62254  18.286  26.416   3.063  0.1110  0.0751 -0.2256
 3380DPPC   C3B62255  18.140  26.362   3.436  0.2291  0.1496 -0.3412
 3380DPPC   C4B62256  17.991  26.526   3.859 -0.4588  0.1388  0.0554
 3381DPPC   NC362257  22.119  28.150   3.607 -0.0838  0.1872  0.0656
 3381DPPC   PO462258  22.325  28.520   3.861  0.0760  0.1441  0.2843
 3381DPPC   GL162259  22.255  28.985   3.712  0.1657  0.1661  0.2523
 3381DPPC   GL262260  22.013  29.218   3.846 -0.0087  0.0558  0.0389
 3381DPPC   C1A62261  22.456  29.365   3.556 -0.0405 -0.0980 -0.1298
 3381DPPC   C2A62262  22.620  29.746   3.426  0.0177 -0.4202 -0.1672
 3381DPPC   C3A62263  22.826  30.218   3.369  0.1410 -0.0490 -0.0899
 3381DPPC   C4A62264  22.836  30.549   3.080  0.2819  0.2069 -0.2176
 3381DPPC   C1B62265  22.068  29.639   3.696 -0.4233 -0.0851  0.0033
 3381DPPC   C2B62266  22.007  30.098   3.545 -0.2666 -0.3703 -0.3132
 3381DPPC   C3B62267  22.324  30.334   3.331 -0.1027  0.1277 -0.0529
 3381DPPC   C4B62268  22.508  30.778   3.393  0.1686 -0.2798  0.2887
 3382DPPC   NC362269  23.525  25.627   4.578 -0.3751  0.0763 -0.0854
 3382DPPC   PO462270  23.239  25.283   4.444  0.2532 -0.0720  0.1894
 3382DPPC   GL162271  23.089  25.366   4.888  0.1366  0.1086 -0.2344
 3382DPPC   GL262272  23.148  25.614   4.989 -0.6277 -0.1756 -0.0721
 3382DPPC   C1A62273  22.823  25.244   5.216  0.0389 -0.0329 -0.3297
 3382DPPC   C2A62274  23.010  24.991   5.473  0.1065  0.0873  0.0723
 3382DPPC   C3A62275  23.095  24.853   5.820 -0.1724 -0.0569  0.0387
 3382DPPC   C4A62276  23.210  24.447   6.003  0.1200  0.1472  0.0515
 3382DPPC   C1B62277  22.940  25.750   5.388 -0.1014  0.0334 -0.3304
 3382DPPC   C2B62278  22.545  25.505   5.497  0.2175  0.2662  0.4754
 3382DPPC   C3B62279  22.103  25.250   5.516  0.1175  0.1642  0.0136
 3382DPPC   C4B62280  21.760  24.974   5.565 -0.1946 -0.0288  0.3577
 3383DPPC   NC362281  25.609  21.793   2.767  0.0273  0.1754 -0.0962
 3383DPPC   PO462282  25.441  21.710   2.382  0.1092  0.0558 -0.2521
 3383DPPC   GL162283  25.317  21.382   2.678  0.2552  0.1413 -0.2613
 3383DPPC   GL262284  25.007  21.363   2.601  0.1715 -0.0698  0.3415
 3383DPPC   C1A62285  25.282  21.110   2.994 -0.3116  0.0363  0.0218
 3383DPPC   C2A62286  25.121  21.006   3.504  0.1891  0.1735 -0.2238
 3383DPPC   C3A62287  24.902  20.861   3.835  0.0356  0.2345  0.2527
 3383DPPC   C4A62288  24.754  20.522   3.960 -0.3619 -0.2447  0.2123
 3383DPPC   C1B62289  24.994  20.894   2.699  0.1089 -0.1471  0.3569
 3383DPPC   C2B62290  25.167  20.425   2.767  0.0262 -0.1863  0.2228
 3383DPPC   C3B62291  25.285  20.076   2.978 -0.0693  0.0413 -0.0914
 3383DPPC   C4B62292  25.370  19.889   3.435 -0.0732  0.1908 -0.0649
 3384DPPC   NC362293  22.788  20.808  19.788  0.1988  0.1571  0.1377
 3384DPPC   PO462294  22.443  20.544  19.581  0.0042 -0.2332  0.0515
 3384DPPC   GL162295  22.704  20.730  19.274  0.0921  0.2546 -0.0355
 3384DPPC   GL262296  22.914  21.012  19.257  0.1216 -0.0431  0.2119
 3384DPPC   C1A62297  22.713  20.803  18.745  0.3070  0.0268 -0.4379
 3384DPPC   C2A62298  22.747  20.791  18.226  0.3348  0.1160 -0.0233
 3384DPPC   C3A62299  23.141  20.891  17.919  0.2976 -0.2850 -0.3982
 3384DPPC   C4A62300  23.243  21.237  17.665  0.2323 -0.0696  0.2652
 3384DPPC   C1B62301  23.249  21.137  19.167 -0.2703  0.1389  0.0610
 3384DPPC   C2B62302  23.665  21.139  19.055  0.2692 -0.0494 -0.1102
 3384DPPC   C3B62303  24.026  20.867  19.266  0.2489 -0.0427 -0.0432
 3384DPPC   C4B62304  24.045  20.597  19.687  0.1271  0.0063 -0.0015
 3385DPPC   NC362305  25.837  21.316   2.721  0.1083 -0.1192  0.4387
 3385DPPC   PO462306  26.098  21.694   2.625  0.0824 -0.0906  0.2199
 3385DPPC   GL162307  26.198  21.493   3.042 -0.2542  0.1936  0.0929
 3385DPPC   GL262308  26.123  21.682   3.297  0.1561  0.4220 -0.4289
 3385DPPC   C1A62309  26.038  21.062   3.268 -0.3458 -0.1320  0.1419
 3385DPPC   C2A62310  25.625  20.906   3.306 -0.1250 -0.0541 -0.1128
 3385DPPC   C3A62311  25.450  20.592   3.604 -0.1904 -0.2749 -0.2614
 3385DPPC   C4A62312  25.276  20.386   3.802 -0.1342  0.3268  0.0775
 3385DPPC   C1B62313  26.226  21.608   3.697  0.2122  0.2938  0.1510
 3385DPPC   C2B62314  26.241  21.428   4.091 -0.1351  0.1263 -0.3139
 3385DPPC   C3B62315  26.514  21.179   4.410  0.1341 -0.0449  0.0420
 3385DPPC   C4B62316  26.635  20.724   4.453  0.4353  0.0584  0.1516
 3386DPPC   NC362317  21.173  21.205  25.178  0.1840 -0.2073 -0.2045
 3386DPPC   PO462318  21.181  21.332  25.536  0.1642 -0.0652 -0.0546
 3386DPPC   GL162319  20.668  21.207  25.409 -0.0436 -0.1931  0.0785
 3386DPPC   GL262320  20.601  21.266  25.669 -0.1904  0.2267  0.0450
 3386DPPC   C1A62321  20.568  20.751  25.546  0.1090  0.2147 -0.0859
 3386DPPC   C2A62322  20.389  20.394  25.705  0.1392  0.1618 -0.0133
 3386DPPC   C3A62323  20.259  20.019  25.769  0.0179  0.4875  0.0400
 3386DPPC   C4A62324  20.332  19.625  26.098  0.2799  0.0568  0.1067
 3386DPPC   C1B62325  20.641  21.214  26.099  0.1687 -0.1615  0.1816
 3386DPPC   C2B62326  20.450  21.157  26.543  0.0249  0.1879  0.2286
 3386DPPC   C3B62327  20.016  20.996  26.594 -0.0788  0.4803 -0.1917
 3386DPPC   C4B62328  19.517  20.845  26.673 -0.1572  0.0998  0.0985
 3387DPPC   NC362329  25.515  22.196   3.036  0.0259 -0.1061  0.0417
 3387DPPC   PO462330  25.933  22.090   3.086  0.2250 -0.1874  0.0931
 3387DPPC   GL162331  25.592  21.754   3.252 -0.3535  0.0763  0.0434
 3387DPPC   GL262332  25.288  21.869   3.385 -0.2313 -0.1234  0.0615
 3387DPPC   C1A62333  25.568  21.378   3.418  0.1602 -0.0010 -0.2538
 3387DPPC   C2A62334  25.891  21.188   3.720  0.1783  0.2647 -0.1095
 3387DPPC   C3A62335  25.810  20.823   3.959 -0.1437  0.2143 -0.0192
 3387DPPC   C4A62336  25.589  20.525   4.130 -0.0864 -0.0862  0.2269
 3387DPPC   C1B62337  25.188  21.511   3.671 -0.0346  0.0335 -0.2888
 3387DPPC   C2B62338  25.383  21.179   3.968 -0.0182 -0.0721 -0.0377
 3387DPPC   C3B62339  25.498  21.048   4.408 -0.4242  0.1318 -0.2001
 3387DPPC   C4B62340  25.595  21.332   4.755  0.2755  0.0461 -0.2727
 3388DPPC   NC362341  27.196  21.169   2.434 -0.1990  0.0372  0.1619
 3388DPPC   PO462342  27.573  21.338   2.297 -0.1335  0.2300  0.1720
 3388DPPC   GL162343  27.855  21.000   2.256 -0.0382  0.0456 -0.5858
 3388DPPC   GL262344  27.651  20.747   2.456  0.1792 -0.2231  0.0619
 3388DPPC   C1A62345  27.983  20.602   2.048 -0.1066 -0.0817  0.1667
 3388DPPC   C2A62346  28.392  20.613   2.186 -0.4609  0.2078  0.3321
 3388DPPC   C3A62347  28.808  20.700   2.052 -0.0572  0.0426  0.1602
 3388DPPC   C4A62348  29.211  20.780   2.129  0.1102 -0.3695 -0.1996
 3388DPPC   C1B62349  27.216  20.520   2.494 -0.0950 -0.0016  0.0854
 3388DPPC   C2B62350  27.183  20.075   2.634  0.0206 -0.2171 -0.0319
 3388DPPC   C3B62351  27.265  19.881   2.985  0.4399  0.1369 -0.2760
 3388DPPC   C4B62352  27.328  19.934   3.499  0.1076 -0.0903 -0.1776
 3389DPPC   NC362353  24.873  19.526  25.000 -0.1525 -0.1544  0.0387
 3389DPPC   PO462354  24.748  19.309  24.727 -0.1777  0.1985 -0.2709
 3389DPPC   GL162355  24.675  19.006  25.087 -0.1300  0.1179  0.1572
 3389DPPC   GL262356  24.906  18.723  25.181  0.0122 -0.2696  0.0577
 3389DPPC   C1A62357  24.423  18.714  25.233 -0.2041  0.2032  0.0240
 3389DPPC   C2A62358  24.211  18.426  25.177 -0.0310  0.2453 -0.0296
 3389DPPC   C3A62359  24.171  18.198  24.933 -0.1377  0.0218 -0.4094
 3389DPPC   C4A62360  24.166  17.897  24.566  0.2085 -0.0966  0.1885
 3389DPPC   C1B62361  24.654  18.319  25.044 -0.0356 -0.2432 -0.1843
 3389DPPC   C2B62362  24.643  17.967  24.959 -0.1525  0.0419 -0.1882
 3389DPPC   C3B62363  24.415  17.617  24.958  0.2064  0.0153 -0.0946
 3389DPPC   C4B62364  24.601  17.193  25.002 -0.1893 -0.0580  0.1461
 3390DPPC   NC362365  23.092  20.172  21.972  0.0869  0.2798  0.2119
 3390DPPC   PO462366  23.292  20.362  22.293  0.0496 -0.0392  0.1177
 3390DPPC   GL162367  23.316  20.681  22.112 -0.1460 -0.2121  0.0103
 3390DPPC   GL262368  23.481  20.833  22.289  0.2810  0.2888 -0.0943
 3390DPPC   C1A62369  23.335  21.094  21.798 -0.0758 -0.1049 -0.0390
 3390DPPC   C2A62370  23.776  21.251  21.602 -0.0390  0.2661 -0.1392
 3390DPPC   C3A62371  24.235  21.483  21.660  0.0718  0.2320 -0.2016
 3390DPPC   C4A62372  24.596  21.522  21.325  0.1821 -0.1351  0.1222
 3390DPPC   C1B62373  23.757  20.841  21.975  0.0653 -0.1476  0.0892
 3390DPPC   C2B62374  24.084  21.005  21.932 -0.2282 -0.2006 -0.0358
 3390DPPC   C3B62375  24.280  21.331  22.169 -0.2026  0.2735  0.1127
 3390DPPC   C4B62376  24.132  21.522  22.470 -0.0171 -0.1206  0.1774
 3391DPPC   NC362377  26.969  22.953   2.526 -0.1869 -0.0588  0.0697
 3391DPPC   PO462378  27.125  23.261   2.735 -0.0401  0.1261  0.2689
 3391DPPC   GL162379  27.490  23.571   2.556 -0.3544 -0.1175  0.0201
 3391DPPC   GL262380  27.812  23.430   2.381  0.0620 -0.2949 -0.2143
 3391DPPC   C1A62381  27.821  23.906   2.576 -0.2490  0.1081  0.0066
 3391DPPC   C2A62382  28.237  24.001   2.831  0.2356 -0.0426 -0.2336
 3391DPPC   C3A62383  28.692  24.080   2.892  0.1381 -0.0130 -0.2560
 3391DPPC   C4A62384  29.128  23.919   2.855  0.1929  0.0924 -0.2343
 3391DPPC   C1B62385  28.096  23.697   2.223 -0.0038 -0.2099 -0.1089
 3391DPPC   C2B62386  28.324  24.090   2.323 -0.2976 -0.0832  0.0054
 3391DPPC   C3B62387  28.639  24.451   2.359 -0.0910 -0.1051 -0.1364
 3391DPPC   C4B62388  29.045  24.577   2.193  0.0404 -0.4456  0.0788
 3392DPPC   NC362389  18.481  25.230  20.601  0.2382  0.2862 -0.0004
 3392DPPC   PO462390  18.691  25.524  20.811 -0.0774  0.1457  0.0953
 3392DPPC   GL162391  19.015  25.544  20.512 -0.1264 -0.1842  0.4329
 3392DPPC   GL262392  19.289  25.421  20.662  0.1622 -0.3771  0.1987
 3392DPPC   C1A62393  19.307  25.824  20.287 -0.0116  0.2144 -0.2016
 3392DPPC   C2A62394  19.665  25.846  20.110 -0.1965 -0.0597  0.1760
 3392DPPC   C3A62395  20.074  25.736  19.902 -0.1411 -0.0093  0.0382
 3392DPPC   C4A62396  20.578  25.757  19.848 -0.1814  0.0940  0.0707
 3392DPPC   C1B62397  19.455  25.727  20.789  0.3079 -0.0655  0.2070
 3392DPPC   C2B62398  19.539  26.102  20.843 -0.3322 -0.2114 -0.2391
 3392DPPC   C3B62399  19.737  26.278  20.462 -0.3134  0.0781 -0.1726
 3392DPPC   C4B62400  19.917  26.562  20.247  0.3324 -0.1810  0.1027
 3393DPPC   NC362401  18.785  24.607  26.234  0.3068 -0.1538  0.0559
 3393DPPC   PO462402  18.677  24.626  25.825  0.0429  0.0561  0.1839
 3393DPPC   GL162403  18.744  24.183  25.988 -0.1874  0.1199  0.0435
 3393DPPC   GL262404  18.880  23.943  25.942 -0.2456  0.0609  0.4327
 3393DPPC   C1A62405  18.407  23.898  25.931 -0.0585 -0.0355  0.0532
 3393DPPC   C2A62406  18.257  23.677  26.244 -0.0650 -0.1840 -0.0307
 3393DPPC   C3A62407  18.161  23.349  26.491  0.0994 -0.3175 -0.2280
 3393DPPC   C4A62408  17.948  23.057  26.632  0.2398 -0.1617  0.0302
 3393DPPC   C1B62409  18.756  23.613  26.196 -0.1275  0.2687  0.0138
 3393DPPC   C2B62410  18.658  23.138  26.412  0.3121 -0.0991  0.2921
 3393DPPC   C3B62411  18.492  22.919  26.644  0.4511  0.1283  0.1559
 3393DPPC   C4B62412  18.228  22.682   0.041 -0.0000  0.2467  0.1015
 3394DPPC   NC362413  18.187  25.034  21.104  0.1781 -0.0152  0.1258
 3394DPPC   PO462414  18.583  25.164  21.264 -0.0756  0.1825 -0.0376
 3394DPPC   GL162415  19.021  25.465  21.218 -0.0249 -0.1050 -0.0992
 3394DPPC   GL262416  19.090  25.713  21.027 -0.1085 -0.4277  0.0701
 3394DPPC   C1A62417  19.503  25.612  21.376  0.1711  0.0340  0.1905
 3394DPPC   C2A62418  19.830  25.908  21.199  0.0319  0.0307  0.0865
 3394DPPC   C3A62419  20.012  26.108  20.840 -0.0802  0.3990 -0.1389
 3394DPPC   C4A62420  20.045  26.522  20.836 -0.3308  0.0602  0.3358
 3394DPPC   C1B62421  19.208  26.013  21.362  0.0892  0.1489  0.0286
 3394DPPC   C2B62422  19.491  26.319  21.471  0.2230 -0.3008  0.2417
 3394DPPC   C3B62423  19.835  26.582  21.367  0.1387  0.1401  0.3038
 3394DPPC   C4B62424  20.205  26.898  21.348 -0.0274 -0.1666 -0.0960
 3395DPPC   NC362425  20.246  23.166  20.665 -0.0510  0.0190 -0.1688
 3395DPPC   PO462426  19.947  23.399  20.826 -0.0375 -0.2005  0.2010
 3395DPPC   GL162427  20.392  23.646  20.739 -0.0662  0.2380 -0.0270
 3395DPPC   GL262428  20.723  23.527  20.679  0.0784 -0.1721 -0.2700
 3395DPPC   C1A62429  20.546  24.068  20.637 -0.0959  0.1742 -0.0192
 3395DPPC   C2A62430  20.973  24.299  20.603  0.1594  0.4749 -0.3208
 3395DPPC   C3A62431  21.464  24.299  20.533 -0.1011 -0.1371  0.0632
 3395DPPC   C4A62432  21.740  24.417  20.185 -0.1522 -0.0581 -0.2216
 3395DPPC   C1B62433  21.041  23.866  20.829 -0.0440 -0.1106  0.0972
 3395DPPC   C2B62434  21.357  24.164  20.956  0.1034 -0.0642  0.0860
 3395DPPC   C3B62435  21.395  24.478  21.235 -0.1795 -0.1442  0.0611
 3395DPPC   C4B62436  21.731  24.724  21.336 -0.3120  0.0982  0.2853
 3396DPPC   NC362437  21.750  24.472  26.275  0.2446 -0.1445 -0.0516
 3396DPPC   PO462438  21.799  24.045  25.959  0.0949  0.1393 -0.1378
 3396DPPC   GL162439  22.067  24.441  25.888  0.1205  0.3694 -0.1440
 3396DPPC   GL262440  22.364  24.662  25.988  0.1747  0.2901  0.2727
 3396DPPC   C1A62441  22.084  24.850  25.660 -0.1864  0.0548  0.0428
 3396DPPC   C2A62442  22.219  25.239  25.391  0.1410 -0.0528  0.2443
 3396DPPC   C3A62443  22.381  25.466  25.155  0.0117 -0.0731  0.1132
 3396DPPC   C4A62444  22.491  25.920  25.033  0.1644  0.0586  0.0626
 3396DPPC   C1B62445  22.765  24.836  25.886  0.1221  0.2846 -0.0775
 3396DPPC   C2B62446  23.174  24.690  25.726 -0.1244 -0.0509  0.0307
 3396DPPC   C3B62447  23.439  24.715  25.313  0.2741  0.1943 -0.0981
 3396DPPC   C4B62448  23.769  24.767  25.046  0.1023 -0.1490  0.4434
 3397DPPC   NC362449  19.043  28.595   2.070  0.3345 -0.0002  0.0272
 3397DPPC   PO462450  18.847  28.870   1.781  0.1683  0.0642 -0.0380
 3397DPPC   GL162451  18.668  29.194   2.069  0.0472  0.0200 -0.1211
 3397DPPC   GL262452  18.332  29.248   1.871  0.2573 -0.1708  0.0913
 3397DPPC   C1A62453  18.451  29.645   2.221  0.0625  0.0265 -0.0915
 3397DPPC   C2A62454  18.722  30.085   2.217 -0.2634 -0.1481 -0.1334
 3397DPPC   C3A62455  18.919  30.448   2.473  0.1975 -0.1103 -0.3082
 3397DPPC   C4A62456  19.251  30.743   2.545 -0.0480 -0.0117 -0.3975
 3397DPPC   C1B62457  17.980  29.470   1.975 -0.2280  0.1102 -0.0389
 3397DPPC   C2B62458  17.623  29.673   2.214  0.1106 -0.0543 -0.1269
 3397DPPC   C3B62459  17.222  29.660   2.186  0.0454 -0.2347  0.0302
 3397DPPC   C4B62460  16.879  29.474   2.409  0.1454 -0.2204 -0.0550
 3398DPPC   NC362461  18.377  26.709   0.790 -0.2280 -0.0567  0.0084
 3398DPPC   PO462462  18.797  26.506   1.052  0.0377 -0.1256 -0.2177
 3398DPPC   GL162463  18.572  26.271   1.275 -0.3658 -0.0206 -0.1712
 3398DPPC   GL262464  18.355  26.533   1.394 -0.2844  0.1432 -0.3578
 3398DPPC   C1A62465  18.417  25.946   1.570 -0.1179  0.1112  0.1255
 3398DPPC   C2A62466  18.051  25.887   1.782  0.2184  0.1806  0.1267
 3398DPPC   C3A62467  17.639  25.668   1.759  0.0450 -0.1176  0.2421
 3398DPPC   C4A62468  17.187  25.642   1.784  0.3360  0.2315  0.2262
 3398DPPC   C1B62469  17.960  26.290   1.303 -0.0290  0.2394 -0.0963
 3398DPPC   C2B62470  17.664  26.096   0.912  0.1261  0.0281  0.3442
 3398DPPC   C3B62471  17.623  26.006   0.462  0.4210  0.1918 -0.2599
 3398DPPC   C4B62472  17.347  26.180   0.202  0.0819 -0.0081  0.0524
 3399DPPC   NC362473  19.845  24.150   0.218 -0.1668  0.0262  0.0263
 3399DPPC   PO462474  19.469  24.360  26.876  0.3896  0.1288 -0.1608
 3399DPPC   GL162475  19.165  24.280   0.308  0.1977 -0.3719 -0.3643
 3399DPPC   GL262476  19.113  24.611   0.350  0.1168  0.1216  0.2125
 3399DPPC   C1A62477  18.924  23.977   0.521  0.2389  0.1834  0.1397
 3399DPPC   C2A62478  18.529  23.768   0.808  0.1546  0.0206  0.0575
 3399DPPC   C3A62479  18.342  23.263   0.988 -0.3709 -0.1842  0.2512
 3399DPPC   C4A62480  18.378  22.957   1.301 -0.1653  0.0914 -0.0847
 3399DPPC   C1B62481  18.954  24.523   0.680 -0.0772  0.0398 -0.1251
 3399DPPC   C2B62482  18.732  24.695   1.006  0.0154 -0.0333 -0.0545
 3399DPPC   C3B62483  18.367  24.651   1.249 -0.1550 -0.1725 -0.5641
 3399DPPC   C4B62484  17.825  24.688   1.269 -0.0868  0.1929 -0.0505
 3400DPPC   NC362485  25.958  24.305   4.631 -0.0035 -0.0692 -0.1917
 3400DPPC   PO462486  26.177  24.195   4.779 -0.0193 -0.4068 -0.2731
 3400DPPC   GL162487  26.520  23.969   4.997 -0.0763 -0.1794 -0.2129
 3400DPPC   GL262488  26.811  24.144   5.014  0.0527 -0.0369 -0.2812
 3400DPPC   C1A62489  26.717  23.706   5.190  0.2705  0.0685  0.1182
 3400DPPC   C2A62490  27.006  23.464   5.224  0.3162  0.0166 -0.3521
 3400DPPC   C3A62491  26.999  23.017   5.397 -0.1818 -0.2201 -0.1512
 3400DPPC   C4A62492  26.925  22.829   5.705  0.2147 -0.2064  0.0227
 3400DPPC   C1B62493  27.127  23.944   5.390 -0.0539 -0.1085 -0.1710
 3400DPPC   C2B62494  27.413  23.908   5.685  0.0199  0.1827 -0.2686
 3400DPPC   C3B62495  27.667  23.538   5.781 -0.2333 -0.1922 -0.2908
 3400DPPC   C4B62496  28.076  23.387   5.919 -0.0318  0.0687  0.0796
 3401DPPC   NC362497  21.724  20.968  20.905  0.0429  0.0479  0.0290
 3401DPPC   PO462498  21.563  21.312  21.073 -0.1902  0.1344  0.4001
 3401DPPC   GL162499  21.855  21.503  21.218 -0.0941 -0.0711  0.1702
 3401DPPC   GL262500  21.897  21.911  21.162 -0.1031  0.2700  0.1256
 3401DPPC   C1A62501  22.329  21.631  21.154  0.0990 -0.2506 -0.2462
 3401DPPC   C2A62502  22.664  21.407  21.043 -0.2038  0.0905 -0.1179
 3401DPPC   C3A62503  23.009  21.620  21.080 -0.1043  0.1942  0.1355
 3401DPPC   C4A62504  23.439  21.652  20.915 -0.3951  0.2731  0.0206
 3401DPPC   C1B62505  21.774  22.304  21.024 -0.1215 -0.0089 -0.3777
 3401DPPC   C2B62506  21.899  22.658  21.015 -0.1013 -0.1387 -0.1434
 3401DPPC   C3B62507  22.166  22.946  21.001 -0.1223 -0.1391 -0.0568
 3401DPPC   C4B62508  22.071  23.395  21.176  0.6394 -0.1605 -0.2543
 3402DPPC   NC362509  20.172  24.178  24.209 -0.0092 -0.0450 -0.2390
 3402DPPC   PO462510  19.780  24.119  23.965 -0.1022 -0.0967 -0.0452
 3402DPPC   GL162511  20.222  24.355  23.783 -0.1273 -0.1204 -0.1422
 3402DPPC   GL262512  20.172  24.772  23.796  0.0307  0.4263 -0.1828
 3402DPPC   C1A62513  20.494  24.434  23.463 -0.0391  0.0053  0.1359
 3402DPPC   C2A62514  20.999  24.419  23.263 -0.1899  0.1655 -0.2752
 3402DPPC   C3A62515  21.265  24.553  23.065  0.0695 -0.2550  0.1552
 3402DPPC   C4A62516  21.574  24.560  22.779 -0.0174  0.0731 -0.1040
 3402DPPC   C1B62517  20.610  24.903  23.814 -0.0804  0.0042  0.2479
 3402DPPC   C2B62518  20.933  25.128  23.633 -0.2791 -0.0024  0.0796
 3402DPPC   C3B62519  21.303  25.304  23.427  0.0160 -0.2123  0.2451
 3402DPPC   C4B62520  21.705  25.437  23.320 -0.1083 -0.0351  0.1326
 3403DPPC   NC362521  23.105  22.312   0.678 -0.2756 -0.0131  0.1887
 3403DPPC   PO462522  22.895  21.962   0.746 -0.1101  0.1909 -0.0026
 3403DPPC   GL162523  22.551  21.717   0.968 -0.0081  0.0033  0.1244
 3403DPPC   GL262524  22.648  21.528   1.219 -0.0083  0.1893 -0.3806
 3403DPPC   C1A62525  22.077  21.546   1.301 -0.3948 -0.1461 -0.2677
 3403DPPC   C2A62526  21.829  21.170   1.216 -0.1255  0.1620 -0.0097
 3403DPPC   C3A62527  21.608  20.979   1.509 -0.1019 -0.0292 -0.1531
 3403DPPC   C4A62528  21.331  20.828   1.836 -0.2004  0.0675  0.1274
 3403DPPC   C1B62529  22.747  21.094   1.357  0.0338  0.1408 -0.0035
 3403DPPC   C2B62530  22.731  20.721   1.214  0.4211 -0.1550  0.2009
 3403DPPC   C3B62531  22.468  20.384   1.455  0.1512  0.1979 -0.2619
 3403DPPC   C4B62532  22.458  20.299   1.886 -0.0274 -0.1276 -0.1849
 3404DPPC   NC362533  18.422  23.687  23.627 -0.3818 -0.1412 -0.4794
 3404DPPC   PO462534  18.413  23.784  23.117 -0.1310  0.0947 -0.0232
 3404DPPC   GL162535  18.231  23.259  23.151 -0.0140  0.0500 -0.0349
 3404DPPC   GL262536  18.185  23.139  23.435 -0.1347  0.0326  0.2461
 3404DPPC   C1A62537  17.734  23.206  23.127 -0.1768 -0.1182 -0.1622
 3404DPPC   C2A62538  17.392  23.414  23.227 -0.1466 -0.0711 -0.1551
 3404DPPC   C3A62539  17.112  23.825  23.206 -0.1154  0.0671  0.0365
 3404DPPC   C4A62540  16.641  23.882  23.038  0.2126  0.0540  0.0160
 3404DPPC   C1B62541  17.883  22.869  23.451 -0.3586  0.0531 -0.0878
 3404DPPC   C2B62542  17.607  22.634  23.632 -0.3077  0.2506 -0.1017
 3404DPPC   C3B62543  17.578  22.241  23.802  0.1304 -0.2103  0.0507
 3404DPPC   C4B62544  17.448  21.922  24.029 -0.1818 -0.0835 -0.1617
 3405DPPC   NC362545  21.136  21.058  24.117 -0.0931  0.0405 -0.1461
 3405DPPC   PO462546  21.111  20.749  23.759  0.0628 -0.0413 -0.0221
 3405DPPC   GL162547  20.906  20.341  23.962  0.0288 -0.1424 -0.3366
 3405DPPC   GL262548  20.523  20.396  24.075 -0.0254 -0.1335  0.1667
 3405DPPC   C1A62549  20.764  19.964  23.971  0.1823  0.0762  0.1401
 3405DPPC   C2A62550  20.457  19.605  24.017 -0.0180  0.3411 -0.4045
 3405DPPC   C3A62551  20.269  19.293  24.194 -0.2569  0.2713 -0.2076
 3405DPPC   C4A62552  20.236  19.009  24.504 -0.2396  0.0433  0.1136
 3405DPPC   C1B62553  20.292  20.217  24.280  0.1849 -0.0027  0.0249
 3405DPPC   C2B62554  20.217  19.901  24.337  0.0501  0.1847  0.2273
 3405DPPC   C3B62555  19.951  19.629  24.512  0.1914  0.2135  0.3244
 3405DPPC   C4B62556  19.815  19.175  24.656  0.2252  0.2166  0.3761
 3406DPPC   NC362557  24.103  18.764  23.959 -0.3385  0.0713  0.1724
 3406DPPC   PO462558  23.991  19.134  24.153 -0.2295 -0.4079 -0.1304
 3406DPPC   GL162559  23.579  18.826  24.377 -0.0174  0.3978 -0.0014
 3406DPPC   GL262560  23.620  18.672  24.115 -0.0822 -0.1593 -0.3133
 3406DPPC   C1A62561  23.382  18.491  24.607  0.1857 -0.1371  0.0500
 3406DPPC   C2A62562  23.141  18.321  24.934  0.1158 -0.0332  0.0439
 3406DPPC   C3A62563  23.264  18.421  25.332  0.0662  0.2821 -0.1982
 3406DPPC   C4A62564  23.195  18.567  25.781  0.1659  0.2626 -0.3186
 3406DPPC   C1B62565  23.560  18.320  24.116  0.0324 -0.0716  0.0201
 3406DPPC   C2B62566  23.305  17.962  24.116 -0.0456 -0.1096 -0.1190
 3406DPPC   C3B62567  23.415  17.517  24.030  0.0420 -0.2289  0.0485
 3406DPPC   C4B62568  23.515  17.196  23.859  0.1686 -0.2726  0.3055
 3407DPPC   NC362569  23.697  19.524  20.463 -0.1319 -0.0949  0.1831
 3407DPPC   PO462570  23.526  19.911  20.290  0.0794  0.1741  0.0668
 3407DPPC   GL162571  23.759  19.785  20.015  0.1338  0.1822 -0.0695
 3407DPPC   GL262572  23.747  19.881  19.702  0.0737 -0.0589  0.2276
 3407DPPC   C1A62573  24.207  19.841  19.789 -0.0447  0.1240 -0.0840
 3407DPPC   C2A62574  24.646  19.732  19.783  0.0632  0.1488 -0.0432
 3407DPPC   C3A62575  24.956  19.388  19.680  0.4795  0.2054  0.0074
 3407DPPC   C4A62576  25.301  19.168  19.781  0.0271  0.1254 -0.2860
 3407DPPC   C1B62577  23.983  19.587  19.422  0.1877 -0.0384  0.3145
 3407DPPC   C2B62578  24.302  19.390  19.324 -0.0237 -0.2407 -0.2146
 3407DPPC   C3B62579  24.716  19.454  19.260  0.1730  0.3669  0.0621
 3407DPPC   C4B62580  24.833  19.689  18.867 -0.1400 -0.1884  0.1591
 3408DPPC   NC362581  21.300  21.067  18.717 -0.2773  0.0216 -0.2272
 3408DPPC   PO462582  21.676  21.010  18.967 -0.5281 -0.1265 -0.2127
 3408DPPC   GL162583  21.928  21.372  19.000 -0.1346  0.1155 -0.0110
 3408DPPC   GL262584  21.940  21.358  18.719  0.1404 -0.0469  0.1873
 3408DPPC   C1A62585  22.267  21.694  19.034  0.1691 -0.0150  0.1125
 3408DPPC   C2A62586  22.709  21.820  18.920  0.1266 -0.0400 -0.2034
 3408DPPC   C3A62587  23.135  21.828  18.748 -0.1949  0.2742  0.0930
 3408DPPC   C4A62588  23.185  21.670  18.343 -0.3998 -0.0443  0.1579
 3408DPPC   C1B62589  22.046  21.415  18.242 -0.0003 -0.3211 -0.1775
 3408DPPC   C2B62590  22.337  21.058  18.101  0.0079 -0.0446  0.3530
 3408DPPC   C3B62591  22.239  20.912  17.669 -0.0594 -0.1214 -0.1978
 3408DPPC   C4B62592  22.374  21.074  17.214  0.1336 -0.1965  0.1634
 3409DPPC   NC362593  25.571  23.652   2.232 -0.1269 -0.1272  0.3448
 3409DPPC   PO462594  25.998  23.527   2.127 -0.0773  0.1481  0.0464
 3409DPPC   GL162595  25.894  23.421   1.714  0.1861 -0.1212  0.0280
 3409DPPC   GL262596  25.620  23.328   1.557  0.4975 -0.1506 -0.0210
 3409DPPC   C1A62597  26.096  23.655   1.352 -0.2183 -0.2279  0.0905
 3409DPPC   C2A62598  26.387  23.839   1.053  0.2328 -0.0319 -0.1477
 3409DPPC   C3A62599  26.702  24.241   1.071  0.1212  0.2228  0.0551
 3409DPPC   C4A62600  26.927  24.346   0.662 -0.1018  0.2272  0.2390
 3409DPPC   C1B62601  25.826  23.276   1.129  0.1674  0.1846 -0.3666
 3409DPPC   C2B62602  26.084  23.485   0.819  0.2846 -0.0321 -0.0648
 3409DPPC   C3B62603  26.185  23.781   0.494 -0.1570  0.2135 -0.0767
 3409DPPC   C4B62604  26.127  23.949   0.028 -0.2178 -0.0252 -0.1010
 3410DPPC   NC362605  25.141  20.297  24.287 -0.1028 -0.1532 -0.2062
 3410DPPC   PO462606  25.519  20.191  24.366  0.1425  0.1316  0.1363
 3410DPPC   GL162607  25.742  20.500  24.204 -0.2832  0.2494 -0.0709
 3410DPPC   GL262608  26.028  20.520  24.276 -0.0304 -0.0194  0.2768
 3410DPPC   C1A62609  25.672  20.777  23.911 -0.1410  0.4729 -0.1285
 3410DPPC   C2A62610  25.661  21.177  23.677 -0.0496 -0.3417  0.1658
 3410DPPC   C3A62611  26.013  21.454  23.512 -0.0086  0.1995  0.2201
 3410DPPC   C4A62612  26.295  21.688  23.471  0.0476  0.1953 -0.1670
 3410DPPC   C1B62613  26.144  20.900  24.135 -0.2041 -0.0279  0.0255
 3410DPPC   C2B62614  26.294  21.368  23.892  0.1815  0.1025 -0.0623
 3410DPPC   C3B62615  26.644  21.549  23.822  0.0471 -0.4295 -0.0183
 3410DPPC   C4B62616  27.143  21.586  23.838 -0.2189  0.2742  0.1005
 3411DPPC   NC362617  25.928  19.949  24.037  0.0380  0.3771 -0.1532
 3411DPPC   PO462618  25.666  19.682  23.887  0.0572  0.0825 -0.3082
 3411DPPC   GL162619  25.723  19.921  23.462 -0.0139 -0.0628  0.4887
 3411DPPC   GL262620  25.886  19.837  23.053  0.0684  0.2590  0.0533
 3411DPPC   C1A62621  25.887  20.330  23.161  0.1916  0.1894 -0.0901
 3411DPPC   C2A62622  26.219  20.578  23.153 -0.0060  0.1595  0.0036
 3411DPPC   C3A62623  26.380  20.997  22.895 -0.0883  0.1116  0.0871
 3411DPPC   C4A62624  26.277  21.206  22.611  0.0697  0.1293 -0.0682
 3411DPPC   C1B62625  26.257  19.625  22.974  0.0625 -0.0168  0.0882
 3411DPPC   C2B62626  26.543  19.518  22.580  0.1079  0.0980 -0.1196
 3411DPPC   C3B62627  26.601  19.556  22.177 -0.0772  0.2532  0.0666
 3411DPPC   C4B62628  26.757  19.626  21.826  0.0291  0.1386  0.1601
 3412DPPC   NC362629  21.629  21.393  25.814 -0.1699  0.1274 -0.2789
 3412DPPC   PO462630  21.551  21.735  26.155 -0.1554  0.0829  0.1447
 3412DPPC   GL162631  21.538  21.240  26.292 -0.3779  0.0721 -0.0854
 3412DPPC   GL262632  21.458  21.026  26.060  0.0341 -0.4096  0.2183
 3412DPPC   C1A62633  21.455  20.935  26.634  0.0450  0.4038 -0.2773
 3412DPPC   C2A62634  21.269  20.557  26.887 -0.0410 -0.1492 -0.2521
 3412DPPC   C3A62635  21.138  20.540   0.344  0.2171 -0.1594  0.0072
 3412DPPC   C4A62636  21.094  20.364   0.669 -0.2140 -0.3792 -0.0451
 3412DPPC   C1B62637  21.282  20.688  26.244  0.1127  0.2961 -0.1356
 3412DPPC   C2B62638  21.067  20.319  26.406 -0.1220 -0.2656 -0.2382
 3412DPPC   C3B62639  21.098  20.083  26.804 -0.2527  0.0863  0.3372
 3412DPPC   C4B62640  20.838  20.128   0.182 -0.1536 -0.0662 -0.1813
 3413DPPC   NC362641  24.041  24.956   4.858 -0.1388 -0.2926 -0.0394
 3413DPPC   PO462642  24.251  25.297   5.007  0.0261  0.1675 -0.0032
 3413DPPC   GL162643  24.102  24.985   5.342 -0.0636 -0.0894 -0.0964
 3413DPPC   GL262644  23.767  25.075   5.369 -0.3727  0.2285 -0.1607
 3413DPPC   C1A62645  24.110  24.805   5.679 -0.0250 -0.1729  0.1193
 3413DPPC   C2A62646  24.147  24.404   5.947 -0.5051 -0.1783 -0.1492
 3413DPPC   C3A62647  24.296  23.979   6.006  0.2249 -0.1450 -0.0411
 3413DPPC   C4A62648  24.437  23.493   5.944 -0.0791 -0.1368 -0.0291
 3413DPPC   C1B62649  23.583  24.898   5.693  0.0370 -0.1509  0.0662
 3413DPPC   C2B62650  23.708  24.764   5.986  0.0901 -0.0685  0.1546
 3413DPPC   C3B62651  23.875  24.507   6.412 -0.4645  0.2603  0.0841
 3413DPPC   C4B62652  23.745  24.363   6.861  0.0228 -0.1590  0.2021
 3414DPPC   NC362653  19.995  20.866  19.752  0.1536 -0.1260  0.0425
 3414DPPC   PO462654  19.575  21.084  19.539 -0.2097  0.0447  0.2502
 3414DPPC   GL162655  19.414  20.674  19.774 -0.1431  0.1038  0.0358
 3414DPPC   GL262656  19.695  20.468  19.640 -0.1577  0.2131  0.1020
 3414DPPC   C1A62657  19.065  20.463  19.813 -0.3194 -0.0616  0.2316
 3414DPPC   C2A62658  18.836  20.169  19.971 -0.3542 -0.1912  0.2146
 3414DPPC   C3A62659  18.484  19.818  20.037 -0.0447 -0.1416 -0.0622
 3414DPPC   C4A62660  18.299  19.574  19.717  0.5239 -0.2334 -0.1582
 3414DPPC   C1B62661  19.337  20.490  19.310  0.0738 -0.0656  0.1865
 3414DPPC   C2B62662  19.107  20.225  19.005  0.3724 -0.0181 -0.0292
 3414DPPC   C3B62663  18.867  20.172  18.626  0.0124  0.0823  0.1110
 3414DPPC   C4B62664  18.632  20.353  18.386 -0.1047  0.2812  0.3070
 3415DPPC   NC362665  22.870  25.307   3.084  0.2492  0.0290  0.1517
 3415DPPC   PO462666  22.655  25.759   2.990  0.1713 -0.0138  0.0024
 3415DPPC   GL162667  22.873  25.782   2.623 -0.1235 -0.0478  0.0974
 3415DPPC   GL262668  22.923  25.996   2.340 -0.0479 -0.0840 -0.1296
 3415DPPC   C1A62669  23.380  25.963   2.567 -0.3431  0.0435 -0.0611
 3415DPPC   C2A62670  23.869  25.984   2.354 -0.1590  0.2902 -0.5586
 3415DPPC   C3A62671  24.263  26.269   2.295 -0.1824 -0.1768  0.0983
 3415DPPC   C4A62672  24.727  26.366   2.337 -0.1742 -0.0029 -0.1422
 3415DPPC   C1B62673  23.290  26.159   2.116  0.2406  0.0780 -0.1141
 3415DPPC   C2B62674  23.587  26.222   2.047  0.1885 -0.4506  0.0538
 3415DPPC   C3B62675  23.937  26.345   1.828 -0.1622  0.0782  0.0022
 3415DPPC   C4B62676  24.455  26.363   1.843  0.0187  0.3615  0.3842
 3416DPPC   NC362677  20.958  25.431   3.207 -0.1570  0.0205 -0.3971
 3416DPPC   PO462678  21.068  25.249   2.805  0.0730  0.0508  0.0562
 3416DPPC   GL162679  20.654  25.047   2.921 -0.2507 -0.1497 -0.0054
 3416DPPC   GL262680  20.549  25.103   3.269 -0.1563  0.1171  0.3627
 3416DPPC   C1A62681  20.259  24.780   2.944 -0.2260 -0.3158 -0.1120
 3416DPPC   C2A62682  20.138  24.481   3.269 -0.2880 -0.2404 -0.0790
 3416DPPC   C3A62683  19.883  24.679   3.598  0.1554  0.1919  0.0995
 3416DPPC   C4A62684  19.479  24.468   3.567  0.0368  0.0440  0.0023
 3416DPPC   C1B62685  20.064  25.122   3.268 -0.3183  0.2616  0.0839
 3416DPPC   C2B62686  19.815  25.180   3.592 -0.0152  0.0987  0.3477
 3416DPPC   C3B62687  19.446  24.957   3.869  0.1401 -0.0025 -0.3594
 3416DPPC   C4B62688  19.031  24.741   3.993 -0.3585 -0.0327  0.0201
 3417DPPC   NC362689  20.730  20.910  22.651  0.1765  0.1722 -0.0146
 3417DPPC   PO462690  20.809  20.609  22.248 -0.1303 -0.2596 -0.3375
 3417DPPC   GL162691  20.672  20.183  22.346  0.2156 -0.0510 -0.0056
 3417DPPC   GL262692  20.966  19.907  22.312 -0.4145 -0.0746  0.0022
 3417DPPC   C1A62693  20.398  19.845  22.318  0.1452  0.2542 -0.1874
 3417DPPC   C2A62694  20.270  19.368  22.165 -0.0002 -0.0022 -0.0590
 3417DPPC   C3A62695  20.210  19.022  21.938 -0.0358 -0.4465  0.2363
 3417DPPC   C4A62696  19.984  18.778  21.634 -0.5220 -0.0438 -0.2787
 3417DPPC   C1B62697  20.738  19.510  22.347 -0.0398  0.3235 -0.1478
 3417DPPC   C2B62698  20.695  19.062  22.282  0.3773  0.1312  0.3294
 3417DPPC   C3B62699  20.482  18.657  22.165  0.2236  0.0425 -0.3064
 3417DPPC   C4B62700  20.204  18.268  22.271 -0.1876 -0.1603 -0.0496
 3418DPPC   NC362701  18.165  27.243   0.990 -0.2172 -0.1138 -0.0167
 3418DPPC   PO462702  18.373  27.555   1.319  0.0269 -0.0230 -0.0987
 3418DPPC   GL162703  18.169  27.641   1.711  0.1401 -0.1472  0.0616
 3418DPPC   GL262704  18.121  27.595   2.013 -0.2016  0.1863  0.0686
 3418DPPC   C1A62705  17.714  27.768   1.750 -0.1663  0.2021  0.2391
 3418DPPC   C2A62706  17.261  27.784   1.882  0.1055  0.0439  0.3161
 3418DPPC   C3A62707  16.809  27.791   2.002  0.1162  0.0706 -0.1872
 3418DPPC   C4A62708  16.273  27.762   1.878 -0.1709  0.0144  0.0507
 3418DPPC   C1B62709  17.863  27.683   2.235 -0.2113 -0.1608 -0.0351
 3418DPPC   C2B62710  17.436  27.951   2.332 -0.1583 -0.0370 -0.0469
 3418DPPC   C3B62711  17.061  28.202   2.227  0.1134  0.2433  0.0864
 3418DPPC   C4B62712  16.768  28.429   2.196  0.1541  0.0910  0.3522
 3419DPPC   NC362713  22.409  21.428  22.701 -0.1832  0.0342 -0.0332
 3419DPPC   PO462714  22.018  21.314  22.349  0.2548 -0.1943 -0.0048
 3419DPPC   GL162715  21.873  21.718  22.174 -0.0274  0.0976  0.0579
 3419DPPC   GL262716  22.114  21.807  22.379 -0.1123 -0.0984 -0.1977
 3419DPPC   C1A62717  21.985  22.136  22.062 -0.3853  0.2447  0.2865
 3419DPPC   C2A62718  22.408  22.290  21.827 -0.2428  0.1092 -0.0116
 3419DPPC   C3A62719  22.687  22.437  21.632  0.0542 -0.0936  0.2339
 3419DPPC   C4A62720  23.033  22.655  21.518  0.0991  0.4175 -0.2166
 3419DPPC   C1B62721  22.456  22.180  22.391  0.1479 -0.3248 -0.0472
 3419DPPC   C2B62722  22.678  22.478  22.179 -0.0699 -0.0532 -0.3853
 3419DPPC   C3B62723  22.894  22.847  22.165  0.2228 -0.1263 -0.1386
 3419DPPC   C4B62724  23.123  23.268  22.177 -0.1616  0.0833 -0.1192
 3420DPPC   NC362725  21.966  26.081   4.169 -0.2227 -0.1970  0.0061
 3420DPPC   PO462726  21.858  25.691   4.254 -0.1924  0.2177 -0.2393
 3420DPPC   GL162727  21.681  25.386   4.451 -0.1479  0.1350  0.3185
 3420DPPC   GL262728  21.884  25.187   4.526  0.0333 -0.1563  0.1373
 3420DPPC   C1A62729  21.458  25.438   4.896  0.4302 -0.0249  0.0951
 3420DPPC   C2A62730  21.391  25.356   5.312  0.0510 -0.2122  0.0185
 3420DPPC   C3A62731  21.279  25.304   5.763 -0.0421  0.1698 -0.0501
 3420DPPC   C4A62732  21.089  25.438   6.230  0.0615 -0.1964  0.1342
 3420DPPC   C1B62733  21.760  24.997   4.879 -0.0038 -0.0802  0.0087
 3420DPPC   C2B62734  22.075  24.785   5.191  0.0259  0.0203  0.2853
 3420DPPC   C3B62735  22.214  24.363   5.372 -0.0750  0.0744 -0.1272
 3420DPPC   C4B62736  21.903  23.983   5.565 -0.2742 -0.1912  0.3127
 3421DPPC   NC362737  20.212  26.105  26.152  0.2313 -0.1636 -0.0203
 3421DPPC   PO462738  20.181  26.186  25.669 -0.1590  0.0468 -0.0566
 3421DPPC   GL162739  20.379  26.544  25.545 -0.3087  0.1316 -0.1055
 3421DPPC   GL262740  20.108  26.602  25.414 -0.0380  0.0278  0.3424
 3421DPPC   C1A62741  20.633  26.877  25.457  0.1042  0.1255 -0.0216
 3421DPPC   C2A62742  20.702  27.076  25.204  0.3043  0.2973 -0.0986
 3421DPPC   C3A62743  20.701  27.585  25.359  0.1468  0.1020 -0.0259
 3421DPPC   C4A62744  20.947  27.891  25.262 -0.1862  0.0399 -0.0487
 3421DPPC   C1B62745  20.274  26.717  25.064  0.0188 -0.3127 -0.2147
 3421DPPC   C2B62746  20.337  27.047  24.749 -0.1000  0.0194 -0.1169
 3421DPPC   C3B62747  20.825  27.143  24.628  0.2610 -0.1510  0.1539
 3421DPPC   C4B62748  21.280  27.121  24.730 -0.3559 -0.2446  0.2324
 3422DPPC   NC362749  38.854  32.760  17.372 -0.0616  0.1616  0.4670
 3422DPPC   PO462750  38.598  32.985  17.032 -0.1597 -0.3252  0.2370
 3422DPPC   GL162751  38.374  32.634  17.148 -0.1131  0.4594 -0.1202
 3422DPPC   GL262752  38.576  32.398  17.135  0.2967  0.0981 -0.2427
 3422DPPC   C1A62753  38.228  32.445  17.479 -0.0671  0.0223 -0.2269
 3422DPPC   C2A62754  37.848  32.272  17.527 -0.0598 -0.2529  0.2523
 3422DPPC   C3A62755  37.281  32.082  17.605  0.0269 -0.4296 -0.1932
 3422DPPC   C4A62756  37.016  31.704  17.385  0.0147 -0.2326 -0.1016
 3422DPPC   C1B62757  38.323  32.074  17.153  0.0481  0.1011  0.2533
 3422DPPC   C2B62758  37.964  31.831  17.277 -0.3319  0.2169  0.2126
 3422DPPC   C3B62759  37.529  31.611  17.269 -0.0824  0.0612  0.0061
 3422DPPC   C4B62760  37.225  31.300  17.328 -0.0369  0.2810 -0.0356
 3423DPPC   NC362761  22.158  27.633  20.883 -0.0337 -0.1400 -0.2584
 3423DPPC   PO462762  22.416  27.386  20.675 -0.3147 -0.2298 -0.0990
 3423DPPC   GL162763  22.229  27.151  20.883 -0.1961 -0.0472 -0.0801
 3423DPPC   GL262764  22.297  27.231  21.154 -0.0925  0.0426  0.0844
 3423DPPC   C1A62765  21.969  26.859  21.018  0.1106  0.0073 -0.0390
 3423DPPC   C2A62766  21.674  26.583  21.160 -0.1482  0.3973 -0.0454
 3423DPPC   C3A62767  21.321  26.694  21.381  0.0948  0.3299 -0.1126
 3423DPPC   C4A62768  20.961  26.537  21.678 -0.3011 -0.0128 -0.0371
 3423DPPC   C1B62769  22.023  27.120  21.444 -0.0098  0.0304 -0.0977
 3423DPPC   C2B62770  21.707  26.914  21.665 -0.1290 -0.0093  0.0975
 3423DPPC   C3B62771  21.422  26.770  21.928  0.0583  0.1271 -0.3287
 3423DPPC   C4B62772  21.293  26.379  22.044  0.4538 -0.1989 -0.1043
 3424DPPC   NC362773  23.472  30.182   0.768  0.1903 -0.1710  0.1179
 3424DPPC   PO462774  23.237  30.227   1.125  0.3022 -0.1349  0.0354
 3424DPPC   GL162775  23.352  30.095   1.546 -0.1097  0.0546  0.4517
 3424DPPC   GL262776  23.512  30.377   1.771  0.1538 -0.2164  0.1809
 3424DPPC   C1A62777  23.614  29.699   1.623 -0.0230 -0.2329 -0.2001
 3424DPPC   C2A62778  23.471  29.277   1.915 -0.0571 -0.2733 -0.0001
 3424DPPC   C3A62779  23.705  28.879   1.736  0.1542 -0.0120  0.0959
 3424DPPC   C4A62780  23.931  28.584   1.621 -0.2765 -0.0119  0.2154
 3424DPPC   C1B62781  23.666  30.099   2.038  0.0848 -0.0769 -0.1610
 3424DPPC   C2B62782  23.932  29.604   2.139 -0.0570 -0.2915  0.2983
 3424DPPC   C3B62783  23.814  29.131   2.250 -0.1187  0.1503  0.0715
 3424DPPC   C4B62784  23.854  28.612   2.144  0.1125 -0.0137 -0.0527
 3425DPPC   NC362785  22.359  29.069  21.340 -0.0015 -0.1464 -0.0622
 3425DPPC   PO462786  22.048  28.772  21.666  0.3960  0.0781  0.0148
 3425DPPC   GL162787  21.694  28.548  21.873 -0.2001  0.0276  0.0011
 3425DPPC   GL262788  21.342  28.728  21.930 -0.0966  0.3670  0.1612
 3425DPPC   C1A62789  21.543  28.215  22.065  0.4315 -0.2481 -0.2543
 3425DPPC   C2A62790  21.421  27.963  22.357 -0.3178  0.0724 -0.2645
 3425DPPC   C3A62791  21.255  27.639  22.410 -0.0741 -0.0094  0.3461
 3425DPPC   C4A62792  21.098  27.217  22.354 -0.0955  0.0772 -0.1327
 3425DPPC   C1B62793  20.892  28.507  21.745 -0.2858 -0.3506  0.0623
 3425DPPC   C2B62794  20.470  28.374  21.653  0.2024 -0.1908  0.0581
 3425DPPC   C3B62795  20.186  28.603  21.471  0.1746 -0.1251 -0.1557
 3425DPPC   C4B62796  19.734  28.800  21.606 -0.1917  0.1274 -0.0083
 3426DPPC   NC362797  18.948  28.757   7.371 -0.0258 -0.1668 -0.1556
 3426DPPC   PO462798  18.865  28.861   7.035 -0.2131  0.0204 -0.1746
 3426DPPC   GL162799  18.918  28.685   6.537  0.2989  0.2329 -0.3387
 3426DPPC   GL262800  18.741  28.642   6.235 -0.0061  0.1213 -0.0195
 3426DPPC   C1A62801  19.234  28.591   6.184  0.1778 -0.0171  0.0831
 3426DPPC   C2A62802  19.214  28.537   5.642  0.0408  0.1427 -0.1707
 3426DPPC   C3A62803  18.943  28.790   5.410  0.2378 -0.1935  0.1282
 3426DPPC   C4A62804  18.814  29.253   5.306  0.0999  0.1175 -0.0882
 3426DPPC   C1B62805  18.802  28.464   5.843  0.1493  0.2072 -0.4106
 3426DPPC   C2B62806  18.921  28.194   5.427  0.3897  0.0177  0.3302
 3426DPPC   C3B62807  18.912  28.123   4.917  0.0115 -0.1171 -0.1680
 3426DPPC   C4B62808  19.143  28.029   4.523 -0.0343 -0.1737 -0.2520
 3427DPPC   NC362809  23.009  26.106  20.042  0.0299  0.1134  0.0747
 3427DPPC   PO462810  23.021  26.338  20.364  0.0001 -0.1976 -0.1025
 3427DPPC   GL162811  22.725  26.061  20.457 -0.1270  0.0510 -0.1069
 3427DPPC   GL262812  22.755  25.753  20.444 -0.1816  0.0635  0.0487
 3427DPPC   C1A62813  22.319  26.135  20.389 -0.1763 -0.2604 -0.0010
 3427DPPC   C2A62814  21.940  26.118  20.451 -0.0879 -0.0867 -0.0628
 3427DPPC   C3A62815  21.846  25.767  20.550  0.2172 -0.2268  0.2156
 3427DPPC   C4A62816  21.935  25.413  20.455  0.3944 -0.5052 -0.1271
 3427DPPC   C1B62817  22.403  25.723  20.618  0.5727  0.1347 -0.1262
 3427DPPC   C2B62818  22.303  25.363  20.823 -0.0512 -0.1968  0.1125
 3427DPPC   C3B62819  21.934  25.154  20.917  0.0220  0.1221 -0.1750
 3427DPPC   C4B62820  21.541  25.115  21.178  0.0383 -0.1274  0.1810
 3428DPPC   NC362821  25.357  26.294  24.123 -0.0327 -0.1864  0.0778
 3428DPPC   PO462822  25.481  25.959  24.411  0.1865  0.0921  0.2053
 3428DPPC   GL162823  25.159  25.693  24.523  0.3250 -0.0474 -0.0533
 3428DPPC   GL262824  24.928  25.511  24.308 -0.1630  0.1952  0.1453
 3428DPPC   C1A62825  24.973  25.462  24.786  0.2097  0.0018 -0.1467
 3428DPPC   C2A62826  24.598  25.249  25.081 -0.0021 -0.1213 -0.1319
 3428DPPC   C3A62827  24.211  24.920  25.045  0.0641 -0.0079  0.0723
 3428DPPC   C4A62828  24.120  24.642  25.362 -0.2056  0.1938  0.1312
 3428DPPC   C1B62829  24.580  25.110  24.573  0.0334  0.0716  0.0786
 3428DPPC   C2B62830  24.397  24.698  24.601  0.0520 -0.2205  0.0616
 3428DPPC   C3B62831  24.019  24.467  24.776 -0.5723 -0.0755  0.3642
 3428DPPC   C4B62832  23.906  24.008  24.730 -0.0224  0.2671  0.1081
 3429DPPC   NC362833  15.480  31.664  18.985  0.1775  0.1127  0.0326
 3429DPPC   PO462834  15.682  31.366  18.716 -0.3555 -0.0636 -0.1144
 3429DPPC   GL162835  16.009  31.038  19.008  0.1919  0.0810  0.2299
 3429DPPC   GL262836  15.799  31.050  19.192  0.2285 -0.2072 -0.0498
 3429DPPC   C1A62837  16.309  30.847  19.218  0.4072  0.1372  0.0464
 3429DPPC   C2A62838  16.728  30.674  19.249  0.1058 -0.5543 -0.2859
 3429DPPC   C3A62839  17.021  31.051  19.184 -0.1184 -0.0951  0.3112
 3429DPPC   C4A62840  17.333  31.284  19.187  0.0549 -0.4382  0.2124
 3429DPPC   C1B62841  16.003  31.255  19.467  0.1776  0.0504 -0.0462
 3429DPPC   C2B62842  16.395  31.142  19.600 -0.1826 -0.1076 -0.0056
 3429DPPC   C3B62843  16.803  31.005  19.661 -0.1279  0.0303  0.1309
 3429DPPC   C4B62844  17.082  30.704  19.629 -0.3185 -0.2634 -0.0628
 3430DPPC   NC362845  38.300  29.128   1.437  0.1796  0.0079 -0.0337
 3430DPPC   PO462846  38.323  29.554   1.752 -0.0070  0.5835 -0.1995
 3430DPPC   GL162847  37.931  29.446   1.454  0.0140 -0.4436 -0.1893
 3430DPPC   GL262848  38.060  29.396   1.174 -0.0031 -0.1891  0.1916
 3430DPPC   C1A62849  37.532  29.470   1.095  0.3023 -0.0980 -0.4243
 3430DPPC   C2A62850  37.122  29.605   1.084  0.2212 -0.0634 -0.1790
 3430DPPC   C3A62851  36.886  29.863   1.283 -0.1781 -0.0344  0.1265
 3430DPPC   C4A62852  36.686  29.819   1.653 -0.0945  0.1670  0.2275
 3430DPPC   C1B62853  37.911  29.346   0.773  0.0838 -0.0756 -0.2050
 3430DPPC   C2B62854  37.518  29.196   0.702  0.2472  0.6115 -0.0851
 3430DPPC   C3B62855  37.158  29.109   0.435 -0.2485  0.1634 -0.4704
 3430DPPC   C4B62856  36.836  28.792   0.311  0.1896  0.5207 -0.1660
 3431DPPC   NC362857  23.423  27.901  24.084 -0.1404  0.0451  0.1443
 3431DPPC   PO462858  23.695  27.760  24.410 -0.0211 -0.0713  0.2807
 3431DPPC   GL162859  23.399  27.448  24.518 -0.0323  0.2482 -0.0496
 3431DPPC   GL262860  23.175  27.484  24.813  0.1404 -0.0858 -0.0693
 3431DPPC   C1A62861  23.180  27.094  24.290  0.1017  0.0164  0.0951
 3431DPPC   C2A62862  22.998  26.737  24.291 -0.1767 -0.4860 -0.4284
 3431DPPC   C3A62863  22.723  26.537  24.547 -0.1343 -0.2657  0.1962
 3431DPPC   C4A62864  22.435  26.430  24.688  0.1672 -0.0184 -0.3845
 3431DPPC   C1B62865  22.995  27.196  25.228 -0.3475  0.0191  0.0717
 3431DPPC   C2B62866  22.926  26.971  25.640  0.1002 -0.0443 -0.3782
 3431DPPC   C3B62867  22.977  27.090  26.076 -0.3733  0.0695  0.1038
 3431DPPC   C4B62868  22.910  27.320  26.370 -0.2492  0.3124 -0.0849
 3432DPPC   NC362869  25.718  21.636  20.320 -0.2422  0.1418 -0.0786
 3432DPPC   PO462870  25.821  21.357  20.082  0.3721 -0.4699  0.0395
 3432DPPC   GL162871  25.474  21.094  19.946  0.1545  0.2369  0.2649
 3432DPPC   GL262872  25.214  21.134  20.087 -0.1805  0.2576 -0.0758
 3432DPPC   C1A62873  25.388  20.705  19.830 -0.1891  0.4835 -0.1533
 3432DPPC   C2A62874  25.471  20.245  19.846 -0.0977 -0.0908  0.0398
 3432DPPC   C3A62875  25.563  19.766  19.683  0.0623 -0.0442  0.1057
 3432DPPC   C4A62876  25.758  19.406  19.718 -0.2416  0.2980  0.0181
 3432DPPC   C1B62877  25.019  21.487  20.364 -0.0106  0.1730 -0.2774
 3432DPPC   C2B62878  24.835  21.795  20.437  0.1063  0.0066 -0.0314
 3432DPPC   C3B62879  24.406  21.782  20.636 -0.4534  0.0014  0.1911
 3432DPPC   C4B62880  23.952  21.914  20.799  0.2670 -0.2433 -0.1078
 3433DPPC   NC362881  20.329  21.477  19.012 -0.1299 -0.0518  0.2403
 3433DPPC   PO462882  20.218  21.535  18.545 -0.0428  0.0282 -0.1047
 3433DPPC   GL162883  20.201  21.020  18.469 -0.2529 -0.0267 -0.0136
 3433DPPC   GL262884  19.974  20.888  18.715  0.1325  0.0966  0.0448
 3433DPPC   C1A62885  20.316  20.587  18.296 -0.2864 -0.0626  0.3560
 3433DPPC   C2A62886  20.298  20.219  18.128 -0.1572  0.0051  0.0906
 3433DPPC   C3A62887  20.574  19.938  17.938 -0.1416 -0.1207  0.0669
 3433DPPC   C4A62888  20.674  19.600  17.768 -0.0950 -0.0489 -0.1932
 3433DPPC   C1B62889  19.796  20.754  18.368  0.3050  0.0547 -0.2553
 3433DPPC   C2B62890  19.579  20.930  18.086 -0.0110 -0.2948  0.1115
 3433DPPC   C3B62891  19.614  20.787  17.614 -0.3389  0.1651  0.0892
 3433DPPC   C4B62892  19.691  20.470  17.492  0.0195 -0.3186  0.1564
 3434DPPC   NC362893  19.370  22.221  23.445 -0.4664  0.0380  0.0676
 3434DPPC   PO462894  19.492  22.402  23.951 -0.4206  0.1683 -0.2032
 3434DPPC   GL162895  19.180  22.346  24.145 -0.0751 -0.2023 -0.2185
 3434DPPC   GL262896  18.996  22.199  23.876 -0.2749 -0.2773 -0.0657
 3434DPPC   C1A62897  18.806  22.143  24.356  0.0911 -0.1186 -0.1497
 3434DPPC   C2A62898  18.432  21.848  24.260  0.3133  0.2218 -0.0620
 3434DPPC   C3A62899  18.152  21.440  24.357 -0.1221  0.1775  0.5607
 3434DPPC   C4A62900  17.786  21.498  24.702 -0.4739 -0.2015  0.3156
 3434DPPC   C1B62901  18.712  21.898  23.849  0.0391 -0.0505  0.5298
 3434DPPC   C2B62902  18.417  21.888  23.677  0.1970  0.1072  0.0523
 3434DPPC   C3B62903  18.058  22.035  23.954  0.1630  0.1362  0.1782
 3434DPPC   C4B62904  17.857  21.856  24.335  0.0171  0.0615  0.1481
 3435DPPC   NC362905  25.124  25.004   5.032  0.2021 -0.0183 -0.4788
 3435DPPC   PO462906  24.930  24.765   5.261 -0.1159  0.0581  0.3683
 3435DPPC   GL162907  24.789  24.352   5.142  0.2280 -0.1321 -0.0141
 3435DPPC   GL262908  24.626  24.299   4.910  0.2505  0.1013 -0.0940
 3435DPPC   C1A62909  24.769  24.160   5.580  0.0735  0.3045  0.1425
 3435DPPC   C2A62910  24.849  23.981   5.973 -0.0574 -0.0263  0.2888
 3435DPPC   C3A62911  24.707  23.711   6.245  0.3126 -0.0662  0.3357
 3435DPPC   C4A62912  24.731  23.482   6.562 -0.0453  0.1233 -0.2223
 3435DPPC   C1B62913  24.358  23.898   5.123 -0.0051 -0.0314  0.1288
 3435DPPC   C2B62914  24.039  23.602   5.170  0.4045 -0.2824  0.2973
 3435DPPC   C3B62915  23.574  23.432   5.052  0.1763 -0.0222  0.2407
 3435DPPC   C4B62916  23.231  23.714   4.971  0.2769 -0.0182 -0.1602
 3436DPPC   NC362917  20.156  22.341  19.542  0.0521 -0.1560 -0.3363
 3436DPPC   PO462918  20.525  22.165  19.618  0.1003  0.1100  0.0379
 3436DPPC   GL162919  20.889  22.463  19.527 -0.1374  0.2649 -0.2652
 3436DPPC   GL262920  21.001  22.388  19.791  0.0529  0.0096  0.0541
 3436DPPC   C1A62921  21.119  22.766  19.207  0.1846  0.1149 -0.4221
 3436DPPC   C2A62922  21.266  23.104  18.891  0.3581  0.1710  0.0758
 3436DPPC   C3A62923  21.158  23.463  18.776 -0.3759  0.1188  0.0676
 3436DPPC   C4A62924  20.737  23.722  18.712  0.0708 -0.4208 -0.1231
 3436DPPC   C1B62925  21.022  22.873  19.749 -0.2784  0.0091 -0.1117
 3436DPPC   C2B62926  20.775  23.305  19.764  0.0452 -0.1857 -0.1551
 3436DPPC   C3B62927  21.070  23.693  19.996 -0.1560 -0.3377 -0.1898
 3436DPPC   C4B62928  21.129  23.806  20.369  0.0312  0.0556 -0.1870
 3437DPPC   NC362929  27.658  22.518   2.477  0.1639 -0.3987  0.3724
 3437DPPC   PO462930  27.355  22.755   2.253  0.3545  0.1208 -0.0292
 3437DPPC   GL162931  27.650  23.010   1.959  0.0874 -0.1773 -0.4835
 3437DPPC   GL262932  28.001  23.056   1.988  0.1509  0.4506 -0.0659
 3437DPPC   C1A62933  27.737  23.470   1.888 -0.2123  0.2032  0.1112
 3437DPPC   C2A62934  27.992  23.812   1.762  0.1066 -0.2113 -0.0095
 3437DPPC   C3A62935  28.044  24.067   1.551 -0.3240  0.1802  0.3307
 3437DPPC   C4A62936  28.202  23.983   1.027  0.1852  0.2499  0.0851
 3437DPPC   C1B62937  28.375  22.960   1.878 -0.0076 -0.6001  0.2427
 3437DPPC   C2B62938  28.696  23.131   1.614 -0.1783 -0.0052 -0.0480
 3437DPPC   C3B62939  28.957  23.195   1.333  0.0808 -0.0500  0.0409
 3437DPPC   C4B62940  29.096  23.086   0.881 -0.2414  0.0407  0.2322
 3438DPPC   NC362941  20.464  26.455  26.920  0.2639  0.0665  0.3013
 3438DPPC   PO462942  20.519  26.525   0.417  0.1163  0.0668 -0.0785
 3438DPPC   GL162943  20.707  26.909   0.245  0.2502 -0.3230  0.0717
 3438DPPC   GL262944  20.986  26.724   0.422  0.1098  0.1557  0.0255
 3438DPPC   C1A62945  20.840  27.103  26.866 -0.1777 -0.2652  0.5309
 3438DPPC   C2A62946  21.158  27.137  26.655  0.0274 -0.0647  0.1959
 3438DPPC   C3A62947  20.967  27.120  26.274  0.0499 -0.1831  0.2539
 3438DPPC   C4A62948  20.633  26.868  26.393 -0.1964  0.0465 -0.1105
 3438DPPC   C1B62949  21.249  26.730   0.097 -0.0066  0.1293 -0.0809
 3438DPPC   C2B62950  21.616  26.720  26.767  0.0873  0.1401  0.4343
 3438DPPC   C3B62951  21.535  26.929  26.385 -0.0834 -0.1058 -0.1051
 3438DPPC   C4B62952  21.504  27.307  26.291  0.2519  0.3531 -0.1118
 3439DPPC   NC362953  16.430  26.515  20.177  0.2144  0.1812 -0.1005
 3439DPPC   PO462954  16.641  26.497  20.588  0.0081  0.2160 -0.0309
 3439DPPC   GL162955  16.235  26.519  20.738  0.0393 -0.0421  0.0763
 3439DPPC   GL262956  16.078  26.360  20.561 -0.2646  0.4082 -0.3226
 3439DPPC   C1A62957  15.852  26.765  20.843 -0.0767  0.0635  0.2942
 3439DPPC   C2A62958  15.401  26.825  20.880 -0.1554  0.2005 -0.2349
 3439DPPC   C3A62959  14.891  26.668  20.899  0.0684  0.0906  0.3171
 3439DPPC   C4A62960  14.451  26.752  20.831 -0.2319 -0.2487  0.2081
 3439DPPC   C1B62961  15.666  26.269  20.737  0.1355  0.1894 -0.1402
 3439DPPC   C2B62962  15.375  25.943  20.579  0.2815 -0.2324 -0.1392
 3439DPPC   C3B62963  15.258  25.614  20.295  0.1108 -0.5135 -0.1522
 3439DPPC   C4B62964  14.883  25.223  20.220 -0.2796 -0.3681  0.1218
 3440DPPC   NC362965  24.351  20.768   0.986 -0.0653 -0.0338 -0.2756
 3440DPPC   PO462966  23.895  20.788   0.842 -0.2320 -0.0758 -0.1315
 3440DPPC   GL162967  23.833  20.326   0.711  0.3033  0.1571  0.0717
 3440DPPC   GL262968  24.099  20.290   1.035  0.0359 -0.0127  0.2518
 3440DPPC   C1A62969  23.634  20.009   0.955  0.1239  0.0732 -0.0921
 3440DPPC   C2A62970  23.377  19.961   1.257 -0.1440  0.1948  0.1081
 3440DPPC   C3A62971  23.150  19.584   1.557  0.1597  0.0008 -0.0087
 3440DPPC   C4A62972  23.038  19.325   1.927  0.1464 -0.1803 -0.0604
 3440DPPC   C1B62973  23.972  19.949   1.407 -0.2585 -0.2440  0.0772
 3440DPPC   C2B62974  23.732  19.630   1.598 -0.1386  0.2392 -0.1564
 3440DPPC   C3B62975  23.534  19.238   1.776 -0.0357  0.1336 -0.0598
 3440DPPC   C4B62976  23.534  19.099   2.248 -0.0156  0.0686  0.1628
 3441DPPC   NC362977  20.597  20.345  20.320  0.3208 -0.1613 -0.0267
 3441DPPC   PO462978  20.341  20.544  20.640  0.5534 -0.2225  0.0967
 3441DPPC   GL162979  20.090  20.114  20.827  0.1258  0.0806  0.0497
 3441DPPC   GL262980  20.275  19.787  20.839 -0.0237  0.2049 -0.1868
 3441DPPC   C1A62981  19.663  19.856  20.862 -0.0272  0.1527  0.4198
 3441DPPC   C2A62982  19.292  19.683  20.636 -0.0583 -0.0088 -0.1114
 3441DPPC   C3A62983  19.124  19.436  20.455 -0.0257 -0.1053  0.0868
 3441DPPC   C4A62984  19.197  19.155  20.059 -0.1882  0.0177  0.0936
 3441DPPC   C1B62985  20.047  19.348  20.888 -0.0054  0.1847 -0.0635
 3441DPPC   C2B62986  19.623  19.291  20.910  0.0785  0.2874 -0.0687
 3441DPPC   C3B62987  19.276  19.515  21.064  0.0893  0.5222  0.1654
 3441DPPC   C4B62988  18.832  19.554  20.820  0.2351  0.0261 -0.0917
 3442DPPC   NC362989  24.703  22.302   2.693  0.2382 -0.1551  0.2312
 3442DPPC   PO462990  25.067  22.442   2.984  0.1583  0.1630  0.1849
 3442DPPC   GL162991  24.916  22.311   3.406  0.1026 -0.1580  0.0198
 3442DPPC   GL262992  24.815  22.525   3.661  0.2269  0.0155 -0.0407
 3442DPPC   C1A62993  24.870  21.938   3.624 -0.2141 -0.1277 -0.0873
 3442DPPC   C2A62994  24.709  21.579   3.892  0.0954  0.0628 -0.2250
 3442DPPC   C3A62995  24.885  21.232   4.132 -0.0903 -0.0604  0.0734
 3442DPPC   C4A62996  24.683  20.897   4.324  0.1887 -0.0039 -0.1385
 3442DPPC   C1B62997  24.794  22.126   4.052  0.3809 -0.2384  0.0974
 3442DPPC   C2B62998  24.739  21.805   4.485  0.0206 -0.2682 -0.1197
 3442DPPC   C3B62999  24.542  21.404   4.464  0.1307 -0.1426 -0.0388
 3442DPPC   C4B63000  24.239  21.137   4.677  0.1707 -0.0491 -0.0832
  37.52614  37.52614  26.92562
